FOO
135168
    1MOL0     O    1   2.489   1.823   2.053  0.3152  0.2138  0.3336
    1MOL0     C    2   2.526   1.906   2.137 -0.5076 -0.3846 -0.0478
    1MOL0     O    3   2.591   1.885   2.252 -0.3858  0.5664  0.0346
    1MOL0     C    4   2.589   1.755   2.300 -0.0613  0.0671 -0.4572
    1MOL0     C    5   2.482   1.668   2.300  0.2139  0.9589 -0.0934
    1MOL0     C    6   2.493   1.551   2.377  0.2006 -0.3491  0.2805
    1MOL0     C    7   2.607   1.518   2.449 -1.5559 -0.3678  0.6541
    1MOL0     O    8   2.617   1.397   2.515  0.1229 -1.2335 -0.1820
    1MOL0     C    9   2.741   1.321   2.506 -0.1582  0.1855  0.3545
    1MOL0     C   10   2.719   1.187   2.551 -0.5733 -0.2854  0.5135
    1MOL0     C   11   2.642   1.104   2.441  0.3316  1.0167 -0.0348
    1MOL0     C   12   2.597   0.967   2.491 -0.5465  1.0372  0.0443
    1MOL0     C   13   2.580   0.849   2.395  0.4104 -0.1781  0.5989
    1MOL0     C   14   2.478   0.875   2.285 -0.5706 -0.5710  0.1224
    1MOL0     C   15   2.454   0.761   2.194 -1.2935 -0.5879  0.3028
    1MOL0     C   16   2.357   0.660   2.244 -0.9296 -0.2615 -0.3323
    1MOL0     N   17   2.331   0.550   2.149 -0.5884  0.1075 -0.2281
    1MOL0     C   18   2.429   0.470   2.088 -1.0286 -0.7779 -0.3308
    1MOL0     C   19   2.350   0.389   2.009 -0.0959 -0.7451  0.3137
    1MOL0     C   20   2.410   0.281   1.923 -0.1902 -0.4156  1.2757
    1MOL0     C   21   2.352   0.244   1.790 -0.7373 -0.6510  0.1104
    1MOL0     C   22   2.229   0.166   1.805  0.2651 -0.2007  1.1038
    1MOL0     C   23   2.175   0.094   1.684 -0.6780 -0.2947  0.2294
    1MOL0     O   24   2.258  -0.023   1.656  0.3633  0.4222 -0.0563
    1MOL0     C   25   2.197  -0.125   1.582 -0.2566 -0.8344  0.6346
    1MOL0     C   26   2.072  -0.115   1.523  0.0926 -0.8580  0.5979
    1MOL0     C   27   2.008  -0.223   1.458 -0.1208 -0.5822 -0.0284
    1MOL0     C   28   2.076  -0.348   1.448  0.5896 -0.2090  0.0728
    1MOL0     C   29   2.019  -0.463   1.378  0.0758  0.4404  0.2274
    1MOL0     O   30   1.969  -0.431   1.258 -0.1341 -0.2998  0.5331
    1MOL0     C   31   1.911  -0.536   1.190 -0.2175 -0.2490  0.4570
    1MOL0     C   32   1.990  -0.610   1.110 -0.1835  0.6731  1.2726
    1MOL0     C   33   1.941  -0.709   1.028 -1.0741 -0.4312  0.7052
    1MOL0     C   34   1.802  -0.730   1.031  0.7547 -0.5703  0.7761
    1MOL0     O   35   1.729  -0.828   0.970  0.0244  0.1379 -0.2131
    1MOL0     C   36   1.790  -0.916   0.873  0.2235 -0.0443 -0.3025
    1MOL0     C   37   1.735  -1.059   0.867  0.0648 -1.0038  0.4578
    1MOL0     C   38   1.585  -1.063   0.834 -0.2760  0.5432 -0.5815
    1MOL0     C   39   1.529  -1.204   0.820  0.0673  0.5076  0.3343
    1MOL0     C   40   1.383  -1.212   0.814 -0.5776 -0.0141 -1.2743
    1MOL0     C   41   1.347  -1.358   0.795  1.3809  1.4543  0.2253
    1MOL0     C   42   1.331  -1.395   0.641 -0.1371  0.9878 -0.5578
    1MOL0     C   43   1.283  -1.539   0.621  0.8496  0.1418 -0.0429
    1MOL0    Cl   44   1.103  -1.561   0.665  0.1765 -0.1328  0.2774
    1MOL0     C   45   1.717  -0.642   1.109 -0.0885  0.6322  0.3767
    1MOL0     C   46   1.777  -0.542   1.184 -0.6162  0.4275 -0.8685
    1MOL0     O   47   2.059  -0.576   1.417 -0.8506 -0.6443 -0.0508
    1MOL0     C   48   2.202  -0.357   1.508  0.0123  0.4595 -0.6284
    1MOL0     C   49   2.263  -0.247   1.553 -0.2895 -0.4084  0.4752
    1MOL0     N   50   2.217   0.421   2.033 -0.0613 -0.4292  0.0530
    1MOL0     N   51   2.206   0.515   2.114  0.0071 -0.9652 -0.4495
    1MOL0     C   52   2.718   1.603   2.435 -0.3017  0.6428 -0.0511
    1MOL0     C   53   2.705   1.723   2.371 -0.3034  0.6489 -0.5719
    1MOL0     C   54   2.498   2.043   2.098 -0.1108  0.3008 -0.3628
    1MOL0     C   55   2.370   2.061   2.048 -0.7953 -0.3313 -0.8591
    1MOL0     C   56   2.315   2.190   2.027 -0.3539 -0.6437 -0.7871
    1MOL0     C   57   2.406   2.295   2.024  0.7673 -0.2274  0.3172
    1MOL0     O   58   2.367   2.422   1.991 -0.1397 -0.4600  0.7521
    1MOL0     C   59   2.344   2.515   2.102 -0.4409  0.3197  0.5248
    1MOL0     C   60   2.203   2.543   2.143 -0.0938  0.1210 -0.7358
    1MOL0     C   61   2.097   2.548   2.034 -0.6798  0.3649 -0.0869
    1MOL0     C   62   1.975   2.598   2.089  0.0169 -0.5682  0.7489
    1MOL0     C   63   1.895   2.664   1.983  0.0802  0.4955 -0.2021
    1MOL0     C   64   1.850   2.709   1.885 -0.2043 -0.8255 -0.0301
    1MOL0     C   65   2.537   2.278   2.070  0.4078  0.2527 -1.2742
    1MOL0     C   66   2.588   2.155   2.107  1.1147 -0.3994  0.3324
    1MOL0     H   67   2.382   1.693   2.268 -1.2297 -3.7677  0.0061
    1MOL0     H   68   2.408   1.490   2.404  0.0361 -2.1517 -3.5281
    1MOL0     H   69   2.824   1.359   2.566  0.4883 -0.9601  0.2233
    1MOL0     H   70   2.779   1.300   2.405 -1.0419 -2.3334  0.4631
    1MOL0     H   71   2.662   1.165   2.642 -0.4267 -2.2539  0.1549
    1MOL0     H   72   2.814   1.134   2.559 -1.2280 -1.5685 -0.0503
    1MOL0     H   73   2.710   1.082   2.358  1.2168 -2.4918  1.4296
    1MOL0     H   74   2.551   1.158   2.415 -0.1276  1.5022  2.3360
    1MOL0     H   75   2.661   0.928   2.571 -3.2226 -2.9011  0.5389
    1MOL0     H   76   2.495   0.975   2.528 -0.6641 -2.5248  0.8834
    1MOL0     H   77   2.561   0.761   2.457  0.5587 -0.0265  0.8618
    1MOL0     H   78   2.669   0.834   2.334 -0.7285  1.1012 -1.4867
    1MOL0     H   79   2.501   0.959   2.218 -3.5782 -1.8134 -2.7591
    1MOL0     H   80   2.383   0.906   2.330 -0.0622  1.5037 -0.1241
    1MOL0     H   81   2.410   0.800   2.102 -0.8426  0.8674  0.6883
    1MOL0     H   82   2.553   0.713   2.187 -1.7768 -1.6874  0.7987
    1MOL0     H   83   2.265   0.713   2.271  1.5301  2.9781  2.6779
    1MOL0     H   84   2.394   0.610   2.335 -0.8121  0.4909  0.0389
    1MOL0     H   85   2.535   0.489   2.074 -1.5612  0.9586 -2.7888
    1MOL0     H   86   2.404   0.194   1.989  0.5252 -0.9115  0.6987
    1MOL0     H   87   2.513   0.306   1.894  0.4084 -4.5467 -1.0305
    1MOL0     H   88   2.429   0.190   1.733 -1.1351 -2.1568  0.9400
    1MOL0     H   89   2.333   0.343   1.748  1.7557  0.6110  1.6714
    1MOL0     H   90   2.234   0.090   1.884  0.5310 -2.5528 -1.0208
    1MOL0     H   91   2.165   0.249   1.836  0.5426  0.7978 -0.8522
    1MOL0     H   92   2.185   0.154   1.593 -0.1324 -0.6587  0.0456
    1MOL0     H   93   2.069   0.073   1.700 -0.5752  0.1400  1.6249
    1MOL0     H   94   2.001  -0.034   1.532 -0.9192 -1.7721  0.9720
    1MOL0     H   95   1.907  -0.229   1.421 -0.9412  0.9269  1.8186
    1MOL0     H   96   2.098  -0.598   1.106 -0.0606 -0.7037 -1.4406
    1MOL0     H   97   2.004  -0.780   0.975 -1.1100 -0.7356  1.0657
    1MOL0     H   98   1.897  -0.927   0.891  0.1626 -0.7750 -0.3383
    1MOL0     H   99   1.770  -0.879   0.772 -0.2492 -2.8685 -1.3254
    1MOL0     H  100   1.754  -1.106   0.964  0.8027 -1.2698  0.1930
    1MOL0     H  101   1.791  -1.103   0.784  2.0812  3.8192 -1.0938
    1MOL0     H  102   1.580  -1.013   0.737  1.7160  1.1862 -0.3873
    1MOL0     H  103   1.539  -1.019   0.923 -0.9079  2.1346 -1.6580
    1MOL0     H  104   1.584  -1.253   0.740  1.2680  2.5852 -0.2015
    1MOL0     H  105   1.563  -1.254   0.911  4.1702  1.1275 -0.6716
    1MOL0     H  106   1.336  -1.153   0.734  2.1651  1.1560 -2.1549
    1MOL0     H  107   1.336  -1.179   0.907  1.4077 -3.1355  1.0339
    1MOL0     H  108   1.244  -1.366   0.832  1.0670 -0.5615 -0.9369
    1MOL0     H  109   1.411  -1.438   0.834 -2.4309 -3.6430 -2.6879
    1MOL0     H  110   1.254  -1.333   0.595  0.0840  0.5211 -1.5848
    1MOL0     H  111   1.430  -1.388   0.594 -0.8180 -1.9018 -2.7266
    1MOL0     H  112   1.347  -1.604   0.682  0.2444 -1.8004 -1.3728
    1MOL0     H  113   1.301  -1.581   0.522 -1.8760 -1.9702  0.2234
    1MOL0     H  114   1.610  -0.658   1.121 -0.5231  2.3632 -0.7920
    1MOL0     H  115   1.709  -0.482   1.245 -0.2902 -2.0447  2.1724
    1MOL0     H  116   2.255  -0.452   1.517 -2.6556 -1.1258 -0.7848
    1MOL0     H  117   2.362  -0.262   1.596 -0.7249  0.2621  1.7613
    1MOL0     H  118   2.813   1.567   2.474 -0.4121  0.1421 -0.2312
    1MOL0     H  119   2.789   1.791   2.366  0.6818 -0.5118 -0.4209
    1MOL0     H  120   2.304   1.975   2.042 -1.2219 -0.5139  3.2713
    1MOL0     H  121   2.215   2.214   1.992  0.4494  0.5194 -2.4737
    1MOL0     H  122   2.381   2.613   2.072  2.1188 -0.6343  0.3175
    1MOL0     H  123   2.395   2.481   2.192 -0.5272  0.8824  0.7838
    1MOL0     H  124   2.167   2.461   2.206 -0.6666 -0.5477 -1.9097
    1MOL0     H  125   2.204   2.630   2.209  1.1938 -1.0823  0.9306
    1MOL0     H  126   2.089   2.445   1.998 -0.0344  0.4520 -0.5024
    1MOL0     H  127   2.134   2.609   1.951  3.3662 -1.5931  0.0234
    1MOL0     H  128   1.921   2.518   2.140 -1.1427 -0.9182 -0.9486
    1MOL0     H  129   1.983   2.675   2.165  0.9083 -3.0117  3.3063
    1MOL0     H  130   1.812   2.756   1.796  0.8322  2.4744  1.1368
    1MOL0     H  131   2.598   2.367   2.082 -0.1571  0.3854  0.9784
    1MOL0     H  132   2.687   2.152   2.151  2.7082  1.4091 -2.7948
    2MOL0     O  133   2.053   5.031   9.093  0.2546 -0.9214  0.2893
    2MOL0     C  134   2.132   5.117   9.052  1.0937  0.6444 -0.5076
    2MOL0     O  135   2.260   5.140   9.109  0.5279  0.1042 -0.0558
    2MOL0     C  136   2.304   5.086   9.220  0.5596  0.2070  0.0524
    2MOL0     C  137   2.434   5.104   9.249 -0.0823 -0.7693 -0.4366
    2MOL0     C  138   2.490   5.057   9.364 -0.2884  0.5838  0.7179
    2MOL0     C  139   2.415   4.977   9.465 -0.4925 -0.0970  0.4827
    2MOL0     O  140   2.470   4.919   9.567 -0.4873 -0.1812  0.0404
    2MOL0     C  141   2.393   4.901   9.680  1.0306 -0.5464  0.2886
    2MOL0     C  142   2.495   4.914   9.796 -0.7249 -0.0132 -0.2279
    2MOL0     C  143   2.465   4.847   9.926  0.2765  0.0193 -0.5117
    2MOL0     C  144   2.352   4.914  10.008 -0.3372  1.0626  0.0356
    2MOL0     C  145   2.330   4.831  10.139 -0.1529  0.0730  0.2800
    2MOL0     C  146   2.186   4.874  10.197 -0.4415  0.3707  0.3900
    2MOL0     C  147   2.157   4.785  10.317  0.8466 -0.4490 -0.5990
    2MOL0     C  148   2.016   4.813  10.377 -0.6269 -0.3881 -0.0253
    2MOL0     N  149   1.912   4.741  10.304  0.5011 -0.0780 -0.8714
    2MOL0     C  150   1.827   4.792  10.208 -0.4711 -0.3791 -0.0946
    2MOL0     C  151   1.746   4.696  10.180  0.1101  0.1583 -0.7020
    2MOL0     C  152   1.634   4.714  10.080  0.7595  0.4911  0.4669
    2MOL0     C  153   1.576   4.584  10.024  0.0156 -0.2200 -0.4924
    2MOL0     C  154   1.430   4.587   9.976 -0.1878 -0.0763  0.7109
    2MOL0     C  155   1.386   4.444   9.935  0.2681  0.6959  0.9423
    2MOL0     O  156   1.341   4.466   9.798  0.1845  0.0104 -0.0677
    2MOL0     C  157   1.272   4.365   9.732  0.1977 -0.0577 -1.1311
    2MOL0     C  158   1.218   4.397   9.605 -0.4191  0.1474 -0.1501
    2MOL0     C  159   1.139   4.303   9.547  0.1555 -0.1726 -0.1236
    2MOL0     C  160   1.129   4.174   9.591 -0.0217 -0.3718 -0.8086
    2MOL0     C  161   1.053   4.073   9.518  0.2537  0.0707 -0.5262
    2MOL0     O  162   1.058   3.945   9.563 -0.3573  0.6596 -0.3397
    2MOL0     C  163   0.971   3.839   9.527  0.8016 -0.1952 -0.9189
    2MOL0     C  164   0.937   3.740   9.620  0.3806 -0.4377 -0.2692
    2MOL0     C  165   0.830   3.654   9.588  0.3443 -0.6433  0.2693
    2MOL0     C  166   0.760   3.661   9.468  0.1590 -0.7142  0.1163
    2MOL0     O  167   0.654   3.581   9.435 -0.0162 -0.6275  0.5485
    2MOL0     C  168   0.576   3.497   9.526  0.6663  1.0778 -0.0791
    2MOL0     C  169   0.447   3.469   9.452  0.5753  0.5526  0.1751
    2MOL0     C  170   0.346   3.397   9.538  0.3703  0.4435 -0.1596
    2MOL0     C  171   0.239   3.322   9.458 -0.5607 -0.1970 -0.4626
    2MOL0     C  172   0.177   3.228   9.560  0.2153  0.7298 -0.1145
    2MOL0     C  173   0.078   3.137   9.488 -0.2569 -1.0746 -0.1930
    2MOL0     C  174   0.028   3.041   9.585  0.1161  1.5333  0.2841
    2MOL0     C  175  -0.012   2.907   9.507 -0.1449 -0.1411 -0.4789
    2MOL0    Cl  176   0.118   2.834   9.399 -0.2800 -0.1047  0.7868
    2MOL0     C  177   0.793   3.753   9.377 -1.3499 -1.3895 -0.0443
    2MOL0     C  178   0.900   3.837   9.398 -1.0292 -0.1486 -0.1338
    2MOL0     O  179   0.984   4.108   9.432  0.2367  0.0215  0.6784
    2MOL0     C  180   1.185   4.142   9.711 -0.8696 -0.0722  0.4962
    2MOL0     C  181   1.260   4.237   9.786  0.0555 -0.2459 -0.2368
    2MOL0     N  182   1.775   4.585  10.257  0.7590 -0.5224 -0.1176
    2MOL0     N  183   1.888   4.607  10.323  0.0705  0.0137  0.6918
    2MOL0     C  184   2.280   4.987   9.444 -0.3669  0.1019  0.2242
    2MOL0     C  185   2.227   5.045   9.333 -0.3340 -0.5367  0.2521
    2MOL0     C  186   2.095   5.201   8.935 -0.2539  0.0689  0.4429
    2MOL0     C  187   1.970   5.189   8.872 -0.0200 -0.6040  0.2663
    2MOL0     C  188   1.954   5.260   8.755 -0.6491 -0.5224  0.4267
    2MOL0     C  189   2.050   5.340   8.699  0.4812 -0.3853  0.4907
    2MOL0     O  190   2.033   5.399   8.575 -0.4043  0.0904  0.2922
    2MOL0     C  191   2.124   5.505   8.525 -0.3871 -0.4305  0.1845
    2MOL0     C  192   2.066   5.584   8.407 -0.0356  0.8053  0.2434
    2MOL0     C  193   2.152   5.704   8.350 -0.1725  0.4361 -0.2818
    2MOL0     C  194   2.070   5.761   8.232 -0.2237  0.2479  0.1919
    2MOL0     C  195   1.975   5.866   8.268 -0.5805  0.0906  0.2143
    2MOL0     C  196   1.898   5.954   8.283  0.9406 -0.4097 -0.5651
    2MOL0     C  197   2.171   5.343   8.762 -0.2652  0.6293  0.6006
    2MOL0     C  198   2.201   5.275   8.875  1.1332 -0.2641 -0.2795
    2MOL0     H  199   2.499   5.149   9.175  0.6142 -0.8726  0.1074
    2MOL0     H  200   2.598   5.049   9.375 -0.4241 -0.6323  1.3676
    2MOL0     H  201   2.335   4.808   9.675  1.7926 -1.1311  1.8487
    2MOL0     H  202   2.316   4.978   9.695  0.5047 -1.0971  0.4811
    2MOL0     H  203   2.503   5.022   9.813  1.6390  0.1710 -1.9705
    2MOL0     H  204   2.592   4.886   9.756 -0.0968  2.3366 -0.5001
    2MOL0     H  205   2.558   4.851   9.984 -0.8919 -0.7723  1.5568
    2MOL0     H  206   2.446   4.741   9.908  0.6640 -0.1304 -0.0673
    2MOL0     H  207   2.380   5.018  10.023  2.2280  0.4549 -0.0370
    2MOL0     H  208   2.265   4.917   9.942  2.0339 -0.9110 -3.5032
    2MOL0     H  209   2.408   4.853  10.212  0.7226  2.4108 -1.2525
    2MOL0     H  210   2.331   4.723  10.126 -0.6390 -0.3437  2.9781
    2MOL0     H  211   2.116   4.861  10.114 -1.2615  0.2909  1.0813
    2MOL0     H  212   2.202   4.981  10.211  0.9198  0.7582 -3.0931
    2MOL0     H  213   2.136   4.690  10.268 -3.3842 -0.4388  0.8343
    2MOL0     H  214   2.247   4.787  10.379  2.6817  0.4204 -3.1288
    2MOL0     H  215   1.993   4.919  10.361  0.4298 -0.3217 -1.2742
    2MOL0     H  216   2.012   4.801  10.485 -0.2536  1.0815  0.1694
    2MOL0     H  217   1.830   4.887  10.156 -2.6504  0.9628  1.9931
    2MOL0     H  218   1.677   4.777  10.002 -1.1926  0.7717 -0.4431
    2MOL0     H  219   1.552   4.776  10.117  0.3872 -0.1393  0.7111
    2MOL0     H  220   1.603   4.506  10.096  2.0376  1.4982  0.7446
    2MOL0     H  221   1.636   4.556   9.936 -0.9639 -1.0732 -0.9172
    2MOL0     H  222   1.370   4.619  10.062  1.0131  1.8781  0.8802
    2MOL0     H  223   1.417   4.663   9.898 -3.6321 -1.0017  0.2385
    2MOL0     H  224   1.309   4.398   9.998 -0.5035  2.1503  1.0845
    2MOL0     H  225   1.467   4.370   9.934 -0.7944 -0.5152 -0.7751
    2MOL0     H  226   1.255   4.488   9.559  0.3329  0.7666  1.5796
    2MOL0     H  227   1.099   4.309   9.446  2.8719 -3.3932 -1.6181
    2MOL0     H  228   0.988   3.732   9.715 -1.6084 -1.9369  0.7505
    2MOL0     H  229   0.795   3.585   9.664  0.2453  1.0871  1.8643
    2MOL0     H  230   0.573   3.547   9.623  2.2798  0.5449  0.2633
    2MOL0     H  231   0.627   3.402   9.540  2.0254  1.9856  1.3992
    2MOL0     H  232   0.479   3.413   9.363  2.9034  1.7822  0.1595
    2MOL0     H  233   0.400   3.562   9.418 -2.8864  0.4563  3.9720
    2MOL0     H  234   0.297   3.474   9.598  0.4102 -0.0583  0.5351
    2MOL0     H  235   0.402   3.324   9.598 -1.3150 -1.1396 -0.3940
    2MOL0     H  236   0.162   3.391   9.423 -0.7226 -1.0160 -1.7933
    2MOL0     H  237   0.295   3.274   9.377  0.7630 -1.2774  1.0327
    2MOL0     H  238   0.121   3.284   9.636 -0.5593 -2.6448  2.0044
    2MOL0     H  239   0.249   3.167   9.614 -1.0468  0.7517  1.6769
    2MOL0     H  240   0.129   3.091   9.403  1.8626  0.5145  0.1437
    2MOL0     H  241  -0.005   3.191   9.442 -0.2842  1.2523  2.3389
    2MOL0     H  242   0.108   3.023   9.657 -1.1097  2.0085  1.8181
    2MOL0     H  243  -0.058   3.089   9.632  0.0914  0.3321  1.5305
    2MOL0     H  244  -0.083   2.935   9.428  1.2514  0.9905 -1.3695
    2MOL0     H  245  -0.061   2.826   9.563  2.2524 -0.9023  0.6363
    2MOL0     H  246   0.744   3.760   9.281  0.3446  1.4948 -0.7993
    2MOL0     H  247   0.917   3.917   9.326  1.0983 -1.7924 -1.5575
    2MOL0     H  248   1.178   4.041   9.747 -0.1819 -0.6476 -0.8885
    2MOL0     H  249   1.300   4.210   9.883  0.7562 -1.8307 -0.9282
    2MOL0     H  250   2.203   4.946   9.508 -1.6686  1.2720 -0.5140
    2MOL0     H  251   2.119   5.057   9.331 -0.2396  0.8706  1.5331
    2MOL0     H  252   1.889   5.133   8.918 -1.3998  0.1582 -1.1041
    2MOL0     H  253   1.852   5.267   8.718 -1.1882  0.1567  1.9281
    2MOL0     H  254   2.230   5.477   8.516  0.0182  0.8734  0.6012
    2MOL0     H  255   2.129   5.575   8.609  0.2575 -2.3546  1.8126
    2MOL0     H  256   2.045   5.510   8.330 -0.0762  3.1225 -2.0949
    2MOL0     H  257   1.965   5.607   8.442 -0.2501 -3.2264  3.0729
    2MOL0     H  258   2.251   5.668   8.320 -0.5299 -0.3328 -0.5576
    2MOL0     H  259   2.169   5.778   8.429 -1.3516 -1.2806  1.7060
    2MOL0     H  260   2.149   5.804   8.171  0.9906 -1.3968  0.5320
    2MOL0     H  261   2.033   5.676   8.173  1.5068 -2.1253  2.3150
    2MOL0     H  262   1.830   6.035   8.299  0.4726 -1.3823  3.3619
    2MOL0     H  263   2.250   5.400   8.716 -0.9663 -0.4789 -2.1787
    2MOL0     H  264   2.299   5.270   8.921  0.2471  0.7445  1.8345
    3MOL0     O  265   8.749   5.949   6.927  0.9019 -0.5038  0.2369
    3MOL0     C  266   8.700   5.869   6.853 -1.6945 -0.0688  0.7131
    3MOL0     O  267   8.741   5.843   6.719 -0.4366  0.5568  0.5981
    3MOL0     C  268   8.854   5.908   6.663  0.7905  0.1264 -0.4972
    3MOL0     C  269   8.926   5.819   6.583  0.2436 -0.2901 -0.6982
    3MOL0     C  270   9.035   5.869   6.508 -0.6428  0.6334 -0.3165
    3MOL0     C  271   9.074   6.002   6.520  0.5204 -0.0693  0.8814
    3MOL0     O  272   9.186   6.033   6.454  0.1687  0.7276  0.0706
    3MOL0     C  273   9.177   6.152   6.384  0.2951 -0.5485 -0.2888
    3MOL0     C  274   9.293   6.144   6.283  0.8072  0.3902 -0.3047
    3MOL0     C  275   9.270   6.040   6.174 -0.2347  0.7512  0.3197
    3MOL0     C  276   9.365   6.047   6.054 -0.3889 -0.1321  0.4023
    3MOL0     C  277   9.370   5.929   5.964 -0.1696 -0.1284 -0.2488
    3MOL0     C  278   9.242   5.904   5.887  0.0696  0.3250 -0.4078
    3MOL0     C  279   9.253   5.779   5.801  0.3078  0.2623  0.5125
    3MOL0     C  280   9.115   5.702   5.803 -0.3199 -0.2241 -0.0481
    3MOL0     N  281   9.120   5.597   5.703  0.7506 -0.5483 -0.2640
    3MOL0     C  282   9.154   5.611   5.567  0.2886 -0.7934  0.1452
    3MOL0     C  283   9.185   5.487   5.529 -0.0312  0.1992  0.1372
    3MOL0     C  284   9.253   5.448   5.396 -0.1557  0.0010  0.3676
    3MOL0     C  285   9.396   5.497   5.389  0.0853  0.4676  0.1965
    3MOL0     C  286   9.409   5.635   5.331  1.0584  0.2811  0.9725
    3MOL0     C  287   9.553   5.685   5.351  0.3916 -0.4464 -0.7031
    3MOL0     O  288   9.587   5.696   5.493 -0.1796  0.3187  0.3334
    3MOL0     C  289   9.719   5.703   5.522 -0.7391  0.0616 -0.4704
    3MOL0     C  290   9.773   5.635   5.631  0.3771  0.3758 -1.1310
    3MOL0     C  291   9.911   5.631   5.661  0.4951 -0.5700 -0.6723
    3MOL0     C  292  10.008   5.703   5.583 -0.2262 -0.3844 -0.2954
    3MOL0     C  293  10.151   5.708   5.607 -0.2298  0.1379  0.1178
    3MOL0     O  294  10.229   5.798   5.534  0.1944 -0.1695  0.1850
    3MOL0     C  295  10.360   5.800   5.581  0.6918  0.4313 -1.1325
    3MOL0     C  296  10.458   5.746   5.501 -0.4268  0.7700  0.0363
    3MOL0     C  297  10.596   5.730   5.542 -0.3280 -0.4393  0.0564
    3MOL0     C  298  10.627   5.787   5.664 -0.8816 -0.8410 -0.2098
    3MOL0     O  299  10.755   5.798   5.713 -0.2847 -0.4697  0.9175
    3MOL0     C  300  10.868   5.743   5.647 -0.1909  0.2863 -0.4634
    3MOL0     C  301  10.989   5.769   5.726  0.2894  0.3510  0.8299
    3MOL0     C  302  11.114   5.735   5.627 -0.3306 -0.6770  0.5217
    3MOL0     C  303  11.236   5.771   5.700 -0.3636  0.0798  0.8469
    3MOL0     C  304  11.357   5.767   5.601  0.7497 -0.2329  0.0944
    3MOL0     C  305  11.488   5.792   5.677  0.4527  0.7289 -0.1546
    3MOL0     C  306  11.604   5.718   5.609  0.7742  0.6604  0.2221
    3MOL0     C  307  11.729   5.732   5.685  0.3579  0.1788  1.1200
    3MOL0    Cl  308  11.734   5.635   5.836  0.6784  0.1881  0.2599
    3MOL0     C  309  10.538   5.863   5.733  0.3425  0.9732 -0.1231
    3MOL0     C  310  10.403   5.867   5.697  0.2226 -0.3912  0.2551
    3MOL0     O  311  10.192   5.646   5.697  0.5466  0.0621 -0.7612
    3MOL0     C  312   9.955   5.769   5.463 -0.3794 -0.3049 -0.0289
    3MOL0     C  313   9.813   5.764   5.436 -0.1261  0.4749  0.8082
    3MOL0     N  314   9.173   5.400   5.632  1.0083  0.1584 -0.2093
    3MOL0     N  315   9.136   5.463   5.732 -0.0884 -0.7815  0.2592
    3MOL0     C  316   8.994   6.087   6.600  0.1287 -0.1682  0.1582
    3MOL0     C  317   8.879   6.042   6.672 -0.7476 -0.1361 -0.7407
    3MOL0     C  318   8.600   5.784   6.900 -0.6565  0.4018  0.1018
    3MOL0     C  319   8.582   5.756   7.036  0.1110  0.5239  0.7793
    3MOL0     C  320   8.492   5.657   7.081 -0.0391  0.9533 -0.0045
    3MOL0     C  321   8.407   5.599   6.978  0.1692  0.2832 -0.0245
    3MOL0     O  322   8.325   5.494   6.991  0.1385 -0.0410  0.1433
    3MOL0     C  323   8.409   5.388   7.020 -0.5262 -0.2715 -0.1147
    3MOL0     C  324   8.329   5.256   6.990  0.2065  0.4455 -0.3102
    3MOL0     C  325   8.184   5.252   7.046 -0.3166 -0.4926  0.7215
    3MOL0     C  326   8.134   5.106   7.044 -0.2589  0.1115  0.0871
    3MOL0     C  327   7.993   5.115   7.092  0.6591 -0.4666  0.1361
    3MOL0     C  328   7.880   5.100   7.149 -1.1526 -0.4502 -0.0706
    3MOL0     C  329   8.407   5.646   6.847 -0.0728  0.3188 -0.0878
    3MOL0     C  330   8.509   5.737   6.808  0.1321  0.9809 -0.5565
    3MOL0     H  331   8.894   5.716   6.570 -0.2285 -0.0665 -1.3841
    3MOL0     H  332   9.098   5.802   6.451  1.7668  2.7797 -0.3541
    3MOL0     H  333   9.189   6.234   6.456  0.0442 -0.1056 -0.7496
    3MOL0     H  334   9.078   6.170   6.342 -1.7929 -2.4305  3.3343
    3MOL0     H  335   9.391   6.128   6.330  0.4644 -1.2585 -0.0995
    3MOL0     H  336   9.306   6.243   6.237  5.2573 -0.6145 -1.7194
    3MOL0     H  337   9.168   6.053   6.138 -0.2088  3.7594  1.1147
    3MOL0     H  338   9.273   5.944   6.227  1.4587  1.6571  1.9864
    3MOL0     H  339   9.326   6.124   5.987 -3.3157 -0.2272  1.8392
    3MOL0     H  340   9.465   6.051   6.099 -0.6318  0.1500  0.9256
    3MOL0     H  341   9.385   5.844   6.031  0.7338  0.9483  0.9562
    3MOL0     H  342   9.454   5.934   5.894  5.5339  2.3085  5.7358
    3MOL0     H  343   9.222   5.990   5.822  0.3362 -0.5197 -1.6501
    3MOL0     H  344   9.164   5.883   5.960  0.6888 -2.2720 -0.3946
    3MOL0     H  345   9.280   5.814   5.701  1.4055 -1.0775  0.3162
    3MOL0     H  346   9.329   5.712   5.842 -2.4547 -1.2648  3.5564
    3MOL0     H  347   9.033   5.771   5.782  0.0536  0.4608  0.7334
    3MOL0     H  348   9.087   5.662   5.900 -3.9023  0.1607 -0.7864
    3MOL0     H  349   9.153   5.697   5.501  1.2430 -1.0748 -0.2521
    3MOL0     H  350   9.197   5.483   5.309 -2.6329  0.1094  1.8995
    3MOL0     H  351   9.262   5.340   5.388 -0.5049  0.0842 -1.6316
    3MOL0     H  352   9.457   5.430   5.327  0.5229  0.1812  0.9253
    3MOL0     H  353   9.438   5.491   5.490  0.8921 -1.2790 -0.1960
    3MOL0     H  354   9.397   5.643   5.223 -0.1120  0.7916  1.1261
    3MOL0     H  355   9.335   5.706   5.369 -2.1455 -2.8539  1.0841
    3MOL0     H  356   9.555   5.788   5.315 -0.2584 -0.2438 -0.1882
    3MOL0     H  357   9.621   5.625   5.290  1.0501 -1.1972  0.7193
    3MOL0     H  358   9.694   5.582   5.685  0.7256  1.0346  0.0763
    3MOL0     H  359   9.922   5.581   5.756 -2.0062  1.0227  0.5620
    3MOL0     H  360  10.430   5.710   5.403 -1.9327  2.6900 -0.3128
    3MOL0     H  361  10.670   5.685   5.478 -1.9831  0.9916 -3.0723
    3MOL0     H  362  10.853   5.785   5.547  1.5604  2.1025 -0.0261
    3MOL0     H  363  10.862   5.634   5.648 -1.0999  0.3335 -0.1008
    3MOL0     H  364  10.986   5.700   5.810  0.0244  0.9486  1.3212
    3MOL0     H  365  10.990   5.871   5.766  2.2533  0.1111  1.5012
    3MOL0     H  366  11.114   5.784   5.530 -2.4911  2.0102  1.7222
    3MOL0     H  367  11.113   5.630   5.595 -0.0089 -0.2146 -1.0576
    3MOL0     H  368  11.231   5.877   5.729  0.6870  0.7051 -1.1210
    3MOL0     H  369  11.244   5.722   5.798  2.5177  4.2459  2.9896
    3MOL0     H  370  11.343   5.854   5.536  0.1769 -1.3424 -1.3050
    3MOL0     H  371  11.360   5.671   5.548  0.4146 -0.6593  0.8247
    3MOL0     H  372  11.481   5.770   5.784  3.3588  1.5447  0.3002
    3MOL0     H  373  11.512   5.899   5.678 -0.6496  0.9857  0.0023
    3MOL0     H  374  11.582   5.614   5.585  3.1892  0.5919 -2.2572
    3MOL0     H  375  11.624   5.762   5.511 -0.2248 -2.4010 -1.4902
    3MOL0     H  376  11.764   5.834   5.704 -1.3655  0.7015  1.6667
    3MOL0     H  377  11.811   5.686   5.629  0.3456  1.2644  0.1709
    3MOL0     H  378  10.579   5.920   5.816  2.7690 -0.0289 -0.5624
    3MOL0     H  379  10.337   5.915   5.768 -0.1623  0.6368 -0.7648
    3MOL0     H  380  10.007   5.833   5.392 -1.3741  2.5749  1.7194
    3MOL0     H  381   9.782   5.817   5.348  0.5976 -3.1473 -1.8715
    3MOL0     H  382   9.025   6.186   6.630 -1.2664 -0.0721  1.4002
    3MOL0     H  383   8.823   6.102   6.743  1.2248  1.2211 -0.2338
    3MOL0     H  384   8.653   5.786   7.113  0.5774  0.0735  0.5299
    3MOL0     H  385   8.490   5.609   7.178  1.6692  1.2113  0.1851
    3MOL0     H  386   8.418   5.401   7.128 -1.6737 -0.9629  0.0738
    3MOL0     H  387   8.502   5.396   6.962  1.0518 -0.1744  2.3014
    3MOL0     H  388   8.330   5.246   6.881  4.2126 -1.3827 -0.3117
    3MOL0     H  389   8.387   5.177   7.040 -1.3979 -0.2015  0.5980
    3MOL0     H  390   8.112   5.320   7.000 -1.0975 -1.0068  1.1630
    3MOL0     H  391   8.174   5.283   7.151 -0.3533  1.3511  0.2140
    3MOL0     H  392   8.138   5.057   6.946 -2.7574 -1.7224  0.8119
    3MOL0     H  393   8.196   5.039   7.105  0.5097  1.7620  1.1838
    3MOL0     H  394   7.779   5.083   7.181 -2.0888 -0.8021 -2.9495
    3MOL0     H  395   8.334   5.614   6.774  0.3338 -0.7186 -0.0615
    3MOL0     H  396   8.508   5.770   6.705 -0.0652  1.3406 -0.4409
    4MOL0     O  397   1.322   0.324   1.211  0.7831 -0.4379 -0.0099
    4MOL0     C  398   1.247   0.291   1.120 -0.0212  0.0363  0.0264
    4MOL0     O  399   1.126   0.347   1.082 -0.2532  0.2844 -0.0668
    4MOL0     C  400   1.072   0.450   1.154 -0.0509 -0.4766  0.0540
    4MOL0     C  401   0.999   0.427   1.270  0.0647 -0.6394 -0.7736
    4MOL0     C  402   0.913   0.525   1.326  0.2341 -0.2385 -0.6696
    4MOL0     C  403   0.921   0.651   1.279  1.2964 -0.1666  0.2107
    4MOL0     O  404   0.846   0.744   1.332  0.2957  0.3979  0.3460
    4MOL0     C  405   0.750   0.813   1.243 -0.4830 -0.6008  0.2616
    4MOL0     C  406   0.699   0.944   1.299 -0.4053 -0.5405 -0.0678
    4MOL0     C  407   0.789   1.039   1.377 -0.4492 -0.5018  0.6359
    4MOL0     C  408   0.708   1.146   1.453  1.1700  1.2165 -0.5531
    4MOL0     C  409   0.797   1.252   1.506 -0.4447  0.2224  0.4946
    4MOL0     C  410   0.816   1.252   1.653  0.9693  0.0433  0.3637
    4MOL0     C  411   0.821   1.392   1.703  0.1086 -1.0290  1.0635
    4MOL0     C  412   0.888   1.397   1.843 -0.0444 -0.6078 -0.6637
    4MOL0     N  413   0.898   1.533   1.904  0.1430 -0.8623  0.4674
    4MOL0     C  414   0.835   1.569   2.024 -0.1442 -0.2155 -1.1555
    4MOL0     C  415   0.892   1.695   2.044  0.4405 -1.1804  0.3222
    4MOL0     C  416   0.884   1.781   2.165 -0.1582 -0.0491 -0.4043
    4MOL0     C  417   1.014   1.766   2.258  0.4570 -0.3153 -1.3578
    4MOL0     C  418   1.139   1.826   2.195  0.0759 -0.3440  0.0001
    4MOL0     C  419   1.252   1.896   2.270  1.2325 -0.2268  0.0614
    4MOL0     O  420   1.211   2.032   2.284  0.1614  0.1386 -0.6724
    4MOL0     C  421   1.302   2.135   2.301  0.1550 -0.0799  0.4008
    4MOL0     C  422   1.265   2.265   2.264  0.3062 -0.2148 -0.2666
    4MOL0     C  423   1.353   2.369   2.275 -0.9127 -0.6399 -0.8690
    4MOL0     C  424   1.470   2.358   2.359 -0.5327 -0.2813 -0.3324
    4MOL0     C  425   1.560   2.473   2.384  0.7356 -0.2012 -0.5877
    4MOL0     O  426   1.692   2.462   2.406  0.5429  1.1548  0.3004
    4MOL0     C  427   1.793   2.548   2.417  0.0385  0.6180 -0.3429
    4MOL0     C  428   1.769   2.684   2.417 -0.8089 -0.1301  1.0922
    4MOL0     C  429   1.877   2.772   2.425  0.2444 -0.4529 -0.8408
    4MOL0     C  430   2.007   2.722   2.417  0.5014  0.1196  0.2712
    4MOL0     O  431   2.121   2.803   2.408  0.5279 -0.3859  0.0471
    4MOL0     C  432   2.097   2.943   2.441 -0.6697  0.5305 -1.1903
    4MOL0     C  433   2.230   3.017   2.435  0.7247  0.3761 -0.8317
    4MOL0     C  434   2.254   3.080   2.298 -1.0085 -1.0517  0.0623
    4MOL0     C  435   2.276   2.981   2.181 -0.2540  1.3976 -0.1169
    4MOL0     C  436   2.316   3.051   2.046  0.4189  0.0587  0.0259
    4MOL0     C  437   2.202   3.131   1.981 -1.2054 -0.1959  0.1060
    4MOL0     C  438   2.200   3.111   1.832  0.7464  0.2641 -0.3791
    4MOL0     C  439   2.054   3.135   1.782  0.0719 -0.4445 -0.1477
    4MOL0    Cl  440   2.024   3.310   1.811 -0.0068 -0.0518  0.1773
    4MOL0     C  441   2.028   2.587   2.447  0.9058  0.5158  0.7412
    4MOL0     C  442   1.923   2.498   2.433 -0.2381 -0.0785  0.5829
    4MOL0     O  443   1.500   2.580   2.387 -0.7427  0.1766 -0.3673
    4MOL0     C  444   1.508   2.228   2.400  0.0994 -0.3580  0.0470
    4MOL0     C  445   1.421   2.126   2.369  0.8146  0.3404  0.3015
    4MOL0     N  446   0.948   1.745   1.936  0.3144 -0.3354  0.1438
    4MOL0     N  447   0.964   1.644   1.856  1.1361  0.6028  1.4647
    4MOL0     C  448   1.000   0.681   1.170 -0.8261 -0.3950 -0.7605
    4MOL0     C  449   1.068   0.578   1.102 -0.9704 -0.6506 -1.3395
    4MOL0     C  450   1.292   0.176   1.040 -0.4480 -0.4322  0.0857
    4MOL0     C  451   1.388   0.094   1.090  0.1707 -0.6737  0.6786
    4MOL0     C  452   1.425  -0.029   1.029  0.7446  0.5415  0.7303
    4MOL0     C  453   1.363  -0.062   0.895 -1.7296  0.0503  0.1606
    4MOL0     O  454   1.433  -0.167   0.832 -0.1431  0.5664 -0.6062
    4MOL0     C  455   1.428  -0.183   0.698  0.1917 -0.4886 -0.6267
    4MOL0     C  456   1.512  -0.287   0.641  1.0660  0.3459  0.2962
    4MOL0     C  457   1.461  -0.426   0.656  0.4856  1.1839  0.5874
    4MOL0     C  458   1.549  -0.532   0.595 -0.3179  0.9382 -0.2431
    4MOL0     C  459   1.538  -0.537   0.443 -0.1804  0.8612 -0.2886
    4MOL0     C  460   1.517  -0.523   0.322  0.1281  0.2297  0.2403
    4MOL0     C  461   1.252   0.011   0.852 -1.1544  0.5099 -0.1758
    4MOL0     C  462   1.219   0.130   0.929 -0.0856  0.3520  0.9159
    4MOL0     H  463   1.006   0.332   1.322  1.0098 -0.4412 -0.5302
    4MOL0     H  464   0.860   0.491   1.415  1.9630  1.3210  1.0578
    4MOL0     H  465   0.660   0.753   1.224 -0.8902  0.9292 -3.5595
    4MOL0     H  466   0.792   0.858   1.153 -2.1812  0.6741  0.0473
    4MOL0     H  467   0.625   0.930   1.378  0.4020  2.2041  1.3103
    4MOL0     H  468   0.663   0.998   1.210 -3.0494 -1.5288  0.3113
    4MOL0     H  469   0.862   1.094   1.317 -2.3368  1.3923 -0.0105
    4MOL0     H  470   0.851   0.986   1.451 -0.0580  1.8197  2.0685
    4MOL0     H  471   0.626   1.183   1.392 -2.0947 -2.1956  1.3552
    4MOL0     H  472   0.665   1.089   1.536  1.1747  1.4282 -0.4034
    4MOL0     H  473   0.742   1.343   1.482 -1.7436 -0.6887 -0.0841
    4MOL0     H  474   0.900   1.245   1.468  0.2079  1.3925  1.9530
    4MOL0     H  475   0.910   1.202   1.678  1.8810  1.0798 -0.8774
    4MOL0     H  476   0.729   1.211   1.705  1.9147 -2.8375 -0.1879
    4MOL0     H  477   0.879   1.458   1.638  0.1665 -0.4589  1.6805
    4MOL0     H  478   0.717   1.425   1.707  0.0926 -0.7797 -0.6705
    4MOL0     H  479   0.995   1.375   1.837  0.3904  1.5399 -1.6582
    4MOL0     H  480   0.839   1.329   1.913 -0.1339  0.2680  0.1479
    4MOL0     H  481   0.782   1.506   2.095  1.7913  0.8415  1.4306
    4MOL0     H  482   0.804   1.739   2.227 -0.7837  0.9034 -0.5362
    4MOL0     H  483   0.857   1.882   2.131 -0.7858 -0.0272  0.1405
    4MOL0     H  484   1.031   1.660   2.276 -1.0877 -0.0471  2.5173
    4MOL0     H  485   0.995   1.817   2.353 -0.1394 -1.4726 -0.8441
    4MOL0     H  486   1.185   1.751   2.130 -1.0866 -0.1728 -1.0523
    4MOL0     H  487   1.109   1.899   2.120  2.8934 -0.7553 -1.6929
    4MOL0     H  488   1.352   1.891   2.227  1.5808  1.6418  0.5398
    4MOL0     H  489   1.269   1.850   2.367  0.7297  2.0655  1.3039
    4MOL0     H  490   1.165   2.280   2.224  0.3496  4.6501  0.7277
    4MOL0     H  491   1.345   2.467   2.228  0.7876  0.2770  0.6013
    4MOL0     H  492   1.674   2.735   2.405  0.2777  1.7929  0.2923
    4MOL0     H  493   1.852   2.877   2.422 -1.4696 -0.4309  4.3312
    4MOL0     H  494   2.053   2.958   2.541  0.6642  0.2647 -0.5428
    4MOL0     H  495   2.036   2.998   2.369 -2.2590  1.4446  0.7413
    4MOL0     H  496   2.311   2.947   2.457  0.2770  0.6439  1.9577
    4MOL0     H  497   2.234   3.096   2.510  0.4354 -2.1776  2.0621
    4MOL0     H  498   2.341   3.145   2.300 -0.9577 -1.1177  0.0161
    4MOL0     H  499   2.178   3.151   2.263  1.0575  2.4615  2.1667
    4MOL0     H  500   2.369   2.925   2.199 -0.7944  0.5099  0.0069
    4MOL0     H  501   2.185   2.921   2.166 -0.8435  2.0358  0.7987
    4MOL0     H  502   2.360   2.975   1.981  0.0267  0.5660 -0.8492
    4MOL0     H  503   2.405   3.114   2.056  1.8443 -2.1754  2.7196
    4MOL0     H  504   2.228   3.230   2.019 -0.6984 -1.2055  2.5945
    4MOL0     H  505   2.107   3.093   2.019 -0.0734 -0.2958  3.0883
    4MOL0     H  506   2.265   3.184   1.782 -0.8344  0.8221 -1.7042
    4MOL0     H  507   2.238   3.016   1.794  0.9983  2.0438 -5.3738
    4MOL0     H  508   1.993   3.071   1.846  1.4753 -1.8351 -0.1298
    4MOL0     H  509   2.036   3.109   1.677 -4.5221 -1.6450  0.7525
    4MOL0     H  510   2.133   2.569   2.470  1.4050  2.7724  0.4527
    4MOL0     H  511   1.944   2.395   2.460 -1.1674  0.4505  3.6976
    4MOL0     H  512   1.607   2.217   2.443  0.0664 -2.1932 -0.2692
    4MOL0     H  513   1.438   2.026   2.407  0.2153  0.2874  0.4332
    4MOL0     H  514   1.005   0.780   1.127  0.5775  1.0854  2.4435
    4MOL0     H  515   1.105   0.602   1.003  1.0412 -1.4632 -0.8309
    4MOL0     H  516   1.439   0.120   1.183 -0.9516 -0.3855  1.2242
    4MOL0     H  517   1.488  -0.107   1.070  0.1769 -0.9523 -1.0962
    4MOL0     H  518   1.458  -0.090   0.648 -0.4652 -1.3598 -2.7715
    4MOL0     H  519   1.327  -0.192   0.658 -0.5461 -1.9222  1.4115
    4MOL0     H  520   1.531  -0.263   0.536 -1.8204  2.8483  0.2176
    4MOL0     H  521   1.613  -0.286   0.684  2.4415 -0.0291 -2.7009
    4MOL0     H  522   1.363  -0.418   0.609  1.2768  0.6662 -1.2267
    4MOL0     H  523   1.439  -0.441   0.762 -3.8540  0.6239 -0.1939
    4MOL0     H  524   1.655  -0.524   0.619 -0.6168 -1.5050  2.3695
    4MOL0     H  525   1.526  -0.632   0.632  2.4250 -0.8960 -3.0816
    4MOL0     H  526   1.506  -0.503   0.217  3.8476 -2.0816 -0.7468
    4MOL0     H  527   1.190  -0.017   0.768 -2.4617  0.9995  0.5957
    4MOL0     H  528   1.134   0.188   0.893 -0.8340 -0.7810  0.8255
    5MOL0     O  529   3.041   9.061   8.347  0.1580  0.5123 -0.4395
    5MOL0     C  530   2.977   9.088   8.245 -0.3183  0.2249 -0.0754
    5MOL0     O  531   2.985   9.210   8.179 -0.6449  0.7361  0.3454
    5MOL0     C  532   3.049   9.316   8.245  0.8343 -0.6006 -0.4377
    5MOL0     C  533   3.141   9.390   8.169 -0.2185  0.3600  0.5961
    5MOL0     C  534   3.209   9.510   8.224  0.2744 -0.6882 -0.4295
    5MOL0     C  535   3.210   9.530   8.366  0.9319  0.2471  0.4738
    5MOL0     O  536   3.279   9.631   8.416 -0.3362 -1.1910 -0.6011
    5MOL0     C  537   3.354   9.614   8.547  0.7780 -0.1379 -0.1445
    5MOL0     C  538   3.464   9.725   8.561  0.4380  0.3618  0.0260
    5MOL0     C  539   3.524   9.770   8.428 -0.4135 -0.4126 -0.0942
    5MOL0     C  540   3.607   9.896   8.456 -0.3400 -0.5921 -0.5563
    5MOL0     C  541   3.636   9.962   8.323  0.4011 -0.1641  0.5234
    5MOL0     C  542   3.745  10.064   8.322  0.7922  0.5747  0.0906
    5MOL0     C  543   3.697  10.201   8.375 -0.3395 -0.5102 -0.5587
    5MOL0     C  544   3.796  10.309   8.324  0.2652 -0.7612 -0.2915
    5MOL0     N  545   3.871  10.372   8.444  0.0531  0.9815 -0.7768
    5MOL0     C  546   3.826  10.482   8.521  0.6241  0.1504 -0.1616
    5MOL0     C  547   3.937  10.530   8.573 -0.4079  0.5281 -0.2321
    5MOL0     C  548   3.951  10.650   8.654  0.5510  0.1581  0.2450
    5MOL0     C  549   3.996  10.629   8.794  0.5192  0.1933  0.0387
    5MOL0     C  550   4.027  10.764   8.852  0.7097  0.4758 -0.8494
    5MOL0     C  551   4.186  10.762   8.869  0.2358 -0.2630 -0.2081
    5MOL0     O  552   4.255  10.763   8.736  0.4193  0.9058 -0.5908
    5MOL0     C  553   4.375  10.705   8.731  1.5301  0.8350 -0.1922
    5MOL0     C  554   4.394  10.595   8.645  0.0134  0.2443  1.2120
    5MOL0     C  555   4.521  10.546   8.619 -0.8152  0.4318  0.9045
    5MOL0     C  556   4.628  10.585   8.700 -0.3866  0.3110  0.4622
    5MOL0     C  557   4.757  10.517   8.674 -0.6840 -0.0461  0.2502
    5MOL0     O  558   4.849  10.512   8.772 -0.7262  0.1822  0.0712
    5MOL0     C  559   4.978  10.493   8.742 -1.4912 -0.2412  0.2772
    5MOL0     C  560   5.063  10.409   8.812 -0.4713 -0.3683 -0.0651
    5MOL0     C  561   5.207  10.406   8.780 -0.1983 -0.3453  0.1026
    5MOL0     C  562   5.264  10.484   8.676 -0.2139  1.1582  0.8830
    5MOL0     O  563   5.405  10.474   8.661  0.8050 -0.8942 -0.0953
    5MOL0     C  564   5.477  10.544   8.559 -0.1092 -0.1199  0.8833
    5MOL0     C  565   5.631  10.524   8.574  0.3381  0.1700  0.5193
    5MOL0     C  566   5.678  10.571   8.712 -0.0279 -1.2506 -0.4492
    5MOL0     C  567   5.830  10.556   8.711  0.1909 -0.3477 -0.2358
    5MOL0     C  568   5.891  10.411   8.718 -0.8152  0.0446 -0.0068
    5MOL0     C  569   5.855  10.321   8.838 -0.1926  0.4927 -0.2006
    5MOL0     C  570   5.918  10.177   8.821  0.7281  0.2143  0.1093
    5MOL0     C  571   5.936  10.108   8.961  0.4282 -0.7393 -0.6842
    5MOL0    Cl  572   6.068  10.174   9.065 -0.0422  0.0906 -0.2916
    5MOL0     C  573   5.176  10.558   8.594 -0.6529  0.2277  0.7842
    5MOL0     C  574   5.039  10.566   8.628  0.3832  0.1368  0.4867
    5MOL0     O  575   4.781  10.484   8.560  0.4467 -0.5985 -0.0576
    5MOL0     C  576   4.607  10.700   8.790 -0.5315  0.1679  1.0997
    5MOL0     C  577   4.477  10.754   8.799 -0.5338 -0.5044 -0.2355
    5MOL0     N  578   4.045  10.447   8.540 -0.2456 -0.0714  0.1482
    5MOL0     N  579   4.001  10.357   8.462  0.4410  0.2143 -0.6482
    5MOL0     C  580   3.119   9.450   8.447  0.1229 -0.1963 -0.2713
    5MOL0     C  581   3.031   9.352   8.383 -0.7557  0.8172 -0.8814
    5MOL0     C  582   2.914   8.962   8.182 -0.3307  0.8774 -0.4606
    5MOL0     C  583   2.845   8.969   8.065 -0.0717  1.1909 -0.9574
    5MOL0     C  584   2.764   8.865   8.020 -0.6348  0.4273  0.3483
    5MOL0     C  585   2.745   8.752   8.097 -0.0742  0.8480  0.2171
    5MOL0     O  586   2.666   8.641   8.068  0.0363  0.3949 -0.0861
    5MOL0     C  587   2.577   8.662   7.954 -0.6782  0.4376  0.7661
    5MOL0     C  588   2.477   8.543   7.933  0.7477  0.5518 -0.8470
    5MOL0     C  589   2.556   8.411   7.924 -0.5907 -0.3062 -0.1641
    5MOL0     C  590   2.460   8.290   7.918 -0.4408 -0.0186 -0.2393
    5MOL0     C  591   2.526   8.191   8.000 -0.7108  0.6777 -0.1384
    5MOL0     C  592   2.580   8.105   8.067  0.3986  1.2322  0.4989
    5MOL0     C  593   2.825   8.733   8.204 -0.1182 -0.2871  0.6396
    5MOL0     C  594   2.913   8.837   8.250 -0.6544  1.0551  0.1770
    5MOL0     H  595   3.139   9.379   8.061  2.3327  2.3583  0.2497
    5MOL0     H  596   3.267   9.574   8.159 -0.3292  0.1368 -0.1776
    5MOL0     H  597   3.412   9.522   8.547 -3.2160 -2.9362  0.1160
    5MOL0     H  598   3.294   9.620   8.638  2.6444  0.1363  1.1065
    5MOL0     H  599   3.538   9.695   8.636 -1.4084 -3.5570  0.5358
    5MOL0     H  600   3.403   9.808   8.597 -3.4279 -0.9549 -2.7739
    5MOL0     H  601   3.433   9.802   8.376  1.6970  1.5770 -2.8122
    5MOL0     H  602   3.583   9.693   8.378 -1.9256 -0.7146 -1.5077
    5MOL0     H  603   3.555   9.974   8.512 -1.5861 -1.2596 -0.7434
    5MOL0     H  604   3.707   9.885   8.498  1.7225  3.4275 -3.6942
    5MOL0     H  605   3.553  10.008   8.268  1.5264 -1.1518 -2.2290
    5MOL0     H  606   3.670   9.880   8.259  2.3018  1.0916 -0.1784
    5MOL0     H  607   3.788  10.075   8.222  1.7947  1.2777  0.5818
    5MOL0     H  608   3.829  10.016   8.372 -0.2473 -2.3435 -0.7678
    5MOL0     H  609   3.596  10.209   8.334 -1.5529 -0.4511  2.2225
    5MOL0     H  610   3.695  10.207   8.484  2.0345  5.4547 -0.4772
    5MOL0     H  611   3.736  10.387   8.276  2.3869  0.5309 -0.9682
    5MOL0     H  612   3.866  10.267   8.253  1.2573  1.6225 -0.8263
    5MOL0     H  613   3.722  10.509   8.541  1.9629  4.1897  2.5568
    5MOL0     H  614   3.853  10.699   8.651 -0.0032 -0.9463 -0.1900
    5MOL0     H  615   4.019  10.724   8.609  0.5328  1.7114  2.5900
    5MOL0     H  616   4.076  10.555   8.787 -0.9273 -1.4852  0.6779
    5MOL0     H  617   3.907  10.591   8.844  0.8115  2.8457  2.8800
    5MOL0     H  618   4.001  10.847   8.787  3.0090  1.6667 -0.3785
    5MOL0     H  619   3.988  10.771   8.954  1.2858  1.0728 -0.6604
    5MOL0     H  620   4.226  10.694   8.945  0.6055  1.5722  1.3066
    5MOL0     H  621   4.212  10.858   8.914  2.8074 -1.7047  1.6509
    5MOL0     H  622   4.319  10.548   8.582 -0.9901  1.6607  1.2996
    5MOL0     H  623   4.522  10.468   8.543  0.6010 -1.3347  2.6412
    5MOL0     H  624   5.037  10.347   8.897  2.1049  0.3176  1.3551
    5MOL0     H  625   5.272  10.336   8.833  1.6354  0.6643 -0.7098
    5MOL0     H  626   5.460  10.652   8.552 -0.5605 -0.3031 -1.9451
    5MOL0     H  627   5.450  10.514   8.458 -0.5155 -0.3109  1.0409
    5MOL0     H  628   5.681  10.578   8.493 -0.4830  0.2797  0.0741
    5MOL0     H  629   5.652  10.418   8.552 -0.9550 -0.0959  0.4860
    5MOL0     H  630   5.634  10.519   8.798  0.3401  2.5568  2.3293
    5MOL0     H  631   5.648  10.675   8.733  2.8994 -0.4859  0.4562
    5MOL0     H  632   5.878  10.611   8.630  1.2138  0.7021  1.0463
    5MOL0     H  633   5.883  10.612   8.789  1.4770  0.7116 -1.8087
    5MOL0     H  634   6.000  10.428   8.721 -0.9297  1.2484 -1.5211
    5MOL0     H  635   5.879  10.354   8.625  0.2120 -1.1075  0.5278
    5MOL0     H  636   5.747  10.309   8.849 -0.8321  4.1011 -1.0560
    5MOL0     H  637   5.897  10.369   8.927 -0.5611 -0.2681  0.3961
    5MOL0     H  638   5.865  10.112   8.750  0.9211  0.8838 -0.6652
    5MOL0     H  639   6.017  10.171   8.774  0.7629  1.1689  0.0424
    5MOL0     H  640   5.968  10.007   8.934  1.0857 -0.0240 -2.7934
    5MOL0     H  641   5.839  10.112   9.011  0.6039  1.0296 -0.4308
    5MOL0     H  642   5.200  10.624   8.512  1.2748  0.1575  1.2575
    5MOL0     H  643   4.984  10.632   8.561  4.1022  2.4289 -0.6255
    5MOL0     H  644   4.684  10.757   8.840 -0.4910  0.7953  0.3328
    5MOL0     H  645   4.459  10.842   8.859  0.9473  0.9113 -1.7593
    5MOL0     H  646   3.105   9.471   8.553  0.5787 -0.9468 -0.0543
    5MOL0     H  647   2.962   9.291   8.441  0.3630  0.1343 -0.2371
    5MOL0     H  648   2.851   9.061   8.008 -0.8383  1.7625 -0.1399
    5MOL0     H  649   2.699   8.873   7.933 -2.5764 -0.5991  1.6348
    5MOL0     H  650   2.641   8.678   7.867 -0.3050  0.2915  1.0069
    5MOL0     H  651   2.526   8.757   7.966  1.4022  2.2296 -2.9584
    5MOL0     H  652   2.403   8.554   8.013 -4.1011  0.7308 -4.8520
    5MOL0     H  653   2.425   8.562   7.838 -2.3634  2.9201  1.1219
    5MOL0     H  654   2.637   8.405   7.997  1.7360 -0.2299 -2.5787
    5MOL0     H  655   2.607   8.407   7.827 -1.6212 -0.1585 -0.7363
    5MOL0     H  656   2.364   8.322   7.960  0.0756  2.6253 -0.8973
    5MOL0     H  657   2.445   8.253   7.816 -2.6417  0.4072 -0.1318
    5MOL0     H  658   2.618   8.024   8.126 -2.1246 -0.4953 -0.0932
    5MOL0     H  659   2.817   8.635   8.250  4.4224 -1.1432  0.1134
    5MOL0     H  660   2.979   8.826   8.335 -0.5339  1.5327  0.1483
    6MOL0     O  661   1.082   6.706   1.330 -0.1802  0.0145  0.3460
    6MOL0     C  662   1.026   6.617   1.396  0.7933  0.0518 -0.0002
    6MOL0     O  663   1.084   6.522   1.480  0.1275 -0.7140  0.3267
    6MOL0     C  664   1.211   6.490   1.483  0.1326  0.4061  0.9720
    6MOL0     C  665   1.243   6.349   1.499 -0.6440 -0.3378  0.3789
    6MOL0     C  666   1.379   6.309   1.507  0.8427  0.8112  0.7210
    6MOL0     C  667   1.482   6.395   1.501 -0.6195 -0.1174  0.6650
    6MOL0     O  668   1.613   6.358   1.509  0.1470 -0.3291 -0.1805
    6MOL0     C  669   1.691   6.340   1.387  0.4608 -0.7905 -0.1196
    6MOL0     C  670   1.793   6.231   1.403 -0.4125  0.1467 -0.3967
    6MOL0     C  671   1.725   6.094   1.435 -0.1017  0.6026  0.9035
    6MOL0     C  672   1.822   5.973   1.466  0.6139  0.1058 -0.6492
    6MOL0     C  673   1.762   5.827   1.452  0.5934  0.9828 -0.4033
    6MOL0     C  674   1.844   5.718   1.505 -0.2237 -0.0341  0.7376
    6MOL0     C  675   1.798   5.578   1.490 -0.9073  0.9081  0.4926
    6MOL0     C  676   1.917   5.491   1.461  0.0794  1.3525 -0.7943
    6MOL0     N  677   1.887   5.361   1.396  0.6629 -0.4668  0.3925
    6MOL0     C  678   1.841   5.252   1.462  0.7954  0.0724 -0.4143
    6MOL0     C  679   1.815   5.157   1.379 -0.0149  1.4889 -0.2377
    6MOL0     C  680   1.772   5.016   1.410 -0.4085 -0.0408 -0.1356
    6MOL0     C  681   1.885   4.922   1.470  0.0688  0.7731  1.0778
    6MOL0     C  682   1.931   4.950   1.612 -0.2119 -0.1507 -0.9472
    6MOL0     C  683   2.051   4.868   1.649 -0.1353  0.6167  1.3710
    6MOL0     O  684   2.088   4.889   1.787 -0.0751 -0.3319  0.2700
    6MOL0     C  685   2.219   4.875   1.840  0.8643 -0.4822 -1.1179
    6MOL0     C  686   2.238   4.902   1.978 -0.4910  0.3206 -0.2043
    6MOL0     C  687   2.362   4.887   2.039  0.7172  0.4003  0.1093
    6MOL0     C  688   2.479   4.841   1.966  0.1418 -0.2714 -0.6882
    6MOL0     C  689   2.614   4.827   2.027  0.5551  0.6443  0.4678
    6MOL0     O  690   2.615   4.878   2.150 -0.6570 -0.4602 -0.3517
    6MOL0     C  691   2.732   4.853   2.220  0.1595 -0.5541  0.3692
    6MOL0     C  692   2.816   4.954   2.257 -0.9847  0.1092 -0.2360
    6MOL0     C  693   2.932   4.934   2.329  0.2932 -0.8226  0.4312
    6MOL0     C  694   2.980   4.810   2.358  0.8656  0.3795 -0.4322
    6MOL0     O  695   3.092   4.790   2.429  0.4841  0.1946 -0.3997
    6MOL0     C  696   3.117   4.849   2.548  0.7378 -0.5367  0.3947
    6MOL0     C  697   3.177   4.753   2.652 -1.1007  0.0005  0.3089
    6MOL0     C  698   3.200   4.796   2.794 -0.4648 -0.6391  0.6158
    6MOL0     C  699   3.072   4.784   2.892 -0.6969  1.0365  0.0550
    6MOL0     C  700   3.118   4.826   3.034  1.5104 -0.5676 -0.0013
    6MOL0     C  701   3.006   4.814   3.145  0.4754  0.0999  0.9233
    6MOL0     C  702   2.906   4.697   3.152 -0.1680 -0.5107 -0.1167
    6MOL0     C  703   2.768   4.759   3.169  0.0552  0.5365  0.2503
    6MOL0    Cl  704   2.720   4.851   3.025  0.2781  0.0653 -0.4248
    6MOL0     C  705   2.898   4.704   2.318 -0.9323 -0.8510 -0.0538
    6MOL0     C  706   2.777   4.722   2.252  1.2131  0.2092 -0.5174
    6MOL0     O  707   2.711   4.807   1.950  0.2338 -0.4148  0.4829
    6MOL0     C  708   2.459   4.825   1.827 -0.2113  0.2510  0.4912
    6MOL0     C  709   2.329   4.835   1.771  0.0985 -0.3688  0.2665
    6MOL0     N  710   1.849   5.210   1.253  0.0716 -0.8664  0.2226
    6MOL0     N  711   1.893   5.325   1.262  0.2544 -0.2292  0.0306
    6MOL0     C  712   1.449   6.527   1.475 -0.1907  0.1022 -0.5039
    6MOL0     C  713   1.318   6.575   1.462 -0.1912 -0.0904 -0.0935
    6MOL0     C  714   0.877   6.593   1.386 -0.0732  0.2576 -0.8749
    6MOL0     C  715   0.816   6.467   1.418 -1.0249 -0.1573 -0.9327
    6MOL0     C  716   0.684   6.437   1.385  0.1605 -0.5704  0.2709
    6MOL0     C  717   0.597   6.546   1.341  0.2496  0.2000  0.0802
    6MOL0     O  718   0.466   6.507   1.330  0.1262 -0.4799  0.0633
    6MOL0     C  719   0.391   6.542   1.211 -0.3637 -0.1470  0.4136
    6MOL0     C  720   0.299   6.421   1.154 -0.4317  0.0796 -1.0332
    6MOL0     C  721   0.387   6.296   1.122  0.4217  0.0126 -0.3197
    6MOL0     C  722   0.312   6.198   1.027 -0.8802 -0.8212 -0.1957
    6MOL0     C  723   0.182   6.164   1.072  0.3392  0.2783 -0.8355
    6MOL0     C  724   0.070   6.135   1.114 -0.4168 -0.9630 -0.4641
    6MOL0     C  725   0.652   6.669   1.332 -0.0947  0.2285  0.7028
    6MOL0     C  726   0.785   6.688   1.341  0.7572 -0.2250  0.5989
    6MOL0     H  727   1.164   6.275   1.507 -1.4169  0.4745  0.2868
    6MOL0     H  728   1.403   6.207   1.532  1.2302  0.1090 -2.1617
    6MOL0     H  729   1.736   6.429   1.343 -1.5346  1.0307  1.2872
    6MOL0     H  730   1.621   6.300   1.312 -0.1230  0.2799 -0.1670
    6MOL0     H  731   1.859   6.252   1.487 -1.3833 -4.9849  2.0346
    6MOL0     H  732   1.849   6.226   1.309 -1.1047  2.7031 -1.0292
    6MOL0     H  733   1.657   6.068   1.353  1.0722  2.6979 -0.8345
    6MOL0     H  734   1.659   6.115   1.520 -1.7823 -0.5944 -0.0315
    6MOL0     H  735   1.910   5.973   1.401  0.9700  0.8028 -0.1758
    6MOL0     H  736   1.844   5.999   1.570 -4.4320  1.4304  0.3685
    6MOL0     H  737   1.746   5.806   1.345 -1.3862 -1.4524  0.2802
    6MOL0     H  738   1.673   5.813   1.515  2.0528 -0.2169  1.5045
    6MOL0     H  739   1.875   5.728   1.610  4.4728  0.5959 -0.4744
    6MOL0     H  740   1.939   5.728   1.451 -0.9634  2.5266 -0.1709
    6MOL0     H  741   1.759   5.552   1.589 -2.7532 -1.3231 -0.7374
    6MOL0     H  742   1.718   5.551   1.421 -2.3300 -1.0348  2.7549
    6MOL0     H  743   1.974   5.469   1.552 -0.1522 -2.7148 -1.4440
    6MOL0     H  744   1.976   5.540   1.383 -0.1388 -1.2335 -2.6961
    6MOL0     H  745   1.836   5.260   1.570 -0.3209 -1.7679 -0.2891
    6MOL0     H  746   1.739   4.973   1.315 -0.0584  0.3598 -0.4440
    6MOL0     H  747   1.692   5.029   1.484 -0.1160 -1.7429  0.5267
    6MOL0     H  748   1.970   4.909   1.402 -0.6945 -1.2026  0.4374
    6MOL0     H  749   1.840   4.823   1.479  1.5062 -0.2975 -1.9183
    6MOL0     H  750   1.949   5.057   1.627  0.0728 -0.5751  2.4393
    6MOL0     H  751   1.847   4.926   1.677  1.5817 -4.4404  0.1623
    6MOL0     H  752   2.139   4.879   1.585  0.4701 -0.6642  1.9433
    6MOL0     H  753   2.026   4.766   1.619 -0.3273  0.7146  1.1943
    6MOL0     H  754   2.159   4.939   2.042 -0.5563 -1.8469  1.0427
    6MOL0     H  755   2.380   4.921   2.141  0.9038  2.8759 -0.6900
    6MOL0     H  756   2.793   5.056   2.227  1.4048  0.3236 -1.6047
    6MOL0     H  757   2.982   5.028   2.351 -1.7916  0.4982 -0.1984
    6MOL0     H  758   3.024   4.890   2.588  3.2017  2.9033  3.2822
    6MOL0     H  759   3.183   4.935   2.530  0.9244 -0.8882 -0.6489
    6MOL0     H  760   3.279   4.733   2.619 -0.6630  2.9779 -0.4188
    6MOL0     H  761   3.116   4.662   2.652  0.7565 -1.3411  2.2732
    6MOL0     H  762   3.235   4.900   2.799 -0.9699 -0.3234 -1.4725
    6MOL0     H  763   3.275   4.730   2.839  3.1623  0.5256 -3.0379
    6MOL0     H  764   2.988   4.844   2.855 -3.0153 -1.2026  1.4119
    6MOL0     H  765   3.029   4.684   2.900 -1.0897  1.1471 -0.5587
    6MOL0     H  766   3.138   4.934   3.030 -2.9680  0.4333 -2.9367
    6MOL0     H  767   3.206   4.766   3.055  1.7825 -0.9541 -2.0661
    6MOL0     H  768   2.961   4.913   3.159  1.8798  1.0255 -0.6517
    6MOL0     H  769   3.062   4.796   3.237  1.6532 -0.6206  0.1003
    6MOL0     H  770   2.909   4.631   3.064 -0.2257  0.7928 -1.1285
    6MOL0     H  771   2.928   4.636   3.240 -3.2509 -0.9070  0.4875
    6MOL0     H  772   2.777   4.827   3.254  0.0362 -1.9078  2.3493
    6MOL0     H  773   2.692   4.687   3.198 -1.0156 -0.0509 -3.4771
    6MOL0     H  774   2.932   4.606   2.349 -1.3726 -1.2268 -0.7359
    6MOL0     H  775   2.717   4.636   2.225 -0.7221  0.7638  1.7153
    6MOL0     H  776   2.546   4.803   1.766 -0.5891  0.7546 -0.2389
    6MOL0     H  777   2.324   4.818   1.664  3.0028  1.2082 -0.2338
    6MOL0     H  778   1.532   6.596   1.463  1.7707 -2.0546 -0.0103
    6MOL0     H  779   1.313   6.679   1.432  0.3903 -0.5103 -1.8143
    6MOL0     H  780   0.881   6.390   1.459 -0.8087  0.6144  0.2289
    6MOL0     H  781   0.655   6.332   1.384 -1.5880 -0.1976 -3.5517
    6MOL0     H  782   0.453   6.574   1.127  0.6044  0.8793  1.4727
    6MOL0     H  783   0.335   6.636   1.225  2.2174  1.3414  1.5100
    6MOL0     H  784   0.247   6.408   1.249  0.7940  2.7403  0.1039
    6MOL0     H  785   0.229   6.445   1.074 -2.9345 -1.7427  0.4819
    6MOL0     H  786   0.425   6.241   1.209 -0.7402 -2.3316 -1.1960
    6MOL0     H  787   0.474   6.336   1.070  0.7054 -2.0086 -1.5025
    6MOL0     H  788   0.309   6.251   0.931  2.9820 -1.1858 -0.6856
    6MOL0     H  789   0.375   6.108   1.026  3.8792  1.9249  4.1015
    6MOL0     H  790  -0.033   6.131   1.143 -1.4119 -0.2188 -3.5728
    6MOL0     H  791   0.580   6.748   1.314 -0.7977 -0.1145  1.8602
    6MOL0     H  792   0.811   6.789   1.310  0.1159 -0.2330  0.0130
    7MOL0     O  793   7.987   5.822   1.663  0.1829  0.3914 -0.5359
    7MOL0     C  794   7.940   5.834   1.778 -1.0708  0.3219 -0.2036
    7MOL0     O  795   7.866   5.733   1.844  0.3289  0.8832  0.4365
    7MOL0     C  796   7.817   5.622   1.768 -0.9550 -0.1566 -0.5395
    7MOL0     C  797   7.896   5.506   1.739 -0.4992 -0.7738 -0.4449
    7MOL0     C  798   7.852   5.411   1.648  0.1316 -0.8526 -0.2425
    7MOL0     C  799   7.730   5.427   1.586 -0.0745  0.1518 -0.5427
    7MOL0     O  800   7.681   5.333   1.502  0.9095  0.3930  0.4230
    7MOL0     C  801   7.567   5.368   1.416  0.2235 -0.6898  0.5354
    7MOL0     C  802   7.514   5.263   1.315  0.0923  0.9299  0.3398
    7MOL0     C  803   7.633   5.192   1.251  0.5558 -0.0837  0.0844
    7MOL0     C  804   7.582   5.094   1.146 -0.7780  0.1183  0.2806
    7MOL0     C  805   7.717   5.016   1.110  0.2148  0.4217  0.1033
    7MOL0     C  806   7.750   4.908   1.218  0.3502  1.0221  0.4224
    7MOL0     C  807   7.674   4.777   1.207 -0.2919 -0.8811  0.6898
    7MOL0     C  808   7.696   4.682   1.316  0.8099 -0.7481 -0.1547
    7MOL0     N  809   7.608   4.559   1.316  0.6021 -0.1121  0.1501
    7MOL0     C  810   7.476   4.568   1.346  0.2525  0.5004  0.4115
    7MOL0     C  811   7.416   4.441   1.319 -0.8205 -0.6898  0.6970
    7MOL0     C  812   7.275   4.393   1.324  0.8207  0.0043 -0.0135
    7MOL0     C  813   7.205   4.395   1.466 -0.5961  0.0642 -0.4892
    7MOL0     C  814   7.138   4.262   1.488  0.7881 -0.6786 -0.1363
    7MOL0     C  815   7.062   4.251   1.620 -0.0335  0.3337 -0.7244
    7MOL0     O  816   7.008   4.126   1.643  0.1622  0.8982  0.6027
    7MOL0     C  817   7.049   4.075   1.769 -0.2429  0.6110  0.3057
    7MOL0     C  818   7.160   3.987   1.766 -0.5896  0.0774 -0.4869
    7MOL0     C  819   7.207   3.930   1.890 -0.3798 -0.7725  0.3378
    7MOL0     C  820   7.146   3.969   2.013  1.0564 -0.4378  0.3421
    7MOL0     C  821   7.214   3.929   2.134  0.1663  0.1491  0.1587
    7MOL0     O  822   7.140   3.960   2.250 -0.6095  0.4554  0.0438
    7MOL0     C  823   7.190   3.919   2.376  0.0996  0.1485  0.6141
    7MOL0     C  824   7.255   4.007   2.460 -0.2990 -0.6957  1.0850
    7MOL0     C  825   7.313   3.963   2.581  0.0663 -0.5061 -0.6714
    7MOL0     C  826   7.284   3.838   2.631 -0.3153 -0.5265  0.5651
    7MOL0     O  827   7.336   3.809   2.752  0.7715 -0.4181 -0.5236
    7MOL0     C  828   7.247   3.853   2.862 -0.2905 -0.1394  0.6863
    7MOL0     C  829   7.177   3.741   2.929 -0.4518 -1.0074 -0.6352
    7MOL0     C  830   7.080   3.789   3.048 -0.2934 -0.7806  0.4307
    7MOL0     C  831   7.017   3.691   3.139  0.7821  0.9490 -0.6397
    7MOL0     C  832   6.893   3.749   3.215  1.0674  0.6323  0.7862
    7MOL0     C  833   6.932   3.785   3.355  0.4604 -0.8829 -0.3225
    7MOL0     C  834   6.803   3.798   3.437 -0.1840 -0.4310  0.0432
    7MOL0     C  835   6.812   3.878   3.574  0.2329  0.3279  0.8776
    7MOL0    Cl  836   6.842   3.770   3.712  0.2853 -0.5404  0.1053
    7MOL0     C  837   7.221   3.749   2.559 -0.0149  0.4771  0.2816
    7MOL0     C  838   7.182   3.783   2.423 -0.4438  0.2106  0.0149
    7MOL0     O  839   7.336   3.896   2.126 -0.0811 -0.1843  0.2816
    7MOL0     C  840   7.027   4.048   2.007 -0.6103  0.0834  0.3569
    7MOL0     C  841   6.982   4.098   1.887  0.1026 -0.1406  0.7246
    7MOL0     N  842   7.522   4.363   1.281  0.5740 -0.3905 -0.0541
    7MOL0     N  843   7.632   4.437   1.273 -0.4491  0.0762  0.0330
    7MOL0     C  844   7.652   5.544   1.626 -0.0240  1.3998 -0.1711
    7MOL0     C  845   7.691   5.636   1.720  0.0594 -0.4809  0.6964
    7MOL0     C  846   7.978   5.950   1.865 -0.3090  0.7352  0.0571
    7MOL0     C  847   7.923   5.961   1.991  0.8483 -0.0816 -0.3285
    7MOL0     C  848   7.943   6.077   2.069 -0.2720  0.1713 -0.0292
    7MOL0     C  849   8.023   6.180   2.020 -0.2169  0.8593  0.3791
    7MOL0     O  850   8.048   6.280   2.108  0.3885 -0.5709 -0.0409
    7MOL0     C  851   8.115   6.408   2.077  0.5783  0.3946  0.3647
    7MOL0     C  852   8.129   6.476   2.211  0.3852  0.2310  0.6589
    7MOL0     C  853   8.007   6.549   2.249  0.6817 -0.5933  0.0803
    7MOL0     C  854   7.870   6.485   2.262  0.0231 -1.1677  0.5246
    7MOL0     C  855   7.773   6.575   2.331 -0.5534 -0.8130 -0.6545
    7MOL0     C  856   7.692   6.637   2.384 -0.4069 -0.4337 -0.5231
    7MOL0     C  857   8.081   6.162   1.898 -0.8049  0.0162  0.4512
    7MOL0     C  858   8.058   6.051   1.817  0.5758  0.2502  0.4673
    7MOL0     H  859   7.988   5.495   1.796 -1.4212 -0.0553  1.2727
    7MOL0     H  860   7.925   5.334   1.624  1.1739  0.5227 -1.6624
    7MOL0     H  861   7.594   5.466   1.374 -1.6273  1.3854  3.8398
    7MOL0     H  862   7.485   5.392   1.483  0.7500 -0.8483  1.2441
    7MOL0     H  863   7.459   5.326   1.245  2.3858  1.9048 -0.6766
    7MOL0     H  864   7.446   5.193   1.366  0.6002 -0.8099 -1.2568
    7MOL0     H  865   7.689   5.142   1.331  1.2043  1.0603  0.3673
    7MOL0     H  866   7.706   5.263   1.210  0.9703 -0.0430  0.8678
    7MOL0     H  867   7.508   5.033   1.198 -0.5486 -1.0616 -0.7335
    7MOL0     H  868   7.531   5.146   1.064  1.4670  3.8998  1.0187
    7MOL0     H  869   7.803   5.084   1.109 -0.2899  1.1800  2.2042
    7MOL0     H  870   7.709   4.972   1.010  2.6369 -2.5611  1.0385
    7MOL0     H  871   7.749   4.938   1.324 -4.1240 -1.2385  1.2781
    7MOL0     H  872   7.851   4.879   1.188  0.2773  1.9169 -0.7868
    7MOL0     H  873   7.566   4.795   1.217 -0.2427 -1.0696  1.7057
    7MOL0     H  874   7.690   4.729   1.110  1.3260  2.9341 -1.1825
    7MOL0     H  875   7.688   4.734   1.412  2.1677 -0.9036  0.0639
    7MOL0     H  876   7.800   4.647   1.308  2.0784  2.8968 -2.1086
    7MOL0     H  877   7.431   4.662   1.377 -0.7108  0.8255 -1.7958
    7MOL0     H  878   7.289   4.286   1.305  1.0979 -0.0370  0.4050
    7MOL0     H  879   7.199   4.429   1.255 -0.7058 -1.8755  0.5792
    7MOL0     H  880   7.128   4.474   1.470 -0.1666  0.7930 -3.9672
    7MOL0     H  881   7.274   4.416   1.549 -1.1824 -1.1870  0.3466
    7MOL0     H  882   7.073   4.246   1.401  1.7980  1.8602 -1.4439
    7MOL0     H  883   7.202   4.173   1.486  1.3913 -0.2379 -0.5215
    7MOL0     H  884   6.973   4.314   1.619 -1.0083 -0.6037  3.9612
    7MOL0     H  885   7.126   4.287   1.701  2.2398 -2.0074 -1.3345
    7MOL0     H  886   7.216   3.946   1.683 -0.1004  1.0957 -0.6784
    7MOL0     H  887   7.302   3.877   1.886 -0.6577 -1.5274  2.5825
    7MOL0     H  888   7.263   4.109   2.422  4.1275 -0.4271  2.1851
    7MOL0     H  889   7.381   4.023   2.641  1.8094 -1.3327 -1.7423
    7MOL0     H  890   7.172   3.931   2.842 -0.3157 -0.1932  0.5715
    7MOL0     H  891   7.313   3.887   2.942 -1.5938  2.5744  0.7505
    7MOL0     H  892   7.244   3.668   2.975  0.8951  1.9684  2.5786
    7MOL0     H  893   7.108   3.688   2.862 -1.8662  1.0641 -0.9184
    7MOL0     H  894   7.002   3.847   2.999  1.1139  0.1238 -0.8181
    7MOL0     H  895   7.136   3.853   3.117  0.2587  1.2795 -1.8004
    7MOL0     H  896   6.968   3.615   3.077  1.1655 -0.4471  0.7001
    7MOL0     H  897   7.091   3.642   3.203 -0.1508 -2.8080 -2.1574
    7MOL0     H  898   6.821   3.666   3.218  1.0186  0.6808  0.9215
    7MOL0     H  899   6.845   3.829   3.157 -0.9237 -2.8530 -2.9501
    7MOL0     H  900   6.981   3.882   3.360 -0.7864 -0.1883 -1.1960
    7MOL0     H  901   7.002   3.710   3.394  0.2170 -1.0985 -0.2946
    7MOL0     H  902   6.720   3.844   3.383  0.3771 -0.0183 -0.4788
    7MOL0     H  903   6.765   3.701   3.471  1.1924 -0.0798  2.9007
    7MOL0     H  904   6.723   3.937   3.596  1.4466  1.9866  1.5757
    7MOL0     H  905   6.896   3.948   3.565  0.7819 -0.5521 -1.8982
    7MOL0     H  906   7.191   3.650   2.593  2.2460 -0.1653  0.6095
    7MOL0     H  907   7.147   3.702   2.360 -0.3837 -0.2080  0.5093
    7MOL0     H  908   6.962   4.073   2.089 -0.6761  0.1626  0.2801
    7MOL0     H  909   6.889   4.153   1.887 -0.7171 -1.3987 -2.0505
    7MOL0     H  910   7.554   5.557   1.580  0.2341  1.1257 -0.8030
    7MOL0     H  911   7.633   5.726   1.738 -1.6769 -0.9737 -1.9996
    7MOL0     H  912   7.853   5.891   2.035  2.1501 -0.3963  1.3355
    7MOL0     H  913   7.903   6.082   2.169  1.2980  1.4973  0.5722
    7MOL0     H  914   8.057   6.464   2.004 -0.7580  1.5691  2.2477
    7MOL0     H  915   8.210   6.379   2.030  0.0839 -1.0983  0.2240
    7MOL0     H  916   8.159   6.402   2.287  0.9303  1.5552  1.7639
    7MOL0     H  917   8.211   6.549   2.215  3.4212 -2.5952 -2.5099
    7MOL0     H  918   7.996   6.630   2.176  0.9599  0.2927  0.9893
    7MOL0     H  919   8.027   6.584   2.350  0.0845  2.2860 -0.7165
    7MOL0     H  920   7.841   6.478   2.157  1.5418  1.5651 -0.1796
    7MOL0     H  921   7.884   6.390   2.314 -1.5588 -0.9572  1.4011
    7MOL0     H  922   7.620   6.697   2.436 -0.9100 -0.8454 -0.7286
    7MOL0     H  923   8.162   6.227   1.867 -1.1205  0.3580  0.3303
    7MOL0     H  924   8.120   6.056   1.728  0.3845 -2.0411  0.1373
    8MOL0     O  925   9.292   2.329   1.890 -0.0407  0.1212 -0.4780
    8MOL0     C  926   9.347   2.229   1.932  0.4195 -0.7569  0.0390
    8MOL0     O  927   9.481   2.197   1.913 -0.1694  0.2513  0.7260
    8MOL0     C  928   9.556   2.278   1.828  0.1193  0.7407 -0.7858
    8MOL0     C  929   9.565   2.421   1.824 -0.3087  0.5082  0.0881
    8MOL0     C  930   9.649   2.480   1.730  0.1782 -0.8639  1.1257
    8MOL0     C  931   9.721   2.415   1.632 -1.2359 -0.2471  0.7290
    8MOL0     O  932   9.781   2.491   1.530 -0.0155  0.3630 -0.8074
    8MOL0     C  933   9.900   2.442   1.461 -0.2945 -1.0731 -0.2601
    8MOL0     C  934  10.031   2.446   1.543 -0.4584 -0.6254  0.0446
    8MOL0     C  935  10.048   2.578   1.618 -1.2338 -0.0115 -0.1273
    8MOL0     C  936  10.186   2.582   1.681  0.1285 -0.2030 -0.3231
    8MOL0     C  937  10.183   2.641   1.824  1.3099  0.5182  0.2647
    8MOL0     C  938  10.314   2.697   1.872  0.1829 -0.0366 -0.0660
    8MOL0     C  939  10.334   2.831   1.813  0.6096  1.0112 -0.2992
    8MOL0     C  940  10.451   2.913   1.886 -0.3744  0.7156 -0.0910
    8MOL0     N  941  10.577   2.830   1.899  0.0475  0.0711 -0.4714
    8MOL0     C  942  10.614   2.760   2.003  0.0431  0.7457 -0.4193
    8MOL0     C  943  10.724   2.697   1.960 -0.8318 -1.4428  0.0417
    8MOL0     C  944  10.817   2.600   2.020  0.3739 -0.0804  0.5095
    8MOL0     C  945  10.942   2.661   2.097  0.7731  0.3493  0.1764
    8MOL0     C  946  11.022   2.538   2.157 -0.4419 -0.4445  0.0112
    8MOL0     C  947  11.140   2.593   2.236  0.4522  0.4825  0.5149
    8MOL0     O  948  11.253   2.500   2.234  0.3295 -0.4456 -0.2689
    8MOL0     C  949  11.370   2.542   2.296 -0.0752 -0.3314  0.4352
    8MOL0     C  950  11.491   2.526   2.221 -0.3078 -0.0540  0.1422
    8MOL0     C  951  11.613   2.559   2.277  0.0756 -0.6986 -1.0832
    8MOL0     C  952  11.621   2.604   2.416  0.4874  0.3695  0.0353
    8MOL0     C  953  11.752   2.610   2.484  0.3899 -0.2304 -0.7758
    8MOL0     O  954  11.753   2.683   2.590 -0.3141 -0.1120  0.2732
    8MOL0     C  955  11.875   2.704   2.637  0.7901  0.5528  1.0529
    8MOL0     C  956  11.942   2.609   2.708 -0.3527  0.2221 -1.1957
    8MOL0     C  957  12.077   2.643   2.755  0.7214  1.1224  0.2624
    8MOL0     C  958  12.137   2.758   2.720  0.9525  0.4221  0.3808
    8MOL0     O  959  12.267   2.776   2.763  0.1338 -0.3232  0.0013
    8MOL0     C  960  12.318   2.909   2.794 -0.0658  0.4220  0.6532
    8MOL0     C  961  12.461   2.906   2.844  0.1270  0.7389 -0.2841
    8MOL0     C  962  12.526   3.036   2.842  0.5692 -0.3063  0.2538
    8MOL0     C  963  12.659   3.024   2.902 -0.1258 -0.9104  0.7787
    8MOL0     C  964  12.723   3.161   2.897  0.4779 -0.5297  0.0225
    8MOL0     C  965  12.797   3.186   2.764 -0.1526 -0.0921  0.6439
    8MOL0     C  966  12.867   3.326   2.783 -0.5396 -0.1398 -0.3712
    8MOL0     C  967  12.910   3.380   2.645 -0.6635 -0.0728 -0.7828
    8MOL0    Cl  968  12.765   3.426   2.556 -0.0718 -0.0118  0.0237
    8MOL0     C  969  12.060   2.851   2.647  0.4527 -0.5026 -0.7114
    8MOL0     C  970  11.926   2.827   2.604  0.6131  0.1393 -0.5877
    8MOL0     O  971  11.845   2.543   2.438  0.2633 -0.2663  0.2536
    8MOL0     C  972  11.497   2.636   2.483  0.3001  0.3995 -0.2116
    8MOL0     C  973  11.377   2.593   2.424  0.0453 -0.8970 -0.5522
    8MOL0     N  974  10.743   2.736   1.829 -1.2101 -0.8650 -0.1985
    8MOL0     N  975  10.659   2.825   1.790  1.0597 -0.3499 -0.6006
    8MOL0     C  976   9.713   2.275   1.634 -0.4377 -0.5259  0.1452
    8MOL0     C  977   9.635   2.209   1.727  0.6914  1.1644 -0.4208
    8MOL0     C  978   9.270   2.142   2.019  0.6736  0.3193  0.3237
    8MOL0     C  979   9.129   2.118   1.998 -0.3493  0.7264  0.1711
    8MOL0     C  980   9.051   2.028   2.084  0.7224 -0.4752  0.9605
    8MOL0     C  981   9.115   1.971   2.194  0.6565 -0.2438  0.2888
    8MOL0     O  982   9.059   1.913   2.303  0.3378 -0.1840 -0.3052
    8MOL0     C  983   8.925   1.942   2.334  0.0829  0.8150 -0.9827
    8MOL0     C  984   8.894   1.913   2.479 -0.9768  0.4211  1.1926
    8MOL0     C  985   8.756   1.974   2.522 -0.7354  0.3570  0.5757
    8MOL0     C  986   8.633   1.890   2.477  0.1194  0.4507  0.4224
    8MOL0     C  987   8.621   1.768   2.552 -0.6344  0.0036 -0.1541
    8MOL0     C  988   8.625   1.666   2.606  0.4271 -1.4152 -0.3016
    8MOL0     C  989   9.250   1.985   2.209  0.2500  0.6302 -0.0937
    8MOL0     C  990   9.329   2.064   2.116 -0.0125 -1.7473  1.3815
    8MOL0     H  991   9.518   2.483   1.899  0.7738  0.9738  0.3996
    8MOL0     H  992   9.649   2.588   1.738 -1.3820 -0.6962 -0.4792
    8MOL0     H  993   9.912   2.519   1.384 -1.2310 -1.2022 -0.5621
    8MOL0     H  994   9.894   2.355   1.395  3.4864  0.3755 -2.8508
    8MOL0     H  995  10.111   2.418   1.474 -1.9876  0.1948 -2.1668
    8MOL0     H  996  10.032   2.364   1.616  0.5251 -0.7101 -0.0511
    8MOL0     H  997   9.972   2.568   1.696 -1.4561 -0.0003 -0.3424
    8MOL0     H  998  10.030   2.672   1.566 -1.8251  1.0119  1.8121
    8MOL0     H  999  10.233   2.483   1.675  1.8105  0.6224 -2.4165
    8MOL0     H 1000  10.241   2.653   1.617  2.1195 -1.7083 -0.3823
    8MOL0     H 1001  10.158   2.556   1.889 -2.2343  1.3388  0.2257
    8MOL0     H 1002  10.101   2.713   1.836  0.6857  0.1938 -1.6918
    8MOL0     H 1003  10.399   2.635   1.840  0.4347  0.7344 -0.9381
    8MOL0     H 1004  10.303   2.709   1.980 -0.5645  2.8434 -0.3933
    8MOL0     H 1005  10.362   2.817   1.708 -1.9658  3.3392 -1.4227
    8MOL0     H 1006  10.237   2.880   1.802  0.1123 -0.3318 -2.5203
    8MOL0     H 1007  10.414   2.940   1.985  2.7408 -0.7813  1.6474
    8MOL0     H 1008  10.479   3.005   1.835  1.0604  0.8580  0.8769
    8MOL0     H 1009  10.561   2.748   2.097 -0.5823 -0.3904 -0.9005
    8MOL0     H 1010  10.841   2.538   1.934 -3.3066 -1.7943  0.5162
    8MOL0     H 1011  10.756   2.535   2.084  0.1044 -3.7953 -3.1339
    8MOL0     H 1012  10.902   2.721   2.180  0.3421  0.2358  0.0549
    8MOL0     H 1013  11.004   2.723   2.032  2.3255 -0.6222  0.6683
    8MOL0     H 1014  10.964   2.468   2.218 -1.4772  0.3953  0.0224
    8MOL0     H 1015  11.061   2.485   2.069  1.3866 -0.7376  0.9533
    8MOL0     H 1016  11.112   2.617   2.339 -1.4854  0.1805  0.0998
    8MOL0     H 1017  11.177   2.681   2.183 -0.5775 -1.0246 -3.0560
    8MOL0     H 1018  11.488   2.492   2.118  0.7957 -0.0409  0.0971
    8MOL0     H 1019  11.709   2.553   2.227  0.4804  0.0941 -0.4325
    8MOL0     H 1020  11.898   2.515   2.740  0.6042 -0.5924 -2.2088
    8MOL0     H 1021  12.127   2.561   2.806  0.1853  1.7790  1.9066
    8MOL0     H 1022  12.249   2.956   2.865 -0.7987 -1.1234  1.0144
    8MOL0     H 1023  12.307   2.962   2.699  3.1258 -0.2549 -0.2269
    8MOL0     H 1024  12.528   2.844   2.783  1.1411  0.8397  0.6860
    8MOL0     H 1025  12.474   2.869   2.946  0.1236 -0.2379 -0.6307
    8MOL0     H 1026  12.464   3.105   2.901 -1.5948 -4.0624  2.8355
    8MOL0     H 1027  12.537   3.067   2.738  0.1941  2.1918  0.8942
    8MOL0     H 1028  12.636   3.011   3.008  0.0277 -1.6642  0.7202
    8MOL0     H 1029  12.726   2.943   2.871 -0.7512 -1.5477  1.0654
    8MOL0     H 1030  12.801   3.167   2.974  2.0978  1.7092 -1.6588
    8MOL0     H 1031  12.658   3.247   2.911 -0.9190 -1.6886  0.9710
    8MOL0     H 1032  12.723   3.191   2.684 -0.7509  0.0233  1.1977
    8MOL0     H 1033  12.862   3.098   2.756 -2.9545 -2.1235 -2.2300
    8MOL0     H 1034  12.797   3.394   2.832  1.1646  2.5827 -1.5033
    8MOL0     H 1035  12.956   3.331   2.846  1.2727  0.5301 -2.8276
    8MOL0     H 1036  12.963   3.305   2.586 -1.0767  1.1747 -2.8282
    8MOL0     H 1037  12.971   3.471   2.654 -0.6947  0.3627 -4.0383
    8MOL0     H 1038  12.095   2.952   2.625  0.5887 -0.1065  1.1662
    8MOL0     H 1039  11.859   2.904   2.569 -1.1275 -1.0816 -0.0579
    8MOL0     H 1040  11.508   2.675   2.583  4.6541  2.0158 -1.1105
    8MOL0     H 1041  11.281   2.604   2.472  0.1991  1.7246 -0.7223
    8MOL0     H 1042   9.760   2.219   1.554  1.8355  1.5288 -0.0539
    8MOL0     H 1043   9.613   2.103   1.719 -0.7137  1.5023 -1.4565
    8MOL0     H 1044   9.081   2.166   1.913  0.2188  2.9796  1.0651
    8MOL0     H 1045   8.951   2.001   2.052  0.9604  0.8242 -1.1093
    8MOL0     H 1046   8.870   1.870   2.273  2.7254 -2.6957  0.4086
    8MOL0     H 1047   8.902   2.044   2.301 -3.0289  0.6849  0.4862
    8MOL0     H 1048   8.917   1.812   2.514 -0.8846  0.7234  2.0182
    8MOL0     H 1049   8.969   1.978   2.526 -0.2975 -1.1306  2.3462
    8MOL0     H 1050   8.742   2.075   2.484  2.3681  0.4545 -0.6382
    8MOL0     H 1051   8.773   1.982   2.630  0.9773  1.6602  0.2505
    8MOL0     H 1052   8.541   1.945   2.495 -2.8907 -4.3067  1.2667
    8MOL0     H 1053   8.631   1.869   2.370 -1.9394 -1.4437  0.7663
    8MOL0     H 1054   8.623   1.572   2.658  2.1662 -0.6264  1.2765
    8MOL0     H 1055   9.297   1.923   2.285  4.0362  0.0497 -2.6115
    8MOL0     H 1056   9.438   2.069   2.122  0.1611 -0.8710 -1.3605
    9MOL0     O 1057  10.128   6.828   8.416  0.4559 -0.0614 -0.0034
    9MOL0     C 1058  10.157   6.808   8.537 -0.1516  0.3905 -0.2384
    9MOL0     O 1059  10.147   6.690   8.602 -0.0781 -0.2502 -0.5090
    9MOL0     C 1060  10.104   6.582   8.532 -0.1117 -0.1706 -0.4365
    9MOL0     C 1061  10.173   6.520   8.433 -0.8805 -1.2538 -0.0288
    9MOL0     C 1062  10.115   6.406   8.374 -0.5906 -0.4422 -0.2963
    9MOL0     C 1063   9.997   6.343   8.416 -0.0619 -0.7407 -0.0896
    9MOL0     O 1064   9.950   6.226   8.371 -0.5359  0.7099  0.2720
    9MOL0     C 1065  10.032   6.126   8.307  0.2464 -0.7351  0.3641
    9MOL0     C 1066   9.968   5.978   8.333  0.8142 -0.5338  0.9408
    9MOL0     C 1067  10.059   5.880   8.255 -0.1346 -0.9652 -1.2139
    9MOL0     C 1068   9.992   5.738   8.223 -0.3107  0.1215  0.0181
    9MOL0     C 1069  10.112   5.647   8.193  0.2988  1.1484 -0.1870
    9MOL0     C 1070  10.192   5.664   8.065 -0.7230  0.1552 -0.2609
    9MOL0     C 1071  10.278   5.549   8.022 -0.5609 -0.5336 -0.0525
    9MOL0     C 1072  10.362   5.564   7.898 -0.7495  0.4696  0.2450
    9MOL0     N 1073  10.380   5.432   7.831  0.9049 -0.1917 -0.6035
    9MOL0     C 1074  10.295   5.383   7.733  0.5443 -0.3486 -0.1798
    9MOL0     C 1075  10.358   5.271   7.694 -0.3660 -0.1569 -0.9074
    9MOL0     C 1076  10.319   5.203   7.572 -0.0034  0.2648  0.3681
    9MOL0     C 1077  10.205   5.112   7.610  1.2497 -0.6266 -0.1878
    9MOL0     C 1078  10.139   5.046   7.479  0.8702 -0.5701  0.1911
    9MOL0     C 1079  10.047   5.144   7.404  0.7717  0.4708 -1.2041
    9MOL0     O 1080   9.921   5.167   7.479  0.2322 -0.5027  0.5027
    9MOL0     C 1081   9.855   5.285   7.451  0.1272 -0.0378  0.3259
    9MOL0     C 1082   9.730   5.284   7.392  0.1138  0.7293 -0.7006
    9MOL0     C 1083   9.643   5.396   7.375  0.2465  0.0328 -0.6258
    9MOL0     C 1084   9.681   5.519   7.419 -0.6054 -0.3994 -0.9077
    9MOL0     C 1085   9.591   5.634   7.394 -0.9140  1.3145  0.9965
    9MOL0     O 1086   9.475   5.610   7.329 -1.0161  0.4059 -0.0124
    9MOL0     C 1087   9.390   5.715   7.318 -0.0430  0.0773  0.1426
    9MOL0     C 1088   9.331   5.783   7.426  0.1579  0.1982 -0.1074
    9MOL0     C 1089   9.247   5.884   7.407 -0.7861  0.5141  0.5855
    9MOL0     C 1090   9.203   5.916   7.270 -1.4236 -0.0002  0.0035
    9MOL0     O 1091   9.137   6.035   7.268  0.5561 -0.2081  0.1670
    9MOL0     C 1092   9.020   6.036   7.189 -0.0564  0.6158 -0.3733
    9MOL0     C 1093   8.894   6.056   7.273 -1.0381 -0.5817  0.5677
    9MOL0     C 1094   8.862   5.931   7.359  0.0242  0.6199 -0.3386
    9MOL0     C 1095   8.720   5.939   7.414  1.1359 -0.0414 -0.6833
    9MOL0     C 1096   8.697   5.807   7.488  0.2193 -0.2014  0.7810
    9MOL0     C 1097   8.556   5.784   7.542 -0.5065 -0.3080 -0.4142
    9MOL0     C 1098   8.552   5.645   7.607  0.6805 -0.7606  0.6384
    9MOL0     C 1099   8.413   5.615   7.655 -1.0110  0.1211  0.1508
    9MOL0    Cl 1100   8.307   5.580   7.511 -0.5940  0.2758  0.0026
    9MOL0     C 1101   9.256   5.841   7.160 -0.6828 -0.4014  0.3890
    9MOL0     C 1102   9.357   5.750   7.181  1.0191 -0.3309 -0.5002
    9MOL0     O 1103   9.634   5.744   7.432  0.4717  0.7182  0.3641
    9MOL0     C 1104   9.806   5.531   7.497  0.2943  0.4423 -0.7167
    9MOL0     C 1105   9.890   5.411   7.511  0.8674  0.3336  0.1510
    9MOL0     N 1106  10.470   5.254   7.765  0.3552  0.2474  0.6957
    9MOL0     N 1107  10.478   5.340   7.852 -0.0707 -0.7479  0.5934
    9MOL0     C 1108   9.938   6.395   8.532  0.5671 -0.0069  0.4838
    9MOL0     C 1109   9.986   6.515   8.584 -0.4190 -0.7380  0.2667
    9MOL0     C 1110  10.208   6.918   8.618  0.2868  0.3189  0.9138
    9MOL0     C 1111  10.231   7.047   8.553  0.1901  0.8950 -0.2309
    9MOL0     C 1112  10.260   7.156   8.627  0.2330  0.4384 -0.0755
    9MOL0     C 1113  10.261   7.145   8.769 -0.4009 -0.2538 -0.8801
    9MOL0     O 1114  10.269   7.251   8.850  0.3086 -0.2134  0.4472
    9MOL0     C 1115  10.364   7.254   8.960 -0.1579 -0.3891  0.1411
    9MOL0     C 1116  10.510   7.279   8.908  0.4891 -0.7527 -1.8209
    9MOL0     C 1117  10.541   7.411   8.848 -0.4053  0.2424  0.5401
    9MOL0     C 1118  10.690   7.436   8.835 -0.1606  1.0103 -1.0974
    9MOL0     C 1119  10.729   7.573   8.806  0.4832  0.0022 -0.0018
    9MOL0     C 1120  10.773   7.686   8.781 -0.0343  0.1962 -0.9832
    9MOL0     C 1121  10.251   7.020   8.828  0.6156  0.3596  0.0468
    9MOL0     C 1122  10.218   6.907   8.754 -0.2696  0.3013  0.4995
    9MOL0     H 1123  10.271   6.557   8.406 -1.3862 -1.8762 -3.0729
    9MOL0     H 1124  10.180   6.355   8.304  0.2906 -1.3206  1.1197
    9MOL0     H 1125  10.132   6.126   8.352  0.2168  1.5352  0.5081
    9MOL0     H 1126  10.047   6.135   8.199 -2.9255 -1.6353 -0.2402
    9MOL0     H 1127   9.869   5.972   8.289  0.6185 -3.9686  1.5631
    9MOL0     H 1128   9.953   5.948   8.438 -1.2864 -1.6052  0.3817
    9MOL0     H 1129  10.142   5.843   8.316 -0.7037 -3.0933 -1.6410
    9MOL0     H 1130  10.104   5.925   8.167  2.4662 -0.5085  0.2612
    9MOL0     H 1131   9.931   5.695   8.303 -2.2636  2.8139  0.1018
    9MOL0     H 1132   9.941   5.751   8.127 -0.4734 -1.9151 -0.2340
    9MOL0     H 1133  10.067   5.547   8.188 -1.2227  1.7416  1.0460
    9MOL0     H 1134  10.185   5.652   8.275 -2.6494  1.9825  2.5719
    9MOL0     H 1135  10.259   5.750   8.069  2.3594 -2.1252  0.4666
    9MOL0     H 1136  10.120   5.667   7.983 -2.6406 -2.7082  1.1206
    9MOL0     H 1137  10.351   5.532   8.101  0.6347 -2.8274 -1.5282
    9MOL0     H 1138  10.199   5.473   8.022  1.2052 -2.5577 -2.8798
    9MOL0     H 1139  10.461   5.608   7.912 -0.3080 -0.2863 -0.4079
    9MOL0     H 1140  10.311   5.638   7.835  0.6582  0.8534 -0.4843
    9MOL0     H 1141  10.203   5.420   7.689 -0.0948 -2.1806 -0.4678
    9MOL0     H 1142  10.403   5.159   7.518 -2.3754  3.0945 -6.7245
    9MOL0     H 1143  10.277   5.281   7.508 -1.4801 -1.4952 -0.8830
    9MOL0     H 1144  10.118   5.170   7.642  1.6026  0.0239 -0.3882
    9MOL0     H 1145  10.241   5.038   7.682  0.7171  1.2203  2.1006
    9MOL0     H 1146  10.226   5.020   7.417 -0.0113 -0.0625 -1.3252
    9MOL0     H 1147  10.075   4.961   7.501 -0.9340  0.5112 -0.5951
    9MOL0     H 1148  10.036   5.118   7.298  0.5599 -0.5020 -0.9478
    9MOL0     H 1149  10.102   5.238   7.388 -0.3805  1.0015 -2.1804
    9MOL0     H 1150   9.703   5.184   7.361  1.7926 -0.3530  1.0975
    9MOL0     H 1151   9.550   5.388   7.320 -1.5670  1.7232  1.9938
    9MOL0     H 1152   9.356   5.737   7.521  0.6328  0.6940  0.0139
    9MOL0     H 1153   9.228   5.943   7.496  3.3373 -1.8309  3.3656
    9MOL0     H 1154   9.013   5.945   7.130 -3.0376  1.3727 -1.3693
    9MOL0     H 1155   9.022   6.128   7.130 -1.9268 -0.2481 -1.8871
    9MOL0     H 1156   8.804   6.070   7.213 -0.6756  2.9284  0.6617
    9MOL0     H 1157   8.916   6.139   7.340 -5.1600  2.7880 -1.7750
    9MOL0     H 1158   8.933   5.894   7.433 -1.2997 -2.7328 -0.5567
    9MOL0     H 1159   8.850   5.847   7.289 -4.6042  1.1808 -0.5675
    9MOL0     H 1160   8.693   6.026   7.474 -0.2668 -0.1778 -1.0994
    9MOL0     H 1161   8.644   5.933   7.336 -2.3941  3.7035  2.0317
    9MOL0     H 1162   8.763   5.809   7.576 -0.5129  0.8609  1.3358
    9MOL0     H 1163   8.725   5.716   7.435  2.6343 -0.2239  1.9569
    9MOL0     H 1164   8.497   5.783   7.450  0.6684  3.7349 -1.3784
    9MOL0     H 1165   8.539   5.865   7.613  1.7959 -1.4208  1.5304
    9MOL0     H 1166   8.585   5.576   7.529  1.2387  0.9067 -0.6775
    9MOL0     H 1167   8.626   5.642   7.687  1.3886  0.0792  0.0411
    9MOL0     H 1168   8.371   5.703   7.706  0.8130  1.1130  0.0401
    9MOL0     H 1169   8.415   5.537   7.731  5.5112  0.3159  0.7219
    9MOL0     H 1170   9.227   5.858   7.057  0.6447 -0.9950 -0.1072
    9MOL0     H 1171   9.401   5.700   7.095 -1.2655  2.2866 -3.4900
    9MOL0     H 1172   9.818   5.627   7.548 -1.2673  0.9062 -1.1644
    9MOL0     H 1173   9.976   5.424   7.576  0.3667 -0.3566  0.9701
    9MOL0     H 1174   9.844   6.349   8.562  0.0049  1.5112  1.1641
    9MOL0     H 1175   9.944   6.561   8.673 -1.0221 -1.2915  0.2717
    9MOL0     H 1176  10.208   7.065   8.448  1.5464  0.6650 -0.5924
    9MOL0     H 1177  10.277   7.247   8.570 -0.1731  2.5167  2.9022
    9MOL0     H 1178  10.368   7.158   9.012  1.8626 -1.3204 -1.5556
    9MOL0     H 1179  10.343   7.336   9.029  2.2423  2.4283 -2.1687
    9MOL0     H 1180  10.564   7.280   9.003 -1.6638 -0.3935 -0.5546
    9MOL0     H 1181  10.543   7.183   8.868  2.5964 -2.1147  2.5526
    9MOL0     H 1182  10.480   7.491   8.889  0.2810  1.2689 -0.3769
    9MOL0     H 1183  10.501   7.412   8.746  0.8641  1.9890  0.0207
    9MOL0     H 1184  10.737   7.416   8.931 -0.2116  5.3857  0.0674
    9MOL0     H 1185  10.745   7.384   8.756  0.0167  0.2907 -0.5009
    9MOL0     H 1186  10.801   7.786   8.756 -1.5859  0.2404 -2.8660
    9MOL0     H 1187  10.268   7.008   8.935 -1.0497 -0.6593  0.2271
    9MOL0     H 1188  10.209   6.813   8.808 -0.5293 -1.9133 -3.1321
   10MOL0     O 1189   6.662   5.245   2.968  0.1000 -0.2780  0.7440
   10MOL0     C 1190   6.741   5.164   2.925  0.2490  0.7943 -0.5094
   10MOL0     O 1191   6.825   5.190   2.821  0.3303  0.0613 -0.3085
   10MOL0     C 1192   6.848   5.332   2.801 -0.5233  0.4954  0.3884
   10MOL0     C 1193   6.776   5.381   2.687 -1.2464  0.3948 -0.3777
   10MOL0     C 1194   6.805   5.510   2.662 -0.3621  0.1533  0.9878
   10MOL0     C 1195   6.898   5.590   2.733  0.7024 -0.4531  0.8814
   10MOL0     O 1196   6.909   5.725   2.708  0.0215 -1.1004  0.3285
   10MOL0     C 1197   6.976   5.759   2.585  0.3311  0.7464  0.4071
   10MOL0     C 1198   7.106   5.844   2.616 -0.0015 -1.4989  0.8780
   10MOL0     C 1199   7.115   5.970   2.522 -0.5958  0.6040 -0.2507
   10MOL0     C 1200   7.011   6.069   2.579  0.4365 -0.5013 -0.4511
   10MOL0     C 1201   7.034   6.208   2.508 -0.3585 -0.2370  0.6785
   10MOL0     C 1202   7.046   6.315   2.613  0.2475 -0.4734  0.5235
   10MOL0     C 1203   7.066   6.452   2.544 -0.0699 -0.5702  0.1934
   10MOL0     C 1204   7.089   6.581   2.630  0.1760 -0.0875 -0.0862
   10MOL0     N 1205   7.030   6.699   2.571  0.0231  0.3678  0.2204
   10MOL0     C 1206   7.102   6.777   2.477  0.2819 -0.0059  0.8968
   10MOL0     C 1207   7.014   6.868   2.436 -0.2723 -0.7371  0.0217
   10MOL0     C 1208   7.061   6.984   2.363  0.3278 -0.2770 -0.4396
   10MOL0     C 1209   7.085   7.109   2.440 -0.4534 -0.3533 -0.4795
   10MOL0     C 1210   7.014   7.226   2.374  1.0852  0.6391 -0.3623
   10MOL0     C 1211   6.857   7.208   2.395 -0.4351 -0.6865 -0.4179
   10MOL0     O 1212   6.796   7.168   2.264 -0.3804 -0.1294 -1.3109
   10MOL0     C 1213   6.671   7.123   2.270  0.4481 -0.4922 -0.5655
   10MOL0     C 1214   6.616   7.035   2.366  0.6240  0.3334 -0.4085
   10MOL0     C 1215   6.479   7.003   2.380  0.1896 -0.1035  0.0002
   10MOL0     C 1216   6.397   7.056   2.288  0.7917  0.6231 -0.5790
   10MOL0     C 1217   6.247   7.023   2.295 -0.0811 -0.6975  0.3924
   10MOL0     O 1218   6.173   7.065   2.407 -1.0535  0.6419 -0.1381
   10MOL0     C 1219   6.036   7.057   2.407  1.1671  0.3686 -0.0988
   10MOL0     C 1220   5.961   7.129   2.317  1.0454 -0.1385 -0.2123
   10MOL0     C 1221   5.821   7.127   2.324  0.1756 -0.1195  0.7731
   10MOL0     C 1222   5.746   7.048   2.405  0.9428 -0.6441  0.9399
   10MOL0     O 1223   5.603   7.058   2.400  0.0614  0.3278 -0.2926
   10MOL0     C 1224   5.538   7.091   2.526  0.0994  0.2444  0.2640
   10MOL0     C 1225   5.389   7.094   2.489 -0.3768 -0.3978 -0.6282
   10MOL0     C 1226   5.340   6.950   2.451  0.6353  0.0208  0.7188
   10MOL0     C 1227   5.353   6.862   2.570 -0.5047  1.0574 -0.0196
   10MOL0     C 1228   5.245   6.752   2.573  0.1487 -0.1668  0.1119
   10MOL0     C 1229   5.255   6.652   2.466  0.2166 -0.4195  0.7105
   10MOL0     C 1230   5.215   6.511   2.532  0.5134 -0.1879 -0.1791
   10MOL0     C 1231   5.264   6.396   2.431  0.5269 -0.6663  0.8632
   10MOL0    Cl 1232   5.434   6.342   2.464  0.0217  0.0607 -0.1054
   10MOL0     C 1233   5.823   6.967   2.490  0.7322  0.1749 -0.1357
   10MOL0     C 1234   5.967   6.962   2.492 -0.0283 -0.5527  0.1003
   10MOL0     O 1235   6.198   6.959   2.198  0.3789 -0.7593 -0.6038
   10MOL0     C 1236   6.439   7.134   2.187 -0.6839 -0.0736 -0.1363
   10MOL0     C 1237   6.576   7.168   2.171 -0.3258 -0.8641 -0.1193
   10MOL0     N 1238   6.895   6.848   2.499  0.2204 -0.3028 -1.1766
   10MOL0     N 1239   6.904   6.748   2.580 -0.5184  0.2340  0.0725
   10MOL0     C 1240   6.966   5.534   2.834 -0.2376  0.1898 -0.6575
   10MOL0     C 1241   6.940   5.408   2.872 -0.6063 -0.1951  0.1021
   10MOL0     C 1242   6.745   5.023   2.980  0.5479 -0.9318 -0.0412
   10MOL0     C 1243   6.856   4.939   2.957 -0.8294  0.2815  0.0113
   10MOL0     C 1244   6.852   4.806   2.993  0.4733  0.5078  0.0683
   10MOL0     C 1245   6.757   4.764   3.090  0.5381 -0.7049 -0.0630
   10MOL0     O 1246   6.772   4.654   3.169  0.1058  1.0921  0.0314
   10MOL0     C 1247   6.773   4.536   3.086  0.2707 -0.0038 -0.6963
   10MOL0     C 1248   6.671   4.525   2.978  0.7600  0.3740  0.8074
   10MOL0     C 1249   6.521   4.542   3.028  0.0900  0.8890  0.0910
   10MOL0     C 1250   6.492   4.483   3.163 -0.4573  1.4435 -0.1176
   10MOL0     C 1251   6.349   4.459   3.193  0.0200 -0.0285 -0.6036
   10MOL0     C 1252   6.231   4.453   3.209  0.2217 -0.1028 -0.2988
   10MOL0     C 1253   6.657   4.858   3.122  0.2034 -0.4751 -0.4558
   10MOL0     C 1254   6.647   4.976   3.056 -0.5837 -0.5543 -0.5634
   10MOL0     H 1255   6.692   5.326   2.646  0.1921 -0.9291 -1.6626
   10MOL0     H 1256   6.734   5.568   2.603  2.9576  0.2084 -3.4689
   10MOL0     H 1257   6.904   5.808   2.518 -1.1113 -1.6996  0.0358
   10MOL0     H 1258   7.009   5.675   2.524 -0.0659  0.3929  0.6756
   10MOL0     H 1259   7.194   5.780   2.604  2.1211  1.3721  0.0080
   10MOL0     H 1260   7.113   5.874   2.721  0.4827 -0.2997  0.5089
   10MOL0     H 1261   7.106   5.948   2.415 -1.1636  1.8106 -0.4723
   10MOL0     H 1262   7.211   6.020   2.535  0.3882 -1.7153  2.3587
   10MOL0     H 1263   6.909   6.033   2.567 -0.4838  2.1861 -1.4000
   10MOL0     H 1264   7.027   6.083   2.687 -1.9044  1.8260 -0.3196
   10MOL0     H 1265   6.956   6.242   2.439 -0.2631 -1.9672 -0.3507
   10MOL0     H 1266   7.125   6.212   2.448 -0.1965  0.7823  0.9733
   10MOL0     H 1267   7.141   6.288   2.659  0.7594  1.5313  0.6973
   10MOL0     H 1268   6.960   6.326   2.680  0.3009 -1.7547  0.8362
   10MOL0     H 1269   7.149   6.445   2.474 -0.9602 -1.4025 -0.8237
   10MOL0     H 1270   6.977   6.473   2.484  1.1149 -2.7044 -2.5117
   10MOL0     H 1271   7.196   6.585   2.650  0.8438  0.4601 -3.2808
   10MOL0     H 1272   7.031   6.565   2.722 -3.2559  2.7059 -1.5301
   10MOL0     H 1273   7.209   6.772   2.457 -0.2670  0.6256 -2.8246
   10MOL0     H 1274   6.991   7.003   2.281 -0.0820 -0.7910 -0.2114
   10MOL0     H 1275   7.157   6.954   2.318 -0.6903 -0.8453 -2.3431
   10MOL0     H 1276   7.192   7.134   2.438 -0.8057  1.5018  1.1161
   10MOL0     H 1277   7.069   7.093   2.547  1.0074  4.8797  0.8088
   10MOL0     H 1278   7.039   7.322   2.421 -0.7490  0.9613  0.0434
   10MOL0     H 1279   7.027   7.237   2.266 -1.1931  3.4780 -0.4937
   10MOL0     H 1280   6.805   7.298   2.426  1.0722  0.1559 -0.2512
   10MOL0     H 1281   6.849   7.127   2.468 -2.0586 -2.0848 -2.0393
   10MOL0     H 1282   6.678   7.001   2.449  0.9636 -0.1452 -0.8534
   10MOL0     H 1283   6.428   6.949   2.459 -0.8730  2.7671  1.4607
   10MOL0     H 1284   6.019   7.191   2.248  0.3927 -0.7399 -1.3237
   10MOL0     H 1285   5.776   7.199   2.256  1.5058  0.0448  0.0319
   10MOL0     H 1286   5.553   7.188   2.574 -0.8030  0.5160  0.0157
   10MOL0     H 1287   5.555   7.012   2.600 -0.7612 -0.3414 -0.1508
   10MOL0     H 1288   5.370   7.159   2.404 -2.8304  1.2877  1.0624
   10MOL0     H 1289   5.339   7.130   2.580  1.5771 -0.8022  0.6773
   10MOL0     H 1290   5.385   6.920   2.356  1.7225  1.4291  0.7498
   10MOL0     H 1291   5.233   6.951   2.428  0.6507  1.8751  0.5224
   10MOL0     H 1292   5.453   6.817   2.566 -1.3445 -1.1082  1.5542
   10MOL0     H 1293   5.350   6.920   2.663  0.4487 -2.1478  2.1769
   10MOL0     H 1294   5.148   6.803   2.570  0.7335  0.9440 -1.1691
   10MOL0     H 1295   5.257   6.700   2.669 -0.3941  0.9908  0.8398
   10MOL0     H 1296   5.355   6.646   2.422  0.2929 -3.2831  1.1117
   10MOL0     H 1297   5.185   6.682   2.388 -0.8010 -0.5125  1.5595
   10MOL0     H 1298   5.262   6.484   2.627 -3.3556 -2.1086  1.3974
   10MOL0     H 1299   5.108   6.502   2.551  0.3360  0.7874 -0.6634
   10MOL0     H 1300   5.268   6.419   2.324  2.0905 -1.1409  0.7904
   10MOL0     H 1301   5.196   6.312   2.448 -2.5436  1.4526 -0.1588
   10MOL0     H 1302   5.758   6.907   2.553 -2.7458  1.8959 -1.7727
   10MOL0     H 1303   6.021   6.904   2.566 -0.1392 -0.2540  0.4201
   10MOL0     H 1304   6.367   7.167   2.114  1.7724  1.2028 -2.1497
   10MOL0     H 1305   6.615   7.231   2.091 -0.9331  1.3653  1.2503
   10MOL0     H 1306   7.026   5.596   2.900  0.3682  0.6335 -1.6005
   10MOL0     H 1307   6.989   5.362   2.957  1.6192 -4.9191 -3.2474
   10MOL0     H 1308   6.930   4.975   2.886  0.0846  1.9587  1.7257
   10MOL0     H 1309   6.935   4.742   2.965 -0.0455  0.3386 -1.1094
   10MOL0     H 1310   6.758   4.453   3.156 -0.7391  0.1660 -0.6950
   10MOL0     H 1311   6.872   4.515   3.047  1.2643 -0.1295  1.6788
   10MOL0     H 1312   6.685   4.598   2.897 -0.0143  0.5520  0.8272
   10MOL0     H 1313   6.657   4.430   2.924  0.2686  0.3393  0.9894
   10MOL0     H 1314   6.449   4.491   2.963 -0.1025  0.8081  0.3665
   10MOL0     H 1315   6.482   4.644   3.022  0.2754  0.8861 -2.4558
   10MOL0     H 1316   6.542   4.385   3.162 -0.4592  1.3807  1.6615
   10MOL0     H 1317   6.526   4.540   3.250 -1.7268  1.8954  0.0937
   10MOL0     H 1318   6.126   4.473   3.220  0.4758  2.1003 -1.3801
   10MOL0     H 1319   6.579   4.825   3.189  1.8710 -1.1991  1.2325
   10MOL0     H 1320   6.557   5.035   3.072  0.4569  0.5189  1.7121
   11MOL0     O 1321   8.413   3.340   8.249 -0.2133 -0.2049  0.1685
   11MOL0     C 1322   8.387   3.299   8.366 -0.0427 -0.8958  0.1587
   11MOL0     O 1323   8.289   3.353   8.443  0.2405 -0.7865  0.1882
   11MOL0     C 1324   8.211   3.463   8.383 -1.1328  0.3431 -0.1940
   11MOL0     C 1325   8.264   3.591   8.357 -0.4478  0.3341 -0.9832
   11MOL0     C 1326   8.178   3.685   8.312 -0.5634  0.6829  0.6059
   11MOL0     C 1327   8.042   3.655   8.292 -0.2372  0.1373 -0.1365
   11MOL0     O 1328   7.961   3.763   8.244 -0.8124  0.4610 -0.3935
   11MOL0     C 1329   7.812   3.774   8.235 -0.7226  0.0251 -0.4394
   11MOL0     C 1330   7.783   3.899   8.153  0.8833  0.1520 -0.3221
   11MOL0     C 1331   7.630   3.908   8.127  0.1375  0.5541  0.1688
   11MOL0     C 1332   7.552   3.912   8.263 -0.7495 -0.4533  0.5412
   11MOL0     C 1333   7.405   3.960   8.251  1.0233  0.2329  0.3625
   11MOL0     C 1334   7.334   3.934   8.383 -0.5660  0.6259  0.0908
   11MOL0     C 1335   7.209   4.017   8.410  0.0283 -0.0456 -0.0533
   11MOL0     C 1336   7.104   3.952   8.505 -0.4179  0.1821 -0.0774
   11MOL0     N 1337   7.172   3.888   8.626  0.1110  0.7175  0.0736
   11MOL0     C 1338   7.208   3.963   8.735 -0.4519 -0.0542  0.9516
   11MOL0     C 1339   7.308   3.891   8.788  0.4198 -0.2955  0.1617
   11MOL0     C 1340   7.421   3.940   8.884  0.8558 -0.0690  1.0129
   11MOL0     C 1341   7.410   3.897   9.030  0.4827 -0.4012  0.0317
   11MOL0     C 1342   7.439   3.747   9.031 -0.2694 -0.3322 -0.9175
   11MOL0     C 1343   7.400   3.689   9.174  0.7155 -0.2931 -0.7110
   11MOL0     O 1344   7.476   3.725   9.288 -0.0590 -0.4399 -0.5901
   11MOL0     C 1345   7.581   3.650   9.327 -0.5532  0.0341  0.1801
   11MOL0     C 1346   7.655   3.683   9.438  0.0040  0.3692 -0.9539
   11MOL0     C 1347   7.759   3.611   9.488 -0.2654 -0.1551 -0.4508
   11MOL0     C 1348   7.814   3.506   9.407 -0.0347  1.1022 -0.6938
   11MOL0     C 1349   7.936   3.426   9.452  0.2791 -0.2536  0.0139
   11MOL0     O 1350   7.970   3.330   9.357  0.9683  0.1350 -0.0566
   11MOL0     C 1351   8.095   3.292   9.360 -0.7196  0.0975 -0.4586
   11MOL0     C 1352   8.140   3.215   9.463  0.3642  0.2246  0.1206
   11MOL0     C 1353   8.280   3.190   9.483  0.2316 -0.4398  0.4898
   11MOL0     C 1354   8.375   3.234   9.387 -0.2271  0.3674  0.1773
   11MOL0     O 1355   8.505   3.202   9.398  0.5588 -0.3734  1.2354
   11MOL0     C 1356   8.558   3.067   9.381 -0.8006  0.1781  0.0747
   11MOL0     C 1357   8.674   3.047   9.478  1.0974 -0.0306  0.5268
   11MOL0     C 1358   8.746   2.938   9.433  0.1504 -0.9732  0.3038
   11MOL0     C 1359   8.819   2.972   9.296 -0.7451  0.2746 -0.1784
   11MOL0     C 1360   8.954   2.915   9.283 -0.6528 -1.1867  0.9092
   11MOL0     C 1361   9.053   2.972   9.394 -0.8210 -0.8840 -0.1465
   11MOL0     C 1362   9.192   2.955   9.329  0.0097  0.1239  0.1879
   11MOL0     C 1363   9.297   3.009   9.428  0.1745 -0.5859  0.7548
   11MOL0    Cl 1364   9.298   2.920   9.574  0.2949 -0.3368 -0.3763
   11MOL0     C 1365   8.326   3.311   9.281 -0.3001 -0.5612 -0.2211
   11MOL0     C 1366   8.187   3.347   9.269 -0.5986 -1.1374 -0.0721
   11MOL0     O 1367   8.007   3.466   9.542  0.4580 -0.2089 -0.3175
   11MOL0     C 1368   7.741   3.471   9.294 -0.2939  0.6534  0.2661
   11MOL0     C 1369   7.632   3.540   9.250 -0.1137  0.6538 -0.0240
   11MOL0     N 1370   7.322   3.764   8.725  1.0808 -0.5627  1.3438
   11MOL0     N 1371   7.238   3.769   8.627 -0.5313  0.5321  0.4002
   11MOL0     C 1372   7.988   3.532   8.327 -0.2611 -0.3934 -0.3565
   11MOL0     C 1373   8.074   3.431   8.372 -0.1505 -0.0612 -0.3369
   11MOL0     C 1374   8.444   3.179   8.427 -0.4760 -0.0049  0.3530
   11MOL0     C 1375   8.559   3.125   8.362 -0.2100  0.1393  0.3840
   11MOL0     C 1376   8.613   3.004   8.404  0.2062 -0.5626 -0.0695
   11MOL0     C 1377   8.577   2.951   8.533  0.1180 -0.4750  0.1420
   11MOL0     O 1378   8.633   2.831   8.572 -0.6422  0.8079 -0.3859
   11MOL0     C 1379   8.622   2.776   8.704 -0.5142  0.1540 -0.5898
   11MOL0     C 1380   8.735   2.672   8.706 -0.1020  0.6093  0.6300
   11MOL0     C 1381   8.844   2.706   8.797  0.7903 -0.6634  0.0741
   11MOL0     C 1382   8.806   2.716   8.945 -0.2983 -0.1198  0.3356
   11MOL0     C 1383   8.772   2.573   8.984  0.2877 -0.5210 -1.4479
   11MOL0     C 1384   8.738   2.471   9.038 -0.9438 -0.4912 -0.2322
   11MOL0     C 1385   8.468   3.013   8.606  0.5468  0.3273  1.0458
   11MOL0     C 1386   8.405   3.126   8.551 -0.3667 -0.4066 -0.0786
   11MOL0     H 1387   8.372   3.594   8.366 -0.5525 -0.9527  1.6202
   11MOL0     H 1388   8.188   3.789   8.282  1.3866  0.5651  0.7237
   11MOL0     H 1389   7.764   3.782   8.333 -1.4371  0.5990 -0.8284
   11MOL0     H 1390   7.779   3.683   8.185  0.9486 -0.2418 -1.1302
   11MOL0     H 1391   7.839   3.895   8.059  2.8774 -1.9761  0.8537
   11MOL0     H 1392   7.814   3.985   8.213 -0.6001  0.9692 -0.6794
   11MOL0     H 1393   7.599   3.818   8.073  1.8631 -0.5176  0.9001
   11MOL0     H 1394   7.611   3.999   8.071  0.8279  1.6515  1.6567
   11MOL0     H 1395   7.547   3.807   8.294  1.7456 -0.5730  0.7511
   11MOL0     H 1396   7.604   3.979   8.332 -2.0091  0.6763  0.4420
   11MOL0     H 1397   7.355   3.920   8.162  3.1731  2.5487 -2.0453
   11MOL0     H 1398   7.415   4.068   8.234  0.6511  0.1645 -0.3384
   11MOL0     H 1399   7.397   3.971   8.463 -0.9475  0.7831  0.3239
   11MOL0     H 1400   7.313   3.827   8.390 -0.3683  0.4868 -1.1965
   11MOL0     H 1401   7.231   4.115   8.453 -2.4038  1.6654 -2.3619
   11MOL0     H 1402   7.160   4.033   8.314 -2.0158 -0.5822  0.8378
   11MOL0     H 1403   7.056   3.872   8.449  3.5427 -1.0860 -2.0317
   11MOL0     H 1404   7.036   4.029   8.541 -1.3121  0.2038 -1.7327
   11MOL0     H 1405   7.188   4.070   8.741 -3.0603 -0.0078 -3.6268
   11MOL0     H 1406   7.440   4.048   8.890  0.3590  0.0095  1.3164
   11MOL0     H 1407   7.516   3.908   8.841 -0.5712  1.6527 -4.1149
   11MOL0     H 1408   7.317   3.924   9.080  1.4697  3.2963  0.1580
   11MOL0     H 1409   7.476   3.964   9.086 -1.5421  0.1911  1.8449
   11MOL0     H 1410   7.372   3.680   8.977 -1.0264 -2.1550  2.0444
   11MOL0     H 1411   7.543   3.722   9.008 -0.6873 -0.3611 -2.9446
   11MOL0     H 1412   7.391   3.580   9.171 -2.1029 -0.2613  1.5000
   11MOL0     H 1413   7.302   3.733   9.198  1.0524  0.2045 -0.2359
   11MOL0     H 1414   7.627   3.768   9.500  0.2835 -1.3352  1.6448
   11MOL0     H 1415   7.781   3.636   9.591  0.0726 -0.2411 -0.5021
   11MOL0     H 1416   8.062   3.168   9.522 -1.9575  0.1002 -2.8292
   11MOL0     H 1417   8.315   3.131   9.567 -1.1573  0.2711  1.5922
   11MOL0     H 1418   8.596   3.077   9.279 -1.8410  0.1024 -0.3391
   11MOL0     H 1419   8.483   2.987   9.389 -1.3803  0.7579  0.5924
   11MOL0     H 1420   8.623   3.028   9.573 -1.7763 -3.7315 -1.4942
   11MOL0     H 1421   8.726   3.143   9.477  2.1109 -0.3944  4.0892
   11MOL0     H 1422   8.680   2.856   9.404 -3.1460  1.9856 -1.2533
   11MOL0     H 1423   8.803   2.899   9.518 -3.9880 -3.6898  2.1654
   11MOL0     H 1424   8.755   2.943   9.212  0.6165  1.9379 -1.8893
   11MOL0     H 1425   8.829   3.081   9.288 -2.3458  0.8460  3.4813
   11MOL0     H 1426   8.983   2.955   9.185 -1.2244 -0.1685  1.1469
   11MOL0     H 1427   8.955   2.805   9.278 -3.2316 -1.2814  0.9539
   11MOL0     H 1428   9.039   2.934   9.495  0.8867  1.8812  1.2273
   11MOL0     H 1429   9.038   3.080   9.406  0.2567 -0.8580  1.1373
   11MOL0     H 1430   9.213   2.848   9.318 -0.0551 -0.2050  2.5681
   11MOL0     H 1431   9.204   2.996   9.229 -2.7643 -2.5403 -1.4307
   11MOL0     H 1432   9.290   3.118   9.437  2.2516 -0.2827 -0.4569
   11MOL0     H 1433   9.394   2.995   9.380  0.3637 -1.8078  1.4376
   11MOL0     H 1434   8.401   3.332   9.205 -0.0326 -0.0173  0.1932
   11MOL0     H 1435   8.189   3.414   9.183 -2.2120  2.2263  2.2644
   11MOL0     H 1436   7.769   3.399   9.218 -0.1073  0.0067  0.9362
   11MOL0     H 1437   7.595   3.522   9.149 -0.9081 -0.6952  0.4858
   11MOL0     H 1438   7.885   3.497   8.320 -0.2844 -2.2096  4.7179
   11MOL0     H 1439   8.034   3.331   8.382 -0.7045  0.3164  1.8486
   11MOL0     H 1440   8.590   3.154   8.262  0.2716 -0.7062  0.2795
   11MOL0     H 1441   8.686   2.949   8.344  0.1380  1.6725 -2.3302
   11MOL0     H 1442   8.526   2.725   8.700  1.5289 -4.0637 -1.2827
   11MOL0     H 1443   8.616   2.850   8.785 -1.5781 -1.6093  1.0118
   11MOL0     H 1444   8.696   2.570   8.712  1.7338 -0.6859 -4.5971
   11MOL0     H 1445   8.774   2.670   8.604 -2.6998  1.7454 -0.4943
   11MOL0     H 1446   8.873   2.805   8.761  1.1978 -1.4047 -1.7385
   11MOL0     H 1447   8.921   2.630   8.781 -1.8206 -3.2787 -1.0568
   11MOL0     H 1448   8.892   2.752   9.001  2.3856 -0.6188 -3.1513
   11MOL0     H 1449   8.724   2.786   8.963 -0.5715 -0.4536  0.4177
   11MOL0     H 1450   8.750   2.376   9.088 -1.0717 -0.3198  0.1288
   11MOL0     H 1451   8.437   2.971   8.701 -2.8960  3.3683  1.4886
   11MOL0     H 1452   8.326   3.161   8.617  0.2336 -3.5956  2.5687
   12MOL0     O 1453   8.711   7.057   8.062 -0.5595 -0.2249 -0.1540
   12MOL0     C 1454   8.595   7.044   8.026  0.4256 -0.1128 -0.3488
   12MOL0     O 1455   8.531   6.922   8.016 -0.1182 -0.3711 -0.7097
   12MOL0     C 1456   8.600   6.811   8.073  0.5426  0.0383  0.3792
   12MOL0     C 1457   8.721   6.771   8.028 -1.2747 -0.2135  0.5182
   12MOL0     C 1458   8.771   6.646   8.050  0.2763 -0.0699 -0.1077
   12MOL0     C 1459   8.694   6.561   8.133  0.4339 -0.3743  0.5077
   12MOL0     O 1460   8.740   6.436   8.166 -0.0620 -0.3633 -0.4813
   12MOL0     C 1461   8.872   6.437   8.228 -0.6234  0.8626  1.5550
   12MOL0     C 1462   8.946   6.307   8.251  0.3981  0.1075  0.5596
   12MOL0     C 1463   8.984   6.229   8.124  0.7458 -0.0267  0.1227
   12MOL0     C 1464   9.013   6.077   8.146  0.1083 -0.5147  0.4894
   12MOL0     C 1465   9.143   6.053   8.238 -0.3688 -1.0299  0.3970
   12MOL0     C 1466   9.176   5.911   8.282 -0.9740 -0.3780 -0.2945
   12MOL0     C 1467   9.151   5.790   8.186 -0.7401  0.7196 -0.5980
   12MOL0     C 1468   9.252   5.793   8.059 -0.5392 -0.7125 -0.2188
   12MOL0     N 1469   9.180   5.738   7.943  0.3205  0.5962 -0.2351
   12MOL0     C 1470   9.187   5.615   7.898 -0.0775 -0.2598 -0.0298
   12MOL0     C 1471   9.141   5.624   7.773  0.2293 -1.0340  0.6528
   12MOL0     C 1472   9.097   5.517   7.670 -1.2615  0.1909 -0.6510
   12MOL0     C 1473   9.165   5.378   7.661  1.1640  0.6453 -0.5120
   12MOL0     C 1474   9.314   5.392   7.654 -0.6723 -1.1899 -0.8083
   12MOL0     C 1475   9.402   5.276   7.599  0.7418  0.4945 -0.3737
   12MOL0     O 1476   9.417   5.179   7.711  0.5026 -0.9977  0.4417
   12MOL0     C 1477   9.405   5.050   7.674  0.3727  0.1658 -0.0153
   12MOL0     C 1478   9.349   4.959   7.771  0.5927 -0.5835 -0.3351
   12MOL0     C 1479   9.335   4.822   7.753  0.1640 -0.0170 -0.1948
   12MOL0     C 1480   9.392   4.763   7.635 -0.0065 -0.6925 -0.7276
   12MOL0     C 1481   9.400   4.618   7.621 -0.3735 -0.0880  1.2191
   12MOL0     O 1482   9.407   4.576   7.490 -0.1777 -0.0609 -0.3211
   12MOL0     C 1483   9.402   4.444   7.434  0.1392 -1.3161 -0.3976
   12MOL0     C 1484   9.446   4.429   7.302  0.1780 -0.8417 -0.6292
   12MOL0     C 1485   9.434   4.311   7.236  0.1089  0.0472 -0.3003
   12MOL0     C 1486   9.377   4.198   7.297  0.5053 -0.1533 -0.5019
   12MOL0     O 1487   9.373   4.083   7.225  0.5887  0.1421  0.2071
   12MOL0     C 1488   9.416   3.963   7.280 -0.8616 -0.1634 -0.7124
   12MOL0     C 1489   9.431   3.858   7.175  0.2330  1.1056 -0.0388
   12MOL0     C 1490   9.564   3.870   7.101 -0.3975 -0.5277 -0.4364
   12MOL0     C 1491   9.588   3.757   7.002  0.1355  0.0326 -0.4891
   12MOL0     C 1492   9.739   3.764   6.951  0.3322 -0.6411 -0.0325
   12MOL0     C 1493   9.764   3.902   6.889  0.1647  0.5608 -0.0062
   12MOL0     C 1494   9.868   3.902   6.777 -0.1838  0.8535 -0.4141
   12MOL0     C 1495   9.905   4.042   6.727 -0.8507  0.5490 -0.7734
   12MOL0    Cl 1496  10.045   4.009   6.612 -0.2907 -0.2083 -0.2042
   12MOL0     C 1497   9.341   4.208   7.435 -0.1937  0.0518  0.2701
   12MOL0     C 1498   9.348   4.331   7.497  0.9787  0.9599 -0.0418
   12MOL0     O 1499   9.358   4.547   7.707 -0.6954 -1.0944 -0.2125
   12MOL0     C 1500   9.441   4.849   7.536 -0.5339 -0.8851 -0.2909
   12MOL0     C 1501   9.445   4.991   7.561 -1.0223  0.1916 -0.2663
   12MOL0     N 1502   9.124   5.752   7.734  0.6270 -0.4986 -0.0384
   12MOL0     N 1503   9.138   5.814   7.839 -0.1939  0.1027  0.3025
   12MOL0     C 1504   8.575   6.600   8.195  0.0649  0.1606 -0.2128
   12MOL0     C 1505   8.522   6.726   8.157  0.1206  0.8963  0.1290
   12MOL0     C 1506   8.543   7.160   7.956  1.4706  0.2521  0.9335
   12MOL0     C 1507   8.404   7.156   7.910  0.1100  0.1890 -0.9400
   12MOL0     C 1508   8.347   7.266   7.848 -0.4276  0.6495 -0.6059
   12MOL0     C 1509   8.434   7.377   7.814  0.6917  0.2097 -0.0748
   12MOL0     O 1510   8.389   7.482   7.737  0.3045 -0.2423 -0.6571
   12MOL0     C 1511   8.257   7.486   7.677 -0.7777  0.3815  0.1144
   12MOL0     C 1512   8.269   7.405   7.547 -0.6942  0.6997  0.6567
   12MOL0     C 1513   8.332   7.478   7.429 -0.5585  0.7189  0.1915
   12MOL0     C 1514   8.362   7.386   7.307  0.3616 -0.6154 -0.0908
   12MOL0     C 1515   8.255   7.297   7.248 -0.8140  0.2163 -0.0582
   12MOL0     C 1516   8.149   7.236   7.197  0.6436 -0.1332 -0.6496
   12MOL0     C 1517   8.567   7.370   7.845 -0.1634  0.5506 -0.9680
   12MOL0     C 1518   8.624   7.269   7.914 -0.1699 -0.0028 -0.1785
   12MOL0     H 1519   8.769   6.839   7.959  1.8714 -1.7605  0.9758
   12MOL0     H 1520   8.864   6.616   8.005 -0.0326 -0.4136 -0.5232
   12MOL0     H 1521   8.855   6.490   8.322 -1.6343  0.7127  1.4593
   12MOL0     H 1522   8.941   6.490   8.161 -1.5994 -1.3448 -1.4344
   12MOL0     H 1523   8.888   6.249   8.323 -2.3688  0.4509 -1.2480
   12MOL0     H 1524   9.041   6.342   8.294  0.5600  1.9098 -1.1228
   12MOL0     H 1525   9.059   6.292   8.076  0.0108  2.3668  1.9361
   12MOL0     H 1526   8.907   6.222   8.047 -0.8223 -3.1790  1.7871
   12MOL0     H 1527   8.922   6.034   8.189 -2.9566  6.2656  2.0665
   12MOL0     H 1528   9.025   6.027   8.049  0.5220 -1.2875  0.9225
   12MOL0     H 1529   9.100   6.108   8.322 -2.3872 -0.1941 -1.0769
   12MOL0     H 1530   9.233   6.099   8.195  2.0245 -5.0195  0.6720
   12MOL0     H 1531   9.114   5.894   8.371 -0.3913 -2.6709 -0.2529
   12MOL0     H 1532   9.276   5.896   8.324 -1.7797 -1.7438  1.2649
   12MOL0     H 1533   9.161   5.695   8.239 -2.3135  0.9870  0.2622
   12MOL0     H 1534   9.047   5.811   8.157 -0.7068  2.8713  0.6135
   12MOL0     H 1535   9.347   5.743   8.078 -0.9891  0.0724  6.7728
   12MOL0     H 1536   9.268   5.899   8.037 -0.6120 -0.8085 -0.7494
   12MOL0     H 1537   9.215   5.523   7.948  1.2635  1.8356  3.3649
   12MOL0     H 1538   9.104   5.569   7.574  1.9047  0.0670 -0.6159
   12MOL0     H 1539   8.998   5.499   7.713 -0.8003 -0.9572 -0.0115
   12MOL0     H 1540   9.128   5.316   7.579  1.6716 -3.0533  1.8260
   12MOL0     H 1541   9.149   5.319   7.752  2.0693  0.5240 -0.4187
   12MOL0     H 1542   9.334   5.483   7.597 -0.0667  0.5110  1.8915
   12MOL0     H 1543   9.346   5.417   7.756 -0.2749 -2.4042 -0.6155
   12MOL0     H 1544   9.500   5.320   7.579  0.8496 -0.2385 -1.4992
   12MOL0     H 1545   9.364   5.241   7.503  1.3116 -0.3409 -0.3051
   12MOL0     H 1546   9.312   5.011   7.858  1.8081  1.6495 -1.0789
   12MOL0     H 1547   9.286   4.754   7.822  1.0926 -0.4815  0.0213
   12MOL0     H 1548   9.501   4.510   7.256 -0.0130 -0.7054 -0.6177
   12MOL0     H 1549   9.478   4.289   7.139  3.2474 -5.4042  1.9397
   12MOL0     H 1550   9.342   3.924   7.350 -1.7476  0.7783 -1.1089
   12MOL0     H 1551   9.511   3.980   7.332 -0.5807 -0.2165 -1.1971
   12MOL0     H 1552   9.345   3.883   7.112 -0.5127  3.2589  1.7058
   12MOL0     H 1553   9.418   3.755   7.211 -0.0922  1.7342  1.7701
   12MOL0     H 1554   9.638   3.873   7.182 -1.1734 -0.4164  0.2931
   12MOL0     H 1555   9.568   3.966   7.050  0.9973 -0.0835  0.4523
   12MOL0     H 1556   9.573   3.659   7.048 -1.9675  0.8425  0.7174
   12MOL0     H 1557   9.511   3.765   6.924 -0.5004 -1.0477  0.0038
   12MOL0     H 1558   9.762   3.702   6.864  3.2662  0.3685 -0.1058
   12MOL0     H 1559   9.821   3.738   7.019 -0.2879 -3.6023 -0.2969
   12MOL0     H 1560   9.803   3.968   6.967  2.7877 -2.2920  1.2886
   12MOL0     H 1561   9.668   3.930   6.844 -2.6672 -5.1816  1.5628
   12MOL0     H 1562   9.956   3.855   6.821  0.6194  4.7958  2.7883
   12MOL0     H 1563   9.834   3.842   6.692  0.9918  3.1618 -2.6730
   12MOL0     H 1564   9.943   4.113   6.801  1.6300  1.0289 -2.3965
   12MOL0     H 1565   9.821   4.093   6.677 -0.2070  1.4389 -0.9775
   12MOL0     H 1566   9.286   4.122   7.475  1.5385 -0.8353  0.8434
   12MOL0     H 1567   9.292   4.344   7.589  0.6040  0.7227 -0.2342
   12MOL0     H 1568   9.494   4.811   7.449  5.4085  0.2885  2.3408
   12MOL0     H 1569   9.479   5.058   7.483 -3.0381  0.3831 -1.0492
   12MOL0     H 1570   8.519   6.534   8.260  0.3345  0.5953  0.4670
   12MOL0     H 1571   8.425   6.753   8.196  0.6004  0.0602  2.0280
   12MOL0     H 1572   8.331   7.086   7.950 -0.4604  1.9813  1.3801
   12MOL0     H 1573   8.240   7.277   7.831 -0.4651  1.0569 -0.1391
   12MOL0     H 1574   8.217   7.586   7.663 -3.4081 -0.6701 -0.5243
   12MOL0     H 1575   8.181   7.446   7.744 -0.0269 -1.8009 -0.2414
   12MOL0     H 1576   8.306   7.305   7.569 -2.6419 -0.0090  0.8858
   12MOL0     H 1577   8.168   7.378   7.514 -0.5319  1.0873 -0.1937
   12MOL0     H 1578   8.424   7.531   7.452  0.8355 -0.8350 -1.4805
   12MOL0     H 1579   8.264   7.557   7.397 -1.9049 -0.1309  0.8396
   12MOL0     H 1580   8.396   7.458   7.232 -0.3226  0.3915  0.5394
   12MOL0     H 1581   8.451   7.325   7.329  1.2441 -0.5864 -3.1457
   12MOL0     H 1582   8.067   7.179   7.159  0.0316  0.2626  0.0575
   12MOL0     H 1583   8.622   7.461   7.824 -0.3289  0.8877  0.0148
   12MOL0     H 1584   8.727   7.263   7.950 -0.6142 -1.9145  0.9473
   13MOL0     O 1585   5.384   8.001   0.795 -0.3470  0.1291 -0.2386
   13MOL0     C 1586   5.430   8.118   0.827 -0.0401  0.5518  0.7356
   13MOL0     O 1587   5.363   8.237   0.793 -0.3095 -0.1846 -0.1026
   13MOL0     C 1588   5.240   8.222   0.730 -0.0844 -0.0148 -0.0571
   13MOL0     C 1589   5.223   8.191   0.596  0.9381  0.2172  0.0130
   13MOL0     C 1590   5.095   8.183   0.544  0.3245 -0.0316 -0.2299
   13MOL0     C 1591   4.981   8.180   0.633 -0.8091  0.7831  0.8236
   13MOL0     O 1592   4.858   8.165   0.592 -0.3487 -0.1197  0.1522
   13MOL0     C 1593   4.836   8.098   0.461 -0.0672 -0.0127 -0.3826
   13MOL0     C 1594   4.687   8.050   0.445 -0.0376 -1.1026 -0.3119
   13MOL0     C 1595   4.599   8.175   0.486 -0.4566 -0.1341  1.0166
   13MOL0     C 1596   4.593   8.286   0.376 -0.3040  0.9186 -0.5050
   13MOL0     C 1597   4.532   8.419   0.430  0.0388 -0.8795  0.8044
   13MOL0     C 1598   4.473   8.509   0.322  0.5248  0.8698  0.1732
   13MOL0     C 1599   4.563   8.558   0.212  0.2768 -0.6311 -0.1886
   13MOL0     C 1600   4.705   8.595   0.245  0.2020 -0.0239 -0.7146
   13MOL0     N 1601   4.802   8.596   0.133  1.0267 -0.1601  0.2806
   13MOL0     C 1602   4.760   8.635   0.006 -0.8315  1.1994  0.3391
   13MOL0     C 1603   4.882   8.653  -0.054 -0.2981  0.2202 -0.7382
   13MOL0     C 1604   4.931   8.712  -0.178  0.3917  0.1242  1.1561
   13MOL0     C 1605   4.908   8.866  -0.178 -0.1482  0.2371 -0.6796
   13MOL0     C 1606   4.975   8.943  -0.063  0.4929 -0.9816  0.1701
   13MOL0     C 1607   4.919   9.088  -0.052  0.0170 -0.1885  0.4215
   13MOL0     O 1608   4.777   9.078  -0.041  0.2090 -0.2492 -0.2066
   13MOL0     C 1609   4.718   9.061   0.083 -0.2314  0.8011  0.1813
   13MOL0     C 1610   4.776   9.089   0.207 -0.3612  0.8189  0.1469
   13MOL0     C 1611   4.713   9.035   0.322 -0.7379  0.0540 -1.0403
   13MOL0     C 1612   4.585   8.978   0.328  1.1196 -1.0553  0.3287
   13MOL0     C 1613   4.522   8.906   0.443  0.3044 -0.6877 -0.6441
   13MOL0     O 1614   4.400   8.853   0.432  0.2218  0.5668  0.1182
   13MOL0     C 1615   4.311   8.819   0.536  0.1991  0.1023 -0.7745
   13MOL0     C 1616   4.330   8.867   0.670  0.0233  0.0561 -0.2260
   13MOL0     C 1617   4.247   8.823   0.769  0.9068 -0.7525 -0.2730
   13MOL0     C 1618   4.151   8.716   0.755  0.2896 -0.0597  0.2915
   13MOL0     O 1619   4.068   8.658   0.857 -0.5687  0.0733 -0.3025
   13MOL0     C 1620   4.106   8.694   0.995  0.1866  0.1131 -0.0928
   13MOL0     C 1621   4.019   8.616   1.088 -0.0180 -0.4038 -0.5207
   13MOL0     C 1622   4.035   8.669   1.226  0.1378 -0.0692  0.1725
   13MOL0     C 1623   3.948   8.584   1.321 -0.9483  0.2062  0.3087
   13MOL0     C 1624   3.931   8.642   1.460  0.2270  0.7734  0.8779
   13MOL0     C 1625   3.849   8.562   1.560  0.1237  0.1046  0.0376
   13MOL0     C 1626   3.827   8.631   1.698  0.3491 -0.0567  0.5367
   13MOL0     C 1627   3.724   8.561   1.782 -0.6170  0.2323 -0.1638
   13MOL0    Cl 1628   3.752   8.629   1.942  0.5738 -0.3146  0.3691
   13MOL0     C 1629   4.138   8.664   0.623  1.2057 -0.5081 -0.3749
   13MOL0     C 1630   4.214   8.720   0.518 -0.0445  0.1645 -0.4475
   13MOL0     O 1631   4.594   8.908   0.543  0.0426  0.4023  0.2254
   13MOL0     C 1632   4.534   8.960   0.199 -0.1185  0.2709 -0.5073
   13MOL0     C 1633   4.597   8.997   0.080 -0.0581  0.0464 -0.5044
   13MOL0     N 1634   4.981   8.614   0.032  0.2175  0.0291  0.5985
   13MOL0     N 1635   4.932   8.575   0.149  0.4499  0.4540  0.3966
   13MOL0     C 1636   5.002   8.204   0.770 -0.4805 -0.5182 -0.9352
   13MOL0     C 1637   5.133   8.220   0.822  0.7100 -0.8743  0.3651
   13MOL0     C 1638   5.572   8.126   0.886  0.6822 -0.0356  0.2582
   13MOL0     C 1639   5.627   8.252   0.935 -1.0646  0.1312  0.0823
   13MOL0     C 1640   5.747   8.251   0.999  0.5500  0.0920 -0.0879
   13MOL0     C 1641   5.817   8.128   1.023  0.8913 -0.1625  0.7271
   13MOL0     O 1642   5.937   8.112   1.087  0.0497  0.3294  0.8984
   13MOL0     C 1643   5.937   8.067   1.224 -0.2137 -0.5416  0.0898
   13MOL0     C 1644   6.065   7.997   1.249 -0.5019  1.5045  0.6746
   13MOL0     C 1645   6.169   8.073   1.332  0.2927  0.7622  0.5468
   13MOL0     C 1646   6.245   7.992   1.443  0.2858  0.6351  0.5286
   13MOL0     C 1647   6.366   7.934   1.397 -0.1740 -0.5394 -0.5204
   13MOL0     C 1648   6.473   7.873   1.378  0.0139 -0.2062  0.4951
   13MOL0     C 1649   5.757   8.008   0.975 -0.1733  0.0636 -0.1228
   13MOL0     C 1650   5.638   8.007   0.899 -0.6288 -0.2994 -0.4225
   13MOL0     H 1651   5.305   8.171   0.528 -0.3421 -0.0681 -1.5111
   13MOL0     H 1652   5.083   8.171   0.436 -0.5476  0.5600 -0.2075
   13MOL0     H 1653   4.911   8.018   0.456 -1.2321 -1.2382  1.0520
   13MOL0     H 1654   4.865   8.153   0.370 -0.5265  1.4898  0.3388
   13MOL0     H 1655   4.674   7.959   0.505 -0.7824 -1.3116 -0.7894
   13MOL0     H 1656   4.653   8.035   0.343 -0.5615 -0.4428 -0.2409
   13MOL0     H 1657   4.640   8.216   0.579  4.5332  2.1092 -1.7942
   13MOL0     H 1658   4.496   8.141   0.503 -0.0246 -0.8601  2.3534
   13MOL0     H 1659   4.700   8.297   0.356 -0.0313 -1.3169 -0.4964
   13MOL0     H 1660   4.540   8.249   0.288  0.1957 -0.7183 -0.1451
   13MOL0     H 1661   4.618   8.472   0.472 -1.9556  2.5357  0.9649
   13MOL0     H 1662   4.469   8.396   0.516  0.0605 -2.5211  0.4163
   13MOL0     H 1663   4.417   8.592   0.366 -0.6608  0.6219 -0.8176
   13MOL0     H 1664   4.398   8.446   0.273 -0.9199  1.5257  1.4315
   13MOL0     H 1665   4.566   8.476   0.139  3.2517 -0.8189  0.0088
   13MOL0     H 1666   4.516   8.642   0.161 -1.9617  0.0037  2.6645
   13MOL0     H 1667   4.758   8.526   0.310  1.4605  1.3657 -0.1989
   13MOL0     H 1668   4.708   8.695   0.289  0.0184 -0.8759  1.3247
   13MOL0     H 1669   4.659   8.656  -0.027 -0.8801  0.2210 -0.1835
   13MOL0     H 1670   4.865   8.677  -0.257 -0.4502 -0.1604  1.9753
   13MOL0     H 1671   5.035   8.686  -0.200  0.3008  2.4301 -3.1662
   13MOL0     H 1672   4.799   8.875  -0.183 -0.0721  0.7165 -1.9416
   13MOL0     H 1673   4.947   8.912  -0.270  4.8227  1.7885  1.8342
   13MOL0     H 1674   4.956   8.884   0.027 -2.9016  0.7080  0.7210
   13MOL0     H 1675   5.077   8.944  -0.101 -0.0275  0.5464 -1.3358
   13MOL0     H 1676   4.937   9.144  -0.144 -0.0839 -1.0407 -0.1311
   13MOL0     H 1677   4.964   9.134   0.036  1.4719 -1.6666  0.4999
   13MOL0     H 1678   4.869   9.144   0.224 -0.5755  1.5707 -1.0456
   13MOL0     H 1679   4.756   9.039   0.422 -4.4644 -0.1003  0.7345
   13MOL0     H 1680   4.407   8.940   0.692  2.3284 -2.7653  1.7680
   13MOL0     H 1681   4.267   8.851   0.872 -2.7289  0.7010  0.2037
   13MOL0     H 1682   4.097   8.801   1.013  3.0204  0.9506 -2.7355
   13MOL0     H 1683   4.212   8.684   1.021 -0.2877  1.6166  2.8511
   13MOL0     H 1684   4.050   8.511   1.089 -1.0364 -0.7413  1.6057
   13MOL0     H 1685   3.914   8.627   1.061 -0.6137  0.1930  1.7653
   13MOL0     H 1686   3.999   8.771   1.243  0.0712 -0.1659  0.6527
   13MOL0     H 1687   4.141   8.660   1.250  0.6050 -0.1796 -1.8132
   13MOL0     H 1688   3.846   8.582   1.280 -2.4707  2.0121  3.5653
   13MOL0     H 1689   3.984   8.482   1.334  1.6312  1.2837  2.6784
   13MOL0     H 1690   3.893   8.744   1.448 -1.4106  0.3579  2.2142
   13MOL0     H 1691   4.029   8.644   1.510  0.0982 -0.1270  1.1860
   13MOL0     H 1692   3.901   8.467   1.577  3.3136  1.5719 -0.7610
   13MOL0     H 1693   3.750   8.538   1.521 -1.1676  0.1054  3.0400
   13MOL0     H 1694   3.919   8.633   1.756 -0.9278  2.4243  2.6671
   13MOL0     H 1695   3.791   8.733   1.678 -3.3720 -1.3653 -0.3589
   13MOL0     H 1696   3.743   8.454   1.779  1.0702  0.4318  1.5560
   13MOL0     H 1697   3.624   8.578   1.744  0.3572 -2.1283 -4.4051
   13MOL0     H 1698   4.071   8.579   0.609 -1.3323  1.3400 -0.1799
   13MOL0     H 1699   4.193   8.681   0.419 -1.5577  2.0183 -0.9071
   13MOL0     H 1700   4.441   8.908   0.178 -0.8106  3.0105 -5.7835
   13MOL0     H 1701   4.550   8.968  -0.013  0.2855 -0.2682 -0.5831
   13MOL0     H 1702   4.916   8.223   0.833  1.4250  0.1849  1.6344
   13MOL0     H 1703   5.163   8.232   0.925  1.8345 -0.5397  0.0173
   13MOL0     H 1704   5.567   8.343   0.923  0.5331  1.4574  1.5819
   13MOL0     H 1705   5.794   8.340   1.039  3.3927 -1.1441 -0.4519
   13MOL0     H 1706   5.858   7.992   1.227  2.9588 -4.1821  0.6634
   13MOL0     H 1707   5.928   8.143   1.302 -1.1195 -2.5949  2.1144
   13MOL0     H 1708   6.031   7.911   1.309 -0.3119  1.6230  0.9542
   13MOL0     H 1709   6.115   7.958   1.160  0.8774 -1.1604  2.4602
   13MOL0     H 1710   6.119   8.149   1.392 -1.2212  1.7594 -1.7944
   13MOL0     H 1711   6.237   8.135   1.273  2.3272 -2.8274 -1.2662
   13MOL0     H 1712   6.278   8.068   1.514  0.2446  0.3617  0.8375
   13MOL0     H 1713   6.179   7.922   1.493  0.0555 -1.2039 -2.1496
   13MOL0     H 1714   6.565   7.821   1.394  0.3150  0.3607  0.6485
   13MOL0     H 1715   5.815   7.920   1.000  0.0309  1.3185  4.9482
   13MOL0     H 1716   5.593   7.913   0.868 -1.1874 -0.3096  0.3886
   14MOL0     O 1717   8.232   0.649   2.359  0.5456 -0.2466  0.0831
   14MOL0     C 1718   8.346   0.619   2.315  0.1003  1.3196 -0.0204
   14MOL0     O 1719   8.413   0.675   2.209 -0.7960  0.2426 -0.0880
   14MOL0     C 1720   8.357   0.783   2.146  0.0298 -1.4631 -0.3858
   14MOL0     C 1721   8.326   0.911   2.223  0.0185  0.9834  0.5373
   14MOL0     C 1722   8.301   1.035   2.153  0.4452 -0.2296  0.2737
   14MOL0     C 1723   8.298   1.031   2.009 -0.3454  0.1354 -1.2170
   14MOL0     O 1724   8.281   1.151   1.949  0.4829  0.5305 -0.2330
   14MOL0     C 1725   8.262   1.164   1.804 -0.0757 -0.2339  0.5594
   14MOL0     C 1726   8.250   1.302   1.749 -0.4415 -0.2610 -0.7604
   14MOL0     C 1727   8.252   1.320   1.594 -0.1175  0.7238 -0.3292
   14MOL0     C 1728   8.141   1.245   1.525  0.3682 -0.6942 -0.7073
   14MOL0     C 1729   8.153   1.278   1.380 -0.2989  0.4539 -0.3759
   14MOL0     C 1730   8.041   1.229   1.290  0.7871  0.3447  0.2317
   14MOL0     C 1731   8.002   1.079   1.316 -0.4546 -0.3922 -0.5599
   14MOL0     C 1732   8.114   0.982   1.275 -0.9529 -0.1142  0.8010
   14MOL0     N 1733   8.077   0.843   1.255  0.5480  0.3504 -0.6161
   14MOL0     C 1734   8.100   0.728   1.330  0.2238 -0.4051  0.7601
   14MOL0     C 1735   8.051   0.624   1.254 -0.1820 -1.0376  0.3471
   14MOL0     C 1736   8.058   0.471   1.280 -0.6266  0.0247  0.2184
   14MOL0     C 1737   8.017   0.421   1.415  0.0992  0.8591  0.0071
   14MOL0     C 1738   8.096   0.480   1.533  0.2487  0.8042  1.2306
   14MOL0     C 1739   8.092   0.390   1.644  0.0194  0.1303 -0.1329
   14MOL0     O 1740   8.133   0.259   1.610  0.1058  0.4648  0.1501
   14MOL0     C 1741   8.131   0.168   1.711  0.1471 -1.0208 -0.2874
   14MOL0     C 1742   8.168   0.030   1.689  0.1239 -0.5508 -0.3524
   14MOL0     C 1743   8.170  -0.063   1.789  0.0747  0.4160  0.6190
   14MOL0     C 1744   8.126  -0.021   1.923 -0.1866  1.0783 -0.0615
   14MOL0     C 1745   8.131  -0.130   2.023  0.8579  0.4021 -0.3649
   14MOL0     O 1746   8.141  -0.255   1.972 -0.3154  0.6748  0.8688
   14MOL0     C 1747   8.119  -0.375   2.043 -1.0485 -0.1804  0.3691
   14MOL0     C 1748   8.023  -0.466   1.986  0.2121  0.2942 -1.7598
   14MOL0     C 1749   7.993  -0.587   2.052 -1.3014 -0.1501 -0.3698
   14MOL0     C 1750   8.050  -0.618   2.174  0.1365  0.2384 -0.3590
   14MOL0     O 1751   8.031  -0.740   2.227 -0.1756  0.5546 -1.3483
   14MOL0     C 1752   8.066  -0.850   2.134 -0.0315 -0.1441 -0.5357
   14MOL0     C 1753   8.101  -0.970   2.212  0.0061  1.5522  0.2264
   14MOL0     C 1754   8.122  -1.097   2.125 -0.6877 -0.1747 -0.4607
   14MOL0     C 1755   8.161  -1.214   2.212  0.4123 -0.9962 -0.1295
   14MOL0     C 1756   8.305  -1.222   2.251  0.4615 -0.6587 -0.4003
   14MOL0     C 1757   8.331  -1.337   2.353 -0.3749 -0.7354  0.4062
   14MOL0     C 1758   8.289  -1.480   2.309  0.1870  0.7044  0.2125
   14MOL0     C 1759   8.279  -1.571   2.433  0.0121 -0.6366 -0.2656
   14MOL0    Cl 1760   8.193  -1.729   2.401 -0.2091  0.2702  0.2696
   14MOL0     C 1761   8.146  -0.528   2.225  0.3785  0.9279 -0.7234
   14MOL0     C 1762   8.175  -0.406   2.168  0.3923 -0.4324  0.3494
   14MOL0     O 1763   8.100  -0.103   2.140  0.1408 -0.0021 -0.3512
   14MOL0     C 1764   8.084   0.106   1.944  1.5724 -0.3546 -0.0067
   14MOL0     C 1765   8.070   0.198   1.839 -0.3313  0.5347  0.4127
   14MOL0     N 1766   8.005   0.675   1.139  0.8772 -0.4371  0.7176
   14MOL0     N 1767   8.011   0.811   1.139  0.0119  0.6471 -0.4362
   14MOL0     C 1768   8.320   0.912   1.942  0.1684 -0.1063 -0.3906
   14MOL0     C 1769   8.344   0.792   2.005  0.3164 -0.2651  0.0687
   14MOL0     C 1770   8.427   0.510   2.374  0.8619  0.8866  0.4320
   14MOL0     C 1771   8.369   0.441   2.483 -0.6945 -0.0451 -0.2262
   14MOL0     C 1772   8.435   0.325   2.529 -0.1619  0.2374 -0.9781
   14MOL0     C 1773   8.562   0.283   2.479 -0.4590 -0.0166 -0.3746
   14MOL0     O 1774   8.619   0.161   2.505  1.1190 -0.6536 -0.1386
   14MOL0     C 1775   8.528   0.057   2.550  1.7201 -0.6222 -1.0747
   14MOL0     C 1776   8.612  -0.064   2.583  0.2136  0.3956 -0.3064
   14MOL0     C 1777   8.531  -0.186   2.636 -0.1819  0.7019  0.3813
   14MOL0     C 1778   8.468  -0.275   2.523  0.1095  0.0953 -0.9075
   14MOL0     C 1779   8.342  -0.219   2.473 -0.0976 -0.3812  0.0476
   14MOL0     C 1780   8.231  -0.183   2.441  0.5615 -0.1426  0.3964
   14MOL0     C 1781   8.616   0.362   2.378  0.3294  0.2817  0.0109
   14MOL0     C 1782   8.554   0.470   2.324  0.6354  0.2428 -0.1241
   14MOL0     H 1783   8.318   0.905   2.331  1.3121 -0.4068  0.5902
   14MOL0     H 1784   8.291   1.128   2.209 -0.6323 -0.4848  0.5356
   14MOL0     H 1785   8.179   1.106   1.762 -0.6981  2.1970 -1.9127
   14MOL0     H 1786   8.343   1.102   1.764  0.0684  0.5652 -0.4261
   14MOL0     H 1787   8.340   1.360   1.772  0.5994 -0.8299 -3.1173
   14MOL0     H 1788   8.166   1.359   1.790  1.6183  2.4363  0.0566
   14MOL0     H 1789   8.347   1.290   1.548 -0.6881 -1.5681 -0.1367
   14MOL0     H 1790   8.249   1.429   1.587  0.4556  0.8303  0.8600
   14MOL0     H 1791   8.154   1.141   1.556  1.1445 -0.3757  0.0873
   14MOL0     H 1792   8.047   1.289   1.558 -0.2777  2.6459 -5.8522
   14MOL0     H 1793   8.246   1.229   1.348  1.6671  1.3655  3.3296
   14MOL0     H 1794   8.164   1.387   1.380 -0.8494  0.5252 -1.3930
   14MOL0     H 1795   8.078   1.250   1.189  0.0854  1.5342  0.2119
   14MOL0     H 1796   7.961   1.297   1.319  1.2486  0.2803  1.7226
   14MOL0     H 1797   7.998   1.058   1.424  1.6441 -0.3989 -0.4329
   14MOL0     H 1798   7.906   1.054   1.271 -0.6348 -0.8824  0.0820
   14MOL0     H 1799   8.201   0.983   1.341 -2.0532  3.7577  2.4727
   14MOL0     H 1800   8.135   1.022   1.176  0.4746 -0.7863  0.8120
   14MOL0     H 1801   8.135   0.729   1.433 -0.1312  0.9080  0.8854
   14MOL0     H 1802   8.161   0.440   1.263  0.1627  1.0203  2.6651
   14MOL0     H 1803   7.991   0.418   1.212 -2.3349 -0.4639  2.1768
   14MOL0     H 1804   8.004   0.312   1.414 -0.5780  0.9408 -0.8888
   14MOL0     H 1805   7.920   0.469   1.429  0.2968  1.1992  0.2344
   14MOL0     H 1806   8.200   0.471   1.501 -0.4740 -0.6755 -0.8835
   14MOL0     H 1807   8.074   0.584   1.559 -0.0237  0.9106  0.5756
   14MOL0     H 1808   7.989   0.386   1.681  0.2900  0.5010  0.6658
   14MOL0     H 1809   8.158   0.433   1.720  1.2170 -0.8107 -0.6148
   14MOL0     H 1810   8.197   0.001   1.588 -2.9022  1.2936 -1.9133
   14MOL0     H 1811   8.197  -0.163   1.755 -3.5260 -0.0899 -1.2478
   14MOL0     H 1812   7.968  -0.454   1.893  0.0015 -3.7151 -2.3228
   14MOL0     H 1813   7.926  -0.657   2.002 -0.8180  0.8397 -2.5367
   14MOL0     H 1814   8.147  -0.821   2.067  0.4926  2.4977  1.0941
   14MOL0     H 1815   7.974  -0.869   2.079 -0.9531  0.4058  0.7356
   14MOL0     H 1816   8.020  -0.989   2.283 -0.4014  2.1438 -0.0696
   14MOL0     H 1817   8.198  -0.960   2.262  0.3641  0.3746 -0.2019
   14MOL0     H 1818   8.203  -1.083   2.052 -0.5598 -0.1056 -0.3066
   14MOL0     H 1819   8.027  -1.117   2.075  0.4697 -1.3163 -2.3503
   14MOL0     H 1820   8.098  -1.214   2.301 -0.2478 -0.7523 -0.5894
   14MOL0     H 1821   8.139  -1.307   2.158 -1.6985 -1.9374  2.1626
   14MOL0     H 1822   8.332  -1.133   2.309  0.2204 -0.4837 -0.5541
   14MOL0     H 1823   8.376  -1.233   2.169 -2.9268  0.5187 -3.7929
   14MOL0     H 1824   8.284  -1.303   2.446  0.6045 -1.2409  1.0945
   14MOL0     H 1825   8.439  -1.333   2.368 -0.6953  1.3827  2.7012
   14MOL0     H 1826   8.199  -1.487   2.247  0.2687 -1.2423  0.2357
   14MOL0     H 1827   8.373  -1.529   2.259 -0.1213  0.2241  0.1569
   14MOL0     H 1828   8.222  -1.522   2.513  2.2896  1.8000 -0.0187
   14MOL0     H 1829   8.379  -1.596   2.470  0.2515 -1.1324 -1.2182
   14MOL0     H 1830   8.194  -0.558   2.318  0.7590  0.8138 -0.9565
   14MOL0     H 1831   8.258  -0.347   2.207 -0.7769  1.2165  0.4673
   14MOL0     H 1832   8.059   0.146   2.042  5.7875  2.4345  0.1974
   14MOL0     H 1833   8.026   0.293   1.868 -3.0159 -0.3250 -0.5644
   14MOL0     H 1834   8.318   0.905   1.834  0.3243  1.8292 -0.5638
   14MOL0     H 1835   8.357   0.707   1.939 -0.6342 -1.9169  1.9057
   14MOL0     H 1836   8.275   0.479   2.520  1.5389  3.0591  2.8893
   14MOL0     H 1837   8.388   0.260   2.602  1.7666 -0.9280 -0.7090
   14MOL0     H 1838   8.448   0.033   2.479 -0.9386  1.5302  1.0103
   14MOL0     H 1839   8.483   0.084   2.645  1.4230 -0.1506 -1.3439
   14MOL0     H 1840   8.659  -0.102   2.492 -0.5594 -0.0734 -0.5233
   14MOL0     H 1841   8.683  -0.045   2.664  1.1946  0.4786 -1.1619
   14MOL0     H 1842   8.468  -0.156   2.720  0.2675 -2.6886  2.1344
   14MOL0     H 1843   8.605  -0.256   2.678  1.3458  0.1846 -2.8345
   14MOL0     H 1844   8.538  -0.272   2.439  4.6806  1.1570  2.5318
   14MOL0     H 1845   8.464  -0.374   2.570  0.7807  2.1682  4.2481
   14MOL0     H 1846   8.133  -0.149   2.415  1.9673  2.5219 -1.8135
   14MOL0     H 1847   8.709   0.334   2.329 -0.5901 -2.6172 -0.3156
   14MOL0     H 1848   8.602   0.506   2.233  1.6453 -1.1899 -0.1897
   15MOL0     O 1849   9.957   2.094   1.525  0.3013  0.1472 -0.3905
   15MOL0     C 1850   9.993   1.984   1.480  0.3507  0.5103 -0.0548
   15MOL0     O 1851   9.915   1.877   1.457  0.4410 -0.6397  0.0193
   15MOL0     C 1852   9.813   1.857   1.549 -0.9238  0.9327 -0.2203
   15MOL0     C 1853   9.686   1.894   1.526 -0.3085  1.5694 -0.3123
   15MOL0     C 1854   9.587   1.868   1.618  0.2640 -0.7037  1.0230
   15MOL0     C 1855   9.615   1.793   1.732  0.6054 -0.4536  1.0811
   15MOL0     O 1856   9.525   1.755   1.826 -0.3301  0.2407 -0.3098
   15MOL0     C 1857   9.385   1.783   1.815 -0.6771 -0.6403 -0.4702
   15MOL0     C 1858   9.307   1.737   1.936 -0.0007 -0.1398 -0.1555
   15MOL0     C 1859   9.170   1.688   1.895  0.7370  0.0177  1.2174
   15MOL0     C 1860   9.095   1.635   2.014  0.3934 -0.1363  0.4476
   15MOL0     C 1861   8.952   1.592   1.957  0.1562 -0.4830  0.0570
   15MOL0     C 1862   8.865   1.518   2.052  0.1575  0.2079 -0.3477
   15MOL0     C 1863   8.747   1.470   1.971 -0.3430 -0.3014 -0.6176
   15MOL0     C 1864   8.625   1.432   2.058 -0.1697  0.5160 -0.1442
   15MOL0     N 1865   8.657   1.320   2.155 -0.2698  0.6698 -0.4490
   15MOL0     C 1866   8.657   1.181   2.133  0.0851 -0.7474  0.4514
   15MOL0     C 1867   8.657   1.119   2.254  0.2218  0.6616 -0.7208
   15MOL0     C 1868   8.643   0.964   2.271 -0.1564 -0.2977 -0.7257
   15MOL0     C 1869   8.762   0.914   2.349 -0.9738  1.5343  0.3134
   15MOL0     C 1870   8.775   0.758   2.353 -0.7758 -0.5704  0.0222
   15MOL0     C 1871   8.909   0.714   2.392 -0.3522 -0.1019  0.4383
   15MOL0     O 1872   8.936   0.568   2.404  0.3473 -0.0170  0.1355
   15MOL0     C 1873   9.069   0.537   2.428 -0.3317  0.2407  0.5957
   15MOL0     C 1874   9.183   0.611   2.400 -0.0189  0.5489 -0.1693
   15MOL0     C 1875   9.314   0.556   2.427  0.4000 -0.3547  1.0518
   15MOL0     C 1876   9.334   0.432   2.493  0.1279  0.4410  1.3045
   15MOL0     C 1877   9.467   0.378   2.521 -0.3932 -0.0692 -0.7043
   15MOL0     O 1878   9.466   0.282   2.611 -0.3257  1.2753  0.7308
   15MOL0     C 1879   9.576   0.245   2.683 -0.2029 -0.5165 -0.5163
   15MOL0     C 1880   9.570   0.117   2.726 -0.7069  0.6539  0.5832
   15MOL0     C 1881   9.674   0.077   2.806 -0.0490  0.7984  0.1251
   15MOL0     C 1882   9.768   0.169   2.865  0.0863  0.0305 -0.3045
   15MOL0     O 1883   9.866   0.133   2.949 -0.4156 -0.5125 -0.8864
   15MOL0     C 1884   9.900  -0.007   2.955  0.0144  0.5831 -0.4208
   15MOL0     C 1885  10.041  -0.026   2.992 -0.5888  0.0714  0.1261
   15MOL0     C 1886  10.057  -0.005   3.137  0.2456 -0.2956 -0.8696
   15MOL0     C 1887  10.195  -0.023   3.191 -0.1366  0.2828 -0.0099
   15MOL0     C 1888  10.278   0.106   3.171 -0.7731  0.4489  0.1465
   15MOL0     C 1889  10.419   0.086   3.232 -1.1791  0.3875 -0.3864
   15MOL0     C 1890  10.505   0.221   3.222 -0.1864 -0.6683  0.4376
   15MOL0     C 1891  10.528   0.270   3.072  0.5969  0.1713 -0.4662
   15MOL0    Cl 1892  10.617   0.146   2.979  0.4159  0.0700 -0.1294
   15MOL0     C 1893   9.749   0.308   2.852 -0.2710  0.2436  0.0893
   15MOL0     C 1894   9.657   0.343   2.749 -0.1599  0.0027 -0.1058
   15MOL0     O 1895   9.566   0.447   2.489  0.6200 -0.1841 -0.6626
   15MOL0     C 1896   9.214   0.362   2.527 -0.0407 -0.1123  0.5608
   15MOL0     C 1897   9.089   0.412   2.491 -0.4405  0.1781  0.9176
   15MOL0     N 1898   8.636   1.215   2.348  0.2704 -0.6587 -0.3553
   15MOL0     N 1899   8.641   1.328   2.294  0.3299 -0.2702 -0.2127
   15MOL0     C 1900   9.750   1.779   1.771  0.2452  0.1550 -0.0605
   15MOL0     C 1901   9.851   1.805   1.675  0.9291  0.0518 -0.1593
   15MOL0     C 1902  10.124   1.979   1.415 -0.1093 -0.0078 -0.8637
   15MOL0     C 1903  10.160   1.861   1.346  0.1337 -0.0343  0.4065
   15MOL0     C 1904  10.290   1.849   1.289 -0.3230  0.1298 -0.9773
   15MOL0     C 1905  10.389   1.941   1.299 -0.4297 -0.4613 -0.4800
   15MOL0     O 1906  10.513   1.892   1.266 -0.3796  0.1532  0.8276
   15MOL0     C 1907  10.631   1.935   1.334  0.0928  0.2768  0.5686
   15MOL0     C 1908  10.651   1.854   1.470  0.1021  0.0228  0.5366
   15MOL0     C 1909  10.779   1.910   1.535  0.2451 -0.3899 -0.2251
   15MOL0     C 1910  10.826   1.823   1.654 -1.0641  0.4755  1.0766
   15MOL0     C 1911  10.893   1.701   1.610  0.0948 -0.8944  0.3506
   15MOL0     C 1912  10.912   1.585   1.572  1.0093 -0.1662  0.7508
   15MOL0     C 1913  10.348   2.072   1.355 -0.1734  0.8114  0.3581
   15MOL0     C 1914  10.221   2.086   1.414 -0.1820  0.6201 -0.1682
   15MOL0     H 1915   9.675   1.946   1.431  2.1876  1.4640 -0.7209
   15MOL0     H 1916   9.489   1.898   1.583  0.7351  1.7221  1.6118
   15MOL0     H 1917   9.341   1.727   1.732 -1.0893  0.1382 -0.7949
   15MOL0     H 1918   9.383   1.890   1.792  3.9130 -0.4124 -0.7123
   15MOL0     H 1919   9.289   1.816   2.010 -4.6812 -1.0845  0.0058
   15MOL0     H 1920   9.367   1.659   1.982 -0.5666 -1.3895 -1.4566
   15MOL0     H 1921   9.190   1.611   1.820  1.2627  2.2085 -1.0125
   15MOL0     H 1922   9.115   1.768   1.846 -2.1176 -0.6571  3.0712
   15MOL0     H 1923   9.148   1.548   2.053  0.8970 -0.0127  0.0456
   15MOL0     H 1924   9.058   1.708   2.087 -0.7073 -0.1253 -0.0889
   15MOL0     H 1925   8.963   1.526   1.871  0.7250 -1.5315  0.9086
   15MOL0     H 1926   8.916   1.688   1.920 -0.2159  0.0503  1.6994
   15MOL0     H 1927   8.851   1.585   2.137 -1.1340  0.5472 -0.8152
   15MOL0     H 1928   8.912   1.424   2.082 -0.1922  0.6960  1.9564
   15MOL0     H 1929   8.703   1.551   1.911  2.4465  0.5430 -1.7269
   15MOL0     H 1930   8.769   1.376   1.921 -1.6767 -1.2926  0.6021
   15MOL0     H 1931   8.537   1.409   1.996  0.1793  1.8961 -1.2072
   15MOL0     H 1932   8.593   1.520   2.115  1.8665  2.9943 -2.5734
   15MOL0     H 1933   8.657   1.137   2.034  3.2533 -3.2372  1.3934
   15MOL0     H 1934   8.653   0.912   2.175 -0.5475  3.6713 -3.1173
   15MOL0     H 1935   8.554   0.930   2.324 -1.7790 -0.2385 -3.2377
   15MOL0     H 1936   8.741   0.947   2.451 -1.9140  5.7736 -1.0292
   15MOL0     H 1937   8.858   0.955   2.316 -1.3226  0.3523 -2.4788
   15MOL0     H 1938   8.691   0.721   2.412 -1.9270 -0.8648 -1.7164
   15MOL0     H 1939   8.763   0.733   2.247 -1.2443 -0.6027  0.0803
   15MOL0     H 1940   8.927   0.764   2.487 -1.5291  1.1115  0.0488
   15MOL0     H 1941   8.985   0.747   2.321 -1.5702  1.4925 -0.1685
   15MOL0     H 1942   9.188   0.717   2.378  2.3353  0.6055  0.3929
   15MOL0     H 1943   9.400   0.619   2.411 -1.7567  3.5400  3.1593
   15MOL0     H 1944   9.497   0.040   2.703 -0.7027  1.5561 -2.9973
   15MOL0     H 1945   9.660  -0.026   2.839 -3.2853  1.6672  1.8882
   15MOL0     H 1946   9.879  -0.058   2.860  3.1233  0.3024 -1.0857
   15MOL0     H 1947   9.848  -0.071   3.026  2.0431 -3.3047 -2.1173
   15MOL0     H 1948  10.099   0.053   2.944 -0.8342 -0.2869 -0.7794
   15MOL0     H 1949  10.082  -0.124   2.968  0.3496 -0.1457  2.3975
   15MOL0     H 1950   9.997  -0.083   3.185 -0.0258 -0.1299 -0.9378
   15MOL0     H 1951  10.023   0.092   3.174  1.7779 -0.7277  1.9537
   15MOL0     H 1952  10.192  -0.045   3.298  0.4391  0.4270  0.0404
   15MOL0     H 1953  10.235  -0.112   3.141  0.8813  1.0863 -0.6597
   15MOL0     H 1954  10.220   0.188   3.215 -2.4415 -1.2919  1.2986
   15MOL0     H 1955  10.283   0.126   3.063 -0.7201  0.8079  0.2121
   15MOL0     H 1956  10.476   0.009   3.179  2.7734  0.6721  2.9815
   15MOL0     H 1957  10.405   0.063   3.338  0.0050  1.7364  0.1069
   15MOL0     H 1958  10.454   0.301   3.276 -1.2579 -2.1167  1.6451
   15MOL0     H 1959  10.598   0.202   3.276  1.3454 -0.0711 -1.8348
   15MOL0     H 1960  10.591   0.360   3.066  1.6164 -0.5372 -0.5231
   15MOL0     H 1961  10.432   0.279   3.020  0.0944  1.3416  0.6172
   15MOL0     H 1962   9.822   0.375   2.896  3.5516 -4.6579  2.1269
   15MOL0     H 1963   9.653   0.451   2.735 -4.0693  0.2190  1.4142
   15MOL0     H 1964   9.209   0.267   2.579 -3.3254  1.4166  3.5099
   15MOL0     H 1965   9.001   0.360   2.529  0.4713 -1.8249  0.4374
   15MOL0     H 1966   9.767   1.747   1.873 -3.9160  1.2870  1.1849
   15MOL0     H 1967   9.952   1.774   1.702  1.4153 -1.7001 -3.5433
   15MOL0     H 1968  10.097   1.772   1.348  0.3294 -0.2180 -0.7294
   15MOL0     H 1969  10.307   1.756   1.236  0.3282 -0.3586  0.0666
   15MOL0     H 1970  10.626   2.038   1.371  1.3040 -0.3222  2.5403
   15MOL0     H 1971  10.721   1.914   1.277  1.2618 -0.9504  2.7452
   15MOL0     H 1972  10.565   1.878   1.534  2.4559  0.5848  3.6952
   15MOL0     H 1973  10.670   1.749   1.446  0.5552  0.2429 -0.0966
   15MOL0     H 1974  10.773   2.012   1.575 -1.0929 -1.7157  3.3606
   15MOL0     H 1975  10.858   1.903   1.460  0.7173  0.7502  0.1374
   15MOL0     H 1976  10.887   1.870   1.731 -0.0231  0.4859  0.2776
   15MOL0     H 1977  10.735   1.790   1.705 -0.8838 -4.0282 -1.0064
   15MOL0     H 1978  10.931   1.485   1.538  3.1453  0.2005  0.7240
   15MOL0     H 1979  10.419   2.150   1.382  2.4103 -2.5700  4.5899
   15MOL0     H 1980  10.197   2.168   1.482 -2.0180 -0.0303  0.0058
   16MOL0     O 1981   4.591   3.611   1.033  0.4805 -0.3505 -0.0880
   16MOL0     C 1982   4.591   3.504   0.973  1.4484  0.0146  0.2662
   16MOL0     O 1983   4.619   3.377   1.036  0.7602 -0.0492 -0.2040
   16MOL0     C 1984   4.588   3.362   1.167 -1.1648 -0.4179  0.2227
   16MOL0     C 1985   4.450   3.364   1.207 -0.9297 -0.1857  0.1867
   16MOL0     C 1986   4.421   3.354   1.339  0.3092  0.1069 -0.1492
   16MOL0     C 1987   4.528   3.339   1.437 -0.7670 -0.5054 -0.1620
   16MOL0     O 1988   4.505   3.339   1.569 -0.1180  0.1122 -0.4317
   16MOL0     C 1989   4.580   3.233   1.639  0.9015 -0.6473 -0.4934
   16MOL0     C 1990   4.533   3.236   1.785  0.1918 -0.3102  0.3503
   16MOL0     C 1991   4.571   3.378   1.846 -0.2986 -0.4736  0.4392
   16MOL0     C 1992   4.561   3.386   2.000 -0.2339  0.3487 -0.1136
   16MOL0     C 1993   4.684   3.473   2.053  1.5112 -0.4095 -0.1367
   16MOL0     C 1994   4.815   3.392   2.063  0.6969  0.0943  0.5224
   16MOL0     C 1995   4.814   3.260   2.156  0.3952  0.2387 -0.6441
   16MOL0     C 1996   4.790   3.302   2.302  0.0766 -0.6223 -0.4370
   16MOL0     N 1997   4.808   3.189   2.392  0.0892 -0.4412 -0.0794
   16MOL0     C 1998   4.925   3.145   2.453  1.1582  0.3877 -0.6976
   16MOL0     C 1999   4.885   3.041   2.535  0.1532 -1.0028 -0.2107
   16MOL0     C 2000   4.976   2.955   2.621 -0.3991  0.2104 -1.3856
   16MOL0     C 2001   5.096   2.907   2.547  0.2946  0.2458 -0.7887
   16MOL0     C 2002   5.171   2.812   2.634  0.5212 -0.5600  1.1692
   16MOL0     C 2003   5.297   2.776   2.573 -0.6215  0.3336 -0.3335
   16MOL0     O 2004   5.385   2.884   2.556 -0.1707 -0.8555  0.0232
   16MOL0     C 2005   5.498   2.867   2.480  1.0590 -0.0262  0.0691
   16MOL0     C 2006   5.587   2.979   2.461 -0.5581  1.1036 -1.0025
   16MOL0     C 2007   5.709   2.961   2.389 -0.2189  0.1151  0.5963
   16MOL0     C 2008   5.746   2.834   2.343  0.8901 -0.0474  0.4628
   16MOL0     C 2009   5.885   2.812   2.298  0.7601 -0.4530  0.3941
   16MOL0     O 2010   5.909   2.704   2.225 -0.0074 -0.5934 -0.6349
   16MOL0     C 2011   6.023   2.709   2.152 -0.4221 -0.4080  0.7520
   16MOL0     C 2012   6.003   2.742   2.020 -0.3878 -0.4343  0.8542
   16MOL0     C 2013   6.111   2.749   1.933 -0.0171  0.1389  0.1267
   16MOL0     C 2014   6.237   2.710   1.974 -0.4378 -0.4618  1.0138
   16MOL0     O 2015   6.343   2.724   1.881 -0.5030 -0.3062 -0.5614
   16MOL0     C 2016   6.474   2.669   1.910 -0.3046  1.4004 -0.7286
   16MOL0     C 2017   6.554   2.774   1.991 -0.5178  0.2029  0.6418
   16MOL0     C 2018   6.599   2.901   1.912  0.0845 -0.5034  0.5597
   16MOL0     C 2019   6.741   2.948   1.954  0.2280 -0.2241 -0.8733
   16MOL0     C 2020   6.765   3.096   1.930 -0.1448  0.1044  0.4061
   16MOL0     C 2021   6.892   3.149   1.994  0.5618  0.8415  1.0839
   16MOL0     C 2022   6.910   3.086   2.135  0.2462  0.0921 -0.8798
   16MOL0     C 2023   6.976   3.199   2.219 -0.3237 -0.9888  0.1710
   16MOL0    Cl 2024   6.939   3.160   2.389 -0.2201 -0.4254 -0.1290
   16MOL0     C 2025   6.262   2.660   2.105  0.6682  0.1948 -0.6400
   16MOL0     C 2026   6.149   2.659   2.193 -0.0953 -0.5572  1.0708
   16MOL0     O 2027   5.965   2.903   2.313  0.4605  0.0980 -0.3970
   16MOL0     C 2028   5.647   2.726   2.352 -0.4719 -0.1596 -0.0997
   16MOL0     C 2029   5.531   2.739   2.430 -0.4255 -0.7219  0.1213
   16MOL0     N 2030   4.749   3.027   2.519 -0.6616  0.5283  0.0551
   16MOL0     N 2031   4.707   3.122   2.443  0.0372  0.0024  0.3170
   16MOL0     C 2032   4.663   3.339   1.388  0.2025  0.0203  1.0625
   16MOL0     C 2033   4.695   3.354   1.254 -0.0495  0.6742 -0.5545
   16MOL0     C 2034   4.586   3.508   0.831  0.1752 -0.6829  0.8898
   16MOL0     C 2035   4.597   3.384   0.757 -0.1716  0.0722 -0.4876
   16MOL0     C 2036   4.597   3.390   0.615 -0.4802  0.9063  0.0034
   16MOL0     C 2037   4.583   3.508   0.545 -0.3727 -0.3347  0.0668
   16MOL0     O 2038   4.601   3.501   0.408 -0.0442 -0.2031 -0.2125
   16MOL0     C 2039   4.476   3.495   0.343 -0.7416 -0.5802  0.0998
   16MOL0     C 2040   4.434   3.630   0.280 -0.5341 -0.2708  0.1975
   16MOL0     C 2041   4.524   3.696   0.177 -0.1153  0.1564 -0.2665
   16MOL0     C 2042   4.581   3.826   0.220  0.2043  0.4244  0.3965
   16MOL0     C 2043   4.634   3.895   0.093  0.0437 -0.3610 -0.1621
   16MOL0     C 2044   4.662   3.936  -0.016 -0.4990 -0.4679 -0.1576
   16MOL0     C 2045   4.570   3.627   0.611 -0.4269 -0.1365 -0.2356
   16MOL0     C 2046   4.567   3.622   0.756 -0.5966 -0.0194  0.8678
   16MOL0     H 2047   4.369   3.359   1.136 -0.5534 -2.0233 -0.1766
   16MOL0     H 2048   4.315   3.346   1.362  0.0016  1.7558 -0.8382
   16MOL0     H 2049   4.684   3.266   1.638  0.4278  1.1927  1.8147
   16MOL0     H 2050   4.568   3.132   1.599  2.0230 -1.5707  1.3820
   16MOL0     H 2051   4.584   3.148   1.826 -0.5577 -1.8015 -1.7125
   16MOL0     H 2052   4.428   3.211   1.806  0.5627 -3.0630 -0.6028
   16MOL0     H 2053   4.523   3.460   1.793  2.9799  0.1918 -1.7775
   16MOL0     H 2054   4.676   3.400   1.825 -0.5673  4.1073  2.7635
   16MOL0     H 2055   4.468   3.439   2.024 -0.9421 -0.5565 -0.7674
   16MOL0     H 2056   4.567   3.283   2.034  2.1283 -0.0742 -1.5806
   16MOL0     H 2057   4.645   3.494   2.153  2.7574 -0.8552  0.4636
   16MOL0     H 2058   4.704   3.558   1.988  5.5364  0.2024  1.6233
   16MOL0     H 2059   4.890   3.469   2.084 -0.9050  2.2310 -1.1731
   16MOL0     H 2060   4.847   3.351   1.967  5.2119  1.0048  1.4117
   16MOL0     H 2061   4.731   3.200   2.116  1.1333 -2.4446  1.4972
   16MOL0     H 2062   4.908   3.204   2.153  0.5080  0.3618  0.2893
   16MOL0     H 2063   4.688   3.341   2.308 -0.5857 -2.0787 -1.5998
   16MOL0     H 2064   4.863   3.383   2.318 -2.3912  1.2521  2.4043
   16MOL0     H 2065   5.030   3.172   2.440  1.7935 -1.2912  0.5986
   16MOL0     H 2066   4.906   2.873   2.639  0.5074 -0.3972 -0.5152
   16MOL0     H 2067   4.996   3.008   2.714 -3.8262  0.3595 -0.6134
   16MOL0     H 2068   5.156   2.989   2.506  1.4437  0.6818  1.5630
   16MOL0     H 2069   5.060   2.852   2.460  0.2361 -0.7836 -0.1349
   16MOL0     H 2070   5.188   2.848   2.736  1.0393  0.4158  0.7430
   16MOL0     H 2071   5.111   2.721   2.643 -0.6326  0.0630  0.1133
   16MOL0     H 2072   5.270   2.735   2.475  3.3637  0.3457 -1.6040
   16MOL0     H 2073   5.347   2.700   2.633 -2.3814  1.0425  2.1627
   16MOL0     H 2074   5.545   3.066   2.509  0.0691  1.0377 -0.3292
   16MOL0     H 2075   5.776   3.043   2.365 -2.3275  2.7495  3.0250
   16MOL0     H 2076   5.908   2.775   1.979  0.5174 -0.1720 -1.1399
   16MOL0     H 2077   6.114   2.776   1.828 -1.2966 -2.3658 -0.6303
   16MOL0     H 2078   6.526   2.633   1.820 -0.2348 -1.1924  0.2705
   16MOL0     H 2079   6.463   2.575   1.963 -2.9487  0.5866 -2.5196
   16MOL0     H 2080   6.648   2.724   2.016  0.3557  0.7694 -1.3153
   16MOL0     H 2081   6.501   2.807   2.081  1.0319  0.0427  1.6714
   16MOL0     H 2082   6.523   2.978   1.930 -0.2996 -0.6770 -0.2566
   16MOL0     H 2083   6.613   2.891   1.804  0.3309  1.5568  0.3641
   16MOL0     H 2084   6.731   2.921   2.059 -1.2206  1.2328 -0.5852
   16MOL0     H 2085   6.816   2.884   1.908 -0.4949 -1.7848  0.0221
   16MOL0     H 2086   6.682   3.148   1.977 -0.3446 -0.2733  0.4799
   16MOL0     H 2087   6.760   3.133   1.827 -2.0264 -1.3215 -0.0879
   16MOL0     H 2088   6.887   3.258   1.998  0.7116  0.8665  0.7047
   16MOL0     H 2089   6.978   3.124   1.930  2.3448 -1.5230  4.1407
   16MOL0     H 2090   6.815   3.055   2.180  0.6472 -1.9263 -1.3469
   16MOL0     H 2091   6.984   3.006   2.150  0.4484  0.6808  1.7524
   16MOL0     H 2092   6.936   3.299   2.201  0.0404 -0.6980  0.9373
   16MOL0     H 2093   7.083   3.178   2.208  0.1431  0.5522  1.4596
   16MOL0     H 2094   6.360   2.627   2.139  0.6312 -1.9403 -2.3694
   16MOL0     H 2095   6.158   2.618   2.293 -1.7999 -2.9179  0.3398
   16MOL0     H 2096   5.678   2.628   2.316  1.3262 -0.0662  1.0729
   16MOL0     H 2097   5.476   2.646   2.439  1.8001 -1.8958  5.7890
   16MOL0     H 2098   4.744   3.314   1.456 -0.0130 -0.3946  1.1725
   16MOL0     H 2099   4.799   3.347   1.225  0.2079 -1.0394  0.6137
   16MOL0     H 2100   4.597   3.290   0.811 -0.2242  0.3670  0.0258
   16MOL0     H 2101   4.618   3.295   0.567  0.2185  1.2041 -0.2969
   16MOL0     H 2102   4.394   3.460   0.407 -1.0852 -1.0329 -0.5693
   16MOL0     H 2103   4.463   3.414   0.271 -0.4453 -0.7006  0.1828
   16MOL0     H 2104   4.339   3.613   0.228  0.6186  1.0526 -2.5282
   16MOL0     H 2105   4.417   3.694   0.368  0.7988  0.6674 -0.1955
   16MOL0     H 2106   4.455   3.704   0.093  0.3811  1.5451 -0.5576
   16MOL0     H 2107   4.603   3.629   0.142  1.3219  0.3144  2.4400
   16MOL0     H 2108   4.513   3.882   0.284 -1.5521  1.8366 -2.4950
   16MOL0     H 2109   4.664   3.801   0.287 -1.0411  0.1308  1.8768
   16MOL0     H 2110   4.691   3.943  -0.119 -0.6525 -0.5087 -0.2039
   16MOL0     H 2111   4.570   3.721   0.557  3.3681  0.4926  0.6012
   16MOL0     H 2112   4.561   3.718   0.807 -0.9935 -0.2441  1.2546
   17MOL0     O 2113   5.127   4.003   8.511 -0.7354  0.0916 -0.2689
   17MOL0     C 2114   5.224   3.922   8.499 -0.6119 -0.0078  0.9207
   17MOL0     O 2115   5.273   3.868   8.381  0.6257  0.1678  0.0115
   17MOL0     C 2116   5.204   3.908   8.263  0.4320 -0.6110 -0.7502
   17MOL0     C 2117   5.091   3.835   8.244  0.4697  0.3615  1.4530
   17MOL0     C 2118   5.001   3.861   8.146 -0.3127  0.1021 -0.8782
   17MOL0     C 2119   5.041   3.969   8.058  0.4691  0.0047  0.0576
   17MOL0     O 2120   4.963   4.019   7.950 -1.1711  0.7467 -0.0840
   17MOL0     C 2121   4.828   3.980   7.962  0.3761  0.2539 -0.3429
   17MOL0     C 2122   4.734   4.053   7.868  0.1720 -0.9285  0.2944
   17MOL0     C 2123   4.592   3.981   7.848  0.4343 -0.1653 -0.5068
   17MOL0     C 2124   4.502   4.053   7.749  0.0101  0.3022 -0.3967
   17MOL0     C 2125   4.365   4.001   7.717  0.3995  0.3739  0.2121
   17MOL0     C 2126   4.251   4.103   7.741  0.5714  0.0049  0.0969
   17MOL0     C 2127   4.113   4.038   7.723 -0.9745  0.6140  0.1346
   17MOL0     C 2128   4.008   4.143   7.681  0.7705  0.2844  1.2564
   17MOL0     N 2129   3.978   4.229   7.795  0.0132 -0.0054 -0.9589
   17MOL0     C 2130   3.877   4.219   7.888 -0.6159  0.0968 -0.2180
   17MOL0     C 2131   3.909   4.319   7.969 -0.3235 -0.6808 -1.0334
   17MOL0     C 2132   3.832   4.345   8.096  0.2898 -0.3863 -0.0350
   17MOL0     C 2133   3.704   4.264   8.118 -0.3542  0.5875 -0.2303
   17MOL0     C 2134   3.625   4.319   8.233  0.4119 -0.6750  0.0077
   17MOL0     C 2135   3.475   4.270   8.241  1.7554 -0.1603  0.0019
   17MOL0     O 2136   3.448   4.129   8.247 -0.6231  0.1552  0.0931
   17MOL0     C 2137   3.511   4.055   8.356  0.2248 -0.0614  0.0972
   17MOL0     C 2138   3.518   4.106   8.488 -0.2561  1.2128 -0.7537
   17MOL0     C 2139   3.579   4.019   8.593  0.6549 -1.1257 -0.1549
   17MOL0     C 2140   3.609   3.889   8.560 -0.2136  0.3389 -1.3124
   17MOL0     C 2141   3.658   3.804   8.667 -0.4813 -0.9850 -0.7618
   17MOL0     O 2142   3.659   3.856   8.801 -0.4189  0.2141  0.5945
   17MOL0     C 2143   3.721   3.786   8.905  0.1565 -0.1380  0.8027
   17MOL0     C 2144   3.647   3.803   9.023 -0.1555  0.5913  0.3812
   17MOL0     C 2145   3.685   3.732   9.140  0.4413  0.1018  0.8107
   17MOL0     C 2146   3.803   3.662   9.128 -0.1419  0.3764 -0.5167
   17MOL0     O 2147   3.863   3.616   9.238  0.5064  0.8472 -0.7517
   17MOL0     C 2148   3.807   3.620   9.368  0.2199  0.3931  0.8118
   17MOL0     C 2149   3.917   3.575   9.470  0.3223 -0.2639 -0.7472
   17MOL0     C 2150   4.053   3.640   9.456  0.5224  0.7136 -0.3575
   17MOL0     C 2151   4.064   3.787   9.416  0.1727 -0.5602 -0.9986
   17MOL0     C 2152   4.214   3.827   9.422 -0.2114 -0.6325  0.8727
   17MOL0     C 2153   4.245   3.972   9.385  0.5748 -0.2490  0.6139
   17MOL0     C 2154   4.386   4.024   9.362  0.7255  0.8501 -0.2446
   17MOL0     C 2155   4.479   3.916   9.315 -0.2155 -0.8724  0.2924
   17MOL0    Cl 2156   4.652   3.981   9.326  0.0534  0.0453 -0.0289
   17MOL0     C 2157   3.875   3.637   9.014 -1.1450 -0.4527 -0.0111
   17MOL0     C 2158   3.837   3.705   8.899  0.1558 -0.7764 -0.5749
   17MOL0     O 2159   3.705   3.696   8.633  0.2205  0.1299 -0.1425
   17MOL0     C 2160   3.594   3.843   8.432 -0.2369 -0.1365 -0.8250
   17MOL0     C 2161   3.544   3.924   8.328 -0.1186 -1.2574  0.3866
   17MOL0     N 2162   4.004   4.402   7.918 -1.2458 -0.1705 -0.1898
   17MOL0     N 2163   4.035   4.351   7.809  0.4124 -0.6370 -0.1700
   17MOL0     C 2164   5.152   4.036   8.077  0.2020 -0.7529  0.5342
   17MOL0     C 2165   5.241   4.015   8.182 -0.0788  0.2042  0.6904
   17MOL0     C 2166   5.283   3.858   8.617 -1.0591 -0.2585 -0.1644
   17MOL0     C 2167   5.394   3.764   8.604  0.8168 -0.8786  0.0460
   17MOL0     C 2168   5.460   3.728   8.715 -0.3979 -0.3962 -0.5574
   17MOL0     C 2169   5.436   3.786   8.840  0.3443  0.7870 -0.0752
   17MOL0     O 2170   5.513   3.760   8.949 -0.0150 -0.2636 -0.2823
   17MOL0     C 2171   5.616   3.859   8.959  0.0703  0.6047 -0.5089
   17MOL0     C 2172   5.744   3.795   8.914 -0.1742 -1.0021 -0.2651
   17MOL0     C 2173   5.771   3.668   9.002 -0.2650  0.6867 -1.5011
   17MOL0     C 2174   5.775   3.699   9.159 -0.9151  0.9985 -0.1948
   17MOL0     C 2175   5.794   3.578   9.247 -0.1142  0.6518  0.3999
   17MOL0     C 2176   5.778   3.477   9.299  0.7971  0.5582 -0.1576
   17MOL0     C 2177   5.332   3.879   8.851 -0.6126  0.4524 -0.4324
   17MOL0     C 2178   5.254   3.918   8.743 -0.0866  0.6317 -0.3735
   17MOL0     H 2179   5.060   3.755   8.310  0.2337  0.2298  1.1854
   17MOL0     H 2180   4.905   3.815   8.122 -0.8322  1.6162 -1.8610
   17MOL0     H 2181   4.790   3.999   8.062  1.0972 -1.0146  0.1896
   17MOL0     H 2182   4.830   3.877   7.926 -0.5360  0.4871 -1.1132
   17MOL0     H 2183   4.782   4.054   7.769 -2.4000  0.8346 -1.0339
   17MOL0     H 2184   4.727   4.160   7.888 -1.0602 -0.4656 -2.2055
   17MOL0     H 2185   4.548   3.981   7.948 -4.3238  0.1860 -2.3276
   17MOL0     H 2186   4.602   3.877   7.816  2.0328  0.3028 -1.6752
   17MOL0     H 2187   4.487   4.160   7.766 -1.5914  0.2932 -1.4962
   17MOL0     H 2188   4.556   4.061   7.654 -0.7849  1.4770 -0.7756
   17MOL0     H 2189   4.339   3.910   7.772 -1.2640  0.8601  0.2699
   17MOL0     H 2190   4.354   3.968   7.613  0.9201  1.2940 -0.1449
   17MOL0     H 2191   4.255   4.176   7.659  0.8659  2.3162  2.0700
   17MOL0     H 2192   4.255   4.170   7.827  0.8103 -0.6247  0.5878
   17MOL0     H 2193   4.114   3.964   7.643 -1.5605  3.4506 -2.7053
   17MOL0     H 2194   4.091   3.997   7.822  0.6340 -3.4083 -0.9981
   17MOL0     H 2195   3.918   4.090   7.648  1.2377  0.5162 -0.4744
   17MOL0     H 2196   4.038   4.206   7.597 -3.8019  0.5593 -0.4333
   17MOL0     H 2197   3.805   4.138   7.895 -0.1648 -0.3700 -0.8599
   17MOL0     H 2198   3.808   4.452   8.104  5.4611  1.0419  0.2191
   17MOL0     H 2199   3.885   4.339   8.192  0.7451 -0.9325 -0.3105
   17MOL0     H 2200   3.732   4.159   8.131  2.4994  1.4355  1.3384
   17MOL0     H 2201   3.637   4.263   8.032 -1.3250  1.8915  0.4783
   17MOL0     H 2202   3.678   4.307   8.328 -0.8967  1.6617  1.1084
   17MOL0     H 2203   3.619   4.425   8.210 -0.0077 -0.6291  0.3122
   17MOL0     H 2204   3.429   4.298   8.146  1.0824 -2.8994 -0.5483
   17MOL0     H 2205   3.428   4.326   8.323  1.9711 -1.7596  1.2755
   17MOL0     H 2206   3.499   4.206   8.526  0.6829  0.1591  2.8362
   17MOL0     H 2207   3.586   4.054   8.695 -0.4849 -3.3824  0.7669
   17MOL0     H 2208   3.561   3.868   9.023 -0.3853  0.3438 -1.4478
   17MOL0     H 2209   3.633   3.749   9.234  4.5355 -0.7335  3.4639
   17MOL0     H 2210   3.720   3.556   9.383 -0.1330  0.3126 -1.2205
   17MOL0     H 2211   3.778   3.724   9.389  1.2510  1.3541 -2.0421
   17MOL0     H 2212   3.939   3.467   9.472  0.5883 -0.3148 -3.2955
   17MOL0     H 2213   3.873   3.586   9.570 -0.2711 -2.2600 -0.7262
   17MOL0     H 2214   4.097   3.591   9.369 -0.3671 -1.0999  0.1437
   17MOL0     H 2215   4.111   3.609   9.544  0.4170  0.4209 -0.3867
   17MOL0     H 2216   4.024   3.797   9.315  2.5741  0.1309 -1.9479
   17MOL0     H 2217   4.018   3.848   9.494 -2.5779 -1.1425 -2.0510
   17MOL0     H 2218   4.274   3.757   9.363  0.2149 -0.9217  1.6382
   17MOL0     H 2219   4.246   3.820   9.526 -0.0774 -3.6944  0.6986
   17MOL0     H 2220   4.205   4.039   9.462  0.4212  0.0133  0.3122
   17MOL0     H 2221   4.196   4.000   9.291 -0.9806 -2.7456  0.5888
   17MOL0     H 2222   4.392   4.107   9.292  2.3662  1.6965  0.8316
   17MOL0     H 2223   4.419   4.062   9.459  0.6358  0.3559 -0.0162
   17MOL0     H 2224   4.469   3.895   9.208  0.0346  1.1723 -0.1816
   17MOL0     H 2225   4.484   3.829   9.380  2.0603  1.1450  3.0856
   17MOL0     H 2226   3.973   3.590   9.018  1.9600  4.8587 -1.9344
   17MOL0     H 2227   3.885   3.696   8.802 -1.6230 -1.1268 -1.4709
   17MOL0     H 2228   3.624   3.745   8.395 -2.1154 -2.4270  3.0141
   17MOL0     H 2229   3.536   3.896   8.223 -1.9788  1.8109 -0.4150
   17MOL0     H 2230   5.183   4.117   8.012 -1.4260 -3.3020 -3.8433
   17MOL0     H 2231   5.322   4.085   8.201  0.0150  0.8466 -1.7849
   17MOL0     H 2232   5.403   3.708   8.512 -1.0815 -1.8920  0.4118
   17MOL0     H 2233   5.531   3.646   8.717 -1.0460 -0.9694 -0.7499
   17MOL0     H 2234   5.630   3.901   9.059  1.9428  0.1380 -0.5452
   17MOL0     H 2235   5.594   3.943   8.893 -0.9253  0.7019 -0.0697
   17MOL0     H 2236   5.747   3.759   8.811  3.1032  0.0590 -0.6424
   17MOL0     H 2237   5.826   3.867   8.912  0.1283 -1.3510 -0.5156
   17MOL0     H 2238   5.863   3.616   8.971  0.8688 -0.3257  2.8570
   17MOL0     H 2239   5.687   3.603   8.977  0.7391 -1.0264 -0.6608
   17MOL0     H 2240   5.859   3.770   9.162  0.2412 -0.0393 -3.3495
   17MOL0     H 2241   5.680   3.743   9.190 -1.7643 -0.2598 -0.9366
   17MOL0     H 2242   5.760   3.388   9.356 -0.5595  1.7254  1.3347
   17MOL0     H 2243   5.316   3.925   8.948  1.1771  1.0909 -0.4004
   17MOL0     H 2244   5.177   3.993   8.752 -0.7837 -0.0020 -0.9133
   18MOL0     O 2245   1.400   3.149   1.248 -0.3916  0.9938  0.0011
   18MOL0     C 2246   1.513   3.202   1.218  0.0905 -0.1304  0.2856
   18MOL0     O 2247   1.532   3.324   1.158 -0.2332 -0.2669 -0.3623
   18MOL0     C 2248   1.423   3.399   1.150 -0.3288 -0.8813 -0.1518
   18MOL0     C 2249   1.361   3.431   1.026  0.8046  1.3251 -0.0484
   18MOL0     C 2250   1.265   3.530   1.025  0.1862  0.1933  0.0264
   18MOL0     C 2251   1.225   3.591   1.141 -0.5418  0.7786 -0.6102
   18MOL0     O 2252   1.138   3.697   1.133  0.2252 -0.5640 -0.3512
   18MOL0     C 2253   1.190   3.821   1.173  0.9406 -0.4895  0.1339
   18MOL0     C 2254   1.156   3.944   1.099 -0.7306 -0.2469  1.1507
   18MOL0     C 2255   1.015   3.981   1.081  0.3939  0.2425 -0.6999
   18MOL0     C 2256   0.956   4.039   1.211  0.5776 -0.3035 -0.4909
   18MOL0     C 2257   0.811   4.052   1.191 -0.1179 -0.3584 -0.0122
   18MOL0     C 2258   0.753   4.100   1.325 -1.2036 -0.7607  0.1104
   18MOL0     C 2259   0.603   4.142   1.319 -0.9929  0.0781 -0.3428
   18MOL0     C 2260   0.526   4.122   1.457  0.4393  0.3655  0.5083
   18MOL0     N 2261   0.461   3.994   1.469 -0.1999 -0.1515  0.6163
   18MOL0     C 2262   0.336   3.972   1.429  0.3844 -0.2732  0.3682
   18MOL0     C 2263   0.318   3.841   1.466  0.0460 -0.0748 -0.3521
   18MOL0     C 2264   0.194   3.750   1.454  0.3126 -1.6153  0.3736
   18MOL0     C 2265   0.052   3.832   1.470 -0.5112 -0.7117  0.2899
   18MOL0     C 2266  -0.073   3.731   1.445 -0.4092 -0.2541  0.4043
   18MOL0     C 2267  -0.079   3.658   1.309  0.2217  0.1882 -0.1040
   18MOL0     O 2268  -0.209   3.607   1.297 -0.1904 -0.1489 -0.2820
   18MOL0     C 2269  -0.256   3.566   1.177 -0.1407  0.2736  0.0185
   18MOL0     C 2270  -0.391   3.552   1.181  0.8891 -0.4102  0.4620
   18MOL0     C 2271  -0.463   3.528   1.057  0.1054 -0.3759  0.1039
   18MOL0     C 2272  -0.395   3.497   0.939 -0.1263  0.5001  0.7124
   18MOL0     C 2273  -0.471   3.450   0.824  0.1150 -0.3495 -0.0294
   18MOL0     O 2274  -0.400   3.391   0.729  0.2481 -0.4013 -0.3449
   18MOL0     C 2275  -0.467   3.336   0.623 -0.5573  0.6989 -0.4516
   18MOL0     C 2276  -0.457   3.392   0.493  0.0123  0.5542 -0.3022
   18MOL0     C 2277  -0.531   3.326   0.385 -0.0266 -0.6081  0.0113
   18MOL0     C 2278  -0.610   3.209   0.404 -0.4706 -0.5149 -0.2606
   18MOL0     O 2279  -0.686   3.170   0.298 -0.7687 -0.3664 -0.1045
   18MOL0     C 2280  -0.800   3.093   0.330 -0.1484  0.8606 -0.0017
   18MOL0     C 2281  -0.856   3.056   0.193 -0.6546  0.3816  0.1728
   18MOL0     C 2282  -0.768   2.948   0.111 -0.0896 -0.5045 -0.0719
   18MOL0     C 2283  -0.749   2.821   0.186  0.1941  0.7725 -1.3860
   18MOL0     C 2284  -0.872   2.732   0.166  0.0355  0.4415 -0.3581
   18MOL0     C 2285  -0.860   2.606   0.242  0.6265 -0.5813  0.3751
   18MOL0     C 2286  -0.981   2.516   0.200 -0.0665  0.4608  0.0642
   18MOL0     C 2287  -0.968   2.385   0.279 -0.1176 -0.2924  1.1169
   18MOL0    Cl 2288  -0.827   2.284   0.252  0.5003  0.0001 -0.5150
   18MOL0     C 2289  -0.622   3.158   0.539 -0.4417 -0.4486 -0.1523
   18MOL0     C 2290  -0.542   3.218   0.645 -0.6719  0.5358 -0.7600
   18MOL0     O 2291  -0.595   3.453   0.821 -0.7916 -0.4069 -0.0718
   18MOL0     C 2292  -0.255   3.506   0.934 -0.6696 -0.9316  0.6733
   18MOL0     C 2293  -0.184   3.549   1.058 -0.2993 -0.5830  0.1575
   18MOL0     N 2294   0.436   3.786   1.525 -0.4579 -0.5847 -0.3311
   18MOL0     N 2295   0.518   3.881   1.511 -1.0584 -0.0355  0.0314
   18MOL0     C 2296   1.264   3.539   1.264 -0.0608  0.1047  0.3300
   18MOL0     C 2297   1.373   3.447   1.268 -0.7037  0.6994 -0.1936
   18MOL0     C 2298   1.626   3.120   1.228 -0.3717  0.6229 -0.2876
   18MOL0     C 2299   1.757   3.169   1.244 -0.3624 -0.5304 -0.4649
   18MOL0     C 2300   1.867   3.081   1.251  0.1755  0.4456  0.5507
   18MOL0     C 2301   1.859   2.948   1.215 -0.0494  0.0898  0.6486
   18MOL0     O 2302   1.977   2.869   1.213  0.8368 -0.0986  0.1703
   18MOL0     C 2303   1.971   2.731   1.177  0.7074 -0.2314 -0.2496
   18MOL0     C 2304   2.096   2.720   1.073  1.2793 -0.6531 -0.5955
   18MOL0     C 2305   2.160   2.584   1.093 -0.4210  0.1512 -0.3768
   18MOL0     C 2306   2.257   2.575   1.214  0.5000 -0.8428  0.1174
   18MOL0     C 2307   2.336   2.453   1.213  0.1999  1.0428  0.1596
   18MOL0     C 2308   2.391   2.354   1.195 -0.2015 -0.5048 -0.4262
   18MOL0     C 2309   1.729   2.894   1.191 -0.5064 -0.0053 -0.5286
   18MOL0     C 2310   1.618   2.982   1.198 -0.1667  0.8671 -0.7405
   18MOL0     H 2311   1.398   3.366   0.947 -0.8513 -2.0670  1.7239
   18MOL0     H 2312   1.212   3.558   0.934  1.4578  0.8824 -0.5292
   18MOL0     H 2313   1.299   3.822   1.175  1.3535  6.4820 -0.2428
   18MOL0     H 2314   1.169   3.827   1.280  3.4953  1.1264  0.6440
   18MOL0     H 2315   1.196   3.924   0.999  1.4247  2.6069  1.3110
   18MOL0     H 2316   1.209   4.036   1.127  0.6648 -0.4101 -0.7414
   18MOL0     H 2317   0.970   3.891   1.039  2.3255 -1.4831  0.7249
   18MOL0     H 2318   0.989   4.048   0.998 -0.9414 -0.4576 -0.8695
   18MOL0     H 2319   0.985   3.977   1.296  0.6916 -0.3828 -0.5875
   18MOL0     H 2320   0.997   4.138   1.229 -0.2592  0.3383 -1.9290
   18MOL0     H 2321   0.761   3.956   1.177  2.1226 -2.0291  2.4983
   18MOL0     H 2322   0.781   4.128   1.119  1.2516  0.5547  0.3383
   18MOL0     H 2323   0.809   4.177   1.379  0.4946 -2.8780  1.5170
   18MOL0     H 2324   0.756   4.009   1.385  0.6850  0.1410  1.4829
   18MOL0     H 2325   0.596   4.245   1.283  0.5213  1.2559  2.4125
   18MOL0     H 2326   0.547   4.087   1.243 -2.0871 -0.0274  0.5061
   18MOL0     H 2327   0.440   4.190   1.453 -0.1471 -0.4186 -1.5010
   18MOL0     H 2328   0.583   4.151   1.545 -0.1801 -1.4346  1.5464
   18MOL0     H 2329   0.260   4.042   1.397 -0.4208 -1.0540  0.5259
   18MOL0     H 2330   0.199   3.673   1.532  1.0097 -0.7168  1.2581
   18MOL0     H 2331   0.201   3.700   1.357  2.4944  2.8657 -2.0797
   18MOL0     H 2332   0.040   3.920   1.407 -2.6379 -1.5598 -0.5815
   18MOL0     H 2333   0.050   3.867   1.573  1.7194 -3.3345  1.3584
   18MOL0     H 2334  -0.070   3.646   1.513  2.1626  0.2267  1.0069
   18MOL0     H 2335  -0.160   3.792   1.471 -1.5454 -0.8515 -1.8218
   18MOL0     H 2336  -0.002   3.580   1.306  0.6532  0.4433  2.3811
   18MOL0     H 2337  -0.072   3.727   1.224  1.7329  0.5930  0.3241
   18MOL0     H 2338  -0.448   3.564   1.273 -0.3419 -2.4850  0.0396
   18MOL0     H 2339  -0.570   3.516   1.075  0.8033 -2.9947  3.3870
   18MOL0     H 2340  -0.414   3.487   0.462  0.7853  0.2749 -0.1020
   18MOL0     H 2341  -0.545   3.380   0.292  0.2280  2.9217  1.8828
   18MOL0     H 2342  -0.866   3.162   0.383  1.4948  1.0295  1.9543
   18MOL0     H 2343  -0.800   3.002   0.392 -0.7695 -0.4794 -1.8787
   18MOL0     H 2344  -0.863   3.144   0.129 -2.8396  0.5779  0.5921
   18MOL0     H 2345  -0.961   3.023   0.199 -0.0742 -1.8301 -0.6483
   18MOL0     H 2346  -0.673   2.997   0.087  0.2602 -0.9728  0.3295
   18MOL0     H 2347  -0.816   2.932   0.014 -0.9038  0.9883  0.0399
   18MOL0     H 2348  -0.668   2.759   0.146  1.6845  0.9849  1.0478
   18MOL0     H 2349  -0.735   2.829   0.295  1.8985  1.8487 -1.6417
   18MOL0     H 2350  -0.894   2.719   0.060  1.9650  0.9814 -0.8689
   18MOL0     H 2351  -0.958   2.780   0.214  0.7852 -1.4439  3.2359
   18MOL0     H 2352  -0.866   2.644   0.345 -2.3519  2.9705 -0.9059
   18MOL0     H 2353  -0.766   2.553   0.221  1.3669  1.1368 -0.8549
   18MOL0     H 2354  -1.076   2.567   0.221 -2.6925 -3.2206 -1.7255
   18MOL0     H 2355  -0.967   2.494   0.093  2.3922 -0.0606  0.4380
   18MOL0     H 2356  -1.050   2.321   0.246  0.0788 -0.6408  1.2998
   18MOL0     H 2357  -0.986   2.417   0.382 -3.0856  2.1395 -0.0251
   18MOL0     H 2358  -0.697   3.081   0.553 -3.2095  2.2663  1.1465
   18MOL0     H 2359  -0.542   3.181   0.746 -1.3267  1.2823 -0.4725
   18MOL0     H 2360  -0.206   3.488   0.839 -1.5502 -3.7829  0.6585
   18MOL0     H 2361  -0.075   3.554   1.062 -0.2836 -0.6416 -0.1339
   18MOL0     H 2362   1.231   3.601   1.347 -2.2743  1.1598 -1.2321
   18MOL0     H 2363   1.433   3.436   1.358  1.0793 -1.6317 -1.5553
   18MOL0     H 2364   1.771   3.273   1.270 -1.3756 -0.9500  2.0726
   18MOL0     H 2365   1.961   3.124   1.282 -0.0690  0.0423  1.9457
   18MOL0     H 2366   1.880   2.709   1.120 -0.7918 -0.5233  2.0882
   18MOL0     H 2367   1.972   2.673   1.270  1.3394 -0.2284 -0.2546
   18MOL0     H 2368   2.053   2.746   0.976 -1.6231  2.4505  1.2814
   18MOL0     H 2369   2.166   2.801   1.097  0.3751  0.6291 -2.0704
   18MOL0     H 2370   2.216   2.547   1.007  3.2263 -2.0223  2.6215
   18MOL0     H 2371   2.071   2.520   1.097 -1.9342  1.9308 -2.7952
   18MOL0     H 2372   2.323   2.662   1.220 -1.7681  0.8898  2.2078
   18MOL0     H 2373   2.208   2.580   1.312  4.4076 -3.2370  2.4583
   18MOL0     H 2374   2.436   2.261   1.164 -2.9563 -2.0243 -0.1952
   18MOL0     H 2375   1.701   2.791   1.171 -1.0106  0.2151 -0.9870
   18MOL0     H 2376   1.524   2.933   1.172  0.4787 -0.9525  0.1722
   19MOL0     O 2377   0.692   6.546   7.826  0.3905  0.1519 -0.1260
   19MOL0     C 2378   0.749   6.451   7.880 -0.1973 -0.1348 -0.4817
   19MOL0     O 2379   0.709   6.384   7.993  0.0114 -0.2091  0.4216
   19MOL0     C 2380   0.721   6.250   8.000 -0.9260  0.8149 -0.6163
   19MOL0     C 2381   0.729   6.194   8.128 -0.9622  0.2626  1.1063
   19MOL0     C 2382   0.727   6.059   8.148 -0.2391  0.3911 -0.2273
   19MOL0     C 2383   0.722   5.969   8.039  0.1554 -0.9634  0.1468
   19MOL0     O 2384   0.731   5.837   8.047 -0.6165 -1.0158 -0.5561
   19MOL0     C 2385   0.687   5.777   8.167  0.0720  0.3725 -0.6447
   19MOL0     C 2386   0.627   5.635   8.144  0.3705  0.2861  0.1873
   19MOL0     C 2387   0.734   5.541   8.102 -0.6921  0.7441  0.3077
   19MOL0     C 2388   0.678   5.402   8.073  0.2401 -0.8350  1.1706
   19MOL0     C 2389   0.790   5.298   8.039  1.2515 -0.8508 -0.6805
   19MOL0     C 2390   0.740   5.158   8.034  1.4782 -0.7228  1.0734
   19MOL0     C 2391   0.839   5.052   8.051  0.5565  0.6820 -1.1775
   19MOL0     C 2392   0.932   5.040   7.932  0.1696  0.1550  0.9791
   19MOL0     N 2393   1.056   5.113   7.918 -0.0190 -0.0608 -0.4674
   19MOL0     C 2394   1.112   5.181   8.022 -0.0773 -0.0672  0.8596
   19MOL0     C 2395   1.219   5.244   7.961  0.3414  0.2361 -0.3942
   19MOL0     C 2396   1.314   5.330   8.041  0.5838  0.2271 -0.8573
   19MOL0     C 2397   1.298   5.487   8.033 -0.0799  0.0876  0.7009
   19MOL0     C 2398   1.145   5.505   8.026  0.7865 -0.5906 -0.4213
   19MOL0     C 2399   1.098   5.645   8.047  0.1191 -1.1412 -0.5719
   19MOL0     O 2400   1.138   5.705   8.171  0.2730  0.8445 -0.0219
   19MOL0     C 2401   1.112   5.841   8.192 -0.3644 -0.2750  0.6474
   19MOL0     C 2402   1.135   5.885   8.323  0.3234  0.0587  0.4272
   19MOL0     C 2403   1.135   6.024   8.357 -0.2418 -0.2563  0.2424
   19MOL0     C 2404   1.105   6.123   8.262  0.5739  0.3230  0.0099
   19MOL0     C 2405   1.115   6.271   8.296 -0.1244 -0.2037  0.1615
   19MOL0     O 2406   1.168   6.290   8.417  0.1505 -0.3647 -0.3114
   19MOL0     C 2407   1.212   6.416   8.453 -0.0164 -0.6607 -0.0414
   19MOL0     C 2408   1.289   6.501   8.369 -0.1619 -1.0409  0.4145
   19MOL0     C 2409   1.328   6.633   8.409 -0.7639 -0.5579  0.7802
   19MOL0     C 2410   1.278   6.681   8.530 -0.1981  0.3512  0.8168
   19MOL0     O 2411   1.332   6.806   8.565 -0.3552 -0.7121 -0.1207
   19MOL0     C 2412   1.247   6.926   8.571 -0.7112  0.3543  0.1732
   19MOL0     C 2413   1.326   7.059   8.532 -0.0248 -0.3647  0.5429
   19MOL0     C 2414   1.223   7.178   8.565  0.4196 -0.2637  1.3195
   19MOL0     C 2415   1.313   7.302   8.585  0.2996 -0.4439  0.3396
   19MOL0     C 2416   1.220   7.415   8.631  0.1480 -0.0092 -0.0583
   19MOL0     C 2417   1.246   7.539   8.541  0.0137  0.1241 -1.0172
   19MOL0     C 2418   1.159   7.539   8.425 -0.1584 -0.6231  0.3833
   19MOL0     C 2419   1.161   7.670   8.346  0.4792  0.7642  0.2440
   19MOL0    Cl 2420   1.331   7.689   8.289  0.3293  0.5511  0.3302
   19MOL0     C 2421   1.210   6.597   8.612 -0.6253 -0.2571 -0.6132
   19MOL0     C 2422   1.180   6.469   8.578  0.1719  0.2441  0.8935
   19MOL0     O 2423   1.087   6.363   8.210  0.4978  0.1164 -1.3578
   19MOL0     C 2424   1.076   6.077   8.130 -0.0173  0.4392 -0.0184
   19MOL0     C 2425   1.075   5.940   8.091  0.1212  1.1284 -0.0634
   19MOL0     N 2426   1.212   5.225   7.824 -0.4545  0.0010 -0.3379
   19MOL0     N 2427   1.111   5.146   7.802 -0.0093  0.6625  0.4335
   19MOL0     C 2428   0.710   6.025   7.908 -0.2854  0.3391 -0.2565
   19MOL0     C 2429   0.712   6.159   7.889  0.1795  0.6512  0.4218
   19MOL0     C 2430   0.884   6.422   7.816  0.1998  0.0542 -0.2013
   19MOL0     C 2431   0.993   6.382   7.894 -0.2135 -0.5918  0.5685
   19MOL0     C 2432   1.120   6.366   7.833 -0.3935  0.4802 -0.5189
   19MOL0     C 2433   1.151   6.372   7.701 -0.4481  0.1880 -1.0648
   19MOL0     O 2434   1.270   6.342   7.646  0.0708  0.3882 -0.0458
   19MOL0     C 2435   1.357   6.260   7.721 -0.1678  0.9269  1.0350
   19MOL0     C 2436   1.305   6.108   7.723 -0.0303  0.2200  0.7286
   19MOL0     C 2437   1.366   6.027   7.611  0.4950 -0.3003  0.4321
   19MOL0     C 2438   1.337   6.089   7.463 -0.4460 -0.5635  0.3237
   19MOL0     C 2439   1.247   6.007   7.382  0.4058 -0.2832  0.0981
   19MOL0     C 2440   1.164   5.941   7.320 -0.1490 -0.7711  1.1270
   19MOL0     C 2441   1.042   6.419   7.629 -0.3526 -0.0241 -0.0822
   19MOL0     C 2442   0.912   6.432   7.678  0.4884 -0.7250  0.0472
   19MOL0     H 2443   0.736   6.269   8.207  2.2188 -0.4639  1.6642
   19MOL0     H 2444   0.741   6.015   8.246  2.1944 -2.6698 -1.7869
   19MOL0     H 2445   0.607   5.825   8.225 -0.7699 -2.9787  1.3117
   19MOL0     H 2446   0.770   5.771   8.239  0.2252  1.1334 -0.7520
   19MOL0     H 2447   0.545   5.641   8.070  0.8188 -0.4276 -0.3824
   19MOL0     H 2448   0.583   5.609   8.240  1.2179 -0.8206  0.2981
   19MOL0     H 2449   0.810   5.526   8.180 -0.6312 -1.7518 -0.1546
   19MOL0     H 2450   0.789   5.573   8.013  0.9222 -2.5453 -0.0315
   19MOL0     H 2451   0.612   5.376   8.157 -3.0277  2.7734  0.0453
   19MOL0     H 2452   0.613   5.413   7.986  2.2989  1.5484 -0.2021
   19MOL0     H 2453   0.859   5.304   8.123 -0.4235 -0.0792  0.6962
   19MOL0     H 2454   0.840   5.326   7.946  0.7408 -0.8560 -0.9607
   19MOL0     H 2455   0.690   5.144   7.938 -0.5324  1.4293  1.7063
   19MOL0     H 2456   0.676   5.150   8.123 -0.2438  0.3581 -0.0105
   19MOL0     H 2457   0.894   5.054   8.145  0.9328  0.7591 -1.3975
   19MOL0     H 2458   0.774   4.965   8.057  0.6616  0.6109 -1.0606
   19MOL0     H 2459   0.882   5.071   7.840 -0.7138  0.7690  1.6421
   19MOL0     H 2460   0.937   4.931   7.918 -3.1053 -0.5550  3.7945
   19MOL0     H 2461   1.082   5.179   8.126 -1.4839 -0.3924  0.4680
   19MOL0     H 2462   1.410   5.305   7.994  1.0462  1.3221 -0.5339
   19MOL0     H 2463   1.321   5.307   8.147 -0.9108  1.7605 -0.3951
   19MOL0     H 2464   1.349   5.518   7.941  0.7639  0.2128  1.2056
   19MOL0     H 2465   1.324   5.539   8.125 -2.0691 -1.6460  2.3480
   19MOL0     H 2466   1.118   5.464   7.928  3.4225 -1.6771 -0.7884
   19MOL0     H 2467   1.098   5.440   8.100  0.5877 -1.7077 -1.5001
   19MOL0     H 2468   0.989   5.654   8.046  0.1954  0.3264 -2.9597
   19MOL0     H 2469   1.145   5.708   7.971 -3.1107  0.5730 -1.3688
   19MOL0     H 2470   1.153   5.800   8.389 -0.7738 -1.0087 -0.5906
   19MOL0     H 2471   1.155   6.044   8.462 -0.8100  3.8727 -0.2614
   19MOL0     H 2472   1.320   6.469   8.270 -2.7221 -2.9435  0.1183
   19MOL0     H 2473   1.387   6.693   8.341  1.1983 -0.5504  2.4108
   19MOL0     H 2474   1.198   6.918   8.669  0.9476 -1.2913  0.9226
   19MOL0     H 2475   1.165   6.913   8.499 -0.3442  1.0341 -0.3826
   19MOL0     H 2476   1.353   7.060   8.427 -1.6717  1.5771  0.0601
   19MOL0     H 2477   1.419   7.077   8.588  1.6127  0.1873 -2.1994
   19MOL0     H 2478   1.172   7.142   8.654 -0.1782 -0.5679  0.8634
   19MOL0     H 2479   1.158   7.198   8.479  4.4133  0.5163 -1.8623
   19MOL0     H 2480   1.401   7.279   8.646 -1.4773 -1.4540  2.6865
   19MOL0     H 2481   1.349   7.326   8.485  1.1980  0.1710  0.8008
   19MOL0     H 2482   1.244   7.429   8.737  2.5844 -1.2002 -0.3660
   19MOL0     H 2483   1.115   7.386   8.635  0.4049 -0.8751  2.0185
   19MOL0     H 2484   1.348   7.535   8.501 -0.6592 -2.2248 -2.7310
   19MOL0     H 2485   1.236   7.628   8.603  5.8663  0.8889 -0.5681
   19MOL0     H 2486   1.188   7.456   8.360  0.5628 -1.7456  2.0715
   19MOL0     H 2487   1.056   7.519   8.456 -1.9060  0.5048 -3.9888
   19MOL0     H 2488   1.139   7.763   8.398  0.6951 -0.6070  2.9440
   19MOL0     H 2489   1.088   7.669   8.263 -0.2457  1.5761  0.8546
   19MOL0     H 2490   1.184   6.624   8.714 -2.8371  1.8923 -1.6701
   19MOL0     H 2491   1.117   6.405   8.640 -1.3714  0.7367 -0.0958
   19MOL0     H 2492   1.049   6.151   8.055  0.9628  2.4018  1.4628
   19MOL0     H 2493   1.037   5.916   7.992 -4.6575  2.0393  1.2965
   19MOL0     H 2494   0.696   5.959   7.822  0.6720 -1.5175  0.9421
   19MOL0     H 2495   0.693   6.193   7.788 -3.8985 -0.6263  0.5630
   19MOL0     H 2496   0.987   6.369   8.002  0.8334  0.2374  0.7454
   19MOL0     H 2497   1.192   6.354   7.913 -1.3641 -0.6500  0.2078
   19MOL0     H 2498   1.367   6.294   7.825  1.5028  2.8349  0.3123
   19MOL0     H 2499   1.459   6.259   7.680  0.2367  0.0810  1.9912
   19MOL0     H 2500   1.329   6.057   7.817  2.0686  1.1543  0.7402
   19MOL0     H 2501   1.196   6.098   7.719 -0.1459  1.4730 -3.5165
   19MOL0     H 2502   1.330   5.924   7.611 -0.2506 -0.0461  1.2316
   19MOL0     H 2503   1.471   6.031   7.643  0.7616  1.6211 -0.4768
   19MOL0     H 2504   1.311   6.195   7.472  1.5481  0.1926 -1.7884
   19MOL0     H 2505   1.427   6.084   7.401  0.0938 -1.0900  1.1274
   19MOL0     H 2506   1.085   5.886   7.274 -1.6815  0.4553  2.2042
   19MOL0     H 2507   1.065   6.427   7.523  0.6307 -0.3050  0.0957
   19MOL0     H 2508   0.837   6.465   7.607  0.1503 -3.7614 -1.1861
   20MOL0     O 2509   8.627   1.584   6.108 -0.4812  0.6890  0.2683
   20MOL0     C 2510   8.575   1.583   5.996 -0.1773  0.0884  0.2273
   20MOL0     O 2511   8.450   1.621   5.966 -1.0170 -0.9806  0.3583
   20MOL0     C 2512   8.364   1.673   6.063 -0.4679 -0.7701 -0.0996
   20MOL0     C 2513   8.422   1.765   6.163  0.0328 -0.4200 -0.7253
   20MOL0     C 2514   8.337   1.805   6.275 -0.0468  0.7593  0.1796
   20MOL0     C 2515   8.209   1.754   6.302  0.5560 -0.7038  0.0110
   20MOL0     O 2516   8.124   1.789   6.411 -0.4631 -1.0184 -0.0353
   20MOL0     C 2517   8.198   1.837   6.526 -1.1079 -0.9037  0.3116
   20MOL0     C 2518   8.116   1.853   6.657 -0.5705  0.6189 -0.5440
   20MOL0     C 2519   7.975   1.914   6.639  0.4210  0.6474 -0.8454
   20MOL0     C 2520   7.910   1.940   6.780 -1.1872  0.9211 -0.4087
   20MOL0     C 2521   7.781   2.019   6.757  0.4178  1.0060 -0.8196
   20MOL0     C 2522   7.668   1.935   6.700  0.2936  0.1475 -0.9605
   20MOL0     C 2523   7.552   2.023   6.660 -0.4155 -0.5778 -0.5248
   20MOL0     C 2524   7.453   2.052   6.773  0.1841 -0.1459  0.0398
   20MOL0     N 2525   7.349   2.146   6.749  0.4825 -1.0132  0.3935
   20MOL0     C 2526   7.219   2.123   6.773 -0.8472 -0.0043 -0.7715
   20MOL0     C 2527   7.153   2.232   6.730 -0.3163 -1.1373 -0.4735
   20MOL0     C 2528   7.003   2.275   6.730 -0.4618 -0.3065 -1.2174
   20MOL0     C 2529   6.946   2.366   6.835  0.2493  0.8163 -0.5208
   20MOL0     C 2530   6.977   2.325   6.980  0.1789  0.4874 -0.7917
   20MOL0     C 2531   6.887   2.213   7.033 -0.3924 -0.9490  0.9386
   20MOL0     O 2532   6.920   2.213   7.168  0.6737 -0.3363 -0.2431
   20MOL0     C 2533   6.835   2.154   7.252  0.1605  0.6094 -0.5412
   20MOL0     C 2534   6.707   2.185   7.269  0.2609 -0.3038 -0.3323
   20MOL0     C 2535   6.621   2.135   7.360  0.7325 -0.6209 -0.1368
   20MOL0     C 2536   6.667   2.017   7.432 -0.4101 -0.3766  0.3345
   20MOL0     C 2537   6.586   1.960   7.546 -0.3719  0.0688  0.1698
   20MOL0     O 2538   6.454   1.979   7.546  0.5601 -0.8063 -0.4225
   20MOL0     C 2539   6.386   1.963   7.668  0.4716  1.0311 -0.0654
   20MOL0     C 2540   6.317   2.075   7.710  0.4452  0.6592  0.4526
   20MOL0     C 2541   6.233   2.066   7.822 -0.1837  0.4828 -0.2537
   20MOL0     C 2542   6.216   1.946   7.884  1.3950 -0.1808 -1.0007
   20MOL0     O 2543   6.147   1.961   7.998 -0.0018 -0.2826  0.6063
   20MOL0     C 2544   6.045   1.863   8.017  0.4443  0.5980 -0.4924
   20MOL0     C 2545   6.057   1.818   8.165 -0.5386 -0.8528 -0.5023
   20MOL0     C 2546   5.960   1.705   8.208 -0.6267  0.8594  0.0642
   20MOL0     C 2547   5.811   1.757   8.243 -0.1764  0.5986 -0.7581
   20MOL0     C 2548   5.694   1.673   8.187  0.4627 -0.0068 -0.4554
   20MOL0     C 2549   5.712   1.522   8.228  0.5452 -1.1476 -0.0212
   20MOL0     C 2550   5.586   1.454   8.160  0.3867 -0.2629  0.1434
   20MOL0     C 2551   5.465   1.493   8.242  0.0473 -0.3559  0.1539
   20MOL0    Cl 2552   5.322   1.392   8.195 -0.3255 -0.7365 -0.1434
   20MOL0     C 2553   6.278   1.828   7.844 -0.2317  0.1242 -0.2851
   20MOL0     C 2554   6.367   1.839   7.738  0.3377  0.4311  0.2784
   20MOL0     O 2555   6.650   1.905   7.632  0.1158  0.1301  0.4722
   20MOL0     C 2556   6.804   1.982   7.408 -0.3182 -0.7410  0.2608
   20MOL0     C 2557   6.892   2.063   7.338  0.2021 -0.0381 -0.3507
   20MOL0     N 2558   7.249   2.319   6.666 -0.7294 -0.6970 -0.7493
   20MOL0     N 2559   7.366   2.266   6.683  0.3636 -0.0098 -0.0963
   20MOL0     C 2560   8.158   1.672   6.199 -0.2460  0.8021 -0.1278
   20MOL0     C 2561   8.232   1.634   6.081  0.5203 -0.0191 -0.4591
   20MOL0     C 2562   8.651   1.522   5.885 -0.3524  0.2086  0.6820
   20MOL0     C 2563   8.772   1.442   5.902 -0.7411 -0.1065 -0.3862
   20MOL0     C 2564   8.838   1.384   5.793  0.0254  0.2634 -0.4105
   20MOL0     C 2565   8.801   1.404   5.664 -0.6488 -0.2647  0.0254
   20MOL0     O 2566   8.873   1.362   5.554  0.1306 -0.5263 -0.5945
   20MOL0     C 2567   8.962   1.447   5.492  0.2814  0.5199 -0.0747
   20MOL0     C 2568   9.062   1.347   5.439  0.2544 -0.4908  0.2428
   20MOL0     C 2569   9.157   1.285   5.551 -0.6029  0.0876  0.7162
   20MOL0     C 2570   9.261   1.384   5.607 -0.2851  0.4351  0.3208
   20MOL0     C 2571   9.356   1.413   5.505 -0.3158 -0.8290 -1.2640
   20MOL0     C 2572   9.441   1.455   5.438 -0.3491  1.1734  0.5113
   20MOL0     C 2573   8.686   1.473   5.647  0.3974 -0.5357 -0.3469
   20MOL0     C 2574   8.608   1.536   5.744 -0.5322  0.8656 -0.4001
   20MOL0     H 2575   8.524   1.802   6.164 -0.0761 -0.1087  0.2729
   20MOL0     H 2576   8.381   1.879   6.341  0.7663  1.1625 -0.8000
   20MOL0     H 2577   8.232   1.935   6.490  0.9809 -1.5020  0.4893
   20MOL0     H 2578   8.286   1.775   6.544 -0.2252  0.7721  2.0623
   20MOL0     H 2579   8.178   1.909   6.727  2.7426 -2.7011 -0.4799
   20MOL0     H 2580   8.101   1.753   6.700  3.1564 -0.0084 -0.3770
   20MOL0     H 2581   7.904   1.842   6.596  1.7269 -2.1924  1.4479
   20MOL0     H 2582   7.979   2.006   6.579 -0.4988  0.1612 -1.6799
   20MOL0     H 2583   7.895   1.843   6.828  0.2039  1.0775  0.3867
   20MOL0     H 2584   7.985   1.992   6.840 -1.5480  0.2177  0.6844
   20MOL0     H 2585   7.805   2.114   6.709  0.1434  1.1951 -0.5873
   20MOL0     H 2586   7.756   2.056   6.857  1.4349 -2.0919  0.6919
   20MOL0     H 2587   7.630   1.854   6.763  0.8993 -2.1549 -3.3824
   20MOL0     H 2588   7.704   1.885   6.610 -2.3075 -1.5259 -1.1853
   20MOL0     H 2589   7.590   2.118   6.623 -0.0179  0.3638  2.1411
   20MOL0     H 2590   7.494   1.967   6.586 -0.4739 -1.9861  0.5503
   20MOL0     H 2591   7.508   2.098   6.855 -0.3489 -0.8029  0.7818
   20MOL0     H 2592   7.421   1.954   6.809 -0.0658 -1.4940 -3.4630
   20MOL0     H 2593   7.170   2.033   6.811 -1.8311  1.3374  1.3441
   20MOL0     H 2594   6.939   2.187   6.719 -0.1227 -0.5855 -0.9799
   20MOL0     H 2595   6.985   2.337   6.642 -2.5880  3.6362  1.6555
   20MOL0     H 2596   6.839   2.385   6.828 -0.1608 -1.3647 -0.9557
   20MOL0     H 2597   6.992   2.463   6.811 -0.4084  0.6285 -2.7981
   20MOL0     H 2598   7.081   2.299   7.001 -0.6757 -2.4429  0.2210
   20MOL0     H 2599   6.966   2.412   7.045  2.3725 -1.1902  2.0554
   20MOL0     H 2600   6.899   2.117   6.981 -2.6189 -0.6155 -0.3579
   20MOL0     H 2601   6.778   2.224   7.023 -0.3802 -0.7764  0.9966
   20MOL0     H 2602   6.685   2.273   7.210 -2.4684  1.8077  3.3931
   20MOL0     H 2603   6.527   2.187   7.374  2.0920  1.6209  1.4291
   20MOL0     H 2604   6.327   2.161   7.645  3.2432  0.8119  0.9560
   20MOL0     H 2605   6.180   2.152   7.861 -3.4101 -0.6618 -1.7167
   20MOL0     H 2606   6.051   1.778   7.948  3.2479 -0.4636  0.8843
   20MOL0     H 2607   5.949   1.912   7.998  0.3941 -0.0013 -1.9258
   20MOL0     H 2608   6.039   1.901   8.233 -2.7221 -0.4063 -1.5259
   20MOL0     H 2609   6.158   1.779   8.177  0.2248  1.5103  1.3985
   20MOL0     H 2610   5.992   1.638   8.288 -0.3466 -0.6809 -1.2791
   20MOL0     H 2611   5.958   1.651   8.113 -1.2637  3.7348 -1.6862
   20MOL0     H 2612   5.802   1.764   8.352  2.3213  0.5888 -0.4833
   20MOL0     H 2613   5.779   1.856   8.209 -3.7437  0.2751  1.1360
   20MOL0     H 2614   5.692   1.693   8.080  1.9598  0.7366 -0.3787
   20MOL0     H 2615   5.594   1.698   8.225 -0.2781  1.4510 -3.1364
   20MOL0     H 2616   5.729   1.516   8.336  0.6583  1.3585  0.1574
   20MOL0     H 2617   5.806   1.490   8.180  0.7880 -2.5018  1.2656
   20MOL0     H 2618   5.585   1.463   8.051  2.5078  0.1902  0.1176
   20MOL0     H 2619   5.600   1.345   8.165  4.9308 -0.0025 -1.8381
   20MOL0     H 2620   5.441   1.600   8.249 -0.7803 -0.6481  3.1430
   20MOL0     H 2621   5.490   1.458   8.343  0.8439 -3.1963 -0.9303
   20MOL0     H 2622   6.271   1.738   7.904  0.1564 -0.5639 -1.2549
   20MOL0     H 2623   6.416   1.747   7.706  0.5607 -0.5079  3.0500
   20MOL0     H 2624   6.843   1.896   7.462  1.6637 -0.4047 -0.5755
   20MOL0     H 2625   6.996   2.035   7.345 -0.1853 -1.1426  2.4268
   20MOL0     H 2626   8.063   1.622   6.215  0.6688 -0.5087  1.5616
   20MOL0     H 2627   8.179   1.560   6.022 -0.3107 -1.0571  1.4784
   20MOL0     H 2628   8.804   1.437   6.006  3.5695  0.0404 -1.4911
   20MOL0     H 2629   8.931   1.328   5.806  0.4759  0.1210 -3.5146
   20MOL0     H 2630   9.005   1.514   5.566 -3.6839  3.2545  0.0319
   20MOL0     H 2631   8.930   1.505   5.405  1.5816  3.6854  1.3948
   20MOL0     H 2632   9.013   1.265   5.386  4.1080 -2.0736 -1.2503
   20MOL0     H 2633   9.120   1.408   5.368 -0.0074 -1.6660 -1.0242
   20MOL0     H 2634   9.214   1.204   5.506 -1.0351  0.5974 -0.7933
   20MOL0     H 2635   9.095   1.233   5.625 -1.4350  1.1729  0.8126
   20MOL0     H 2636   9.214   1.480   5.632 -1.1928 -0.2591  1.4045
   20MOL0     H 2637   9.307   1.338   5.694 -2.0187  0.4031  1.2752
   20MOL0     H 2638   9.527   1.485   5.381 -0.1234  1.3828  0.9509
   20MOL0     H 2639   8.651   1.474   5.544 -0.8373 -2.2444  0.0011
   20MOL0     H 2640   8.525   1.601   5.720 -1.3232 -0.2193 -0.6592
   21MOL0     O 2641  11.339   1.591  10.417 -0.2982  0.0863 -0.2346
   21MOL0     C 2642  11.332   1.520  10.518 -0.1397 -0.7113  0.0606
   21MOL0     O 2643  11.227   1.483  10.586 -0.3453 -0.4428 -0.4549
   21MOL0     C 2644  11.110   1.513  10.522  0.1353 -0.2936  0.0992
   21MOL0     C 2645  11.073   1.425  10.417  0.7069 -0.2825  0.6851
   21MOL0     C 2646  10.946   1.446  10.371  0.8767  0.2539  1.3239
   21MOL0     C 2647  10.858   1.545  10.419 -0.0841 -0.5121  0.6853
   21MOL0     O 2648  10.727   1.550  10.373 -0.6859  0.3189  0.3610
   21MOL0     C 2649  10.703   1.641  10.261  0.7316  0.1690  0.0861
   21MOL0     C 2650  10.549   1.632  10.246  0.0721 -0.3074  0.1773
   21MOL0     C 2651  10.504   1.632  10.098  0.1886  0.7511  0.4272
   21MOL0     C 2652  10.549   1.754  10.014  0.5454  0.0522 -0.1011
   21MOL0     C 2653  10.569   1.716   9.862  0.7402 -0.7363 -0.2572
   21MOL0     C 2654  10.664   1.821   9.807 -0.2282 -0.2317 -0.2060
   21MOL0     C 2655  10.730   1.807   9.668  0.4301 -0.6968 -0.3033
   21MOL0     C 2656  10.805   1.936   9.619  0.4289  0.3285  0.8870
   21MOL0     N 2657  10.929   1.959   9.692  0.6086  0.0131  0.1680
   21MOL0     C 2658  11.038   1.887   9.677 -0.0296 -0.7291  0.6095
   21MOL0     C 2659  11.120   1.955   9.755 -0.6856  0.0472 -0.4211
   21MOL0     C 2660  11.262   1.893   9.776 -0.7413  0.6746 -1.1838
   21MOL0     C 2661  11.276   1.821   9.910  1.2687 -0.3346 -0.1326
   21MOL0     C 2662  11.426   1.803   9.956  0.2472 -0.2471  0.0200
   21MOL0     C 2663  11.444   1.720  10.089  0.3301  0.2031  0.0579
   21MOL0     O 2664  11.565   1.753  10.152 -0.5573  0.5326 -0.1497
   21MOL0     C 2665  11.686   1.688  10.127  0.9764  0.2522 -0.0421
   21MOL0     C 2666  11.797   1.735  10.183 -0.7567  0.1809 -0.5894
   21MOL0     C 2667  11.920   1.665  10.181 -1.6275  0.0774  0.4974
   21MOL0     C 2668  11.924   1.538  10.118  0.4586  0.3817  0.3301
   21MOL0     C 2669  12.031   1.452  10.139  0.1848  0.4814 -0.3428
   21MOL0     O 2670  12.140   1.496  10.213  0.3976 -0.3706 -0.1293
   21MOL0     C 2671  12.237   1.409  10.232  0.0676 -0.1307 -1.0562
   21MOL0     C 2672  12.265   1.368  10.366 -0.2604 -0.9268 -0.2246
   21MOL0     C 2673  12.373   1.281  10.384  1.0603  0.0801  0.5013
   21MOL0     C 2674  12.452   1.231  10.279 -0.2002 -0.7838 -0.8862
   21MOL0     O 2675  12.565   1.156  10.318  0.2506  0.1019  0.2538
   21MOL0     C 2676  12.685   1.160  10.241  0.1610  0.6055 -0.4906
   21MOL0     C 2677  12.786   1.244  10.317  0.8838  0.6718 -0.7612
   21MOL0     C 2678  12.726   1.370  10.379 -0.2289  0.4135 -0.5349
   21MOL0     C 2679  12.831   1.439  10.469  0.4079 -0.1961 -0.8898
   21MOL0     C 2680  12.798   1.580  10.508 -0.0779 -0.3179  0.4400
   21MOL0     C 2681  12.724   1.596  10.636 -0.1638 -0.4032  0.2789
   21MOL0     C 2682  12.664   1.741  10.658 -0.4281 -0.9313  0.3119
   21MOL0     C 2683  12.542   1.775  10.573  0.2855 -0.6916 -0.0231
   21MOL0    Cl 2684  12.427   1.657  10.621 -0.4820 -0.0560 -0.3514
   21MOL0     C 2685  12.418   1.264  10.147 -0.2961  0.5541  0.9640
   21MOL0     C 2686  12.312   1.353  10.126 -0.1384 -0.0154 -0.6687
   21MOL0     O 2687  12.016   1.332  10.106  0.1597  0.0714 -0.2116
   21MOL0     C 2688  11.817   1.505  10.033  0.1973 -0.1583  0.3881
   21MOL0     C 2689  11.695   1.575  10.045 -0.7000  0.4545  0.5111
   21MOL0     N 2690  11.073   2.056   9.824 -0.0212  0.0451 -0.0489
   21MOL0     N 2691  10.958   2.061   9.778 -1.1010 -0.6551  0.7436
   21MOL0     C 2692  10.906   1.630  10.514  1.0419 -0.5625 -0.4755
   21MOL0     C 2693  11.025   1.608  10.576  0.1346  0.2470  0.4124
   21MOL0     C 2694  11.464   1.461  10.575 -0.4207  0.1294  0.3311
   21MOL0     C 2695  11.469   1.365  10.672 -0.3120  0.5263  0.2888
   21MOL0     C 2696  11.585   1.289  10.705  1.0830 -0.3916 -0.8856
   21MOL0     C 2697  11.710   1.339  10.657 -0.8638  0.0055 -0.1571
   21MOL0     O 2698  11.825   1.287  10.712 -0.1080 -0.2112 -0.2889
   21MOL0     C 2699  11.919   1.374  10.769  0.2190  0.2960 -0.1498
   21MOL0     C 2700  12.021   1.316  10.853  0.5216  0.3946 -0.3322
   21MOL0     C 2701  12.155   1.300  10.787 -0.0147 -0.8281 -0.5392
   21MOL0     C 2702  12.246   1.404  10.858  0.9563 -0.6535 -0.2296
   21MOL0     C 2703  12.305   1.362  10.985 -0.3595  0.0014  0.0774
   21MOL0     C 2704  12.343   1.332  11.097 -0.1136 -0.0889 -0.4759
   21MOL0     C 2705  11.710   1.444  10.574 -0.5956 -0.1577  0.6350
   21MOL0     C 2706  11.591   1.501  10.524  0.1674  1.3282  0.5856
   21MOL0     H 2707  11.133   1.347  10.372  2.8679  0.7347  1.6416
   21MOL0     H 2708  10.907   1.389  10.288  1.9924  0.7619  0.4225
   21MOL0     H 2709  10.759   1.608  10.174  0.9483 -1.3237  0.7671
   21MOL0     H 2710  10.735   1.738  10.301 -1.1150  1.0859 -0.5273
   21MOL0     H 2711  10.498   1.712  10.300 -0.1239 -1.4474  1.7668
   21MOL0     H 2712  10.506   1.536  10.276 -2.2881 -0.0481 -2.0012
   21MOL0     H 2713  10.395   1.624  10.095 -0.0540  0.1349  4.5764
   21MOL0     H 2714  10.531   1.536  10.052 -5.0521 -0.6742 -0.3587
   21MOL0     H 2715  10.476   1.835  10.011 -1.5588 -1.7650 -1.4367
   21MOL0     H 2716  10.642   1.794  10.056 -3.0110  6.1790  3.2774
   21MOL0     H 2717  10.474   1.715   9.807  0.1506  1.8962  0.5723
   21MOL0     H 2718  10.635   1.631   9.842  3.6178  1.4819 -0.7096
   21MOL0     H 2719  10.749   1.831   9.874 -1.0858  1.1648  0.7202
   21MOL0     H 2720  10.604   1.912   9.796  1.0911  0.3539 -4.0679
   21MOL0     H 2721  10.796   1.723   9.689 -0.8635 -1.1222  2.5096
   21MOL0     H 2722  10.654   1.777   9.595 -2.0464 -0.5483  2.0511
   21MOL0     H 2723  10.747   2.028   9.615 -0.9070 -0.5224 -1.9541
   21MOL0     H 2724  10.832   1.911   9.516  0.8715 -0.2220  1.1253
   21MOL0     H 2725  11.060   1.789   9.635  2.3368 -0.8863  2.0535
   21MOL0     H 2726  11.327   1.981   9.778 -1.2888  1.1330 -2.3909
   21MOL0     H 2727  11.308   1.826   9.702  0.5468 -2.3039  2.0487
   21MOL0     H 2728  11.206   1.737   9.908 -0.7041  1.1609  1.6273
   21MOL0     H 2729  11.218   1.885   9.977 -2.2690  1.5470 -4.4490
   21MOL0     H 2730  11.468   1.741   9.876 -0.0607  0.5457 -0.7835
   21MOL0     H 2731  11.473   1.902   9.961 -0.4910  0.0450  1.4745
   21MOL0     H 2732  11.410   1.622  10.053 -1.1945  0.2332  1.2783
   21MOL0     H 2733  11.364   1.730  10.164 -0.4587 -4.9300  0.3237
   21MOL0     H 2734  11.781   1.821  10.248 -1.7739  0.0580 -0.6546
   21MOL0     H 2735  12.004   1.694  10.243  0.4724 -3.8425 -0.1481
   21MOL0     H 2736  12.208   1.416  10.445 -0.5813 -0.2799 -0.8385
   21MOL0     H 2737  12.415   1.271  10.484  1.9512  1.8816  0.3333
   21MOL0     H 2738  12.659   1.216  10.151  0.1001  5.1332  2.0005
   21MOL0     H 2739  12.726   1.062  10.215  1.4147  1.0005 -0.0935
   21MOL0     H 2740  12.872   1.270  10.254  1.1572  1.9189  0.0893
   21MOL0     H 2741  12.819   1.181  10.399 -1.5284 -0.4118 -0.5254
   21MOL0     H 2742  12.638   1.349  10.440 -1.7444  0.0669 -2.7219
   21MOL0     H 2743  12.700   1.436  10.296  0.8711  0.3777 -0.9344
   21MOL0     H 2744  12.838   1.379  10.560 -3.0954  1.9923  1.0515
   21MOL0     H 2745  12.927   1.435  10.416 -0.1527 -1.9364 -1.8640
   21MOL0     H 2746  12.732   1.619  10.429  1.0516  2.3962  0.7151
   21MOL0     H 2747  12.878   1.655  10.509 -0.7089  0.5932 -2.7764
   21MOL0     H 2748  12.792   1.577  10.719 -0.1683  0.9011  0.6053
   21MOL0     H 2749  12.649   1.518  10.623 -2.3452  1.7856 -1.2877
   21MOL0     H 2750  12.630   1.740  10.762  0.4585 -1.6249  0.6043
   21MOL0     H 2751  12.734   1.823  10.641 -1.8542  0.4644  0.8384
   21MOL0     H 2752  12.572   1.760  10.469  0.0752 -1.0849 -0.0274
   21MOL0     H 2753  12.501   1.874  10.596  0.6108 -0.5228 -0.1582
   21MOL0     H 2754  12.478   1.238  10.061 -1.5510 -0.6034  0.3865
   21MOL0     H 2755  12.291   1.386  10.025  2.1732  0.7031 -0.9584
   21MOL0     H 2756  11.809   1.415   9.973  1.2786  1.8306 -3.0204
   21MOL0     H 2757  11.609   1.536   9.993 -0.7321 -0.0900  0.9604
   21MOL0     H 2758  10.846   1.716  10.541  0.2570 -1.6572  1.4693
   21MOL0     H 2759  11.066   1.673  10.652  0.6481  1.1371 -0.5955
   21MOL0     H 2760  11.371   1.338  10.711 -0.8893  0.5439 -1.1095
   21MOL0     H 2761  11.604   1.207  10.774  1.8093  0.9813  0.5982
   21MOL0     H 2762  11.860   1.439  10.835  1.5443  0.4010  0.9847
   21MOL0     H 2763  11.958   1.450  10.701 -2.1042  2.4653  0.7704
   21MOL0     H 2764  12.030   1.377  10.942  0.7170 -0.0432 -0.0482
   21MOL0     H 2765  11.985   1.224  10.899 -1.4097  0.3301 -1.8497
   21MOL0     H 2766  12.157   1.317  10.678 -0.3524  0.8415 -0.3204
   21MOL0     H 2767  12.187   1.198  10.807 -0.9588 -1.0382 -0.0371
   21MOL0     H 2768  12.322   1.429  10.783  0.3515  1.5602 -0.1991
   21MOL0     H 2769  12.188   1.496  10.876 -0.5650 -1.7978  0.9876
   21MOL0     H 2770  12.384   1.317  11.195 -0.9557  0.3418 -0.0443
   21MOL0     H 2771  11.800   1.480  10.527 -0.6639  1.0637  1.3922
   21MOL0     H 2772  11.584   1.581  10.450  0.4779  0.6689 -0.1706
   22MOL0     O 2773   1.493   5.124   3.057 -0.2471  0.1802  0.0939
   22MOL0     C 2774   1.521   5.210   2.973  0.5746 -0.0247 -0.7278
   22MOL0     O 2775   1.467   5.340   2.958 -0.7880 -0.4839 -0.0801
   22MOL0     C 2776   1.413   5.411   3.059  1.2184 -0.5000 -1.4488
   22MOL0     C 2777   1.399   5.552   3.038  0.0959 -0.2171 -0.9079
   22MOL0     C 2778   1.346   5.630   3.134 -0.1137  0.9337  0.7395
   22MOL0     C 2779   1.312   5.587   3.256 -0.2315 -1.0768 -0.5214
   22MOL0     O 2780   1.277   5.686   3.339 -0.5108  0.7904  0.3109
   22MOL0     C 2781   1.202   5.636   3.453  0.7323 -0.3055  0.7061
   22MOL0     C 2782   1.128   5.745   3.512  0.2469 -0.2638 -0.5438
   22MOL0     C 2783   1.209   5.870   3.565 -0.7023 -0.4143  0.0738
   22MOL0     C 2784   1.128   5.957   3.664  0.6957 -0.0491  0.6409
   22MOL0     C 2785   1.001   6.013   3.593  0.1506  0.8114  0.4382
   22MOL0     C 2786   0.920   6.114   3.693  0.4529 -0.2044 -0.1378
   22MOL0     C 2787   0.987   6.245   3.685 -0.1814 -0.1802 -0.6095
   22MOL0     C 2788   0.892   6.351   3.742 -0.4256 -0.0325  0.7392
   22MOL0     N 2789   0.954   6.478   3.793 -1.0261  0.9544  0.9430
   22MOL0     C 2790   0.905   6.546   3.903  0.4881  1.1387  0.3396
   22MOL0     C 2791   0.957   6.665   3.899 -1.2828  0.6707 -0.5478
   22MOL0     C 2792   0.932   6.779   4.002 -0.2816 -0.4815  0.8044
   22MOL0     C 2793   1.041   6.767   4.109 -0.4169 -0.1232 -0.4020
   22MOL0     C 2794   1.036   6.867   4.226  0.3898 -0.4350 -0.2053
   22MOL0     C 2795   1.053   7.012   4.179  0.5777  0.3231 -0.0156
   22MOL0     O 2796   1.028   7.115   4.275 -0.3722 -1.2100 -0.0870
   22MOL0     C 2797   1.101   7.103   4.386 -0.4288 -0.0303 -0.3066
   22MOL0     C 2798   1.228   7.158   4.392 -0.5300  0.4974  0.2912
   22MOL0     C 2799   1.306   7.167   4.507 -0.0275 -0.4275  0.0693
   22MOL0     C 2800   1.267   7.097   4.620 -0.6281  0.1376  0.5789
   22MOL0     C 2801   1.362   7.081   4.741  0.2317 -0.0954 -0.8821
   22MOL0     O 2802   1.302   7.113   4.859 -0.3988  0.0689 -0.4228
   22MOL0     C 2803   1.384   7.105   4.970  0.5328 -0.0041  0.4721
   22MOL0     C 2804   1.483   7.199   5.002  0.2477  0.2567  0.1669
   22MOL0     C 2805   1.552   7.212   5.118 -0.2960  0.2216 -0.0934
   22MOL0     C 2806   1.527   7.123   5.224  0.2374  0.0346 -0.0115
   22MOL0     O 2807   1.611   7.127   5.333  0.4473  0.1991 -0.0448
   22MOL0     C 2808   1.591   7.046   5.445  0.3605  0.9961  0.0185
   22MOL0     C 2809   1.662   6.915   5.431  0.0261 -0.0453 -0.1523
   22MOL0     C 2810   1.716   6.851   5.567 -0.3853  0.4149 -0.0509
   22MOL0     C 2811   1.600   6.804   5.652  1.4644  0.2184  0.1264
   22MOL0     C 2812   1.645   6.784   5.798 -0.1718 -0.7900  0.6643
   22MOL0     C 2813   1.535   6.765   5.901 -1.1888 -0.3548  0.4740
   22MOL0     C 2814   1.576   6.733   6.043 -0.3493  0.5602 -0.4773
   22MOL0     C 2815   1.462   6.678   6.122 -0.4954 -0.6501 -0.3757
   22MOL0    Cl 2816   1.478   6.702   6.305  0.1397 -0.6013  0.1385
   22MOL0     C 2817   1.419   7.031   5.207 -0.2936 -0.2006  1.1932
   22MOL0     C 2818   1.349   7.022   5.072 -0.2768  0.0097 -0.2450
   22MOL0     O 2819   1.486   7.061   4.724 -0.1202  0.1436 -0.1437
   22MOL0     C 2820   1.141   7.035   4.620  0.5234  1.0113  0.8125
   22MOL0     C 2821   1.066   7.034   4.503  0.7717 -0.3915  0.5282
   22MOL0     N 2822   1.059   6.660   3.808  1.2141  0.1024  0.1169
   22MOL0     N 2823   1.052   6.546   3.737 -0.3012  0.3234  0.1347
   22MOL0     C 2824   1.313   5.450   3.284  0.1384  0.4746 -0.3674
   22MOL0     C 2825   1.378   5.362   3.192 -0.1210 -0.3463 -0.8621
   22MOL0     C 2826   1.611   5.158   2.867  0.0292 -0.6976  0.0869
   22MOL0     C 2827   1.595   5.208   2.744 -0.1612 -0.2731  0.9060
   22MOL0     C 2828   1.657   5.154   2.636  1.0446 -0.1510 -0.0486
   22MOL0     C 2829   1.761   5.058   2.648 -1.3309  0.0835 -1.0507
   22MOL0     O 2830   1.834   5.009   2.545 -1.4449  0.7102  0.3296
   22MOL0     C 2831   1.979   5.017   2.550  0.5495  0.1031 -0.4574
   22MOL0     C 2832   2.024   5.151   2.498 -1.1682 -0.2394  0.3978
   22MOL0     C 2833   1.972   5.166   2.346 -0.3440 -0.1416 -1.9015
   22MOL0     C 2834   2.019   5.284   2.279  0.1175 -1.0887  0.0349
   22MOL0     C 2835   1.971   5.394   2.347  1.1867 -0.2873  0.5572
   22MOL0     C 2836   1.935   5.500   2.394  0.2490 -0.1159 -0.0176
   22MOL0     C 2837   1.785   5.014   2.775 -0.9610  1.2108 -0.3884
   22MOL0     C 2838   1.712   5.063   2.882 -0.5513  0.5348 -0.2521
   22MOL0     H 2839   1.417   5.600   2.942  2.7063  0.6929 -0.0702
   22MOL0     H 2840   1.340   5.734   3.103 -2.3459  0.3151 -1.2383
   22MOL0     H 2841   1.266   5.585   3.526  1.5846 -2.1986 -1.2705
   22MOL0     H 2842   1.121   5.571   3.422 -1.9340  2.9869  0.2370
   22MOL0     H 2843   1.062   5.699   3.586 -1.4809  2.0071 -0.5945
   22MOL0     H 2844   1.061   5.786   3.436 -3.5190 -0.8072  2.2423
   22MOL0     H 2845   1.248   5.923   3.478 -0.2294 -2.8409 -1.2763
   22MOL0     H 2846   1.297   5.827   3.613 -0.0113 -2.1446 -2.5288
   22MOL0     H 2847   1.113   5.909   3.761  3.6538 -0.2069  1.1369
   22MOL0     H 2848   1.180   6.053   3.678 -0.2821  0.7858 -1.1152
   22MOL0     H 2849   0.937   5.929   3.565  0.6321  0.1858  1.1720
   22MOL0     H 2850   1.022   6.061   3.497 -0.0319  0.4720  0.2266
   22MOL0     H 2851   0.911   6.063   3.789 -0.9905 -1.7996 -1.0526
   22MOL0     H 2852   0.819   6.125   3.652 -1.1416 -4.9068  1.8490
   22MOL0     H 2853   1.071   6.234   3.754 -1.0999 -1.8122  0.3049
   22MOL0     H 2854   1.027   6.264   3.585  0.4404 -1.1706 -0.5610
   22MOL0     H 2855   0.841   6.307   3.829 -3.5451  3.7625  1.1181
   22MOL0     H 2856   0.827   6.363   3.655  2.9317  0.2210 -1.9086
   22MOL0     H 2857   0.836   6.517   3.981 -1.7431  0.5045 -1.7520
   22MOL0     H 2858   0.833   6.777   4.048  0.8530  3.0151  3.9454
   22MOL0     H 2859   0.940   6.876   3.952 -0.3167 -1.6628 -1.6263
   22MOL0     H 2860   1.135   6.769   4.053  0.7831  1.6968  1.5211
   22MOL0     H 2861   1.034   6.673   4.165  3.6091  1.0425  2.4845
   22MOL0     H 2862   0.944   6.868   4.285  0.9845 -1.9636  0.8024
   22MOL0     H 2863   1.118   6.838   4.292  0.2581  1.7743  1.0402
   22MOL0     H 2864   0.983   7.032   4.098  1.0207  1.7054 -0.0831
   22MOL0     H 2865   1.148   7.033   4.129  0.4782  0.2818 -0.2200
   22MOL0     H 2866   1.266   7.214   4.307  4.0266 -1.7740  0.5493
   22MOL0     H 2867   1.401   7.219   4.500 -0.6587  0.4828 -2.7020
   22MOL0     H 2868   1.533   7.265   4.932  1.0581  0.5751  1.0161
   22MOL0     H 2869   1.624   7.293   5.128  1.0502 -1.0335  0.5887
   22MOL0     H 2870   1.484   7.033   5.461 -0.1158 -0.6933 -3.5337
   22MOL0     H 2871   1.628   7.101   5.532 -2.2935  2.6779  0.1848
   22MOL0     H 2872   1.742   6.929   5.358  1.1538  1.2395  1.2407
   22MOL0     H 2873   1.590   6.848   5.383 -1.3387  0.7869  0.6537
   22MOL0     H 2874   1.777   6.920   5.627 -0.2379 -0.2420  0.5814
   22MOL0     H 2875   1.780   6.767   5.538  0.7701  2.2684 -3.3763
   22MOL0     H 2876   1.522   6.880   5.657  0.3263 -0.9496  0.9340
   22MOL0     H 2877   1.572   6.706   5.614  1.5224  0.2570 -0.0157
   22MOL0     H 2878   1.702   6.871   5.831  0.3879 -0.2196 -1.5918
   22MOL0     H 2879   1.695   6.687   5.790 -2.6849 -2.0291 -3.1613
   22MOL0     H 2880   1.475   6.679   5.873  1.3556 -1.9011 -0.5876
   22MOL0     H 2881   1.468   6.851   5.892 -1.7355 -0.7792  0.4403
   22MOL0     H 2882   1.651   6.654   6.053 -0.2386  0.9858  3.7637
   22MOL0     H 2883   1.621   6.814   6.101  1.2704 -1.5860  1.4670
   22MOL0     H 2884   1.458   6.573   6.092  4.2315 -1.0557 -0.3634
   22MOL0     H 2885   1.379   6.745   6.099 -0.4370 -0.3435  0.2788
   22MOL0     H 2886   1.391   6.961   5.285 -2.3109 -1.1477 -0.3068
   22MOL0     H 2887   1.273   6.952   5.043  0.0134 -1.2700  1.8468
   22MOL0     H 2888   1.102   6.975   4.701  2.4674 -0.1036  0.9659
   22MOL0     H 2889   0.977   6.973   4.506  0.5165 -0.0062  1.0741
   22MOL0     H 2890   1.289   5.417   3.385 -0.6026  1.6281 -0.1466
   22MOL0     H 2891   1.402   5.260   3.223 -0.1029 -0.2958 -0.7133
   22MOL0     H 2892   1.525   5.287   2.718  1.2236  0.3055 -1.3328
   22MOL0     H 2893   1.616   5.161   2.535 -1.3367 -0.5692  0.8248
   22MOL0     H 2894   2.017   4.932   2.493 -2.2786 -3.5567  2.5318
   22MOL0     H 2895   2.026   5.004   2.647  1.8338  0.4250 -1.0223
   22MOL0     H 2896   1.985   5.233   2.560  0.8028  2.5903 -1.8611
   22MOL0     H 2897   2.133   5.148   2.506 -1.0768  3.6355  3.9038
   22MOL0     H 2898   1.863   5.171   2.351 -0.2825  0.3576  0.3712
   22MOL0     H 2899   2.000   5.080   2.285 -2.0613 -0.0713 -2.8397
   22MOL0     H 2900   2.128   5.294   2.271  0.6635 -1.0853  4.6336
   22MOL0     H 2901   1.980   5.282   2.177 -0.9112 -0.0360  0.3980
   22MOL0     H 2902   1.892   5.587   2.439 -0.7310 -0.1035 -0.9523
   22MOL0     H 2903   1.860   4.942   2.805 -4.7471 -2.2672  1.6180
   22MOL0     H 2904   1.742   5.014   2.973 -0.5670 -1.0571 -1.0745
   23MOL0     O 2905   9.320   9.623   6.054 -0.5681 -0.6016  0.9278
   23MOL0     C 2906   9.398   9.607   6.150  0.3081  0.5508 -1.1432
   23MOL0     O 2907   9.526   9.588   6.157 -0.0997  0.0024 -0.1783
   23MOL0     C 2908   9.605   9.603   6.045 -0.2779 -0.4350  0.2412
   23MOL0     C 2909   9.710   9.697   6.039  0.1956 -0.2051 -0.4319
   23MOL0     C 2910   9.781   9.719   5.921 -0.6719  0.0386 -0.6365
   23MOL0     C 2911   9.752   9.635   5.809  0.4572  0.4864  0.6668
   23MOL0     O 2912   9.807   9.655   5.681 -0.0453 -0.0105 -0.2906
   23MOL0     C 2913   9.939   9.650   5.672 -0.2743  0.7241 -0.6176
   23MOL0     C 2914  10.001   9.673   5.532  0.1720 -0.5041  0.2347
   23MOL0     C 2915   9.931   9.589   5.435  0.1146  0.1460  0.3857
   23MOL0     C 2916  10.007   9.584   5.309  0.1162  0.3103 -0.0601
   23MOL0     C 2917   9.941   9.485   5.212  0.1049 -0.5197 -0.3723
   23MOL0     C 2918  10.029   9.480   5.088 -0.9661  0.0288  0.9695
   23MOL0     C 2919   9.985   9.373   4.985 -0.1445  0.1153 -0.1262
   23MOL0     C 2920  10.065   9.372   4.857  0.2709  0.6050  0.5266
   23MOL0     N 2921  10.040   9.248   4.779  0.6918 -0.2218 -1.0235
   23MOL0     C 2922   9.920   9.213   4.731  0.6025 -0.3167  0.0899
   23MOL0     C 2923   9.937   9.120   4.636 -0.4393  0.2853  0.2994
   23MOL0     C 2924   9.825   9.041   4.563  0.0781 -0.3793 -0.1348
   23MOL0     C 2925   9.803   9.072   4.412 -0.0369  0.5107  0.0772
   23MOL0     C 2926   9.789   9.229   4.378 -0.7822 -0.2134  0.8447
   23MOL0     C 2927   9.929   9.281   4.337 -0.3946 -0.5501 -0.3312
   23MOL0     O 2928   9.991   9.225   4.223  0.0617  1.2868  0.3551
   23MOL0     C 2929  10.133   9.214   4.225  0.8739 -0.2299 -0.1667
   23MOL0     C 2930  10.217   9.318   4.265 -0.1478  0.2864  0.2994
   23MOL0     C 2931  10.350   9.304   4.260  0.0711 -0.3347  0.3152
   23MOL0     C 2932  10.406   9.185   4.210  0.0494  0.3755 -0.3884
   23MOL0     C 2933  10.551   9.169   4.188  0.6404 -0.2738 -0.4202
   23MOL0     O 2934  10.622   9.242   4.274 -0.8284 -0.6440  0.2993
   23MOL0     C 2935  10.757   9.268   4.246 -0.1874 -0.5900  0.4104
   23MOL0     C 2936  10.783   9.339   4.127  0.1026  0.0415 -0.0381
   23MOL0     C 2937  10.909   9.347   4.065  0.1930  0.8802 -0.4104
   23MOL0     C 2938  11.014   9.284   4.124 -0.1968 -0.6627 -0.5841
   23MOL0     O 2939  11.129   9.294   4.054  0.4988  0.7833  0.4652
   23MOL0     C 2940  11.257   9.309   4.129  0.1739 -0.7560  0.8869
   23MOL0     C 2941  11.255   9.436   4.213 -0.0934  0.3872 -0.1071
   23MOL0     C 2942  11.395   9.472   4.277 -0.5890  0.0869 -0.5906
   23MOL0     C 2943  11.502   9.509   4.164 -0.1570 -0.3985 -0.0932
   23MOL0     C 2944  11.616   9.612   4.195  0.9424 -0.4230 -0.4404
   23MOL0     C 2945  11.726   9.545   4.287  0.3845 -0.0116  0.8799
   23MOL0     C 2946  11.842   9.644   4.315  0.6221 -0.0712 -0.8354
   23MOL0     C 2947  11.963   9.571   4.358  0.4439  0.0708  0.2324
   23MOL0    Cl 2948  11.921   9.477   4.499  0.1290  0.0686  0.0150
   23MOL0     C 2949  10.997   9.200   4.237  0.5787  0.0894 -0.0378
   23MOL0     C 2950  10.867   9.201   4.301 -0.0095 -0.9327 -0.5535
   23MOL0     O 2951  10.594   9.120   4.081 -0.4512  0.5252 -1.0129
   23MOL0     C 2952  10.328   9.076   4.164 -0.8026 -0.1708  0.2542
   23MOL0     C 2953  10.185   9.095   4.173  0.1724 -0.3828  0.3773
   23MOL0     N 2954  10.069   9.096   4.626 -0.0743  0.7624  0.7229
   23MOL0     N 2955  10.131   9.177   4.709 -0.9838  0.1259 -0.5271
   23MOL0     C 2956   9.654   9.531   5.822 -0.6735 -0.5822  0.5879
   23MOL0     C 2957   9.577   9.522   5.936 -0.2599  1.0277  0.5770
   23MOL0     C 2958   9.334   9.631   6.283 -0.6285 -0.1227  0.1046
   23MOL0     C 2959   9.403   9.628   6.403 -0.7732 -0.3434  0.0188
   23MOL0     C 2960   9.345   9.652   6.531  0.6404  0.8062  0.2489
   23MOL0     C 2961   9.206   9.675   6.531 -0.4463 -0.1965  0.6543
   23MOL0     O 2962   9.120   9.678   6.647 -0.2886  0.1172 -0.0257
   23MOL0     C 2963   9.167   9.657   6.777  0.3729 -0.1143 -0.1632
   23MOL0     C 2964   9.190   9.509   6.794 -0.0715  0.3737 -0.7503
   23MOL0     C 2965   9.208   9.466   6.938  0.3939  0.3349  0.4887
   23MOL0     C 2966   9.227   9.311   6.970 -0.7170  0.4120 -0.6445
   23MOL0     C 2967   9.358   9.271   6.918 -0.5718 -1.0106  0.5923
   23MOL0     C 2968   9.480   9.243   6.879  0.8258 -0.1635 -0.2296
   23MOL0     C 2969   9.139   9.687   6.413  0.1293  0.2441  0.0479
   23MOL0     C 2970   9.196   9.658   6.293  1.0552  0.2467 -0.2782
   23MOL0     H 2971   9.720   9.758   6.128  2.4848  0.4078 -1.0469
   23MOL0     H 2972   9.867   9.785   5.913 -1.8286  1.9686  1.6705
   23MOL0     H 2973   9.960   9.544   5.688  1.9239  0.8944 -1.8892
   23MOL0     H 2974   9.985   9.712   5.750 -1.4894 -0.3496  0.9975
   23MOL0     H 2975  10.107   9.649   5.540 -0.1199 -2.9951 -1.9063
   23MOL0     H 2976   9.992   9.781   5.517 -3.0230 -0.4315  1.8250
   23MOL0     H 2977   9.835   9.638   5.414 -1.0536 -1.5857  1.4302
   23MOL0     H 2978   9.920   9.488   5.475  1.4975 -0.5483 -0.9445
   23MOL0     H 2979  10.001   9.682   5.262 -0.0211  2.4517  3.9965
   23MOL0     H 2980  10.107   9.552   5.340 -0.7751 -1.2022  1.4131
   23MOL0     H 2981   9.840   9.526   5.200  0.0133 -1.0770 -1.5863
   23MOL0     H 2982   9.943   9.380   5.243 -0.8279 -0.5505 -0.3830
   23MOL0     H 2983  10.135   9.453   5.102 -0.4611 -2.7825 -5.0505
   23MOL0     H 2984  10.023   9.574   5.032  4.0118  0.7864  1.1894
   23MOL0     H 2985   9.993   9.274   5.032  0.7172  1.2981  2.3756
   23MOL0     H 2986   9.878   9.383   4.968 -0.1541 -3.3002 -3.5290
   23MOL0     H 2987  10.171   9.380   4.885 -0.4546  4.2044  2.8892
   23MOL0     H 2988  10.038   9.466   4.808 -1.8685 -0.0027  0.4460
   23MOL0     H 2989   9.818   9.243   4.752  0.2833 -0.5424 -1.0854
   23MOL0     H 2990   9.731   9.062   4.614  0.1966 -1.1249  0.4069
   23MOL0     H 2991   9.838   8.932   4.571 -0.0245 -0.4020 -0.2692
   23MOL0     H 2992   9.718   9.018   4.369  1.4727 -2.1465  0.2645
   23MOL0     H 2993   9.886   9.023   4.361  3.3860  3.8511  1.9319
   23MOL0     H 2994   9.722   9.235   4.292 -3.1303 -1.0649  2.5095
   23MOL0     H 2995   9.756   9.296   4.458  0.6820  0.8378  0.6113
   23MOL0     H 2996   9.992   9.271   4.426 -0.7043 -2.7105 -0.2996
   23MOL0     H 2997   9.923   9.389   4.318  2.0572 -0.6063 -1.7650
   23MOL0     H 2998  10.173   9.408   4.309 -2.9214 -0.2156 -1.2316
   23MOL0     H 2999  10.417   9.382   4.297  1.8085 -1.4295 -0.3892
   23MOL0     H 3000  10.696   9.385   4.082  1.0987  1.7073 -0.3351
   23MOL0     H 3001  10.926   9.391   3.968  1.6293  2.2118  0.4039
   23MOL0     H 3002  11.333   9.327   4.052 -0.1047  0.2740  0.8265
   23MOL0     H 3003  11.293   9.234   4.199  1.2285 -0.4484  0.6865
   23MOL0     H 3004  11.178   9.435   4.291  1.1526  1.8118  1.2178
   23MOL0     H 3005  11.224   9.518   4.147  1.0918  2.7270  2.0847
   23MOL0     H 3006  11.434   9.392   4.342 -2.3975  1.3127  2.1884
   23MOL0     H 3007  11.373   9.557   4.342 -1.4700  0.4703 -1.3810
   23MOL0     H 3008  11.558   9.419   4.139 -0.1409 -1.3363  2.8409
   23MOL0     H 3009  11.446   9.556   4.083  1.7481 -2.0014 -2.4437
   23MOL0     H 3010  11.571   9.698   4.244  0.6075 -1.5343  1.2608
   23MOL0     H 3011  11.661   9.633   4.097 -0.1312  0.2468 -0.8031
   23MOL0     H 3012  11.766   9.458   4.234 -1.6095  0.8185 -2.2967
   23MOL0     H 3013  11.674   9.519   4.380 -0.6656  2.1464  0.9539
   23MOL0     H 3014  11.868   9.695   4.222  5.6605 -1.3134 -0.3762
   23MOL0     H 3015  11.811   9.711   4.395  1.8822 -2.5351  1.8926
   23MOL0     H 3016  12.041   9.643   4.384  1.2562 -1.2657  1.6771
   23MOL0     H 3017  12.010   9.508   4.281 -1.5033  2.0269 -2.7540
   23MOL0     H 3018  11.083   9.144   4.273 -0.9894 -1.1619  1.9317
   23MOL0     H 3019  10.851   9.130   4.381 -0.3617 -2.5202 -1.9605
   23MOL0     H 3020  10.367   8.981   4.130 -2.3791 -0.7486 -0.0141
   23MOL0     H 3021  10.103   9.029   4.146 -3.2294  3.3031  0.6526
   23MOL0     H 3022   9.644   9.470   5.733  2.7990  0.2892 -0.5504
   23MOL0     H 3023   9.506   9.440   5.931 -0.3494  1.1772 -3.1873
   23MOL0     H 3024   9.510   9.608   6.398 -0.1671  0.9127  3.9762
   23MOL0     H 3025   9.401   9.650   6.625 -0.2205 -1.3794  0.7930
   23MOL0     H 3026   9.101   9.697   6.854  1.0322 -1.0040  0.8934
   23MOL0     H 3027   9.264   9.702   6.799  2.8562 -3.1569 -3.6737
   23MOL0     H 3028   9.096   9.467   6.758  0.9265 -0.5387 -2.4600
   23MOL0     H 3029   9.263   9.472   6.721 -0.6478 -1.9803 -0.2041
   23MOL0     H 3030   9.123   9.510   6.991 -2.5521  0.0991 -3.5401
   23MOL0     H 3031   9.299   9.518   6.970 -1.0156  4.8517 -2.0119
   23MOL0     H 3032   9.213   9.297   7.078 -4.3918 -0.3152 -1.0658
   23MOL0     H 3033   9.146   9.256   6.921 -0.5587  1.3371 -1.9849
   23MOL0     H 3034   9.583   9.225   6.856  2.0647  0.4090  3.9876
   23MOL0     H 3035   9.033   9.708   6.417 -0.3563 -1.3023 -2.3853
   23MOL0     H 3036   9.137   9.657   6.203  1.4461 -2.6141 -0.6110
   24MOL0     O 3037   0.132  11.352   5.226  0.3546  0.3425  1.0718
   24MOL0     C 3038   0.054  11.341   5.127  0.8390 -0.9787 -0.0300
   24MOL0     O 3039   0.011  11.446   5.049  0.2130 -0.0763  0.3121
   24MOL0     C 3040   0.064  11.570   5.056 -0.5480 -0.3791 -0.1110
   24MOL0     C 3041  -0.023  11.683   5.039 -1.0330 -0.7714 -0.0042
   24MOL0     C 3042   0.018  11.819   5.024 -0.3782 -0.9088 -0.0928
   24MOL0     C 3043   0.154  11.837   5.012 -0.6321  0.6010 -0.1920
   24MOL0     O 3044   0.183  11.967   4.983  0.6451 -0.4537 -0.2640
   24MOL0     C 3045   0.319  11.994   4.927  0.4567  0.5654 -1.1425
   24MOL0     C 3046   0.415  12.074   5.029 -1.0038 -0.5814 -0.3030
   24MOL0     C 3047   0.458  11.999   5.161 -0.5005  0.5131  1.0097
   24MOL0     C 3048   0.546  12.086   5.246 -0.0555 -0.6998  0.5308
   24MOL0     C 3049   0.661  12.010   5.317  0.3009 -0.3236 -0.8029
   24MOL0     C 3050   0.643  11.888   5.409 -0.1632 -0.7056 -1.0021
   24MOL0     C 3051   0.566  11.920   5.540 -0.4826  0.0540  0.5025
   24MOL0     C 3052   0.523  11.792   5.621  0.5742  1.0088  0.4253
   24MOL0     N 3053   0.412  11.710   5.564 -0.8809 -0.1503 -0.6016
   24MOL0     C 3054   0.287  11.756   5.523 -0.0787  0.6106 -0.1445
   24MOL0     C 3055   0.217  11.632   5.503 -1.0170 -1.2941 -0.3669
   24MOL0     C 3056   0.078  11.621   5.457  0.4055  0.5734  0.5001
   24MOL0     C 3057  -0.040  11.688   5.537 -0.1602  0.1219 -0.2766
   24MOL0     C 3058  -0.094  11.594   5.640  0.0725 -0.0489 -0.6146
   24MOL0     C 3059   0.006  11.544   5.747 -0.0792 -0.0257 -0.3549
   24MOL0     O 3060   0.008  11.650   5.844  0.2281  0.4773  0.1419
   24MOL0     C 3061   0.129  11.698   5.884 -0.7160  0.0248  0.2411
   24MOL0     C 3062   0.257  11.651   5.849  0.5806 -0.1982 -0.6970
   24MOL0     C 3063   0.365  11.690   5.924  1.3246 -0.0746  0.5544
   24MOL0     C 3064   0.353  11.792   6.023  0.7849  0.0803 -0.3242
   24MOL0     C 3065   0.466  11.836   6.097 -0.2364 -0.8661  0.0646
   24MOL0     O 3066   0.441  11.952   6.176  0.2545  0.3113 -0.5858
   24MOL0     C 3067   0.543  11.987   6.258  0.3938  0.1819 -0.0680
   24MOL0     C 3068   0.659  12.055   6.221 -1.0943 -0.7827 -0.9200
   24MOL0     C 3069   0.752  12.086   6.330  0.6991 -0.3528  0.5327
   24MOL0     C 3070   0.729  12.042   6.458  0.1486 -0.4992 -0.4342
   24MOL0     O 3071   0.809  12.070   6.564  0.1320  0.0910  0.4328
   24MOL0     C 3072   0.902  12.193   6.564  0.6601  1.0367  0.0668
   24MOL0     C 3073   0.987  12.181   6.685 -0.3239  0.1462 -0.4161
   24MOL0     C 3074   0.916  12.214   6.819 -1.0258 -0.4990  0.4820
   24MOL0     C 3075   1.012  12.212   6.937  0.0420 -0.5213  0.8192
   24MOL0     C 3076   0.959  12.317   7.030  0.2389  0.3393 -0.5329
   24MOL0     C 3077   1.022  12.309   7.175  0.0960 -0.6814 -0.3617
   24MOL0     C 3078   1.181  12.325   7.160 -0.1918 -0.9108 -0.4172
   24MOL0     C 3079   1.236  12.380   7.289 -0.9980 -0.0074 -0.1635
   24MOL0    Cl 3080   1.241  12.266   7.426 -0.4361  0.2389 -0.3866
   24MOL0     C 3081   0.616  11.973   6.491  1.0682 -0.0379  0.1356
   24MOL0     C 3082   0.518  11.946   6.393 -0.0060 -0.4908  0.0207
   24MOL0     O 3083   0.572  11.779   6.087  0.2157  0.7601 -0.5689
   24MOL0     C 3084   0.226  11.849   6.041  0.8916 -0.4468  0.2883
   24MOL0     C 3085   0.113  11.807   5.972 -0.4818 -0.0272 -0.4154
   24MOL0     N 3086   0.314  11.535   5.524  0.4566  1.3820 -0.3005
   24MOL0     N 3087   0.422  11.577   5.572 -0.7317  0.0602  0.5638
   24MOL0     C 3088   0.245  11.732   5.027 -0.7976 -1.1044  0.2962
   24MOL0     C 3089   0.198  11.602   5.053  0.3601  0.6138  0.9567
   24MOL0     C 3090  -0.008  11.212   5.095 -0.1576 -0.6115 -0.0631
   24MOL0     C 3091  -0.153  11.200   5.072 -0.3371 -0.4838 -0.2466
   24MOL0     C 3092  -0.196  11.067   5.035  0.0548 -0.3016  0.6280
   24MOL0     C 3093  -0.108  10.957   5.046  0.3025 -0.0117 -0.3621
   24MOL0     O 3094  -0.150  10.826   5.034 -0.0312 -0.4704  0.3738
   24MOL0     C 3095  -0.284  10.802   4.987 -0.9831  0.0293 -0.6080
   24MOL0     C 3096  -0.315  10.668   5.046  1.0217 -0.3332 -0.7756
   24MOL0     C 3097  -0.354  10.670   5.195  0.0822  0.6501  0.7248
   24MOL0     C 3098  -0.423  10.541   5.250  0.0931  0.4888 -0.3037
   24MOL0     C 3099  -0.320  10.434   5.259 -0.2827 -0.2908 -0.2626
   24MOL0     C 3100  -0.233  10.353   5.246 -0.1410  0.5154  0.0415
   24MOL0     C 3101   0.021  10.970   5.078 -0.8254  0.1973 -0.1787
   24MOL0     C 3102   0.076  11.097   5.096  0.0150  0.2436  0.6644
   24MOL0     H 3103  -0.130  11.670   5.030 -1.9108  1.8675  4.0789
   24MOL0     H 3104  -0.046  11.905   5.008 -1.0467 -1.7258 -2.1876
   24MOL0     H 3105   0.303  12.073   4.853  2.0948  1.6397 -0.3978
   24MOL0     H 3106   0.360  11.903   4.882  2.2735 -0.2598  1.8999
   24MOL0     H 3107   0.362  12.167   5.055  1.8784  1.4579 -1.2528
   24MOL0     H 3108   0.506  12.096   4.972 -0.5973  1.9193  1.1476
   24MOL0     H 3109   0.514  11.910   5.130 -1.5927 -0.3584  1.4609
   24MOL0     H 3110   0.379  11.951   5.219  1.4435 -1.3335  2.2698
   24MOL0     H 3111   0.591  12.168   5.190 -1.3503  0.8662  1.7032
   24MOL0     H 3112   0.481  12.135   5.319 -0.8838 -0.2194 -0.5044
   24MOL0     H 3113   0.714  12.090   5.370 -2.6050  0.8158  0.6427
   24MOL0     H 3114   0.741  11.983   5.248 -0.1292 -0.3505 -1.2946
   24MOL0     H 3115   0.741  11.848   5.437  1.2375  2.5914 -0.7988
   24MOL0     H 3116   0.601  11.827   5.329  1.7964 -0.9724 -1.8889
   24MOL0     H 3117   0.623  11.976   5.613 -1.8425 -1.6530  3.0391
   24MOL0     H 3118   0.473  11.976   5.528 -2.4250 -3.0007  0.2260
   24MOL0     H 3119   0.491  11.800   5.726 -2.5421 -3.3563  0.0641
   24MOL0     H 3120   0.605  11.722   5.637 -1.0051 -1.0565 -0.0826
   24MOL0     H 3121   0.247  11.857   5.525 -1.7433 -0.0272  1.1051
   24MOL0     H 3122   0.053  11.515   5.442  1.6206  0.2625  0.5853
   24MOL0     H 3123   0.082  11.670   5.359  2.1221 -1.4705 -0.5628
   24MOL0     H 3124  -0.122  11.708   5.467 -1.9972 -3.3351  0.6669
   24MOL0     H 3125  -0.006  11.781   5.583  0.5310 -0.8431  1.2451
   24MOL0     H 3126  -0.184  11.635   5.687  0.1125  0.8175 -1.2520
   24MOL0     H 3127  -0.136  11.504   5.595 -0.5998  0.5926 -1.3012
   24MOL0     H 3128   0.106  11.530   5.705  2.0068  1.2327  3.6308
   24MOL0     H 3129  -0.020  11.446   5.788  2.7284 -0.0168  1.7671
   24MOL0     H 3130   0.275  11.565   5.786 -1.2240 -1.7622  0.7946
   24MOL0     H 3131   0.463  11.649   5.902  1.2387  0.4944 -1.0269
   24MOL0     H 3132   0.667  12.079   6.116 -2.9108  0.4260 -0.8209
   24MOL0     H 3133   0.848  12.135   6.318  0.8023 -0.3744  1.2004
   24MOL0     H 3134   0.844  12.286   6.559 -1.5589 -0.0463  2.9555
   24MOL0     H 3135   0.968  12.191   6.477  0.1749  2.1305 -0.3524
   24MOL0     H 3136   1.078  12.242   6.681 -0.7871  0.8541 -0.2988
   24MOL0     H 3137   1.015  12.077   6.701 -2.8732 -0.2572  2.3221
   24MOL0     H 3138   0.835  12.143   6.835 -1.7275  1.0039  5.2243
   24MOL0     H 3139   0.885  12.317   6.796  4.6494  0.9224 -2.7346
   24MOL0     H 3140   1.014  12.109   6.974  0.3183 -0.7024  0.3093
   24MOL0     H 3141   1.115  12.241   6.911 -1.1174  2.8082 -0.5724
   24MOL0     H 3142   0.850  12.302   7.030  0.3216 -0.4840 -2.2167
   24MOL0     H 3143   0.976  12.416   6.988  3.3641  0.4373  0.7394
   24MOL0     H 3144   0.999  12.213   7.220 -0.9933 -0.6708 -0.8731
   24MOL0     H 3145   0.989  12.385   7.246  2.1390  1.4452 -1.5420
   24MOL0     H 3146   1.225  12.229   7.132 -1.1739 -1.2251 -0.9691
   24MOL0     H 3147   1.204  12.385   7.071  0.7356 -1.3978 -0.5125
   24MOL0     H 3148   1.194  12.478   7.313  1.0171  1.0687 -0.7990
   24MOL0     H 3149   1.340  12.384   7.253 -0.8663  4.6574  0.1297
   24MOL0     H 3150   0.596  11.942   6.594 -3.6294  0.0054 -0.5313
   24MOL0     H 3151   0.423  11.900   6.415  0.2695 -1.2854 -0.4312
   24MOL0     H 3152   0.217  11.927   6.116 -3.3621 -2.7107  2.5230
   24MOL0     H 3153   0.017  11.852   5.997  1.5271  3.3271  2.1126
   24MOL0     H 3154   0.349  11.754   5.009 -0.6568 -0.4454  1.7738
   24MOL0     H 3155   0.275  11.526   5.064 -2.5813 -2.3694  2.7418
   24MOL0     H 3156  -0.232  11.272   5.084 -0.4178 -0.9643  3.5165
   24MOL0     H 3157  -0.302  11.065   5.012  0.4244 -0.9849 -1.2134
   24MOL0     H 3158  -0.284  10.784   4.879 -1.4310 -1.6369 -0.3582
   24MOL0     H 3159  -0.350  10.883   5.018  0.8833  0.5720  2.3911
   24MOL0     H 3160  -0.404  10.640   4.989 -0.0956  1.0019  0.2453
   24MOL0     H 3161  -0.240  10.590   5.029  0.8451 -0.4986 -0.7998
   24MOL0     H 3162  -0.419  10.757   5.213 -1.2294  0.3565 -2.1503
   24MOL0     H 3163  -0.259  10.689   5.246  1.8201 -2.5084 -1.0505
   24MOL0     H 3164  -0.458  10.558   5.353  0.9763 -1.7247  0.4203
   24MOL0     H 3165  -0.502  10.514   5.179  0.5033  0.1071 -0.6206
   24MOL0     H 3166  -0.157  10.277   5.247 -0.4546  0.1614  2.1425
   24MOL0     H 3167   0.083  10.881   5.078 -1.1502 -0.0273  0.1230
   24MOL0     H 3168   0.180  11.118   5.119 -0.0145  1.4103 -0.1934
   25MOL0     O 3169   9.633   9.466   1.629 -0.7921 -0.4349  0.6960
   25MOL0     C 3170   9.657   9.351   1.578  0.0392  0.0247  0.1828
   25MOL0     O 3171   9.754   9.310   1.492 -0.5421  0.1940 -0.3735
   25MOL0     C 3172   9.857   9.397   1.458  0.2870  0.1574 -0.0099
   25MOL0     C 3173   9.905   9.510   1.534 -0.9356 -0.4604  0.0761
   25MOL0     C 3174  10.032   9.574   1.506  0.2999 -1.2604 -0.6185
   25MOL0     C 3175  10.095   9.533   1.391 -0.3484 -0.7118  0.2458
   25MOL0     O 3176  10.205   9.610   1.362  0.2072 -0.4435 -0.5320
   25MOL0     C 3177  10.308   9.604   1.461 -0.1348  0.6340 -0.8958
   25MOL0     C 3178  10.430   9.681   1.415  0.3884  1.1048 -0.5596
   25MOL0     C 3179  10.512   9.601   1.314 -0.7542 -1.1680  0.1012
   25MOL0     C 3180  10.545   9.458   1.365 -0.0733  0.3537 -0.2551
   25MOL0     C 3181  10.652   9.380   1.290  0.5586  0.1150  0.3660
   25MOL0     C 3182  10.634   9.354   1.133  0.5077  0.3845 -0.2500
   25MOL0     C 3183  10.495   9.299   1.106  0.2883  1.3585  0.4343
   25MOL0     C 3184  10.460   9.168   1.172  0.1333  0.7609  0.6703
   25MOL0     N 3185  10.325   9.117   1.132 -0.0879  1.1567  0.2272
   25MOL0     C 3186  10.316   9.005   1.053  0.4421 -0.8853  1.0015
   25MOL0     C 3187  10.185   8.978   1.054  0.3815  0.7202  0.6530
   25MOL0     C 3188  10.125   8.850   1.005  0.1603  0.4301 -0.1500
   25MOL0     C 3189  10.004   8.804   1.093  0.1705 -0.3063  0.0744
   25MOL0     C 3190  10.024   8.776   1.245 -0.8152 -0.1354 -1.2445
   25MOL0     C 3191  10.051   8.900   1.343 -0.7741 -1.4425 -0.2125
   25MOL0     O 3192  10.028   8.863   1.488 -0.1377 -0.2897  0.9683
   25MOL0     C 3193   9.996   8.960   1.572  0.2142  0.0487 -0.8761
   25MOL0     C 3194   9.892   8.942   1.660  0.7816  0.4496  0.1427
   25MOL0     C 3195   9.859   9.035   1.759  0.4986 -0.3800 -0.2748
   25MOL0     C 3196   9.928   9.159   1.765 -0.5730  0.4213 -1.0568
   25MOL0     C 3197   9.907   9.259   1.874  0.0196  0.0368  0.3276
   25MOL0     O 3198   9.812   9.226   1.968  0.1121  0.5918 -0.5524
   25MOL0     C 3199   9.783   9.330   2.056  0.0829  0.0207  0.0431
   25MOL0     C 3200   9.827   9.316   2.187 -0.0687  0.0622 -1.5992
   25MOL0     C 3201   9.786   9.417   2.281 -0.1764 -0.3197 -0.5935
   25MOL0     C 3202   9.703   9.523   2.240 -0.2449 -0.2918 -0.5091
   25MOL0     O 3203   9.640   9.600   2.333  0.5338  0.4524 -0.1719
   25MOL0     C 3204   9.588   9.540   2.456 -0.0577  0.1178 -0.5285
   25MOL0     C 3205   9.470   9.623   2.523 -0.3521  0.5742 -0.2916
   25MOL0     C 3206   9.503   9.763   2.572  0.1099  0.2521  0.1679
   25MOL0     C 3207   9.388   9.854   2.536 -0.5504  0.9087  0.3322
   25MOL0     C 3208   9.383   9.984   2.616  0.5043  0.7345  0.6276
   25MOL0     C 3209   9.243  10.047   2.588 -0.1634 -0.2113  0.3095
   25MOL0     C 3210   9.232  10.184   2.657 -1.1642  0.3156  0.0751
   25MOL0     C 3211   9.323  10.293   2.602 -0.5321  0.6526 -0.2857
   25MOL0    Cl 3212   9.305  10.442   2.681  0.2012 -0.1036  0.3672
   25MOL0     C 3213   9.673   9.542   2.114 -1.1516  0.1858  0.1966
   25MOL0     C 3214   9.711   9.449   2.013  0.2979  0.1519  0.3230
   25MOL0     O 3215   9.982   9.354   1.880 -0.0285 -0.2361  0.8093
   25MOL0     C 3216  10.026   9.183   1.667 -0.8173 -0.1962  0.5659
   25MOL0     C 3217  10.063   9.082   1.576 -0.3527  0.3825  1.0554
   25MOL0     N 3218  10.121   9.087   1.109  0.3422 -0.4367  0.0733
   25MOL0     N 3219  10.205   9.170   1.152 -0.1471  0.2420  0.5760
   25MOL0     C 3220  10.049   9.440   1.310  0.4229  0.4187  0.1346
   25MOL0     C 3221   9.936   9.362   1.354  0.4461 -0.2628  0.8612
   25MOL0     C 3222   9.584   9.234   1.639  0.2494  0.5784 -0.1570
   25MOL0     C 3223   9.591   9.101   1.609 -0.3596 -0.0974  1.0372
   25MOL0     C 3224   9.521   8.998   1.665 -0.4619  0.1121 -0.3138
   25MOL0     C 3225   9.431   9.029   1.774 -0.2814 -0.4464 -0.1028
   25MOL0     O 3226   9.364   8.933   1.844  0.1575  0.2436  0.5809
   25MOL0     C 3227   9.367   8.800   1.787  0.7269 -0.0870 -0.3694
   25MOL0     C 3228   9.264   8.720   1.860 -0.5964 -0.7763  0.0690
   25MOL0     C 3229   9.117   8.761   1.841 -0.5210  0.4405  0.5101
   25MOL0     C 3230   9.029   8.675   1.937  0.7079 -0.2612 -0.2394
   25MOL0     C 3231   8.888   8.701   1.893  1.1741 -0.2033 -0.7321
   25MOL0     C 3232   8.781   8.731   1.842  0.7132 -0.2395 -0.3829
   25MOL0     C 3233   9.411   9.165   1.803 -1.3454  0.0006  0.5770
   25MOL0     C 3234   9.488   9.267   1.737  0.3458 -0.0796 -0.1109
   25MOL0     H 3235   9.857   9.554   1.621 -0.1126  1.1466 -0.2410
   25MOL0     H 3236  10.060   9.663   1.561 -1.3963 -0.9272 -0.2155
   25MOL0     H 3237  10.329   9.503   1.498  3.6242  0.5823 -2.6993
   25MOL0     H 3238  10.281   9.650   1.556  0.8354 -0.0816 -0.2559
   25MOL0     H 3239  10.494   9.684   1.504  1.9857 -1.9700 -1.4616
   25MOL0     H 3240  10.404   9.785   1.391 -0.9385  0.7507 -0.7298
   25MOL0     H 3241  10.606   9.653   1.293 -0.0037 -2.8701 -0.9186
   25MOL0     H 3242  10.465   9.596   1.216  0.9704  1.7335 -1.0360
   25MOL0     H 3243  10.583   9.481   1.466  1.4567  0.3224 -0.7940
   25MOL0     H 3244  10.461   9.389   1.364  0.8372 -0.7857 -1.9779
   25MOL0     H 3245  10.656   9.283   1.341  2.6625  0.6880  1.4072
   25MOL0     H 3246  10.750   9.424   1.306  1.8160 -2.4542  0.2077
   25MOL0     H 3247  10.707   9.278   1.103 -0.1734  0.7827 -3.2864
   25MOL0     H 3248  10.657   9.443   1.073 -0.4237  0.3851 -0.6359
   25MOL0     H 3249  10.418   9.373   1.132 -1.5990 -0.8827  1.4987
   25MOL0     H 3250  10.506   9.279   0.999 -3.4524 -1.1962  0.3458
   25MOL0     H 3251  10.473   9.174   1.281  2.8233 -1.0617  0.5384
   25MOL0     H 3252  10.539   9.096   1.148 -0.4850 -0.5909  2.4610
   25MOL0     H 3253  10.397   8.945   1.014  0.9227 -0.6808  1.6559
   25MOL0     H 3254  10.204   8.775   1.011 -1.1382 -0.9365  0.6210
   25MOL0     H 3255  10.097   8.863   0.900  2.3204 -0.0064 -0.8182
   25MOL0     H 3256   9.964   8.713   1.046 -1.2904 -0.4496  1.5191
   25MOL0     H 3257   9.925   8.878   1.081 -0.8489 -1.2928  0.5165
   25MOL0     H 3258   9.947   8.712   1.289 -0.4686 -0.3316 -0.9063
   25MOL0     H 3259  10.112   8.711   1.250 -0.8775 -0.5187 -3.8383
   25MOL0     H 3260   9.972   8.970   1.314  0.8771  1.7561  2.3180
   25MOL0     H 3261  10.148   8.949   1.331 -1.6544  0.4494  0.0207
   25MOL0     H 3262   9.833   8.852   1.646  2.5147 -0.5556 -1.1861
   25MOL0     H 3263   9.783   9.017   1.835  1.9177 -0.5563  1.1784
   25MOL0     H 3264   9.888   9.230   2.213  1.0113  1.2523 -0.0374
   25MOL0     H 3265   9.822   9.407   2.383 -2.2476 -2.9006  0.0146
   25MOL0     H 3266   9.672   9.520   2.523 -1.4330  0.8432  1.5056
   25MOL0     H 3267   9.537   9.445   2.436 -0.8446  0.0225  1.6890
   25MOL0     H 3268   9.444   9.568   2.613 -2.9155  2.1228  0.0017
   25MOL0     H 3269   9.383   9.606   2.459  0.5218 -1.9989 -0.9286
   25MOL0     H 3270   9.586   9.805   2.513  0.7420 -0.3352  0.6293
   25MOL0     H 3271   9.539   9.760   2.675  0.2451 -0.7744  0.0932
   25MOL0     H 3272   9.415   9.887   2.435  0.7892 -3.3148 -0.9416
   25MOL0     H 3273   9.292   9.801   2.547 -0.4565  1.2755  4.5019
   25MOL0     H 3274   9.463  10.058   2.606  1.3401 -0.1271  0.8216
   25MOL0     H 3275   9.392   9.966   2.723 -2.3933 -2.0877  0.5538
   25MOL0     H 3276   9.159   9.993   2.634 -0.4162  0.6742  0.9335
   25MOL0     H 3277   9.230  10.068   2.482  1.2500  1.1406  0.3586
   25MOL0     H 3278   9.127  10.211   2.645 -1.0088  2.0025  1.9814
   25MOL0     H 3279   9.252  10.187   2.765  0.5643 -1.4671 -0.1325
   25MOL0     H 3280   9.289  10.310   2.499 -2.4464 -0.2241  0.1468
   25MOL0     H 3281   9.430  10.273   2.611 -0.1831  3.0313  5.2370
   25MOL0     H 3282   9.612   9.625   2.078 -2.4555 -0.4462  0.8826
   25MOL0     H 3283   9.689   9.473   1.910  1.0789 -0.5976 -0.0252
   25MOL0     H 3284  10.085   9.273   1.675  0.3592 -0.8550 -0.3500
   25MOL0     H 3285  10.142   9.102   1.504 -1.0247 -1.8062 -0.3929
   25MOL0     H 3286  10.086   9.419   1.210 -4.4043  1.4395 -2.1578
   25MOL0     H 3287   9.920   9.279   1.286  0.3915  1.5853 -1.4987
   25MOL0     H 3288   9.650   9.071   1.523 -1.4122 -1.6030  0.7880
   25MOL0     H 3289   9.536   8.893   1.641  1.5321 -0.4212  2.7363
   25MOL0     H 3290   9.465   8.757   1.808 -0.2481 -1.8908  0.7580
   25MOL0     H 3291   9.337   8.799   1.682 -2.9165 -0.8262  0.5390
   25MOL0     H 3292   9.264   8.619   1.818 -2.4690 -1.8518  2.3934
   25MOL0     H 3293   9.305   8.728   1.962 -0.2186  2.2239 -0.2196
   25MOL0     H 3294   9.077   8.742   1.741 -1.2699  0.0865  0.8715
   25MOL0     H 3295   9.121   8.868   1.862 -1.5072  0.6594 -0.3290
   25MOL0     H 3296   9.057   8.570   1.929 -0.2675 -0.6108  0.7780
   25MOL0     H 3297   9.040   8.706   2.041 -1.0813  0.8489 -0.3443
   25MOL0     H 3298   8.695   8.780   1.801  1.7395  1.3478 -0.7450
   25MOL0     H 3299   9.353   9.180   1.894  1.5653  0.3313  2.5003
   25MOL0     H 3300   9.471   9.369   1.771 -3.9755  0.1241 -2.1504
   26MOL0     O 3301   4.474   3.503   2.446  0.1539 -0.6387 -0.5027
   26MOL0     C 3302   4.373   3.429   2.471  0.3870  0.0800 -0.2720
   26MOL0     O 3303   4.375   3.318   2.558  0.0836 -0.2860  0.8070
   26MOL0     C 3304   4.475   3.291   2.649 -0.2229  0.5642  0.7163
   26MOL0     C 3305   4.474   3.165   2.708 -0.0107  1.4166  0.3692
   26MOL0     C 3306   4.559   3.138   2.821  0.8019 -0.2672  0.1537
   26MOL0     C 3307   4.632   3.240   2.871 -1.1358  0.1422 -1.0864
   26MOL0     O 3308   4.709   3.211   2.982 -0.2284  0.7263  1.0006
   26MOL0     C 3309   4.810   3.307   3.003 -0.2565  0.0779  0.2042
   26MOL0     C 3310   4.919   3.249   3.087 -0.7646  0.9742  0.5345
   26MOL0     C 3311   5.018   3.154   3.003  1.5736 -0.4693 -0.0655
   26MOL0     C 3312   5.110   3.061   3.092  0.4652  0.7521  0.2529
   26MOL0     C 3313   5.235   3.140   3.134  0.1721  0.5846  0.9756
   26MOL0     C 3314   5.324   3.044   3.208  0.1790 -0.6825  0.1696
   26MOL0     C 3315   5.375   2.914   3.133  0.1517 -0.4161 -0.6890
   26MOL0     C 3316   5.437   2.942   2.990  0.1320 -0.5983  0.0479
   26MOL0     N 3317   5.506   2.828   2.935  1.0078  0.3034  1.1182
   26MOL0     C 3318   5.636   2.817   2.890  0.5443 -0.5781 -0.1884
   26MOL0     C 3319   5.638   2.698   2.827 -0.2320  0.2301 -0.3098
   26MOL0     C 3320   5.762   2.651   2.756  0.1306  0.4285  0.4600
   26MOL0     C 3321   5.794   2.506   2.797 -0.2081  0.2454  0.1241
   26MOL0     C 3322   5.936   2.472   2.729 -0.6793  0.5713 -0.0019
   26MOL0     C 3323   5.975   2.346   2.795 -0.6571 -0.9717 -0.1631
   26MOL0     O 3324   5.878   2.240   2.774 -0.2688  0.0715  0.2582
   26MOL0     C 3325   5.923   2.122   2.815  0.1086  0.6660  0.1467
   26MOL0     C 3326   5.899   2.014   2.729 -0.2094 -0.2075 -0.3848
   26MOL0     C 3327   5.934   1.890   2.769 -0.1123  2.1346  1.0608
   26MOL0     C 3328   6.002   1.866   2.890 -0.3003 -0.3022 -0.1377
   26MOL0     C 3329   6.046   1.730   2.926  0.6234 -0.0753 -1.1193
   26MOL0     O 3330   6.152   1.724   3.015 -0.4972  0.4423  0.7023
   26MOL0     C 3331   6.200   1.598   3.042 -0.1670 -0.7422 -0.5791
   26MOL0     C 3332   6.322   1.555   3.007 -0.1697  0.2912 -0.2015
   26MOL0     C 3333   6.378   1.436   3.060  0.0938 -0.9068  1.4576
   26MOL0     C 3334   6.295   1.345   3.131 -0.2612  0.7332  0.5269
   26MOL0     O 3335   6.336   1.232   3.194  0.1213 -0.3096  0.0386
   26MOL0     C 3336   6.477   1.194   3.177 -0.3865 -0.3314  0.1253
   26MOL0     C 3337   6.520   1.076   3.276  1.0380 -1.3115  0.6875
   26MOL0     C 3338   6.490   1.123   3.415 -0.0636  0.5310 -0.2107
   26MOL0     C 3339   6.557   1.034   3.518 -0.6771 -0.4264  0.1607
   26MOL0     C 3340   6.711   1.065   3.527 -0.4619 -0.2490  0.2446
   26MOL0     C 3341   6.780   1.000   3.645  1.0833  0.2432  0.1298
   26MOL0     C 3342   6.739   1.070   3.780  0.3119  0.2975 -0.4700
   26MOL0     C 3343   6.779   1.208   3.806  0.3930  0.1810 -0.3811
   26MOL0    Cl 3344   6.693   1.351   3.755 -0.0429 -0.6018 -0.4375
   26MOL0     C 3345   6.172   1.381   3.155  0.6703  0.5018  0.4242
   26MOL0     C 3346   6.124   1.510   3.114  0.7755  0.2749 -1.6909
   26MOL0     O 3347   5.994   1.637   2.876  0.1654 -0.3392 -0.1005
   26MOL0     C 3348   6.017   1.971   2.979  0.0130 -0.5331  0.6401
   26MOL0     C 3349   5.978   2.095   2.942  0.6152 -0.0981 -0.1575
   26MOL0     N 3350   5.516   2.638   2.840  0.0259  0.0043  0.0114
   26MOL0     N 3351   5.448   2.711   2.923  0.0839 -0.4818  0.3407
   26MOL0     C 3352   4.626   3.373   2.820 -0.2268 -0.0337  0.3638
   26MOL0     C 3353   4.542   3.391   2.715  0.1377 -1.2173  0.0486
   26MOL0     C 3354   4.244   3.458   2.408  0.4725  0.4788 -0.1972
   26MOL0     C 3355   4.231   3.528   2.295 -0.3295 -0.7697  0.2377
   26MOL0     C 3356   4.104   3.557   2.247 -0.2644  0.8838  0.6354
   26MOL0     C 3357   3.985   3.508   2.305  0.5451  0.5675  0.1552
   26MOL0     O 3358   3.871   3.544   2.237  0.6505  0.1767 -0.3013
   26MOL0     C 3359   3.751   3.545   2.318 -0.1069 -0.8039  0.1986
   26MOL0     C 3360   3.665   3.663   2.263  0.7079  0.4798 -0.0363
   26MOL0     C 3361   3.513   3.661   2.269  0.2112  0.1412  0.6438
   26MOL0     C 3362   3.468   3.655   2.406 -0.3933 -0.2975 -0.4220
   26MOL0     C 3363   3.326   3.700   2.414 -0.7234 -0.0422 -0.6467
   26MOL0     C 3364   3.213   3.714   2.421 -0.3582 -0.3251  1.0010
   26MOL0     C 3365   4.003   3.443   2.420  0.5825 -0.4502 -0.7579
   26MOL0     C 3366   4.131   3.424   2.482 -0.3818  1.4709 -0.3443
   26MOL0     H 3367   4.399   3.094   2.675  1.0416  0.9268 -1.0605
   26MOL0     H 3368   4.565   3.044   2.873 -1.9667 -0.2325  0.7098
   26MOL0     H 3369   4.768   3.394   3.054 -1.7162  2.1754 -4.0872
   26MOL0     H 3370   4.846   3.344   2.906 -2.6250  0.4547 -0.5877
   26MOL0     H 3371   4.866   3.191   3.163 -0.3884 -0.5416 -0.3181
   26MOL0     H 3372   4.978   3.320   3.145 -2.7071  0.9832  2.6506
   26MOL0     H 3373   5.068   3.219   2.930 -1.3425  1.6254 -0.3773
   26MOL0     H 3374   4.953   3.088   2.946  1.0944 -0.2738  0.2527
   26MOL0     H 3375   5.059   3.027   3.183  2.8141  1.3981  1.9199
   26MOL0     H 3376   5.135   2.975   3.029 -1.5980 -2.4202  3.3248
   26MOL0     H 3377   5.231   3.224   3.204  1.4322  1.9511 -0.4952
   26MOL0     H 3378   5.284   3.168   3.040  0.0948 -0.0471  0.7452
   26MOL0     H 3379   5.277   3.007   3.299 -0.2313 -4.7324 -1.4736
   26MOL0     H 3380   5.416   3.098   3.232  1.2440 -1.6287 -1.5340
   26MOL0     H 3381   5.424   2.849   3.206 -1.3449 -0.6925  0.1112
   26MOL0     H 3382   5.284   2.855   3.118 -0.8679  0.8016  0.4156
   26MOL0     H 3383   5.503   3.028   3.008  3.5160 -3.1628  1.0705
   26MOL0     H 3384   5.353   2.968   2.926  0.0397 -1.3443 -0.1438
   26MOL0     H 3385   5.710   2.895   2.882  1.5185 -0.9771  3.1916
   26MOL0     H 3386   5.846   2.717   2.780 -0.7790  1.6068  0.5382
   26MOL0     H 3387   5.750   2.655   2.647 -0.6014 -0.0934  0.5171
   26MOL0     H 3388   5.708   2.440   2.785 -3.0634  3.7560 -0.6899
   26MOL0     H 3389   5.810   2.504   2.905 -2.1514  3.2597  0.6023
   26MOL0     H 3390   5.931   2.465   2.620 -0.7807 -0.4265  0.0514
   26MOL0     H 3391   6.016   2.545   2.740  1.8624 -0.6210 -6.3331
   26MOL0     H 3392   5.985   2.364   2.903  3.0221  0.7860 -0.6654
   26MOL0     H 3393   6.079   2.323   2.770  0.0326  3.9518 -2.9083
   26MOL0     H 3394   5.861   2.026   2.628 -1.3844 -3.0232 -0.3748
   26MOL0     H 3395   5.931   1.816   2.690 -0.2423  2.4591  0.7551
   26MOL0     H 3396   6.364   1.633   2.945 -2.6815  2.6864  0.9248
   26MOL0     H 3397   6.485   1.433   3.044  0.0825  0.6692  0.9029
   26MOL0     H 3398   6.552   1.272   3.196 -1.3631  0.4655  0.8285
   26MOL0     H 3399   6.490   1.161   3.074  0.5581  1.2261 -0.2992
   26MOL0     H 3400   6.629   1.073   3.273  1.0079 -2.0337  0.0348
   26MOL0     H 3401   6.474   0.977   3.266 -3.1939  0.4696  0.2912
   26MOL0     H 3402   6.382   1.115   3.427 -0.0252 -1.5828 -0.8470
   26MOL0     H 3403   6.512   1.228   3.437 -0.6972  0.6919 -0.3411
   26MOL0     H 3404   6.500   1.063   3.607 -4.5581 -0.1451 -2.2083
   26MOL0     H 3405   6.545   0.927   3.497 -0.1685 -0.6370  0.8748
   26MOL0     H 3406   6.733   1.171   3.533  1.5692 -0.6090 -0.1912
   26MOL0     H 3407   6.761   1.031   3.436 -3.3985 -0.3342 -1.4791
   26MOL0     H 3408   6.887   1.011   3.623  0.5496  1.2590 -2.2988
   26MOL0     H 3409   6.745   0.897   3.648 -0.0679  0.6456  1.6879
   26MOL0     H 3410   6.630   1.062   3.785 -0.0467  3.2711 -1.5807
   26MOL0     H 3411   6.792   1.010   3.856  0.2963  0.7130 -0.1290
   26MOL0     H 3412   6.885   1.206   3.778  0.8041 -1.2790  1.0774
   26MOL0     H 3413   6.791   1.219   3.914 -0.3323 -0.4938 -0.2186
   26MOL0     H 3414   6.100   1.321   3.209  1.3478 -1.4919 -0.7720
   26MOL0     H 3415   6.031   1.546   3.156 -0.6868 -2.6130 -2.1658
   26MOL0     H 3416   6.050   1.946   3.078  3.7607 -3.6244 -1.1556
   26MOL0     H 3417   5.993   2.182   3.004  1.0274  0.7974 -1.4805
   26MOL0     H 3418   4.671   3.460   2.867 -0.9607 -0.0671  1.1484
   26MOL0     H 3419   4.535   3.489   2.668  1.6603 -1.1193 -0.0151
   26MOL0     H 3420   4.313   3.561   2.232 -2.3296  2.0864 -1.0703
   26MOL0     H 3421   4.108   3.603   2.150 -1.9405 -2.5840 -1.3015
   26MOL0     H 3422   3.755   3.546   2.427 -1.4041  1.4517  0.2911
   26MOL0     H 3423   3.701   3.451   2.294  1.2181 -1.0836 -1.7519
   26MOL0     H 3424   3.707   3.753   2.308  2.8345  0.6282 -2.1200
   26MOL0     H 3425   3.674   3.676   2.155  2.8351  1.8409  0.2610
   26MOL0     H 3426   3.473   3.583   2.203  1.7253 -0.6171  0.5873
   26MOL0     H 3427   3.486   3.761   2.231 -0.5578 -0.2665  0.0859
   26MOL0     H 3428   3.486   3.548   2.421 -1.1186 -1.1077 -4.2466
   26MOL0     H 3429   3.539   3.715   2.462  1.1510  0.4901 -3.0490
   26MOL0     H 3430   3.108   3.731   2.409  0.1310  2.7191  0.2500
   26MOL0     H 3431   3.924   3.407   2.487  1.6115  0.2307  0.8906
   26MOL0     H 3432   4.131   3.387   2.584  4.0590  0.2725 -0.5772
   27MOL0     O 3433   6.015   1.049   3.538 -0.0151 -0.2287 -0.2748
   27MOL0     C 3434   5.894   1.064   3.546  0.0733  1.0455 -0.6435
   27MOL0     O 3435   5.815   0.981   3.616  0.8258  0.1360 -0.0974
   27MOL0     C 3436   5.846   0.849   3.626 -0.4918 -0.7640  0.4312
   27MOL0     C 3437   5.831   0.788   3.748 -0.3019 -0.1105 -0.1945
   27MOL0     C 3438   5.870   0.655   3.758  0.1939  0.4368  0.4510
   27MOL0     C 3439   5.909   0.583   3.649 -0.0851  0.3917 -0.4615
   27MOL0     O 3440   5.949   0.456   3.663 -0.2891  0.0791 -0.4314
   27MOL0     C 3441   5.862   0.350   3.614 -0.6297 -1.0408 -0.6506
   27MOL0     C 3442   5.837   0.241   3.723 -0.6621 -0.2098  0.2812
   27MOL0     C 3443   5.966   0.148   3.752  0.1395 -0.2361 -0.2786
   27MOL0     C 3444   5.916   0.051   3.866  0.2120  0.0127 -0.2775
   27MOL0     C 3445   5.996  -0.068   3.901 -0.1174 -0.7224  0.4404
   27MOL0     C 3446   6.136  -0.076   3.840 -0.0391  0.6756 -0.1463
   27MOL0     C 3447   6.200  -0.211   3.871  0.2150 -0.0612 -0.6229
   27MOL0     C 3448   6.119  -0.343   3.826  0.4064  0.1546 -0.1739
   27MOL0     N 3449   6.222  -0.455   3.820  0.7204 -0.6160  0.0938
   27MOL0     C 3450   6.322  -0.477   3.919 -0.0736  0.8588  0.5260
   27MOL0     C 3451   6.393  -0.583   3.878  0.8979 -0.9747 -0.3064
   27MOL0     C 3452   6.506  -0.647   3.942  0.1399  0.4472 -0.0084
   27MOL0     C 3453   6.631  -0.616   3.872 -0.2410 -1.0511  0.8542
   27MOL0     C 3454   6.658  -0.685   3.734 -0.4156  0.1737 -0.0792
   27MOL0     C 3455   6.813  -0.658   3.709  0.6555  0.2736  0.2987
   27MOL0     O 3456   6.900  -0.681   3.823  0.4289  0.3630 -0.2582
   27MOL0     C 3457   7.010  -0.762   3.808 -0.5641 -0.9295  0.3105
   27MOL0     C 3458   7.038  -0.836   3.920 -1.0120 -0.7065 -0.1315
   27MOL0     C 3459   7.151  -0.914   3.937  0.3240 -0.2398  0.8845
   27MOL0     C 3460   7.253  -0.907   3.842 -0.4008  0.5146  0.3703
   27MOL0     C 3461   7.379  -0.978   3.842 -0.3991  1.1111 -0.4574
   27MOL0     O 3462   7.410  -1.047   3.960  0.1328  0.8304  0.4256
   27MOL0     C 3463   7.536  -1.085   3.984  0.7938  0.4941 -0.2640
   27MOL0     C 3464   7.649  -0.996   3.977  0.3445 -0.0083 -0.3403
   27MOL0     C 3465   7.778  -1.030   4.007  0.1686  0.0027  0.3807
   27MOL0     C 3466   7.806  -1.166   4.041  0.9140 -0.4054 -0.9317
   27MOL0     O 3467   7.929  -1.208   4.063  0.4096  0.2528  0.5971
   27MOL0     C 3468   8.028  -1.163   3.973  0.1280 -0.2245  0.0297
   27MOL0     C 3469   8.131  -1.283   3.975 -0.3336  0.3419  0.6118
   27MOL0     C 3470   8.202  -1.271   4.110  0.3583 -0.0858 -0.1788
   27MOL0     C 3471   8.295  -1.391   4.138  0.4317 -0.3159  0.0253
   27MOL0     C 3472   8.436  -1.356   4.185  0.7682 -1.3420 -0.7860
   27MOL0     C 3473   8.450  -1.396   4.325  0.5492 -0.0205 -0.5408
   27MOL0     C 3474   8.592  -1.380   4.383  0.1483 -0.5891  0.4617
   27MOL0     C 3475   8.621  -1.465   4.508 -0.2486  0.0103  0.5221
   27MOL0    Cl 3476   8.513  -1.412   4.635  0.0243 -0.2624 -0.4193
   27MOL0     C 3477   7.697  -1.243   4.071 -0.4029 -0.5107 -0.2783
   27MOL0     C 3478   7.559  -1.207   4.053  0.0980  0.2197 -0.3339
   27MOL0     O 3479   7.456  -0.960   3.743  0.2803 -0.2952  0.5512
   27MOL0     C 3480   7.226  -0.832   3.728  0.6409 -0.5487 -0.2617
   27MOL0     C 3481   7.105  -0.761   3.713  0.6809  0.7833  0.8873
   27MOL0     N 3482   6.340  -0.612   3.750 -0.2473 -0.4946  0.9889
   27MOL0     N 3483   6.243  -0.537   3.716  0.0169  0.3454  0.6891
   27MOL0     C 3484   5.913   0.642   3.525 -0.1480 -0.0608  0.2703
   27MOL0     C 3485   5.888   0.776   3.513  0.8950  0.0780  0.0910
   27MOL0     C 3486   5.822   1.165   3.473 -0.5869 -1.1484  1.0161
   27MOL0     C 3487   5.687   1.139   3.450  1.0300 -0.7061  0.1158
   27MOL0     C 3488   5.618   1.219   3.355  0.1258  0.5761 -0.2110
   27MOL0     C 3489   5.675   1.327   3.299  0.1848 -0.2498  0.2622
   27MOL0     O 3490   5.617   1.422   3.217 -0.2105  0.6444 -0.2583
   27MOL0     C 3491   5.483   1.412   3.179  0.5001 -0.6218 -0.2014
   27MOL0     C 3492   5.434   1.535   3.098 -0.5453  0.5695 -0.9955
   27MOL0     C 3493   5.304   1.495   3.011  0.2450  0.0305 -0.3096
   27MOL0     C 3494   5.173   1.483   3.090 -1.0421  0.2749  0.4543
   27MOL0     C 3495   5.054   1.470   3.009  1.2111  0.0131  1.0952
   27MOL0     C 3496   4.968   1.436   2.941  0.8677  0.4144 -0.0659
   27MOL0     C 3497   5.809   1.362   3.337 -0.4511  0.2275  0.3067
   27MOL0     C 3498   5.886   1.281   3.422 -0.5761 -1.4284 -0.1439
   27MOL0     H 3499   5.811   0.846   3.838  1.4546 -0.7406  0.6585
   27MOL0     H 3500   5.871   0.603   3.853  0.3907  0.7679  0.6348
   27MOL0     H 3501   5.913   0.307   3.528 -0.8422 -1.6745 -0.4663
   27MOL0     H 3502   5.764   0.387   3.583  1.0517  2.5810 -2.1812
   27MOL0     H 3503   5.764   0.173   3.678  1.3340 -0.1852 -3.3581
   27MOL0     H 3504   5.809   0.293   3.816  0.8894  1.0500  0.0903
   27MOL0     H 3505   6.056   0.209   3.764 -0.4076  0.2809  1.5764
   27MOL0     H 3506   5.981   0.083   3.666  2.7209 -1.2920  0.8604
   27MOL0     H 3507   5.891   0.107   3.957  3.1870  0.7457  0.2202
   27MOL0     H 3508   5.825   0.019   3.816  1.0460  0.3143 -2.0508
   27MOL0     H 3509   5.933  -0.150   3.866 -3.8295  1.1783  2.1020
   27MOL0     H 3510   6.009  -0.070   4.009  1.3998  3.2412  0.5066
   27MOL0     H 3511   6.198   0.007   3.875  0.1303  1.3596 -1.9941
   27MOL0     H 3512   6.139  -0.067   3.731 -0.9388  1.3710 -0.1267
   27MOL0     H 3513   6.300  -0.213   3.826  0.4109 -1.7328 -0.1868
   27MOL0     H 3514   6.223  -0.212   3.978  3.1995  0.6301 -1.1568
   27MOL0     H 3515   6.065  -0.334   3.731 -1.4335  1.4401  0.8966
   27MOL0     H 3516   6.050  -0.356   3.910  0.1305  0.7764 -0.2933
   27MOL0     H 3517   6.325  -0.428   4.016 -1.4177  0.8768  0.5758
   27MOL0     H 3518   6.487  -0.754   3.945 -0.3926  0.3862  5.8002
   27MOL0     H 3519   6.521  -0.628   4.049 -2.1463  1.3016  0.2168
   27MOL0     H 3520   6.703  -0.659   3.941 -0.0670  0.7360  1.8379
   27MOL0     H 3521   6.635  -0.508   3.853  0.7254 -1.4736 -1.7185
   27MOL0     H 3522   6.631  -0.791   3.747 -2.3662  0.5833 -0.3534
   27MOL0     H 3523   6.587  -0.643   3.661 -2.1130 -0.1729  1.3015
   27MOL0     H 3524   6.834  -0.556   3.677  1.2564 -0.3876 -1.5161
   27MOL0     H 3525   6.841  -0.721   3.625  0.0868 -1.5750  1.4262
   27MOL0     H 3526   6.958  -0.852   3.991 -0.1340 -3.8658  0.3094
   27MOL0     H 3527   7.164  -0.964   4.033 -1.4505 -0.7740  0.8869
   27MOL0     H 3528   7.622  -0.895   3.945 -0.3402 -0.4671 -1.2789
   27MOL0     H 3529   7.855  -0.956   3.992 -0.1277  0.0643 -0.9114
   27MOL0     H 3530   8.065  -1.061   3.982  0.5413 -0.1944 -1.7883
   27MOL0     H 3531   7.987  -1.158   3.872  0.7346 -1.9182 -0.3237
   27MOL0     H 3532   8.188  -1.257   3.885 -0.2226 -1.7031  0.0367
   27MOL0     H 3533   8.084  -1.381   3.964  1.8335 -0.9673  2.0371
   27MOL0     H 3534   8.122  -1.274   4.184 -0.0897 -0.5639 -0.6693
   27MOL0     H 3535   8.262  -1.179   4.105  0.0992  0.1568  1.0054
   27MOL0     H 3536   8.242  -1.465   4.199  2.1690 -2.9592 -1.4425
   27MOL0     H 3537   8.305  -1.438   4.040 -2.4982 -1.7338  0.2842
   27MOL0     H 3538   8.440  -1.247   4.192 -3.4099 -1.0277 -0.4218
   27MOL0     H 3539   8.518  -1.385   4.119  1.4168 -5.1197  1.3910
   27MOL0     H 3540   8.416  -1.499   4.343 -1.5799  0.9010  1.2909
   27MOL0     H 3541   8.373  -1.338   4.377 -1.9447 -2.2562 -1.4973
   27MOL0     H 3542   8.670  -1.401   4.309 -2.5117  0.7855 -3.0007
   27MOL0     H 3543   8.593  -1.274   4.408  0.6570 -0.5079  0.1162
   27MOL0     H 3544   8.723  -1.453   4.545 -1.2872 -1.9739  4.6875
   27MOL0     H 3545   8.600  -1.571   4.491 -1.2389  0.3205 -0.3069
   27MOL0     H 3546   7.734  -1.342   4.095  1.9230  0.2821 -0.3191
   27MOL0     H 3547   7.478  -1.269   4.090 -0.1967  0.3926 -0.6740
   27MOL0     H 3548   7.293  -0.831   3.643  0.5658 -3.7811 -0.4605
   27MOL0     H 3549   7.096  -0.720   3.613  0.2606  2.9200  1.7491
   27MOL0     H 3550   5.944   0.589   3.436 -0.3530  1.0007 -0.4552
   27MOL0     H 3551   5.887   0.824   3.415  0.4685  0.6052  0.3491
   27MOL0     H 3552   5.634   1.052   3.488  2.8712 -0.9252  2.4120
   27MOL0     H 3553   5.515   1.209   3.321 -0.7627  1.3031  2.1165
   27MOL0     H 3554   5.422   1.414   3.270  1.8314  0.9841  0.7182
   27MOL0     H 3555   5.463   1.313   3.138  2.0709 -0.9798 -0.1320
   27MOL0     H 3556   5.415   1.621   3.163  1.3915 -0.6537  1.3602
   27MOL0     H 3557   5.514   1.560   3.027  1.0189 -0.7970  0.1958
   27MOL0     H 3558   5.321   1.405   2.951  4.2246  0.4460 -0.0658
   27MOL0     H 3559   5.294   1.566   2.929  3.2113  0.4858 -0.3921
   27MOL0     H 3560   5.175   1.396   3.156 -1.7780  2.3936  3.4697
   27MOL0     H 3561   5.163   1.572   3.153  0.4329  3.3695 -3.2666
   27MOL0     H 3562   4.890   1.401   2.876 -0.2852 -3.0215  2.8252
   27MOL0     H 3563   5.852   1.451   3.290 -0.7965  1.0658  1.5265
   27MOL0     H 3564   5.990   1.300   3.447 -0.6289 -2.3434  0.8867
   28MOL0     O 3565   5.313   1.908   7.361 -1.0396 -0.7704  0.0386
   28MOL0     C 3566   5.334   2.020   7.315  0.8587 -0.2228 -0.2538
   28MOL0     O 3567   5.253   2.126   7.324  0.1224  0.0798 -0.3856
   28MOL0     C 3568   5.141   2.104   7.390 -0.6847 -0.6582 -0.9573
   28MOL0     C 3569   5.020   2.089   7.329  0.6066 -0.6684  1.0237
   28MOL0     C 3570   4.909   2.050   7.401  0.8376 -0.2273  0.1398
   28MOL0     C 3571   4.909   2.051   7.544  0.3554  0.2250  0.2351
   28MOL0     O 3572   4.783   2.028   7.599 -0.2469 -0.0990 -0.5825
   28MOL0     C 3573   4.779   1.943   7.706  0.5942  0.4790  0.2895
   28MOL0     C 3574   4.686   2.017   7.801  0.0358 -0.2362 -0.9544
   28MOL0     C 3575   4.679   1.946   7.935  0.1179  0.3760 -0.5224
   28MOL0     C 3576   4.543   1.876   7.950  0.2226 -0.5592  0.3155
   28MOL0     C 3577   4.569   1.724   7.972  0.8375  0.5318  0.0063
   28MOL0     C 3578   4.480   1.658   8.073  0.1728  0.3166 -0.5856
   28MOL0     C 3579   4.497   1.506   8.092  0.5260  0.3918  0.9036
   28MOL0     C 3580   4.457   1.436   7.959 -0.1461 -0.2122  0.4600
   28MOL0     N 3581   4.481   1.301   7.986 -0.0428  0.7734  1.1043
   28MOL0     C 3582   4.595   1.232   7.978  0.3679  0.1296  0.1114
   28MOL0     C 3583   4.572   1.129   8.054  0.3137 -0.2785  0.2028
   28MOL0     C 3584   4.666   1.017   8.081 -0.4568 -0.4019  0.3140
   28MOL0     C 3585   4.653   0.952   8.217  0.1843  0.1758 -0.1776
   28MOL0     C 3586   4.730   0.821   8.241  0.2308 -0.6319  0.2429
   28MOL0     C 3587   4.878   0.824   8.196  0.0149  0.3405 -0.0911
   28MOL0     O 3588   4.944   0.943   8.238  1.0792 -0.4849 -0.3346
   28MOL0     C 3589   5.012   0.948   8.357  0.5827  0.0415  0.2893
   28MOL0     C 3590   5.086   1.061   8.382  0.0967  0.4328  0.1191
   28MOL0     C 3591   5.161   1.068   8.495 -0.5623  0.6090  0.6113
   28MOL0     C 3592   5.146   0.974   8.601 -0.5725 -0.4800  0.8077
   28MOL0     C 3593   5.233   0.990   8.722 -0.7047  0.8087 -0.4178
   28MOL0     O 3594   5.229   0.879   8.810  0.4078  0.5907 -0.0902
   28MOL0     C 3595   5.284   0.916   8.936  0.0016  0.0796  0.3271
   28MOL0     C 3596   5.423   0.908   8.967  0.3437 -0.0535  0.1041
   28MOL0     C 3597   5.472   0.939   9.101  0.8382  0.3363  0.0768
   28MOL0     C 3598   5.378   0.962   9.202  0.8218  0.5478  1.0716
   28MOL0     O 3599   5.430   0.989   9.332 -0.4055 -0.1757  0.0627
   28MOL0     C 3600   5.550   0.919   9.386  0.7284 -0.2420  0.0809
   28MOL0     C 3601   5.555   0.945   9.533 -0.1850 -0.0345 -0.1102
   28MOL0     C 3602   5.438   0.876   9.599 -0.4354 -0.5948  0.2829
   28MOL0     C 3603   5.448   0.889   9.758  0.4502  0.2912 -0.1615
   28MOL0     C 3604   5.434   1.030   9.815 -0.3911  0.1982  0.4254
   28MOL0     C 3605   5.377   1.022   9.954 -0.7705  0.4019  0.5568
   28MOL0     C 3606   5.401   1.163  10.018 -0.5754  0.5501 -0.2213
   28MOL0     C 3607   5.348   1.168  10.159 -0.2748  0.0852  0.2931
   28MOL0    Cl 3608   5.398   1.027  10.262  0.1823  0.5376  0.2943
   28MOL0     C 3609   5.241   0.965   9.180  0.6558  0.8701 -0.0191
   28MOL0     C 3610   5.201   0.948   9.039  0.5992 -0.1801 -0.6336
   28MOL0     O 3611   5.316   1.086   8.733 -1.1430 -1.1362 -0.6613
   28MOL0     C 3612   5.081   0.852   8.565  0.1959  0.4730 -0.4119
   28MOL0     C 3613   5.011   0.842   8.447 -0.6843 -0.0571  0.4164
   28MOL0     N 3614   4.446   1.125   8.103  0.2167 -0.3164 -0.2418
   28MOL0     N 3615   4.388   1.228   8.054 -0.8373  0.5670 -0.3175
   28MOL0     C 3616   5.019   2.088   7.610 -0.3920 -0.7096  0.7968
   28MOL0     C 3617   5.134   2.117   7.534 -0.5072  0.4278  0.9431
   28MOL0     C 3618   5.459   2.031   7.239  0.2500 -0.5325  0.3804
   28MOL0     C 3619   5.474   2.148   7.156  0.1166 -0.0023 -0.5243
   28MOL0     C 3620   5.587   2.173   7.083  0.4203 -0.1068  0.1948
   28MOL0     C 3621   5.698   2.087   7.095 -0.7064 -1.1042  0.6963
   28MOL0     O 3622   5.818   2.092   7.027 -0.3706 -1.0798  0.6769
   28MOL0     C 3623   5.822   2.172   6.904 -0.5417 -0.0550 -0.4115
   28MOL0     C 3624   5.969   2.189   6.871 -0.2729 -0.9127 -0.4152
   28MOL0     C 3625   6.010   2.261   6.746 -0.5958 -0.6290 -0.4684
   28MOL0     C 3626   5.975   2.404   6.746 -0.3381  0.2517 -0.0261
   28MOL0     C 3627   5.980   2.459   6.612  0.2783 -0.2185 -0.5902
   28MOL0     C 3628   5.981   2.500   6.499 -0.0035  0.2820  0.2295
   28MOL0     C 3629   5.687   1.979   7.179  0.5838  0.0226 -0.2537
   28MOL0     C 3630   5.564   1.952   7.259 -0.6117  0.4587 -0.2039
   28MOL0     H 3631   5.023   2.088   7.221 -0.2346  0.9436  0.9558
   28MOL0     H 3632   4.824   2.007   7.348  0.5186  0.2126  0.2918
   28MOL0     H 3633   4.873   1.920   7.757 -0.5395 -0.8690  1.8936
   28MOL0     H 3634   4.742   1.847   7.667 -1.4189  0.3630  2.2924
   28MOL0     H 3635   4.594   2.034   7.744 -2.0817 -2.0521  1.6640
   28MOL0     H 3636   4.745   2.107   7.818  0.2641  0.0967 -3.1577
   28MOL0     H 3637   4.675   2.012   8.022  0.1938 -2.2006  1.5600
   28MOL0     H 3638   4.768   1.893   7.972 -0.4734 -0.1340  0.1968
   28MOL0     H 3639   4.481   1.910   8.034 -0.8697 -0.1964 -0.6137
   28MOL0     H 3640   4.482   1.871   7.859 -0.1057 -2.2549  0.5947
   28MOL0     H 3641   4.675   1.701   7.990  0.9404 -0.7334 -1.9018
   28MOL0     H 3642   4.537   1.681   7.876 -1.7208  2.3153 -0.0539
   28MOL0     H 3643   4.376   1.684   8.054 -0.8605  0.1369  3.8830
   28MOL0     H 3644   4.506   1.701   8.170 -1.9703 -0.9525  0.6277
   28MOL0     H 3645   4.600   1.481   8.120  0.2939  0.0210  1.4590
   28MOL0     H 3646   4.433   1.478   8.176 -0.9160 -1.5690 -0.7328
   28MOL0     H 3647   4.513   1.459   7.868 -0.8919 -1.8617 -0.4626
   28MOL0     H 3648   4.353   1.461   7.933  0.8358  1.7025 -1.9977
   28MOL0     H 3649   4.685   1.266   7.928  0.2351  2.1180  1.1177
   28MOL0     H 3650   4.766   1.058   8.061 -1.2131  2.3756  1.7274
   28MOL0     H 3651   4.653   0.941   8.003  1.8629 -0.3494 -0.2047
   28MOL0     H 3652   4.552   0.921   8.243  0.5530 -1.7523 -0.8568
   28MOL0     H 3653   4.674   1.034   8.287 -3.5150  0.4030  0.8906
   28MOL0     H 3654   4.716   0.782   8.342 -2.6422 -0.8490 -0.1423
   28MOL0     H 3655   4.673   0.741   8.193 -2.4446  2.0952 -1.4842
   28MOL0     H 3656   4.881   0.825   8.086 -0.0274  0.0480 -0.0950
   28MOL0     H 3657   4.925   0.730   8.228 -0.6377 -0.2654 -0.8433
   28MOL0     H 3658   5.085   1.143   8.311 -0.8725 -1.2325 -1.9361
   28MOL0     H 3659   5.211   1.162   8.517 -0.4381  0.6735  0.0762
   28MOL0     H 3660   5.494   0.896   8.886  1.2791  0.8720  0.7562
   28MOL0     H 3661   5.580   0.945   9.112  0.9871 -1.6576  0.0639
   28MOL0     H 3662   5.634   0.977   9.345  0.3235 -0.6415 -1.3630
   28MOL0     H 3663   5.554   0.813   9.361 -0.3179 -0.2929  0.0852
   28MOL0     H 3664   5.545   1.048   9.567  3.0222 -0.3351  2.1921
   28MOL0     H 3665   5.650   0.910   9.575  0.2393  0.0029 -1.0122
   28MOL0     H 3666   5.433   0.771   9.568 -0.1407  0.5757 -4.5016
   28MOL0     H 3667   5.344   0.914   9.558 -0.4154 -0.8015  0.0436
   28MOL0     H 3668   5.360   0.835   9.793 -1.6623  2.1867 -2.2488
   28MOL0     H 3669   5.541   0.848   9.798 -0.7899 -1.1147  1.4498
   28MOL0     H 3670   5.359   1.099   9.774 -1.0074  0.4627  1.9219
   28MOL0     H 3671   5.532   1.078   9.817  0.2584 -1.0587  3.0999
   28MOL0     H 3672   5.425   0.942  10.011 -2.5901  2.3996  5.4472
   28MOL0     H 3673   5.271   0.994   9.952 -0.3154 -1.5158  1.1266
   28MOL0     H 3674   5.510   1.160  10.029 -0.4763  2.6057 -0.3164
   28MOL0     H 3675   5.373   1.248   9.955  2.4266  1.2613 -0.7518
   28MOL0     H 3676   5.239   1.172  10.160 -0.3128 -0.4453 -0.4238
   28MOL0     H 3677   5.389   1.259  10.203  3.0193 -0.9242 -0.4183
   28MOL0     H 3678   5.166   0.971   9.258  3.9624 -0.7225  3.6340
   28MOL0     H 3679   5.095   0.931   9.020  0.4564 -0.4915  0.4064
   28MOL0     H 3680   5.085   0.772   8.639  3.0219  2.3614  1.7365
   28MOL0     H 3681   4.955   0.750   8.440 -0.2461 -0.4158  1.3531
   28MOL0     H 3682   5.018   2.092   7.718 -0.3109  1.2738  0.7495
   28MOL0     H 3683   5.236   2.126   7.570  0.1389 -1.3586 -0.2845
   28MOL0     H 3684   5.389   2.214   7.141  0.3973  0.2936 -0.8369
   28MOL0     H 3685   5.586   2.255   7.011  1.9888 -2.6554 -2.9705
   28MOL0     H 3686   5.778   2.270   6.924  2.1778  1.0960  0.3399
   28MOL0     H 3687   5.773   2.121   6.821  2.9215  1.9317 -3.9751
   28MOL0     H 3688   6.028   2.216   6.959 -0.7846 -0.7717 -0.1127
   28MOL0     H 3689   6.011   2.090   6.849 -1.1455 -1.4474  0.2610
   28MOL0     H 3690   5.953   2.220   6.662 -0.9966  2.1047 -1.6358
   28MOL0     H 3691   6.116   2.234   6.739 -0.2892  0.2274  0.6079
   28MOL0     H 3692   5.872   2.415   6.780 -0.1213  0.4507  0.5711
   28MOL0     H 3693   6.043   2.459   6.811  0.8337 -1.8462  0.6126
   28MOL0     H 3694   5.996   2.534   6.399  1.2619  4.4068  1.5988
   28MOL0     H 3695   5.768   1.911   7.203  1.2473  0.6055 -0.7964
   28MOL0     H 3696   5.544   1.862   7.315 -0.2519  3.2011  4.9145
   29MOL0     O 3697   9.606   0.063  10.032 -0.4946 -0.2763  0.2279
   29MOL0     C 3698   9.508  -0.012  10.042 -0.4913  0.7038  0.4958
   29MOL0     O 3699   9.406  -0.025   9.948  0.5982 -0.0052  0.1690
   29MOL0     C 3700   9.390   0.068   9.845 -0.0261 -1.1658 -1.1441
   29MOL0     C 3701   9.350   0.023   9.721  0.1887  0.2057  0.0264
   29MOL0     C 3702   9.334   0.125   9.618  0.1388  0.2998  0.1157
   29MOL0     C 3703   9.359   0.263   9.641  0.7047 -0.8315  0.2352
   29MOL0     O 3704   9.351   0.355   9.533  0.3255 -0.1811 -0.3476
   29MOL0     C 3705   9.307   0.490   9.553  0.0217 -0.2484  0.5687
   29MOL0     C 3706   9.243   0.553   9.421 -0.2989 -0.4934  0.1933
   29MOL0     C 3707   9.178   0.696   9.442 -0.3428 -0.2929  0.7674
   29MOL0     C 3708   9.034   0.701   9.493  0.2704  0.0715  0.4246
   29MOL0     C 3709   8.998   0.841   9.532 -0.2329  0.5489  0.7193
   29MOL0     C 3710   8.889   0.848   9.636 -0.2163  0.2400  0.3002
   29MOL0     C 3711   8.875   0.999   9.677  0.5708  0.5845 -0.6580
   29MOL0     C 3712   8.962   1.028   9.797 -1.0125 -0.1344  0.8772
   29MOL0     N 3713   9.010   1.167   9.805  0.3478 -0.1873 -0.9101
   29MOL0     C 3714   9.133   1.214   9.761  0.1814  0.3612  0.0767
   29MOL0     C 3715   9.139   1.342   9.815 -1.2486 -0.5467  0.4293
   29MOL0     C 3716   9.248   1.451   9.815 -0.0840 -0.3875  0.2210
   29MOL0     C 3717   9.359   1.429   9.920  0.2980  0.6686  0.1142
   29MOL0     C 3718   9.464   1.339   9.856  0.5172 -0.5025  0.0035
   29MOL0     C 3719   9.559   1.288   9.960 -0.3165 -0.4539 -0.0119
   29MOL0     O 3720   9.641   1.204   9.877 -0.5408 -0.0540  0.2110
   29MOL0     C 3721   9.762   1.159   9.937  0.5675  0.8198 -0.6596
   29MOL0     C 3722   9.872   1.132   9.859  0.5027  0.8630  0.7535
   29MOL0     C 3723   9.971   1.056   9.913  0.7334 -0.4135  0.2003
   29MOL0     C 3724   9.956   1.009  10.047  0.0645 -0.5252 -0.7287
   29MOL0     C 3725  10.051   0.900  10.093 -0.4011  0.1133 -0.8004
   29MOL0     O 3726  10.124   0.840  10.002  0.5782 -0.6263  1.2406
   29MOL0     C 3727  10.215   0.748  10.056  0.9678 -0.6151 -0.5162
   29MOL0     C 3728  10.191   0.610  10.056 -0.4649 -0.4073  0.3870
   29MOL0     C 3729  10.280   0.518  10.112 -0.1788  0.0167 -0.7352
   29MOL0     C 3730  10.405   0.564  10.143  0.5442  1.3760 -0.1684
   29MOL0     O 3731  10.503   0.474  10.169 -0.0938 -1.0469 -0.5041
   29MOL0     C 3732  10.567   0.478  10.296 -0.4567 -0.0027 -0.4833
   29MOL0     C 3733  10.722   0.470  10.284 -0.3272 -0.3743  0.2999
   29MOL0     C 3734  10.778   0.412  10.406  0.8042  0.0893  0.8518
   29MOL0     C 3735  10.925   0.434  10.409  0.7380  0.0718 -0.5556
   29MOL0     C 3736  10.981   0.390  10.545  0.1886  0.0987  0.1375
   29MOL0     C 3737  11.137   0.386  10.527  0.8559  0.4628  0.1312
   29MOL0     C 3738  11.208   0.357  10.666  0.5445  0.6087  0.3995
   29MOL0     C 3739  11.348   0.307  10.646  0.3831  1.3884 -1.2167
   29MOL0    Cl 3740  11.344   0.138  10.567 -0.5791  0.0511  0.1329
   29MOL0     C 3741  10.431   0.697  10.152 -0.1398 -0.1232 -0.4413
   29MOL0     C 3742  10.336   0.791  10.113  0.3644 -0.5316  0.7524
   29MOL0     O 3743  10.053   0.870  10.216  0.4730 -1.6092 -0.2419
   29MOL0     C 3744   9.847   1.039  10.130  0.2653  0.6205 -0.8515
   29MOL0     C 3745   9.748   1.107  10.066 -0.2830  0.5374  0.4224
   29MOL0     N 3746   9.024   1.372   9.878  0.3748 -0.2142 -0.6872
   29MOL0     N 3747   8.942   1.272   9.872  0.0072  0.9867  0.1856
   29MOL0     C 3748   9.404   0.302   9.770 -0.2920  0.2632 -0.1259
   29MOL0     C 3749   9.408   0.206   9.872 -0.8641 -0.7176 -0.2337
   29MOL0     C 3750   9.502  -0.104  10.146  0.2749 -0.6142 -0.0140
   29MOL0     C 3751   9.380  -0.160  10.193 -0.2094 -0.1852 -0.2393
   29MOL0     C 3752   9.382  -0.260  10.295 -0.2085 -1.1764 -0.7475
   29MOL0     C 3753   9.503  -0.301  10.355  0.5831 -0.4919 -0.8720
   29MOL0     O 3754   9.481  -0.365  10.477 -0.4045 -0.3791 -0.0941
   29MOL0     C 3755   9.577  -0.363  10.579 -0.7617  0.4474 -1.1167
   29MOL0     C 3756   9.627  -0.504  10.608  0.6451  0.7530  0.7633
   29MOL0     C 3757   9.738  -0.565  10.505 -0.0123  0.3917  0.3827
   29MOL0     C 3758   9.878  -0.524  10.535 -0.2578  0.1065 -1.4274
   29MOL0     C 3759   9.977  -0.623  10.482  0.5459 -0.5732 -0.3016
   29MOL0     C 3760  10.042  -0.710  10.428  0.4880  0.3581 -0.3476
   29MOL0     C 3761   9.618  -0.235  10.310 -0.3985  0.6986  0.7600
   29MOL0     C 3762   9.618  -0.141  10.205  0.1793 -0.0864  0.8727
   29MOL0     H 3763   9.336  -0.083   9.705  0.5370 -0.3087  2.6893
   29MOL0     H 3764   9.314   0.083   9.520  0.0591  1.4326 -0.3628
   29MOL0     H 3765   9.378   0.565   9.590 -2.3609  3.5020 -1.8086
   29MOL0     H 3766   9.221   0.481   9.619 -0.0914  0.2760  0.4978
   29MOL0     H 3767   9.181   0.483   9.364  0.2275  0.9070 -2.2616
   29MOL0     H 3768   9.333   0.586   9.368  1.6544  2.7160  4.8818
   29MOL0     H 3769   9.192   0.750   9.348  0.7630  0.8389  1.5409
   29MOL0     H 3770   9.238   0.750   9.516  0.8932 -2.7438  1.6778
   29MOL0     H 3771   8.957   0.662   9.425  3.4492 -0.4991 -3.2209
   29MOL0     H 3772   9.028   0.634   9.579  3.2792 -1.1969 -0.2377
   29MOL0     H 3773   8.978   0.910   9.451 -0.2198 -0.1083  0.1439
   29MOL0     H 3774   9.082   0.890   9.582  0.9027  0.3272 -0.8977
   29MOL0     H 3775   8.939   0.792   9.715 -0.4860 -2.0474 -1.0850
   29MOL0     H 3776   8.793   0.803   9.609 -0.9643  1.6063  0.5805
   29MOL0     H 3777   8.898   1.066   9.594  0.3723  0.9638 -0.4080
   29MOL0     H 3778   8.773   1.032   9.701  0.8241  0.1583  1.1556
   29MOL0     H 3779   9.046   0.960   9.783 -2.6510 -2.0156 -0.3830
   29MOL0     H 3780   8.922   0.998   9.894  0.6502  2.4548  2.4884
   29MOL0     H 3781   9.213   1.170   9.702  0.8426  1.4201  0.1758
   29MOL0     H 3782   9.204   1.549   9.836 -1.1142 -1.2093  2.1202
   29MOL0     H 3783   9.300   1.452   9.719  0.5888 -0.6818  0.5723
   29MOL0     H 3784   9.315   1.384  10.010 -4.4406 -0.0322 -2.2062
   29MOL0     H 3785   9.399   1.528   9.937  1.4242 -0.0974  2.2975
   29MOL0     H 3786   9.413   1.254   9.809 -1.3591 -0.9180  2.5573
   29MOL0     H 3787   9.525   1.399   9.787 -0.0714 -0.1948 -0.2554
   29MOL0     H 3788   9.509   1.236  10.042  1.3636  2.6484  3.2260
   29MOL0     H 3789   9.621   1.362  10.010  0.4874 -0.9662 -0.2328
   29MOL0     H 3790   9.878   1.187   9.765 -1.3738 -0.5619 -0.2489
   29MOL0     H 3791  10.063   1.033   9.860  0.5694  1.8561 -1.1803
   29MOL0     H 3792  10.098   0.573  10.013 -1.4015 -1.5382  3.1414
   29MOL0     H 3793  10.252   0.413  10.116  3.2069 -1.0442 -0.8718
   29MOL0     H 3794  10.533   0.386  10.345  2.0421 -0.8212 -0.1674
   29MOL0     H 3795  10.534   0.565  10.352 -1.3956 -0.4220 -0.3623
   29MOL0     H 3796  10.766   0.570  10.291  0.6112 -0.6768 -0.9629
   29MOL0     H 3797  10.762   0.416  10.198 -3.6292  2.9972 -3.8638
   29MOL0     H 3798  10.765   0.303  10.403 -0.3141  0.2120  0.8480
   29MOL0     H 3799  10.711   0.441  10.488 -0.9427 -2.4248  0.4632
   29MOL0     H 3800  10.978   0.387  10.325 -1.4063 -4.8115  0.4934
   29MOL0     H 3801  10.929   0.542  10.395 -1.4151 -0.1399 -4.7941
   29MOL0     H 3802  10.931   0.294  10.561 -1.5428  0.7382 -1.0837
   29MOL0     H 3803  10.960   0.447  10.636 -3.0815 -2.0311  0.8998
   29MOL0     H 3804  11.179   0.478  10.483 -1.6018  2.3810  1.5654
   29MOL0     H 3805  11.153   0.306  10.454  1.0460  1.4463 -0.9462
   29MOL0     H 3806  11.207   0.453  10.718  0.0632  0.2847  1.0012
   29MOL0     H 3807  11.148   0.282  10.720  1.6257  0.1522  1.0020
   29MOL0     H 3808  11.407   0.298  10.738  0.9133  0.6881 -1.6049
   29MOL0     H 3809  11.406   0.366  10.575  1.9663 -0.1797 -1.3162
   29MOL0     H 3810  10.532   0.722  10.182  0.0133 -1.6947  0.5286
   29MOL0     H 3811  10.368   0.895  10.118  3.4169 -1.3419  0.2168
   29MOL0     H 3812   9.828   1.008  10.232 -0.2205  1.8920 -0.5288
   29MOL0     H 3813   9.653   1.115  10.118 -1.4843 -2.6180 -1.0228
   29MOL0     H 3814   9.419   0.407   9.792 -0.4295  0.4872 -1.0657
   29MOL0     H 3815   9.445   0.236   9.969  1.0974 -2.7420 -0.2697
   29MOL0     H 3816   9.282  -0.130  10.157  1.3681  0.5812 -4.5654
   29MOL0     H 3817   9.295  -0.305  10.342 -2.1571  1.1481 -1.9307
   29MOL0     H 3818   9.517  -0.334  10.666 -1.6094  0.0442 -1.5508
   29MOL0     H 3819   9.646  -0.280  10.561 -1.7566  1.1630 -1.7277
   29MOL0     H 3820   9.682  -0.494  10.702  3.4099 -1.7893 -0.4029
   29MOL0     H 3821   9.542  -0.569  10.630 -0.3203  1.1118 -1.6380
   29MOL0     H 3822   9.712  -0.539  10.402  0.0875  3.0902  0.9539
   29MOL0     H 3823   9.726  -0.673  10.515 -1.6785  0.4472 -0.6385
   29MOL0     H 3824   9.892  -0.421  10.499 -1.5053  1.0262  0.5512
   29MOL0     H 3825   9.896  -0.523  10.643 -1.7178  4.5792 -1.0079
   29MOL0     H 3826  10.115  -0.773  10.381  1.0587  1.2271 -0.6545
   29MOL0     H 3827   9.710  -0.256  10.364 -0.3605  0.4163  0.5886
   29MOL0     H 3828   9.711  -0.088  10.190  0.4687 -0.7379  0.3318
   30MOL0     O 3829   2.128   9.733   4.412  0.4537 -0.0502 -0.6185
   30MOL0     C 3830   2.095   9.844   4.452 -0.1122  0.0561 -0.1962
   30MOL0     O 3831   2.026   9.948   4.384  0.2016 -0.5027  0.1532
   30MOL0     C 3832   1.965   9.923   4.262  0.0572 -1.4269 -0.1885
   30MOL0     C 3833   1.854   9.990   4.236  1.6773  0.1905 -0.6433
   30MOL0     C 3834   1.794   9.994   4.112 -0.5393  0.2544 -0.1170
   30MOL0     C 3835   1.856   9.944   3.998  0.6264 -0.7030 -0.6669
   30MOL0     O 3836   1.789   9.972   3.880  0.3270  0.3243  0.3668
   30MOL0     C 3837   1.751   9.853   3.802 -0.5648 -0.4484 -0.8025
   30MOL0     C 3838   1.675   9.891   3.674 -0.1912 -1.1355 -0.3709
   30MOL0     C 3839   1.526   9.943   3.701 -0.0106 -0.3469  0.5615
   30MOL0     C 3840   1.426   9.914   3.591 -1.1253 -0.9391  1.0155
   30MOL0     C 3841   1.456   9.986   3.453  0.2759  0.5053  0.8894
   30MOL0     C 3842   1.449   9.892   3.337  0.4416 -0.1380  0.1954
   30MOL0     C 3843   1.485   9.949   3.206 -0.3813 -0.5189 -0.1001
   30MOL0     C 3844   1.369  10.041   3.149  0.1649  0.0248  0.3192
   30MOL0     N 3845   1.382  10.082   3.009 -0.3242 -0.2195  0.3894
   30MOL0     C 3846   1.357  10.001   2.899 -0.4075  0.2057  0.3308
   30MOL0     C 3847   1.382  10.076   2.794  0.4016 -0.3316  0.6358
   30MOL0     C 3848   1.374  10.029   2.645 -0.6694  0.1105 -0.1631
   30MOL0     C 3849   1.238  10.048   2.580  0.1847  0.0367 -0.1472
   30MOL0     C 3850   1.197  10.004   2.436 -0.7097 -1.4714 -0.1787
   30MOL0     C 3851   1.184   9.848   2.428 -0.8159 -0.2360 -1.0850
   30MOL0     O 3852   1.167   9.809   2.289 -0.1430  0.7942 -0.4290
   30MOL0     C 3853   1.047   9.833   2.229  0.1867 -0.1783  0.3422
   30MOL0     C 3854   1.042   9.815   2.090 -0.5720 -0.0677  0.7487
   30MOL0     C 3855   0.922   9.837   2.019 -0.3306  0.2346  0.3466
   30MOL0     C 3856   0.807   9.864   2.087 -0.3895  0.0409 -0.0357
   30MOL0     C 3857   0.675   9.873   2.014  0.4015 -0.7850  0.0510
   30MOL0     O 3858   0.560   9.861   2.084 -0.2862 -0.7671 -0.7982
   30MOL0     C 3859   0.441   9.886   2.015 -0.3074  0.9191  0.0631
   30MOL0     C 3860   0.394   9.774   1.939  0.8824  0.2338  0.3067
   30MOL0     C 3861   0.277   9.788   1.870  0.0484  0.8178  0.9034
   30MOL0     C 3862   0.206   9.909   1.865 -0.6475  0.9322  0.1524
   30MOL0     O 3863   0.089   9.915   1.785 -0.0302  0.9498  0.4590
   30MOL0     C 3864  -0.012  10.022   1.823 -0.3198  0.7092 -0.9122
   30MOL0     C 3865  -0.100  10.039   1.697 -0.1645 -0.3250 -0.2721
   30MOL0     C 3866  -0.163   9.910   1.650 -0.1159 -0.2733 -0.0534
   30MOL0     C 3867  -0.274   9.919   1.546 -0.1064  0.4405 -0.9813
   30MOL0     C 3868  -0.326   9.772   1.533 -0.0816  0.5348 -0.0525
   30MOL0     C 3869  -0.428   9.757   1.413 -0.5104  0.3428 -0.5984
   30MOL0     C 3870  -0.478   9.617   1.384  0.5529  0.2019  0.7968
   30MOL0     C 3871  -0.506   9.612   1.227 -0.3429 -0.8769  0.7902
   30MOL0    Cl 3872  -0.615   9.744   1.175  0.1355 -0.4328 -0.4183
   30MOL0     C 3873   0.266  10.010   1.927 -0.6716 -0.3204  1.0789
   30MOL0     C 3874   0.379  10.002   1.999 -0.4761 -0.4813  0.3574
   30MOL0     O 3875   0.691   9.900   1.898 -0.4743  0.0927  0.0566
   30MOL0     C 3876   0.810   9.876   2.228  0.0234 -1.4211 -0.3987
   30MOL0     C 3877   0.927   9.862   2.296 -0.2570  0.2563 -0.2407
   30MOL0     N 3878   1.445  10.197   2.839 -0.4812 -0.1615 -0.3435
   30MOL0     N 3879   1.437  10.199   2.972 -0.4750  0.1365 -0.2457
   30MOL0     C 3880   1.968   9.870   4.018 -0.5093 -0.5190 -0.3432
   30MOL0     C 3881   2.024   9.861   4.152  0.3883  0.1523 -0.2831
   30MOL0     C 3882   2.151   9.891   4.576  0.3029 -0.3937  0.4621
   30MOL0     C 3883   2.127  10.009   4.632  0.4015  0.1071 -0.4692
   30MOL0     C 3884   2.185  10.056   4.753  0.1791 -0.8561 -0.5255
   30MOL0     C 3885   2.273   9.977   4.818 -0.3896  0.6786 -0.5354
   30MOL0     O 3886   2.337  10.007   4.940 -0.3598  0.3487  0.0269
   30MOL0     C 3887   2.301  10.125   5.017 -0.6711  0.3016  0.5331
   30MOL0     C 3888   2.189  10.103   5.126 -0.0351  0.7773 -0.7001
   30MOL0     C 3889   2.041  10.113   5.068  0.0924  0.3722 -0.5737
   30MOL0     C 3890   1.941  10.160   5.177 -0.2447  0.8540 -0.4336
   30MOL0     C 3891   1.805  10.172   5.123 -0.3395  0.0000 -0.5380
   30MOL0     C 3892   1.703  10.184   5.069  0.7000  0.4513  0.0285
   30MOL0     C 3893   2.298   9.850   4.760 -0.1150 -0.2979  0.0511
   30MOL0     C 3894   2.239   9.805   4.641  0.7612 -0.1661  0.1378
   30MOL0     H 3895   1.807  10.032   4.325  2.3135  2.3293 -1.2737
   30MOL0     H 3896   1.700  10.048   4.104  0.0090  1.5727  1.8746
   30MOL0     H 3897   1.688   9.787   3.862  0.1048 -0.9533 -0.6479
   30MOL0     H 3898   1.843   9.807   3.765  0.9425  1.6949  0.0623
   30MOL0     H 3899   1.661   9.805   3.609 -1.9407 -1.6661  0.6357
   30MOL0     H 3900   1.725   9.968   3.615 -2.1036 -1.1711 -2.1487
   30MOL0     H 3901   1.528  10.052   3.708 -0.1548  0.2279 -4.3773
   30MOL0     H 3902   1.494   9.892   3.792  2.3947  0.8081  2.1610
   30MOL0     H 3903   1.409   9.809   3.565 -1.0540 -0.1364 -2.8105
   30MOL0     H 3904   1.333   9.955   3.632 -1.4939 -1.1570  0.4186
   30MOL0     H 3905   1.557  10.029   3.442  0.2489  0.4048  0.2392
   30MOL0     H 3906   1.393  10.075   3.458  1.8790  1.6470  2.3409
   30MOL0     H 3907   1.347   9.852   3.338  0.0424  0.7946 -0.9036
   30MOL0     H 3908   1.516   9.806   3.352  1.9092  0.7120 -1.1973
   30MOL0     H 3909   1.576  10.006   3.227 -0.3969 -0.9157  1.0975
   30MOL0     H 3910   1.504   9.876   3.126 -0.8415 -2.2532  1.3171
   30MOL0     H 3911   1.358  10.130   3.212  2.8731  0.6966 -0.0640
   30MOL0     H 3912   1.270   9.993   3.155 -0.6808  1.8068  1.5531
   30MOL0     H 3913   1.320   9.899   2.899  4.0993 -1.6268  1.5339
   30MOL0     H 3914   1.396   9.923   2.653  1.2819  0.3047 -1.9495
   30MOL0     H 3915   1.459  10.075   2.593 -0.3722  1.4035  1.3997
   30MOL0     H 3916   1.221  10.156   2.580  4.8591  1.0273 -2.1332
   30MOL0     H 3917   1.170  10.023   2.662  1.5548  2.2127  1.7896
   30MOL0     H 3918   1.100  10.050   2.416 -0.7563 -1.7198 -0.5291
   30MOL0     H 3919   1.271  10.038   2.363  1.3986 -2.9782  1.1378
   30MOL0     H 3920   1.107   9.798   2.488 -2.3271 -0.4016 -3.0572
   30MOL0     H 3921   1.279   9.796   2.444  0.4955  2.3221 -0.1637
   30MOL0     H 3922   1.139   9.793   2.046 -1.2198 -0.7929 -0.3736
   30MOL0     H 3923   0.923   9.828   1.911 -1.3328 -2.2098  0.4810
   30MOL0     H 3924   0.428   9.673   1.956 -1.1727 -0.3357  1.3832
   30MOL0     H 3925   0.232   9.705   1.816 -1.0057  1.6304  0.5120
   30MOL0     H 3926   0.034  10.120   1.839  0.1241  0.5341 -1.1082
   30MOL0     H 3927  -0.054   9.978   1.914  1.4282 -4.9065 -2.4403
   30MOL0     H 3928  -0.030  10.066   1.617 -0.6614  0.1650 -0.5561
   30MOL0     H 3929  -0.164  10.127   1.709  2.8039  1.9673 -0.1674
   30MOL0     H 3930  -0.206   9.862   1.738 -0.0072  0.2468  0.2900
   30MOL0     H 3931  -0.083   9.844   1.614 -2.0647 -1.7664 -1.8465
   30MOL0     H 3932  -0.352   9.990   1.573  0.5813  0.7399  0.3019
   30MOL0     H 3933  -0.233   9.949   1.449  1.2130 -1.3529 -1.0259
   30MOL0     H 3934  -0.371   9.732   1.625  0.6116 -4.0512 -1.4585
   30MOL0     H 3935  -0.236   9.712   1.517  0.0369  1.4253 -3.3971
   30MOL0     H 3936  -0.376   9.798   1.326 -0.3898  1.0154 -0.2197
   30MOL0     H 3937  -0.519   9.815   1.427 -1.1622 -1.0157  1.2012
   30MOL0     H 3938  -0.406   9.545   1.424  0.6120 -0.3893 -0.3242
   30MOL0     H 3939  -0.566   9.603   1.447  0.5347  1.9572  1.1936
   30MOL0     H 3940  -0.541   9.516   1.187  2.6521 -1.4617 -0.7167
   30MOL0     H 3941  -0.413   9.647   1.180 -0.4652 -0.4886  0.8334
   30MOL0     H 3942   0.215  10.105   1.930 -2.6382 -1.2827 -0.2716
   30MOL0     H 3943   0.419  10.088   2.052  4.0885 -0.3790 -2.6698
   30MOL0     H 3944   0.714   9.894   2.277  1.5069  1.1310  1.8538
   30MOL0     H 3945   0.932   9.885   2.402 -1.1991  0.4944 -0.2397
   30MOL0     H 3946   2.023   9.828   3.934  0.8098  0.9023 -0.2214
   30MOL0     H 3947   2.119   9.808   4.152  0.3657  0.0696  0.9553
   30MOL0     H 3948   2.050  10.070   4.584  1.3291  0.9573 -0.9200
   30MOL0     H 3949   2.154  10.149   4.799 -1.5707 -1.0908 -1.1498
   30MOL0     H 3950   2.265  10.211   4.959 -0.5745  1.1456  1.7027
   30MOL0     H 3951   2.394  10.151   5.068 -0.7885  1.3485  0.2476
   30MOL0     H 3952   2.205  10.009   5.178 -0.5235  1.2511  0.3354
   30MOL0     H 3953   2.197  10.179   5.205 -3.0734 -0.5931  1.0947
   30MOL0     H 3954   2.009  10.018   5.024  2.1605  0.2141 -1.8924
   30MOL0     H 3955   2.041  10.184   4.985  3.4234  2.3677  0.9588
   30MOL0     H 3956   1.921  10.089   5.259 -2.8958  2.7349  0.7199
   30MOL0     H 3957   1.972  10.256   5.218 -2.6337  0.6433  2.2114
   30MOL0     H 3958   1.598  10.190   5.048 -0.0541 -1.6912  2.5568
   30MOL0     H 3959   2.356   9.789   4.828 -0.1327 -1.0477 -0.5905
   30MOL0     H 3960   2.254   9.704   4.605  0.0143 -0.8666  1.7340
   31MOL0     O 3961   4.888   4.948   3.903 -0.6105 -0.0726 -0.2525
   31MOL0     C 3962   4.846   4.936   4.016 -0.4414  0.3256  0.3143
   31MOL0     O 3963   4.849   4.824   4.084 -0.7575  0.2458 -0.1590
   31MOL0     C 3964   4.881   4.698   4.030  0.6792 -0.8534 -0.3534
   31MOL0     C 3965   4.978   4.616   4.082 -1.0585  0.6748 -0.1512
   31MOL0     C 3966   5.019   4.497   4.023 -0.1396  0.4726 -0.1477
   31MOL0     C 3967   4.956   4.448   3.915  0.2146  1.0077  0.0367
   31MOL0     O 3968   4.985   4.325   3.863  0.7455 -0.7760 -0.1292
   31MOL0     C 3969   4.983   4.214   3.949 -0.8929  0.4098 -0.1075
   31MOL0     C 3970   4.871   4.203   4.057  0.5145 -0.4472  0.7458
   31MOL0     C 3971   4.924   4.126   4.166 -0.0823  0.2420  0.3688
   31MOL0     C 3972   4.799   4.114   4.269  0.1939 -0.0852 -0.1428
   31MOL0     C 3973   4.817   4.005   4.370  0.4484  0.7007  0.0757
   31MOL0     C 3974   4.905   4.036   4.484  0.6778 -0.9477 -0.4450
   31MOL0     C 3975   4.900   3.919   4.585  0.1860  0.4865  0.3080
   31MOL0     C 3976   4.958   3.771   4.551  0.3488 -0.2767  0.1442
   31MOL0     N 3977   4.859   3.663   4.549  0.0733 -0.2888  0.1692
   31MOL0     C 3978   4.818   3.604   4.431  0.0120  1.4056 -0.3587
   31MOL0     C 3979   4.725   3.505   4.474  0.4683 -0.3630  0.5413
   31MOL0     C 3980   4.684   3.399   4.374  0.4424  0.2648  0.3385
   31MOL0     C 3981   4.559   3.316   4.419  0.5448  0.4003  0.5975
   31MOL0     C 3982   4.520   3.222   4.297 -0.3786  0.3240  0.2778
   31MOL0     C 3983   4.626   3.118   4.244 -0.7622  0.0131 -0.5432
   31MOL0     O 3984   4.681   3.047   4.353 -0.0142 -0.4896 -0.4070
   31MOL0     C 3985   4.624   2.925   4.378  0.4935  0.5678  0.9869
   31MOL0     C 3986   4.499   2.909   4.455  0.0222 -0.1704 -0.1635
   31MOL0     C 3987   4.433   2.785   4.456 -0.1532 -0.6488 -0.3186
   31MOL0     C 3988   4.481   2.672   4.401  0.4330 -0.2878  0.8778
   31MOL0     C 3989   4.403   2.547   4.411 -0.5002  0.1209  0.8177
   31MOL0     O 3990   4.354   2.525   4.540  0.0644 -0.1335  0.2455
   31MOL0     C 3991   4.320   2.398   4.575  0.8293 -0.0382 -0.9416
   31MOL0     C 3992   4.194   2.384   4.646 -0.7208 -0.8712 -0.0652
   31MOL0     C 3993   4.155   2.261   4.705 -0.3716  0.0976  0.7537
   31MOL0     C 3994   4.231   2.144   4.683  1.1581 -1.2433 -1.3992
   31MOL0     O 3995   4.185   2.033   4.739 -0.0440  0.5979  0.6496
   31MOL0     C 3996   4.047   2.015   4.772  0.7108  0.3479  1.0646
   31MOL0     C 3997   4.015   1.875   4.833  0.5737  0.2552  0.6500
   31MOL0     C 3998   4.096   1.865   4.962  0.0013 -0.8418  0.6038
   31MOL0     C 3999   4.114   1.727   5.022 -0.0072  0.2725  0.1719
   31MOL0     C 4000   4.191   1.731   5.157  0.0694 -0.0491 -0.2511
   31MOL0     C 4001   4.267   1.605   5.188 -0.8785 -0.7637  1.0769
   31MOL0     C 4002   4.373   1.623   5.296  0.6324 -0.0045 -0.4469
   31MOL0     C 4003   4.443   1.500   5.359  0.1398  0.2512  0.2370
   31MOL0    Cl 4004   4.319   1.369   5.366  0.3585  0.0875  0.3399
   31MOL0     C 4005   4.356   2.158   4.621  0.2921 -0.8737  0.5232
   31MOL0     C 4006   4.390   2.280   4.561  0.0853 -0.6507  0.3325
   31MOL0     O 4007   4.388   2.477   4.310 -0.4673 -0.3747 -0.5518
   31MOL0     C 4008   4.595   2.688   4.325 -1.0251  0.6986  1.1032
   31MOL0     C 4009   4.663   2.811   4.300  0.7747 -0.0542  0.0632
   31MOL0     N 4010   4.710   3.512   4.608  0.2759  0.0400 -0.2019
   31MOL0     N 4011   4.791   3.602   4.654 -1.0557 -0.8843  0.3391
   31MOL0     C 4012   4.853   4.519   3.864 -0.0091  0.2530  0.3379
   31MOL0     C 4013   4.820   4.644   3.916  0.5349 -0.3915  0.0033
   31MOL0     C 4014   4.779   5.052   4.066  0.5315 -0.6338  0.1849
   31MOL0     C 4015   4.693   5.042   4.180 -0.6732 -0.1820  0.5696
   31MOL0     C 4016   4.631   5.154   4.232 -0.2586  0.5352 -0.1642
   31MOL0     C 4017   4.662   5.281   4.177  0.6328 -0.1053  0.4677
   31MOL0     O 4018   4.605   5.401   4.209  0.0520 -0.3980  0.9446
   31MOL0     C 4019   4.522   5.415   4.327  0.0220  1.0503  0.2109
   31MOL0     C 4020   4.377   5.379   4.289 -0.2736 -0.3114  0.4047
   31MOL0     C 4021   4.302   5.506   4.251 -0.1138 -0.2048  0.5177
   31MOL0     C 4022   4.150   5.476   4.225 -0.1279 -0.1119  0.6634
   31MOL0     C 4023   4.064   5.471   4.343  0.0803 -0.4610  0.6948
   31MOL0     C 4024   4.010   5.464   4.450  0.4445  0.5608 -0.7238
   31MOL0     C 4025   4.745   5.287   4.068  0.2243 -0.8565 -0.7758
   31MOL0     C 4026   4.808   5.183   4.009  0.1013  0.3203 -0.1844
   31MOL0     H 4027   5.031   4.642   4.172  1.0241 -1.4439 -0.6629
   31MOL0     H 4028   5.101   4.439   4.062  0.1705 -0.0370 -1.4786
   31MOL0     H 4029   5.078   4.202   4.001  0.6449  2.6068 -2.1813
   31MOL0     H 4030   4.981   4.129   3.881 -0.2192  0.9878 -0.8782
   31MOL0     H 4031   4.783   4.151   4.018 -0.2975  0.6413  1.0719
   31MOL0     H 4032   4.836   4.300   4.093  0.9140  0.4326 -1.1359
   31MOL0     H 4033   5.003   4.174   4.225 -1.1432  2.9659 -0.2509
   31MOL0     H 4034   4.966   4.035   4.125  1.2162  0.3170  1.4559
   31MOL0     H 4035   4.793   4.207   4.327 -2.0058 -0.6025  0.5700
   31MOL0     H 4036   4.702   4.102   4.219  0.2095 -1.1314  0.0649
   31MOL0     H 4037   4.847   3.905   4.335 -2.0921 -0.9795  2.2634
   31MOL0     H 4038   4.713   3.987   4.401  0.4031 -1.4192 -1.0833
   31MOL0     H 4039   4.866   4.121   4.540  1.4538 -1.0544  0.2664
   31MOL0     H 4040   5.010   4.048   4.455  0.3817  2.4175 -0.4375
   31MOL0     H 4041   4.943   3.962   4.676 -1.2401  2.5438  0.1024
   31MOL0     H 4042   4.795   3.901   4.610  0.9890 -5.7222  0.6155
   31MOL0     H 4043   5.028   3.752   4.633  0.4723  1.7119  0.5501
   31MOL0     H 4044   5.019   3.761   4.461 -0.9536 -2.3670 -0.5702
   31MOL0     H 4045   4.859   3.621   4.332  0.3929  0.5821 -0.3463
   31MOL0     H 4046   4.765   3.331   4.346  0.1674  1.0033 -2.6242
   31MOL0     H 4047   4.659   3.448   4.279  2.7534 -1.3545 -1.2445
   31MOL0     H 4048   4.475   3.383   4.441  1.0053  1.0221  0.4922
   31MOL0     H 4049   4.568   3.251   4.506  1.5360 -1.9046 -1.1317
   31MOL0     H 4050   4.425   3.172   4.322  1.3454 -2.8073  1.1066
   31MOL0     H 4051   4.500   3.272   4.202 -0.0181 -3.8951 -2.2908
   31MOL0     H 4052   4.711   3.173   4.200 -0.2072 -2.0993 -2.3031
   31MOL0     H 4053   4.588   3.063   4.157 -0.4381  0.9953 -1.3377
   31MOL0     H 4054   4.460   3.004   4.489  1.3481 -0.1572  1.5009
   31MOL0     H 4055   4.347   2.787   4.523  0.1425  4.1915  0.2900
   31MOL0     H 4056   4.126   2.468   4.651  1.3836  0.8931  0.2136
   31MOL0     H 4057   4.071   2.278   4.771  0.8274 -0.3352  2.4560
   31MOL0     H 4058   3.989   2.043   4.684  1.9289 -0.3687  0.0076
   31MOL0     H 4059   4.015   2.091   4.845 -0.5700  0.9249 -0.0571
   31MOL0     H 4060   4.057   1.805   4.760  3.5185  2.0737  0.4209
   31MOL0     H 4061   3.906   1.864   4.841  0.0211  2.7874 -1.7729
   31MOL0     H 4062   4.058   1.939   5.034  0.3343  0.0834 -0.1439
   31MOL0     H 4063   4.196   1.901   4.936 -1.0320 -0.4955 -3.6383
   31MOL0     H 4064   4.016   1.686   5.045 -0.0476  0.0277 -0.4104
   31MOL0     H 4065   4.168   1.662   4.953  2.0879  1.0228  1.0138
   31MOL0     H 4066   4.114   1.732   5.235  1.6066  0.2925  1.3109
   31MOL0     H 4067   4.260   1.815   5.164  1.7324 -1.4000  0.4092
   31MOL0     H 4068   4.317   1.560   5.102  1.2289  0.1693  1.7511
   31MOL0     H 4069   4.192   1.531   5.217  0.1438 -1.6629  1.4493
   31MOL0     H 4070   4.451   1.687   5.254  0.1409  0.2504 -0.9793
   31MOL0     H 4071   4.312   1.680   5.367  0.1703  0.4719 -1.2062
   31MOL0     H 4072   4.485   1.520   5.458 -0.8930  0.5390  0.6267
   31MOL0     H 4073   4.530   1.463   5.305 -0.8033 -0.1515 -1.0364
   31MOL0     H 4074   4.412   2.065   4.619  4.8624  1.6332  0.4387
   31MOL0     H 4075   4.489   2.302   4.522  0.9996  0.4772  3.0090
   31MOL0     H 4076   4.634   2.607   4.264 -2.7213 -0.7272  1.8141
   31MOL0     H 4077   4.739   2.824   4.224  0.8650  0.7955  0.2836
   31MOL0     H 4078   4.787   4.487   3.784  2.0803 -0.4646 -1.1959
   31MOL0     H 4079   4.740   4.704   3.872  1.6599 -0.9135 -2.9779
   31MOL0     H 4080   4.674   4.943   4.223 -0.9679  0.7357  2.6978
   31MOL0     H 4081   4.567   5.142   4.320 -0.1526  1.4640  0.0587
   31MOL0     H 4082   4.531   5.511   4.380  1.2256 -0.0104  2.0274
   31MOL0     H 4083   4.570   5.341   4.392 -1.8831 -1.4812 -1.1371
   31MOL0     H 4084   4.369   5.306   4.208  0.3753  1.3132 -1.2008
   31MOL0     H 4085   4.331   5.332   4.377  0.1233  0.8648  1.2632
   31MOL0     H 4086   4.353   5.547   4.163 -0.8362 -2.9718 -1.3239
   31MOL0     H 4087   4.302   5.578   4.333  1.6021  0.5041 -0.0526
   31MOL0     H 4088   4.108   5.557   4.164 -0.2558 -0.2929  0.5151
   31MOL0     H 4089   4.147   5.378   4.177  2.0701  0.5647 -1.0491
   31MOL0     H 4090   3.954   5.481   4.539 -0.8858 -0.0038 -1.4214
   31MOL0     H 4091   4.751   5.389   4.031 -1.3279  0.7137  2.8029
   31MOL0     H 4092   4.868   5.215   3.924 -0.6763  4.3508  0.5907
   32MOL0     O 4093   3.153   4.834   6.699  0.7073  0.5170  0.5386
   32MOL0     C 4094   3.064   4.755   6.669 -0.0194  0.0331  0.6643
   32MOL0     O 4095   3.064   4.629   6.690 -0.7132  0.5299 -0.2940
   32MOL0     C 4096   3.141   4.571   6.792  0.3141 -0.3398  0.6631
   32MOL0     C 4097   3.268   4.601   6.831  0.1379  0.5954  0.8206
   32MOL0     C 4098   3.336   4.547   6.942  0.7661 -1.2142  0.5001
   32MOL0     C 4099   3.260   4.452   7.015 -0.6018  0.4524 -0.8895
   32MOL0     O 4100   3.316   4.375   7.116  0.5665  0.4471  0.1573
   32MOL0     C 4101   3.444   4.400   7.158  0.6460 -0.1853  0.0146
   32MOL0     C 4102   3.463   4.286   7.262 -0.2387 -0.3838  0.3020
   32MOL0     C 4103   3.566   4.322   7.372 -0.7074 -0.3421  0.9198
   32MOL0     C 4104   3.692   4.384   7.315  0.2332 -0.4675  0.8183
   32MOL0     C 4105   3.773   4.295   7.215  0.0766 -0.2456  0.2862
   32MOL0     C 4106   3.805   4.153   7.275  0.0902  0.2175 -0.4649
   32MOL0     C 4107   3.855   4.057   7.171  0.0573 -0.3986 -0.4947
   32MOL0     C 4108   3.897   3.925   7.232 -0.2839  0.0542 -0.9213
   32MOL0     N 4109   3.795   3.855   7.322 -0.1231 -0.4808  0.0448
   32MOL0     C 4110   3.673   3.842   7.276  0.5996  0.7897  0.3205
   32MOL0     C 4111   3.593   3.831   7.388 -0.6047  0.3493 -0.2196
   32MOL0     C 4112   3.448   3.802   7.383 -1.2173  0.1894  0.7024
   32MOL0     C 4113   3.382   3.795   7.527  1.0403  0.0854  1.4308
   32MOL0     C 4114   3.331   3.654   7.553  0.0913  0.5568  0.2248
   32MOL0     C 4115   3.269   3.644   7.688  0.2609 -0.4632 -0.2594
   32MOL0     O 4116   3.146   3.706   7.669 -0.2087  0.0232  0.1107
   32MOL0     C 4117   3.035   3.690   7.760 -0.0200 -0.8898  0.7893
   32MOL0     C 4118   3.039   3.642   7.886  0.2231 -0.5711  0.4743
   32MOL0     C 4119   2.926   3.606   7.964  0.2863  0.0871  0.2743
   32MOL0     C 4120   2.794   3.609   7.913 -0.7685  1.5253  0.0402
   32MOL0     C 4121   2.677   3.554   7.987  0.7613 -1.1286 -1.2800
   32MOL0     O 4122   2.549   3.562   7.927 -0.0130  0.5863 -0.5849
   32MOL0     C 4123   2.442   3.504   7.991  0.6093  0.0393  0.7020
   32MOL0     C 4124   2.400   3.553   8.113 -0.6013  0.4204 -0.3436
   32MOL0     C 4125   2.297   3.490   8.186 -0.2445  0.3926 -0.3632
   32MOL0     C 4126   2.217   3.388   8.120  0.2392  0.2124  1.5007
   32MOL0     O 4127   2.102   3.328   8.171 -0.7879  0.1472  0.2256
   32MOL0     C 4128   2.084   3.329   8.312  0.3023 -0.4076 -0.0735
   32MOL0     C 4129   1.954   3.266   8.328  0.1067  1.2336  1.0439
   32MOL0     C 4130   1.836   3.344   8.279 -0.2860  0.3671 -1.1607
   32MOL0     C 4131   1.798   3.464   8.368 -0.4244 -0.1158  0.7752
   32MOL0     C 4132   1.691   3.545   8.302  0.5500 -0.3815  0.8071
   32MOL0     C 4133   1.635   3.662   8.383  0.0750  0.5220 -0.5548
   32MOL0     C 4134   1.523   3.735   8.304  0.0138 -0.3551 -0.4861
   32MOL0     C 4135   1.454   3.835   8.393  0.7838 -0.2347  0.3217
   32MOL0    Cl 4136   1.389   3.769   8.548 -0.4482  0.0319 -0.1637
   32MOL0     C 4137   2.258   3.348   7.988 -0.5629  0.3803  1.0489
   32MOL0     C 4138   2.371   3.397   7.932 -0.0711 -0.8259  0.8330
   32MOL0     O 4139   2.697   3.507   8.099 -0.3161 -0.0096 -0.1349
   32MOL0     C 4140   2.792   3.655   7.786 -0.3390  0.1700  0.4724
   32MOL0     C 4141   2.898   3.696   7.705  0.3734 -0.3270 -0.0168
   32MOL0     N 4142   3.680   3.850   7.504 -0.1234 -0.0123  0.6872
   32MOL0     N 4143   3.795   3.873   7.455  0.1251  1.0183  0.5491
   32MOL0     C 4144   3.137   4.408   6.972  0.7298 -0.2113 -0.5047
   32MOL0     C 4145   3.068   4.472   6.863 -0.7541 -0.0595 -0.0307
   32MOL0     C 4146   2.962   4.803   6.581  0.6347 -0.3798 -0.8424
   32MOL0     C 4147   2.881   4.711   6.504 -0.3527 -0.2840 -0.4280
   32MOL0     C 4148   2.779   4.754   6.418 -0.4271  0.6283 -0.6814
   32MOL0     C 4149   2.748   4.890   6.407  0.7218 -0.4987  0.6065
   32MOL0     O 4150   2.656   4.922   6.315 -0.1046 -0.5877 -0.1112
   32MOL0     C 4151   2.591   5.048   6.304  0.1784 -0.4515 -0.9222
   32MOL0     C 4152   2.461   5.048   6.231  0.1577 -0.8984  0.4504
   32MOL0     C 4153   2.430   5.198   6.217 -0.1710 -0.7440 -0.0411
   32MOL0     C 4154   2.298   5.203   6.143 -0.6355 -0.4333  0.6586
   32MOL0     C 4155   2.285   5.331   6.078 -0.0616  0.6231  0.3598
   32MOL0     C 4156   2.261   5.430   6.009 -0.6122  0.1968  0.1843
   32MOL0     C 4157   2.826   4.979   6.490  0.9505 -0.8124  0.6372
   32MOL0     C 4158   2.929   4.940   6.573 -0.0008 -0.3989  0.1464
   32MOL0     H 4159   3.320   4.667   6.762 -1.7194 -2.1399 -3.6580
   32MOL0     H 4160   3.429   4.595   6.971  0.2214  1.4898 -1.8209
   32MOL0     H 4161   3.448   4.497   7.209 -0.4713  0.7336 -1.5749
   32MOL0     H 4162   3.525   4.396   7.084 -1.1613 -1.6148 -2.0192
   32MOL0     H 4163   3.506   4.202   7.207  0.8240  1.5931 -2.1274
   32MOL0     H 4164   3.369   4.263   7.313 -0.3016 -1.4490 -0.2732
   32MOL0     H 4165   3.576   4.235   7.438 -0.6465 -0.5682  0.6150
   32MOL0     H 4166   3.518   4.391   7.442 -0.4213 -1.3450  2.1315
   32MOL0     H 4167   3.653   4.474   7.266 -1.1716 -1.2136  0.5281
   32MOL0     H 4168   3.770   4.396   7.390  1.3943 -1.9901 -0.0734
   32MOL0     H 4169   3.861   4.346   7.175 -0.9896 -0.0583 -1.9986
   32MOL0     H 4170   3.710   4.267   7.131 -1.9483  0.9842  1.2962
   32MOL0     H 4171   3.723   4.099   7.323  2.0625  0.8635  4.1847
   32MOL0     H 4172   3.884   4.174   7.348  0.0970  2.4420 -1.0522
   32MOL0     H 4173   3.777   4.054   7.094 -1.8297  0.8743  1.2494
   32MOL0     H 4174   3.946   4.099   7.127 -1.1903  1.4059 -1.5186
   32MOL0     H 4175   3.995   3.939   7.278 -1.6153 -0.8146  2.5167
   32MOL0     H 4176   3.913   3.854   7.151 -3.4868 -2.1471  0.1727
   32MOL0     H 4177   3.656   3.840   7.169  1.0839  1.4853  0.2195
   32MOL0     H 4178   3.423   3.720   7.316 -4.5261  1.9168 -0.3719
   32MOL0     H 4179   3.414   3.889   7.325  1.1635  0.4965 -0.3789
   32MOL0     H 4180   3.291   3.856   7.534  0.0049 -1.2871  0.5210
   32MOL0     H 4181   3.455   3.825   7.603  0.8262 -0.9630  2.0680
   32MOL0     H 4182   3.258   3.634   7.474 -2.1475  4.9705  0.8517
   32MOL0     H 4183   3.420   3.592   7.559  0.9528  1.8021  0.8200
   32MOL0     H 4184   3.332   3.685   7.768  0.1529 -1.0158  0.1137
   32MOL0     H 4185   3.251   3.539   7.712  0.9028 -0.5162  0.0332
   32MOL0     H 4186   3.141   3.632   7.922  1.2739  1.2134 -1.7601
   32MOL0     H 4187   2.940   3.587   8.070  2.5456  0.9980  0.2024
   32MOL0     H 4188   2.456   3.633   8.161 -0.1893 -1.0190  1.6659
   32MOL0     H 4189   2.282   3.539   8.281 -1.7696 -0.3263 -0.2039
   32MOL0     H 4190   2.072   3.430   8.354 -2.6350 -0.3693 -0.7898
   32MOL0     H 4191   2.171   3.279   8.354  1.1436  1.5996  0.6925
   32MOL0     H 4192   1.936   3.225   8.428  2.4886  1.6108  1.6842
   32MOL0     H 4193   1.935   3.182   8.261 -2.6493  1.5042  1.3856
   32MOL0     H 4194   1.747   3.281   8.264 -0.7780 -0.3682  3.3433
   32MOL0     H 4195   1.853   3.383   8.179  2.9294 -0.4790 -1.0575
   32MOL0     H 4196   1.783   3.431   8.472  2.2361 -0.1422  1.2177
   32MOL0     H 4197   1.884   3.532   8.359 -1.9224  1.6270 -1.7133
   32MOL0     H 4198   1.609   3.480   8.270  0.4420  0.2054 -0.1291
   32MOL0     H 4199   1.724   3.581   8.204 -0.1144 -1.1666  0.2845
   32MOL0     H 4200   1.718   3.732   8.398  0.2234 -0.3825  4.4806
   32MOL0     H 4201   1.610   3.645   8.488  0.8620 -0.8409 -0.5638
   32MOL0     H 4202   1.565   3.797   8.224 -3.0820  3.6887  0.6318
   32MOL0     H 4203   1.444   3.668   8.270 -1.6519  0.7805  0.9180
   32MOL0     H 4204   1.378   3.868   8.322  1.8089  3.5103  0.7632
   32MOL0     H 4205   1.518   3.919   8.422  0.0717  0.9903 -1.5105
   32MOL0     H 4206   2.201   3.271   7.937 -1.5462  0.2266  2.3270
   32MOL0     H 4207   2.416   3.374   7.835 -1.2282 -1.2476  0.3734
   32MOL0     H 4208   2.695   3.671   7.739 -2.5368  2.8587  5.2349
   32MOL0     H 4209   2.874   3.716   7.600 -1.2096 -1.5848  0.0654
   32MOL0     H 4210   3.094   4.328   7.031 -3.2132  1.4784 -0.7160
   32MOL0     H 4211   2.969   4.443   6.831 -1.0328 -0.5039  1.1938
   32MOL0     H 4212   2.901   4.604   6.504 -3.7636 -1.0274  0.0314
   32MOL0     H 4213   2.735   4.689   6.343  0.6030  0.9929 -1.6262
   32MOL0     H 4214   2.654   5.125   6.258 -1.0776 -0.0470 -2.0457
   32MOL0     H 4215   2.565   5.079   6.405  0.0737  0.5897 -1.2509
   32MOL0     H 4216   2.467   5.004   6.131 -2.2727 -1.7945  0.6240
   32MOL0     H 4217   2.387   4.997   6.294 -1.3287  2.1294  1.3300
   32MOL0     H 4218   2.506   5.251   6.159  1.5314 -1.5324  1.3474
   32MOL0     H 4219   2.423   5.252   6.311 -0.0340  2.1363 -1.5743
   32MOL0     H 4220   2.286   5.121   6.071  0.7248 -2.6089  2.7549
   32MOL0     H 4221   2.213   5.190   6.210 -1.9598 -3.6252 -1.3558
   32MOL0     H 4222   2.241   5.519   5.953  1.6254 -0.5515 -1.9815
   32MOL0     H 4223   2.800   5.085   6.488  1.7410 -0.3946  4.6049
   32MOL0     H 4224   2.983   5.023   6.618  0.3832 -0.3122 -0.4541
   33MOL0     O 4225   0.780   1.436   1.149  0.6331 -0.0303 -0.4309
   33MOL0     C 4226   0.896   1.423   1.187  0.1269 -0.1637 -0.0626
   33MOL0     O 4227   0.965   1.498   1.280  0.7443 -0.2034 -0.0444
   33MOL0     C 4228   0.933   1.613   1.339  1.2775 -0.3995  0.3939
   33MOL0     C 4229   1.003   1.652   1.454  0.9541 -0.0637 -0.0212
   33MOL0     C 4230   0.971   1.770   1.521 -1.0109 -0.5578  0.3938
   33MOL0     C 4231   0.863   1.850   1.475 -0.2972  0.3522 -0.0726
   33MOL0     O 4232   0.837   1.971   1.540 -0.0428 -0.3894 -0.7839
   33MOL0     C 4233   0.782   1.950   1.670 -0.2910  0.0834 -0.0244
   33MOL0     C 4234   0.698   2.069   1.714  0.2021  0.0074 -0.5756
   33MOL0     C 4235   0.627   2.051   1.855  0.1393 -0.6753  1.3384
   33MOL0     C 4236   0.505   1.967   1.843  0.5060  0.1214  0.2648
   33MOL0     C 4237   0.440   1.962   1.990  0.5878  0.7135 -0.4694
   33MOL0     C 4238   0.407   2.101   2.058 -0.3778 -0.4194  0.4893
   33MOL0     C 4239   0.326   2.085   2.182 -0.6714 -0.1697  0.5006
   33MOL0     C 4240   0.261   2.225   2.218 -0.7454  0.7049  0.4375
   33MOL0     N 4241   0.191   2.220   2.337  0.1603 -0.0511 -0.7544
   33MOL0     C 4242   0.242   2.253   2.463 -0.8040 -0.3537 -0.6141
   33MOL0     C 4243   0.147   2.236   2.557  0.1049 -0.0810 -0.2181
   33MOL0     C 4244   0.152   2.245   2.713  0.3819 -0.6155 -0.1356
   33MOL0     C 4245   0.163   2.384   2.765  0.0014 -0.6424  0.3537
   33MOL0     C 4246   0.198   2.392   2.912 -1.2025 -1.3016  0.0594
   33MOL0     C 4247   0.205   2.543   2.957 -0.4674 -0.4474 -0.3162
   33MOL0     O 4248   0.236   2.572   3.089 -0.8123 -0.2418  0.2964
   33MOL0     C 4249   0.356   2.540   3.145 -0.0327 -0.4774  0.3580
   33MOL0     C 4250   0.478   2.527   3.077 -0.2097  0.1078  0.0692
   33MOL0     C 4251   0.598   2.530   3.153  0.6802 -0.1847 -0.7056
   33MOL0     C 4252   0.602   2.537   3.292 -0.2034  0.6847  0.5327
   33MOL0     C 4253   0.731   2.513   3.364 -0.3116  0.0002 -0.7787
   33MOL0     O 4254   0.825   2.431   3.311 -0.1725 -0.1432 -0.2153
   33MOL0     C 4255   0.927   2.396   3.391 -0.1882  0.6860  0.4275
   33MOL0     C 4256   1.042   2.349   3.319  0.8362  0.5431 -0.6310
   33MOL0     C 4257   1.163   2.324   3.378  0.0808 -1.1120 -0.4658
   33MOL0     C 4258   1.168   2.329   3.517 -0.9358  0.8318 -0.2936
   33MOL0     O 4259   1.297   2.314   3.579 -0.5159 -0.3896  0.2863
   33MOL0     C 4260   1.312   2.361   3.719 -0.5356  0.4689 -0.6192
   33MOL0     C 4261   1.464   2.379   3.735 -0.0767 -0.9302 -0.5067
   33MOL0     C 4262   1.504   2.397   3.883  0.3645  0.3026 -0.0916
   33MOL0     C 4263   1.649   2.436   3.888  0.8054 -0.0579 -0.0578
   33MOL0     C 4264   1.701   2.461   4.034  0.9419 -0.4072 -0.0024
   33MOL0     C 4265   1.846   2.521   4.042  1.1691  0.3599  0.7514
   33MOL0     C 4266   1.957   2.428   4.001  0.1341 -1.0062  0.7996
   33MOL0     C 4267   2.093   2.512   4.017  0.4583  0.0843 -0.1839
   33MOL0    Cl 4268   2.117   2.492   4.199  0.0427  0.1220  0.5474
   33MOL0     C 4269   1.046   2.352   3.595  0.2876 -0.5959  0.1047
   33MOL0     C 4270   0.928   2.394   3.538 -0.7361  0.6093 -0.8940
   33MOL0     O 4271   0.742   2.571   3.473 -0.5615  0.5063 -0.3141
   33MOL0     C 4272   0.481   2.563   3.350  0.5343  0.5461  0.3705
   33MOL0     C 4273   0.359   2.568   3.278 -1.1038  0.8820 -0.4757
   33MOL0     N 4274   0.035   2.189   2.488 -0.2091  0.1560 -0.4938
   33MOL0     N 4275   0.069   2.168   2.360 -1.0540  0.0078  0.3866
   33MOL0     C 4276   0.799   1.815   1.349 -0.6706 -0.5541 -0.4424
   33MOL0     C 4277   0.822   1.696   1.287  0.6190 -0.5877  0.0359
   33MOL0     C 4278   0.967   1.304   1.133  0.4672  0.0354  0.3358
   33MOL0     C 4279   1.106   1.303   1.137 -0.1676 -0.4923  0.1681
   33MOL0     C 4280   1.176   1.184   1.101 -0.5931 -0.2418  0.8928
   33MOL0     C 4281   1.116   1.073   1.047 -0.8058 -0.4544 -0.6549
   33MOL0     O 4282   1.185   0.963   0.999  0.2594  0.0381  0.0624
   33MOL0     C 4283   1.323   0.930   1.045  0.5592 -0.3312 -0.4384
   33MOL0     C 4284   1.412   0.952   0.921  0.1213 -0.4106 -0.2413
   33MOL0     C 4285   1.555   0.942   0.976 -0.9158 -0.3483  0.5160
   33MOL0     C 4286   1.662   0.924   0.874 -0.0850  0.1931 -0.2570
   33MOL0     C 4287   1.696   0.786   0.839 -0.3783 -0.5497 -0.4118
   33MOL0     C 4288   1.728   0.681   0.788  0.4009  0.1154  0.8065
   33MOL0     C 4289   0.983   1.070   1.038 -0.4669 -0.3494  1.2155
   33MOL0     C 4290   0.909   1.188   1.087 -0.4338  0.1058  1.0226
   33MOL0     H 4291   1.083   1.593   1.498  0.4177  1.3579  3.1915
   33MOL0     H 4292   1.024   1.810   1.606  1.3154 -1.0127 -0.7618
   33MOL0     H 4293   0.853   1.917   1.746  3.0484 -0.1177 -2.9903
   33MOL0     H 4294   0.713   1.865   1.671  3.7090 -3.5092 -0.3061
   33MOL0     H 4295   0.621   2.105   1.646  0.7691  2.9903  0.2191
   33MOL0     H 4296   0.774   2.149   1.716  0.1759  0.1177 -2.2767
   33MOL0     H 4297   0.601   2.155   1.874  0.9048  0.8812 -4.2493
   33MOL0     H 4298   0.703   2.009   1.921  2.3564  2.9844  1.3645
   33MOL0     H 4299   0.437   2.021   1.777 -2.4647  0.2929  3.1985
   33MOL0     H 4300   0.521   1.865   1.810 -4.9569 -0.1985 -2.5593
   33MOL0     H 4301   0.494   1.904   2.065 -0.6648 -1.1471 -0.9205
   33MOL0     H 4302   0.346   1.906   1.994 -1.1100  3.3547  4.1850
   33MOL0     H 4303   0.353   2.156   1.980  1.7301  4.5309  2.0836
   33MOL0     H 4304   0.497   2.154   2.092 -1.8246 -0.0385  4.1839
   33MOL0     H 4305   0.253   2.004   2.170  1.5505 -2.2157  0.1437
   33MOL0     H 4306   0.390   2.043   2.260 -0.1162 -1.6854 -0.7043
   33MOL0     H 4307   0.187   2.265   2.149 -1.5500  0.6507  1.2516
   33MOL0     H 4308   0.336   2.305   2.223  1.1684 -0.9349 -0.5882
   33MOL0     H 4309   0.341   2.292   2.484 -0.5571 -1.5684  0.6395
   33MOL0     H 4310   0.246   2.193   2.735  0.0281 -1.8803 -1.4440
   33MOL0     H 4311   0.073   2.182   2.756 -0.9968  1.0575 -0.1172
   33MOL0     H 4312   0.065   2.434   2.762 -0.1140 -0.7118  2.1133
   33MOL0     H 4313   0.234   2.437   2.701  1.3974 -1.2935  1.3171
   33MOL0     H 4314   0.137   2.326   2.975 -0.8384 -2.3818 -0.6799
   33MOL0     H 4315   0.300   2.358   2.930  0.0746  2.1957  0.0794
   33MOL0     H 4316   0.109   2.594   2.944  1.2368  4.8954  3.9148
   33MOL0     H 4317   0.281   2.601   2.904  1.1129 -2.2286 -0.0834
   33MOL0     H 4318   0.505   2.521   2.972  3.1907  0.0841  0.8305
   33MOL0     H 4319   0.695   2.537   3.103  0.2679 -3.4777 -2.2260
   33MOL0     H 4320   1.037   2.370   3.213 -0.5874  0.8664 -0.5287
   33MOL0     H 4321   1.256   2.295   3.330  0.2452 -0.4763 -0.5348
   33MOL0     H 4322   1.281   2.281   3.787  2.2300 -2.3784 -2.4468
   33MOL0     H 4323   1.268   2.460   3.734  0.8583  1.1678 -0.9871
   33MOL0     H 4324   1.496   2.462   3.672 -1.0942  0.7310  1.0734
   33MOL0     H 4325   1.512   2.288   3.698  0.3452 -1.0523  0.3226
   33MOL0     H 4326   1.489   2.306   3.941  2.5235 -0.1976 -0.2461
   33MOL0     H 4327   1.437   2.472   3.927  1.0775  2.1652 -1.9837
   33MOL0     H 4328   1.708   2.359   3.838 -2.4290 -3.2195  0.5996
   33MOL0     H 4329   1.645   2.537   3.847  1.1236  0.1525  0.4202
   33MOL0     H 4330   1.699   2.358   4.072  1.5296 -1.8319 -3.4521
   33MOL0     H 4331   1.638   2.532   4.089  2.2849  0.4166  0.5102
   33MOL0     H 4332   1.862   2.545   4.148  3.9774  1.4426  0.1734
   33MOL0     H 4333   1.854   2.621   3.997  1.6913  2.4731  5.0061
   33MOL0     H 4334   1.967   2.334   4.057 -0.4327 -0.7031  1.4300
   33MOL0     H 4335   1.941   2.404   3.896  0.3632  2.1267 -0.0598
   33MOL0     H 4336   2.086   2.612   3.973  1.3057 -1.0515 -3.1547
   33MOL0     H 4337   2.184   2.474   3.971  0.2133 -0.1765 -0.4620
   33MOL0     H 4338   1.039   2.327   3.701 -0.0319 -0.2876  0.1602
   33MOL0     H 4339   0.851   2.430   3.605 -0.3783  1.9349 -1.1796
   33MOL0     H 4340   0.466   2.597   3.452 -1.3997  0.1448  0.2697
   33MOL0     H 4341   0.264   2.588   3.325 -0.4341  1.9711  0.4901
   33MOL0     H 4342   0.724   1.885   1.314 -0.9527  0.1482  1.4707
   33MOL0     H 4343   0.775   1.680   1.190 -2.3033  2.6653  0.7238
   33MOL0     H 4344   1.166   1.390   1.158  0.8493 -0.8035 -1.2747
   33MOL0     H 4345   1.284   1.190   1.112 -0.3615 -1.1497 -0.6622
   33MOL0     H 4346   1.339   0.833   1.093  3.1689  0.9491  1.5388
   33MOL0     H 4347   1.362   0.996   1.123  1.0408  0.5310 -1.3820
   33MOL0     H 4348   1.384   0.875   0.849  1.3123 -0.3780 -0.7632
   33MOL0     H 4349   1.390   1.044   0.865  1.3574  0.8613  1.2679
   33MOL0     H 4350   1.567   0.869   1.057 -3.7684  0.9361  2.2114
   33MOL0     H 4351   1.575   1.036   1.029  1.1065 -0.9156  0.8782
   33MOL0     H 4352   1.612   0.971   0.788 -1.5371  0.3411  0.6473
   33MOL0     H 4353   1.750   0.984   0.899 -1.6684  2.7707 -0.5179
   33MOL0     H 4354   1.752   0.594   0.729  1.0199 -0.1649  1.4619
   33MOL0     H 4355   0.923   0.983   1.012  0.9111 -0.9597 -0.0681
   33MOL0     H 4356   0.801   1.195   1.095 -0.6647 -1.6256 -0.1040
   34MOL0     O 4357   5.949   0.155   6.133  0.2009 -0.2999  0.3597
   34MOL0     C 4358   6.021   0.250   6.103 -0.2515 -0.1626 -0.0754
   34MOL0     O 4359   6.143   0.289   6.168  0.5910 -0.0612 -0.0834
   34MOL0     C 4360   6.173   0.229   6.289 -0.1067  0.1960  0.3640
   34MOL0     C 4361   6.299   0.166   6.295 -0.5953  0.0093 -0.7486
   34MOL0     C 4362   6.350   0.109   6.422  0.0907 -0.0726 -0.5315
   34MOL0     C 4363   6.262   0.114   6.538  1.0787  0.4648 -0.3815
   34MOL0     O 4364   6.308   0.046   6.645  0.3059 -0.2005  0.1396
   34MOL0     C 4365   6.262   0.088   6.771 -1.0198 -0.9843  0.7644
   34MOL0     C 4366   6.334   0.223   6.806  0.1916  0.6960  1.2998
   34MOL0     C 4367   6.289   0.242   6.951  0.4587 -0.3010 -0.0335
   34MOL0     C 4368   6.336   0.387   6.986  0.5401 -0.7427 -0.0611
   34MOL0     C 4369   6.229   0.456   7.061 -0.3326 -0.5909 -0.0064
   34MOL0     C 4370   6.213   0.401   7.204  0.6583  0.3275  0.5622
   34MOL0     C 4371   6.179   0.509   7.311  0.8244 -0.4311 -0.8547
   34MOL0     C 4372   6.101   0.450   7.440 -0.6390 -0.5041 -0.0291
   34MOL0     N 4373   6.090   0.560   7.538 -0.0133 -0.4298  0.7894
   34MOL0     C 4374   6.090   0.699   7.509  0.6574  0.4755 -0.5400
   34MOL0     C 4375   6.095   0.755   7.632 -0.7936  0.5482 -0.5805
   34MOL0     C 4376   6.104   0.902   7.682  0.6909 -0.3239  0.2421
   34MOL0     C 4377   6.226   0.976   7.619  0.3373 -0.3601  0.2640
   34MOL0     C 4378   6.365   0.965   7.679 -0.8938  0.4485  0.7283
   34MOL0     C 4379   6.424   0.830   7.663  0.6772  0.2875  0.4278
   34MOL0     O 4380   6.389   0.763   7.539  0.6692  0.7488 -0.6697
   34MOL0     C 4381   6.490   0.754   7.438  0.7972  0.2797 -0.1302
   34MOL0     C 4382   6.447   0.761   7.307  0.4823  0.4076  0.2216
   34MOL0     C 4383   6.529   0.742   7.200 -0.4842 -0.5924 -0.2770
   34MOL0     C 4384   6.664   0.700   7.224 -0.0332  0.5200  0.7793
   34MOL0     C 4385   6.752   0.684   7.105  0.9662 -0.3890 -0.4672
   34MOL0     O 4386   6.682   0.681   6.985  0.0634 -0.1387  0.3979
   34MOL0     C 4387   6.753   0.655   6.872 -0.5230  0.1520 -0.3457
   34MOL0     C 4388   6.729   0.548   6.789  0.6886  0.2482 -0.4202
   34MOL0     C 4389   6.780   0.535   6.658  0.0831  0.7228 -0.2696
   34MOL0     C 4390   6.861   0.633   6.607  0.2605  0.4321 -0.8826
   34MOL0     O 4391   6.925   0.636   6.481  0.3680  0.5671  1.0550
   34MOL0     C 4392   7.004   0.527   6.445 -0.2230 -0.4406  0.7578
   34MOL0     C 4393   7.080   0.553   6.320 -0.0167 -0.0534 -0.1989
   34MOL0     C 4394   7.178   0.440   6.288  1.4942 -0.4182 -0.1075
   34MOL0     C 4395   7.257   0.472   6.161  0.9162 -0.3478  0.3863
   34MOL0     C 4396   7.335   0.342   6.108 -0.0185  0.2540 -0.1947
   34MOL0     C 4397   7.267   0.205   6.081 -0.6234 -0.8549  0.1908
   34MOL0     C 4398   7.349   0.084   6.029  0.3016  0.7009 -0.1341
   34MOL0     C 4399   7.434   0.117   5.909  0.0990 -0.6015  0.1453
   34MOL0    Cl 4400   7.315   0.141   5.771  0.2232  0.0230 -0.1040
   34MOL0     C 4401   6.879   0.748   6.680  0.7196  0.1370  0.3415
   34MOL0     C 4402   6.834   0.755   6.817  0.1471  0.0864  0.2104
   34MOL0     O 4403   6.871   0.703   7.125  0.7293 -0.2487 -0.1759
   34MOL0     C 4404   6.716   0.688   7.362  1.0642 -1.0912 -0.6942
   34MOL0     C 4405   6.624   0.710   7.462  0.7389 -0.5571 -0.1066
   34MOL0     N 4406   6.110   0.652   7.730 -0.5927  0.6294  0.4732
   34MOL0     N 4407   6.099   0.537   7.671 -0.3862 -0.0484  0.1492
   34MOL0     C 4408   6.130   0.174   6.518 -0.0116 -0.3492 -0.8597
   34MOL0     C 4409   6.091   0.240   6.401 -0.4348 -0.5243 -0.1230
   34MOL0     C 4410   5.981   0.338   5.986  0.1915  0.0620 -0.2062
   34MOL0     C 4411   6.077   0.423   5.942 -0.3844  0.5825 -0.1239
   34MOL0     C 4412   6.060   0.505   5.832 -0.3615  0.7158  0.0791
   34MOL0     C 4413   5.932   0.525   5.780 -0.4788 -0.2286 -0.6774
   34MOL0     O 4414   5.896   0.628   5.697 -0.5644  0.2721 -0.0494
   34MOL0     C 4415   5.839   0.598   5.569 -1.2699  0.6091  0.1021
   34MOL0     C 4416   5.815   0.727   5.491 -0.2431 -0.0816  1.1936
   34MOL0     C 4417   5.741   0.696   5.355 -1.3780 -0.3613 -0.9602
   34MOL0     C 4418   5.708   0.828   5.268  0.3116 -0.5729  0.2515
   34MOL0     C 4419   5.833   0.882   5.215  0.9397 -0.1405  0.8650
   34MOL0     C 4420   5.927   0.931   5.163 -0.8345  0.1353 -0.0736
   34MOL0     C 4421   5.836   0.427   5.824  0.3390  0.3285 -0.5857
   34MOL0     C 4422   5.857   0.335   5.920  0.0712  0.9249  0.0986
   34MOL0     H 4423   6.339   0.154   6.195 -0.0706 -1.7685 -0.3578
   34MOL0     H 4424   6.434   0.041   6.423 -0.9648 -1.4069  0.2826
   34MOL0     H 4425   6.304   0.021   6.847 -1.9431 -1.0448  1.2401
   34MOL0     H 4426   6.155   0.093   6.791 -1.3645 -0.5701 -1.0585
   34MOL0     H 4427   6.292   0.302   6.744 -3.2804 -3.0126 -1.6366
   34MOL0     H 4428   6.443   0.219   6.811  0.2825  1.3128  0.1284
   34MOL0     H 4429   6.315   0.167   7.027 -0.2203 -2.1181 -1.5110
   34MOL0     H 4430   6.180   0.239   6.954  0.3368 -1.3669 -2.9483
   34MOL0     H 4431   6.426   0.382   7.048 -0.0703  0.5773  0.9663
   34MOL0     H 4432   6.356   0.445   6.895 -1.2212 -0.4077 -0.2562
   34MOL0     H 4433   6.137   0.446   7.003  0.6186 -2.3181 -1.3142
   34MOL0     H 4434   6.253   0.562   7.072 -1.0209 -0.1284 -2.3868
   34MOL0     H 4435   6.300   0.341   7.232 -0.7665 -3.5208 -2.2791
   34MOL0     H 4436   6.128   0.331   7.207 -0.4108  1.1994 -3.5752
   34MOL0     H 4437   6.272   0.555   7.346  0.8279 -1.4205  0.5665
   34MOL0     H 4438   6.120   0.586   7.261 -1.5736 -2.1471 -0.8613
   34MOL0     H 4439   6.155   0.366   7.484  1.1294  0.6277  0.0431
   34MOL0     H 4440   5.996   0.436   7.411 -1.8204  4.3470  1.0625
   34MOL0     H 4441   6.067   0.741   7.412 -3.0133 -0.9619 -0.4297
   34MOL0     H 4442   6.108   0.902   7.792  1.3043 -0.0160  0.2243
   34MOL0     H 4443   6.017   0.960   7.652  3.3891  3.8909 -0.2957
   34MOL0     H 4444   6.200   1.082   7.628 -1.9835 -0.7836 -0.7002
   34MOL0     H 4445   6.227   0.975   7.509 -0.5661  3.6748  0.0668
   34MOL0     H 4446   6.435   1.020   7.615  0.0212 -0.9977  0.4397
   34MOL0     H 4447   6.376   1.006   7.780  0.1124  1.1119  0.3640
   34MOL0     H 4448   6.388   0.770   7.747 -0.7127  2.8266  1.7642
   34MOL0     H 4449   6.531   0.848   7.671  0.3157  1.6351  4.3012
   34MOL0     H 4450   6.339   0.768   7.295 -0.0059 -3.1068  1.5178
   34MOL0     H 4451   6.500   0.760   7.097  4.2956  4.5247 -1.2343
   34MOL0     H 4452   6.672   0.470   6.838  1.3398 -1.3501 -2.0723
   34MOL0     H 4453   6.767   0.449   6.594  0.6549  1.8642 -1.9835
   34MOL0     H 4454   6.931   0.446   6.437 -2.3084  1.4414 -0.6103
   34MOL0     H 4455   7.068   0.510   6.533 -0.4799 -0.6735  0.9022
   34MOL0     H 4456   7.125   0.652   6.332  0.2105 -0.3327  1.6025
   34MOL0     H 4457   6.998   0.559   6.248 -2.1924 -1.4187  2.0137
   34MOL0     H 4458   7.129   0.342   6.285  1.0998 -0.2017 -1.2237
   34MOL0     H 4459   7.255   0.439   6.365  3.0213  2.9883 -1.3913
   34MOL0     H 4460   7.189   0.520   6.090  0.5454 -1.2040  0.1506
   34MOL0     H 4461   7.336   0.547   6.177  0.8516 -0.3736  0.8345
   34MOL0     H 4462   7.402   0.318   6.190 -2.3068  1.1838  2.0769
   34MOL0     H 4463   7.400   0.377   6.027  1.0667  1.2807  1.0777
   34MOL0     H 4464   7.191   0.231   6.007  0.7959  2.0391 -0.3871
   34MOL0     H 4465   7.208   0.183   6.171  0.1172 -0.0841  0.8843
   34MOL0     H 4466   7.404   0.038   6.112 -2.4413  0.1302  1.5046
   34MOL0     H 4467   7.284   0.002   5.997 -2.9537  2.6072  1.1333
   34MOL0     H 4468   7.487   0.027   5.877  1.1933  1.4591 -4.6419
   34MOL0     H 4469   7.508   0.196   5.923 -0.6117  0.5395 -2.0145
   34MOL0     H 4470   6.948   0.813   6.626  0.2801 -1.1191 -1.8492
   34MOL0     H 4471   6.857   0.841   6.879  0.5936  0.3043 -0.2506
   34MOL0     H 4472   6.820   0.657   7.371  0.7576 -1.8113  0.5249
   34MOL0     H 4473   6.652   0.683   7.563 -0.4652  1.4510  0.8079
   34MOL0     H 4474   6.061   0.177   6.601  0.4783  2.5563 -0.4583
   34MOL0     H 4475   5.995   0.290   6.389 -0.1948 -0.0549 -0.1049
   34MOL0     H 4476   6.174   0.434   5.989 -0.7849  1.5108  0.5385
   34MOL0     H 4477   6.133   0.572   5.785 -0.1152  0.6039  0.3014
   34MOL0     H 4478   5.741   0.550   5.573  0.6457 -3.6620  1.6520
   34MOL0     H 4479   5.902   0.533   5.508 -0.4803  1.1724  0.3114
   34MOL0     H 4480   5.757   0.800   5.548 -0.7608  1.3777 -1.0563
   34MOL0     H 4481   5.908   0.775   5.458 -1.7944  1.8794 -0.6247
   34MOL0     H 4482   5.653   0.635   5.377 -1.6449  1.0475  2.6349
   34MOL0     H 4483   5.789   0.630   5.282  2.2909  0.5837  0.3580
   34MOL0     H 4484   5.634   0.808   5.191 -2.0157 -2.7111  2.8557
   34MOL0     H 4485   5.673   0.896   5.346  3.7404  0.1759  1.3426
   34MOL0     H 4486   6.004   0.961   5.095 -0.8677 -1.5021 -0.8618
   34MOL0     H 4487   5.740   0.437   5.774  0.4817  0.1577 -0.8994
   34MOL0     H 4488   5.775   0.269   5.946  0.2999 -0.8726 -3.1734
   35MOL0     O 4489   3.086   8.065   5.872  0.0747  0.4395 -0.6211
   35MOL0     C 4490   2.980   8.094   5.820  0.9985 -0.2099  0.4434
   35MOL0     O 4491   2.911   8.027   5.723 -0.5407 -0.2441  0.4631
   35MOL0     C 4492   2.915   7.886   5.737  0.6159 -0.6585 -1.0600
   35MOL0     C 4493   2.813   7.810   5.811  0.8809  0.5200 -0.1390
   35MOL0     C 4494   2.812   7.674   5.818 -0.0168  0.8542  0.2937
   35MOL0     C 4495   2.909   7.598   5.759  0.1884 -0.7395  0.1777
   35MOL0     O 4496   2.903   7.459   5.757 -0.0973  0.3465 -0.2637
   35MOL0     C 4497   2.798   7.418   5.682  0.2524  0.2989 -0.2241
   35MOL0     C 4498   2.814   7.274   5.661 -0.1980  1.2902 -0.2335
   35MOL0     C 4499   2.797   7.182   5.783  0.3089 -0.0345  0.5539
   35MOL0     C 4500   2.643   7.179   5.813  0.3702  0.2035 -0.0472
   35MOL0     C 4501   2.604   7.112   5.950 -0.1121  0.2301 -0.2468
   35MOL0     C 4502   2.566   7.225   6.057 -0.0442  0.4164  0.6133
   35MOL0     C 4503   2.677   7.325   6.101  1.1194  0.7716  0.1596
   35MOL0     C 4504   2.803   7.267   6.168 -0.0013 -0.1960 -0.1659
   35MOL0     N 4505   2.898   7.377   6.187  1.2979 -0.4391  0.4541
   35MOL0     C 4506   2.979   7.437   6.093 -0.1643  0.4448  0.0741
   35MOL0     C 4507   3.041   7.535   6.165  0.4660 -0.2621  0.1284
   35MOL0     C 4508   3.120   7.641   6.094  0.5466  0.4965 -0.0717
   35MOL0     C 4509   3.255   7.587   6.050  0.0342  0.1873 -1.4372
   35MOL0     C 4510   3.300   7.691   5.937  0.9905  0.9549 -0.1513
   35MOL0     C 4511   3.322   7.832   5.989 -0.6322 -0.1188  0.8630
   35MOL0     O 4512   3.463   7.880   5.972 -0.0161 -0.9331 -0.2737
   35MOL0     C 4513   3.492   7.986   6.058  0.1773  0.5034  0.8102
   35MOL0     C 4514   3.609   7.977   6.131 -0.9823  0.4421  0.8158
   35MOL0     C 4515   3.657   8.077   6.213 -1.3301 -0.3706 -0.8718
   35MOL0     C 4516   3.584   8.197   6.226 -0.6953  0.3359 -0.3729
   35MOL0     C 4517   3.632   8.319   6.306 -0.0421 -0.7395  0.5862
   35MOL0     O 4518   3.540   8.402   6.361 -0.7091 -0.4780 -0.0077
   35MOL0     C 4519   3.581   8.486   6.467 -0.2629 -1.1050  0.4262
   35MOL0     C 4520   3.510   8.619   6.462  1.3275  0.2073 -0.3596
   35MOL0     C 4521   3.537   8.711   6.552 -0.4451 -0.5377 -0.9495
   35MOL0     C 4522   3.636   8.695   6.654 -0.1498 -0.8358  0.6828
   35MOL0     O 4523   3.673   8.789   6.746  0.0251 -0.3788 -0.5052
   35MOL0     C 4524   3.645   8.926   6.739  0.3197  0.3640 -0.2985
   35MOL0     C 4525   3.568   8.962   6.876 -0.6082 -0.1991  0.3855
   35MOL0     C 4526   3.490   9.095   6.861  0.2945  0.0752 -0.4727
   35MOL0     C 4527   3.477   9.161   6.998  0.6126 -0.7741 -0.4717
   35MOL0     C 4528   3.397   9.293   6.996  0.9968 -0.1262  0.3227
   35MOL0     C 4529   3.429   9.406   6.900 -0.1040  0.1018 -0.3697
   35MOL0     C 4530   3.555   9.478   6.951  0.7156 -0.4412 -0.4398
   35MOL0     C 4531   3.518   9.589   7.040 -0.4670  0.3837 -0.2285
   35MOL0    Cl 4532   3.463   9.726   6.943  0.0445  0.2414 -0.4677
   35MOL0     C 4533   3.695   8.570   6.665 -0.3156  1.1971 -0.0800
   35MOL0     C 4534   3.679   8.471   6.570 -0.6887  1.5288 -0.2655
   35MOL0     O 4535   3.753   8.322   6.327 -0.1465  0.5838  0.2646
   35MOL0     C 4536   3.468   8.209   6.158 -0.3428 -0.0504  0.1098
   35MOL0     C 4537   3.420   8.112   6.071  0.3770  1.0396  0.4864
   35MOL0     N 4538   2.999   7.520   6.298 -0.2776 -0.2167 -0.4104
   35MOL0     N 4539   2.925   7.418   6.311  0.0863 -0.3698 -0.4235
   35MOL0     C 4540   3.003   7.664   5.677 -0.2939  0.0399 -0.6447
   35MOL0     C 4541   3.007   7.805   5.665 -0.8099 -1.5058 -0.6032
   35MOL0     C 4542   2.918   8.222   5.845  0.2580  0.1526  0.7723
   35MOL0     C 4543   3.002   8.322   5.909  0.3925  1.1179  0.1712
   35MOL0     C 4544   2.960   8.458   5.917  0.3627  0.3270 -0.1738
   35MOL0     C 4545   2.826   8.500   5.878 -0.4341  0.1431  0.2812
   35MOL0     O 4546   2.779   8.629   5.886  0.7394  0.2188 -0.4995
   35MOL0     C 4547   2.865   8.733   5.939  1.1311 -0.4093 -0.4634
   35MOL0     C 4548   2.794   8.865   5.931 -0.7238 -0.9401 -0.7853
   35MOL0     C 4549   2.872   8.968   6.015  0.7497 -0.8375  1.0356
   35MOL0     C 4550   2.831   9.118   5.995 -0.7521  0.1456 -0.1239
   35MOL0     C 4551   2.908   9.215   6.086  0.4129  0.0049 -0.1913
   35MOL0     C 4552   2.960   9.315   6.138 -0.2850  0.1132 -0.6561
   35MOL0     C 4553   2.745   8.400   5.828  0.5797  0.0936 -0.2577
   35MOL0     C 4554   2.792   8.268   5.804  0.1357 -0.5054 -0.9866
   35MOL0     H 4555   2.730   7.861   5.859 -0.8319 -1.9707 -0.2129
   35MOL0     H 4556   2.743   7.627   5.887 -1.2865 -1.0350 -2.1103
   35MOL0     H 4557   2.806   7.455   5.580  1.4428  1.8975  0.3992
   35MOL0     H 4558   2.699   7.440   5.723 -0.8238 -3.1226 -0.6213
   35MOL0     H 4559   2.916   7.259   5.624 -1.5920 -1.3920 -3.6013
   35MOL0     H 4560   2.743   7.235   5.588  0.3556 -3.4037  1.4050
   35MOL0     H 4561   2.857   7.234   5.859 -1.4068  1.7664  0.7505
   35MOL0     H 4562   2.842   7.083   5.771 -0.0550 -0.4826  2.5391
   35MOL0     H 4563   2.614   7.283   5.831 -2.3327 -0.6437  0.8653
   35MOL0     H 4564   2.591   7.130   5.731 -1.6338  1.3416  0.4760
   35MOL0     H 4565   2.688   7.052   5.987 -0.1780 -1.6004 -2.8391
   35MOL0     H 4566   2.515   7.049   5.944  0.1153  0.0531 -2.4452
   35MOL0     H 4567   2.520   7.179   6.145  2.6136  1.0012  2.4335
   35MOL0     H 4568   2.488   7.285   6.010  1.3732  2.0255  0.2031
   35MOL0     H 4569   2.706   7.366   6.004  2.3096 -0.2521  0.0600
   35MOL0     H 4570   2.640   7.400   6.171  2.5114  2.7086 -1.0456
   35MOL0     H 4571   2.845   7.191   6.101  2.6357  1.0227 -0.0228
   35MOL0     H 4572   2.789   7.215   6.263  0.3075 -1.0649 -0.5867
   35MOL0     H 4573   2.976   7.408   5.988 -0.7269 -3.8133  1.0494
   35MOL0     H 4574   3.126   7.725   6.164 -1.2062 -1.2376  2.3656
   35MOL0     H 4575   3.069   7.669   6.001  1.4135 -1.0007 -1.0291
   35MOL0     H 4576   3.257   7.481   6.025 -0.2661  0.1402 -1.2661
   35MOL0     H 4577   3.328   7.601   6.131  0.4424 -2.2485 -1.3233
   35MOL0     H 4578   3.399   7.669   5.896  0.1947  0.9088 -2.1732
   35MOL0     H 4579   3.228   7.680   5.855 -0.3221  2.0732  0.7969
   35MOL0     H 4580   3.280   7.837   6.090  0.7410 -1.4352  1.5401
   35MOL0     H 4581   3.265   7.899   5.925  0.7487 -1.7119 -2.2753
   35MOL0     H 4582   3.664   7.884   6.112 -0.8621  0.5341  0.7091
   35MOL0     H 4583   3.747   8.067   6.274 -2.0350  0.4649  0.3753
   35MOL0     H 4584   3.443   8.637   6.378  1.2755  0.7286 -0.2155
   35MOL0     H 4585   3.491   8.805   6.523  1.9610  1.1263  0.2265
   35MOL0     H 4586   3.582   8.946   6.652 -1.5028 -3.7420 -0.1436
   35MOL0     H 4587   3.736   8.987   6.738  0.4009  0.3350  1.4643
   35MOL0     H 4588   3.654   8.969   6.943  2.1364  0.1820 -2.9257
   35MOL0     H 4589   3.495   8.889   6.913 -2.3898  1.8439  1.1590
   35MOL0     H 4590   3.395   9.066   6.815 -0.2041  0.6194  0.1995
   35MOL0     H 4591   3.535   9.165   6.790 -5.4015  3.8519 -1.0369
   35MOL0     H 4592   3.430   9.091   7.067 -2.6129 -1.6405 -3.2799
   35MOL0     H 4593   3.578   9.185   7.033 -0.7614  2.2394  1.8938
   35MOL0     H 4594   3.405   9.340   7.095 -2.5656 -1.0284  1.1632
   35MOL0     H 4595   3.290   9.272   6.989  0.7112  1.0851  0.7369
   35MOL0     H 4596   3.343   9.473   6.899 -0.4133 -0.2878 -0.1377
   35MOL0     H 4597   3.450   9.379   6.796 -1.6388  1.1024 -0.9826
   35MOL0     H 4598   3.627   9.411   7.000  1.7674  0.1916 -1.0817
   35MOL0     H 4599   3.603   9.519   6.862  0.8290 -1.2239 -0.7445
   35MOL0     H 4600   3.610   9.607   7.095  0.3401  0.9934 -1.7017
   35MOL0     H 4601   3.445   9.562   7.117 -0.4884 -2.9974 -1.2951
   35MOL0     H 4602   3.779   8.557   6.732 -0.1422 -0.2739 -0.5529
   35MOL0     H 4603   3.750   8.389   6.570  0.0555  1.9431 -4.4966
   35MOL0     H 4604   3.428   8.310   6.156 -0.8806 -0.2733 -0.5699
   35MOL0     H 4605   3.336   8.130   6.005 -0.3270  3.2705  1.8737
   35MOL0     H 4606   3.062   7.595   5.616 -3.4907 -3.8336  0.2608
   35MOL0     H 4607   3.067   7.860   5.593 -2.4407 -0.1321 -0.9842
   35MOL0     H 4608   3.099   8.289   5.944 -0.4426 -1.1272  0.5231
   35MOL0     H 4609   3.022   8.538   5.957  1.3948 -1.3281  1.7464
   35MOL0     H 4610   2.960   8.751   5.887 -0.1313  4.0630 -1.6966
   35MOL0     H 4611   2.871   8.708   6.045 -1.7751  0.0144 -0.1074
   35MOL0     H 4612   2.785   8.900   5.828 -0.0614  2.0004  0.0626
   35MOL0     H 4613   2.701   8.844   5.983  1.4508 -2.3706  2.9604
   35MOL0     H 4614   2.980   8.971   5.996  0.7241  3.9391  0.5211
   35MOL0     H 4615   2.846   8.944   6.118  0.2393  2.4239  1.7614
   35MOL0     H 4616   2.853   9.158   5.895  3.0773 -0.0257  0.4783
   35MOL0     H 4617   2.726   9.144   6.008 -0.0461  2.2226  2.2553
   35MOL0     H 4618   3.003   9.409   6.168 -0.3588 -0.3856  1.1176
   35MOL0     H 4619   2.638   8.406   5.811  0.4894 -1.4486 -0.4137
   35MOL0     H 4620   2.713   8.202   5.770  0.0181 -0.1177 -1.4879
   36MOL0     O 4621  10.650   6.176   1.917 -0.7195 -0.0714  0.9054
   36MOL0     C 4622  10.749   6.106   1.902 -0.5800 -0.2233  0.8420
   36MOL0     O 4623  10.874   6.139   1.839 -0.4821 -0.1666 -0.2227
   36MOL0     C 4624  10.870   6.217   1.729 -0.1435  0.0994  0.1740
   36MOL0     C 4625  10.966   6.307   1.718 -0.1841  0.1446 -0.0687
   36MOL0     C 4626  10.969   6.391   1.606  0.2668  0.2719 -0.1620
   36MOL0     C 4627  10.872   6.394   1.512  0.0531  0.3408  0.4944
   36MOL0     O 4628  10.870   6.487   1.411  0.0956  0.4586  0.3441
   36MOL0     C 4629  10.795   6.452   1.287  0.4805 -0.0828  0.2144
   36MOL0     C 4630  10.864   6.509   1.165 -0.0785 -0.6010  0.6002
   36MOL0     C 4631  10.887   6.657   1.182 -0.4796 -0.0258 -0.2106
   36MOL0     C 4632  10.943   6.722   1.055 -0.5676 -1.0643 -0.3471
   36MOL0     C 4633  10.943   6.873   1.069 -0.6106 -0.7239  0.0614
   36MOL0     C 4634  10.966   6.931   0.934 -0.0411  0.5663  0.9493
   36MOL0     C 4635  10.985   7.078   0.927  0.0148 -0.9816 -0.5421
   36MOL0     C 4636  10.895   7.168   1.022 -0.0414 -0.7787 -0.6293
   36MOL0     N 4637  10.963   7.296   1.055  0.6199  0.8247  0.1269
   36MOL0     C 4638  10.986   7.398   0.970 -0.0983 -0.6138 -0.5515
   36MOL0     C 4639  11.041   7.500   1.047 -0.1489 -0.4058  0.3685
   36MOL0     C 4640  11.114   7.620   1.003 -0.7562 -0.8731 -0.7175
   36MOL0     C 4641  11.266   7.589   0.985 -0.7015 -0.3356  0.1373
   36MOL0     C 4642  11.308   7.486   0.879 -0.2890  1.0765  0.3552
   36MOL0     C 4643  11.457   7.449   0.876  0.3816 -0.7756 -0.1880
   36MOL0     O 4644  11.509   7.398   0.996 -0.4774  0.0246 -0.0879
   36MOL0     C 4645  11.494   7.263   0.992 -0.4138  0.5440 -1.1347
   36MOL0     C 4646  11.382   7.202   1.044  0.3640  0.4067  0.9694
   36MOL0     C 4647  11.377   7.065   1.049 -0.1729 -0.3969 -0.3552
   36MOL0     C 4648  11.484   6.977   0.998 -0.0531 -0.1522  0.2368
   36MOL0     C 4649  11.463   6.836   1.002  0.5907 -1.2307  0.4768
   36MOL0     O 4650  11.336   6.794   1.028  0.1756 -0.8561 -0.4049
   36MOL0     C 4651  11.318   6.666   1.061 -0.4618  0.6058  0.0273
   36MOL0     C 4652  11.274   6.638   1.195  0.2257 -0.0686  0.1966
   36MOL0     C 4653  11.246   6.504   1.236 -0.6124 -0.0289 -0.0393
   36MOL0     C 4654  11.275   6.405   1.139 -0.1995  0.0059 -0.2264
   36MOL0     O 4655  11.248   6.270   1.172  0.6238  1.3136  0.0587
   36MOL0     C 4656  11.179   6.221   1.283  0.3939 -0.4366  0.3210
   36MOL0     C 4657  11.139   6.076   1.252  0.6073 -1.0047 -0.0968
   36MOL0     C 4658  11.035   6.047   1.367 -0.1947  0.6937 -1.0033
   36MOL0     C 4659  10.971   5.902   1.352 -0.0514 -0.7655 -0.4645
   36MOL0     C 4660  10.855   5.894   1.471 -0.7407 -0.1094 -0.1409
   36MOL0     C 4661  10.812   5.747   1.494  0.3062 -1.1216  0.3476
   36MOL0     C 4662  10.663   5.734   1.517 -0.9700 -0.0241  0.3580
   36MOL0     C 4663  10.617   5.590   1.518  0.4699 -0.4994  0.7441
   36MOL0    Cl 4664  10.676   5.492   1.649 -0.0646  0.4576 -0.0858
   36MOL0     C 4665  11.323   6.436   1.014  0.1734  0.6535 -0.0797
   36MOL0     C 4666  11.348   6.564   0.968 -0.1002 -0.3458 -0.2812
   36MOL0     O 4667  11.563   6.764   0.985  0.3503 -1.1005  1.2917
   36MOL0     C 4668  11.590   7.041   0.941  1.2626 -0.0419  0.8054
   36MOL0     C 4669  11.589   7.184   0.929 -0.2380 -0.1911 -0.3560
   36MOL0     N 4670  11.052   7.444   1.174  0.3176 -0.2542 -1.0129
   36MOL0     N 4671  11.008   7.323   1.174  1.1308  1.3296 -0.5466
   36MOL0     C 4672  10.768   6.305   1.529 -0.6555 -0.0664  0.8056
   36MOL0     C 4673  10.770   6.211   1.634  0.6007 -0.7212 -0.8299
   36MOL0     C 4674  10.758   5.979   1.979 -0.3547 -0.9406  0.2590
   36MOL0     C 4675  10.646   5.912   2.029  0.8232 -0.3953 -0.3367
   36MOL0     C 4676  10.663   5.804   2.113  0.4238  0.4591  0.2119
   36MOL0     C 4677  10.784   5.751   2.140 -0.1838  0.0514 -1.4141
   36MOL0     O 4678  10.801   5.660   2.241 -1.6776  0.5847 -0.0448
   36MOL0     C 4679  10.899   5.704   2.353  0.4544 -0.1098 -0.0378
   36MOL0     C 4680  10.908   5.599   2.467 -0.2979  0.4552  0.1787
   36MOL0     C 4681  10.996   5.485   2.419  0.4974  0.1044  0.1934
   36MOL0     C 4682  10.984   5.369   2.512 -0.7755 -0.3414 -0.3373
   36MOL0     C 4683  11.106   5.289   2.530  0.4638 -0.5021  0.3437
   36MOL0     C 4684  11.208   5.224   2.536  0.0232  0.3901  0.1596
   36MOL0     C 4685  10.898   5.801   2.076 -0.1099 -0.7373 -1.2869
   36MOL0     C 4686  10.882   5.919   2.002  0.5483 -0.6125 -0.5130
   36MOL0     H 4687  11.047   6.301   1.790 -0.4635  1.0380  0.3271
   36MOL0     H 4688  11.059   6.452   1.613  1.0785 -1.0398  2.9991
   36MOL0     H 4689  10.692   6.489   1.291  0.7766  0.8893 -0.6144
   36MOL0     H 4690  10.781   6.348   1.257  1.8751  0.2263 -1.6841
   36MOL0     H 4691  10.791   6.497   1.085 -0.3591  0.7678  0.6250
   36MOL0     H 4692  10.951   6.447   1.144 -1.5283 -2.9578  1.1441
   36MOL0     H 4693  10.959   6.676   1.262 -0.6293  1.0135 -0.2981
   36MOL0     H 4694  10.790   6.699   1.211 -2.4008 -4.5437  0.7522
   36MOL0     H 4695  11.045   6.684   1.046 -0.5824 -1.8037  2.0360
   36MOL0     H 4696  10.879   6.688   0.973  0.3929  1.3878 -2.2795
   36MOL0     H 4697  11.033   6.894   1.128  0.9494 -2.7578 -1.4331
   36MOL0     H 4698  10.856   6.922   1.113  1.1803  2.8210  0.0547
   36MOL0     H 4699  10.886   6.905   0.864  1.5827 -0.6027 -0.5595
   36MOL0     H 4700  11.061   6.892   0.895 -1.5178  0.0030 -2.4087
   36MOL0     H 4701  11.086   7.100   0.963 -0.3894  1.1358 -0.5215
   36MOL0     H 4702  10.986   7.127   0.829 -1.6286  0.6076  0.1655
   36MOL0     H 4703  10.886   7.128   1.124 -2.2641  1.9306  0.3516
   36MOL0     H 4704  10.795   7.185   0.983 -0.7766 -1.5666  0.8192
   36MOL0     H 4705  10.985   7.381   0.862  4.8209 -1.7761 -0.6332
   36MOL0     H 4706  11.107   7.705   1.072 -2.1047 -3.0475  2.0600
   36MOL0     H 4707  11.070   7.648   0.907 -2.5651  0.4698  0.4329
   36MOL0     H 4708  11.312   7.570   1.082 -1.1272  3.2666  1.1876
   36MOL0     H 4709  11.309   7.684   0.952  0.6276  0.1016  2.8777
   36MOL0     H 4710  11.260   7.389   0.888  0.8364 -0.1876 -4.4296
   36MOL0     H 4711  11.276   7.521   0.780 -1.1032 -0.0915  0.1951
   36MOL0     H 4712  11.512   7.543   0.862  0.1351 -0.2453  2.0358
   36MOL0     H 4713  11.478   7.391   0.786  1.1248  0.1858 -0.6473
   36MOL0     H 4714  11.307   7.267   1.088  0.2314  1.4261 -0.6905
   36MOL0     H 4715  11.290   7.026   1.100 -0.4193 -0.4593 -0.8225
   36MOL0     H 4716  11.250   6.723   1.258 -3.0276  1.0256 -2.2578
   36MOL0     H 4717  11.207   6.480   1.334 -2.2564  0.5748 -0.5131
   36MOL0     H 4718  11.089   6.283   1.285  1.1523  0.8073 -1.3246
   36MOL0     H 4719  11.235   6.237   1.375 -2.6743  1.7742  1.9742
   36MOL0     H 4720  11.225   6.014   1.281  0.3164 -1.8656 -1.0149
   36MOL0     H 4721  11.108   6.037   1.155 -0.3950  0.2501 -0.3020
   36MOL0     H 4722  10.952   6.117   1.356  0.0296  0.6242 -3.8073
   36MOL0     H 4723  11.082   6.058   1.465  0.2558 -1.2632 -0.9525
   36MOL0     H 4724  10.925   5.888   1.253 -0.2913 -1.1209 -0.3040
   36MOL0     H 4725  11.044   5.822   1.368 -0.7332 -1.6636 -1.6998
   36MOL0     H 4726  10.763   5.947   1.447  0.8904  2.4825 -1.0745
   36MOL0     H 4727  10.884   5.936   1.567 -0.4121 -1.5402  0.4085
   36MOL0     H 4728  10.869   5.699   1.574  1.3450 -0.2105  0.1737
   36MOL0     H 4729  10.820   5.697   1.397 -3.0533  0.0421 -0.6801
   36MOL0     H 4730  10.639   5.786   1.610 -1.6971  1.9901 -0.8887
   36MOL0     H 4731  10.617   5.789   1.434 -1.1422  1.9270  1.6776
   36MOL0     H 4732  10.658   5.544   1.428  0.1895  0.9621 -0.1565
   36MOL0     H 4733  10.508   5.577   1.510  0.5775 -2.2081  1.7126
   36MOL0     H 4734  11.330   6.355   0.941 -2.8215  2.0912 -2.1503
   36MOL0     H 4735  11.394   6.582   0.871  0.0294 -0.0075 -0.1591
   36MOL0     H 4736  11.669   6.979   0.900  1.0865 -0.2208  0.7308
   36MOL0     H 4737  11.683   7.231   0.903 -1.5094  4.1774  1.9376
   36MOL0     H 4738  10.690   6.290   1.455 -1.7001 -1.5411  2.1475
   36MOL0     H 4739  10.678   6.153   1.638 -1.3198  1.9907 -2.3933
   36MOL0     H 4740  10.547   5.951   2.006  1.6620  0.3691 -2.9889
   36MOL0     H 4741  10.578   5.750   2.153  1.0398 -3.1496 -2.7891
   36MOL0     H 4742  10.863   5.792   2.408  0.7287 -1.1778  1.9683
   36MOL0     H 4743  11.001   5.719   2.317  0.4656 -0.1296 -0.0145
   36MOL0     H 4744  10.947   5.644   2.559 -0.4124 -1.2890  1.1366
   36MOL0     H 4745  10.808   5.563   2.491  0.2623 -2.4772 -1.4836
   36MOL0     H 4746  11.097   5.512   2.390  0.0996  0.3119 -1.0564
   36MOL0     H 4747  10.947   5.442   2.331  2.7932 -1.3365 -0.4445
   36MOL0     H 4748  10.952   5.389   2.615  1.2687  2.8554 -0.1946
   36MOL0     H 4749  10.905   5.302   2.476 -1.4645 -1.0203  2.2005
   36MOL0     H 4750  11.299   5.168   2.537  0.0692  0.4120 -0.9192
   36MOL0     H 4751  10.994   5.751   2.082 -0.2081 -0.8019  0.7459
   36MOL0     H 4752  10.976   5.965   1.974 -0.3386  1.7300  0.1801
   37MOL0     O 4753  10.432   8.564   0.060 -0.0219 -0.5093  0.0670
   37MOL0     C 4754  10.350   8.626   0.121 -0.1911 -0.6813 -0.5304
   37MOL0     O 4755  10.365   8.746   0.185 -0.1828  0.8373 -0.2577
   37MOL0     C 4756  10.498   8.786   0.215  0.5900  0.5052  0.1494
   37MOL0     C 4757  10.585   8.720   0.307  0.0470  0.3340  0.3177
   37MOL0     C 4758  10.701   8.781   0.345 -0.5519  1.5081 -0.2359
   37MOL0     C 4759  10.733   8.903   0.296 -0.3553 -0.6714 -0.1330
   37MOL0     O 4760  10.838   8.968   0.347 -0.6288 -0.0978 -1.1794
   37MOL0     C 4761  10.883   9.093   0.287  0.1327  0.6954  0.2415
   37MOL0     C 4762  11.011   9.123   0.355  0.1931  0.7492 -0.3456
   37MOL0     C 4763  11.115   9.016   0.317  0.2930  0.2821 -0.4174
   37MOL0     C 4764  11.246   9.064   0.368 -0.9515 -0.2049  0.0691
   37MOL0     C 4765  11.319   9.152   0.266 -0.4336 -1.2571  0.2324
   37MOL0     C 4766  11.454   9.211   0.314 -0.0022 -0.4242  0.1764
   37MOL0     C 4767  11.510   9.327   0.232 -0.5663 -0.2437 -0.9609
   37MOL0     C 4768  11.583   9.279   0.107  0.1978  1.1637  0.6055
   37MOL0     N 4769  11.678   9.370   0.058  0.8529  0.5275 -0.0499
   37MOL0     C 4770  11.673   9.442  -0.052 -0.3975  1.2043 -0.0445
   37MOL0     C 4771  11.795   9.512  -0.055  0.6504  0.0054 -0.7042
   37MOL0     C 4772  11.824   9.598  -0.177 -0.4975  1.0849 -0.5206
   37MOL0     C 4773  11.745   9.723  -0.200  0.1044 -1.3115  0.0677
   37MOL0     C 4774  11.830   9.819  -0.284 -0.7649 -0.5594 -0.0128
   37MOL0     C 4775  11.784   9.966  -0.300  0.4981 -0.0156 -0.1724
   37MOL0     O 4776  11.647   9.957  -0.353 -0.1242 -0.4855  0.5229
   37MOL0     C 4777  11.604  10.058  -0.438  0.0642  0.7614 -0.2143
   37MOL0     C 4778  11.689  10.167  -0.487  0.5590 -0.1464  0.3876
   37MOL0     C 4779  11.651  10.240  -0.596  0.0453 -0.1472 -0.6754
   37MOL0     C 4780  11.518  10.240  -0.643 -0.3289  0.4281 -0.6463
   37MOL0     C 4781  11.454  10.340  -0.733  0.1885 -0.1085 -1.3134
   37MOL0     O 4782  11.529  10.445  -0.744  0.6656  0.3095 -0.2993
   37MOL0     C 4783  11.480  10.552  -0.820  0.1883 -0.4248 -0.2748
   37MOL0     C 4784  11.384  10.637  -0.765 -0.9143 -0.8367 -1.1949
   37MOL0     C 4785  11.333  10.748  -0.836  0.0589  1.9194 -0.6228
   37MOL0     C 4786  11.380  10.774  -0.967  0.6973  0.2892  0.0662
   37MOL0     O 4787  11.334  10.877  -1.043  0.3372 -0.1595 -0.3080
   37MOL0     C 4788  11.275  10.998  -0.990 -0.1860  0.5501  0.4362
   37MOL0     C 4789  11.116  10.983  -0.954 -0.2276  0.2669  0.4994
   37MOL0     C 4790  11.062  11.100  -0.856 -0.3694  1.2087  0.6705
   37MOL0     C 4791  11.112  11.236  -0.897  1.4285  0.0664 -0.0337
   37MOL0     C 4792  11.043  11.352  -0.816 -0.1210 -0.0563 -0.1304
   37MOL0     C 4793  10.889  11.348  -0.812 -0.6602 -0.3257  0.0423
   37MOL0     C 4794  10.826  11.351  -0.950 -0.0027  0.6955  0.6874
   37MOL0     C 4795  10.671  11.340  -0.947  0.3642  0.4258  0.0419
   37MOL0    Cl 4796  10.613  11.391  -1.102 -0.1062  0.0862 -0.8267
   37MOL0     C 4797  11.478  10.688  -1.021 -0.0650 -0.6734  0.1255
   37MOL0     C 4798  11.529  10.589  -0.936  0.5546 -0.5191 -0.0039
   37MOL0     O 4799  11.338  10.338  -0.766 -0.2005  0.5629  0.7625
   37MOL0     C 4800  11.439  10.121  -0.597  0.1198 -0.6320  0.4185
   37MOL0     C 4801  11.488  10.037  -0.503  0.6241  0.7122  0.8070
   37MOL0     N 4802  11.860   9.488   0.066 -0.4350  0.5082  0.4797
   37MOL0     N 4803  11.807   9.376   0.112  0.3837  0.5155 -0.1382
   37MOL0     C 4804  10.655   8.968   0.197  0.8386  0.1330  0.0170
   37MOL0     C 4805  10.539   8.902   0.158  1.1027 -1.4526 -0.0454
   37MOL0     C 4806  10.215   8.562   0.139  0.2153  0.1731  0.9503
   37MOL0     C 4807  10.195   8.421   0.127  0.1904  0.4155  0.4915
   37MOL0     C 4808  10.073   8.363   0.167  0.1614 -0.2892  0.6089
   37MOL0     C 4809   9.965   8.443   0.206 -0.2493 -0.2318  0.2025
   37MOL0     O 4810   9.852   8.388   0.251 -0.8339  0.3924  0.5416
   37MOL0     C 4811   9.755   8.475   0.301 -1.0842 -0.2112  0.6249
   37MOL0     C 4812   9.614   8.403   0.296  0.7016  0.9246  0.5346
   37MOL0     C 4813   9.566   8.377   0.157 -0.0934 -0.2175 -0.0508
   37MOL0     C 4814   9.427   8.317   0.146 -0.6329  0.7575  0.2452
   37MOL0     C 4815   9.401   8.289   0.007  0.0652  0.0749  0.2418
   37MOL0     C 4816   9.353   8.246  -0.097  0.0685 -0.2316 -0.5412
   37MOL0     C 4817   9.993   8.579   0.232 -0.0497 -1.0878  0.5683
   37MOL0     C 4818  10.115   8.640   0.198  0.5464  0.3412 -0.6340
   37MOL0     H 4819  10.549   8.625   0.344  1.1803  0.0948  0.8370
   37MOL0     H 4820  10.752   8.719   0.417  0.0062  2.4181  0.1696
   37MOL0     H 4821  10.806   9.170   0.299  2.1343  2.7300  0.7729
   37MOL0     H 4822  10.900   9.081   0.180  0.4174  0.1335  0.3476
   37MOL0     H 4823  10.985   9.126   0.461  0.4113 -1.1316 -0.2151
   37MOL0     H 4824  11.037   9.225   0.326  0.5389  1.0172  0.8589
   37MOL0     H 4825  11.111   8.981   0.214 -2.1998 -1.1871  0.1064
   37MOL0     H 4826  11.091   8.924   0.371  1.1756 -0.3670 -1.1065
   37MOL0     H 4827  11.234   9.113   0.465 -1.4053  2.4604 -1.2477
   37MOL0     H 4828  11.314   8.981   0.390 -0.0182  0.4605 -0.2455
   37MOL0     H 4829  11.263   9.245   0.253  2.3085  0.5501  0.4689
   37MOL0     H 4830  11.342   9.096   0.174  2.7035  0.9245 -0.4951
   37MOL0     H 4831  11.532   9.136   0.327 -2.8471 -3.0234  5.5025
   37MOL0     H 4832  11.439   9.236   0.420 -1.1940 -2.2973  0.5017
   37MOL0     H 4833  11.432   9.403   0.231  2.3074  3.2789  3.1514
   37MOL0     H 4834  11.588   9.383   0.286 -0.4130  0.4490 -1.8660
   37MOL0     H 4835  11.498   9.261   0.040  2.1176 -2.8275 -1.0862
   37MOL0     H 4836  11.634   9.184   0.124  0.1375  0.9650 -0.2933
   37MOL0     H 4837  11.592   9.433  -0.124 -0.9376 -1.4640  0.7947
   37MOL0     H 4838  11.828   9.533  -0.266 -2.4991  2.2554 -1.5175
   37MOL0     H 4839  11.923   9.640  -0.154 -0.3855  0.0003  1.1717
   37MOL0     H 4840  11.712   9.779  -0.112  0.5365  0.8629 -1.0722
   37MOL0     H 4841  11.647   9.697  -0.239 -1.6690  0.7995  2.7109
   37MOL0     H 4842  11.935   9.832  -0.257 -0.6678  1.7699 -1.2517
   37MOL0     H 4843  11.836   9.775  -0.384 -0.7106 -1.0089  0.1877
   37MOL0     H 4844  11.843  10.020  -0.374 -1.3452 -2.2420 -3.5263
   37MOL0     H 4845  11.788  10.011  -0.201  0.1869 -2.1220  0.8491
   37MOL0     H 4846  11.791  10.187  -0.456  0.2231  2.3869  0.0419
   37MOL0     H 4847  11.716  10.320  -0.631  0.9799 -1.1353 -1.2685
   37MOL0     H 4848  11.353  10.618  -0.663  4.7485  2.6652  1.6660
   37MOL0     H 4849  11.246  10.805  -0.804 -2.2266 -1.9452  0.6936
   37MOL0     H 4850  11.291  11.061  -1.078  3.3890 -2.5364 -1.4543
   37MOL0     H 4851  11.333  11.026  -0.902  2.5944 -0.6246 -0.8964
   37MOL0     H 4852  11.087  10.894  -0.898 -1.9763  0.8400  0.5584
   37MOL0     H 4853  11.070  10.977  -1.053  0.1230  1.1807  0.2747
   37MOL0     H 4854  11.086  11.074  -0.753 -0.4450 -0.2238  0.3536
   37MOL0     H 4855  10.953  11.092  -0.864 -0.0968 -2.9352 -2.6840
   37MOL0     H 4856  11.219  11.224  -0.878  1.0321  0.8556  3.3946
   37MOL0     H 4857  11.085  11.254  -1.001  0.3904 -1.7547 -0.1250
   37MOL0     H 4858  11.083  11.444  -0.860  2.8469 -1.8462 -1.5210
   37MOL0     H 4859  11.070  11.341  -0.711 -0.4912  1.9128  0.2148
   37MOL0     H 4860  10.859  11.430  -0.746  2.8720  2.3720 -1.3688
   37MOL0     H 4861  10.851  11.260  -0.758 -1.3795  0.0906  0.2199
   37MOL0     H 4862  10.856  11.448  -0.991  1.5079  0.8806  2.1504
   37MOL0     H 4863  10.869  11.271  -1.011 -2.2550  1.4280 -2.1388
   37MOL0     H 4864  10.629  11.412  -0.876  0.2649  1.5818 -1.1601
   37MOL0     H 4865  10.629  11.240  -0.930 -2.4773  1.4748 -0.2678
   37MOL0     H 4866  11.520  10.707  -1.119 -1.4760  4.7096  0.2517
   37MOL0     H 4867  11.600  10.514  -0.969 -0.1477 -1.1543 -0.1056
   37MOL0     H 4868  11.335  10.102  -0.619  0.3184 -2.4627  0.8896
   37MOL0     H 4869  11.438   9.944  -0.477 -0.0581  1.5871  2.8229
   37MOL0     H 4870  10.667   9.064   0.149 -1.8410  1.3031  1.4590
   37MOL0     H 4871  10.473   8.951   0.087  1.7645  0.9558  0.9169
   37MOL0     H 4872  10.276   8.359   0.091 -1.3600 -0.7972 -1.0605
   37MOL0     H 4873  10.078   8.257   0.186 -1.3313 -0.2307  1.5385
   37MOL0     H 4874   9.747   8.559   0.232 -2.2294 -0.8680 -0.0648
   37MOL0     H 4875   9.779   8.506   0.403  1.6510 -0.9353  0.2951
   37MOL0     H 4876   9.626   8.312   0.355 -2.5448  1.1633  1.7218
   37MOL0     H 4877   9.543   8.468   0.348  0.5469  1.7351 -0.6606
   37MOL0     H 4878   9.636   8.316   0.100 -2.8442 -1.4695 -2.3789
   37MOL0     H 4879   9.558   8.475   0.110  1.6320  0.2544  0.5723
   37MOL0     H 4880   9.440   8.219   0.193 -0.3136 -0.6477 -2.5700
   37MOL0     H 4881   9.346   8.377   0.186 -0.9901  1.0305 -0.8423
   37MOL0     H 4882   9.315   8.217  -0.193  0.0274 -0.1259 -0.5566
   37MOL0     H 4883   9.925   8.651   0.275 -0.8844 -0.6876 -1.3096
   37MOL0     H 4884  10.134   8.744   0.223 -0.1369 -0.3819  3.8882
   38MOL0     O 4885   4.399   2.070  10.814  0.1469  1.0853 -0.3460
   38MOL0     C 4886   4.370   2.101  10.930 -0.7333 -0.3702  0.4074
   38MOL0     O 4887   4.413   2.038  11.047 -0.8384 -0.5116  0.6246
   38MOL0     C 4888   4.453   1.905  11.032  0.4380 -0.0619 -0.7385
   38MOL0     C 4889   4.403   1.814  10.931  1.3416  0.4617  0.6036
   38MOL0     C 4890   4.463   1.686  10.924 -0.3806 -0.8823 -0.5492
   38MOL0     C 4891   4.554   1.640  11.025 -0.0336  1.0728 -0.2717
   38MOL0     O 4892   4.593   1.505  11.008 -0.2358 -0.4026 -0.5414
   38MOL0     C 4893   4.661   1.451  11.122  0.0927  0.5439 -0.5687
   38MOL0     C 4894   4.640   1.297  11.132  0.9324  1.0978 -0.7270
   38MOL0     C 4895   4.734   1.207  11.057 -0.0124  0.4416 -0.3430
   38MOL0     C 4896   4.722   1.056  11.086  0.5994 -0.9773 -0.8565
   38MOL0     C 4897   4.845   0.979  11.021  0.2332 -0.1365 -0.5008
   38MOL0     C 4898   4.828   0.833  11.045 -0.4606 -0.3789  0.7731
   38MOL0     C 4899   4.947   0.751  11.000  0.1281 -0.5851  0.1491
   38MOL0     C 4900   4.907   0.606  11.001 -0.3838  0.4671 -0.9213
   38MOL0     N 4901   5.012   0.516  11.053 -0.6660  0.1847  0.0740
   38MOL0     C 4902   5.087   0.444  10.974 -0.7851  1.0079 -0.3441
   38MOL0     C 4903   5.155   0.344  11.047 -0.6843  0.5670 -0.6041
   38MOL0     C 4904   5.259   0.251  10.995 -0.7893  1.1067  0.5047
   38MOL0     C 4905   5.179   0.127  10.932 -0.6594  0.6321 -0.3969
   38MOL0     C 4906   5.270   0.018  10.868 -1.0235  0.4974  0.4676
   38MOL0     C 4907   5.326  -0.072  10.983  0.6381 -0.0332  0.3273
   38MOL0     O 4908   5.398  -0.190  10.931 -0.6461  0.3649  0.1931
   38MOL0     C 4909   5.435  -0.293  11.012  0.7242 -0.3907 -0.1569
   38MOL0     C 4910   5.408  -0.289  11.152  0.3716 -0.4882 -1.3250
   38MOL0     C 4911   5.454  -0.382  11.240 -1.0121  0.5050  0.5556
   38MOL0     C 4912   5.536  -0.488  11.184  0.1156 -0.4353 -0.7528
   38MOL0     C 4913   5.572  -0.594  11.282  0.3682 -0.1910 -0.2454
   38MOL0     O 4914   5.545  -0.563  11.420  0.2313  1.1784 -0.4625
   38MOL0     C 4915   5.589  -0.640  11.518  0.1595  0.1560  0.4117
   38MOL0     C 4916   5.666  -0.758  11.518 -0.9602 -0.2200 -0.1004
   38MOL0     C 4917   5.713  -0.818  11.640 -0.5988 -0.0860  0.1748
   38MOL0     C 4918   5.711  -0.737  11.754 -0.6149  1.3261  0.4109
   38MOL0     O 4919   5.778  -0.801  11.856 -0.6715 -0.5072  0.3984
   38MOL0     C 4920   5.803  -0.719  11.968  0.2433 -0.0426  0.1637
   38MOL0     C 4921   5.871  -0.815  12.077 -0.4482  0.0780  0.2014
   38MOL0     C 4922   5.927  -0.738  12.193  0.2199 -0.0277 -0.5159
   38MOL0     C 4923   5.984  -0.844  12.295 -0.0619 -0.2851  0.6741
   38MOL0     C 4924   6.037  -0.777  12.422  0.2013  0.0332 -0.9149
   38MOL0     C 4925   6.063  -0.897  12.519  1.0320  0.7396 -0.4909
   38MOL0     C 4926   6.112  -0.860  12.662  0.6515  0.7792  0.2269
   38MOL0     C 4927   6.186  -0.725  12.670  0.1943 -0.8028  0.2966
   38MOL0    Cl 4928   6.280  -0.711  12.823  0.0903  0.1437 -0.5091
   38MOL0     C 4929   5.650  -0.612  11.757  0.2198  0.0490  0.1655
   38MOL0     C 4930   5.575  -0.572  11.644 -0.0249 -0.9796  0.4406
   38MOL0     O 4931   5.635  -0.687  11.237 -0.0935  0.3602  0.3809
   38MOL0     C 4932   5.564  -0.490  11.045  0.2457 -0.0765  0.7357
   38MOL0     C 4933   5.508  -0.401  10.961  0.9286 -0.9386  0.4325
   38MOL0     N 4934   5.098   0.352  11.172 -0.6595 -0.0298  0.3229
   38MOL0     N 4935   5.015   0.452  11.181 -0.3047 -0.5764 -0.3131
   38MOL0     C 4936   4.611   1.733  11.108  0.0353 -0.0952 -0.0573
   38MOL0     C 4937   4.565   1.864  11.106  1.1202 -1.0415  0.2270
   38MOL0     C 4938   4.291   2.225  10.957  0.3509  0.4230  0.2481
   38MOL0     C 4939   4.217   2.274  10.854 -1.3570  0.7868 -0.3799
   38MOL0     C 4940   4.123   2.375  10.868 -0.3437  1.0463 -0.8752
   38MOL0     C 4941   4.108   2.434  10.987 -0.4617 -0.4623  0.0721
   38MOL0     O 4942   4.021   2.534  11.010  0.7545 -0.9818 -0.1905
   38MOL0     C 4943   3.953   2.555  11.142 -0.4765  1.1484 -0.1945
   38MOL0     C 4944   3.806   2.597  11.131 -1.2489 -0.3654 -0.1790
   38MOL0     C 4945   3.749   2.576  11.277 -0.1219 -0.3502  0.3597
   38MOL0     C 4946   3.633   2.665  11.305 -0.5297 -0.1324 -0.1178
   38MOL0     C 4947   3.515   2.600  11.249 -0.0603  0.4773  0.1106
   38MOL0     C 4948   3.439   2.537  11.189  0.0603  0.1423  0.8277
   38MOL0     C 4949   4.194   2.403  11.088  0.2723 -0.3671  0.2111
   38MOL0     C 4950   4.289   2.298  11.075  0.0353 -0.1918 -0.4698
   38MOL0     H 4951   4.330   1.841  10.855  2.4553 -1.9775 -1.4840
   38MOL0     H 4952   4.420   1.619  10.850 -2.0227  2.1891 -2.6080
   38MOL0     H 4953   4.626   1.494  11.217 -0.0879 -0.5632 -0.1235
   38MOL0     H 4954   4.768   1.474  11.121  0.6486 -1.3366  2.6363
   38MOL0     H 4955   4.536   1.270  11.111  1.5188 -0.5197 -1.7198
   38MOL0     H 4956   4.658   1.267  11.235 -0.6831 -0.7194 -0.9200
   38MOL0     H 4957   4.835   1.244  11.078  0.2208 -0.3498 -0.0271
   38MOL0     H 4958   4.708   1.220  10.952 -1.8426  2.0748  0.2569
   38MOL0     H 4959   4.722   1.054  11.195 -0.2326  0.0347 -0.8299
   38MOL0     H 4960   4.623   1.022  11.054 -1.2375  2.5115  0.6299
   38MOL0     H 4961   4.934   1.030  11.059 -0.2593  0.4815 -0.1355
   38MOL0     H 4962   4.843   1.004  10.915  4.4280  3.1018 -0.1091
   38MOL0     H 4963   4.741   0.786  10.998  2.0727 -4.5624 -0.2391
   38MOL0     H 4964   4.818   0.806  11.151 -2.9755 -3.3740 -0.0627
   38MOL0     H 4965   4.976   0.783  10.899 -2.0855 -1.6668 -0.9133
   38MOL0     H 4966   5.034   0.769  11.063  1.1092  1.8952 -1.7187
   38MOL0     H 4967   4.884   0.570  10.900 -0.6592  1.1223 -1.0982
   38MOL0     H 4968   4.822   0.592  11.068 -1.1557 -2.8974 -2.3642
   38MOL0     H 4969   5.090   0.475  10.870 -2.6808  2.3327 -0.0559
   38MOL0     H 4970   5.324   0.215  11.076 -4.1522 -0.9719  2.5105
   38MOL0     H 4971   5.324   0.284  10.913 -0.1636  1.7873  1.2574
   38MOL0     H 4972   5.118   0.165  10.850 -2.8749 -0.1943  0.7754
   38MOL0     H 4973   5.119   0.080  11.010 -0.4618  0.1607 -0.5219
   38MOL0     H 4974   5.218  -0.061  10.813  2.7065 -2.1363  0.3517
   38MOL0     H 4975   5.349   0.058  10.804 -2.2741  0.1682 -1.3584
   38MOL0     H 4976   5.251  -0.101  11.057  1.9893 -2.0126  0.9917
   38MOL0     H 4977   5.411  -0.019  11.026 -0.3116  1.1931  0.7681
   38MOL0     H 4978   5.348  -0.211  11.199 -1.0135 -1.8611 -0.7507
   38MOL0     H 4979   5.439  -0.370  11.347  0.3231 -0.2898  0.8520
   38MOL0     H 4980   5.695  -0.800  11.422 -2.0365  1.2482 -1.1323
   38MOL0     H 4981   5.767  -0.912  11.633 -1.3464 -0.4064 -2.0615
   38MOL0     H 4982   5.708  -0.686  12.012  1.3221  2.8369  0.5968
   38MOL0     H 4983   5.868  -0.631  11.959 -0.7240  1.1727  3.5795
   38MOL0     H 4984   5.948  -0.877  12.029  0.6058  1.9260 -0.5747
   38MOL0     H 4985   5.792  -0.868  12.132  1.5065 -0.0867  3.0577
   38MOL0     H 4986   5.851  -0.677  12.245 -1.2753 -0.7781 -1.7325
   38MOL0     H 4987   6.003  -0.666  12.161 -1.4362  1.4362 -1.3823
   38MOL0     H 4988   5.909  -0.917  12.328  2.7804 -3.0276  1.5870
   38MOL0     H 4989   6.061  -0.897  12.238 -0.1526  1.1053 -0.8026
   38MOL0     H 4990   5.972  -0.695  12.455  3.7573  2.7327 -0.0463
   38MOL0     H 4991   6.135  -0.731  12.405  1.4861 -3.1752 -3.2548
   38MOL0     H 4992   6.135  -0.966  12.474 -0.5527 -1.8721  0.7158
   38MOL0     H 4993   5.980  -0.966  12.536  1.6169  0.2053  0.2715
   38MOL0     H 4994   6.031  -0.864  12.735  1.3761  0.5272  1.0365
   38MOL0     H 4995   6.178  -0.941  12.696 -1.2363 -0.9025  0.0898
   38MOL0     H 4996   6.122  -0.641  12.642  1.0181 -1.0311 -2.6983
   38MOL0     H 4997   6.271  -0.722  12.601  0.5244  2.6867  0.6815
   38MOL0     H 4998   5.659  -0.539  11.837 -2.2684  0.2691  0.3226
   38MOL0     H 4999   5.519  -0.479  11.640  1.7699  0.0766 -1.7048
   38MOL0     H 5000   5.626  -0.566  10.997  0.4575  0.4662  0.1374
   38MOL0     H 5001   5.514  -0.399  10.853 -0.0815 -3.1350  0.2926
   38MOL0     H 5002   4.677   1.701  11.188 -0.3733  2.8296  1.5931
   38MOL0     H 5003   4.608   1.943  11.167  0.0062 -0.3546  0.1332
   38MOL0     H 5004   4.210   2.226  10.757 -0.3265 -1.8355  0.7257
   38MOL0     H 5005   4.062   2.404  10.782 -4.2076 -2.2010  0.4347
   38MOL0     H 5006   4.008   2.628  11.202  1.6930 -0.3774 -0.1863
   38MOL0     H 5007   3.936   2.457  11.188  0.7550 -0.4675 -2.9530
   38MOL0     H 5008   3.804   2.704  11.111 -4.5256  0.0442  1.5595
   38MOL0     H 5009   3.745   2.535  11.064 -0.6101 -1.0527 -0.1310
   38MOL0     H 5010   3.830   2.581  11.351  2.3763 -0.2154 -2.1911
   38MOL0     H 5011   3.718   2.471  11.276 -0.3298 -0.2889 -0.3448
   38MOL0     H 5012   3.628   2.694  11.410 -1.9890  1.9474 -0.6873
   38MOL0     H 5013   3.657   2.755  11.248  3.0179 -1.9288 -1.7745
   38MOL0     H 5014   3.371   2.471  11.140  0.0895  3.2141 -3.9757
   38MOL0     H 5015   4.186   2.463  11.178  1.4791  2.0201 -1.1727
   38MOL0     H 5016   4.357   2.282  11.158  1.5416 -0.0371 -1.6337
   39MOL0     O 5017   0.810   4.463   4.991 -0.1742 -0.2762  1.4715
   39MOL0     C 5018   0.691   4.488   5.008 -0.1701 -0.1356  0.6436
   39MOL0     O 5019   0.635   4.547   5.114 -0.2114  0.0345 -0.1382
   39MOL0     C 5020   0.666   4.484   5.238  0.5275  0.4013  0.7457
   39MOL0     C 5021   0.747   4.551   5.318  0.9609  0.1810 -0.8027
   39MOL0     C 5022   0.758   4.512   5.452  0.0141  0.2927 -0.1607
   39MOL0     C 5023   0.729   4.386   5.512  0.0856  0.1670  0.0223
   39MOL0     O 5024   0.753   4.347   5.643  0.1020 -0.8105 -0.0742
   39MOL0     C 5025   0.785   4.215   5.667  0.6248  0.7417 -0.3333
   39MOL0     C 5026   0.752   4.202   5.819  0.4710  1.0218 -0.6724
   39MOL0     C 5027   0.863   4.246   5.907  0.2575  0.7938 -0.3634
   39MOL0     C 5028   0.841   4.200   6.052  0.5906  0.4959  0.4552
   39MOL0     C 5029   0.953   4.237   6.156  0.6609  0.7578 -0.2641
   39MOL0     C 5030   0.939   4.179   6.298  0.0686 -0.0073 -0.9298
   39MOL0     C 5031   0.827   4.247   6.379 -0.5919  0.1128 -1.5561
   39MOL0     C 5032   0.872   4.377   6.451  0.1119  0.5060  0.4982
   39MOL0     N 5033   0.854   4.500   6.359  0.4367  0.1585 -0.6144
   39MOL0     C 5034   0.739   4.544   6.291  0.3635 -0.8982  0.3909
   39MOL0     C 5035   0.772   4.667   6.242 -0.1747 -0.0307 -1.0652
   39MOL0     C 5036   0.692   4.749   6.139 -0.4230  0.4119  0.6023
   39MOL0     C 5037   0.703   4.687   5.995 -0.0807  0.0261  0.0674
   39MOL0     C 5038   0.840   4.666   5.933 -0.0331  1.0490 -0.5818
   39MOL0     C 5039   0.850   4.629   5.791  0.3422 -0.0350  0.1191
   39MOL0     O 5040   0.811   4.738   5.704 -0.0289  0.1089  0.0067
   39MOL0     C 5041   0.894   4.841   5.665 -0.1051  0.0906  0.2301
   39MOL0     C 5042   0.840   4.933   5.582  0.1724 -0.1307 -0.0276
   39MOL0     C 5043   0.904   5.048   5.536  0.4082  0.4424  0.4680
   39MOL0     C 5044   1.033   5.072   5.579  0.4803 -0.0891 -0.1969
   39MOL0     C 5045   1.123   5.180   5.525 -0.5353  0.4982 -0.3856
   39MOL0     O 5046   1.247   5.195   5.571  0.8187  0.6351 -0.2251
   39MOL0     C 5047   1.342   5.279   5.519 -0.3364 -0.0758  0.4478
   39MOL0     C 5048   1.460   5.306   5.600 -0.4752  0.4216  0.8068
   39MOL0     C 5049   1.560   5.395   5.568  0.1732 -0.0793  0.1165
   39MOL0     C 5050   1.547   5.449   5.443 -0.0305 -0.1692  0.1667
   39MOL0     O 5051   1.651   5.540   5.421  0.6872 -0.7130  0.1648
   39MOL0     C 5052   1.713   5.554   5.285  0.2657  0.4792  0.1867
   39MOL0     C 5053   1.769   5.697   5.276 -0.6929 -1.0097  0.4266
   39MOL0     C 5054   1.663   5.798   5.255  0.2066 -0.0493  0.0647
   39MOL0     C 5055   1.710   5.929   5.193 -1.1564  1.3790  0.2498
   39MOL0     C 5056   1.612   6.041   5.191  0.8737 -1.1752  0.3193
   39MOL0     C 5057   1.631   6.146   5.082  0.1513 -0.2069  0.3268
   39MOL0     C 5058   1.722   6.259   5.124  0.8855 -0.6200 -0.4161
   39MOL0     C 5059   1.653   6.336   5.242  1.0068  0.0559 -1.2833
   39MOL0    Cl 5060   1.711   6.505   5.272  0.1929  0.2291  0.1823
   39MOL0     C 5061   1.448   5.415   5.352  0.1864  0.6494  0.1919
   39MOL0     C 5062   1.346   5.333   5.394 -0.6529 -0.6297  0.2642
   39MOL0     O 5063   1.070   5.250   5.438 -0.2958 -0.1208  0.1724
   39MOL0     C 5064   1.093   4.982   5.663 -0.5018  0.3981  0.0320
   39MOL0     C 5065   1.031   4.865   5.711  0.0248  0.1244  0.6203
   39MOL0     N 5066   0.887   4.714   6.301 -0.0612  0.8088 -0.4385
   39MOL0     N 5067   0.931   4.613   6.364  0.2060 -0.8783  0.5401
   39MOL0     C 5068   0.652   4.300   5.420  0.8571 -0.0341 -0.5970
   39MOL0     C 5069   0.608   4.357   5.294 -0.4384  0.0855 -0.6192
   39MOL0     C 5070   0.591   4.473   4.884 -0.5097 -0.3067 -0.9368
   39MOL0     C 5071   0.635   4.402   4.772 -0.6102 -0.4358  0.8940
   39MOL0     C 5072   0.565   4.403   4.654  0.0937  0.5509 -0.4713
   39MOL0     C 5073   0.439   4.453   4.647  0.6324  0.4416  0.0680
   39MOL0     O 5074   0.370   4.458   4.533 -0.2010  0.5255 -0.8207
   39MOL0     C 5075   0.390   4.343   4.435 -0.0873 -0.8019 -0.2076
   39MOL0     C 5076   0.249   4.309   4.397  0.1767 -0.5217 -0.4745
   39MOL0     C 5077   0.249   4.175   4.326 -0.6342 -0.1950  0.0347
   39MOL0     C 5078   0.103   4.148   4.273 -0.3171 -0.4974  0.0364
   39MOL0     C 5079   0.092   4.009   4.230 -0.0668  0.8731 -0.3533
   39MOL0     C 5080   0.067   3.888   4.215  0.0402  0.1364 -0.7884
   39MOL0     C 5081   0.384   4.514   4.768 -0.3907  0.7415  0.0956
   39MOL0     C 5082   0.460   4.520   4.883  1.1780 -0.1958 -0.7143
   39MOL0     H 5083   0.788   4.648   5.291 -0.1104  1.0681  0.6232
   39MOL0     H 5084   0.800   4.585   5.520  1.0714 -0.5455  0.1198
   39MOL0     H 5085   0.889   4.210   5.632  0.3560  0.3082 -1.0952
   39MOL0     H 5086   0.716   4.144   5.620 -0.0867 -2.8606  5.2016
   39MOL0     H 5087   0.728   4.097   5.835  1.1836  0.8429 -0.7387
   39MOL0     H 5088   0.660   4.255   5.847  0.7243  0.3918  1.4742
   39MOL0     H 5089   0.864   4.355   5.896  2.1852  0.7647 -0.9834
   39MOL0     H 5090   0.956   4.198   5.874  0.4241 -0.6202  1.9603
   39MOL0     H 5091   0.744   4.241   6.082  1.2463  1.8426  0.8127
   39MOL0     H 5092   0.833   4.092   6.060 -0.6541  0.7037  3.4729
   39MOL0     H 5093   0.960   4.346   6.161 -1.2567  0.8517  3.1483
   39MOL0     H 5094   1.044   4.198   6.110 -1.3320 -2.7113 -1.6605
   39MOL0     H 5095   1.034   4.187   6.351 -0.6793  2.6704  0.1501
   39MOL0     H 5096   0.912   4.075   6.281  0.9486  0.0858 -3.3279
   39MOL0     H 5097   0.737   4.266   6.320 -0.2344  1.6485 -1.6526
   39MOL0     H 5098   0.810   4.174   6.458 -1.7575  1.6348 -0.3626
   39MOL0     H 5099   0.973   4.370   6.493  2.4270  2.4845 -4.0164
   39MOL0     H 5100   0.803   4.388   6.535 -0.5320  2.1760 -0.1906
   39MOL0     H 5101   0.647   4.492   6.267  0.1420  0.3471 -1.6812
   39MOL0     H 5102   0.737   4.849   6.140  0.4035  0.0775  2.2683
   39MOL0     H 5103   0.587   4.749   6.168 -0.2765  2.6987  1.2838
   39MOL0     H 5104   0.677   4.761   5.918  1.4858 -0.0386 -0.5634
   39MOL0     H 5105   0.631   4.604   5.996 -3.3854  2.6509  1.6860
   39MOL0     H 5106   0.891   4.758   5.961 -0.8589  1.0343  1.0789
   39MOL0     H 5107   0.878   4.587   5.999 -2.9842  0.1842  0.2363
   39MOL0     H 5108   0.783   4.543   5.781  0.0117  0.1997  0.2845
   39MOL0     H 5109   0.949   4.596   5.760 -1.0800 -3.8776 -0.9152
   39MOL0     H 5110   0.736   4.911   5.558  1.3792 -3.4914 -2.9928
   39MOL0     H 5111   0.844   5.119   5.479 -0.3007 -1.2660 -1.0155
   39MOL0     H 5112   1.456   5.247   5.691 -3.5199  1.4301  1.4444
   39MOL0     H 5113   1.638   5.413   5.640  0.0709  0.0522  0.1966
   39MOL0     H 5114   1.650   5.526   5.200  1.2379 -2.8057  0.4196
   39MOL0     H 5115   1.803   5.491   5.281  1.0935  1.6444 -0.1503
   39MOL0     H 5116   1.830   5.686   5.186  0.2669 -3.8026  1.3038
   39MOL0     H 5117   1.840   5.717   5.357 -0.4889 -1.5929  0.4029
   39MOL0     H 5118   1.620   5.836   5.348  0.6556 -0.2698  0.3601
   39MOL0     H 5119   1.582   5.762   5.191  0.7293  0.4471 -0.9033
   39MOL0     H 5120   1.792   5.955   5.260 -1.1543  0.1293  0.7633
   39MOL0     H 5121   1.736   5.895   5.092 -2.8944  0.1366  0.1594
   39MOL0     H 5122   1.603   6.091   5.288 -0.2583 -2.8570  1.1121
   39MOL0     H 5123   1.515   5.995   5.177  0.6330 -1.0931  1.5687
   39MOL0     H 5124   1.530   6.181   5.061 -0.0445 -0.9812 -0.0620
   39MOL0     H 5125   1.665   6.102   4.988  0.3755  2.7935 -1.0930
   39MOL0     H 5126   1.815   6.220   5.167 -1.4952 -4.0631  2.2590
   39MOL0     H 5127   1.735   6.322   5.036 -0.2489 -0.0567 -0.1897
   39MOL0     H 5128   1.659   6.282   5.337 -0.8448  1.5409 -0.2345
   39MOL0     H 5129   1.545   6.341   5.226  0.4927  0.2507  1.6780
   39MOL0     H 5130   1.457   5.438   5.246  1.5078  0.0880  0.1666
   39MOL0     H 5131   1.264   5.324   5.324 -0.5234  0.6920 -0.0875
   39MOL0     H 5132   1.197   4.985   5.696  0.4231 -3.3061 -1.9613
   39MOL0     H 5133   1.073   4.798   5.785 -0.6855 -1.0745 -0.0293
   39MOL0     H 5134   0.612   4.200   5.437 -0.0472  0.7469  2.4113
   39MOL0     H 5135   0.550   4.293   5.229 -1.9331 -1.7734  2.3194
   39MOL0     H 5136   0.737   4.367   4.779 -0.6919 -0.2975  4.0606
   39MOL0     H 5137   0.597   4.344   4.569 -3.1818 -1.4193 -0.5152
   39MOL0     H 5138   0.452   4.262   4.473  0.8394 -0.1268 -0.2368
   39MOL0     H 5139   0.441   4.380   4.346  1.7900 -1.2623  0.6302
   39MOL0     H 5140   0.188   4.308   4.488  1.3671 -0.5200  0.3500
   39MOL0     H 5141   0.212   4.384   4.326  0.8196 -0.1493 -0.4244
   39MOL0     H 5142   0.288   4.095   4.389  1.2365 -1.6564 -2.7773
   39MOL0     H 5143   0.321   4.178   4.244 -0.8640 -0.7491 -0.1981
   39MOL0     H 5144   0.033   4.155   4.356 -1.4786 -0.5719 -0.9027
   39MOL0     H 5145   0.068   4.216   4.195 -1.6838 -1.1933  0.0082
   39MOL0     H 5146   0.041   3.784   4.219 -2.1277  0.6222 -0.8604
   39MOL0     H 5147   0.287   4.561   4.767 -1.6128 -1.6284 -0.5698
   39MOL0     H 5148   0.413   4.555   4.975  4.2903  3.6399 -0.3155
   40MOL0     O 5149   7.788   8.997   3.723 -0.1289  0.2414 -0.0148
   40MOL0     C 5150   7.782   8.969   3.844 -0.0760 -0.0084 -0.3977
   40MOL0     O 5151   7.693   9.021   3.933  0.0353  0.4574 -0.1594
   40MOL0     C 5152   7.608   9.122   3.893 -0.0049  0.3651 -0.8659
   40MOL0     C 5153   7.667   9.231   3.828 -0.6187 -0.7197  0.1821
   40MOL0     C 5154   7.592   9.345   3.801 -0.8764 -0.3390 -0.9321
   40MOL0     C 5155   7.456   9.348   3.832  0.1790  0.3639  0.3173
   40MOL0     O 5156   7.391   9.464   3.811 -0.4498  0.5934 -0.0281
   40MOL0     C 5157   7.249   9.472   3.840 -0.7541 -0.1619  0.0202
   40MOL0     C 5158   7.212   9.606   3.788 -0.0224 -0.5620 -0.7170
   40MOL0     C 5159   7.207   9.604   3.633  0.2487  0.4661 -0.6096
   40MOL0     C 5160   7.079   9.531   3.579  0.2629 -0.2973 -0.8214
   40MOL0     C 5161   7.077   9.553   3.432 -0.1827 -0.4256 -0.0991
   40MOL0     C 5162   6.996   9.444   3.357  0.0178  0.8509  1.4690
   40MOL0     C 5163   6.994   9.481   3.212 -0.1483  0.1915  0.0272
   40MOL0     C 5164   6.859   9.540   3.175  0.7126 -0.3270 -0.2296
   40MOL0     N 5165   6.857   9.616   3.047  0.5980  1.0613 -0.3481
   40MOL0     C 5166   6.946   9.721   3.026 -0.2225  0.8405 -0.2037
   40MOL0     C 5167   6.920   9.754   2.896  0.8682 -0.0195 -0.5450
   40MOL0     C 5168   7.013   9.841   2.816 -0.1829  0.1094  0.2691
   40MOL0     C 5169   6.939   9.961   2.754  0.2116 -0.3865 -0.6107
   40MOL0     C 5170   6.999  10.033   2.637  0.1339 -0.6369 -0.5607
   40MOL0     C 5171   6.909  10.154   2.603  0.0333 -0.0152  0.4522
   40MOL0     O 5172   6.929  10.188   2.467 -0.7186  0.0083  0.3490
   40MOL0     C 5173   6.866  10.303   2.424  0.3025 -1.5042  0.1142
   40MOL0     C 5174   6.809  10.409   2.500 -0.4074 -0.1595  0.0717
   40MOL0     C 5175   6.752  10.521   2.426 -0.7609  0.8104  0.5909
   40MOL0     C 5176   6.751  10.540   2.285 -0.2470 -0.0658  0.8729
   40MOL0     C 5177   6.707  10.665   2.220 -0.4823  0.8926  0.0481
   40MOL0     O 5178   6.692  10.775   2.298 -0.5581  0.8197  1.0185
   40MOL0     C 5179   6.660  10.893   2.236  0.8258 -0.3628  0.2108
   40MOL0     C 5180   6.747  10.998   2.218  0.0043 -0.3532  0.6491
   40MOL0     C 5181   6.698  11.117   2.166 -0.0757  1.3112 -0.8390
   40MOL0     C 5182   6.563  11.134   2.130 -0.1127  0.3460  0.1205
   40MOL0     O 5183   6.511  11.246   2.061 -1.2153 -0.4386  0.0737
   40MOL0     C 5184   6.582  11.373   2.074 -0.7435  0.4413 -0.0250
   40MOL0     C 5185   6.480  11.487   2.065 -0.3717 -0.3091 -0.1774
   40MOL0     C 5186   6.533  11.624   2.033 -0.3338  0.1596 -0.8397
   40MOL0     C 5187   6.606  11.650   1.901  1.1529 -0.0286  1.1730
   40MOL0     C 5188   6.537  11.639   1.763 -0.4445  0.2411  0.0704
   40MOL0     C 5189   6.453  11.760   1.726 -0.8443 -0.7031 -0.5181
   40MOL0     C 5190   6.377  11.725   1.588 -0.3709 -0.2925  0.1572
   40MOL0     C 5191   6.289  11.834   1.541  0.1004  0.5572  0.4577
   40MOL0    Cl 5192   6.195  11.779   1.403  0.5110  0.5279  0.2750
   40MOL0     C 5193   6.475  11.028   2.141 -0.4853  0.0832  0.2559
   40MOL0     C 5194   6.531  10.905   2.186 -0.7071 -0.7514 -0.3076
   40MOL0     O 5195   6.674  10.653   2.101  0.3860 -0.4009  0.3155
   40MOL0     C 5196   6.803  10.435   2.217 -0.0628 -0.2287  0.6707
   40MOL0     C 5197   6.866  10.320   2.284 -0.5875 -0.0980 -0.5139
   40MOL0     N 5198   6.814   9.676   2.848  0.1731  0.0823  0.8919
   40MOL0     N 5199   6.768   9.608   2.945  0.4485 -0.3059 -0.1888
   40MOL0     C 5200   7.392   9.232   3.885  0.0890 -0.2016 -0.4107
   40MOL0     C 5201   7.475   9.123   3.922 -1.1591  0.2027  0.1220
   40MOL0     C 5202   7.874   8.873   3.904  0.3555 -0.9645  0.4430
   40MOL0     C 5203   7.975   8.808   3.820 -0.3331 -0.8556 -0.3827
   40MOL0     C 5204   8.080   8.737   3.879 -0.2338  0.1478  0.1965
   40MOL0     C 5205   8.094   8.743   4.018  0.1907  0.3134 -0.0920
   40MOL0     O 5206   8.198   8.674   4.064 -0.4960 -0.3433 -0.0807
   40MOL0     C 5207   8.223   8.668   4.208 -0.1401 -0.1108 -0.1878
   40MOL0     C 5208   8.370   8.641   4.235 -0.8295  0.4410  0.3201
   40MOL0     C 5209   8.381   8.579   4.370 -0.6419 -0.4233 -0.1867
   40MOL0     C 5210   8.528   8.560   4.418  0.1192  0.0744  0.5227
   40MOL0     C 5211   8.551   8.652   4.530 -0.0662 -0.6892  0.6430
   40MOL0     C 5212   8.588   8.729   4.611  0.3493 -0.1211  0.5055
   40MOL0     C 5213   7.998   8.805   4.092 -0.2894 -0.1904  0.5941
   40MOL0     C 5214   7.884   8.861   4.041 -0.7391 -0.9045  0.4755
   40MOL0     H 5215   7.766   9.227   3.785 -0.6561 -2.2171  0.1827
   40MOL0     H 5216   7.646   9.423   3.747 -0.8927 -0.8674 -1.7356
   40MOL0     H 5217   7.242   9.471   3.949  1.9549 -3.2410  0.3075
   40MOL0     H 5218   7.187   9.391   3.800 -1.1193 -1.7115  3.3469
   40MOL0     H 5219   7.291   9.677   3.813 -0.9276  0.5616 -0.9570
   40MOL0     H 5220   7.127   9.637   3.851  0.1962 -0.0491 -0.6720
   40MOL0     H 5221   7.292   9.545   3.597 -0.8793 -1.2967 -0.5063
   40MOL0     H 5222   7.211   9.709   3.602 -1.2412  0.7632  0.1255
   40MOL0     H 5223   7.071   9.423   3.595  0.3114 -0.5794 -2.5125
   40MOL0     H 5224   6.997   9.580   3.631 -0.2422 -2.7742  0.8786
   40MOL0     H 5225   7.175   9.558   3.385 -0.5462 -1.5442 -1.0165
   40MOL0     H 5226   7.045   9.658   3.438  2.0829  0.2325  3.0490
   40MOL0     H 5227   6.892   9.437   3.391 -0.9579  1.2406 -1.1945
   40MOL0     H 5228   7.038   9.343   3.365 -1.7694 -0.0903 -0.2127
   40MOL0     H 5229   7.073   9.554   3.192  1.6138 -1.1248  1.8285
   40MOL0     H 5230   7.021   9.397   3.147  3.4265 -0.8903  2.6383
   40MOL0     H 5231   6.834   9.617   3.248 -3.2498 -2.8448  1.4027
   40MOL0     H 5232   6.790   9.456   3.189  1.5518 -0.7431  1.9897
   40MOL0     H 5233   7.029   9.761   3.083 -0.8925  1.2543  0.5140
   40MOL0     H 5234   7.057   9.785   2.733  1.0118  1.9060 -0.3624
   40MOL0     H 5235   7.091   9.873   2.886  0.9308  1.9978 -1.7129
   40MOL0     H 5236   6.926  10.039   2.830  1.3316 -1.2492  0.5231
   40MOL0     H 5237   6.843   9.929   2.713  0.3355 -0.8891 -0.5038
   40MOL0     H 5238   7.103  10.062   2.654  0.3031 -1.1278 -0.7462
   40MOL0     H 5239   6.994   9.960   2.555 -1.9744 -1.7831  0.5312
   40MOL0     H 5240   6.938  10.229   2.677 -3.7214  0.9087  1.2092
   40MOL0     H 5241   6.802  10.145   2.624 -0.1312  3.5392  1.9992
   40MOL0     H 5242   6.802  10.410   2.608  2.4684  0.0401  0.3370
   40MOL0     H 5243   6.700  10.600   2.478  0.3988 -0.2826  3.6548
   40MOL0     H 5244   6.852  10.977   2.238 -0.5121 -0.7768  3.2593
   40MOL0     H 5245   6.775  11.187   2.135  2.7670 -1.5956 -0.7600
   40MOL0     H 5246   6.664  11.383   2.001 -1.1213 -1.6615 -0.8331
   40MOL0     H 5247   6.620  11.384   2.176 -0.1014 -3.0540  0.2661
   40MOL0     H 5248   6.416  11.490   2.154 -0.4067  2.9392 -0.1862
   40MOL0     H 5249   6.409  11.456   1.987 -1.0558  0.5600  0.0805
   40MOL0     H 5250   6.599  11.641   2.119  3.0877 -1.1851 -2.9680
   40MOL0     H 5251   6.449  11.694   2.042 -1.3632 -0.9538 -1.5275
   40MOL0     H 5252   6.642  11.753   1.906  0.6390  0.2509 -0.3182
   40MOL0     H 5253   6.702  11.598   1.898  2.0475  1.3695 -4.1870
   40MOL0     H 5254   6.478  11.548   1.753 -0.7940  0.4374  0.3424
   40MOL0     H 5255   6.618  11.645   1.689 -0.0109 -1.8662  0.3003
   40MOL0     H 5256   6.520  11.845   1.709  1.6157 -1.6327  3.1857
   40MOL0     H 5257   6.388  11.786   1.810 -1.5228  1.8649 -1.7409
   40MOL0     H 5258   6.443  11.699   1.505  0.1545 -2.0133  1.0643
   40MOL0     H 5259   6.306  11.643   1.606  0.1515 -0.7542  0.1659
   40MOL0     H 5260   6.343  11.927   1.523 -0.5973  0.6619 -1.2589
   40MOL0     H 5261   6.222  11.860   1.623 -1.0481  0.7003 -0.4908
   40MOL0     H 5262   6.367  11.034   2.131 -0.3532 -0.8231 -2.9783
   40MOL0     H 5263   6.457  10.829   2.210 -2.6659  1.7090  2.2879
   40MOL0     H 5264   6.813  10.454   2.111 -5.2857  0.0711  0.0161
   40MOL0     H 5265   6.911  10.239   2.227 -0.4009 -0.2932 -0.0967
   40MOL0     H 5266   7.285   9.228   3.901  0.6227 -2.2718  4.0263
   40MOL0     H 5267   7.434   9.033   3.967 -2.2488 -0.3527 -1.8314
   40MOL0     H 5268   7.970   8.808   3.712  1.9842 -0.5495 -0.5351
   40MOL0     H 5269   8.151   8.681   3.820 -0.4504  0.3758 -0.2869
   40MOL0     H 5270   8.152   8.610   4.268  0.6678 -0.3862  0.5265
   40MOL0     H 5271   8.212   8.772   4.240  0.6942  0.4252 -1.5805
   40MOL0     H 5272   8.412   8.571   4.162 -0.8476  1.3742 -0.6010
   40MOL0     H 5273   8.431   8.731   4.230  0.5678 -0.5237 -1.6260
   40MOL0     H 5274   8.327   8.484   4.361  0.6156 -1.1233 -0.5088
   40MOL0     H 5275   8.329   8.639   4.445 -1.2702 -2.7691  1.3754
   40MOL0     H 5276   8.533   8.454   4.444  1.8250 -1.3958 -4.6395
   40MOL0     H 5277   8.606   8.582   4.345  2.5364  4.7151  3.9417
   40MOL0     H 5278   8.606   8.797   4.692  0.6748 -0.4740  0.7294
   40MOL0     H 5279   8.006   8.800   4.200  4.0041  2.1976  0.6075
   40MOL0     H 5280   7.805   8.898   4.105  0.3643  0.0979  1.3081
   41MOL0     O 5281   8.236   4.966   7.683  0.0571  0.0739  0.6712
   41MOL0     C 5282   8.299   4.917   7.591 -0.6954 -0.7837 -0.0693
   41MOL0     O 5283   8.300   4.780   7.561 -0.1135  0.2021  0.4379
   41MOL0     C 5284   8.222   4.686   7.626  0.2836  0.4395 -0.5628
   41MOL0     C 5285   8.275   4.557   7.649  0.2526 -0.1343  0.1736
   41MOL0     C 5286   8.185   4.444   7.691  0.2022 -0.3107  0.5835
   41MOL0     C 5287   8.055   4.475   7.724  0.6230  0.6583 -0.0054
   41MOL0     O 5288   7.985   4.381   7.787  0.4523  0.8787  1.0898
   41MOL0     C 5289   7.892   4.419   7.886 -0.4054 -0.6196  0.7901
   41MOL0     C 5290   7.877   4.287   7.971 -0.4340  0.8444 -0.3709
   41MOL0     C 5291   8.007   4.227   8.017  0.2301  0.1734  0.2212
   41MOL0     C 5292   8.104   4.332   8.076  0.1059 -0.7847  0.4887
   41MOL0     C 5293   8.190   4.268   8.182 -0.6461  0.3696 -1.1099
   41MOL0     C 5294   8.293   4.363   8.243  0.2985 -0.2832 -0.0486
   41MOL0     C 5295   8.385   4.293   8.344  1.4238 -0.5461 -0.4541
   41MOL0     C 5296   8.478   4.386   8.418 -0.3237  0.0838 -0.1932
   41MOL0     N 5297   8.405   4.443   8.530  0.8944  0.4071 -0.2740
   41MOL0     C 5298   8.423   4.402   8.659  0.0488 -0.1514 -0.6186
   41MOL0     C 5299   8.366   4.501   8.732  0.5721  0.1828 -0.5658
   41MOL0     C 5300   8.337   4.511   8.879  0.8311  0.1617 -0.8315
   41MOL0     C 5301   8.248   4.403   8.928 -0.0420 -0.2664  0.5457
   41MOL0     C 5302   8.231   4.423   9.082  0.0873  0.4236  0.0253
   41MOL0     C 5303   8.140   4.319   9.144 -0.0858 -0.1105  0.4370
   41MOL0     O 5304   8.153   4.339   9.285  0.7888 -0.2132  0.3498
   41MOL0     C 5305   8.102   4.243   9.370  0.0719 -0.2835 -0.1079
   41MOL0     C 5306   8.089   4.282   9.508 -0.2940  0.1334  0.0851
   41MOL0     C 5307   8.042   4.197   9.601 -0.0915 -0.0623 -0.0175
   41MOL0     C 5308   7.993   4.068   9.564  0.6253 -0.0575  0.2198
   41MOL0     C 5309   7.954   3.978   9.673  0.7856 -0.7145  0.1441
   41MOL0     O 5310   7.946   4.037   9.803  0.6103  0.6864  0.7665
   41MOL0     C 5311   7.905   3.976   9.920 -0.5327  0.6028 -0.2755
   41MOL0     C 5312   7.827   3.860   9.937  0.4538  0.1848 -0.6813
   41MOL0     C 5313   7.789   3.816  10.060  1.0116 -1.0119 -0.3435
   41MOL0     C 5314   7.826   3.877  10.177 -0.8575  1.7008  0.2514
   41MOL0     O 5315   7.793   3.828  10.305 -0.1248 -0.1889 -0.7714
   41MOL0     C 5316   7.696   3.719  10.325  0.0399 -0.9121  1.0747
   41MOL0     C 5317   7.666   3.703  10.472 -0.0720 -0.5705 -0.6423
   41MOL0     C 5318   7.565   3.807  10.532 -0.6394 -0.1472 -0.5793
   41MOL0     C 5319   7.666   3.911  10.601  1.3378  0.2214  0.2095
   41MOL0     C 5320   7.569   4.005  10.688  0.4267 -0.6980 -0.1522
   41MOL0     C 5321   7.662   4.095  10.769 -0.4800  0.5904  0.6426
   41MOL0     C 5322   7.583   4.189  10.860 -0.8716  0.2390  0.2893
   41MOL0     C 5323   7.639   4.331  10.869  0.0057  0.2799 -0.6249
   41MOL0    Cl 5324   7.801   4.329  10.968  0.0278 -0.0384 -0.3207
   41MOL0     C 5325   7.904   3.985  10.162 -0.3834 -1.2847  0.0067
   41MOL0     C 5326   7.944   4.037  10.037  0.2573 -0.5339 -0.2276
   41MOL0     O 5327   7.916   3.869   9.639  0.0396  0.2049 -0.5394
   41MOL0     C 5328   7.988   4.034   9.422 -0.6566  0.3828 -0.2732
   41MOL0     C 5329   8.042   4.126   9.325 -0.1950  0.9646 -0.2072
   41MOL0     N 5330   8.313   4.594   8.647  0.5885 -0.4732  0.6548
   41MOL0     N 5331   8.347   4.564   8.528  0.2838  0.0704 -0.3785
   41MOL0     C 5332   8.003   4.600   7.702 -0.1879 -0.1113  0.0500
   41MOL0     C 5333   8.086   4.713   7.657 -0.4801  0.2009 -0.0511
   41MOL0     C 5334   8.397   5.011   7.522 -1.0453 -0.1339 -0.1561
   41MOL0     C 5335   8.491   4.958   7.435 -0.2944  0.0128  0.0769
   41MOL0     C 5336   8.582   5.047   7.379 -0.7144  0.2240 -0.1849
   41MOL0     C 5337   8.589   5.183   7.401  0.1924 -0.7250  0.1460
   41MOL0     O 5338   8.681   5.275   7.347  0.3180 -0.1389  0.5699
   41MOL0     C 5339   8.733   5.245   7.218 -0.3672  0.2427  0.0144
   41MOL0     C 5340   8.775   5.374   7.151 -0.2754  0.0845  0.3072
   41MOL0     C 5341   8.896   5.444   7.202  0.0730 -0.2717  0.0324
   41MOL0     C 5342   8.911   5.592   7.167 -0.2536 -0.3501 -0.2621
   41MOL0     C 5343   8.951   5.612   7.028  0.2973 -0.3622  0.0493
   41MOL0     C 5344   8.997   5.616   6.912  0.0275 -0.5355 -0.8231
   41MOL0     C 5345   8.498   5.233   7.497 -0.9881 -0.0403  0.4345
   41MOL0     C 5346   8.394   5.152   7.551  0.5021  0.1329  0.0866
   41MOL0     H 5347   8.379   4.536   7.628  0.9208  2.3124  0.7447
   41MOL0     H 5348   8.226   4.343   7.699  0.4065 -0.4124 -1.2970
   41MOL0     H 5349   7.792   4.443   7.846 -0.4692  1.1229  1.8589
   41MOL0     H 5350   7.922   4.496   7.957 -4.3764  1.6963  0.3091
   41MOL0     H 5351   7.832   4.215   7.902  0.3252  2.9358 -3.2695
   41MOL0     H 5352   7.808   4.302   8.054  0.6958  1.1304  0.5280
   41MOL0     H 5353   8.053   4.169   7.937 -1.5856  0.8122 -1.3557
   41MOL0     H 5354   7.983   4.157   8.097 -0.9970  1.8603  1.4083
   41MOL0     H 5355   8.163   4.370   7.992 -1.3196  0.1109 -0.1405
   41MOL0     H 5356   8.048   4.419   8.111  0.2514 -0.0452 -1.0277
   41MOL0     H 5357   8.235   4.177   8.140  1.4217  1.4345 -1.3038
   41MOL0     H 5358   8.127   4.233   8.264  2.1689  1.1435  1.5621
   41MOL0     H 5359   8.236   4.438   8.298  4.7714  3.4057  0.1564
   41MOL0     H 5360   8.344   4.417   8.162 -1.3179 -0.0153 -0.9386
   41MOL0     H 5361   8.312   4.241   8.406 -1.5869  0.6129 -2.7256
   41MOL0     H 5362   8.447   4.222   8.290  1.6980  1.0736 -2.3803
   41MOL0     H 5363   8.510   4.467   8.352 -1.0852  0.7077  0.1734
   41MOL0     H 5364   8.560   4.320   8.446 -0.9537 -1.7171 -2.3489
   41MOL0     H 5365   8.459   4.304   8.687 -2.0453 -0.6880  0.3930
   41MOL0     H 5366   8.288   4.606   8.900  2.9841  1.1915 -0.1916
   41MOL0     H 5367   8.431   4.507   8.935  0.0702  0.7912  0.5343
   41MOL0     H 5368   8.282   4.300   8.913  2.7470  0.0317  3.6350
   41MOL0     H 5369   8.155   4.411   8.872  0.4481  4.7504  0.0182
   41MOL0     H 5370   8.329   4.406   9.127 -1.0869 -0.7999  2.2919
   41MOL0     H 5371   8.179   4.519   9.094 -1.8260 -0.1145 -2.8890
   41MOL0     H 5372   8.166   4.218   9.111  0.3532  0.3690 -0.7565
   41MOL0     H 5373   8.038   4.340   9.111  1.3306  2.4042 -2.9242
   41MOL0     H 5374   8.118   4.381   9.541  0.9721 -0.0753 -0.3597
   41MOL0     H 5375   8.041   4.241   9.700 -2.3088  2.5218 -1.0610
   41MOL0     H 5376   7.788   3.813   9.847 -1.1292  0.5386 -0.2035
   41MOL0     H 5377   7.734   3.722  10.070 -1.4746  0.6242  4.2462
   41MOL0     H 5378   7.729   3.626  10.278  0.2586 -1.2169  1.8244
   41MOL0     H 5379   7.606   3.748  10.270  1.0678 -0.4293 -0.4237
   41MOL0     H 5380   7.761   3.704  10.527 -0.7328 -1.2862  0.5537
   41MOL0     H 5381   7.617   3.606  10.483  3.9034 -2.4435  4.0490
   41MOL0     H 5382   7.497   3.759  10.603  0.3994 -1.9129 -0.7232
   41MOL0     H 5383   7.517   3.850  10.444 -1.2271  0.9358  0.2409
   41MOL0     H 5384   7.734   3.862  10.671  0.2109 -2.4806 -0.4480
   41MOL0     H 5385   7.726   3.973  10.534  1.1945 -1.0693 -1.1733
   41MOL0     H 5386   7.515   3.941  10.758  0.1444 -1.7570 -1.3091
   41MOL0     H 5387   7.497   4.066  10.632 -2.6366 -2.5709  1.4645
   41MOL0     H 5388   7.726   4.149  10.699  1.3413 -1.1660  0.9000
   41MOL0     H 5389   7.725   4.031  10.831  3.0785 -0.3525 -3.4655
   41MOL0     H 5390   7.480   4.187  10.824 -1.0828  2.3480  0.6776
   41MOL0     H 5391   7.569   4.145  10.959  0.1950 -0.6772  0.0544
   41MOL0     H 5392   7.571   4.394  10.928  2.4777  0.4907  2.2744
   41MOL0     H 5393   7.652   4.377  10.771 -0.7904  4.5674  1.0320
   41MOL0     H 5394   7.936   4.046  10.246  1.1253  0.6893 -1.9158
   41MOL0     H 5395   7.992   4.135  10.037  0.2805 -0.5438 -0.5382
   41MOL0     H 5396   7.957   3.937   9.385  1.0127 -0.1228 -0.4341
   41MOL0     H 5397   8.027   4.104   9.219 -1.8140 -2.1464  0.5497
   41MOL0     H 5398   7.905   4.636   7.732 -0.6149  0.6233 -2.0374
   41MOL0     H 5399   8.049   4.814   7.673 -0.0026  0.1978  1.1364
   41MOL0     H 5400   8.497   4.850   7.424  1.5602  0.1277 -0.4112
   41MOL0     H 5401   8.643   4.998   7.303 -1.7703 -0.2138 -0.7698
   41MOL0     H 5402   8.662   5.191   7.156  0.1284 -0.4863  0.0705
   41MOL0     H 5403   8.826   5.188   7.224 -1.0557 -0.7683  3.0553
   41MOL0     H 5404   8.807   5.345   7.050  3.0258  3.9476  0.0091
   41MOL0     H 5405   8.693   5.446   7.157  0.2459  0.6419  0.8104
   41MOL0     H 5406   8.987   5.398   7.164 -0.1652 -1.4638  0.8763
   41MOL0     H 5407   8.895   5.443   7.311 -1.1449 -0.6547  0.0352
   41MOL0     H 5408   8.815   5.640   7.189  1.1252  1.6706  1.7777
   41MOL0     H 5409   8.979   5.643   7.236 -3.0379 -0.7080  3.0163
   41MOL0     H 5410   9.043   5.621   6.815  0.2467 -1.0595 -0.7497
   41MOL0     H 5411   8.500   5.336   7.531  3.6309  0.0548  0.4956
   41MOL0     H 5412   8.330   5.193   7.629  0.7152  1.6280 -0.4936
   42MOL0     O 5413   6.500   5.020   0.494 -0.7863  0.0957 -0.0246
   42MOL0     C 5414   6.414   5.058   0.423 -0.1228 -0.3416  0.2619
   42MOL0     O 5415   6.281   5.013   0.423 -0.0810  0.1809  0.0450
   42MOL0     C 5416   6.237   4.933   0.531 -0.5644 -0.1359 -0.6746
   42MOL0     C 5417   6.240   4.978   0.663 -0.5149  0.5004  0.2603
   42MOL0     C 5418   6.196   4.896   0.768  0.6027  0.0081 -0.2407
   42MOL0     C 5419   6.124   4.778   0.740 -0.1393  0.0521 -0.0576
   42MOL0     O 5420   6.082   4.696   0.846 -1.5920  0.0218 -0.2274
   42MOL0     C 5421   6.089   4.554   0.810  0.3675 -0.1211 -0.6241
   42MOL0     C 5422   6.081   4.479   0.944  0.1740 -1.1819  1.0024
   42MOL0     C 5423   6.054   4.330   0.933 -0.6567 -0.1639  0.3337
   42MOL0     C 5424   6.066   4.267   1.067  0.5902  0.0244 -0.4148
   42MOL0     C 5425   5.993   4.129   1.071 -0.7236  0.5789 -0.0845
   42MOL0     C 5426   6.028   4.043   1.186 -0.2392  0.1186 -0.7915
   42MOL0     C 5427   5.937   3.913   1.194 -0.7779  0.4740  0.5032
   42MOL0     C 5428   5.813   3.940   1.282 -0.3136 -0.7476 -0.2805
   42MOL0     N 5429   5.832   3.986   1.424 -0.8941  0.1247  0.9399
   42MOL0     C 5430   5.800   4.109   1.464 -0.1508 -0.2439  0.5205
   42MOL0     C 5431   5.848   4.112   1.590 -0.3789 -0.1734 -0.2954
   42MOL0     C 5432   5.836   4.216   1.698 -0.9489 -0.3071 -0.5340
   42MOL0     C 5433   5.696   4.277   1.704 -1.4289 -0.6516  0.5629
   42MOL0     C 5434   5.681   4.377   1.815  0.5214 -0.3699 -1.6709
   42MOL0     C 5435   5.708   4.517   1.778  0.2906 -0.1304 -0.1197
   42MOL0     O 5436   5.612   4.602   1.849 -0.1280  0.3173  0.6816
   42MOL0     C 5437   5.512   4.663   1.778  0.5791  0.7172  0.0132
   42MOL0     C 5438   5.423   4.732   1.862  0.1043  0.1134  0.5961
   42MOL0     C 5439   5.298   4.780   1.813 -1.0075  0.9006 -0.7476
   42MOL0     C 5440   5.274   4.775   1.673  0.0014  0.0514  0.1532
   42MOL0     C 5441   5.148   4.838   1.615  0.6690 -0.5752  0.1624
   42MOL0     O 5442   5.102   4.792   1.491  0.0138 -0.2912 -0.1431
   42MOL0     C 5443   4.971   4.820   1.455 -0.3557  0.4660 -0.1017
   42MOL0     C 5444   4.951   4.822   1.324 -0.6578 -0.4271 -0.0682
   42MOL0     C 5445   4.832   4.852   1.270  0.5562 -0.9181  0.4995
   42MOL0     C 5446   4.722   4.876   1.362 -0.2780  0.9945 -0.5605
   42MOL0     O 5447   4.593   4.924   1.313 -0.6980  0.6893 -0.0957
   42MOL0     C 5448   4.583   5.020   1.205 -0.6719  1.0174 -0.3269
   42MOL0     C 5449   4.460   5.103   1.237  0.1945 -0.6549  0.8339
   42MOL0     C 5450   4.479   5.203   1.355  0.5727 -0.3059 -0.4024
   42MOL0     C 5451   4.391   5.332   1.340  0.2275 -0.0414  0.9337
   42MOL0     C 5452   4.260   5.331   1.404 -0.8219 -1.0720  1.1999
   42MOL0     C 5453   4.242   5.449   1.501  0.4732  0.8803  0.1062
   42MOL0     C 5454   4.104   5.432   1.567 -1.0553  0.1330  0.0975
   42MOL0     C 5455   4.104   5.317   1.667 -0.3071 -0.1356 -0.4960
   42MOL0    Cl 5456   4.250   5.317   1.770  0.1544 -0.0772  0.6048
   42MOL0     C 5457   4.733   4.839   1.498 -0.6010 -0.8089  0.0778
   42MOL0     C 5458   4.864   4.814   1.550 -0.1244  1.1571 -0.2166
   42MOL0     O 5459   5.099   4.931   1.672  0.1018 -1.2133  0.2622
   42MOL0     C 5460   5.368   4.725   1.586  0.5847 -0.1040  0.0393
   42MOL0     C 5461   5.486   4.663   1.638 -0.2328 -0.0230  0.7563
   42MOL0     N 5462   5.896   3.984   1.622 -0.7607  0.2640  0.1874
   42MOL0     N 5463   5.877   3.906   1.521 -0.2463  0.1070 -0.0856
   42MOL0     C 5464   6.104   4.750   0.608 -0.3719 -0.7755  0.1400
   42MOL0     C 5465   6.163   4.821   0.505 -0.1739 -0.5865 -0.8278
   42MOL0     C 5466   6.442   5.157   0.314 -0.4853 -0.1275  0.6482
   42MOL0     C 5467   6.583   5.190   0.301  0.1288  0.6392  0.6748
   42MOL0     C 5468   6.615   5.288   0.202  0.1641 -0.0300  0.2260
   42MOL0     C 5469   6.520   5.350   0.122  0.4032  0.3061  1.0028
   42MOL0     O 5470   6.537   5.458   0.034 -0.2339  0.4157 -0.4385
   42MOL0     C 5471   6.623   5.570   0.076 -0.2007  0.3085  0.3591
   42MOL0     C 5472   6.643   5.662  -0.046  0.6297  0.2131 -0.6235
   42MOL0     C 5473   6.790   5.693  -0.071  0.7354 -0.0791  0.0971
   42MOL0     C 5474   6.849   5.580  -0.159 -1.0186  0.2693  0.8453
   42MOL0     C 5475   6.992   5.622  -0.171  0.1558  0.0995 -0.1734
   42MOL0     C 5476   7.112   5.644  -0.175 -0.0723  0.7015 -0.2945
   42MOL0     C 5477   6.386   5.304   0.135 -0.0113  0.0722  0.0349
   42MOL0     C 5478   6.342   5.219   0.238  0.0951  0.0172  0.4499
   42MOL0     H 5479   6.305   5.063   0.683 -0.7923  0.6086  0.6935
   42MOL0     H 5480   6.222   4.915   0.871 -1.2634 -1.8367  0.6512
   42MOL0     H 5481   6.180   4.527   0.757  2.7124  0.0577  2.9580
   42MOL0     H 5482   6.004   4.522   0.749 -0.5668  2.4368 -0.8068
   42MOL0     H 5483   6.007   4.526   1.009  1.6084  0.8420  1.2708
   42MOL0     H 5484   6.180   4.488   0.990  0.9296 -2.3951 -0.2762
   42MOL0     H 5485   6.136   4.296   0.870 -0.2336  0.5115  0.5096
   42MOL0     H 5486   5.963   4.325   0.872  1.6379  2.2119 -3.7370
   42MOL0     H 5487   6.172   4.257   1.093  0.2608 -2.4580  0.1662
   42MOL0     H 5488   6.015   4.339   1.132 -0.6923  0.4190 -1.8180
   42MOL0     H 5489   6.012   4.069   0.981 -2.3445  1.5483 -1.1318
   42MOL0     H 5490   5.886   4.150   1.079 -0.2117  2.7156  3.0089
   42MOL0     H 5491   6.015   4.102   1.278 -1.4469 -1.3723  0.0340
   42MOL0     H 5492   6.130   4.008   1.169 -0.2326 -0.0012 -0.5140
   42MOL0     H 5493   5.923   3.883   1.089  1.4873 -0.0581  0.2851
   42MOL0     H 5494   6.009   3.843   1.239  5.7029  4.5270 -2.0175
   42MOL0     H 5495   5.752   3.849   1.282  0.8293 -1.6224  2.4470
   42MOL0     H 5496   5.759   4.020   1.230  4.5181  0.4392 -4.2075
   42MOL0     H 5497   5.759   4.193   1.409  0.1530  1.0794  2.2168
   42MOL0     H 5498   5.903   4.300   1.681 -2.3331  0.5257 -2.1489
   42MOL0     H 5499   5.848   4.167   1.795  0.3758 -0.6914 -0.8719
   42MOL0     H 5500   5.614   4.205   1.710 -2.5012  0.6297  3.1887
   42MOL0     H 5501   5.679   4.339   1.616  0.1798 -1.8719 -0.6514
   42MOL0     H 5502   5.580   4.370   1.856  0.9291  2.0286 -0.0501
   42MOL0     H 5503   5.752   4.352   1.894  1.4725 -0.8174 -2.6621
   42MOL0     H 5504   5.714   4.518   1.669  1.0854 -0.4143 -0.0861
   42MOL0     H 5505   5.807   4.552   1.810  0.7448 -0.4227 -1.1627
   42MOL0     H 5506   5.442   4.752   1.967  0.1407 -0.4312  0.6987
   42MOL0     H 5507   5.230   4.823   1.886 -0.9959 -2.1437  1.2560
   42MOL0     H 5508   5.039   4.807   1.262  1.7054 -1.0747  3.1869
   42MOL0     H 5509   4.812   4.857   1.164 -0.7463 -1.8257  0.6725
   42MOL0     H 5510   4.558   4.967   1.112 -3.2519  2.8496 -0.8011
   42MOL0     H 5511   4.675   5.079   1.196 -1.3409  1.8787 -2.0554
   42MOL0     H 5512   4.374   5.039   1.261 -1.5527  0.4779 -1.9330
   42MOL0     H 5513   4.438   5.161   1.147  0.8185 -0.3694  0.8601
   42MOL0     H 5514   4.582   5.235   1.372 -0.0750  1.4279  0.4789
   42MOL0     H 5515   4.451   5.162   1.452  0.6875 -0.3800 -0.4007
   42MOL0     H 5516   4.433   5.430   1.365 -1.9836  1.7001 -1.5610
   42MOL0     H 5517   4.380   5.343   1.232  2.1559  1.8196  0.8617
   42MOL0     H 5518   4.251   5.240   1.465 -0.8240 -1.4885  0.5803
   42MOL0     H 5519   4.190   5.324   1.321  0.7400 -3.0241 -0.0274
   42MOL0     H 5520   4.238   5.543   1.446 -0.5197  0.0621 -1.2925
   42MOL0     H 5521   4.321   5.461   1.575 -1.8020  1.3822  2.6151
   42MOL0     H 5522   4.077   5.524   1.618 -0.9354  0.7016 -0.8302
   42MOL0     H 5523   4.025   5.411   1.493 -0.0331  0.3949 -1.1096
   42MOL0     H 5524   4.089   5.223   1.614 -2.0386 -2.9022  4.2734
   42MOL0     H 5525   4.015   5.311   1.732 -0.1921 -0.1175 -0.3359
   42MOL0     H 5526   4.637   4.842   1.549 -0.7342 -0.3109 -0.1943
   42MOL0     H 5527   4.867   4.794   1.657 -0.9197  2.3849  0.0655
   42MOL0     H 5528   5.355   4.736   1.479  0.1140 -1.7288 -0.1046
   42MOL0     H 5529   5.555   4.623   1.564 -0.6036 -0.7867  0.8152
   42MOL0     H 5530   6.040   4.669   0.572  0.0400 -1.5370  1.0797
   42MOL0     H 5531   6.144   4.788   0.404 -2.8782  0.3044 -0.6990
   42MOL0     H 5532   6.667   5.157   0.362 -0.6577 -0.6332  1.1183
   42MOL0     H 5533   6.715   5.329   0.199 -0.4562  1.5394  0.2596
   42MOL0     H 5534   6.724   5.541   0.106 -0.2390 -0.3184 -0.0994
   42MOL0     H 5535   6.572   5.633   0.149 -0.8188  0.9268 -0.5921
   42MOL0     H 5536   6.599   5.615  -0.135  1.4863 -1.2527 -0.3086
   42MOL0     H 5537   6.593   5.757  -0.026  1.0403  0.3103 -0.0535
   42MOL0     H 5538   6.841   5.709   0.024 -1.9905  2.5391  1.2861
   42MOL0     H 5539   6.798   5.784  -0.133  1.1914 -1.2797 -1.6917
   42MOL0     H 5540   6.858   5.487  -0.101  1.8845  1.5380  2.6679
   42MOL0     H 5541   6.804   5.566  -0.258  0.9470  2.8444 -0.5233
   42MOL0     H 5542   7.215   5.667  -0.194  0.2519  0.1965  0.7407
   42MOL0     H 5543   6.303   5.344   0.077  1.0822  4.5090  1.1206
   42MOL0     H 5544   6.235   5.204   0.247 -0.0480  0.8139  0.1605
   43MOL0     O 5545   0.660  10.804  10.845 -0.4963 -0.5539  0.1528
   43MOL0     C 5546   0.730  10.840  10.738  0.2258  0.2328 -0.9620
   43MOL0     O 5547   0.742  10.962  10.694 -0.7955 -0.2576 -1.2177
   43MOL0     C 5548   0.657  11.068  10.723  0.0277 -0.5887 -1.2684
   43MOL0     C 5549   0.715  11.193  10.712  0.2349 -0.6443  0.6029
   43MOL0     C 5550   0.647  11.307  10.731  1.2028 -0.1004 -0.9933
   43MOL0     C 5551   0.505  11.302  10.761  0.2065 -1.0942 -0.1426
   43MOL0     O 5552   0.421  11.400  10.802  0.2500 -0.3380 -0.3941
   43MOL0     C 5553   0.471  11.536  10.809 -0.1856 -0.3856  0.2184
   43MOL0     C 5554   0.359  11.647  10.805  0.3353  0.2134  0.3866
   43MOL0     C 5555   0.322  11.704  10.938 -0.4119  0.2936  0.0563
   43MOL0     C 5556   0.190  11.788  10.920 -0.4244  0.0427  0.3611
   43MOL0     C 5557   0.191  11.917  10.987  0.3982 -0.4971  0.0472
   43MOL0     C 5558   0.071  12.002  10.946  0.2916  0.3364  0.3592
   43MOL0     C 5559   0.061  12.126  11.022  0.1244 -0.4701  0.1464
   43MOL0     C 5560  -0.041  12.229  10.953 -0.5088  0.3762 -0.2239
   43MOL0     N 5561  -0.051  12.351  11.037  0.0528 -0.1478  0.6273
   43MOL0     C 5562   0.027  12.467  11.021 -0.7305  0.4986  0.6554
   43MOL0     C 5563  -0.037  12.558  11.092  0.4632  0.5871 -0.5832
   43MOL0     C 5564  -0.002  12.698  11.135  0.1754 -0.4950 -0.5190
   43MOL0     C 5565   0.142  12.743  11.113 -0.7674  0.7611 -0.0749
   43MOL0     C 5566   0.230  12.643  11.196 -0.4868 -0.1755 -0.6891
   43MOL0     C 5567   0.370  12.642  11.149  0.3917 -0.6054 -0.3961
   43MOL0     O 5568   0.370  12.553  11.038 -0.7396  1.3269 -0.3235
   43MOL0     C 5569   0.413  12.425  11.048  0.8959 -0.2356 -0.2282
   43MOL0     C 5570   0.436  12.347  11.158 -1.0951  0.3964 -0.3826
   43MOL0     C 5571   0.508  12.232  11.152  0.7681 -0.0516  0.5619
   43MOL0     C 5572   0.556  12.182  11.036  0.3097 -0.3582  0.7439
   43MOL0     C 5573   0.627  12.059  11.022  1.0829 -0.2575 -0.1326
   43MOL0     O 5574   0.661  12.025  10.889 -0.0625  0.5487  0.0277
   43MOL0     C 5575   0.742  11.920  10.877  0.3711  0.2335  0.2899
   43MOL0     C 5576   0.873  11.934  10.811 -0.9212  0.0228 -1.2064
   43MOL0     C 5577   0.953  11.825  10.788  0.4903 -0.8152 -0.2913
   43MOL0     C 5578   0.915  11.702  10.815 -0.6350 -0.1707 -1.2227
   43MOL0     O 5579   0.992  11.602  10.781  0.4121  0.4237  0.3421
   43MOL0     C 5580   0.984  11.487  10.874 -1.1142 -0.6038  0.2607
   43MOL0     C 5581   1.098  11.397  10.862 -0.8098  0.8505  0.9256
   43MOL0     C 5582   1.122  11.332  10.735 -0.3693 -0.4406  0.8090
   43MOL0     C 5583   1.246  11.243  10.720  0.0941  0.0182  0.1729
   43MOL0     C 5584   1.230  11.157  10.598 -0.5028 -0.3520 -0.9220
   43MOL0     C 5585   1.348  11.061  10.565 -0.6974 -0.2648 -0.3026
   43MOL0     C 5586   1.349  10.987  10.427  0.4618  0.2757 -0.1632
   43MOL0     C 5587   1.216  10.918  10.408 -0.4020 -0.1277 -0.2924
   43MOL0    Cl 5588   1.223  10.797  10.276 -0.1939  0.6348 -0.6837
   43MOL0     C 5589   0.791  11.683  10.888 -0.1940  0.2352  0.2589
   43MOL0     C 5590   0.704  11.785  10.904  0.2740  0.1235 -0.0664
   43MOL0     O 5591   0.645  11.999  11.126  0.2151 -0.2721 -0.0719
   43MOL0     C 5592   0.517  12.244  10.915 -0.5870 -0.8839 -0.5263
   43MOL0     C 5593   0.454  12.373  10.925  0.4062 -0.0086 -0.0920
   43MOL0     N 5594  -0.148  12.501  11.144  0.5223  0.2432  0.7614
   43MOL0     N 5595  -0.157  12.374  11.119  0.7854  0.6498  0.6944
   43MOL0     C 5596   0.447  11.174  10.763  0.3286 -0.8219 -1.3525
   43MOL0     C 5597   0.520  11.057  10.743 -0.8962 -0.0665 -0.0657
   43MOL0     C 5598   0.812  10.734  10.681  0.3330  1.2621 -0.2633
   43MOL0     C 5599   0.865  10.761  10.554  0.2081 -0.6973  0.1562
   43MOL0     C 5600   0.944  10.661  10.494  0.2755 -0.0338 -0.2598
   43MOL0     C 5601   0.982  10.546  10.556 -0.5589  0.0886  0.0453
   43MOL0     O 5602   1.074  10.454  10.493 -0.2248  0.5406  0.5614
   43MOL0     C 5603   1.033  10.430  10.353 -0.4293  0.0955 -0.1407
   43MOL0     C 5604   1.089  10.304  10.294 -0.5150 -0.6192 -0.2668
   43MOL0     C 5605   1.223  10.331  10.225 -0.2009 -0.2586  0.0660
   43MOL0     C 5606   1.199  10.416  10.093  0.6181  0.5898  0.1737
   43MOL0     C 5607   1.330  10.467  10.051 -0.5422  0.6849 -0.3456
   43MOL0     C 5608   1.434  10.501   9.990 -0.3466 -0.3611 -1.3346
   43MOL0     C 5609   0.932  10.527  10.689 -0.2027  0.6002 -0.3850
   43MOL0     C 5610   0.840  10.613  10.746  0.4932  0.4780  0.7252
   43MOL0     H 5611   0.819  11.193  10.680 -0.7447  0.7778 -3.0795
   43MOL0     H 5612   0.688  11.406  10.715  1.3973  0.0568  0.3448
   43MOL0     H 5613   0.528  11.564  10.720 -1.6270  0.5105 -0.4637
   43MOL0     H 5614   0.542  11.554  10.890  0.2418 -0.0752 -0.2238
   43MOL0     H 5615   0.278  11.599  10.749  1.4994 -0.5727 -0.6732
   43MOL0     H 5616   0.397  11.726  10.741 -0.9295 -0.9641 -1.9661
   43MOL0     H 5617   0.405  11.767  10.972 -0.0267 -0.0807 -0.1796
   43MOL0     H 5618   0.313  11.632  11.020  2.1775  1.4910  1.5464
   43MOL0     H 5619   0.167  11.807  10.814 -2.0142 -3.1752 -0.0108
   43MOL0     H 5620   0.111  11.720  10.956 -0.4972  0.7763  1.6268
   43MOL0     H 5621   0.284  11.968  10.960  0.6384  1.6152  4.0882
   43MOL0     H 5622   0.196  11.903  11.095  0.5335 -0.4645  0.0457
   43MOL0     H 5623  -0.019  11.950  10.980 -0.3830  0.8391 -0.6163
   43MOL0     H 5624   0.072  12.014  10.838 -0.9888 -2.0784  0.0071
   43MOL0     H 5625   0.029  12.112  11.125 -0.3560 -0.5608 -0.0134
   43MOL0     H 5626   0.159  12.175  11.023  0.8430 -1.7565 -1.7015
   43MOL0     H 5627  -0.140  12.183  10.944 -0.5615  0.0579  1.5430
   43MOL0     H 5628  -0.001  12.257  10.856  1.1473 -1.6114 -0.1795
   43MOL0     H 5629   0.119  12.475  10.964 -0.8307  1.1531  0.5798
   43MOL0     H 5630  -0.016  12.709  11.243 -1.9706 -0.6763 -0.7239
   43MOL0     H 5631  -0.069  12.757  11.072  0.1780 -0.6541 -0.6740
   43MOL0     H 5632   0.139  12.844  11.154  1.8650 -0.0852  2.4955
   43MOL0     H 5633   0.157  12.741  11.005 -0.3201  0.0554 -0.0054
   43MOL0     H 5634   0.247  12.681  11.297 -2.4389 -0.3986 -0.2339
   43MOL0     H 5635   0.185  12.544  11.204 -1.7093  0.2573 -1.7242
   43MOL0     H 5636   0.436  12.607  11.229 -2.3197  1.0941  2.8452
   43MOL0     H 5637   0.402  12.744  11.124  2.7358 -1.2205 -0.1295
   43MOL0     H 5638   0.402  12.381  11.254 -2.4871 -0.9146 -0.3800
   43MOL0     H 5639   0.543  12.188  11.245  5.1223  2.2498  0.3012
   43MOL0     H 5640   0.907  12.034  10.785 -0.2056  0.7380  2.0283
   43MOL0     H 5641   1.042  11.854  10.732 -0.6343  0.4223 -1.5030
   43MOL0     H 5642   0.900  11.426  10.837 -1.8949  0.0667  0.8953
   43MOL0     H 5643   0.971  11.525  10.976  0.9569 -1.4519  0.9000
   43MOL0     H 5644   1.081  11.323  10.940  0.5694  1.4106  1.7954
   43MOL0     H 5645   1.190  11.451  10.885  0.9050 -0.6381 -1.8059
   43MOL0     H 5646   1.127  11.418  10.669 -0.5671  0.6537  2.1778
   43MOL0     H 5647   1.038  11.266  10.713  1.3634 -1.9815 -1.8385
   43MOL0     H 5648   1.338  11.303  10.719  0.5607 -0.6773  0.4234
   43MOL0     H 5649   1.264  11.180  10.807  0.5142  1.8419  1.4682
   43MOL0     H 5650   1.224  11.225  10.513  0.2066 -0.8886 -1.4161
   43MOL0     H 5651   1.140  11.097  10.618  0.2267 -1.0627  0.3820
   43MOL0     H 5652   1.374  10.991  10.645  0.1287 -0.1707 -0.4761
   43MOL0     H 5653   1.440  11.120  10.563  0.0806 -1.4270 -2.3914
   43MOL0     H 5654   1.374  11.060  10.350 -0.1749  3.6146  2.5524
   43MOL0     H 5655   1.423  10.907  10.431 -0.2347 -0.3562  0.9145
   43MOL0     H 5656   1.142  10.993  10.378  2.1656  2.0032 -1.7517
   43MOL0     H 5657   1.196  10.865  10.501 -1.5832 -2.3844 -1.7528
   43MOL0     H 5658   0.763  11.584  10.923 -0.8665  0.2082 -0.3211
   43MOL0     H 5659   0.616  11.757  10.961 -2.5162  2.0310 -3.0757
   43MOL0     H 5660   0.545  12.201  10.820 -0.4593 -2.0651  0.0268
   43MOL0     H 5661   0.436  12.450  10.850 -1.0603  1.4959  1.7039
   43MOL0     H 5662   0.345  11.146  10.784  1.1234 -3.6267 -0.8673
   43MOL0     H 5663   0.468  10.962  10.746  0.5639 -0.9433 -1.0660
   43MOL0     H 5664   0.850  10.847  10.490 -0.6006 -2.2076 -1.7615
   43MOL0     H 5665   0.988  10.682  10.397  2.4676 -2.6759  0.0533
   43MOL0     H 5666   1.072  10.515  10.296  1.0878  0.1783  0.9343
   43MOL0     H 5667   0.927  10.429  10.330 -0.4078 -4.6836 -0.9264
   43MOL0     H 5668   1.099  10.223  10.367 -4.4870 -0.9072  0.1826
   43MOL0     H 5669   1.024  10.269  10.214 -0.2212  0.7660 -1.1507
   43MOL0     H 5670   1.271  10.236  10.199 -0.2014  0.3648 -2.4122
   43MOL0     H 5671   1.294  10.382  10.291  0.4376 -1.9520  0.7518
   43MOL0     H 5672   1.148  10.347  10.026  0.3971  2.0178 -1.1835
   43MOL0     H 5673   1.127  10.498  10.102  0.7173  0.9886 -2.1215
   43MOL0     H 5674   1.524  10.530   9.939 -0.0180 -2.8618 -2.3320
   43MOL0     H 5675   0.975  10.444  10.745  1.9919  0.1347 -2.5645
   43MOL0     H 5676   0.794  10.594  10.843  1.9687 -0.1509  1.3222
   44MOL0     O 5677   3.872   3.278   5.779  0.5860  0.9602  0.6025
   44MOL0     C 5678   3.921   3.358   5.853  0.2612  0.4357  0.1720
   44MOL0     O 5679   3.870   3.377   5.983  0.3422 -0.9572  0.5368
   44MOL0     C 5680   3.757   3.325   6.027 -0.2295 -0.7160 -0.7241
   44MOL0     C 5681   3.725   3.188   6.003 -0.2289  0.6924 -0.1744
   44MOL0     C 5682   3.608   3.133   6.064 -0.3571  0.1475  0.2691
   44MOL0     C 5683   3.527   3.205   6.146 -0.1488 -1.2894 -1.0977
   44MOL0     O 5684   3.433   3.149   6.244  0.2707 -0.5461  0.6025
   44MOL0     C 5685   3.350   3.038   6.198  0.1888 -0.3035 -1.1826
   44MOL0     C 5686   3.269   2.972   6.316 -0.3559 -0.1621 -0.9491
   44MOL0     C 5687   3.185   2.849   6.280  0.0839 -0.6397 -0.5085
   44MOL0     C 5688   3.278   2.738   6.235  0.3466  0.2354 -0.4872
   44MOL0     C 5689   3.207   2.612   6.179 -0.3783 -0.6100 -0.2274
   44MOL0     C 5690   3.305   2.542   6.086 -0.6291  0.2707 -0.1610
   44MOL0     C 5691   3.226   2.456   5.988  0.3357  0.3908 -0.0320
   44MOL0     C 5692   3.203   2.322   6.051  0.2349  0.3223 -0.3748
   44MOL0     N 5693   3.167   2.212   5.962 -0.3367 -0.5447 -0.0493
   44MOL0     C 5694   3.055   2.190   5.892  0.5634 -0.2424 -0.6173
   44MOL0     C 5695   3.056   2.058   5.864 -0.3932  0.0543 -0.3492
   44MOL0     C 5696   2.949   1.980   5.793 -0.7541 -0.6919 -0.6601
   44MOL0     C 5697   2.977   1.963   5.640  0.3866 -0.7204 -0.4296
   44MOL0     C 5698   2.874   1.868   5.581  0.0606  0.1012  0.5506
   44MOL0     C 5699   2.863   1.868   5.432 -0.8527  0.7359  0.4497
   44MOL0     O 5700   2.766   1.769   5.410  0.3648  0.0530  0.4356
   44MOL0     C 5701   2.742   1.748   5.276  0.9779 -0.6794  1.5945
   44MOL0     C 5702   2.759   1.837   5.168 -0.1666 -0.1981 -0.2482
   44MOL0     C 5703   2.715   1.804   5.041 -0.0383  0.2143 -0.2281
   44MOL0     C 5704   2.661   1.672   5.022 -0.4006  0.1519 -0.7542
   44MOL0     C 5705   2.617   1.632   4.894  0.0475 -0.8798  1.4562
   44MOL0     O 5706   2.493   1.573   4.892 -0.7370 -0.0360  0.0814
   44MOL0     C 5707   2.433   1.550   4.769  0.4772  0.0682 -0.3294
   44MOL0     C 5708   2.430   1.652   4.665 -0.2543  0.2478 -0.8090
   44MOL0     C 5709   2.357   1.621   4.549 -0.3640 -0.9889  1.4228
   44MOL0     C 5710   2.314   1.493   4.514  0.1133  0.1533  0.6259
   44MOL0     O 5711   2.257   1.450   4.399 -0.2135  0.3120 -0.7641
   44MOL0     C 5712   2.135   1.522   4.349 -0.0237  0.4406  0.2629
   44MOL0     C 5713   2.076   1.432   4.242  0.1441  0.5335  0.5003
   44MOL0     C 5714   2.167   1.412   4.118  0.4570 -0.6749  0.9022
   44MOL0     C 5715   2.195   1.555   4.054  0.5418  0.4069  0.4904
   44MOL0     C 5716   2.278   1.552   3.932  0.0769  1.1956 -0.0250
   44MOL0     C 5717   2.195   1.512   3.810 -0.5787  0.2538 -0.2377
   44MOL0     C 5718   2.259   1.538   3.667  0.3272  0.9047 -0.0699
   44MOL0     C 5719   2.171   1.500   3.556  0.0506 -0.5040  0.0743
   44MOL0    Cl 5720   2.023   1.601   3.558  0.3189  0.3470 -0.1263
   44MOL0     C 5721   2.316   1.395   4.609 -1.0991 -0.2031  0.3380
   44MOL0     C 5722   2.372   1.425   4.733  0.1407  0.2798 -0.6248
   44MOL0     O 5723   2.679   1.680   4.800 -0.0061 -0.4345  0.0168
   44MOL0     C 5724   2.647   1.589   5.136 -0.1496 -0.0473  0.5483
   44MOL0     C 5725   2.678   1.633   5.259 -0.8408 -0.6288 -0.2592
   44MOL0     N 5726   3.178   2.006   5.906  0.5678  0.2896 -0.5875
   44MOL0     N 5727   3.241   2.100   5.957  0.7186  0.4546  0.6547
   44MOL0     C 5728   3.563   3.337   6.169  0.5153 -0.0731 -0.7505
   44MOL0     C 5729   3.671   3.403   6.112 -0.5765 -0.1007 -0.0492
   44MOL0     C 5730   4.024   3.457   5.792  0.0508  0.3123 -0.5456
   44MOL0     C 5731   4.010   3.487   5.658  0.4171  0.0108 -0.0131
   44MOL0     C 5732   4.100   3.574   5.595  0.0186 -0.2373  0.2257
   44MOL0     C 5733   4.200   3.644   5.666 -0.0565 -0.2699 -0.2251
   44MOL0     O 5734   4.279   3.748   5.622 -0.2658  0.0592  0.6056
   44MOL0     C 5735   4.286   3.783   5.482  0.3349 -0.6126  0.1566
   44MOL0     C 5736   4.193   3.896   5.444  0.3454  0.9951 -0.1854
   44MOL0     C 5737   4.214   4.023   5.513 -0.7663 -0.9168 -0.8728
   44MOL0     C 5738   4.132   4.151   5.462  0.0195 -0.0223 -0.4208
   44MOL0     C 5739   4.124   4.163   5.320  0.9053 -0.6925  0.2646
   44MOL0     C 5740   4.113   4.177   5.197 -0.3532 -0.3242  1.1202
   44MOL0     C 5741   4.216   3.614   5.808  0.6445 -0.0886  0.4419
   44MOL0     C 5742   4.131   3.511   5.869 -0.2860 -0.4085  0.0578
   44MOL0     H 5743   3.785   3.120   5.943  1.1273 -1.4999  3.3476
   44MOL0     H 5744   3.589   3.029   6.040  2.5141 -0.2500 -0.5587
   44MOL0     H 5745   3.418   2.961   6.157  0.5405 -2.0717  2.3407
   44MOL0     H 5746   3.267   3.075   6.137  0.2477  1.7032 -0.1078
   44MOL0     H 5747   3.206   3.032   6.382  1.3936  0.2861  0.3854
   44MOL0     H 5748   3.352   2.938   6.379  1.1366 -0.6482 -3.0558
   44MOL0     H 5749   3.121   2.880   6.197  0.2695  0.0313 -0.4096
   44MOL0     H 5750   3.117   2.822   6.361 -2.5540 -1.4553 -2.8180
   44MOL0     H 5751   3.324   2.776   6.143 -1.6401  1.0339 -1.2082
   44MOL0     H 5752   3.348   2.708   6.313 -1.7918 -0.4572  1.2779
   44MOL0     H 5753   3.117   2.650   6.130 -0.3346  1.6272  1.2431
   44MOL0     H 5754   3.171   2.543   6.256 -5.0407  2.0110  0.3158
   44MOL0     H 5755   3.384   2.498   6.148  0.4177  0.6922 -1.1502
   44MOL0     H 5756   3.353   2.626   6.035 -2.9539  2.4005  0.9764
   44MOL0     H 5757   3.129   2.495   5.958 -0.6166 -1.0942  0.9660
   44MOL0     H 5758   3.293   2.443   5.903  0.3245 -1.1287  0.1641
   44MOL0     H 5759   3.125   2.337   6.126  0.1497  1.5368 -0.6986
   44MOL0     H 5760   3.295   2.290   6.101  0.4089 -1.6020 -1.7900
   44MOL0     H 5761   2.975   2.260   5.869  0.0702 -1.1310 -1.6992
   44MOL0     H 5762   2.854   2.034   5.803 -0.1904  0.2461 -0.2631
   44MOL0     H 5763   2.940   1.877   5.830 -0.6408 -0.4782 -0.0317
   44MOL0     H 5764   3.074   1.927   5.607  0.5808  2.8253 -4.7377
   44MOL0     H 5765   2.954   2.056   5.586 -0.3256 -0.9341 -0.5031
   44MOL0     H 5766   2.910   1.767   5.603  1.5143  0.6460  0.8087
   44MOL0     H 5767   2.774   1.888   5.620  0.2611  1.2755  0.5091
   44MOL0     H 5768   2.964   1.850   5.395 -0.0760  1.8046  1.9639
   44MOL0     H 5769   2.819   1.960   5.393 -0.9292 -0.3617 -2.2933
   44MOL0     H 5770   2.809   1.931   5.188  0.0551  0.0139 -1.6968
   44MOL0     H 5771   2.734   1.877   4.963  1.8358  3.2460  2.7306
   44MOL0     H 5772   2.445   1.759   4.676 -0.6759  0.2125  0.3437
   44MOL0     H 5773   2.357   1.699   4.474  1.9282  0.5103  2.8580
   44MOL0     H 5774   2.142   1.622   4.305 -3.0799  0.5404 -0.2336
   44MOL0     H 5775   2.064   1.520   4.432 -3.5766  4.1625 -2.2736
   44MOL0     H 5776   1.971   1.454   4.220 -0.5598 -0.6201  2.4497
   44MOL0     H 5777   2.069   1.332   4.286  0.6096 -0.3531 -1.3306
   44MOL0     H 5778   2.110   1.345   4.053  0.8550  1.6812 -2.0704
   44MOL0     H 5779   2.264   1.373   4.148  1.8961  1.9328 -0.0347
   44MOL0     H 5780   2.104   1.608   4.023 -0.3316 -2.5038 -2.4344
   44MOL0     H 5781   2.253   1.618   4.123  2.2179 -0.5119 -0.0249
   44MOL0     H 5782   2.355   1.474   3.930 -0.1464  0.9898 -1.1622
   44MOL0     H 5783   2.331   1.647   3.921  0.2065  1.0892 -0.3267
   44MOL0     H 5784   2.108   1.579   3.810  1.5096  3.1529  0.5254
   44MOL0     H 5785   2.169   1.407   3.827 -2.9280  1.0821  1.8788
   44MOL0     H 5786   2.297   1.640   3.651  2.1199  0.4647  1.0627
   44MOL0     H 5787   2.344   1.469   3.658 -0.7667 -0.3549 -1.1232
   44MOL0     H 5788   2.137   1.397   3.568 -0.6486 -1.0453 -4.5907
   44MOL0     H 5789   2.226   1.512   3.462  3.0247 -2.7059  1.3760
   44MOL0     H 5790   2.282   1.295   4.584  0.2411 -0.2295 -1.5562
   44MOL0     H 5791   2.359   1.343   4.803  2.5080 -0.0204 -0.4277
   44MOL0     H 5792   2.619   1.485   5.118 -0.4071  0.1654 -0.2946
   44MOL0     H 5793   2.659   1.564   5.341 -0.2988  1.3006  1.5844
   44MOL0     H 5794   3.508   3.392   6.244  0.5925 -0.7149 -0.2138
   44MOL0     H 5795   3.702   3.504   6.135  2.1288 -0.3765 -2.0550
   44MOL0     H 5796   3.923   3.460   5.599 -1.3734  2.3833  1.3459
   44MOL0     H 5797   4.073   3.615   5.497 -1.4161 -0.5694  0.4594
   44MOL0     H 5798   4.268   3.693   5.423 -1.5348 -0.3569  0.2712
   44MOL0     H 5799   4.386   3.824   5.466 -0.6210  1.4510 -0.9087
   44MOL0     H 5800   4.224   3.912   5.340  0.8833 -1.0283 -0.3689
   44MOL0     H 5801   4.089   3.865   5.455  0.4319  0.6922 -0.2136
   44MOL0     H 5802   4.319   4.034   5.484 -1.3240  1.0682 -2.3565
   44MOL0     H 5803   4.224   4.016   5.621 -0.9886  0.2650 -0.7607
   44MOL0     H 5804   4.031   4.159   5.504  0.7480  0.3126  1.3512
   44MOL0     H 5805   4.180   4.242   5.499  1.4037 -0.7747 -0.2795
   44MOL0     H 5806   4.091   4.176   5.093  1.0564 -0.2474  0.8031
   44MOL0     H 5807   4.297   3.660   5.864 -0.0447  1.9866 -0.1831
   44MOL0     H 5808   4.139   3.495   5.976 -1.1525  1.6991  0.5060
   45MOL0     O 5809   2.916  10.581   6.773 -0.4633  0.2004 -0.3143
   45MOL0     C 5810   3.017  10.629   6.833 -0.5256 -0.0398  0.8793
   45MOL0     O 5811   3.141  10.650   6.787  0.0189  0.2616 -0.4888
   45MOL0     C 5812   3.196  10.605   6.672 -0.3644  0.0400 -0.4463
   45MOL0     C 5813   3.336  10.570   6.670 -0.1971 -0.1843  0.3856
   45MOL0     C 5814   3.385  10.506   6.549 -0.2988 -0.9055 -0.2404
   45MOL0     C 5815   3.298  10.483   6.432 -0.2166 -0.5164 -0.8391
   45MOL0     O 5816   3.354  10.421   6.317  0.4444  0.4803  0.5073
   45MOL0     C 5817   3.258  10.363   6.224 -1.1242  0.2527 -1.2428
   45MOL0     C 5818   3.194  10.225   6.282  0.1902 -1.2829 -0.4564
   45MOL0     C 5819   3.252  10.111   6.203  0.2199  0.3768 -0.8312
   45MOL0     C 5820   3.173   9.978   6.234  0.4782 -0.2133 -0.3948
   45MOL0     C 5821   3.191   9.867   6.136 -0.2843  0.7079 -0.1765
   45MOL0     C 5822   3.085   9.750   6.160 -0.1314 -0.1938  0.2949
   45MOL0     C 5823   2.932   9.788   6.172  0.7774  0.1644  0.0926
   45MOL0     C 5824   2.881   9.848   6.037 -0.8903  0.3170 -0.0669
   45MOL0     N 5825   2.869   9.757   5.926  0.0047  0.1199  0.1461
   45MOL0     C 5826   2.812   9.632   5.936 -0.6906 -0.5534  0.0239
   45MOL0     C 5827   2.841   9.575   5.816  0.1436 -0.7004  0.2147
   45MOL0     C 5828   2.783   9.441   5.780  0.7726 -0.9443 -0.4476
   45MOL0     C 5829   2.657   9.471   5.686  0.4615  0.1357  0.5779
   45MOL0     C 5830   2.668   9.391   5.559  0.5034 -0.4274  0.4739
   45MOL0     C 5831   2.790   9.424   5.467 -0.6672 -0.1340 -0.2557
   45MOL0     O 5832   2.871   9.307   5.438  0.8265  0.8056  0.3038
   45MOL0     C 5833   2.812   9.213   5.361 -0.2230  0.1625  0.5548
   45MOL0     C 5834   2.890   9.098   5.345  0.2382 -0.3413 -0.3510
   45MOL0     C 5835   2.855   8.994   5.258 -0.8248 -0.0357 -0.4473
   45MOL0     C 5836   2.737   9.007   5.184 -0.7380  1.0809 -1.3690
   45MOL0     C 5837   2.685   8.889   5.104  0.8239  1.2113 -0.4544
   45MOL0     O 5838   2.560   8.904   5.053 -1.0010 -0.5073  0.4178
   45MOL0     C 5839   2.496   8.805   4.988  0.1469 -0.3046 -0.2713
   45MOL0     C 5840   2.410   8.726   5.067  0.3835  0.4561  0.4542
   45MOL0     C 5841   2.347   8.610   5.008 -0.1400 -0.5035  0.2158
   45MOL0     C 5842   2.363   8.583   4.869  0.7003  0.4783 -0.4963
   45MOL0     O 5843   2.294   8.486   4.810  0.1566  0.0624 -0.6191
   45MOL0     C 5844   2.167   8.439   4.872  0.4267 -0.1479  0.2049
   45MOL0     C 5845   2.093   8.342   4.789  0.0475 -0.4000  0.3402
   45MOL0     C 5846   2.111   8.190   4.837  0.8289  0.0476  1.4351
   45MOL0     C 5847   2.255   8.147   4.874 -1.3312 -0.2300  0.4545
   45MOL0     C 5848   2.293   8.009   4.885  0.1874  0.8962  0.1759
   45MOL0     C 5849   2.231   7.951   5.022 -0.1345  0.2187 -0.6253
   45MOL0     C 5850   2.230   7.803   5.018  0.1864  0.2853  0.1587
   45MOL0     C 5851   2.100   7.742   4.967 -0.4202 -0.3160 -0.5393
   45MOL0    Cl 5852   2.078   7.782   4.797 -0.1142 -0.3370 -0.3115
   45MOL0     C 5853   2.426   8.674   4.792  0.3960 -0.0300  0.0742
   45MOL0     C 5854   2.499   8.778   4.849 -0.3100 -0.2146  1.4113
   45MOL0     O 5855   2.748   8.785   5.103  0.0254 -0.0631 -0.0256
   45MOL0     C 5856   2.663   9.123   5.191  0.3818  0.2194  0.1235
   45MOL0     C 5857   2.691   9.222   5.282  0.0205  0.3602 -0.3490
   45MOL0     N 5858   2.918   9.660   5.740  0.2768  0.4124  0.1378
   45MOL0     N 5859   2.939   9.767   5.809 -0.0258 -0.1076  0.2299
   45MOL0     C 5860   3.166  10.527   6.444  0.0463 -1.1616 -0.0934
   45MOL0     C 5861   3.123  10.589   6.561  1.1270  1.3110  0.4236
   45MOL0     C 5862   3.007  10.659   6.978  0.0294 -0.5617  0.2473
   45MOL0     C 5863   2.885  10.632   7.044 -1.1169 -0.0169  0.8053
   45MOL0     C 5864   2.860  10.668   7.180 -0.9460  0.2495 -0.0419
   45MOL0     C 5865   2.959  10.739   7.254 -0.5280  0.4410 -0.4046
   45MOL0     O 5866   2.947  10.779   7.389 -0.6408  0.2636 -0.1559
   45MOL0     C 5867   2.821  10.749   7.455 -0.3714 -0.0415  0.4055
   45MOL0     C 5868   2.817  10.614   7.517 -0.4020  0.7181 -0.3020
   45MOL0     C 5869   2.748  10.621   7.650  0.3129  0.7469  0.3589
   45MOL0     C 5870   2.769  10.498   7.734  0.2928 -0.0723  0.4864
   45MOL0     C 5871   2.716  10.384   7.664  0.4667 -0.2074 -0.8302
   45MOL0     C 5872   2.659  10.293   7.614  0.4120  0.0470 -0.1773
   45MOL0     C 5873   3.083  10.768   7.187  0.5550  0.3662 -0.8624
   45MOL0     C 5874   3.101  10.727   7.053 -0.2939  0.4092 -0.0542
   45MOL0     H 5875   3.407  10.601   6.745 -0.4726  2.8225 -0.4896
   45MOL0     H 5876   3.491  10.483   6.545  0.1097  0.7302  0.1123
   45MOL0     H 5877   3.309  10.346   6.128 -0.4095  0.1877 -0.8613
   45MOL0     H 5878   3.177  10.433   6.203 -0.7287  0.3650 -2.5252
   45MOL0     H 5879   3.085  10.225   6.272 -0.0084 -1.9706  1.3849
   45MOL0     H 5880   3.216  10.206   6.388 -0.2989 -3.1844 -0.6550
   45MOL0     H 5881   3.354  10.091   6.239  0.6737 -2.9529 -3.4993
   45MOL0     H 5882   3.248  10.141   6.098  0.0895  0.8086 -0.7052
   45MOL0     H 5883   3.197   9.949   6.336 -0.4600  3.8194  1.1627
   45MOL0     H 5884   3.066  10.002   6.229  0.4651 -0.2129 -0.1281
   45MOL0     H 5885   3.295   9.836   6.149 -1.1443 -1.0095  5.0018
   45MOL0     H 5886   3.168   9.910   6.039 -0.2495  2.2370  0.4703
   45MOL0     H 5887   3.089   9.694   6.254 -1.2947  1.6823  1.5253
   45MOL0     H 5888   3.106   9.676   6.082  1.6876  0.7255 -0.1464
   45MOL0     H 5889   2.872   9.701   6.199  2.4953 -0.9576  0.4471
   45MOL0     H 5890   2.915   9.865   6.248 -1.3824  0.4158 -0.5962
   45MOL0     H 5891   2.948   9.931   6.012  0.7029 -0.5122  1.2869
   45MOL0     H 5892   2.782   9.895   6.040 -0.1902  2.0980 -2.1581
   45MOL0     H 5893   2.748   9.606   6.020 -2.7333  2.5426 -0.4073
   45MOL0     H 5894   2.737   9.394   5.868 -1.2708  0.8990 -0.4498
   45MOL0     H 5895   2.855   9.371   5.737  2.8768  0.4240  0.6714
   45MOL0     H 5896   2.647   9.577   5.658 -2.8669 -0.3545 -0.4923
   45MOL0     H 5897   2.564   9.443   5.736  0.6644  2.5723  2.5502
   45MOL0     H 5898   2.667   9.288   5.596 -3.4476 -0.5999  0.2931
   45MOL0     H 5899   2.571   9.406   5.511  1.2766  3.1367 -0.1952
   45MOL0     H 5900   2.833   9.507   5.524  0.2239  0.5338 -1.8466
   45MOL0     H 5901   2.770   9.479   5.375 -0.3084  1.8512  0.7814
   45MOL0     H 5902   2.984   9.090   5.398  0.3335  0.1768 -0.4384
   45MOL0     H 5903   2.918   8.906   5.251 -0.2311  0.2309  1.1538
   45MOL0     H 5904   2.384   8.757   5.168  1.3403  2.0486  0.2430
   45MOL0     H 5905   2.300   8.534   5.070 -1.0563 -1.2725 -1.3740
   45MOL0     H 5906   2.103   8.525   4.890  1.6945  0.9426 -0.3781
   45MOL0     H 5907   2.185   8.404   4.974 -1.7490  3.3953  1.9654
   45MOL0     H 5908   2.124   8.340   4.684  1.5976 -3.4182  0.7569
   45MOL0     H 5909   1.987   8.370   4.790 -0.6680 -2.8973  0.0669
   45MOL0     H 5910   2.077   8.122   4.758  0.4803  2.7875 -0.9515
   45MOL0     H 5911   2.046   8.171   4.922 -0.5314  1.3302  0.7204
   45MOL0     H 5912   2.318   8.188   4.794 -1.0666 -0.2455  0.6547
   45MOL0     H 5913   2.283   8.207   4.961 -1.1906 -3.4211  2.7837
   45MOL0     H 5914   2.402   8.000   4.896  0.0580 -1.2617  0.0466
   45MOL0     H 5915   2.258   7.945   4.804  0.5116  0.8809  0.0436
   45MOL0     H 5916   2.135   8.002   5.038  0.6324  1.1104  1.5684
   45MOL0     H 5917   2.298   7.987   5.101  1.1556  1.5724 -2.2496
   45MOL0     H 5918   2.308   7.769   4.949  1.0890 -0.5029  1.5272
   45MOL0     H 5919   2.255   7.755   5.113 -0.4291 -1.0215 -0.3057
   45MOL0     H 5920   2.010   7.775   5.020 -0.9711 -1.7389 -0.5359
   45MOL0     H 5921   2.092   7.633   4.977  0.4071 -0.2679  0.9310
   45MOL0     H 5922   2.408   8.677   4.685  0.0268  3.3999  0.1264
   45MOL0     H 5923   2.550   8.828   4.768 -4.3810 -0.9259 -1.9289
   45MOL0     H 5924   2.564   9.129   5.146  1.3295  1.8889 -1.8803
   45MOL0     H 5925   2.625   9.308   5.285 -0.2074  0.2147 -0.9544
   45MOL0     H 5926   3.085  10.527   6.372 -1.8139 -3.1580  1.8628
   45MOL0     H 5927   3.018  10.614   6.561  1.0660  1.0847  1.1327
   45MOL0     H 5928   2.809  10.572   6.993  0.1443  1.5410 -3.3339
   45MOL0     H 5929   2.766  10.640   7.226 -0.3469 -2.9574 -0.5499
   45MOL0     H 5930   2.743  10.762   7.379  1.2146  3.8275 -0.7822
   45MOL0     H 5931   2.810  10.825   7.533 -2.2193 -0.3111  0.4664
   45MOL0     H 5932   2.784  10.541   7.443  5.1711 -0.7879 -1.7691
   45MOL0     H 5933   2.921  10.591   7.544 -0.2596  0.9400 -0.6590
   45MOL0     H 5934   2.641  10.640   7.636  0.4101 -0.7009 -3.3496
   45MOL0     H 5935   2.791  10.705   7.706  1.3359 -1.1196  2.5265
   45MOL0     H 5936   2.875  10.497   7.760 -0.4086  1.2508  3.8998
   45MOL0     H 5937   2.705  10.501   7.823  0.2853 -1.2058  0.5286
   45MOL0     H 5938   2.611  10.226   7.546 -3.5067  2.3040  0.0331
   45MOL0     H 5939   3.160  10.807   7.252 -0.7905 -0.4632  1.3401
   45MOL0     H 5940   3.199  10.735   7.007 -0.7321  1.7027 -0.8233
   46MOL0     O 5941   3.662   4.110   9.308  0.1677 -0.1894 -0.2265
   46MOL0     C 5942   3.610   4.199   9.236 -0.3158  0.1416 -0.8646
   46MOL0     O 5943   3.654   4.247   9.115  0.8240  0.3220  0.1549
   46MOL0     C 5944   3.778   4.208   9.091 -0.4190  0.5088  0.3613
   46MOL0     C 5945   3.883   4.279   9.151 -0.4404 -0.3305 -0.0643
   46MOL0     C 5946   4.010   4.243   9.130  0.4044 -0.4076  0.8458
   46MOL0     C 5947   4.033   4.153   9.020  0.2048  0.1115  0.4074
   46MOL0     O 5948   4.169   4.128   9.002 -0.1570  0.8444  0.0631
   46MOL0     C 5949   4.198   3.994   8.983  0.5574 -0.1724  0.4633
   46MOL0     C 5950   4.214   3.978   8.830  0.0035  1.6179  0.6494
   46MOL0     C 5951   4.166   3.845   8.761 -0.1514  0.3251 -0.0534
   46MOL0     C 5952   4.220   3.723   8.836  0.7100 -0.0736  0.1241
   46MOL0     C 5953   4.211   3.593   8.752 -0.5978 -0.3318  0.4017
   46MOL0     C 5954   4.338   3.588   8.662 -0.1037 -0.8752  0.4784
   46MOL0     C 5955   4.314   3.507   8.537  0.1503  0.3201  0.1584
   46MOL0     C 5956   4.421   3.496   8.434 -0.7800  0.2664  0.1651
   46MOL0     N 5957   4.541   3.419   8.489  0.6565 -0.0060  0.0859
   46MOL0     C 5958   4.634   3.476   8.568 -1.1134  0.3574  1.3684
   46MOL0     C 5959   4.727   3.370   8.581  1.6103 -0.6977  0.1501
   46MOL0     C 5960   4.860   3.377   8.658  0.1166 -1.3183  0.2666
   46MOL0     C 5961   4.968   3.456   8.579 -0.5942  0.4536 -0.0265
   46MOL0     C 5962   5.091   3.512   8.643  0.4498 -0.4292  0.7472
   46MOL0     C 5963   5.187   3.400   8.700 -0.7904 -0.0650  0.7804
   46MOL0     O 5964   5.295   3.459   8.775  0.0706  0.4540  0.3221
   46MOL0     C 5965   5.373   3.364   8.845  0.2892 -0.1733 -0.4254
   46MOL0     C 5966   5.376   3.225   8.827  0.3241 -0.1920  1.0812
   46MOL0     C 5967   5.453   3.151   8.913 -0.1462 -0.5832  0.0017
   46MOL0     C 5968   5.518   3.208   9.020 -0.1762  0.4716 -0.5949
   46MOL0     C 5969   5.582   3.120   9.122  0.6138 -0.8274 -0.5929
   46MOL0     O 5970   5.661   3.184   9.212  0.6588 -0.1399 -0.0655
   46MOL0     C 5971   5.720   3.104   9.307  0.3809 -0.5773  0.9483
   46MOL0     C 5972   5.858   3.073   9.298 -0.6278  0.9770  0.4324
   46MOL0     C 5973   5.916   2.972   9.386 -0.4861 -0.0179  0.5643
   46MOL0     C 5974   5.835   2.905   9.476  0.3956  0.6999  1.9091
   46MOL0     O 5975   5.893   2.814   9.559 -0.5874 -0.2644  0.0232
   46MOL0     C 5976   5.946   2.695   9.498  1.2369  0.6717 -0.1922
   46MOL0     C 5977   6.055   2.646   9.592  0.1172 -0.4244  1.6618
   46MOL0     C 5978   5.995   2.618   9.731 -0.4004  0.5025 -0.2169
   46MOL0     C 5979   6.091   2.535   9.825  0.2530 -0.6892 -0.9204
   46MOL0     C 5980   6.020   2.510   9.964 -0.3038 -0.6864 -0.4844
   46MOL0     C 5981   6.113   2.454  10.071 -0.3096  0.2556  0.5694
   46MOL0     C 5982   6.170   2.312  10.033  0.3463  0.4364 -0.4294
   46MOL0     C 5983   6.319   2.303  10.028  0.2607  0.3350 -0.0869
   46MOL0    Cl 5984   6.379   2.125  10.032  0.0236 -0.0061  0.2580
   46MOL0     C 5985   5.700   2.941   9.489  0.6722  0.4346  0.3666
   46MOL0     C 5986   5.648   3.040   9.405  0.5427  0.9250  0.8815
   46MOL0     O 5987   5.531   3.011   9.140  0.2032 -0.3253  0.3373
   46MOL0     C 5988   5.495   3.345   9.043  0.0046 -0.4946 -0.3733
   46MOL0     C 5989   5.433   3.426   8.953  1.0434 -1.1454 -0.6882
   46MOL0     N 5990   4.680   3.255   8.507 -1.0143 -0.1421 -0.8123
   46MOL0     N 5991   4.569   3.291   8.459 -0.1457  0.4916 -0.4867
   46MOL0     C 5992   3.932   4.087   8.949  0.4556  0.3490 -0.6235
   46MOL0     C 5993   3.804   4.114   8.993  0.6099  0.4999  0.2980
   46MOL0     C 5994   3.479   4.250   9.282 -0.6373 -0.0574 -0.0982
   46MOL0     C 5995   3.435   4.224   9.418  0.3995  0.4355  0.7393
   46MOL0     C 5996   3.315   4.270   9.466 -0.0590 -0.8606  0.4415
   46MOL0     C 5997   3.229   4.352   9.385  0.0424  0.5376  0.0294
   46MOL0     O 5998   3.111   4.419   9.421 -0.1297 -0.6581  0.0911
   46MOL0     C 5999   3.083   4.437   9.553  0.3899 -0.2829  0.2201
   46MOL0     C 6000   2.955   4.523   9.571 -0.3821  0.4939 -0.1579
   46MOL0     C 6001   2.906   4.516   9.721  0.4897  0.2070  1.0421
   46MOL0     C 6002   2.777   4.613   9.750 -0.0889 -0.3881  0.0573
   46MOL0     C 6003   2.644   4.575   9.703  0.4311  0.4277  0.2267
   46MOL0     C 6004   2.538   4.524   9.673 -0.4388 -1.0779 -0.2237
   46MOL0     C 6005   3.276   4.371   9.254 -0.4988 -1.0430 -1.1471
   46MOL0     C 6006   3.395   4.318   9.202  0.5352  0.1731 -0.3406
   46MOL0     H 6007   3.868   4.358   9.223 -0.0510  0.3002 -0.6634
   46MOL0     H 6008   4.094   4.275   9.190  2.0703 -1.4928 -0.7681
   46MOL0     H 6009   4.125   3.924   9.024  0.1745  0.7972  1.4754
   46MOL0     H 6010   4.294   3.966   9.029  0.6302  1.7437  1.5471
   46MOL0     H 6011   4.319   3.989   8.801  0.9100 -3.6800  0.9322
   46MOL0     H 6012   4.156   4.056   8.780 -0.9656  1.9908  2.2593
   46MOL0     H 6013   4.203   3.849   8.658 -1.3662 -1.0472 -0.5728
   46MOL0     H 6014   4.058   3.841   8.745 -0.1885  0.0178  0.2652
   46MOL0     H 6015   4.325   3.722   8.867  0.4041 -1.5082  1.2132
   46MOL0     H 6016   4.169   3.712   8.932  0.4595 -2.5005 -0.2061
   46MOL0     H 6017   4.120   3.607   8.692 -1.3899  1.0627  1.8241
   46MOL0     H 6018   4.206   3.504   8.815  3.9311  1.5375  3.9694
   46MOL0     H 6019   4.420   3.550   8.724 -1.2894 -0.1403  2.6285
   46MOL0     H 6020   4.359   3.688   8.624 -2.9741 -1.7736 -4.3145
   46MOL0     H 6021   4.286   3.408   8.574 -4.2069  2.1716  2.5659
   46MOL0     H 6022   4.227   3.550   8.486  1.8035  1.5554 -1.7611
   46MOL0     H 6023   4.444   3.593   8.389 -0.5064  0.9359  1.6954
   46MOL0     H 6024   4.383   3.446   8.344 -2.3765 -2.2596  2.0957
   46MOL0     H 6025   4.641   3.576   8.612 -1.0817  0.3672  1.3395
   46MOL0     H 6026   4.892   3.274   8.674  0.3268 -1.1056  1.3279
   46MOL0     H 6027   4.843   3.426   8.755  2.3486 -2.9287  1.5593
   46MOL0     H 6028   4.912   3.530   8.520 -2.6758 -1.5729 -0.7545
   46MOL0     H 6029   5.013   3.390   8.505  0.0761  0.0261  0.7350
   46MOL0     H 6030   5.146   3.577   8.574 -3.1442  2.2406  0.0691
   46MOL0     H 6031   5.050   3.583   8.715 -0.1811 -1.6173  1.5934
   46MOL0     H 6032   5.225   3.338   8.619 -0.5015  1.3200 -0.1776
   46MOL0     H 6033   5.128   3.335   8.766  2.3581 -2.3970  1.4927
   46MOL0     H 6034   5.330   3.160   8.753 -0.8970  0.9734  0.7867
   46MOL0     H 6035   5.477   3.047   8.895  0.5343 -0.3815 -0.3311
   46MOL0     H 6036   5.932   3.112   9.230 -0.7414 -0.1857 -0.3715
   46MOL0     H 6037   6.023   2.960   9.377 -0.4619  1.2488 -1.4366
   46MOL0     H 6038   5.979   2.712   9.395  3.0304  0.7849  0.3660
   46MOL0     H 6039   5.867   2.620   9.500 -0.6221  2.5283 -0.3149
   46MOL0     H 6040   6.139   2.715   9.582  0.0916 -0.5214  0.6414
   46MOL0     H 6041   6.101   2.553   9.558 -1.1621 -0.6707  0.4783
   46MOL0     H 6042   5.897   2.570   9.719  0.0508 -0.4430 -0.2328
   46MOL0     H 6043   5.970   2.713   9.779  3.2222  1.8889 -0.7706
   46MOL0     H 6044   6.112   2.439   9.776 -0.9043 -1.1928 -0.4637
   46MOL0     H 6045   6.185   2.588   9.843  1.4401 -3.0839  0.5401
   46MOL0     H 6046   5.945   2.434   9.940  0.4708 -1.7530  0.3345
   46MOL0     H 6047   5.961   2.594  10.001 -1.5293 -2.6038  2.3095
   46MOL0     H 6048   6.056   2.440  10.163 -2.8657  1.7358 -0.6966
   46MOL0     H 6049   6.202   2.514  10.092  1.7597 -2.0802 -0.9522
   46MOL0     H 6050   6.131   2.237  10.103  0.7969 -1.2169 -1.8627
   46MOL0     H 6051   6.135   2.287   9.932 -2.6521  1.1804  0.3089
   46MOL0     H 6052   6.373   2.350  10.111  1.0609  1.6418 -1.3242
   46MOL0     H 6053   6.356   2.352   9.938 -3.2069 -1.7046 -2.9227
   46MOL0     H 6054   5.637   2.899   9.567  2.3083 -2.7480  0.1253
   46MOL0     H 6055   5.543   3.064   9.405  0.5660  1.9563 -3.5634
   46MOL0     H 6056   5.547   3.377   9.133  1.2203 -1.5788 -0.6754
   46MOL0     H 6057   5.434   3.534   8.962  0.6100 -1.2497  0.9618
   46MOL0     H 6058   3.967   4.012   8.880  1.4778  1.8786 -1.8341
   46MOL0     H 6059   3.720   4.066   8.945  0.5566  1.7914 -0.9588
   46MOL0     H 6060   3.493   4.160   9.483  1.5166 -1.9168 -2.3234
   46MOL0     H 6061   3.279   4.227   9.559 -0.7311  1.2819  1.2214
   46MOL0     H 6062   3.158   4.481   9.619  0.4268  0.6226 -0.4101
   46MOL0     H 6063   3.060   4.336   9.589  0.1908 -1.0252 -1.8668
   46MOL0     H 6064   2.980   4.621   9.530 -2.1694  0.4187 -1.5604
   46MOL0     H 6065   2.870   4.493   9.508  2.1437 -3.7754 -1.9555
   46MOL0     H 6066   2.993   4.555   9.773  0.2439  1.5036  0.5245
   46MOL0     H 6067   2.880   4.411   9.739 -0.6895  0.1715 -0.5738
   46MOL0     H 6068   2.780   4.624   9.859 -0.9795  0.0680  0.0489
   46MOL0     H 6069   2.796   4.714   9.713  1.0433 -0.8353 -0.6213
   46MOL0     H 6070   2.444   4.478   9.648  0.3278 -2.9455  0.1997
   46MOL0     H 6071   3.216   4.434   9.188 -0.5664 -1.1194 -1.1585
   46MOL0     H 6072   3.433   4.329   9.101  3.7092  2.3750  0.9359
   47MOL0     O 6073   7.001   8.774   6.826  0.3160  0.0893 -0.2370
   47MOL0     C 6074   6.924   8.858   6.871  1.0381 -0.2699  0.4026
   47MOL0     O 6075   6.871   8.860   6.999 -0.3331 -0.1059  1.0176
   47MOL0     C 6076   6.933   8.788   7.096 -0.8750  0.5827 -0.4348
   47MOL0     C 6077   7.070   8.762   7.103 -0.2096 -0.9857  0.7977
   47MOL0     C 6078   7.134   8.692   7.201 -0.4473 -0.0258 -0.1193
   47MOL0     C 6079   7.062   8.629   7.303  1.1233  0.4257  0.4767
   47MOL0     O 6080   7.134   8.559   7.394  0.4914 -0.9621  0.3082
   47MOL0     C 6081   7.078   8.446   7.459  0.4354  0.1531  1.0505
   47MOL0     C 6082   7.033   8.467   7.597  0.0238 -0.1057 -0.3780
   47MOL0     C 6083   7.139   8.525   7.693 -0.6326  1.2974 -0.0114
   47MOL0     C 6084   7.088   8.551   7.836 -0.6349 -0.3459 -0.2396
   47MOL0     C 6085   7.214   8.592   7.925  0.5631 -0.5982 -0.2748
   47MOL0     C 6086   7.169   8.587   8.070 -1.1231 -0.0121  0.0650
   47MOL0     C 6087   7.062   8.688   8.115  0.9954  0.2822  0.5481
   47MOL0     C 6088   6.951   8.616   8.196 -0.1850  0.2158 -0.5600
   47MOL0     N 6089   6.874   8.517   8.121  0.1726 -0.6831 -0.8410
   47MOL0     C 6090   6.790   8.546   8.019  0.9210  1.1157 -0.2974
   47MOL0     C 6091   6.744   8.412   7.985 -0.2574 -0.3018  0.4392
   47MOL0     C 6092   6.630   8.395   7.894 -0.3290 -0.6031 -0.4737
   47MOL0     C 6093   6.660   8.424   7.742 -0.1514 -0.2459  0.2441
   47MOL0     C 6094   6.550   8.402   7.644 -0.3558  0.5128 -0.3670
   47MOL0     C 6095   6.605   8.440   7.500 -0.3509 -0.6167  0.4288
   47MOL0     O 6096   6.496   8.507   7.428  0.0938  0.4510 -0.4066
   47MOL0     C 6097   6.374   8.443   7.406 -0.5442 -0.6592 -0.7288
   47MOL0     C 6098   6.358   8.310   7.420  0.7757 -0.5337 -0.2354
   47MOL0     C 6099   6.239   8.259   7.379  0.3684  0.2692 -0.4208
   47MOL0     C 6100   6.128   8.337   7.334 -1.0791  0.0639 -0.5398
   47MOL0     C 6101   6.009   8.266   7.298 -0.3614  0.0909  0.0957
   47MOL0     O 6102   6.019   8.127   7.281 -0.9094 -0.3243  0.1867
   47MOL0     C 6103   5.921   8.040   7.264  1.1592  0.1723 -0.6189
   47MOL0     C 6104   5.819   8.058   7.169 -0.6169 -0.1170 -0.4245
   47MOL0     C 6105   5.733   7.961   7.144  0.2752  0.4196  0.2885
   47MOL0     C 6106   5.715   7.855   7.235  0.4107 -0.4224 -0.1518
   47MOL0     O 6107   5.621   7.763   7.200  0.1672  0.4852 -0.4199
   47MOL0     C 6108   5.513   7.756   7.294  0.4788 -0.4442 -0.3068
   47MOL0     C 6109   5.417   7.660   7.218 -1.0661  1.1509  0.0993
   47MOL0     C 6110   5.277   7.657   7.280  0.4468 -0.7892 -0.5475
   47MOL0     C 6111   5.259   7.568   7.398 -0.5494  0.4025  0.3067
   47MOL0     C 6112   5.138   7.587   7.485  0.0538 -0.8716 -0.1096
   47MOL0     C 6113   4.993   7.552   7.416  0.2179  0.8136  0.8923
   47MOL0     C 6114   4.953   7.414   7.450 -0.0593 -0.4785 -0.1998
   47MOL0     C 6115   4.806   7.392   7.463 -0.1683  0.7136  0.8079
   47MOL0    Cl 6116   4.704   7.411   7.319  0.0537 -0.1497 -0.3039
   47MOL0     C 6117   5.809   7.840   7.341  0.5167 -0.0737 -0.0248
   47MOL0     C 6118   5.911   7.930   7.359 -0.1906 -0.5837 -0.0033
   47MOL0     O 6119   5.903   8.323   7.305 -0.3318  0.3484 -0.5746
   47MOL0     C 6120   6.145   8.484   7.324  0.6102 -0.4385  0.2899
   47MOL0     C 6121   6.273   8.531   7.364 -0.7309 -0.0847 -0.0281
   47MOL0     N 6122   6.831   8.322   8.044  0.3094  0.1698 -0.1080
   47MOL0     N 6123   6.906   8.379   8.127  0.3482  0.5175  0.3187
   47MOL0     C 6124   6.923   8.648   7.300  0.2690  0.6097  0.2728
   47MOL0     C 6125   6.866   8.725   7.196  0.7373  1.2423 -0.6809
   47MOL0     C 6126   6.859   8.932   6.757 -0.5089 -0.0022  0.4775
   47MOL0     C 6127   6.860   8.892   6.622  0.0855  0.0153  0.1399
   47MOL0     C 6128   6.795   8.973   6.530 -0.6399  0.4015 -0.7475
   47MOL0     C 6129   6.734   9.092   6.563 -1.1913 -0.0008  0.0323
   47MOL0     O 6130   6.678   9.164   6.462 -0.2482  0.0678 -1.6448
   47MOL0     C 6131   6.548   9.216   6.484 -0.4513 -0.5538 -0.2834
   47MOL0     C 6132   6.451   9.098   6.442 -0.4126  0.4823 -0.4767
   47MOL0     C 6133   6.306   9.124   6.483 -0.2134  0.3392 -0.4888
   47MOL0     C 6134   6.228   9.209   6.390 -0.1266  0.2550  0.6931
   47MOL0     C 6135   6.275   9.351   6.371  0.9312 -0.1053  0.0126
   47MOL0     C 6136   6.309   9.466   6.368  0.0647 -0.2035 -0.5424
   47MOL0     C 6137   6.752   9.134   6.684 -0.0962 -0.9953 -0.4869
   47MOL0     C 6138   6.800   9.055   6.787 -0.2370 -0.3182  0.1117
   47MOL0     H 6139   7.139   8.807   7.032  2.4436  0.4280  3.9761
   47MOL0     H 6140   7.241   8.707   7.203 -0.6735  2.2516 -1.4387
   47MOL0     H 6141   7.143   8.359   7.445 -3.2850 -2.8383  0.5893
   47MOL0     H 6142   6.992   8.413   7.400  3.4167 -0.9508 -3.1030
   47MOL0     H 6143   7.005   8.370   7.640  0.5084  0.5604  1.5304
   47MOL0     H 6144   6.955   8.542   7.610 -1.0082 -1.5863  3.6551
   47MOL0     H 6145   7.173   8.614   7.640 -3.1217  0.7126 -2.8242
   47MOL0     H 6146   7.224   8.456   7.700 -2.1689 -0.6797  0.0331
   47MOL0     H 6147   6.998   8.613   7.832 -0.4532  0.0751  1.3133
   47MOL0     H 6148   7.057   8.460   7.888 -0.2604  0.6004  1.7301
   47MOL0     H 6149   7.231   8.699   7.908 -1.8446  0.0896  1.1388
   47MOL0     H 6150   7.303   8.529   7.917 -0.9105 -2.6291 -2.0186
   47MOL0     H 6151   7.252   8.603   8.139 -1.7417 -0.4401  0.9269
   47MOL0     H 6152   7.135   8.485   8.089 -0.3246 -0.3802 -0.4042
   47MOL0     H 6153   7.123   8.754   8.178  0.7179 -1.0720  2.2961
   47MOL0     H 6154   7.014   8.727   8.025 -1.4325 -0.8282  1.2877
   47MOL0     H 6155   6.893   8.697   8.242  2.0555  0.1398  2.7249
   47MOL0     H 6156   7.009   8.563   8.272  0.4872  1.0384 -0.4800
   47MOL0     H 6157   6.741   8.641   8.004 -1.3899 -0.2978 -2.3909
   47MOL0     H 6158   6.544   8.449   7.936 -0.1934 -2.6349  2.8548
   47MOL0     H 6159   6.605   8.289   7.899  0.0183 -0.9112 -3.6870
   47MOL0     H 6160   6.745   8.362   7.713  0.9641  0.4990  1.7791
   47MOL0     H 6161   6.690   8.527   7.722  0.7150 -1.1093 -4.0029
   47MOL0     H 6162   6.513   8.302   7.665  0.1222 -0.1492 -2.4277
   47MOL0     H 6163   6.472   8.475   7.665 -0.8891  0.5575 -2.3594
   47MOL0     H 6164   6.646   8.365   7.433 -1.8667 -1.6983  0.6536
   47MOL0     H 6165   6.677   8.523   7.498 -3.6608  2.4922 -0.6404
   47MOL0     H 6166   6.444   8.249   7.444  0.0639 -0.8438  1.6890
   47MOL0     H 6167   6.245   8.151   7.391  1.3335  0.2410 -1.1105
   47MOL0     H 6168   5.803   8.151   7.115 -2.0070 -0.6718 -0.9959
   47MOL0     H 6169   5.659   7.979   7.068 -0.9080 -2.5223  0.5843
   47MOL0     H 6170   5.460   7.850   7.308 -0.6166 -1.1348  0.2333
   47MOL0     H 6171   5.549   7.714   7.388  4.3086 -3.3157 -2.7286
   47MOL0     H 6172   5.465   7.562   7.219  1.0830  2.1569  1.2957
   47MOL0     H 6173   5.409   7.689   7.113 -2.9369 -1.7087 -0.6639
   47MOL0     H 6174   5.214   7.626   7.196  0.6957  0.2506 -1.1297
   47MOL0     H 6175   5.255   7.757   7.316  1.3512 -0.9348  0.4695
   47MOL0     H 6176   5.259   7.468   7.352 -1.9508  1.4568 -2.1851
   47MOL0     H 6177   5.341   7.577   7.470  2.5200 -0.3528 -2.8345
   47MOL0     H 6178   5.133   7.682   7.539 -2.7091 -0.4737 -0.8912
   47MOL0     H 6179   5.158   7.510   7.561  1.5346 -1.3599 -0.9480
   47MOL0     H 6180   5.001   7.564   7.308  0.3903  1.3891  0.9650
   47MOL0     H 6181   4.914   7.621   7.448 -0.8040 -1.1377  2.8147
   47MOL0     H 6182   4.978   7.343   7.370 -3.7038 -0.2005 -1.8095
   47MOL0     H 6183   5.002   7.378   7.541 -2.8533 -0.2491  1.4979
   47MOL0     H 6184   4.759   7.449   7.544 -3.3517 -0.0440 -0.3390
   47MOL0     H 6185   4.793   7.289   7.496 -1.1849  1.0170  1.3913
   47MOL0     H 6186   5.800   7.750   7.401 -1.0084  0.3003  0.3646
   47MOL0     H 6187   5.992   7.928   7.432 -0.0169  0.6941 -0.1327
   47MOL0     H 6188   6.076   8.554   7.279  0.8345  1.4025  2.6032
   47MOL0     H 6189   6.300   8.634   7.345  0.7028 -0.4236  0.0934
   47MOL0     H 6190   6.856   8.599   7.371 -0.7816  0.0171 -1.0967
   47MOL0     H 6191   6.757   8.726   7.188  0.6416 -0.8959 -0.2643
   47MOL0     H 6192   6.906   8.800   6.586 -0.9550 -1.3286  2.0515
   47MOL0     H 6193   6.790   8.968   6.422 -2.1390 -0.6715 -0.6495
   47MOL0     H 6194   6.524   9.306   6.427 -1.9491 -1.9007 -1.8794
   47MOL0     H 6195   6.525   9.246   6.587 -1.3308  0.5551 -0.7824
   47MOL0     H 6196   6.463   9.084   6.334  1.7421  1.0516 -0.3492
   47MOL0     H 6197   6.489   9.015   6.503  3.4318  1.8562 -0.7377
   47MOL0     H 6198   6.294   9.164   6.585  2.1945 -1.4925  0.6172
   47MOL0     H 6199   6.249   9.030   6.486  0.6932 -0.2261  2.3863
   47MOL0     H 6200   6.245   9.170   6.289 -2.2519 -2.6243  1.3307
   47MOL0     H 6201   6.119   9.208   6.403  0.0305 -0.6742  2.0104
   47MOL0     H 6202   6.338   9.564   6.336  1.8630  0.3673  2.4579
   47MOL0     H 6203   6.717   9.229   6.725  2.6875  0.1023 -0.4336
   47MOL0     H 6204   6.792   9.079   6.892  1.4534 -2.2425  0.7532
   48MOL0     O 6205   5.755   3.468   8.634  0.7049 -0.5075 -0.1665
   48MOL0     C 6206   5.719   3.353   8.613 -0.1437  0.2394  0.6586
   48MOL0     O 6207   5.639   3.312   8.514  0.2147  0.8566 -0.3344
   48MOL0     C 6208   5.612   3.407   8.426  0.8955 -0.0492 -0.6665
   48MOL0     C 6209   5.480   3.424   8.387 -0.9610 -0.4659 -0.6611
   48MOL0     C 6210   5.432   3.523   8.301  0.2725  0.4121  0.6151
   48MOL0     C 6211   5.526   3.598   8.230  0.1796 -0.2166  0.5597
   48MOL0     O 6212   5.468   3.680   8.134  0.6118 -0.6363 -0.5309
   48MOL0     C 6213   5.553   3.760   8.056 -0.1620  0.1426  0.5124
   48MOL0     C 6214   5.467   3.856   7.977 -0.3187  0.3642  0.8253
   48MOL0     C 6215   5.359   3.789   7.887  0.0469  0.0792 -0.5573
   48MOL0     C 6216   5.289   3.892   7.812  0.2724  0.8359  0.1376
   48MOL0     C 6217   5.370   3.923   7.682 -0.1751 -0.8256  0.6272
   48MOL0     C 6218   5.302   4.044   7.602 -0.6790  0.0274 -0.5308
   48MOL0     C 6219   5.170   3.999   7.550 -0.2141 -0.1023  0.2837
   48MOL0     C 6220   5.062   4.089   7.590  0.3529  0.4558  0.2390
   48MOL0     N 6221   5.064   4.226   7.537 -0.3189  0.2234 -0.4084
   48MOL0     C 6222   5.148   4.336   7.572 -0.1888 -0.0305 -1.1607
   48MOL0     C 6223   5.115   4.437   7.490 -0.1158 -0.4854 -0.7600
   48MOL0     C 6224   5.199   4.567   7.486  0.6731 -1.1987  0.3055
   48MOL0     C 6225   5.091   4.670   7.449 -0.3128 -0.0478  0.5260
   48MOL0     C 6226   5.155   4.815   7.477 -1.2681 -0.2409  0.3564
   48MOL0     C 6227   5.049   4.917   7.467 -0.2534 -0.8615 -0.1793
   48MOL0     O 6228   5.107   5.039   7.496  1.3940  0.1131 -0.8819
   48MOL0     C 6229   5.155   5.120   7.389  0.0152  0.2951  0.0260
   48MOL0     C 6230   5.231   5.233   7.423 -0.7610  0.1113 -0.6243
   48MOL0     C 6231   5.299   5.306   7.322 -1.0802 -0.8464  0.4577
   48MOL0     C 6232   5.280   5.272   7.188 -0.7471 -0.4511 -0.3656
   48MOL0     C 6233   5.330   5.360   7.078 -0.2347  0.4129  0.5628
   48MOL0     O 6234   5.336   5.498   7.103  0.5180  0.5313 -0.0762
   48MOL0     C 6235   5.388   5.590   7.012  0.6952 -0.2997 -0.4884
   48MOL0     C 6236   5.363   5.586   6.874 -0.3044  0.5021  0.6631
   48MOL0     C 6237   5.415   5.684   6.784 -0.4582 -0.0974 -0.1006
   48MOL0     C 6238   5.495   5.786   6.835 -0.9022 -0.4888 -0.2455
   48MOL0     O 6239   5.539   5.895   6.771  0.6040 -0.7736 -0.2214
   48MOL0     C 6240   5.474   5.929   6.649 -0.5632  1.3283  0.1402
   48MOL0     C 6241   5.492   6.076   6.642 -0.3653 -0.3051 -0.2607
   48MOL0     C 6242   5.407   6.176   6.542 -0.7522 -0.3951  0.6429
   48MOL0     C 6243   5.415   6.147   6.386  0.3990  0.0724 -0.3181
   48MOL0     C 6244   5.351   6.263   6.311  0.7622  0.1036 -0.4647
   48MOL0     C 6245   5.208   6.212   6.278 -0.5148 -0.9060  0.0026
   48MOL0     C 6246   5.124   6.320   6.215  0.1934 -0.5518  1.1114
   48MOL0     C 6247   4.978   6.275   6.201  0.4193 -1.5253  0.5383
   48MOL0    Cl 6248   4.886   6.350   6.067  0.3301  0.0022 -0.5948
   48MOL0     C 6249   5.522   5.787   6.977  0.6358 -1.0238  0.3438
   48MOL0     C 6250   5.471   5.688   7.057  0.3663 -0.6011 -0.4653
   48MOL0     O 6251   5.375   5.303   6.976 -0.2572 -0.0559  0.1789
   48MOL0     C 6252   5.200   5.168   7.159  0.6612 -0.1437  1.5889
   48MOL0     C 6253   5.146   5.088   7.252 -0.2435  0.5003  0.5192
   48MOL0     N 6254   5.028   4.390   7.393  0.6429 -1.1420  0.6372
   48MOL0     N 6255   4.987   4.267   7.430 -0.5874  0.8268  1.4570
   48MOL0     C 6256   5.657   3.564   8.249  0.0338 -0.7352 -0.4801
   48MOL0     C 6257   5.708   3.481   8.352 -0.1767 -1.0761 -0.6482
   48MOL0     C 6258   5.770   3.252   8.711  0.5739 -1.0437  0.7389
   48MOL0     C 6259   5.769   3.115   8.679 -0.2741  0.1695 -0.2923
   48MOL0     C 6260   5.803   3.009   8.765  0.4116 -0.9163 -0.2073
   48MOL0     C 6261   5.850   3.045   8.895  0.0022 -0.4342  0.3724
   48MOL0     O 6262   5.914   2.952   8.976  0.4407 -0.3359  0.8571
   48MOL0     C 6263   5.926   2.810   8.941 -0.0538  0.3781 -0.6433
   48MOL0     C 6264   5.801   2.732   8.980 -0.2512 -1.1303  0.5518
   48MOL0     C 6265   5.795   2.732   9.133  0.2795  1.1186  0.2147
   48MOL0     C 6266   5.692   2.635   9.196  0.4790  0.5180  0.3957
   48MOL0     C 6267   5.762   2.519   9.248  0.3155 -0.0683  0.0307
   48MOL0     C 6268   5.816   2.425   9.299 -0.4569 -0.9997 -0.3810
   48MOL0     C 6269   5.843   3.181   8.933  0.0233 -0.0588 -0.4707
   48MOL0     C 6270   5.797   3.279   8.841  0.7632 -0.5361  0.0219
   48MOL0     H 6271   5.402   3.375   8.444 -1.6915  1.0443 -0.2957
   48MOL0     H 6272   5.326   3.529   8.280  0.6596 -2.1010 -2.8526
   48MOL0     H 6273   5.595   3.700   7.976 -0.5237  2.6984 -1.7286
   48MOL0     H 6274   5.628   3.814   8.114 -0.6546  1.1030  0.2795
   48MOL0     H 6275   5.527   3.914   7.906  1.8829 -2.3728  0.2486
   48MOL0     H 6276   5.419   3.923   8.049 -2.2165  0.4859 -0.4915
   48MOL0     H 6277   5.294   3.730   7.953  2.7119 -1.1816  1.1445
   48MOL0     H 6278   5.402   3.713   7.821 -1.0812  0.3149 -1.6077
   48MOL0     H 6279   5.184   3.865   7.801  0.4256  1.1096 -2.4992
   48MOL0     H 6280   5.301   3.978   7.879  1.4035 -0.4932  1.7337
   48MOL0     H 6281   5.365   3.832   7.621  2.2087 -1.1151  0.7425
   48MOL0     H 6282   5.473   3.954   7.703 -1.6104  2.9607  3.2860
   48MOL0     H 6283   5.361   4.067   7.513  1.8250 -2.1545  0.4294
   48MOL0     H 6284   5.295   4.122   7.679  0.7463  1.2122 -1.5457
   48MOL0     H 6285   5.168   4.008   7.441  0.1403 -0.0042  0.2857
   48MOL0     H 6286   5.151   3.892   7.560  2.0071 -0.9842 -3.2593
   48MOL0     H 6287   5.056   4.079   7.699  1.0472 -1.7873  0.1310
   48MOL0     H 6288   4.970   4.036   7.564  0.4885  0.0600  0.5572
   48MOL0     H 6289   5.230   4.336   7.644  0.9151 -2.5437 -2.2940
   48MOL0     H 6290   5.283   4.574   7.416  0.4150 -1.9387 -0.0819
   48MOL0     H 6291   5.248   4.600   7.578 -0.3636  3.7124 -0.6272
   48MOL0     H 6292   5.003   4.651   7.512 -2.3441 -2.3215 -2.7131
   48MOL0     H 6293   5.070   4.660   7.342  2.3499  0.2926 -0.0980
   48MOL0     H 6294   5.210   4.816   7.571 -4.2004  1.2231  2.1868
   48MOL0     H 6295   5.225   4.839   7.396 -3.3741 -2.6161 -2.4290
   48MOL0     H 6296   4.961   4.892   7.527  0.8754 -2.5037  0.8638
   48MOL0     H 6297   5.018   4.907   7.363  0.8917 -0.5885 -0.5587
   48MOL0     H 6298   5.247   5.247   7.529 -4.7429 -1.8661  0.4352
   48MOL0     H 6299   5.370   5.388   7.328 -1.8883  0.2709 -2.7377
   48MOL0     H 6300   5.306   5.504   6.833 -0.5103  0.8531  0.2328
   48MOL0     H 6301   5.404   5.699   6.677 -2.8195  0.5246  0.1662
   48MOL0     H 6302   5.370   5.899   6.665 -0.1112 -1.0732 -1.0335
   48MOL0     H 6303   5.523   5.880   6.564  1.3828 -0.3128  2.1100
   48MOL0     H 6304   5.596   6.089   6.611 -1.0555 -0.9281 -3.1028
   48MOL0     H 6305   5.474   6.104   6.746 -1.6088  1.4021 -0.8975
   48MOL0     H 6306   5.438   6.279   6.563 -3.9692  0.4090  2.0504
   48MOL0     H 6307   5.305   6.165   6.579 -0.9766  0.4441  0.3039
   48MOL0     H 6308   5.516   6.124   6.352 -0.1533 -0.2915 -1.7807
   48MOL0     H 6309   5.355   6.057   6.370 -0.4746  0.4199  0.9106
   48MOL0     H 6310   5.397   6.286   6.214 -0.0456  3.2323 -0.2218
   48MOL0     H 6311   5.356   6.358   6.365 -1.1436  1.4133 -2.3850
   48MOL0     H 6312   5.170   6.181   6.376 -1.7871  0.9324  0.1312
   48MOL0     H 6313   5.211   6.125   6.212  1.8917 -0.1512 -0.9926
   48MOL0     H 6314   5.128   6.406   6.283 -1.7446  0.1728  0.3646
   48MOL0     H 6315   5.158   6.339   6.113  1.2170 -1.2423  1.3080
   48MOL0     H 6316   4.931   6.285   6.299 -0.7283  1.3805 -0.2177
   48MOL0     H 6317   4.971   6.166   6.195 -2.4174 -1.6202  3.2637
   48MOL0     H 6318   5.587   5.862   7.020  0.4686 -0.6164 -0.1068
   48MOL0     H 6319   5.498   5.684   7.162  2.2476 -2.0303 -0.9360
   48MOL0     H 6320   5.167   5.143   7.059 -3.1983  2.6968  1.9101
   48MOL0     H 6321   5.094   5.003   7.208 -3.0213  2.2948  0.1028
   48MOL0     H 6322   5.727   3.623   8.190 -1.0149  1.2610  0.1865
   48MOL0     H 6323   5.816   3.479   8.359 -0.0021  2.4249 -0.4915
   48MOL0     H 6324   5.747   3.083   8.577 -1.8321 -1.0681  0.3979
   48MOL0     H 6325   5.783   2.909   8.727 -0.1043 -1.4013  1.2406
   48MOL0     H 6326   6.007   2.766   9.000 -1.4413 -0.9435  0.3271
   48MOL0     H 6327   5.942   2.800   8.833 -2.0996 -3.8069 -0.7724
   48MOL0     H 6328   5.708   2.772   8.939 -1.4174 -2.7887  1.4374
   48MOL0     H 6329   5.819   2.625   8.965  0.4410 -0.8905 -0.4171
   48MOL0     H 6330   5.770   2.828   9.178 -1.9281  0.6241  0.1800
   48MOL0     H 6331   5.894   2.698   9.164 -0.9013  0.2256  3.4703
   48MOL0     H 6332   5.646   2.688   9.280  0.1108 -1.1628  1.2952
   48MOL0     H 6333   5.612   2.596   9.133 -0.9678  2.2201  1.0896
   48MOL0     H 6334   5.871   2.348   9.351 -0.8723  0.8943  3.1839
   48MOL0     H 6335   5.880   3.206   9.032  2.1046 -1.9611 -0.6809
   48MOL0     H 6336   5.792   3.381   8.880  0.9238 -1.0297  1.3944
   49MOL0     O 6337   2.024   6.559   0.503  0.1551  1.4739  0.1867
   49MOL0     C 6338   1.951   6.462   0.483 -0.1825  0.0599 -0.9268
   49MOL0     O 6339   1.848   6.415   0.570  0.2115 -0.6411  0.0540
   49MOL0     C 6340   1.837   6.480   0.697 -0.0403  1.0884  0.5033
   49MOL0     C 6341   1.781   6.612   0.709  1.0833  0.2228 -0.4082
   49MOL0     C 6342   1.756   6.664   0.836  0.4609 -1.2065 -0.4704
   49MOL0     C 6343   1.780   6.585   0.949  0.0166 -0.4809  0.0094
   49MOL0     O 6344   1.736   6.627   1.074 -0.7068 -1.0951  0.5065
   49MOL0     C 6345   1.673   6.757   1.086  0.4840  1.0118  0.5417
   49MOL0     C 6346   1.620   6.784   1.225 -0.1074  0.8157  0.2232
   49MOL0     C 6347   1.547   6.912   1.241  0.0660  0.4790  1.2304
   49MOL0     C 6348   1.527   6.938   1.391 -0.0385 -0.1002  0.5496
   49MOL0     C 6349   1.480   7.085   1.428  0.0376  0.2492 -0.2865
   49MOL0     C 6350   1.597   7.188   1.407 -0.7448  0.1939 -0.0695
   49MOL0     C 6351   1.535   7.330   1.441 -0.1449 -0.0381 -0.2530
   49MOL0     C 6352   1.640   7.441   1.459  0.1283 -0.0748 -1.0410
   49MOL0     N 6353   1.578   7.564   1.513  0.5964 -0.3750 -0.2729
   49MOL0     C 6354   1.621   7.651   1.610 -0.2140  0.6882 -0.7173
   49MOL0     C 6355   1.552   7.767   1.594  0.4676  1.1388  0.3957
   49MOL0     C 6356   1.556   7.886   1.692  0.5079  0.3212 -1.0586
   49MOL0     C 6357   1.550   8.026   1.623  0.1490 -0.5512 -0.4453
   49MOL0     C 6358   1.424   8.065   1.548  0.4655 -0.5129  0.4238
   49MOL0     C 6359   1.433   8.211   1.517 -1.1692 -0.2882  0.4045
   49MOL0     O 6360   1.304   8.252   1.527 -0.4588  0.1232  0.3719
   49MOL0     C 6361   1.278   8.387   1.514  0.0276  1.0335  0.7651
   49MOL0     C 6362   1.135   8.415   1.506  0.1779  0.3703 -0.7844
   49MOL0     C 6363   1.083   8.547   1.508 -0.0705  0.2883 -0.8745
   49MOL0     C 6364   1.165   8.660   1.522  0.2578  0.6651  0.9740
   49MOL0     C 6365   1.115   8.802   1.526 -0.0462 -0.6701  0.1490
   49MOL0     O 6366   1.204   8.891   1.491 -0.1850 -0.4104  0.3933
   49MOL0     C 6367   1.176   9.025   1.494 -0.6162 -0.6094  0.6396
   49MOL0     C 6368   1.212   9.098   1.608  0.9190  0.1522  0.6548
   49MOL0     C 6369   1.182   9.240   1.609  0.8941  1.2952 -0.0945
   49MOL0     C 6370   1.104   9.309   1.512  0.2689 -0.0486  0.4038
   49MOL0     O 6371   1.071   9.447   1.506 -0.4499  0.3462 -0.5918
   49MOL0     C 6372   1.193   9.520   1.527 -0.0294 -0.7524  0.4834
   49MOL0     C 6373   1.163   9.673   1.537 -0.6813 -0.2483 -1.0020
   49MOL0     C 6374   1.296   9.741   1.534 -0.3402  0.1003  0.8969
   49MOL0     C 6375   1.281   9.889   1.544  1.0808 -0.4014  0.1202
   49MOL0     C 6376   1.404   9.971   1.506 -0.4767  0.8695  0.2542
   49MOL0     C 6377   1.541   9.922   1.559  0.4127 -0.5839  0.4440
   49MOL0     C 6378   1.661  10.022   1.517  0.8281  0.0468  0.4251
   49MOL0     C 6379   1.793   9.966   1.547 -1.0031 -0.3809 -1.1989
   49MOL0    Cl 6380   1.840   9.808   1.467 -0.1452 -0.1072  0.6111
   49MOL0     C 6381   1.085   9.230   1.403  0.0819 -0.8991 -0.1109
   49MOL0     C 6382   1.111   9.097   1.386 -0.8668  0.6128  0.2968
   49MOL0     O 6383   1.003   8.841   1.570 -0.7941 -0.1668  0.1790
   49MOL0     C 6384   1.299   8.626   1.529 -0.8526 -0.6860 -0.0967
   49MOL0     C 6385   1.363   8.496   1.524  0.1601 -0.4035 -0.0873
   49MOL0     N 6386   1.464   7.743   1.488 -0.2160  0.2330 -0.4049
   49MOL0     N 6387   1.478   7.624   1.447  0.7283 -0.9645  0.1000
   49MOL0     C 6388   1.836   6.461   0.941 -0.1129 -0.3336  0.7804
   49MOL0     C 6389   1.867   6.408   0.816 -0.0123  1.2659  0.0259
   49MOL0     C 6390   1.977   6.381   0.358  1.0968 -0.2536 -0.1263
   49MOL0     C 6391   2.085   6.410   0.279 -0.3468  0.5456  0.7215
   49MOL0     C 6392   2.099   6.355   0.146 -1.1428 -0.2708 -0.7906
   49MOL0     C 6393   2.019   6.253   0.107  0.8017 -0.2157 -0.0117
   49MOL0     O 6394   2.044   6.195  -0.014  0.6012 -0.0912 -0.1502
   49MOL0     C 6395   1.988   6.066  -0.039  0.2171 -0.0697 -0.3875
   49MOL0     C 6396   1.840   6.062  -0.098 -1.3298 -0.1201 -0.1733
   49MOL0     C 6397   1.818   5.919  -0.159  0.0183 -0.3581  0.1704
   49MOL0     C 6398   1.857   5.795  -0.071 -0.3731  0.2520 -0.2734
   49MOL0     C 6399   1.791   5.800   0.067  0.0578 -0.6498  0.5267
   49MOL0     C 6400   1.750   5.812   0.181  0.4382 -0.9862  0.0373
   49MOL0     C 6401   1.906   6.220   0.185  1.5320  0.0857  0.3236
   49MOL0     C 6402   1.881   6.290   0.306  0.3637  1.6736 -0.6328
   49MOL0     H 6403   1.742   6.651   0.616  1.4898 -0.6474 -0.9534
   49MOL0     H 6404   1.710   6.762   0.845  3.6127  0.3609 -0.2651
   49MOL0     H 6405   1.581   6.742   1.028  1.0542 -1.9771  0.2025
   49MOL0     H 6406   1.724   6.839   1.036  1.0412 -0.6911 -1.9304
   49MOL0     H 6407   1.698   6.778   1.302  1.4468  2.8549 -1.0885
   49MOL0     H 6408   1.544   6.708   1.249  0.9023  0.3160  2.0924
   49MOL0     H 6409   1.450   6.917   1.191  0.6840  3.8499  0.0735
   49MOL0     H 6410   1.604   6.998   1.202 -1.5283  1.0806  0.1163
   49MOL0     H 6411   1.452   6.869   1.429 -0.3891 -0.6658 -1.0870
   49MOL0     H 6412   1.614   6.916   1.454 -0.0444 -1.5544  0.0835
   49MOL0     H 6413   1.451   7.086   1.533  2.7189 -6.7198  1.0828
   49MOL0     H 6414   1.398   7.115   1.362  0.3334  2.2197  0.1828
   49MOL0     H 6415   1.624   7.184   1.301 -0.3661  1.2093 -0.0187
   49MOL0     H 6416   1.686   7.169   1.467  0.3770  1.1845 -1.3791
   49MOL0     H 6417   1.483   7.358   1.349  0.3565  0.0910 -0.5024
   49MOL0     H 6418   1.463   7.315   1.522 -1.6648  0.4714 -1.4817
   49MOL0     H 6419   1.694   7.453   1.365 -0.7584 -0.3278 -1.5947
   49MOL0     H 6420   1.713   7.417   1.538  1.3082 -1.4168 -2.4856
   49MOL0     H 6421   1.703   7.631   1.679 -0.5689 -2.8139 -1.1340
   49MOL0     H 6422   1.649   7.881   1.750 -0.2889  2.0479  0.4794
   49MOL0     H 6423   1.472   7.886   1.762  1.5390 -2.7645  0.3489
   49MOL0     H 6424   1.638   8.044   1.561  0.9955  0.8949  1.0602
   49MOL0     H 6425   1.552   8.105   1.700 -1.3435  0.7941 -1.6946
   49MOL0     H 6426   1.427   8.014   1.451  1.2364  0.3877 -0.0420
   49MOL0     H 6427   1.347   8.043   1.623 -0.7899  0.4531 -0.5377
   49MOL0     H 6428   1.475   8.218   1.416 -0.2451 -0.0363  0.7977
   49MOL0     H 6429   1.494   8.267   1.589  0.6960 -1.2756 -0.3352
   49MOL0     H 6430   1.078   8.323   1.504  0.7882 -0.0195 -0.6960
   49MOL0     H 6431   0.982   8.581   1.488 -0.2044  0.5293  0.1445
   49MOL0     H 6432   1.267   9.061   1.694  1.5163  0.8415  0.5838
   49MOL0     H 6433   1.204   9.292   1.702  2.2352  1.2751 -0.3751
   49MOL0     H 6434   1.259   9.492   1.445  1.9225 -2.0875  2.3996
   49MOL0     H 6435   1.256   9.494   1.613  1.5024 -2.4530 -1.0680
   49MOL0     H 6436   1.100   9.700   1.621  1.2644  0.2295  0.3710
   49MOL0     H 6437   1.106   9.702   1.448 -0.8369  0.5123 -0.6568
   49MOL0     H 6438   1.352   9.723   1.442  0.7613  4.5224  0.4742
   49MOL0     H 6439   1.362   9.699   1.611  0.2297 -0.4100  0.1494
   49MOL0     H 6440   1.201   9.914   1.474  2.9389 -0.2737 -2.0374
   49MOL0     H 6441   1.241   9.917   1.642 -0.5096 -1.2747 -0.2361
   49MOL0     H 6442   1.388  10.072   1.546 -1.8793  0.1800  1.5309
   49MOL0     H 6443   1.400   9.975   1.396  0.3197  1.4722  0.2397
   49MOL0     H 6444   1.553   9.820   1.520  1.0080  0.2891 -1.8238
   49MOL0     H 6445   1.545   9.901   1.666  2.5513 -2.7084  0.0545
   49MOL0     H 6446   1.664  10.031   1.408 -0.9354  1.4199  0.4519
   49MOL0     H 6447   1.653  10.123   1.559  2.2901 -0.7303  2.7411
   49MOL0     H 6448   1.802   9.946   1.654  1.7923  0.5968 -1.1441
   49MOL0     H 6449   1.876  10.033   1.522  1.4444 -2.7315  0.0712
   49MOL0     H 6450   1.035   9.292   1.329  0.1763  3.1245  2.8891
   49MOL0     H 6451   1.086   9.046   1.294  1.2764  0.4455 -0.2454
   49MOL0     H 6452   1.373   8.705   1.535 -0.8310 -0.7075 -0.0803
   49MOL0     H 6453   1.471   8.489   1.530  0.1378  0.1009  1.2403
   49MOL0     H 6454   1.858   6.407   1.032  1.9814 -0.6809  0.1072
   49MOL0     H 6455   1.910   6.308   0.822 -0.0507  1.2247 -0.3347
   49MOL0     H 6456   2.150   6.489   0.314 -2.4904  2.6238  0.3349
   49MOL0     H 6457   2.178   6.396   0.083  0.2710 -1.3431  0.2202
   49MOL0     H 6458   2.017   5.999   0.044  0.1037 -0.2479 -0.4902
   49MOL0     H 6459   2.047   6.028  -0.123  3.4628  4.5147 -0.5586
   49MOL0     H 6460   1.750   6.080  -0.038 -2.0629 -0.4484 -1.1438
   49MOL0     H 6461   1.831   6.139  -0.174 -0.4687 -0.4074 -0.5791
   49MOL0     H 6462   1.891   5.918  -0.240  0.9141  1.9322  0.8636
   49MOL0     H 6463   1.715   5.916  -0.196  0.1807 -0.9339 -0.2461
   49MOL0     H 6464   1.824   5.702  -0.118  1.5117 -1.5187  1.6858
   49MOL0     H 6465   1.966   5.787  -0.061 -0.5874  0.3237  3.7976
   49MOL0     H 6466   1.680   5.801   0.262 -2.2038 -1.8276 -2.1634
   49MOL0     H 6467   1.831   6.146   0.159  1.5787 -0.0296  0.5144
   49MOL0     H 6468   1.787   6.265   0.354  0.8696 -0.1806 -0.5470
   50MOL0     O 6469   0.820   9.159   4.558  0.7192  0.1074  0.7472
   50MOL0     C 6470   0.828   9.154   4.680 -0.2871  0.7292  0.9670
   50MOL0     O 6471   0.923   9.071   4.733  0.0316  0.1630 -0.1066
   50MOL0     C 6472   1.038   9.027   4.665  0.5428  1.1323  0.6420
   50MOL0     C 6473   1.098   9.109   4.568 -0.4180 -0.2396 -0.4182
   50MOL0     C 6474   1.226   9.084   4.518 -0.6056 -0.0326  0.2977
   50MOL0     C 6475   1.284   8.959   4.529 -0.1501 -0.5431  0.4119
   50MOL0     O 6476   1.406   8.942   4.464 -0.2034  0.4704  0.7734
   50MOL0     C 6477   1.400   8.914   4.325  0.0186 -0.2347  0.5828
   50MOL0     C 6478   1.490   9.008   4.242 -0.0495  0.2177 -0.1938
   50MOL0     C 6479   1.453   9.162   4.245 -0.5377  0.0101 -0.2027
   50MOL0     C 6480   1.560   9.252   4.179  0.7220 -0.5579 -0.4514
   50MOL0     C 6481   1.574   9.208   4.038  0.1702  0.8465 -0.7545
   50MOL0     C 6482   1.633   9.302   3.934  0.2693 -1.0643 -0.3849
   50MOL0     C 6483   1.792   9.308   3.962 -0.1812  0.9702 -1.1880
   50MOL0     C 6484   1.869   9.414   3.877  0.4421 -0.1543  0.3091
   50MOL0     N 6485   1.902   9.337   3.750 -0.4033  0.7872 -0.0681
   50MOL0     C 6486   2.029   9.288   3.723  0.5612  0.5413  0.0053
   50MOL0     C 6487   2.025   9.237   3.598 -0.1615 -0.0264  0.0478
   50MOL0     C 6488   2.128   9.137   3.539 -0.3751  0.8694  0.3327
   50MOL0     C 6489   2.185   9.155   3.404 -1.0915  0.0030  0.3161
   50MOL0     C 6490   2.247   9.286   3.361 -1.0241 -0.8734 -0.4622
   50MOL0     C 6491   2.137   9.358   3.284  0.4424  0.5765  0.6265
   50MOL0     O 6492   2.190   9.461   3.206 -0.9055 -0.2072  0.8625
   50MOL0     C 6493   2.231   9.421   3.078  0.1434  0.0618 -0.9127
   50MOL0     C 6494   2.256   9.525   2.987 -0.1319  0.3849 -0.3822
   50MOL0     C 6495   2.276   9.495   2.853  0.5240 -0.1004 -0.4446
   50MOL0     C 6496   2.286   9.367   2.804  0.0566  0.5931 -0.0039
   50MOL0     C 6497   2.320   9.352   2.663 -0.0069 -0.2023  0.9567
   50MOL0     O 6498   2.238   9.424   2.575  0.1305 -0.2312 -0.7408
   50MOL0     C 6499   2.196   9.373   2.457 -0.4562 -0.0389  0.3144
   50MOL0     C 6500   2.161   9.463   2.356 -0.8046  0.1996  0.1350
   50MOL0     C 6501   2.107   9.429   2.237  0.2646  0.0244  0.5263
   50MOL0     C 6502   2.104   9.293   2.209  0.1806  0.2120  0.9476
   50MOL0     O 6503   2.065   9.268   2.080 -0.0188 -0.0759 -0.0895
   50MOL0     C 6504   2.130   9.149   2.025 -0.1493  1.2466 -0.3959
   50MOL0     C 6505   2.177   9.171   1.885 -0.2656  0.2043  0.4530
   50MOL0     C 6506   2.244   9.045   1.823 -0.9405  0.1669  0.0709
   50MOL0     C 6507   2.372   9.017   1.890 -0.1180  0.3012  0.3678
   50MOL0     C 6508   2.411   8.869   1.890  0.6130 -0.0519  0.9211
   50MOL0     C 6509   2.395   8.788   1.760  0.8218 -0.3080 -0.0860
   50MOL0     C 6510   2.454   8.647   1.777  1.0583  0.9587  0.4412
   50MOL0     C 6511   2.382   8.559   1.870  0.1170 -0.5705  0.0716
   50MOL0    Cl 6512   2.432   8.387   1.859 -0.2839  0.0095  0.4594
   50MOL0     C 6513   2.121   9.201   2.307  0.6158 -0.4129 -0.3990
   50MOL0     C 6514   2.171   9.238   2.430  0.4927  0.9286  0.0807
   50MOL0     O 6515   2.398   9.268   2.623  0.4116 -1.2565  0.1988
   50MOL0     C 6516   2.275   9.266   2.896  0.1817  0.2155 -1.3459
   50MOL0     C 6517   2.266   9.292   3.035  0.3648  0.5385  0.2210
   50MOL0     N 6518   1.894   9.260   3.551  1.0355 -0.1392 -0.4164
   50MOL0     N 6519   1.827   9.332   3.641  0.1184  0.6741  1.2741
   50MOL0     C 6520   1.225   8.875   4.625  0.0921  0.4439 -0.6072
   50MOL0     C 6521   1.106   8.908   4.691 -0.3549 -0.2295  0.1083
   50MOL0     C 6522   0.741   9.235   4.773  0.8936  0.4426 -0.5597
   50MOL0     C 6523   0.636   9.313   4.727  0.5099  0.1877 -0.2575
   50MOL0     C 6524   0.534   9.360   4.816  0.0059  0.6976  0.7354
   50MOL0     C 6525   0.541   9.327   4.951 -1.0652  0.3996  0.1789
   50MOL0     O 6526   0.445   9.386   5.032 -0.3438 -0.3509 -0.7850
   50MOL0     C 6527   0.311   9.402   4.984  0.8943 -0.0833  1.5990
   50MOL0     C 6528   0.241   9.266   4.935  0.2468  0.7162 -0.4492
   50MOL0     C 6529   0.191   9.175   5.043  0.7325 -0.2156  0.1439
   50MOL0     C 6530   0.098   9.058   4.992  0.4840  0.3143  0.1960
   50MOL0     C 6531   0.086   8.949   5.090 -0.0016  0.2449  0.6713
   50MOL0     C 6532   0.073   8.854   5.162 -0.4111  0.7034  0.1613
   50MOL0     C 6533   0.648   9.248   4.998  0.4102  0.7237 -0.2279
   50MOL0     C 6534   0.745   9.197   4.910  0.0056 -0.1819 -1.2471
   50MOL0     H 6535   1.042   9.195   4.532  2.5675  1.9736 -0.2344
   50MOL0     H 6536   1.265   9.160   4.452  0.1233  0.4983  1.3190
   50MOL0     H 6537   1.298   8.907   4.286 -1.1310  1.6022  3.0139
   50MOL0     H 6538   1.445   8.814   4.318 -0.9553 -0.5766 -1.8357
   50MOL0     H 6539   1.464   8.976   4.141  0.2018 -0.5529 -0.0226
   50MOL0     H 6540   1.592   8.994   4.279 -0.8238 -1.6408  1.4393
   50MOL0     H 6541   1.441   9.189   4.350 -1.7756 -0.1916 -0.2800
   50MOL0     H 6542   1.359   9.173   4.191 -0.5469  0.3766 -0.1155
   50MOL0     H 6543   1.523   9.355   4.191  0.0534 -0.9124  0.5775
   50MOL0     H 6544   1.661   9.246   4.222  1.0183  0.2011 -1.0070
   50MOL0     H 6545   1.475   9.193   3.996 -0.0695 -1.4741  0.4477
   50MOL0     H 6546   1.617   9.108   4.022  1.1838  1.6777 -3.8073
   50MOL0     H 6547   1.599   9.406   3.931 -2.0243 -1.7829 -2.9916
   50MOL0     H 6548   1.606   9.273   3.832 -4.3127 -1.9930  0.8831
   50MOL0     H 6549   1.807   9.334   4.067 -3.9658  0.3926 -0.3660
   50MOL0     H 6550   1.826   9.205   3.947 -2.8057 -0.1441 -0.0470
   50MOL0     H 6551   1.960   9.437   3.934 -0.9776  0.6022  2.4164
   50MOL0     H 6552   1.815   9.506   3.851  0.8972 -0.2918 -1.2204
   50MOL0     H 6553   2.100   9.247   3.793 -2.9072 -2.2864  2.2543
   50MOL0     H 6554   2.081   9.038   3.540 -0.3422  0.8112 -1.5213
   50MOL0     H 6555   2.212   9.144   3.608  1.1070 -0.5117 -1.2542
   50MOL0     H 6556   2.101   9.133   3.338 -0.7464  2.3389 -1.0194
   50MOL0     H 6557   2.258   9.078   3.377  0.4488  1.7379 -0.7616
   50MOL0     H 6558   2.280   9.338   3.452  1.1075 -3.0789  0.1247
   50MOL0     H 6559   2.336   9.272   3.300  0.7668 -1.2764  2.1143
   50MOL0     H 6560   2.061   9.394   3.353 -1.1375  2.8346 -2.1088
   50MOL0     H 6561   2.078   9.287   3.225 -0.4441 -0.1793  2.3483
   50MOL0     H 6562   2.230   9.622   3.029  0.6553  0.1595  0.6752
   50MOL0     H 6563   2.273   9.573   2.778  2.5926 -1.2386 -1.7882
   50MOL0     H 6564   2.169   9.572   2.362 -2.8545  0.4938 -1.4048
   50MOL0     H 6565   2.081   9.506   2.166  3.1114  0.3602 -0.2444
   50MOL0     H 6566   2.061   9.066   2.042  0.4922  0.7429 -0.2191
   50MOL0     H 6567   2.215   9.119   2.087 -1.3440 -0.8855  0.3269
   50MOL0     H 6568   2.244   9.254   1.864  0.1211 -0.2189 -0.0263
   50MOL0     H 6569   2.084   9.190   1.830  0.4874  4.3742  0.3395
   50MOL0     H 6570   2.263   9.077   1.720 -0.8820  0.7200  0.2489
   50MOL0     H 6571   2.170   8.965   1.835  0.3468 -1.4358 -1.9553
   50MOL0     H 6572   2.444   9.074   1.832 -0.8643  1.6145  0.6980
   50MOL0     H 6573   2.388   9.054   1.991  1.4839 -0.3628  0.3893
   50MOL0     H 6574   2.340   8.829   1.963  2.9403 -4.4427  1.1150
   50MOL0     H 6575   2.508   8.849   1.939 -0.1087 -0.4811  2.2315
   50MOL0     H 6576   2.443   8.850   1.683 -0.7858  1.2970  0.1456
   50MOL0     H 6577   2.288   8.790   1.740  0.7325  0.4693  0.4007
   50MOL0     H 6578   2.456   8.605   1.676 -2.8213  0.5669  0.3732
   50MOL0     H 6579   2.558   8.654   1.811  1.4800 -1.1806 -0.2745
   50MOL0     H 6580   2.276   8.555   1.843 -0.0189  1.1392  0.2388
   50MOL0     H 6581   2.390   8.593   1.974 -3.4187 -0.3330  0.3954
   50MOL0     H 6582   2.106   9.097   2.278  1.3015 -0.8545  0.7347
   50MOL0     H 6583   2.198   9.157   2.497  1.8063  2.3988  1.4232
   50MOL0     H 6584   2.294   9.165   2.863  2.8458  0.6431 -1.3381
   50MOL0     H 6585   2.276   9.197   3.088  0.6565  0.0447 -0.6983
   50MOL0     H 6586   1.274   8.785   4.659  0.1097  1.1804  1.4012
   50MOL0     H 6587   1.069   8.843   4.770  0.4977  1.1755  1.7439
   50MOL0     H 6588   0.620   9.315   4.619 -4.4521 -0.6197  0.2606
   50MOL0     H 6589   0.454   9.416   4.766 -3.3002 -1.6615  2.9563
   50MOL0     H 6590   0.292   9.467   4.898 -1.6605 -0.4500  1.7991
   50MOL0     H 6591   0.252   9.438   5.069 -2.1796 -4.2772  1.5381
   50MOL0     H 6592   0.156   9.294   4.872 -0.2741 -0.7495 -0.4503
   50MOL0     H 6593   0.315   9.219   4.870 -1.5387 -0.6843 -1.5729
   50MOL0     H 6594   0.146   9.227   5.128  3.5542  0.3955  1.4026
   50MOL0     H 6595   0.281   9.129   5.086  0.9640 -0.6979 -0.8242
   50MOL0     H 6596  -0.004   9.096   4.977 -0.2655 -1.6794 -0.1439
   50MOL0     H 6597   0.138   9.016   4.900 -0.3486 -0.0858  0.0000
   50MOL0     H 6598   0.037   8.786   5.236  1.9900 -0.3732  0.4293
   50MOL0     H 6599   0.636   9.212   5.100  0.4462  0.1816 -0.4144
   50MOL0     H 6600   0.812   9.117   4.940  1.8522  2.7839  3.6703
   51MOL0     O 6601   9.564   2.906   2.036  0.6398  1.0221  0.3340
   51MOL0     C 6602   9.503   2.833   1.949  0.2046 -0.2480 -1.5418
   51MOL0     O 6603   9.536   2.817   1.821 -0.3320 -0.4358  0.7977
   51MOL0     C 6604   9.643   2.878   1.771  0.5721  0.8587  0.2891
   51MOL0     C 6605   9.767   2.834   1.824  0.3233 -0.7550  0.3267
   51MOL0     C 6606   9.885   2.897   1.772  0.4721  0.7472 -0.3049
   51MOL0     C 6607   9.882   3.001   1.681 -0.2424 -0.4049 -0.6724
   51MOL0     O 6608   9.989   3.083   1.640 -0.3703 -0.0455  0.1071
   51MOL0     C 6609  10.070   3.034   1.526  0.3533  0.0775 -0.2115
   51MOL0     C 6610  10.181   3.140   1.491 -0.1261 -0.6731  0.8594
   51MOL0     C 6611  10.119   3.264   1.413 -0.8632 -0.6497  0.6452
   51MOL0     C 6612  10.072   3.377   1.511 -0.8781 -0.0364 -1.3093
   51MOL0     C 6613  10.023   3.508   1.441  0.4091  0.3129 -0.4285
   51MOL0     C 6614  10.123   3.610   1.403  0.1228 -0.6417  0.5770
   51MOL0     C 6615  10.037   3.733   1.349 -1.6943  0.1343  0.1799
   51MOL0     C 6616  10.128   3.839   1.270  0.1303  0.5309  1.1691
   51MOL0     N 6617  10.257   3.858   1.338  0.2065  1.1247  0.4866
   51MOL0     C 6618  10.384   3.820   1.292  0.1276 -0.4563  0.3894
   51MOL0     C 6619  10.461   3.845   1.398 -0.4281  0.1057  0.2159
   51MOL0     C 6620  10.610   3.812   1.425 -1.1282  0.0737  0.3093
   51MOL0     C 6621  10.699   3.816   1.302  0.1055 -0.1233  0.6590
   51MOL0     C 6622  10.707   3.962   1.257 -0.3192  0.4398  0.4427
   51MOL0     C 6623  10.829   3.999   1.170  0.3128  0.4512  0.1072
   51MOL0     O 6624  10.955   3.981   1.245  0.3209 -0.2206  0.4596
   51MOL0     C 6625  11.071   3.971   1.176  0.1189  0.3284 -0.3789
   51MOL0     C 6626  11.180   4.043   1.224 -1.6229 -0.1317 -0.5910
   51MOL0     C 6627  11.310   4.032   1.157  0.6539 -0.8260  0.1686
   51MOL0     C 6628  11.319   3.957   1.042 -0.5693 -0.2424  0.0818
   51MOL0     C 6629  11.456   3.921   0.996 -1.0824 -0.3831 -1.1934
   51MOL0     O 6630  11.483   3.858   0.883 -0.2547  0.9082 -0.0988
   51MOL0     C 6631  11.613   3.825   0.849  0.0453  0.1325 -0.3396
   51MOL0     C 6632  11.654   3.846   0.720 -0.0097 -0.0272 -0.1989
   51MOL0     C 6633  11.785   3.818   0.679 -0.8402  0.8948 -0.8949
   51MOL0     C 6634  11.874   3.771   0.776  0.4278  0.1007  0.5572
   51MOL0     O 6635  11.999   3.745   0.749 -0.3096  0.3150 -0.4909
   51MOL0     C 6636  12.069   3.863   0.708  0.0252  0.8224  0.1082
   51MOL0     C 6637  12.093   3.962   0.818 -0.5980  0.3146 -0.0045
   51MOL0     C 6638  12.115   4.110   0.767  0.0810 -0.3981  0.7594
   51MOL0     C 6639  12.132   4.219   0.876  0.0721  0.1844 -0.4559
   51MOL0     C 6640  12.008   4.250   0.951  0.5623 -0.3672 -0.0666
   51MOL0     C 6641  12.025   4.387   1.016 -0.7820 -0.9720  0.6399
   51MOL0     C 6642  11.897   4.430   1.080 -1.2508  0.8749  0.3892
   51MOL0     C 6643  11.772   4.429   0.994  0.1385  0.4030 -0.5608
   51MOL0    Cl 6644  11.664   4.559   1.059  0.4876  0.1543  0.0589
   51MOL0     C 6645  11.837   3.749   0.901 -0.2179 -0.5158 -0.7376
   51MOL0     C 6646  11.702   3.767   0.939 -0.1990  0.1209  0.1772
   51MOL0     O 6647  11.540   3.951   1.083  0.3148 -0.0618  0.3412
   51MOL0     C 6648  11.202   3.890   0.984 -0.1862 -0.8600 -0.6503
   51MOL0     C 6649  11.079   3.901   1.057 -0.7417  1.2137  0.5394
   51MOL0     N 6650  10.399   3.903   1.499  0.9318 -0.1212  0.5822
   51MOL0     N 6651  10.277   3.926   1.459  0.8697 -0.1935 -0.1219
   51MOL0     C 6652   9.762   3.049   1.633  0.4107  0.7574  0.4885
   51MOL0     C 6653   9.641   2.980   1.672  0.6771  0.4840 -0.7694
   51MOL0     C 6654   9.389   2.765   2.004 -0.2944 -0.0728  0.5794
   51MOL0     C 6655   9.281   2.719   1.925 -0.3803  0.5986 -0.6358
   51MOL0     C 6656   9.160   2.673   1.972  0.6404 -0.9785  0.2002
   51MOL0     C 6657   9.150   2.651   2.103  0.1523  0.5963  0.7686
   51MOL0     O 6658   9.033   2.596   2.151 -0.1541 -0.5717 -0.7282
   51MOL0     C 6659   9.031   2.547   2.289 -0.1669  0.2824 -0.3251
   51MOL0     C 6660   8.907   2.463   2.311  1.0102  0.0771  0.3092
   51MOL0     C 6661   8.908   2.335   2.236  0.4142 -1.0256 -0.1775
   51MOL0     C 6662   8.781   2.320   2.146  0.5954 -0.0820  0.1678
   51MOL0     C 6663   8.660   2.277   2.211 -0.3793 -0.3270  0.4303
   51MOL0     C 6664   8.564   2.247   2.280 -0.6118  1.0196  1.3330
   51MOL0     C 6665   9.266   2.678   2.192  0.5558 -0.6451  0.7208
   51MOL0     C 6666   9.382   2.742   2.146 -0.7249 -0.5999 -0.1338
   51MOL0     H 6667   9.784   2.744   1.882 -0.3696 -0.5078  0.9141
   51MOL0     H 6668   9.975   2.867   1.825  0.2067  0.4461 -0.0184
   51MOL0     H 6669  10.003   3.021   1.441  1.1066  2.2273 -1.1932
   51MOL0     H 6670  10.115   2.939   1.558 -3.1271 -1.3171  1.0536
   51MOL0     H 6671  10.250   3.078   1.433 -1.2010  0.7247 -2.1491
   51MOL0     H 6672  10.244   3.167   1.576  2.0639 -2.9942  0.1000
   51MOL0     H 6673  10.031   3.231   1.357 -3.3616 -0.6952  4.3049
   51MOL0     H 6674  10.193   3.298   1.339  1.0337 -0.0011  2.7453
   51MOL0     H 6675   9.988   3.336   1.567 -0.7382  0.1924 -0.9177
   51MOL0     H 6676  10.151   3.397   1.585 -0.7751 -0.5131 -1.2854
   51MOL0     H 6677   9.968   3.557   1.521  1.1808  2.2245 -1.0050
   51MOL0     H 6678   9.957   3.477   1.360  0.1257 -3.2371  1.0105
   51MOL0     H 6679  10.193   3.572   1.327  2.8419 -0.8245  3.0198
   51MOL0     H 6680  10.195   3.627   1.483 -0.7620  1.4864  0.9789
   51MOL0     H 6681   9.956   3.693   1.287 -2.2465 -1.0118  1.5713
   51MOL0     H 6682   9.991   3.779   1.436 -6.3223 -3.1180 -0.1808
   51MOL0     H 6683  10.069   3.931   1.269 -1.3520 -0.2493 -2.9637
   51MOL0     H 6684  10.143   3.815   1.164 -1.7040  0.6217  0.8579
   51MOL0     H 6685  10.422   3.780   1.198  3.3833  0.8740  1.0211
   51MOL0     H 6686  10.626   3.706   1.449  2.5885 -0.0901 -2.0151
   51MOL0     H 6687  10.648   3.867   1.511 -1.1012  2.8538 -1.3547
   51MOL0     H 6688  10.658   3.752   1.223  2.5561  0.1680 -0.9447
   51MOL0     H 6689  10.801   3.776   1.312 -0.1703 -1.3069 -0.9223
   51MOL0     H 6690  10.611   3.979   1.207 -0.4987  0.0072  0.6381
   51MOL0     H 6691  10.714   4.031   1.341 -0.7333 -0.4260  1.2026
   51MOL0     H 6692  10.819   4.107   1.152  2.7312  0.6669 -0.1848
   51MOL0     H 6693  10.825   3.941   1.078 -0.1732 -0.6848  0.8166
   51MOL0     H 6694  11.173   4.110   1.309  1.0380 -2.3800  1.5624
   51MOL0     H 6695  11.385   4.086   1.214  1.4100 -4.1606  2.6230
   51MOL0     H 6696  11.576   3.871   0.648  0.8262  0.9418 -0.7878
   51MOL0     H 6697  11.810   3.825   0.573 -0.4107 -0.6975 -0.9220
   51MOL0     H 6698  12.017   3.916   0.628  1.6729 -1.4879 -2.6989
   51MOL0     H 6699  12.166   3.835   0.665  0.1073 -1.3248  1.5446
   51MOL0     H 6700  12.183   3.923   0.867  1.7297  1.0035 -3.3948
   51MOL0     H 6701  12.005   3.967   0.883  0.1125  0.2988  0.9752
   51MOL0     H 6702  12.019   4.128   0.717  0.6935  2.5631  0.4813
   51MOL0     H 6703  12.198   4.137   0.701  0.0738  1.7255  1.5515
   51MOL0     H 6704  12.212   4.195   0.947  0.3251 -0.1293 -0.8414
   51MOL0     H 6705  12.179   4.306   0.830  1.1813  0.2931  0.7990
   51MOL0     H 6706  11.999   4.166   1.021  4.3813 -3.2661 -2.5913
   51MOL0     H 6707  11.924   4.247   0.881  1.8209  3.5176 -2.0115
   51MOL0     H 6708  12.059   4.466   0.949 -1.9144  1.1869  2.4374
   51MOL0     H 6709  12.107   4.387   1.089  1.0658 -1.5303 -1.3412
   51MOL0     H 6710  11.885   4.363   1.165  4.0495 -2.5840 -1.1149
   51MOL0     H 6711  11.934   4.521   1.128  1.4942 -0.6771  1.3653
   51MOL0     H 6712  11.729   4.328   0.993 -0.1899  0.4975 -3.3135
   51MOL0     H 6713  11.802   4.452   0.891  3.4133 -2.0374 -0.3041
   51MOL0     H 6714  11.906   3.720   0.980  0.6020 -1.7866 -1.8631
   51MOL0     H 6715  11.670   3.751   1.041 -2.2140  0.7547 -0.3105
   51MOL0     H 6716  11.204   3.827   0.895 -1.0981  1.7480 -2.6589
   51MOL0     H 6717  10.997   3.854   1.004 -0.2042  0.6413  0.1950
   51MOL0     H 6718   9.761   3.136   1.569  0.8448  2.0668  2.1927
   51MOL0     H 6719   9.541   3.009   1.640 -1.0367 -2.1038  1.6816
   51MOL0     H 6720   9.284   2.738   1.818  1.5397  0.7209 -0.5805
   51MOL0     H 6721   9.072   2.653   1.911  0.0493 -0.4036  0.8436
   51MOL0     H 6722   9.039   2.627   2.364 -0.6581 -0.1432  0.1897
   51MOL0     H 6723   9.122   2.490   2.309  0.3815  1.5462  0.9215
   51MOL0     H 6724   8.908   2.434   2.417 -1.5316  0.4211  0.4857
   51MOL0     H 6725   8.818   2.518   2.280  1.3127  0.7128  0.5591
   51MOL0     H 6726   8.935   2.252   2.302 -2.1628 -0.4000  1.8068
   51MOL0     H 6727   8.995   2.352   2.172 -0.6050  0.7411 -1.1882
   51MOL0     H 6728   8.747   2.411   2.097 -2.3792 -1.5319 -0.6841
   51MOL0     H 6729   8.807   2.242   2.074  0.9760  1.6680 -1.6600
   51MOL0     H 6730   8.472   2.247   2.334 -2.1723  0.3598 -1.1603
   51MOL0     H 6731   9.251   2.659   2.297  1.6147 -0.4883  0.9180
   51MOL0     H 6732   9.463   2.776   2.210 -1.4040  2.7661 -0.9007
   52MOL0     O 6733   5.713   3.762  10.511  0.3493  0.1110  0.4390
   52MOL0     C 6734   5.607   3.821  10.508 -0.2436 -0.3966  0.3722
   52MOL0     O 6735   5.550   3.876  10.620  0.1967 -0.2531  0.2370
   52MOL0     C 6736   5.618   3.863  10.741  0.5013 -0.2334  0.5484
   52MOL0     C 6737   5.644   3.972  10.825  0.8387 -0.2672  1.2061
   52MOL0     C 6738   5.698   3.960  10.952 -0.0405 -0.3534 -0.3227
   52MOL0     C 6739   5.736   3.834  11.000 -0.2367  0.1303  0.2988
   52MOL0     O 6740   5.802   3.818  11.122 -0.4408 -0.3425  0.3715
   52MOL0     C 6741   5.827   3.929  11.210 -1.1189 -0.2754  0.0011
   52MOL0     C 6742   5.877   3.861  11.338 -0.7307  0.4788 -0.3189
   52MOL0     C 6743   5.974   3.941  11.418  0.2498 -0.4193 -0.9306
   52MOL0     C 6744   6.020   3.852  11.540 -0.2404 -0.5673  0.6204
   52MOL0     C 6745   6.156   3.908  11.598 -0.9206 -0.3441  0.5719
   52MOL0     C 6746   6.194   3.835  11.725  0.2148 -0.9455 -0.2878
   52MOL0     C 6747   6.332   3.886  11.784  1.6960  0.5651  0.3046
   52MOL0     C 6748   6.374   3.817  11.919 -0.2583 -0.8157 -0.7647
   52MOL0     N 6749   6.507   3.864  11.952  0.2341 -0.1668  0.4382
   52MOL0     C 6750   6.546   3.984  12.010 -0.0134  0.2115 -1.1617
   52MOL0     C 6751   6.677   3.972  12.055 -0.3468  0.5780  0.9098
   52MOL0     C 6752   6.760   4.086  12.105  0.1596  0.2853  0.0880
   52MOL0     C 6753   6.889   4.103  12.026  0.4676  0.4729  0.0529
   52MOL0     C 6754   6.867   4.122  11.874 -0.0799 -0.7692  0.1494
   52MOL0     C 6755   6.808   4.261  11.840 -0.2402  0.1850 -0.5966
   52MOL0     O 6756   6.810   4.296  11.704  0.7470 -0.4503  0.1469
   52MOL0     C 6757   6.694   4.267  11.640  0.1436  0.3242  0.2474
   52MOL0     C 6758   6.613   4.159  11.657 -0.3551  0.7191 -0.7582
   52MOL0     C 6759   6.502   4.136  11.570 -0.0659 -0.6541  0.6882
   52MOL0     C 6760   6.473   4.231  11.462 -0.1470 -0.3622 -0.4729
   52MOL0     C 6761   6.370   4.209  11.365  0.0728  0.0094  0.1540
   52MOL0     O 6762   6.361   4.305  11.271 -0.2050 -0.2729 -0.0661
   52MOL0     C 6763   6.279   4.298  11.162 -0.7047  0.4101 -0.2446
   52MOL0     C 6764   6.152   4.228  11.155 -0.7503  1.2565 -1.0216
   52MOL0     C 6765   6.078   4.236  11.039  1.0523  0.0231  0.5068
   52MOL0     C 6766   6.126   4.292  10.921  0.2968 -0.2216 -1.6923
   52MOL0     O 6767   6.049   4.284  10.811 -0.7654 -0.1116  0.0020
   52MOL0     C 6768   6.104   4.314  10.681 -0.2938  0.8853 -0.5756
   52MOL0     C 6769   5.984   4.317  10.580  0.6703  0.6888 -0.5285
   52MOL0     C 6770   6.018   4.422  10.474  0.2315  0.9687 -0.4328
   52MOL0     C 6771   6.154   4.403  10.395 -0.0312  0.1940 -0.5726
   52MOL0     C 6772   6.178   4.530  10.320  0.6229 -1.0922  1.8124
   52MOL0     C 6773   6.306   4.520  10.232 -0.6997  0.5430 -0.2863
   52MOL0     C 6774   6.350   4.640  10.142 -0.2148 -0.7698  0.2156
   52MOL0     C 6775   6.279   4.648  10.010 -0.3081 -0.4049  0.4319
   52MOL0    Cl 6776   6.362   4.748   9.898 -0.0019  0.2461  0.3168
   52MOL0     C 6777   6.244   4.357  10.926  0.9624  0.1729 -0.2429
   52MOL0     C 6778   6.326   4.359  11.049  0.4743  0.0726  0.5294
   52MOL0     O 6779   6.298   4.106  11.373  0.2943  0.6024 -0.7753
   52MOL0     C 6780   6.573   4.328  11.444  0.1898  0.0169  0.8875
   52MOL0     C 6781   6.675   4.353  11.532  0.7862  0.1140 -0.3298
   52MOL0     N 6782   6.713   3.840  12.002  0.5628 -0.1306  0.5052
   52MOL0     N 6783   6.611   3.787  11.948 -0.4472  0.8887 -0.7630
   52MOL0     C 6784   5.715   3.720  10.922 -0.4159 -0.7953 -0.1379
   52MOL0     C 6785   5.648   3.729  10.795 -0.6515 -0.8552 -0.3015
   52MOL0     C 6786   5.537   3.838  10.378 -0.1943  0.3096 -0.6154
   52MOL0     C 6787   5.591   3.778  10.265 -0.5348  0.1226  1.0063
   52MOL0     C 6788   5.546   3.799  10.134 -0.0289 -0.0656  0.4048
   52MOL0     C 6789   5.442   3.878  10.103 -0.7160 -0.1298 -0.7145
   52MOL0     O 6790   5.410   3.893   9.976 -0.2559  0.1007  0.5273
   52MOL0     C 6791   5.409   4.032   9.936 -0.9875 -0.0868  0.3980
   52MOL0     C 6792   5.346   4.037   9.803  0.0114  0.0082  0.3331
   52MOL0     C 6793   5.326   4.179   9.738 -0.0679  0.0001 -0.1432
   52MOL0     C 6794   5.208   4.264   9.795  0.1425  0.2513  0.8062
   52MOL0     C 6795   5.165   4.376   9.721  0.4328 -0.1806  0.3088
   52MOL0     C 6796   5.133   4.469   9.663  0.9410  0.3433  0.8952
   52MOL0     C 6797   5.374   3.934  10.218 -0.0497  0.4821  0.1998
   52MOL0     C 6798   5.428   3.920  10.348  0.2958  0.2065  0.1836
   52MOL0     H 6799   5.605   4.067  10.790 -0.9051 -1.3809 -0.0476
   52MOL0     H 6800   5.701   4.044  11.021 -0.1422 -1.3693  0.9488
   52MOL0     H 6801   5.729   3.978  11.218 -0.3217  1.5440 -0.7918
   52MOL0     H 6802   5.909   3.991  11.172 -0.3037 -1.5210 -0.3403
   52MOL0     H 6803   5.919   3.766  11.302 -0.0093  1.0086 -0.8996
   52MOL0     H 6804   5.787   3.832  11.393  0.3908  3.2412  3.3989
   52MOL0     H 6805   5.910   4.025  11.448 -1.2787 -2.2325  1.2912
   52MOL0     H 6806   6.057   3.977  11.357  1.3576 -1.9964 -0.4334
   52MOL0     H 6807   5.948   3.838  11.621  0.3368  0.7885  1.4056
   52MOL0     H 6808   6.051   3.754  11.503  0.8464  0.5481 -1.6225
   52MOL0     H 6809   6.152   4.016  11.613 -1.4437 -0.0962 -1.2083
   52MOL0     H 6810   6.238   3.899  11.527 -0.2219 -0.0120  1.3224
   52MOL0     H 6811   6.197   3.731  11.691 -1.7551 -0.6142 -1.6529
   52MOL0     H 6812   6.113   3.859  11.794  0.2635  3.3636 -1.4203
   52MOL0     H 6813   6.405   3.862  11.706  0.6388 -0.8649 -0.2826
   52MOL0     H 6814   6.338   3.995  11.787  0.2388  0.7761 -2.2386
   52MOL0     H 6815   6.397   3.710  11.913 -2.6534 -1.5646  1.5294
   52MOL0     H 6816   6.306   3.838  12.001  0.3346  0.3241 -0.5364
   52MOL0     H 6817   6.479   4.067  12.032 -0.4236 -0.8535  2.3263
   52MOL0     H 6818   6.794   4.062  12.206  1.2169 -0.3725 -0.4086
   52MOL0     H 6819   6.687   4.168  12.101  1.5664  1.5334 -1.2142
   52MOL0     H 6820   6.938   4.005  12.027 -0.7088 -0.1363 -0.7284
   52MOL0     H 6821   6.946   4.188  12.065 -0.6657  1.2192  0.1214
   52MOL0     H 6822   6.968   4.121  11.829  0.3095 -0.8692  1.0111
   52MOL0     H 6823   6.814   4.035  11.836  2.4110 -2.1826 -0.3628
   52MOL0     H 6824   6.877   4.334  11.884 -0.2768 -0.6391  0.9216
   52MOL0     H 6825   6.708   4.273  11.883 -0.3707  0.0083 -0.8567
   52MOL0     H 6826   6.636   4.077  11.725  0.6494  1.8814  0.3698
   52MOL0     H 6827   6.437   4.050  11.584  0.8942 -1.4269  0.5223
   52MOL0     H 6828   6.116   4.188  11.250  3.4628 -2.9195 -0.8449
   52MOL0     H 6829   5.981   4.189  11.025  1.3859 -0.4404 -0.4041
   52MOL0     H 6830   6.182   4.247  10.643  0.3636  1.4538 -0.2346
   52MOL0     H 6831   6.149   4.412  10.696 -1.2655  1.0991  1.1989
   52MOL0     H 6832   5.884   4.346  10.615  0.6369  2.7232 -2.1228
   52MOL0     H 6833   5.967   4.218  10.535 -1.1007  0.8218 -0.2340
   52MOL0     H 6834   6.037   4.517  10.525  3.2610 -0.5682  1.6382
   52MOL0     H 6835   5.931   4.440  10.411 -1.4774  1.2866  1.9192
   52MOL0     H 6836   6.241   4.378  10.456 -0.3772 -0.4682 -0.3247
   52MOL0     H 6837   6.122   4.320  10.331  0.8743  0.9518 -2.0367
   52MOL0     H 6838   6.187   4.610  10.395  0.4511 -1.5149  2.2871
   52MOL0     H 6839   6.094   4.547  10.252  0.3766 -0.2791  2.2915
   52MOL0     H 6840   6.306   4.433  10.166  4.1547 -0.7466  0.9927
   52MOL0     H 6841   6.377   4.511  10.314 -1.0104 -0.2473 -0.1021
   52MOL0     H 6842   6.344   4.729  10.205  1.8393 -0.8761  0.6288
   52MOL0     H 6843   6.458   4.627  10.133 -0.2131  0.2627 -1.6833
   52MOL0     H 6844   6.179   4.692  10.016 -0.4938 -0.9318  1.3962
   52MOL0     H 6845   6.279   4.548   9.966  1.3507 -0.2820  0.0670
   52MOL0     H 6846   6.290   4.421  10.851 -0.9858 -0.3247 -1.9535
   52MOL0     H 6847   6.428   4.395  11.041  1.5247 -2.9014 -1.4289
   52MOL0     H 6848   6.562   4.396  11.360  0.1617 -0.9968  0.0487
   52MOL0     H 6849   6.745   4.434  11.515  1.2682 -0.0431  0.7885
   52MOL0     H 6850   5.738   3.621  10.961 -2.0884 -0.9944  0.4578
   52MOL0     H 6851   5.605   3.640  10.750  2.4344 -2.3057 -0.5968
   52MOL0     H 6852   5.684   3.723  10.278  1.5810  3.2996  0.3289
   52MOL0     H 6853   5.608   3.753  10.058  1.0859 -0.2692  1.4139
   52MOL0     H 6854   5.509   4.076   9.930 -1.8764  2.2268  1.6439
   52MOL0     H 6855   5.345   4.092  10.001 -1.5041  1.0175 -1.0600
   52MOL0     H 6856   5.411   3.979   9.738 -0.1836 -1.1495  1.1442
   52MOL0     H 6857   5.246   3.992   9.803 -0.1807  0.2086 -2.4899
   52MOL0     H 6858   5.304   4.157   9.633  0.8116  0.3642 -0.4123
   52MOL0     H 6859   5.421   4.233   9.736 -0.5688  0.8956 -1.0754
   52MOL0     H 6860   5.126   4.192   9.808 -1.9732  2.1736 -1.1651
   52MOL0     H 6861   5.248   4.305   9.888  3.7114 -0.2996 -0.3390
   52MOL0     H 6862   5.089   4.550   9.607  0.9398  1.6780  2.7106
   52MOL0     H 6863   5.285   3.994  10.210  1.7241  3.8099  2.6837
   52MOL0     H 6864   5.392   3.981  10.431  1.3139  4.4160 -2.2212
   53MOL0     O 6865   0.889  10.945   6.725 -0.9497  0.3379  0.0437
   53MOL0     C 6866   0.853  11.047   6.672 -0.9060 -0.9400 -0.2313
   53MOL0     O 6867   0.865  11.072   6.544  0.7190 -0.4415  0.4316
   53MOL0     C 6868   0.913  10.988   6.447  0.1081 -0.5503  0.3528
   53MOL0     C 6869   0.877  11.023   6.320  0.8269 -0.5849  0.2910
   53MOL0     C 6870   0.935  10.949   6.211  0.1144 -0.7458  0.0164
   53MOL0     C 6871   1.017  10.839   6.236  0.2616  0.2061 -0.0640
   53MOL0     O 6872   1.069  10.774   6.128  0.1001  0.6578  0.1075
   53MOL0     C 6873   1.196  10.715   6.148 -0.3753  0.0137  1.4408
   53MOL0     C 6874   1.289  10.712   6.019  0.2323 -0.6860  0.2170
   53MOL0     C 6875   1.425  10.632   6.032  0.4384 -0.2123 -0.0837
   53MOL0     C 6876   1.480  10.585   5.894 -0.0889 -1.0396  0.1287
   53MOL0     C 6877   1.591  10.487   5.916  0.3065 -0.9304 -0.4271
   53MOL0     C 6878   1.659  10.463   5.773  0.7836 -0.7756  0.2320
   53MOL0     C 6879   1.728  10.324   5.773 -0.0405  0.2335 -0.3261
   53MOL0     C 6880   1.791  10.295   5.637 -0.6981 -0.1275  0.1956
   53MOL0     N 6881   1.937  10.326   5.621  0.2581  0.1076  0.2367
   53MOL0     C 6882   2.037  10.233   5.595 -0.5422 -0.3147 -0.2291
   53MOL0     C 6883   2.155  10.302   5.620 -0.6966 -0.5421  0.3223
   53MOL0     C 6884   2.284  10.230   5.613  0.8376  0.1141  0.3445
   53MOL0     C 6885   2.340  10.232   5.469  0.2223  0.1769 -0.5751
   53MOL0     C 6886   2.464  10.144   5.441 -0.9217 -0.3073  0.3250
   53MOL0     C 6887   2.417  10.007   5.403 -1.3054 -0.1750 -0.1711
   53MOL0     O 6888   2.538   9.939   5.371 -0.3156 -0.5032  0.7028
   53MOL0     C 6889   2.525   9.841   5.280 -1.0246  0.5974  0.6554
   53MOL0     C 6890   2.540   9.856   5.138 -0.0915 -0.6835 -0.4714
   53MOL0     C 6891   2.522   9.746   5.051  0.7040 -0.3628  1.0982
   53MOL0     C 6892   2.483   9.623   5.101 -0.9069 -0.1527  0.0043
   53MOL0     C 6893   2.478   9.493   5.015 -0.4271 -0.2877  0.1082
   53MOL0     O 6894   2.510   9.517   4.884  0.0485 -0.0768 -0.2315
   53MOL0     C 6895   2.503   9.418   4.792 -0.1149  1.0011  1.1378
   53MOL0     C 6896   2.578   9.297   4.807  0.4646 -0.4826  0.4575
   53MOL0     C 6897   2.598   9.210   4.697  0.5763 -0.0067  0.6970
   53MOL0     C 6898   2.532   9.229   4.578  0.5999 -0.0963  0.6483
   53MOL0     O 6899   2.511   9.133   4.485 -0.1277 -0.4447 -0.2250
   53MOL0     C 6900   2.602   9.024   4.481  0.5465 -0.1390 -0.0268
   53MOL0     C 6901   2.540   8.901   4.409  0.3433  0.1039 -0.0686
   53MOL0     C 6902   2.644   8.775   4.415 -0.1858 -1.2501  0.0233
   53MOL0     C 6903   2.619   8.657   4.304 -0.6946  0.0774  0.1897
   53MOL0     C 6904   2.478   8.603   4.285 -0.4315 -0.1015  0.4118
   53MOL0     C 6905   2.474   8.484   4.194 -0.3448 -0.7252  1.0690
   53MOL0     C 6906   2.335   8.455   4.137 -0.0921 -0.4053 -0.5624
   53MOL0     C 6907   2.307   8.317   4.097  1.0419 -0.1932 -0.2518
   53MOL0    Cl 6908   2.417   8.259   3.971 -0.0676 -0.2746  0.2424
   53MOL0     C 6909   2.452   9.343   4.563 -0.4305 -0.5564 -0.1456
   53MOL0     C 6910   2.451   9.450   4.660 -0.9722 -0.2194 -0.6315
   53MOL0     O 6911   2.428   9.389   5.062  0.3169 -0.1301  0.2849
   53MOL0     C 6912   2.474   9.603   5.237  0.4157 -0.2357  0.4496
   53MOL0     C 6913   2.488   9.712   5.325 -0.3870  0.8772  0.0526
   53MOL0     N 6914   2.121  10.433   5.649 -0.6524 -0.4240  0.0375
   53MOL0     N 6915   1.990  10.448   5.646 -0.2496  0.1201  0.1708
   53MOL0     C 6916   1.044  10.804   6.370  0.5601 -0.6222 -0.7274
   53MOL0     C 6917   0.990  10.874   6.470 -0.6428  0.4258  0.3823
   53MOL0     C 6918   0.807  11.154   6.760 -0.2312  0.0452  0.0643
   53MOL0     C 6919   0.767  11.130   6.895  0.1143 -0.7885  0.3145
   53MOL0     C 6920   0.715  11.235   6.973 -0.0209  0.6228 -0.3152
   53MOL0     C 6921   0.686  11.361   6.914 -0.4102 -0.3196  0.0344
   53MOL0     O 6922   0.646  11.469   6.980  0.4435  0.3684 -0.1740
   53MOL0     C 6923   0.594  11.461   7.108 -0.2330  0.7320  0.2862
   53MOL0     C 6924   0.711  11.529   7.190  0.2787 -0.3812 -0.6531
   53MOL0     C 6925   0.686  11.530   7.337 -1.0700  0.3054 -0.2704
   53MOL0     C 6926   0.778  11.632   7.405  0.3916  0.2541 -0.3422
   53MOL0     C 6927   0.708  11.764   7.441 -0.3330 -0.0474 -0.6066
   53MOL0     C 6928   0.672  11.876   7.483 -0.3845 -0.0828  0.1439
   53MOL0     C 6929   0.725  11.383   6.782  0.1563  0.1383 -0.4243
   53MOL0     C 6930   0.776  11.279   6.704  0.1195  0.0937 -0.8888
   53MOL0     H 6931   0.807  11.105   6.308  0.4764 -0.9082  0.1068
   53MOL0     H 6932   0.914  10.977   6.108 -0.5041  1.4819  0.6814
   53MOL0     H 6933   1.198  10.616   6.194  0.5847 -1.0367 -0.7112
   53MOL0     H 6934   1.244  10.772   6.227  0.2543  0.8525  0.4777
   53MOL0     H 6935   1.307  10.816   5.993  1.5635 -0.4802  1.7603
   53MOL0     H 6936   1.230  10.662   5.941 -1.3969  3.5826 -1.5427
   53MOL0     H 6937   1.418  10.551   6.105 -0.8627  1.2233  1.4488
   53MOL0     H 6938   1.497  10.703   6.072  1.2012  1.0115 -3.2820
   53MOL0     H 6939   1.403  10.532   5.836 -0.6960 -3.1143  2.6224
   53MOL0     H 6940   1.521  10.675   5.848  1.4092 -2.1103 -0.6805
   53MOL0     H 6941   1.551  10.400   5.968 -0.0211  0.1796  1.2340
   53MOL0     H 6942   1.672  10.527   5.977 -0.1848  1.3935 -1.2058
   53MOL0     H 6943   1.721  10.551   5.752  1.5982 -1.8603 -2.1670
   53MOL0     H 6944   1.587  10.441   5.694 -0.7264 -1.1103  1.6411
   53MOL0     H 6945   1.802  10.316   5.853 -0.7508 -1.2520  0.2175
   53MOL0     H 6946   1.653  10.251   5.806  0.8599  0.2480  1.9453
   53MOL0     H 6947   1.742  10.344   5.552 -0.0785 -0.6014 -0.4454
   53MOL0     H 6948   1.783  10.186   5.628  2.5911 -0.6112  1.7363
   53MOL0     H 6949   2.025  10.127   5.575  0.6208 -0.6793  0.8823
   53MOL0     H 6950   2.275  10.134   5.666 -1.6061  1.4589  2.5744
   53MOL0     H 6951   2.362  10.280   5.673  0.1748 -0.8411  2.0725
   53MOL0     H 6952   2.374  10.335   5.455 -1.0261  0.3619 -2.6100
   53MOL0     H 6953   2.262  10.213   5.395  0.7031 -3.2498 -0.3737
   53MOL0     H 6954   2.538  10.178   5.368  1.1254 -1.3560  1.8311
   53MOL0     H 6955   2.529  10.127   5.527  1.2106 -2.5010 -1.5454
   53MOL0     H 6956   2.354  10.029   5.316  1.3751 -2.8393 -3.1085
   53MOL0     H 6957   2.361   9.955   5.481  1.4013 -0.3298  1.8161
   53MOL0     H 6958   2.567   9.957   5.111  3.5850 -1.4488 -0.3204
   53MOL0     H 6959   2.528   9.753   4.943 -5.9564 -1.4832  0.1936
   53MOL0     H 6960   2.624   9.265   4.900  1.0420  0.9992  0.6992
   53MOL0     H 6961   2.663   9.131   4.735  1.3477  1.6681  3.0635
   53MOL0     H 6962   2.624   8.988   4.581 -5.1275 -0.0760  1.5759
   53MOL0     H 6963   2.696   9.052   4.433  0.5957 -0.6465 -0.2360
   53MOL0     H 6964   2.530   8.921   4.302  0.6101 -0.7605 -0.2668
   53MOL0     H 6965   2.447   8.874   4.460  0.7182  1.7189  1.5782
   53MOL0     H 6966   2.636   8.739   4.519  2.0330  2.1363  1.5408
   53MOL0     H 6967   2.746   8.808   4.394 -0.8222  0.2259 -0.8517
   53MOL0     H 6968   2.653   8.689   4.206 -0.3222 -0.4234  0.1550
   53MOL0     H 6969   2.688   8.578   4.335  0.6265  1.2260  0.2645
   53MOL0     H 6970   2.420   8.676   4.228 -0.2296  0.3465  0.7687
   53MOL0     H 6971   2.436   8.573   4.382  1.0614  3.9457  2.5331
   53MOL0     H 6972   2.501   8.397   4.255 -3.3742 -2.8425 -0.3917
   53MOL0     H 6973   2.532   8.502   4.103 -1.6033  1.4652  0.6409
   53MOL0     H 6974   2.265   8.475   4.218 -2.4983 -0.4410 -2.5344
   53MOL0     H 6975   2.315   8.528   4.058 -0.7503  0.9325  0.7995
   53MOL0     H 6976   2.205   8.305   4.059 -0.3789 -1.2951  3.3964
   53MOL0     H 6977   2.311   8.257   4.189 -0.7159  0.6092  0.3932
   53MOL0     H 6978   2.403   9.347   4.466 -0.5728  4.2192 -0.1155
   53MOL0     H 6979   2.404   9.547   4.652 -1.2799 -0.4949 -3.5554
   53MOL0     H 6980   2.440   9.506   5.270 -1.7304  0.2359 -0.2251
   53MOL0     H 6981   2.472   9.699   5.432  0.2622  2.3909  0.3650
   53MOL0     H 6982   1.110  10.720   6.390 -0.7781 -1.4586  0.3597
   53MOL0     H 6983   1.012  10.844   6.572 -1.6895  0.8067  0.7320
   53MOL0     H 6984   0.777  11.035   6.948 -0.4967 -1.1400 -0.1822
   53MOL0     H 6985   0.696  11.219   7.078 -4.2198 -0.1020 -1.0422
   53MOL0     H 6986   0.564  11.362   7.143  3.8469 -0.0474  2.2765
   53MOL0     H 6987   0.504  11.520   7.091 -0.9659  0.1046  1.8276
   53MOL0     H 6988   0.803  11.476   7.163  0.9545  0.2357  0.3670
   53MOL0     H 6989   0.718  11.633   7.157  2.1629 -0.4150 -0.4559
   53MOL0     H 6990   0.712  11.430   7.374 -0.3029 -0.3181 -2.3759
   53MOL0     H 6991   0.582  11.537   7.371 -1.4754 -2.6090 -0.5770
   53MOL0     H 6992   0.826  11.600   7.497  1.7078  1.2310 -0.6538
   53MOL0     H 6993   0.863  11.652   7.339 -2.6487 -0.1404 -4.8548
   53MOL0     H 6994   0.645  11.971   7.525 -5.0039  0.2409 -2.8938
   53MOL0     H 6995   0.716  11.480   6.734  0.6821  0.0807 -0.6461
   53MOL0     H 6996   0.780  11.292   6.597 -0.5664 -1.3336 -1.1162
   54MOL0     O 6997   0.269   0.003   6.950 -0.3995 -0.6698 -0.3495
   54MOL0     C 6998   0.323  -0.097   6.898 -0.2208 -0.2555  0.5257
   54MOL0     O 6999   0.350  -0.224   6.950 -0.3539 -1.0233 -0.6768
   54MOL0     C 7000   0.291  -0.254   7.070  0.5200  0.2453  0.4976
   54MOL0     C 7001   0.370  -0.341   7.149 -0.0136 -0.4941  0.3749
   54MOL0     C 7002   0.335  -0.370   7.281  0.1678  0.3319 -0.1478
   54MOL0     C 7003   0.213  -0.336   7.340 -0.4300 -0.0936  0.2332
   54MOL0     O 7004   0.174  -0.373   7.462  0.2761  0.1708  0.1425
   54MOL0     C 7005   0.249  -0.463   7.548  1.1215 -0.3372  0.9909
   54MOL0     C 7006   0.191  -0.463   7.691 -0.0844  1.0417  0.2916
   54MOL0     C 7007   0.043  -0.526   7.705  0.0400 -0.0002  0.1398
   54MOL0     C 7008   0.021  -0.558   7.852 -0.2422  0.6694 -0.6314
   54MOL0     C 7009  -0.074  -0.674   7.887  0.4105 -0.1392 -1.0412
   54MOL0     C 7010  -0.207  -0.646   7.816  0.3810 -0.2822  0.8014
   54MOL0     C 7011  -0.335  -0.728   7.862  0.6861 -0.4585 -0.7759
   54MOL0     C 7012  -0.342  -0.879   7.858 -0.3664  0.3569  0.4740
   54MOL0     N 7013  -0.345  -0.934   7.721  0.7304  0.0004 -0.3630
   54MOL0     C 7014  -0.465  -0.929   7.643 -0.6618 -0.2012 -1.0884
   54MOL0     C 7015  -0.423  -0.969   7.527 -0.3704  0.2398  0.1359
   54MOL0     C 7016  -0.513  -0.998   7.410  0.1709  0.3676  1.6106
   54MOL0     C 7017  -0.475  -0.915   7.292 -1.1301  0.1827 -0.2126
   54MOL0     C 7018  -0.539  -0.978   7.168  0.0930 -0.2314  0.1050
   54MOL0     C 7019  -0.447  -1.045   7.066  0.1076  0.2686  0.2614
   54MOL0     O 7020  -0.372  -0.938   6.995 -0.7952  0.5408  0.2382
   54MOL0     C 7021  -0.315  -0.972   6.875 -0.7796 -0.5907  0.4374
   54MOL0     C 7022  -0.208  -0.895   6.838 -0.3944  1.1105  0.5059
   54MOL0     C 7023  -0.115  -0.931   6.736  0.0203  0.5223 -0.0090
   54MOL0     C 7024  -0.142  -1.048   6.661 -0.1681  0.6436  0.4384
   54MOL0     C 7025  -0.052  -1.108   6.571 -0.4298 -0.2505  1.3581
   54MOL0     O 7026   0.061  -1.051   6.544 -0.9409 -0.3246 -0.2611
   54MOL0     C 7027   0.171  -1.105   6.481  0.4143  1.2503 -0.3984
   54MOL0     C 7028   0.146  -1.178   6.369 -0.6884 -0.2758  0.8244
   54MOL0     C 7029   0.253  -1.242   6.310  0.6638 -0.7180 -0.6126
   54MOL0     C 7030   0.381  -1.238   6.358  0.9059 -0.5295 -0.4452
   54MOL0     O 7031   0.471  -1.302   6.295 -0.3892  0.4688 -0.4377
   54MOL0     C 7032   0.576  -1.361   6.380 -0.6202  0.0877  0.0599
   54MOL0     C 7033   0.664  -1.455   6.300  0.4101 -0.0774 -0.4145
   54MOL0     C 7034   0.795  -1.475   6.370 -0.1505 -0.9176  0.5317
   54MOL0     C 7035   0.912  -1.529   6.286  0.8089  0.4429  0.6041
   54MOL0     C 7036   0.886  -1.677   6.236 -0.7763 -0.6224 -0.6668
   54MOL0     C 7037   0.948  -1.686   6.100  0.5943  1.1707  0.7004
   54MOL0     C 7038   0.942  -1.837   6.045  0.4108 -0.0045 -0.4060
   54MOL0     C 7039   0.937  -1.840   5.891 -0.1165 -0.0405  0.1997
   54MOL0    Cl 7040   1.078  -1.745   5.811  0.3922  0.2954  0.4245
   54MOL0     C 7041   0.398  -1.160   6.473 -0.3741 -0.2106  0.7777
   54MOL0     C 7042   0.298  -1.087   6.535  0.1391 -0.1846  0.6065
   54MOL0     O 7043  -0.082  -1.219   6.531  0.2324  0.0973  0.6328
   54MOL0     C 7044  -0.266  -1.112   6.684 -0.2494  0.5753 -0.1011
   54MOL0     C 7045  -0.347  -1.071   6.793  0.2534  0.6454  0.5616
   54MOL0     N 7046  -0.280  -0.984   7.523 -0.0150 -1.2669 -0.4890
   54MOL0     N 7047  -0.240  -0.970   7.649  0.5370  0.0382 -0.1247
   54MOL0     C 7048   0.129  -0.255   7.258 -0.3408 -0.2325  0.1761
   54MOL0     C 7049   0.162  -0.218   7.120  0.1382 -0.0722  0.0478
   54MOL0     C 7050   0.387  -0.064   6.764  0.9983  0.7954  0.6182
   54MOL0     C 7051   0.442  -0.174   6.697  0.1929  1.0922  0.4465
   54MOL0     C 7052   0.471  -0.171   6.564  0.3070  0.4065 -0.8192
   54MOL0     C 7053   0.484  -0.059   6.492  0.0625  0.3822  0.3141
   54MOL0     O 7054   0.540  -0.072   6.364  0.2322 -0.4071  0.0371
   54MOL0     C 7055   0.508   0.026   6.261  0.3153 -0.8613 -0.0473
   54MOL0     C 7056   0.481  -0.061   6.139 -0.2120 -0.5786 -0.4245
   54MOL0     C 7057   0.595  -0.141   6.083 -0.3474 -0.2998  0.1710
   54MOL0     C 7058   0.712  -0.054   6.027 -0.3813 -0.1495 -0.3547
   54MOL0     C 7059   0.683  -0.012   5.889  0.8398 -0.1907 -0.2681
   54MOL0     C 7060   0.676   0.026   5.778 -0.5666 -0.6433 -0.6157
   54MOL0     C 7061   0.445   0.065   6.555  0.2681  0.2377  0.7829
   54MOL0     C 7062   0.384   0.058   6.683 -0.7436 -0.2339  0.2054
   54MOL0     H 7063   0.466  -0.366   7.104 -1.8366 -2.5980 -2.7520
   54MOL0     H 7064   0.405  -0.426   7.342 -0.2383  2.4124  2.3907
   54MOL0     H 7065   0.356  -0.440   7.546  0.8008  1.6409  3.1133
   54MOL0     H 7066   0.232  -0.555   7.490  0.6716  0.1623  0.3025
   54MOL0     H 7067   0.192  -0.362   7.734  3.0807  1.0144  0.4839
   54MOL0     H 7068   0.261  -0.524   7.748  2.3087  1.1974 -2.2586
   54MOL0     H 7069   0.027  -0.623   7.659 -2.0713 -0.1948  1.1711
   54MOL0     H 7070  -0.030  -0.455   7.664  1.2457  1.1585 -0.1024
   54MOL0     H 7071   0.115  -0.581   7.903  0.8861  1.8694 -2.0812
   54MOL0     H 7072  -0.022  -0.468   7.897  0.6154  0.8020 -0.0460
   54MOL0     H 7073  -0.099  -0.684   7.993 -0.4884  0.9129 -1.1408
   54MOL0     H 7074  -0.047  -0.777   7.861 -1.2299 -0.4615 -1.5481
   54MOL0     H 7075  -0.200  -0.665   7.709 -1.3075 -3.1443  1.1017
   54MOL0     H 7076  -0.228  -0.539   7.826 -2.0805 -0.8714  3.3511
   54MOL0     H 7077  -0.368  -0.710   7.965 -0.8526  1.1746 -1.5021
   54MOL0     H 7078  -0.423  -0.699   7.804 -0.0909 -1.3615 -0.0782
   54MOL0     H 7079  -0.425  -0.911   7.921 -2.4028  1.1917 -1.6633
   54MOL0     H 7080  -0.248  -0.910   7.906  1.9972  1.8035 -2.7967
   54MOL0     H 7081  -0.569  -0.926   7.675 -0.1231 -2.7552  1.3443
   54MOL0     H 7082  -0.618  -0.991   7.439 -0.7316  1.9468 -1.5626
   54MOL0     H 7083  -0.489  -1.100   7.377 -0.9082 -0.2281  2.5779
   54MOL0     H 7084  -0.367  -0.897   7.296 -1.5453  2.9023  1.5943
   54MOL0     H 7085  -0.524  -0.818   7.305 -0.8284  0.3976 -0.6377
   54MOL0     H 7086  -0.626  -1.038   7.196 -1.2287  2.5855  2.5666
   54MOL0     H 7087  -0.601  -0.905   7.115 -0.0028  1.2489  2.1460
   54MOL0     H 7088  -0.515  -1.102   7.002 -2.1301 -0.3487  2.9868
   54MOL0     H 7089  -0.369  -1.100   7.118  2.1858  0.7278 -2.1858
   54MOL0     H 7090  -0.191  -0.810   6.903  0.2126  0.6975  0.8929
   54MOL0     H 7091  -0.019  -0.883   6.723  0.8327 -1.4833 -2.3217
   54MOL0     H 7092   0.047  -1.187   6.326 -0.3065  2.8146 -0.9648
   54MOL0     H 7093   0.243  -1.295   6.216 -1.6010  1.4391 -1.6888
   54MOL0     H 7094   0.533  -1.427   6.456 -0.9500  2.2922  1.8951
   54MOL0     H 7095   0.633  -1.284   6.434  0.7078 -2.2013  2.1281
   54MOL0     H 7096   0.686  -1.409   6.203 -1.6041 -2.1860 -1.9887
   54MOL0     H 7097   0.599  -1.538   6.270  1.4917 -1.0099 -0.2639
   54MOL0     H 7098   0.775  -1.534   6.460  1.8750 -2.5337  0.0010
   54MOL0     H 7099   0.830  -1.377   6.403  1.1087 -0.4296 -1.9849
   54MOL0     H 7100   0.912  -1.463   6.199  2.0950 -0.8506 -0.4406
   54MOL0     H 7101   1.007  -1.520   6.340 -0.3524  3.0300  2.4402
   54MOL0     H 7102   0.777  -1.689   6.243 -0.7840  0.5497  2.6652
   54MOL0     H 7103   0.934  -1.746   6.305  1.8271  3.4577  2.0211
   54MOL0     H 7104   1.054  -1.661   6.096  1.0043 -0.5542 -0.5449
   54MOL0     H 7105   0.897  -1.616   6.034 -0.7934 -0.1238  0.3409
   54MOL0     H 7106   1.033  -1.894   6.066  0.1165 -0.6688 -0.9130
   54MOL0     H 7107   0.854  -1.890   6.082 -0.7896  0.2915 -2.6965
   54MOL0     H 7108   0.849  -1.796   5.844  0.4735  0.4279 -0.4989
   54MOL0     H 7109   0.946  -1.945   5.862 -1.6549 -0.6654  1.8060
   54MOL0     H 7110   0.488  -1.142   6.531  0.2850  0.1025 -0.2969
   54MOL0     H 7111   0.318  -1.031   6.625  2.5007  0.9834 -0.5689
   54MOL0     H 7112  -0.302  -1.203   6.637  1.4866  0.2579 -0.8887
   54MOL0     H 7113  -0.432  -1.134   6.817  1.1040 -1.0499 -0.6334
   54MOL0     H 7114   0.033  -0.230   7.301 -0.4576 -1.1674  0.4900
   54MOL0     H 7115   0.096  -0.161   7.055  2.1444  1.5566 -0.6455
   54MOL0     H 7116   0.461  -0.269   6.745  0.3624  1.8286  1.8899
   54MOL0     H 7117   0.506  -0.266   6.527 -1.9502 -0.1974 -1.5847
   54MOL0     H 7118   0.594   0.091   6.243 -0.3954  0.3805  0.9339
   54MOL0     H 7119   0.414   0.078   6.284  1.8148  1.8798  0.2949
   54MOL0     H 7120   0.402  -0.130   6.170 -0.5330 -0.0611 -0.0721
   54MOL0     H 7121   0.434   0.005   6.065 -2.8171  0.9854  2.4139
   54MOL0     H 7122   0.551  -0.195   6.000  2.4064  0.0590 -1.6667
   54MOL0     H 7123   0.628  -0.217   6.154  1.4659 -1.3183 -1.6598
   54MOL0     H 7124   0.731   0.034   6.088  1.6923 -0.3044 -0.7215
   54MOL0     H 7125   0.804  -0.112   6.023 -1.0005 -1.1029 -3.0418
   54MOL0     H 7126   0.657   0.070   5.682  0.3749  1.1326 -0.0239
   54MOL0     H 7127   0.465   0.164   6.517 -0.3722 -0.9793 -3.1014
   54MOL0     H 7128   0.344   0.152   6.720 -3.4022 -0.0468 -2.7175
   55MOL0     O 7129   7.829   5.470   0.041 -0.5100 -0.9175 -0.2621
   55MOL0     C 7130   7.806   5.356   0.003 -0.3202  0.7500 -1.1432
   55MOL0     O 7131   7.825   5.242   0.079 -0.4571  0.6778  0.2456
   55MOL0     C 7132   7.836   5.256   0.215  1.0871 -0.8449  0.2204
   55MOL0     C 7133   7.934   5.174   0.280 -0.5991 -0.7140 -0.3312
   55MOL0     C 7134   7.949   5.183   0.416  0.6620  0.2431 -0.4767
   55MOL0     C 7135   7.880   5.277   0.492  0.6268  1.3697 -0.4084
   55MOL0     O 7136   7.899   5.280   0.629  0.5546 -0.5383  0.5861
   55MOL0     C 7137   7.869   5.404   0.710  0.5439  0.6234  0.2098
   55MOL0     C 7138   7.740   5.381   0.790 -0.6626 -0.2165 -0.7471
   55MOL0     C 7139   7.747   5.420   0.942 -0.1156 -0.8509  0.3664
   55MOL0     C 7140   7.794   5.562   0.960  0.0154 -0.1984 -0.7180
   55MOL0     C 7141   7.762   5.625   1.098 -0.4551 -0.0525  0.7334
   55MOL0     C 7142   7.811   5.545   1.216 -0.3393  0.8931 -0.6051
   55MOL0     C 7143   7.954   5.568   1.241 -0.2107 -0.0628  0.5146
   55MOL0     C 7144   7.989   5.514   1.380 -0.3951  0.3714 -0.5301
   55MOL0     N 7145   8.130   5.521   1.425  0.2852  0.6994 -0.7807
   55MOL0     C 7146   8.222   5.429   1.383  0.1537 -0.1000 -0.1164
   55MOL0     C 7147   8.320   5.429   1.469  0.0137  0.5563  0.4459
   55MOL0     C 7148   8.444   5.339   1.471 -0.0677 -0.1045  0.5396
   55MOL0     C 7149   8.577   5.412   1.505 -0.2073  0.1044 -0.2154
   55MOL0     C 7150   8.689   5.299   1.488 -0.6932 -0.5213  0.0022
   55MOL0     C 7151   8.792   5.298   1.606 -1.5123 -0.1057 -0.3227
   55MOL0     O 7152   8.733   5.234   1.716 -0.7479  0.0288 -1.2359
   55MOL0     C 7153   8.743   5.091   1.727  0.3473  0.2921  0.1249
   55MOL0     C 7154   8.678   5.016   1.838  0.1150 -0.0659 -0.4990
   55MOL0     C 7155   8.680   4.871   1.840 -0.9558  0.0652 -0.0257
   55MOL0     C 7156   8.746   4.798   1.742  0.0563  0.4439  0.2092
   55MOL0     C 7157   8.800   4.657   1.763 -0.1023 -0.2231 -0.5392
   55MOL0     O 7158   8.801   4.616   1.891  0.6079 -0.5016  0.3025
   55MOL0     C 7159   8.861   4.500   1.935 -0.5322  0.4008 -0.4635
   55MOL0     C 7160   8.889   4.501   2.071 -0.6542  0.6954 -0.6036
   55MOL0     C 7161   8.947   4.386   2.124  0.3157  0.5237 -0.1162
   55MOL0     C 7162   8.980   4.269   2.041  0.2527  0.8521  0.1972
   55MOL0     O 7163   9.044   4.173   2.101 -0.5309 -0.0106 -0.0355
   55MOL0     C 7164   9.090   4.053   2.028  0.6121  0.6009 -0.4383
   55MOL0     C 7165   9.108   3.945   2.127 -0.1342 -0.2518  0.1584
   55MOL0     C 7166   9.205   3.981   2.237 -0.3863 -0.6100  0.4187
   55MOL0     C 7167   9.207   3.877   2.344  0.1365  0.4358  0.2955
   55MOL0     C 7168   9.272   3.934   2.467  0.1611 -0.2657  0.2450
   55MOL0     C 7169   9.287   3.834   2.576  1.7117  0.2838  0.6611
   55MOL0     C 7170   9.146   3.791   2.649 -0.0746  0.3856  1.0829
   55MOL0     C 7171   9.193   3.683   2.746 -0.8549  0.6690  0.5865
   55MOL0    Cl 7172   9.062   3.631   2.857  0.0115  0.4528  0.0830
   55MOL0     C 7173   8.950   4.274   1.907 -0.1422  0.4905 -0.4372
   55MOL0     C 7174   8.894   4.387   1.856  0.9046  0.7161 -0.2090
   55MOL0     O 7175   8.839   4.590   1.665 -0.4490 -0.5434 -0.7659
   55MOL0     C 7176   8.807   4.874   1.636 -0.2582  0.3471 -0.0984
   55MOL0     C 7177   8.801   5.014   1.627 -0.2293 -0.4852 -1.1798
   55MOL0     N 7178   8.284   5.513   1.572  0.1597 -0.5072  0.1434
   55MOL0     N 7179   8.174   5.570   1.545 -0.1525 -0.3322  0.4766
   55MOL0     C 7180   7.786   5.363   0.427 -0.0205  1.1182  0.0398
   55MOL0     C 7181   7.753   5.345   0.294 -0.6459 -0.4587  0.7591
   55MOL0     C 7182   7.772   5.331  -0.140 -0.0436 -0.4864 -0.3905
   55MOL0     C 7183   7.702   5.206  -0.175 -0.3284 -0.9322  0.0728
   55MOL0     C 7184   7.661   5.186  -0.304  0.6631  0.5421  0.4810
   55MOL0     C 7185   7.702   5.276  -0.404 -0.6998  0.0089  0.0464
   55MOL0     O 7186   7.683   5.261  -0.535  0.9942  0.2980 -0.3726
   55MOL0     C 7187   7.662   5.127  -0.594  0.0882  0.6860  0.1004
   55MOL0     C 7188   7.649   5.119  -0.746 -0.0257 -0.0458  0.0336
   55MOL0     C 7189   7.738   5.019  -0.812  0.0132 -0.4945 -0.2482
   55MOL0     C 7190   7.745   5.028  -0.966  0.1575 -1.2365 -1.5030
   55MOL0     C 7191   7.833   4.931  -1.029 -0.2089  0.1820 -0.6147
   55MOL0     C 7192   7.902   4.850  -1.078  0.1595  0.2538 -0.5983
   55MOL0     C 7193   7.757   5.400  -0.373  0.9378 -0.2047 -0.4578
   55MOL0     C 7194   7.798   5.426  -0.240  0.4615  0.1824 -0.4735
   55MOL0     H 7195   7.989   5.091   0.237 -1.7402 -0.5119 -2.2737
   55MOL0     H 7196   8.015   5.110   0.461  1.4798  1.0217 -0.3786
   55MOL0     H 7197   7.861   5.500   0.656 -2.7382  1.3468  1.7225
   55MOL0     H 7198   7.952   5.416   0.780  0.4534 -0.7003  0.5700
   55MOL0     H 7199   7.728   5.274   0.809  1.5181 -0.4921 -0.6920
   55MOL0     H 7200   7.653   5.416   0.733 -2.0535 -1.7371  0.3490
   55MOL0     H 7201   7.808   5.350   0.999  1.9783  1.7214  1.5154
   55MOL0     H 7202   7.646   5.412   0.983  1.1167 -0.0352  3.9574
   55MOL0     H 7203   7.901   5.557   0.937  0.9857 -2.0075  3.2934
   55MOL0     H 7204   7.734   5.610   0.883  0.9398 -0.7732 -1.8334
   55MOL0     H 7205   7.657   5.633   1.127 -0.3285 -0.8770  1.4442
   55MOL0     H 7206   7.805   5.726   1.096  0.0753 -0.2906 -0.4472
   55MOL0     H 7207   7.782   5.440   1.209 -0.1323  0.9316 -2.6443
   55MOL0     H 7208   7.759   5.586   1.303 -1.1732  1.9868 -1.5887
   55MOL0     H 7209   8.021   5.532   1.162  1.2032  0.9270  1.2097
   55MOL0     H 7210   7.979   5.675   1.236  2.9955 -0.7038 -3.8664
   55MOL0     H 7211   7.950   5.414   1.398 -2.7030  0.8952 -2.1401
   55MOL0     H 7212   7.933   5.584   1.442 -2.2014 -1.8639  0.4753
   55MOL0     H 7213   8.215   5.361   1.298 -0.6773  0.5084 -0.5419
   55MOL0     H 7214   8.473   5.287   1.379  5.3552  1.6491  0.8829
   55MOL0     H 7215   8.427   5.264   1.549  1.4303 -0.6047  0.4230
   55MOL0     H 7216   8.567   5.477   1.593  0.0083 -1.2820  0.8785
   55MOL0     H 7217   8.594   5.484   1.424  1.4533 -1.6538 -1.5295
   55MOL0     H 7218   8.644   5.201   1.468  1.3643 -0.8936 -3.7976
   55MOL0     H 7219   8.731   5.311   1.388 -2.4282 -0.0872 -0.7242
   55MOL0     H 7220   8.821   5.401   1.630 -0.2935 -0.1502 -1.5415
   55MOL0     H 7221   8.885   5.247   1.580 -0.2300  0.7453  2.1943
   55MOL0     H 7222   8.632   5.068   1.921 -0.2454 -1.1101 -0.0247
   55MOL0     H 7223   8.634   4.809   1.916  0.5363 -1.2578 -0.1485
   55MOL0     H 7224   8.872   4.582   2.142  0.2530 -1.3346  2.0734
   55MOL0     H 7225   8.965   4.384   2.231  0.2273  0.6183 -0.1000
   55MOL0     H 7226   9.191   4.070   1.990  0.2296  1.2532 -1.1714
   55MOL0     H 7227   9.021   4.028   1.948 -1.9399  0.2632  1.7298
   55MOL0     H 7228   9.145   3.851   2.086  0.8376  0.7558 -1.3853
   55MOL0     H 7229   9.008   3.924   2.166 -1.6761  2.3496 -2.0314
   55MOL0     H 7230   9.177   4.076   2.282 -1.4333 -1.5661  1.8901
   55MOL0     H 7231   9.302   4.004   2.193 -2.0947  2.6119 -2.1138
   55MOL0     H 7232   9.103   3.851   2.365  0.1084 -0.0511 -0.3949
   55MOL0     H 7233   9.260   3.793   2.298 -0.6910 -1.1640  2.1153
   55MOL0     H 7234   9.231   4.028   2.506 -1.0501  0.3231 -2.2182
   55MOL0     H 7235   9.379   3.949   2.448  2.1969 -0.4837  8.2248
   55MOL0     H 7236   9.362   3.884   2.637  2.6805  1.8570 -1.6537
   55MOL0     H 7237   9.338   3.748   2.531 -0.3851  0.6758 -2.9503
   55MOL0     H 7238   9.101   3.883   2.687 -1.4243 -0.1213  0.7735
   55MOL0     H 7239   9.087   3.744   2.569  0.4754  0.7968  0.4202
   55MOL0     H 7240   9.265   3.721   2.820 -1.5040  3.3135 -0.0601
   55MOL0     H 7241   9.221   3.597   2.684 -1.2402  0.4324  0.7355
   55MOL0     H 7242   8.972   4.191   1.840 -0.5163 -1.5771  1.8412
   55MOL0     H 7243   8.881   4.395   1.749  1.3812 -0.5499 -0.3717
   55MOL0     H 7244   8.854   4.806   1.565 -0.3896 -1.1309  1.1920
   55MOL0     H 7245   8.858   5.053   1.544  2.4411  1.4170  1.3899
   55MOL0     H 7246   7.721   5.430   0.482  1.6161  2.7370  0.1036
   55MOL0     H 7247   7.672   5.401   0.249  0.7653  1.3963  0.3668
   55MOL0     H 7248   7.690   5.135  -0.094  0.4041  0.6731  1.6742
   55MOL0     H 7249   7.599   5.103  -0.336 -1.2010  1.9245  0.2811
   55MOL0     H 7250   7.569   5.077  -0.567 -1.2301  1.1807 -3.0731
   55MOL0     H 7251   7.745   5.062  -0.565 -0.6421 -1.5695 -2.5003
   55MOL0     H 7252   7.548   5.113  -0.788  0.9965 -0.2032 -2.5469
   55MOL0     H 7253   7.684   5.218  -0.776  0.6380 -0.7522 -1.6689
   55MOL0     H 7254   7.703   4.918  -0.791  2.8661 -2.7237 -4.6697
   55MOL0     H 7255   7.837   5.024  -0.766 -1.4410  3.5582  3.1160
   55MOL0     H 7256   7.641   5.006  -0.993 -1.9721  4.0671  0.8596
   55MOL0     H 7257   7.765   5.133  -0.993 -2.6222 -0.4871 -0.9902
   55MOL0     H 7258   7.978   4.787  -1.121  2.2512  2.1796  0.0857
   55MOL0     H 7259   7.773   5.479  -0.446 -2.5032  0.5264 -0.5568
   55MOL0     H 7260   7.863   5.512  -0.228 -0.1968  0.6939 -0.5578
   56MOL0     O 7261   2.319   3.432   6.368 -0.5955  0.4895 -0.6236
   56MOL0     C 7262   2.416   3.381   6.320 -0.8087  0.2613  0.2269
   56MOL0     O 7263   2.473   3.268   6.364 -0.0431 -0.4301  0.6084
   56MOL0     C 7264   2.444   3.197   6.472  0.2654 -1.4215 -0.3797
   56MOL0     C 7265   2.498   3.065   6.475 -0.5454 -0.7518 -0.8954
   56MOL0     C 7266   2.497   2.991   6.592  1.1495 -0.2702  0.2474
   56MOL0     C 7267   2.440   3.047   6.708  0.2072 -0.4176 -0.5060
   56MOL0     O 7268   2.421   2.991   6.836 -1.5719  0.3507 -0.3500
   56MOL0     C 7269   2.504   2.878   6.863 -0.5326  0.0146  0.0707
   56MOL0     C 7270   2.444   2.807   6.987  0.5426  0.0037  0.3834
   56MOL0     C 7271   2.483   2.878   7.124  0.3120  0.6916  0.0454
   56MOL0     C 7272   2.610   2.811   7.192  0.0087 -0.6541 -0.7797
   56MOL0     C 7273   2.669   2.910   7.297  0.2617 -0.0639 -0.0389
   56MOL0     C 7274   2.709   2.824   7.422 -0.2494  0.0600  0.2392
   56MOL0     C 7275   2.822   2.716   7.383  0.4569 -0.3721 -0.5003
   56MOL0     C 7276   2.940   2.794   7.315 -0.6122  0.6258  0.3830
   56MOL0     N 7277   3.024   2.709   7.242  0.5132  0.0773 -0.4919
   56MOL0     C 7278   3.030   2.567   7.256 -0.9334 -0.2981  0.8229
   56MOL0     C 7279   3.123   2.531   7.169  1.5943 -0.1501  0.0932
   56MOL0     C 7280   3.190   2.400   7.151 -0.2271  0.8555  0.1664
   56MOL0     C 7281   3.098   2.291   7.087  0.3738 -0.3534 -0.7888
   56MOL0     C 7282   3.050   2.198   7.190 -0.0054  0.5041  0.6816
   56MOL0     C 7283   3.026   2.057   7.121 -0.2483 -0.8249  0.8490
   56MOL0     O 7284   2.943   2.067   6.995 -0.1383  0.7199  0.4067
   56MOL0     C 7285   2.916   1.952   6.937 -0.8629  1.3483 -0.6929
   56MOL0     C 7286   3.017   1.860   6.920 -0.6394  0.3347 -0.8515
   56MOL0     C 7287   2.997   1.733   6.849  0.1340  0.5717 -0.6556
   56MOL0     C 7288   2.864   1.711   6.801  0.1365  1.0391  0.0413
   56MOL0     C 7289   2.850   1.598   6.723  0.0351  0.1156  0.4498
   56MOL0     O 7290   2.910   1.484   6.755 -0.0626  0.1367  0.3681
   56MOL0     C 7291   2.923   1.388   6.660 -0.2872  0.5164 -0.1104
   56MOL0     C 7292   2.986   1.404   6.540  0.0425  0.2871  0.2033
   56MOL0     C 7293   3.004   1.296   6.453  0.4377  0.3468  0.9782
   56MOL0     C 7294   2.968   1.155   6.492  0.6898 -0.6896  0.6612
   56MOL0     O 7295   2.995   1.048   6.404 -0.6376 -0.0213 -1.2108
   56MOL0     C 7296   3.132   1.026   6.364 -1.4707 -0.5533  0.6695
   56MOL0     C 7297   3.159   0.875   6.367  0.3219 -0.0446 -0.1358
   56MOL0     C 7298   3.275   0.837   6.280  0.0658 -0.1323 -0.8776
   56MOL0     C 7299   3.319   0.689   6.295 -0.2008  0.5138  0.3489
   56MOL0     C 7300   3.431   0.647   6.201 -0.3152  0.1554 -0.1686
   56MOL0     C 7301   3.482   0.501   6.211  0.0800 -1.0126 -0.1702
   56MOL0     C 7302   3.376   0.397   6.205  0.5041  1.4472  0.1843
   56MOL0     C 7303   3.419   0.257   6.227 -0.5183 -0.2144  0.4140
   56MOL0    Cl 7304   3.466   0.229   6.401 -0.1742  0.1462 -0.2891
   56MOL0     C 7305   2.900   1.146   6.607  0.1304  0.7982  0.6207
   56MOL0     C 7306   2.872   1.252   6.694  0.4794 -0.0898  0.4599
   56MOL0     O 7307   2.797   1.627   6.614 -0.5659  0.0663 -0.1303
   56MOL0     C 7308   2.757   1.796   6.832  0.0476  0.3337  0.6665
   56MOL0     C 7309   2.785   1.913   6.894  0.2538  0.1815 -0.4982
   56MOL0     N 7310   3.158   2.637   7.087 -0.2674 -0.5370  0.3329
   56MOL0     N 7311   3.092   2.733   7.126 -0.1891 -0.5571  0.0236
   56MOL0     C 7312   2.382   3.174   6.703  0.6789  0.7814 -0.6162
   56MOL0     C 7313   2.382   3.253   6.590 -0.1085 -0.5325  0.3919
   56MOL0     C 7314   2.484   3.440   6.196 -0.5683 -0.7278 -1.3830
   56MOL0     C 7315   2.406   3.514   6.099 -0.1713 -0.4409 -0.1382
   56MOL0     C 7316   2.466   3.563   5.981  0.7071 -0.0080 -0.3017
   56MOL0     C 7317   2.594   3.526   5.951 -0.0092 -0.5222  0.2633
   56MOL0     O 7318   2.639   3.555   5.829 -0.5225 -0.1829  0.4981
   56MOL0     C 7319   2.766   3.541   5.773 -0.4358 -0.1065 -0.2132
   56MOL0     C 7320   2.864   3.638   5.839  0.1268  0.3475  0.3979
   56MOL0     C 7321   2.827   3.781   5.816 -0.2126 -0.2546  0.5835
   56MOL0     C 7322   2.907   3.873   5.913 -0.1188  0.1849  0.1394
   56MOL0     C 7323   3.044   3.912   5.864  0.7593 -0.1144  0.1138
   56MOL0     C 7324   3.143   3.941   5.812 -0.2428 -0.7153  0.4406
   56MOL0     C 7325   2.666   3.454   6.035  0.0913  0.2266 -0.1959
   56MOL0     C 7326   2.615   3.412   6.161 -0.1582  0.1611 -0.2813
   56MOL0     H 7327   2.555   3.018   6.396  0.7425 -0.8682  0.0779
   56MOL0     H 7328   2.530   2.889   6.575 -3.2132 -1.6867 -0.9769
   56MOL0     H 7329   2.601   2.919   6.890 -0.5405 -0.9396  1.6929
   56MOL0     H 7330   2.519   2.809   6.780  1.2348  1.7408 -1.1048
   56MOL0     H 7331   2.472   2.701   6.997 -1.4105 -0.4516  1.5642
   56MOL0     H 7332   2.336   2.812   6.975  0.6133 -0.3354 -0.4978
   56MOL0     H 7333   2.401   2.849   7.190 -0.5627 -1.0146 -1.6930
   56MOL0     H 7334   2.493   2.987   7.117  1.0416  0.5996 -0.5527
   56MOL0     H 7335   2.588   2.711   7.229  1.1495  0.3368  2.9752
   56MOL0     H 7336   2.678   2.788   7.110 -1.1543 -1.8401 -1.4587
   56MOL0     H 7337   2.584   2.976   7.321 -0.1180 -1.2676  2.2321
   56MOL0     H 7338   2.754   2.969   7.263 -1.0152  0.8037 -1.9133
   56MOL0     H 7339   2.621   2.765   7.448  1.0653 -1.3173  1.7310
   56MOL0     H 7340   2.756   2.885   7.500  3.6720 -3.7280  1.1877
   56MOL0     H 7341   2.852   2.660   7.472 -2.0363 -1.2141 -0.1141
   56MOL0     H 7342   2.782   2.637   7.319 -1.1268 -0.1279  0.1542
   56MOL0     H 7343   2.995   2.842   7.396  2.3256 -1.0148 -0.5165
   56MOL0     H 7344   2.927   2.868   7.235  4.4237  1.4439  0.0085
   56MOL0     H 7345   2.997   2.503   7.337  1.1527  0.9074  2.7365
   56MOL0     H 7346   3.226   2.369   7.249 -0.5635 -0.3369 -0.0793
   56MOL0     H 7347   3.277   2.407   7.085  3.1402 -1.4339  3.9714
   56MOL0     H 7348   3.155   2.246   7.005  4.4949  1.6149  0.7234
   56MOL0     H 7349   3.011   2.345   7.048  0.7519  0.4815 -0.5034
   56MOL0     H 7350   3.119   2.187   7.274 -0.4443 -0.1903  0.9642
   56MOL0     H 7351   2.956   2.237   7.231  0.1289  1.2868  0.2550
   56MOL0     H 7352   2.996   1.985   7.197 -1.3932 -1.7793 -0.4377
   56MOL0     H 7353   3.126   2.028   7.087  0.2229  2.9304 -1.6556
   56MOL0     H 7354   3.122   1.877   6.937 -0.5678  0.9156 -1.8065
   56MOL0     H 7355   3.085   1.671   6.833 -0.0290  0.1622 -0.0517
   56MOL0     H 7356   3.018   1.502   6.506  0.4035  0.0454 -0.1563
   56MOL0     H 7357   3.053   1.307   6.356 -1.0931 -0.6018  0.0486
   56MOL0     H 7358   3.190   1.080   6.440 -0.8189  0.7277 -0.6803
   56MOL0     H 7359   3.149   1.063   6.262 -1.2698  0.4434  1.0500
   56MOL0     H 7360   3.074   0.817   6.330  1.1407 -0.5474 -1.2717
   56MOL0     H 7361   3.172   0.844   6.471  1.1227  3.4925  0.9359
   56MOL0     H 7362   3.364   0.888   6.318 -0.7580  0.7014 -0.0041
   56MOL0     H 7363   3.264   0.856   6.173  0.4652 -1.3105 -1.1467
   56MOL0     H 7364   3.356   0.679   6.397  0.9941  0.5388 -0.0605
   56MOL0     H 7365   3.237   0.619   6.279  0.9115 -1.0636  1.2884
   56MOL0     H 7366   3.521   0.703   6.230  1.2649 -2.3880  0.1363
   56MOL0     H 7367   3.424   0.674   6.095 -0.8032 -0.6545 -0.3451
   56MOL0     H 7368   3.523   0.511   6.312 -0.8286  2.3172 -0.0241
   56MOL0     H 7369   3.566   0.481   6.144 -0.3662 -0.1325 -0.9996
   56MOL0     H 7370   3.290   0.421   6.269 -2.9622 -0.7581 -3.1931
   56MOL0     H 7371   3.338   0.416   6.104 -1.1746  3.4516  1.1197
   56MOL0     H 7372   3.508   0.256   6.163  1.8044 -1.9047  3.3835
   56MOL0     H 7373   3.345   0.187   6.187 -1.5103  0.7015  0.6053
   56MOL0     H 7374   2.854   1.048   6.618  1.4981 -0.0816 -0.9829
   56MOL0     H 7375   2.822   1.236   6.789  4.1002 -0.4961  2.4460
   56MOL0     H 7376   2.652   1.785   6.808 -0.2495  1.5163  1.3759
   56MOL0     H 7377   2.692   1.969   6.900  0.5760  0.6932 -0.2811
   56MOL0     H 7378   2.336   3.203   6.797  1.7138 -3.7856  1.5705
   56MOL0     H 7379   2.332   3.349   6.594 -2.4829 -1.7553  2.2541
   56MOL0     H 7380   2.305   3.538   6.128 -0.1916  0.7391 -1.1259
   56MOL0     H 7381   2.410   3.623   5.910 -1.1272  1.4861  2.2541
   56MOL0     H 7382   2.769   3.559   5.665 -2.0660 -0.8878 -0.4135
   56MOL0     H 7383   2.810   3.442   5.786  1.0811  0.6786  1.1194
   56MOL0     H 7384   2.870   3.621   5.947 -1.1894  1.0332  0.5958
   56MOL0     H 7385   2.961   3.623   5.791  0.1758  1.9662 -0.0737
   56MOL0     H 7386   2.728   3.785   5.862 -0.4544 -2.2358  0.3451
   56MOL0     H 7387   2.829   3.823   5.716  0.3274  1.6015  1.3328
   56MOL0     H 7388   2.847   3.964   5.910  0.7473  0.7638 -0.2564
   56MOL0     H 7389   2.923   3.840   6.016  0.2783  0.1098  0.0563
   56MOL0     H 7390   3.228   3.978   5.760 -2.4002  1.8023 -1.6023
   56MOL0     H 7391   2.766   3.425   6.005  0.6141  0.9752  0.7601
   56MOL0     H 7392   2.670   3.349   6.230 -0.0982  0.5722  0.0503
   57MOL0     O 7393   2.268   3.694   9.361  0.3795 -0.5883 -0.1630
   57MOL0     C 7394   2.239   3.617   9.264  1.3024  0.9378 -0.9677
   57MOL0     O 7395   2.125   3.637   9.183  0.0177 -0.3152 -0.0641
   57MOL0     C 7396   2.012   3.703   9.220 -0.0660 -0.2236  0.5247
   57MOL0     C 7397   1.983   3.742   9.358 -0.0213 -0.6015  0.3990
   57MOL0     C 7398   1.866   3.815   9.374  0.7826  0.8664 -0.8102
   57MOL0     C 7399   1.771   3.822   9.278 -0.7052  0.2704 -0.0813
   57MOL0     O 7400   1.648   3.879   9.303  0.3325  0.7045  0.0778
   57MOL0     C 7401   1.597   3.874   9.435  0.0602 -0.6811  0.2187
   57MOL0     C 7402   1.441   3.904   9.439 -0.3519  0.0044 -0.1742
   57MOL0     C 7403   1.402   3.998   9.322  0.3999  0.5774 -1.3686
   57MOL0     C 7404   1.459   4.143   9.323 -0.5926 -0.6502  0.5885
   57MOL0     C 7405   1.382   4.235   9.236  0.5398  0.3137 -0.5933
   57MOL0     C 7406   1.456   4.369   9.232 -0.3205 -0.1739 -0.4757
   57MOL0     C 7407   1.583   4.383   9.147 -0.9447  0.4552  0.3390
   57MOL0     C 7408   1.547   4.376   8.994  0.4885 -0.2678  0.9548
   57MOL0     N 7409   1.634   4.457   8.917  0.7152  0.6027  0.8147
   57MOL0     C 7410   1.615   4.581   8.864  0.6782  0.0714  0.0558
   57MOL0     C 7411   1.722   4.599   8.774 -0.5414  0.1817 -0.6076
   57MOL0     C 7412   1.733   4.721   8.694 -0.0881 -1.6101 -0.1790
   57MOL0     C 7413   1.884   4.752   8.679  0.5497  0.0301 -0.0395
   57MOL0     C 7414   1.948   4.779   8.815 -0.3707 -0.4446 -0.3753
   57MOL0     C 7415   2.106   4.760   8.805  0.4979  0.4979  0.5769
   57MOL0     O 7416   2.167   4.847   8.703 -0.7545  0.0765  0.1196
   57MOL0     C 7417   2.303   4.881   8.714  0.6328 -0.9420  0.0742
   57MOL0     C 7418   2.335   5.014   8.686 -0.0809 -0.5914 -0.4186
   57MOL0     C 7419   2.460   5.061   8.695 -0.6113  0.1606 -0.0384
   57MOL0     C 7420   2.573   4.969   8.724  0.6269  0.3635 -0.5412
   57MOL0     C 7421   2.717   5.019   8.725 -0.0305 -0.0279  0.1165
   57MOL0     O 7422   2.812   4.926   8.743  0.0131  0.1559 -0.1953
   57MOL0     C 7423   2.938   4.975   8.749 -0.4950  1.1020  1.2075
   57MOL0     C 7424   3.002   4.983   8.625 -1.4340 -0.2218  0.5338
   57MOL0     C 7425   3.132   5.031   8.617 -0.6839 -0.1350 -0.0808
   57MOL0     C 7426   3.209   5.064   8.733 -1.5041 -1.0944 -0.8898
   57MOL0     O 7427   3.343   5.116   8.747  0.0820 -0.1112 -1.2391
   57MOL0     C 7428   3.437   5.087   8.647  0.3446  0.1711 -0.8095
   57MOL0     C 7429   3.522   4.981   8.694  0.5048  0.9828  0.1690
   57MOL0     C 7430   3.629   4.926   8.599 -0.9452 -0.0141 -0.4626
   57MOL0     C 7431   3.739   5.034   8.564  0.4380  0.2383  1.1173
   57MOL0     C 7432   3.858   4.966   8.486  0.0314 -0.4452 -0.1971
   57MOL0     C 7433   3.990   5.036   8.502 -0.3755  0.0294 -0.1188
   57MOL0     C 7434   4.093   4.988   8.398  0.1424 -0.1888  0.5884
   57MOL0     C 7435   4.236   4.978   8.448 -0.6735 -0.5213 -0.3969
   57MOL0    Cl 7436   4.356   4.939   8.314 -0.3217  0.3000 -0.0591
   57MOL0     C 7437   3.137   5.070   8.849 -0.8460 -0.1153 -0.1817
   57MOL0     C 7438   3.007   5.021   8.860  0.4620  0.0335  0.0611
   57MOL0     O 7439   2.735   5.140   8.692 -0.6110  1.0379  0.2703
   57MOL0     C 7440   2.536   4.837   8.751 -0.1739  0.4396  0.3563
   57MOL0     C 7441   2.404   4.794   8.749  0.6214  0.2500 -0.2348
   57MOL0     N 7442   1.796   4.482   8.776  0.0109 -0.5230 -0.1312
   57MOL0     N 7443   1.754   4.405   8.870 -0.6662 -0.2474  0.4215
   57MOL0     C 7444   1.800   3.790   9.145 -0.2299  0.2063  0.1681
   57MOL0     C 7445   1.925   3.726   9.117  0.1300 -0.7505  0.9357
   57MOL0     C 7446   2.334   3.510   9.234 -0.4541  1.0131  0.1758
   57MOL0     C 7447   2.378   3.477   9.102 -0.3170  0.0188  0.3229
   57MOL0     C 7448   2.469   3.384   9.062  1.0726  0.2873 -0.2706
   57MOL0     C 7449   2.527   3.302   9.158 -0.3219  0.5569 -0.0247
   57MOL0     O 7450   2.612   3.203   9.118 -0.2704 -0.4160  0.5653
   57MOL0     C 7451   2.550   3.074   9.120 -0.7081 -0.1722  0.1288
   57MOL0     C 7452   2.634   2.971   9.035  1.5781 -0.6015  0.3753
   57MOL0     C 7453   2.555   2.836   9.039 -0.2286  0.3210  0.1099
   57MOL0     C 7454   2.651   2.721   8.986  0.4942  0.0024  0.5806
   57MOL0     C 7455   2.576   2.593   8.981  0.3419 -0.8642 -0.4064
   57MOL0     C 7456   2.522   2.494   8.962  0.6320 -0.1115  0.1240
   57MOL0     C 7457   2.494   3.331   9.292 -0.3618  0.1972 -0.3276
   57MOL0     C 7458   2.410   3.433   9.325  0.3797 -0.1794 -0.1017
   57MOL0     H 7459   2.057   3.727   9.436  0.2643 -0.1721  0.2162
   57MOL0     H 7460   1.839   3.835   9.477  0.6079 -0.2849 -0.6250
   57MOL0     H 7461   1.641   3.954   9.495  2.2254 -2.0666  0.5951
   57MOL0     H 7462   1.602   3.780   9.492  3.7861  1.0386  3.2124
   57MOL0     H 7463   1.415   3.932   9.542  3.0002 -2.5453  1.5747
   57MOL0     H 7464   1.391   3.809   9.420  3.4094 -1.7470 -2.4390
   57MOL0     H 7465   1.292   3.998   9.327  0.3962 -1.6542  2.7348
   57MOL0     H 7466   1.426   3.950   9.227 -2.8639  1.0201 -2.5510
   57MOL0     H 7467   1.459   4.186   9.424 -2.6373 -0.3713  0.5201
   57MOL0     H 7468   1.566   4.134   9.302 -0.7968  0.5202 -1.1412
   57MOL0     H 7469   1.289   4.257   9.290  1.8203  4.4883  0.3034
   57MOL0     H 7470   1.364   4.190   9.138  2.6629  0.3311 -1.0339
   57MOL0     H 7471   1.486   4.389   9.335 -0.1343 -2.3407 -0.0689
   57MOL0     H 7472   1.386   4.440   9.187  1.2879 -0.9609 -4.7230
   57MOL0     H 7473   1.639   4.472   9.179 -0.8338  1.3914 -2.2132
   57MOL0     H 7474   1.658   4.306   9.167  2.0448  3.3453  1.1979
   57MOL0     H 7475   1.443   4.406   8.980  0.6897  1.7345  3.1689
   57MOL0     H 7476   1.537   4.274   8.956 -3.3093 -0.0747  1.0533
   57MOL0     H 7477   1.538   4.656   8.876 -0.3514  0.0188 -4.4599
   57MOL0     H 7478   1.674   4.789   8.756 -1.5863 -2.7640 -0.2705
   57MOL0     H 7479   1.693   4.723   8.592  2.6560  2.0025 -1.3891
   57MOL0     H 7480   1.900   4.833   8.607 -2.0279 -0.7662 -1.6378
   57MOL0     H 7481   1.931   4.662   8.640  0.6268  1.1259 -2.6686
   57MOL0     H 7482   1.936   4.883   8.846  2.1709 -0.5631  1.3307
   57MOL0     H 7483   1.907   4.718   8.897 -0.8445  0.5143  0.1073
   57MOL0     H 7484   2.132   4.655   8.789 -0.7302  0.1968  0.4950
   57MOL0     H 7485   2.152   4.793   8.899  1.0009  4.0141 -0.7224
   57MOL0     H 7486   2.268   5.097   8.666  2.4246  1.9614  1.1782
   57MOL0     H 7487   2.470   5.165   8.666 -3.1230  1.4763  3.1938
   57MOL0     H 7488   2.955   4.978   8.527  2.6632  1.7272 -1.7906
   57MOL0     H 7489   3.180   5.030   8.520  1.1719 -2.2195  0.7728
   57MOL0     H 7490   3.492   5.182   8.648 -1.2693  1.1364  0.1780
   57MOL0     H 7491   3.403   5.062   8.546  0.5765  0.1352 -0.8798
   57MOL0     H 7492   3.452   4.899   8.713 -1.9914  2.9728  0.0313
   57MOL0     H 7493   3.572   5.018   8.784  2.2043 -1.9228  0.5412
   57MOL0     H 7494   3.581   4.889   8.508 -3.7179 -0.0654  0.9191
   57MOL0     H 7495   3.683   4.845   8.648 -3.3112  0.5315  3.4783
   57MOL0     H 7496   3.696   5.118   8.509  2.4363  1.7615  1.7668
   57MOL0     H 7497   3.769   5.093   8.651  3.4928  4.4374 -2.3511
   57MOL0     H 7498   3.827   4.943   8.384 -2.2055  2.6183 -0.3461
   57MOL0     H 7499   3.866   4.866   8.531  1.6212 -0.8414 -1.3054
   57MOL0     H 7500   4.023   5.036   8.606 -5.7003 -1.2657  1.8858
   57MOL0     H 7501   3.961   5.140   8.484 -0.0065  0.3065  0.8288
   57MOL0     H 7502   4.059   4.898   8.347 -0.5589  1.2224 -1.5625
   57MOL0     H 7503   4.078   5.059   8.316 -2.2870 -0.0632  1.0685
   57MOL0     H 7504   4.230   4.915   8.537 -2.2782  2.3985  1.7657
   57MOL0     H 7505   4.264   5.080   8.477  0.1494  0.6538 -4.5894
   57MOL0     H 7506   3.201   5.112   8.926  0.9278  0.0918 -1.6774
   57MOL0     H 7507   2.961   5.012   8.958 -0.1204  0.0457 -0.2100
   57MOL0     H 7508   2.611   4.764   8.779 -0.1305 -0.9946 -3.0087
   57MOL0     H 7509   2.396   4.689   8.773 -0.7884  0.5016  0.4981
   57MOL0     H 7510   1.726   3.809   9.067  0.3337  2.6908  0.1791
   57MOL0     H 7511   1.959   3.701   9.017 -0.5770 -1.5190  0.8747
   57MOL0     H 7512   2.347   3.543   9.021  3.9781  0.6283 -1.0795
   57MOL0     H 7513   2.476   3.372   8.955 -0.8323  0.7351 -0.4861
   57MOL0     H 7514   2.452   3.067   9.072  0.7393 -5.2404 -2.8577
   57MOL0     H 7515   2.552   3.041   9.224  1.5104  1.4618  0.6779
   57MOL0     H 7516   2.623   3.003   8.931 -1.2178  2.1695  1.3771
   57MOL0     H 7517   2.737   2.956   9.069  2.5014  2.2467 -0.8409
   57MOL0     H 7518   2.471   2.839   8.970  0.3346 -0.0009 -0.6047
   57MOL0     H 7519   2.525   2.802   9.139 -0.4225  1.5824  0.4929
   57MOL0     H 7520   2.693   2.751   8.889  3.2005  0.4575  1.8277
   57MOL0     H 7521   2.728   2.704   9.061  0.5991  0.2775  0.5357
   57MOL0     H 7522   2.477   2.398   8.954 -0.4120  0.3224  0.6139
   57MOL0     H 7523   2.559   3.286   9.366 -3.3129 -3.0295  0.5528
   57MOL0     H 7524   2.404   3.439   9.433  1.4215  1.6144 -0.1063
   58MOL0     O 7525   3.085   8.119   3.473 -0.2146 -0.5125  0.7318
   58MOL0     C 7526   3.155   8.191   3.402 -0.0320 -0.5324  0.3498
   58MOL0     O 7527   3.273   8.157   3.350  0.5017 -0.2212  0.8549
   58MOL0     C 7528   3.343   8.059   3.411 -0.8481  0.3676  0.2167
   58MOL0     C 7529   3.425   7.975   3.335  0.0157  0.5050 -0.3712
   58MOL0     C 7530   3.509   7.884   3.394  0.1715 -1.0921 -0.0950
   58MOL0     C 7531   3.515   7.873   3.523  0.2222  0.3997 -0.0300
   58MOL0     O 7532   3.600   7.773   3.572 -0.5467  0.0101 -0.0692
   58MOL0     C 7533   3.623   7.753   3.715  0.1500 -0.6913 -0.3228
   58MOL0     C 7534   3.704   7.625   3.737 -0.9218 -0.2028 -0.8207
   58MOL0     C 7535   3.633   7.488   3.710 -0.0381 -1.1723  0.1962
   58MOL0     C 7536   3.746   7.389   3.718 -0.2719 -0.4767 -0.2086
   58MOL0     C 7537   3.692   7.248   3.726  0.0097 -0.7029  0.0007
   58MOL0     C 7538   3.630   7.190   3.593 -0.3391  0.5393 -0.7611
   58MOL0     C 7539   3.608   7.030   3.611 -0.1360 -0.7887 -0.1034
   58MOL0     C 7540   3.719   6.944   3.558 -0.1242  0.2344  0.4890
   58MOL0     N 7541   3.707   6.799   3.582  0.3384  0.1852 -0.7027
   58MOL0     C 7542   3.633   6.725   3.491 -0.6850 -0.2185  0.4081
   58MOL0     C 7543   3.601   6.612   3.564  0.3686  0.1601  0.2365
   58MOL0     C 7544   3.527   6.497   3.493 -0.5168  0.2037 -0.3093
   58MOL0     C 7545   3.623   6.376   3.478 -0.4434  0.4863  0.5674
   58MOL0     C 7546   3.601   6.268   3.586 -0.0905 -0.3920  0.6715
   58MOL0     C 7547   3.490   6.180   3.519  0.9308 -0.3195 -1.3567
   58MOL0     O 7548   3.539   6.107   3.408  0.2899  0.1888 -0.2625
   58MOL0     C 7549   3.618   5.993   3.434  1.1592  0.0729  0.4172
   58MOL0     C 7550   3.679   5.935   3.317  0.3877 -0.1907 -0.0710
   58MOL0     C 7551   3.753   5.816   3.318 -0.2276  0.1182  0.1308
   58MOL0     C 7552   3.771   5.747   3.436  0.7008 -0.0855 -0.8237
   58MOL0     C 7553   3.833   5.620   3.432 -0.6468  0.3271 -1.5607
   58MOL0     O 7554   3.924   5.599   3.335  0.2222 -0.6833 -0.0377
   58MOL0     C 7555   3.981   5.477   3.326  0.5004  0.2947 -0.0910
   58MOL0     C 7556   3.915   5.381   3.250 -0.4086 -0.6780 -0.2367
   58MOL0     C 7557   3.960   5.250   3.249 -0.4184  0.2461  0.8386
   58MOL0     C 7558   4.063   5.212   3.323  0.3399 -0.0549 -0.0074
   58MOL0     O 7559   4.104   5.083   3.345  0.2812  0.7354  0.5894
   58MOL0     C 7560   4.061   4.985   3.246 -0.1532  0.2907 -0.7279
   58MOL0     C 7561   4.158   4.864   3.258  0.1193 -0.1043 -0.2198
   58MOL0     C 7562   4.125   4.757   3.156  0.0176 -0.7662 -0.6271
   58MOL0     C 7563   4.227   4.640   3.165  0.2979 -0.2264 -0.2110
   58MOL0     C 7564   4.205   4.519   3.076 -0.1161 -0.0187  0.4778
   58MOL0     C 7565   4.078   4.450   3.105 -0.0779  0.9790  0.1871
   58MOL0     C 7566   4.023   4.358   2.996 -0.1705 -1.1044  0.3253
   58MOL0     C 7567   3.936   4.257   3.052 -0.8868 -0.0692  1.2475
   58MOL0    Cl 7568   3.774   4.331   3.106 -0.2006  0.1091 -0.5605
   58MOL0     C 7569   4.135   5.308   3.397 -0.5391 -0.6396  0.2856
   58MOL0     C 7570   4.094   5.443   3.392 -1.5292 -0.8083 -0.1796
   58MOL0     O 7571   3.803   5.542   3.527 -0.1305 -0.3758 -0.2520
   58MOL0     C 7572   3.727   5.802   3.556  0.1818  1.0577 -0.1850
   58MOL0     C 7573   3.647   5.923   3.553 -1.2281 -0.0526  0.0288
   58MOL0     N 7574   3.634   6.633   3.692 -0.8495 -0.1981  0.1066
   58MOL0     N 7575   3.702   6.738   3.708  0.6123  0.5374 -0.1981
   58MOL0     C 7576   3.439   7.956   3.599 -0.7003 -0.6633 -1.0579
   58MOL0     C 7577   3.353   8.051   3.551  0.0146  0.6701  0.0544
   58MOL0     C 7578   3.101   8.318   3.363 -1.3740 -0.3171 -0.0677
   58MOL0     C 7579   3.188   8.410   3.295  0.0043  0.2004  1.1847
   58MOL0     C 7580   3.142   8.537   3.263 -0.5990 -0.4283  0.6675
   58MOL0     C 7581   3.014   8.572   3.293  0.4166  0.3538 -0.0624
   58MOL0     O 7582   2.980   8.694   3.253 -0.9518  0.0309 -0.6185
   58MOL0     C 7583   2.907   8.777   3.350 -0.8057 -0.5648  0.7147
   58MOL0     C 7584   2.994   8.824   3.468 -0.0864 -0.2840  0.4737
   58MOL0     C 7585   3.136   8.881   3.427  0.3312 -0.3376  0.2875
   58MOL0     C 7586   3.134   9.027   3.368  0.9891  0.4099 -0.0362
   58MOL0     C 7587   3.267   9.071   3.342  0.5921 -0.1555  0.7864
   58MOL0     C 7588   3.373   9.106   3.301 -0.5209 -0.5563 -0.0609
   58MOL0     C 7589   2.932   8.481   3.369  0.3577 -0.8237  0.1578
   58MOL0     C 7590   2.976   8.359   3.400  0.5306  0.8135 -0.0315
   58MOL0     H 7591   3.413   7.989   3.228  0.1426 -0.8791 -0.5813
   58MOL0     H 7592   3.566   7.809   3.340  1.3440 -1.8360  2.0781
   58MOL0     H 7593   3.531   7.723   3.768  1.0283 -1.5162  0.7891
   58MOL0     H 7594   3.666   7.841   3.764 -0.6651  0.7684 -2.1308
   58MOL0     H 7595   3.747   7.625   3.838  1.3468  0.9252 -1.7087
   58MOL0     H 7596   3.793   7.615   3.674  2.2402 -1.8194  3.4161
   58MOL0     H 7597   3.580   7.475   3.615 -1.1924 -1.2575  0.8329
   58MOL0     H 7598   3.550   7.469   3.779 -1.1820  0.2249 -0.7458
   58MOL0     H 7599   3.811   7.389   3.630 -2.0584 -3.4371 -1.6641
   58MOL0     H 7600   3.793   7.413   3.814 -0.6467  1.8597 -0.5516
   58MOL0     H 7601   3.630   7.245   3.816  0.5114 -0.6258  0.3561
   58MOL0     H 7602   3.766   7.179   3.767 -0.3034  0.0152  1.8433
   58MOL0     H 7603   3.705   7.204   3.514 -0.5168 -2.0207 -1.4633
   58MOL0     H 7604   3.538   7.242   3.566 -0.2504 -0.1716 -2.6227
   58MOL0     H 7605   3.598   7.006   3.717 -0.4069  0.3741  0.1531
   58MOL0     H 7606   3.511   7.006   3.567  0.1134 -3.5966  0.7115
   58MOL0     H 7607   3.810   6.979   3.608 -0.5136  0.4165  1.0793
   58MOL0     H 7608   3.730   6.944   3.450  2.0654 -2.5307  0.6059
   58MOL0     H 7609   3.625   6.729   3.383 -1.8506 -1.0588  0.4453
   58MOL0     H 7610   3.498   6.541   3.397 -0.9345 -0.1370 -0.3419
   58MOL0     H 7611   3.432   6.478   3.544 -0.2822  2.4886  1.0782
   58MOL0     H 7612   3.722   6.418   3.501 -1.1716  2.2903  0.6052
   58MOL0     H 7613   3.625   6.326   3.381 -0.3119  0.7757  0.4197
   58MOL0     H 7614   3.691   6.205   3.590  0.0025 -0.2764  0.3994
   58MOL0     H 7615   3.558   6.306   3.679 -0.3921 -0.0154  0.3854
   58MOL0     H 7616   3.406   6.247   3.497  1.1130  0.6820  0.7047
   58MOL0     H 7617   3.449   6.112   3.594 -1.6650  2.0296 -0.4456
   58MOL0     H 7618   3.662   5.983   3.221  3.6617  2.7395  0.5867
   58MOL0     H 7619   3.783   5.772   3.223 -0.4280 -0.6122  0.3992
   58MOL0     H 7620   3.825   5.407   3.195 -0.7382  3.1553  1.8112
   58MOL0     H 7621   3.896   5.190   3.186  0.5995  0.1415 -0.1155
   58MOL0     H 7622   4.063   5.025   3.145  3.0678  2.0727 -0.1104
   58MOL0     H 7623   3.961   4.949   3.270 -0.3603  2.7068  2.7511
   58MOL0     H 7624   4.149   4.829   3.361 -0.7528 -0.2153 -0.3273
   58MOL0     H 7625   4.261   4.897   3.239  0.4950 -2.2374 -2.3618
   58MOL0     H 7626   4.113   4.804   3.058 -1.7231  2.2326  0.8439
   58MOL0     H 7627   4.021   4.734   3.179  0.3324 -1.7409 -0.1439
   58MOL0     H 7628   4.329   4.677   3.154  0.2021 -0.0558 -0.5257
   58MOL0     H 7629   4.233   4.611   3.270  3.2511 -1.0957 -0.5502
   58MOL0     H 7630   4.287   4.447   3.084 -2.0231 -2.2813  0.7799
   58MOL0     H 7631   4.208   4.559   2.974 -0.1203 -0.1384  0.4303
   58MOL0     H 7632   3.997   4.523   3.115 -0.4898  0.8037 -1.6152
   58MOL0     H 7633   4.093   4.395   3.199  2.1843 -0.7167 -1.0651
   58MOL0     H 7634   3.954   4.410   2.929 -0.4650  2.6967  3.2339
   58MOL0     H 7635   4.102   4.309   2.938 -1.6941 -1.7182 -1.3271
   58MOL0     H 7636   3.982   4.207   3.137  2.7037  1.7551  0.5885
   58MOL0     H 7637   3.919   4.179   2.978 -0.6246  1.7106 -0.7869
   58MOL0     H 7638   4.221   5.281   3.456  0.3628  3.8295  1.3182
   58MOL0     H 7639   4.145   5.523   3.444 -1.9803  1.2771 -2.7329
   58MOL0     H 7640   3.755   5.749   3.647  3.8969 -3.2042 -3.3656
   58MOL0     H 7641   3.617   5.970   3.646 -3.9807 -0.9394 -0.3428
   58MOL0     H 7642   3.430   7.958   3.707 -1.5128 -3.9661 -0.9743
   58MOL0     H 7643   3.304   8.118   3.621  0.3188 -0.0159  0.9433
   58MOL0     H 7644   3.280   8.376   3.248 -0.3443 -1.8363  1.8792
   58MOL0     H 7645   3.203   8.603   3.201  0.9424 -3.9055 -1.8897
   58MOL0     H 7646   2.811   8.737   3.383 -0.7430  0.0398  1.6853
   58MOL0     H 7647   2.875   8.866   3.295 -2.5500 -0.1978  2.2087
   58MOL0     H 7648   2.943   8.905   3.521 -0.7774 -1.5365  1.8074
   58MOL0     H 7649   3.005   8.743   3.541 -0.6909 -1.6399 -0.8849
   58MOL0     H 7650   3.186   8.806   3.366  1.0303  0.2878  0.0701
   58MOL0     H 7651   3.183   8.876   3.526 -1.3439 -3.3305  1.0497
   58MOL0     H 7652   3.086   9.020   3.270  1.7237  1.1375 -0.4610
   58MOL0     H 7653   3.074   9.083   3.440 -1.3131 -0.6710 -1.0106
   58MOL0     H 7654   3.474   9.116   3.265 -0.4019  4.4893  0.9569
   58MOL0     H 7655   2.826   8.507   3.364 -0.2639 -3.2585 -3.1614
   58MOL0     H 7656   2.903   8.296   3.450 -1.8387  0.9850 -3.0399
   59MOL0     O 7657   3.711   8.325  10.302  0.2742  0.0059  0.2748
   59MOL0     C 7658   3.601   8.282  10.262 -0.3851  0.0860  1.0354
   59MOL0     O 7659   3.563   8.264  10.125  0.5474  0.0427 -0.0273
   59MOL0     C 7660   3.639   8.307  10.020 -0.0506  0.1825 -0.1308
   59MOL0     C 7661   3.773   8.265  10.007  0.2585  1.2160  0.0920
   59MOL0     C 7662   3.849   8.308   9.891 -0.2415 -0.0011 -0.9199
   59MOL0     C 7663   3.797   8.382   9.789 -0.1896 -0.8949  0.1432
   59MOL0     O 7664   3.877   8.403   9.684  0.3802  0.1585  0.0025
   59MOL0     C 7665   3.850   8.494   9.589  0.5807 -0.3120  0.0769
   59MOL0     C 7666   3.960   8.474   9.482  0.4521 -1.2014  0.7168
   59MOL0     C 7667   4.101   8.482   9.533  0.1438  0.6880 -0.4103
   59MOL0     C 7668   4.200   8.467   9.427 -0.7162 -0.8056  1.1734
   59MOL0     C 7669   4.329   8.533   9.462  0.1266  0.2575 -0.1072
   59MOL0     C 7670   4.396   8.456   9.579 -0.7481 -0.2922  0.0272
   59MOL0     C 7671   4.547   8.484   9.572 -0.9140  0.3820  0.0299
   59MOL0     C 7672   4.600   8.437   9.710  0.0248  0.0303  0.6771
   59MOL0     N 7673   4.745   8.455   9.733 -1.1158  0.3738  0.2945
   59MOL0     C 7674   4.853   8.474   9.647  0.4172  0.4336 -0.6951
   59MOL0     C 7675   4.962   8.484   9.721  0.0409  0.4448  0.9439
   59MOL0     C 7676   5.104   8.496   9.684 -0.1119  0.7350  0.2567
   59MOL0     C 7677   5.150   8.639   9.730  0.1273  0.5165  0.4678
   59MOL0     C 7678   5.079   8.765   9.662 -0.9411  0.2195 -0.2038
   59MOL0     C 7679   5.133   8.901   9.712  0.2594  0.8081 -0.3852
   59MOL0     O 7680   5.065   9.012   9.654 -0.0865 -0.4814 -0.5872
   59MOL0     C 7681   4.938   9.063   9.691  0.5187  0.5783 -0.6357
   59MOL0     C 7682   4.851   9.132   9.610  0.3259  0.2451  0.4437
   59MOL0     C 7683   4.735   9.185   9.662  0.8315 -1.3984 -1.1180
   59MOL0     C 7684   4.688   9.162   9.802 -0.4829  0.7394 -1.2245
   59MOL0     C 7685   4.556   9.207   9.850 -0.2754  0.3642 -0.4125
   59MOL0     O 7686   4.508   9.135   9.961 -0.2256 -0.5772 -0.5500
   59MOL0     C 7687   4.411   9.199  10.022  0.9314  0.2638  0.2032
   59MOL0     C 7688   4.272   9.190   9.982  0.1693  0.8046 -0.6555
   59MOL0     C 7689   4.173   9.266  10.056 -0.3692 -0.3411  0.0250
   59MOL0     C 7690   4.208   9.327  10.178  0.5553  0.2147  0.4280
   59MOL0     O 7691   4.114   9.392  10.248 -0.5475  0.3252  0.1603
   59MOL0     C 7692   3.986   9.337  10.256 -0.4021  0.3383 -0.7171
   59MOL0     C 7693   3.926   9.370  10.388 -0.2241  0.1171  0.5452
   59MOL0     C 7694   3.823   9.494  10.375 -0.3126  0.4853 -1.1261
   59MOL0     C 7695   3.760   9.519  10.513  0.3887  0.8373  0.5762
   59MOL0     C 7696   3.648   9.612  10.496  0.2757 -0.1174 -0.4643
   59MOL0     C 7697   3.515   9.537  10.519  0.6484 -0.2794 -0.0769
   59MOL0     C 7698   3.389   9.626  10.524 -0.3566  0.1549 -0.4651
   59MOL0     C 7699   3.368   9.696  10.665  0.0558  0.2022  0.0035
   59MOL0    Cl 7700   3.203   9.763  10.676 -0.3350  0.1430  0.1686
   59MOL0     C 7701   4.342   9.331  10.217 -0.1929  0.8197  0.2352
   59MOL0     C 7702   4.440   9.273  10.136 -0.9783 -1.2906  0.0785
   59MOL0     O 7703   4.496   9.294   9.793 -0.5509  0.4869  0.6476
   59MOL0     C 7704   4.765   9.073   9.876 -0.1036 -0.3793 -0.2224
   59MOL0     C 7705   4.895   9.047   9.827 -0.6927  0.8887  0.0372
   59MOL0     N 7706   4.930   8.453   9.850  0.0787  0.0223 -0.4673
   59MOL0     N 7707   4.805   8.433   9.857  0.0814  0.9489  0.3888
   59MOL0     C 7708   3.656   8.402   9.797  0.4737  0.7342  0.2874
   59MOL0     C 7709   3.575   8.359   9.911  0.8390 -0.5300  0.1826
   59MOL0     C 7710   3.513   8.236  10.371  0.4476  0.3965  0.4692
   59MOL0     C 7711   3.533   8.264  10.508 -1.1894 -0.3255  0.2253
   59MOL0     C 7712   3.441   8.263  10.610 -0.1387  0.0539  0.4148
   59MOL0     C 7713   3.314   8.232  10.577  0.6577 -0.1748 -0.1525
   59MOL0     O 7714   3.214   8.212  10.675 -1.1856  0.1081  0.7637
   59MOL0     C 7715   3.211   8.306  10.780 -0.4142  0.0698 -0.3435
   59MOL0     C 7716   3.065   8.318  10.836  1.1131 -0.4103 -0.7073
   59MOL0     C 7717   3.026   8.188  10.912 -0.4763 -0.8710 -0.4540
   59MOL0     C 7718   2.892   8.200  10.980 -0.0312 -0.4424 -0.5111
   59MOL0     C 7719   2.867   8.327  11.054 -0.6386 -0.0574 -0.8286
   59MOL0     C 7720   2.867   8.432  11.119  0.7816 -0.5440 -0.0695
   59MOL0     C 7721   3.287   8.195  10.448  0.3790 -0.0742  0.5772
   59MOL0     C 7722   3.386   8.192  10.346 -0.4652 -0.7143  0.5686
   59MOL0     H 7723   3.819   8.196  10.077 -3.3849 -1.5353  0.0571
   59MOL0     H 7724   3.953   8.280   9.893 -0.1284  0.2412  2.4200
   59MOL0     H 7725   3.855   8.593   9.635 -2.7733 -0.5225  1.1804
   59MOL0     H 7726   3.751   8.477   9.546  0.3797  1.5208 -0.2885
   59MOL0     H 7727   3.945   8.546   9.400  1.4901 -1.3927  0.3377
   59MOL0     H 7728   3.941   8.377   9.435 -3.2023  0.5354 -1.8792
   59MOL0     H 7729   4.112   8.413   9.617 -2.4941  1.1203  0.3610
   59MOL0     H 7730   4.124   8.580   9.576  2.9711  1.2041 -2.7181
   59MOL0     H 7731   4.202   8.358   9.425 -2.5078 -0.9438  3.3209
   59MOL0     H 7732   4.159   8.505   9.332 -0.7502 -0.2895  1.3866
   59MOL0     H 7733   4.314   8.636   9.495  1.3909  0.9317 -1.5272
   59MOL0     H 7734   4.395   8.539   9.375  1.4384  0.3582  0.8568
   59MOL0     H 7735   4.389   8.348   9.561  0.2932 -0.4662  0.6098
   59MOL0     H 7736   4.360   8.486   9.678  2.1500  1.1633  0.7387
   59MOL0     H 7737   4.596   8.433   9.489 -0.5022 -1.7872  1.5399
   59MOL0     H 7738   4.568   8.590   9.555 -0.3146  0.1001 -1.0631
   59MOL0     H 7739   4.564   8.337   9.736 -0.3088  0.3791  1.5896
   59MOL0     H 7740   4.542   8.494   9.783 -0.9696  0.6624 -0.5634
   59MOL0     H 7741   4.856   8.489   9.540 -1.3389  1.0633 -0.6860
   59MOL0     H 7742   5.116   8.488   9.576  2.3073 -1.9299  0.5994
   59MOL0     H 7743   5.168   8.424   9.737 -1.5134  0.6299  1.8959
   59MOL0     H 7744   5.257   8.653   9.714  0.7853 -2.8685  1.1597
   59MOL0     H 7745   5.130   8.635   9.837 -1.1050 -1.8197  0.2161
   59MOL0     H 7746   5.097   8.764   9.555  1.8539 -1.1277  0.1863
   59MOL0     H 7747   4.971   8.765   9.682 -0.6882  1.8483  1.3937
   59MOL0     H 7748   5.238   8.911   9.685  0.8570 -1.0112  1.0336
   59MOL0     H 7749   5.136   8.910   9.821  0.5818  1.6398 -0.4569
   59MOL0     H 7750   4.872   9.141   9.504  1.5288 -0.0399  0.6412
   59MOL0     H 7751   4.677   9.245   9.593 -2.6410 -2.1410  0.9077
   59MOL0     H 7752   4.249   9.160   9.880  0.4163  3.1118 -1.4479
   59MOL0     H 7753   4.073   9.256  10.015 -1.2460  3.8092  0.7075
   59MOL0     H 7754   3.984   9.227  10.252 -2.2182  0.3576 -1.1851
   59MOL0     H 7755   3.909   9.370  10.186 -0.4938  0.2954 -0.6367
   59MOL0     H 7756   4.009   9.388  10.457 -1.4303  2.0394  1.6105
   59MOL0     H 7757   3.876   9.287  10.439 -0.4371  2.7298  5.1338
   59MOL0     H 7758   3.742   9.464  10.308 -0.6626 -2.3457  0.4030
   59MOL0     H 7759   3.885   9.572  10.331  1.0666  1.5762  2.4108
   59MOL0     H 7760   3.719   9.428  10.559  0.2771  1.7527  2.3884
   59MOL0     H 7761   3.834   9.574  10.572  1.2630 -0.1502  0.4270
   59MOL0     H 7762   3.647   9.669  10.402 -3.5929  0.9478  0.0550
   59MOL0     H 7763   3.656   9.678  10.583 -2.2444 -1.0043  0.5292
   59MOL0     H 7764   3.508   9.470  10.605 -3.0021  0.9127  0.7363
   59MOL0     H 7765   3.508   9.475  10.429  1.6417  0.5465 -0.7591
   59MOL0     H 7766   3.411   9.704  10.450 -0.4991  1.8856  1.2266
   59MOL0     H 7767   3.306   9.562  10.492 -0.3311 -0.0483 -0.1195
   59MOL0     H 7768   3.439   9.779  10.665  1.1356 -0.6922 -0.9292
   59MOL0     H 7769   3.384   9.626  10.748 -0.7544  0.0953  0.0802
   59MOL0     H 7770   4.366   9.383  10.309 -0.3683  0.5250  0.4504
   59MOL0     H 7771   4.545   9.287  10.158 -0.6718  0.9868 -2.3452
   59MOL0     H 7772   4.740   9.024   9.970  2.9602 -3.6895 -0.9107
   59MOL0     H 7773   4.953   8.995   9.902 -1.7430  1.1876  1.0864
   59MOL0     H 7774   3.626   8.443   9.702  3.1730  3.2142  0.3813
   59MOL0     H 7775   3.467   8.354   9.919  0.4780  1.6289 -2.0616
   59MOL0     H 7776   3.634   8.287  10.539 -1.0426 -1.1056  0.3459
   59MOL0     H 7777   3.479   8.281  10.710  0.6877 -1.3372  0.3820
   59MOL0     H 7778   3.255   8.396  10.737 -0.6410 -0.8757 -2.7404
   59MOL0     H 7779   3.280   8.275  10.859  2.7792  2.2444 -2.0402
   59MOL0     H 7780   3.047   8.412  10.889 -0.6423 -0.6574 -0.7944
   59MOL0     H 7781   3.016   8.321  10.738  1.0312  0.4808 -0.6482
   59MOL0     H 7782   3.103   8.152  10.981 -2.9837 -3.4914  1.1947
   59MOL0     H 7783   3.015   8.103  10.844  1.1438 -0.7721 -0.8847
   59MOL0     H 7784   2.819   8.195  10.899 -0.7326  0.8988  0.0274
   59MOL0     H 7785   2.878   8.114  11.047 -1.0360 -2.0111 -2.6331
   59MOL0     H 7786   2.901   8.517  11.173 -0.7421 -0.2677  0.4877
   59MOL0     H 7787   3.183   8.173  10.424 -0.4929  2.8017  1.4155
   59MOL0     H 7788   3.345   8.167  10.248  0.9112 -5.4478  0.9579
   60MOL0     O 7789   1.086   5.708   7.710 -0.0752  0.1340 -0.0664
   60MOL0     C 7790   1.108   5.673   7.595  0.2135 -0.6006  0.8603
   60MOL0     O 7791   1.029   5.701   7.483  0.2992 -0.8900  0.8971
   60MOL0     C 7792   0.912   5.779   7.499  0.2477  0.2402  0.9918
   60MOL0     C 7793   0.925   5.912   7.551  0.3123  0.5451  0.2970
   60MOL0     C 7794   0.811   5.996   7.563  0.6457  0.0907 -0.0152
   60MOL0     C 7795   0.684   5.941   7.536  0.2375 -0.4505  0.4710
   60MOL0     O 7796   0.582   6.037   7.555 -0.1096  0.5500 -0.7420
   60MOL0     C 7797   0.445   5.985   7.557 -0.2605  0.5575  0.9828
   60MOL0     C 7798   0.345   6.101   7.589  0.1062 -0.1182  0.6683
   60MOL0     C 7799   0.364   6.144   7.736 -1.3345 -0.8754  1.1868
   60MOL0     C 7800   0.304   6.063   7.851  1.2847  0.3828  1.0251
   60MOL0     C 7801   0.278   6.139   7.988 -0.0444 -0.1067 -0.4740
   60MOL0     C 7802   0.362   6.099   8.104  0.2040 -0.1451 -0.0265
   60MOL0     C 7803   0.292   6.134   8.238  0.0910  0.3446 -0.3110
   60MOL0     C 7804   0.377   6.101   8.369  0.5852  0.7114 -0.6258
   60MOL0     N 7805   0.355   5.965   8.411 -1.0670 -0.6204 -0.1334
   60MOL0     C 7806   0.245   5.897   8.405  0.2264 -0.0973 -1.1088
   60MOL0     C 7807   0.279   5.770   8.441  0.4403  0.6617  0.7895
   60MOL0     C 7808   0.183   5.654   8.430 -0.5502  1.0244  0.4163
   60MOL0     C 7809   0.059   5.668   8.530 -0.9917  0.1206 -0.6424
   60MOL0     C 7810   0.089   5.666   8.678  0.3659 -0.8712  0.4910
   60MOL0     C 7811   0.201   5.755   8.727 -0.0127  0.1838  0.7194
   60MOL0     O 7812   0.219   5.742   8.868  0.8211 -0.3020  0.0482
   60MOL0     C 7813   0.306   5.826   8.933 -0.2083  0.7052 -1.4938
   60MOL0     C 7814   0.406   5.917   8.881  0.0089 -0.3606  0.1511
   60MOL0     C 7815   0.490   5.984   8.969 -0.2478  0.2862  0.4952
   60MOL0     C 7816   0.480   5.967   9.109 -0.1900  0.5595  0.0825
   60MOL0     C 7817   0.580   6.039   9.200  0.7231 -0.1671 -0.1366
   60MOL0     O 7818   0.631   6.155   9.143  0.1353 -0.0588 -1.2309
   60MOL0     C 7819   0.731   6.237   9.192  0.6255 -0.2734  0.2665
   60MOL0     C 7820   0.736   6.369   9.151  0.2183  1.4508  0.1316
   60MOL0     C 7821   0.825   6.458   9.194 -0.3629  0.2470  0.1932
   60MOL0     C 7822   0.919   6.413   9.293 -0.1154 -0.8100 -1.1922
   60MOL0     O 7823   1.026   6.487   9.349 -0.0419  0.3007  0.3410
   60MOL0     C 7824   1.073   6.608   9.289  0.4194 -0.4520  0.5371
   60MOL0     C 7825   1.174   6.672   9.385  0.1857 -0.2701 -0.2426
   60MOL0     C 7826   1.230   6.807   9.338 -0.4956  0.3474  0.0043
   60MOL0     C 7827   1.331   6.864   9.441 -0.1714  0.2228  0.3968
   60MOL0     C 7828   1.363   7.009   9.412  0.5548 -0.8238 -0.2395
   60MOL0     C 7829   1.466   7.075   9.510  0.0500 -0.4038 -0.3338
   60MOL0     C 7830   1.595   7.000   9.515  0.6864 -1.0218 -0.0620
   60MOL0     C 7831   1.713   7.084   9.542  0.0674 -0.8798 -0.4183
   60MOL0    Cl 7832   1.746   7.186   9.401  0.1445  0.6019  0.4535
   60MOL0     C 7833   0.916   6.280   9.339  0.0308  0.0492  0.3603
   60MOL0     C 7834   0.821   6.195   9.290 -0.0869  0.4314  0.6082
   60MOL0     O 7835   0.620   5.998   9.303 -0.2810  0.0905 -0.3009
   60MOL0     C 7836   0.374   5.884   9.156 -1.8629 -0.0725  0.2364
   60MOL0     C 7837   0.299   5.812   9.071  0.8496  0.1374  0.0063
   60MOL0     N 7838   0.416   5.765   8.448  0.3899  0.9086 -0.7122
   60MOL0     N 7839   0.457   5.882   8.429  1.1487  0.3251 -0.1461
   60MOL0     C 7840   0.671   5.816   7.493  0.4142 -0.5298  0.7680
   60MOL0     C 7841   0.783   5.729   7.477 -0.7092 -0.3503 -0.2475
   60MOL0     C 7842   1.232   5.598   7.566  0.6084  0.1983  0.3813
   60MOL0     C 7843   1.282   5.590   7.438 -0.7279 -0.3539  0.9083
   60MOL0     C 7844   1.411   5.526   7.410  0.8914  0.6601  0.6849
   60MOL0     C 7845   1.472   5.451   7.511 -0.0278  0.9599  0.5153
   60MOL0     O 7846   1.585   5.374   7.496  0.1809  0.2146  0.0651
   60MOL0     C 7847   1.654   5.354   7.374 -0.2251 -0.1457 -0.2793
   60MOL0     C 7848   1.755   5.245   7.404 -0.3030  0.2275 -0.3216
   60MOL0     C 7849   1.876   5.288   7.490 -0.2917 -0.5193 -0.5172
   60MOL0     C 7850   2.013   5.253   7.422  0.0449  0.2862 -0.0427
   60MOL0     C 7851   2.104   5.321   7.507 -0.6788 -0.0942  0.0711
   60MOL0     C 7852   2.175   5.378   7.596  0.2606  1.0752  0.9909
   60MOL0     C 7853   1.417   5.449   7.636  1.0256  0.4375 -0.1206
   60MOL0     C 7854   1.295   5.524   7.664 -0.2780  0.7233 -0.1171
   60MOL0     H 7855   1.020   5.963   7.560  1.3112 -0.6455 -2.5052
   60MOL0     H 7856   0.818   6.094   7.610  3.8175 -1.2592  2.8018
   60MOL0     H 7857   0.446   5.900   7.625  1.2241  1.6895  2.4449
   60MOL0     H 7858   0.416   5.953   7.456 -1.8373  2.7570  0.6575
   60MOL0     H 7859   0.239   6.074   7.579  0.1669 -0.8160  1.7590
   60MOL0     H 7860   0.359   6.189   7.526  0.9654 -0.4983  0.3210
   60MOL0     H 7861   0.332   6.247   7.753 -0.0849 -0.4915  1.2782
   60MOL0     H 7862   0.471   6.147   7.760 -0.5491 -3.1310 -1.4628
   60MOL0     H 7863   0.206   6.024   7.821  1.0015  1.2088  0.8594
   60MOL0     H 7864   0.365   5.974   7.872 -0.0432 -1.7361 -2.8757
   60MOL0     H 7865   0.175   6.124   8.019  1.0160 -2.7782  2.1902
   60MOL0     H 7866   0.280   6.248   7.975 -0.7893  0.1972  1.7027
   60MOL0     H 7867   0.459   6.146   8.086  0.9388 -1.0690  1.3102
   60MOL0     H 7868   0.386   5.992   8.110  0.6143 -0.0412  0.2274
   60MOL0     H 7869   0.279   6.243   8.228 -3.2974 -0.1072 -2.4181
   60MOL0     H 7870   0.191   6.092   8.243  0.6267 -0.8032  3.0118
   60MOL0     H 7871   0.328   6.162   8.446  0.7826  2.9796 -2.1941
   60MOL0     H 7872   0.482   6.130   8.368  0.9810 -0.2602  2.2366
   60MOL0     H 7873   0.147   5.943   8.401  0.5342  0.5911 -1.0110
   60MOL0     H 7874   0.239   5.564   8.458  0.2343  1.3144 -0.1975
   60MOL0     H 7875   0.144   5.646   8.327  0.6911 -1.0622  0.0371
   60MOL0     H 7876  -0.003   5.579   8.517  1.2010 -1.4038 -1.2890
   60MOL0     H 7877  -0.005   5.752   8.502 -0.5750  0.1907 -1.4108
   60MOL0     H 7878  -0.001   5.691   8.735  1.1789  2.2697  0.5892
   60MOL0     H 7879   0.131   5.566   8.691  2.1295 -0.5077 -1.6865
   60MOL0     H 7880   0.179   5.858   8.699  2.6362 -0.0792 -3.2353
   60MOL0     H 7881   0.300   5.723   8.690 -1.1635 -1.5719 -1.0786
   60MOL0     H 7882   0.427   5.924   8.774 -1.3921  0.2378 -0.1130
   60MOL0     H 7883   0.564   6.052   8.930 -0.2442 -0.9263 -1.8557
   60MOL0     H 7884   0.672   6.402   9.070  1.0089 -0.7503 -1.4816
   60MOL0     H 7885   0.825   6.559   9.155  0.1683  0.7558  1.4597
   60MOL0     H 7886   0.989   6.678   9.281  0.3048 -0.7844 -2.1000
   60MOL0     H 7887   1.108   6.600   9.186 -0.6158  0.1125  0.1196
   60MOL0     H 7888   1.260   6.606   9.403 -0.2458 -1.2886 -1.7342
   60MOL0     H 7889   1.129   6.694   9.482 -1.4566  0.9984 -1.2567
   60MOL0     H 7890   1.146   6.875   9.321 -2.8002 -2.2983  0.0914
   60MOL0     H 7891   1.269   6.789   9.237 -3.4482 -1.0891 -1.0211
   60MOL0     H 7892   1.293   6.870   9.543 -1.3907  2.1684 -0.1203
   60MOL0     H 7893   1.422   6.802   9.436 -0.5653 -0.3763  0.4975
   60MOL0     H 7894   1.271   7.068   9.424  0.6153 -1.2295  3.0109
   60MOL0     H 7895   1.397   7.016   9.308  1.3553 -3.3641 -0.2050
   60MOL0     H 7896   1.415   7.080   9.607 -0.1418 -1.1298 -0.3946
   60MOL0     H 7897   1.486   7.180   9.483  3.6158 -1.0515 -0.6155
   60MOL0     H 7898   1.580   6.928   9.596 -0.2920 -2.5720 -1.5503
   60MOL0     H 7899   1.623   6.934   9.432 -1.0905  1.1685 -2.5938
   60MOL0     H 7900   1.804   7.031   9.572 -0.5610 -0.8416  1.7189
   60MOL0     H 7901   1.671   7.148   9.620 -0.7219 -0.3965 -1.2298
   60MOL0     H 7902   0.999   6.241   9.397  1.0427 -2.1048 -2.3069
   60MOL0     H 7903   0.831   6.087   9.303 -0.1614  0.4369  0.7127
   60MOL0     H 7904   0.358   5.871   9.262 -2.1018 -2.3049 -0.0124
   60MOL0     H 7905   0.229   5.745   9.121  1.9135 -0.0004  1.3487
   60MOL0     H 7906   0.570   5.785   7.467  1.0435 -1.3279 -0.8664
   60MOL0     H 7907   0.770   5.624   7.453  2.0694 -0.9039  0.3420
   60MOL0     H 7908   1.232   5.636   7.354  0.9333 -1.3894 -0.7012
   60MOL0     H 7909   1.464   5.533   7.315 -0.0768 -0.4647  0.0324
   60MOL0     H 7910   1.701   5.448   7.345  0.6652 -0.8925 -1.3980
   60MOL0     H 7911   1.584   5.330   7.293  0.5071 -1.5838 -0.5314
   60MOL0     H 7912   1.708   5.164   7.460  2.1820 -2.2322 -1.5253
   60MOL0     H 7913   1.787   5.204   7.307  1.3445  2.1110 -0.6353
   60MOL0     H 7914   1.869   5.233   7.585  0.5853 -1.3892 -0.9419
   60MOL0     H 7915   1.866   5.395   7.506 -4.4671 -0.4460 -2.2428
   60MOL0     H 7916   2.033   5.146   7.417  2.6744  0.7378 -0.7855
   60MOL0     H 7917   2.014   5.281   7.317 -1.4658 -2.5605 -0.9036
   60MOL0     H 7918   2.239   5.410   7.675  1.0962  0.1190  0.7173
   60MOL0     H 7919   1.466   5.386   7.709  0.1502  1.8475  1.7603
   60MOL0     H 7920   1.266   5.519   7.768  5.0613  0.2787  1.6762
   61MOL0     O 7921   8.101   2.836   7.040  0.3605  0.3116 -0.5665
   61MOL0     C 7922   8.026   2.861   7.134  0.5189 -0.9385  0.4048
   61MOL0     O 7923   8.070   2.864   7.265  0.6101  0.8404 -0.4257
   61MOL0     C 7924   8.204   2.846   7.297 -0.0150  0.6856 -1.0636
   61MOL0     C 7925   8.305   2.934   7.263 -0.0088  0.3327 -0.6263
   61MOL0     C 7926   8.431   2.921   7.319  0.1160  0.6061 -0.1229
   61MOL0     C 7927   8.458   2.807   7.397  0.4071  0.2612 -1.2521
   61MOL0     O 7928   8.581   2.806   7.464 -0.9310  0.3526  0.1634
   61MOL0     C 7929   8.610   2.726   7.582 -0.6051 -0.0338  0.3776
   61MOL0     C 7930   8.728   2.632   7.546  0.6643 -0.1952  0.2255
   61MOL0     C 7931   8.863   2.714   7.543 -0.7624  0.5860  0.1208
   61MOL0     C 7932   8.961   2.602   7.527  1.0711  0.4761  0.7911
   61MOL0     C 7933   9.099   2.658   7.492  0.2741  0.8549  0.4505
   61MOL0     C 7934   9.184   2.549   7.430 -0.5488 -0.0177 -0.6794
   61MOL0     C 7935   9.326   2.598   7.413  0.1952 -0.6546  0.5013
   61MOL0     C 7936   9.430   2.484   7.377  0.1131  0.4274  0.4960
   61MOL0     N 7937   9.418   2.431   7.247  0.4143  2.0542  0.3368
   61MOL0     C 7938   9.506   2.471   7.150  0.9608  0.0651 -0.1602
   61MOL0     C 7939   9.477   2.390   7.045 -0.5783  0.6372 -0.0318
   61MOL0     C 7940   9.548   2.376   6.913  1.0142  0.4037  0.8558
   61MOL0     C 7941   9.693   2.327   6.929 -1.0901 -1.3522  0.2574
   61MOL0     C 7942   9.699   2.201   6.993 -0.3080 -0.6803 -0.9286
   61MOL0     C 7943   9.779   2.211   7.113 -0.7283  0.5589 -0.2896
   61MOL0     O 7944   9.808   2.082   7.181 -0.3052 -1.4619 -0.7303
   61MOL0     C 7945   9.717   2.035   7.277 -0.2403 -0.2581 -0.7791
   61MOL0     C 7946   9.770   1.954   7.378 -0.2451  0.4312  0.2511
   61MOL0     C 7947   9.701   1.923   7.492  0.5584  0.8662 -0.1911
   61MOL0     C 7948   9.571   1.966   7.515 -0.1866  0.1988  0.1826
   61MOL0     C 7949   9.499   1.942   7.639  0.2109  0.2599  0.0045
   61MOL0     O 7950   9.368   1.968   7.651 -0.4271  0.2286 -0.7039
   61MOL0     C 7951   9.297   1.928   7.756 -0.3503 -0.2772  1.2035
   61MOL0     C 7952   9.293   1.791   7.793 -0.3977  0.1189  0.2885
   61MOL0     C 7953   9.228   1.759   7.903  0.1873 -0.3858 -0.9619
   61MOL0     C 7954   9.161   1.857   7.975  0.2227 -0.5346 -1.2168
   61MOL0     O 7955   9.077   1.826   8.081 -0.0775  0.2742 -0.5083
   61MOL0     C 7956   9.066   1.696   8.131  0.1046 -0.4294 -0.3136
   61MOL0     C 7957   8.947   1.674   8.232 -0.4162 -0.5154  0.0678
   61MOL0     C 7958   8.943   1.778   8.346 -1.3104 -0.0915  0.9262
   61MOL0     C 7959   9.071   1.774   8.418 -0.5815 -0.7718 -0.4936
   61MOL0     C 7960   9.057   1.827   8.570  0.5237 -0.6286  0.6135
   61MOL0     C 7961   8.975   1.726   8.665 -0.6655  0.1397  0.1682
   61MOL0     C 7962   8.976   1.805   8.796 -0.1712 -0.4419  0.0406
   61MOL0     C 7963   8.984   1.723   8.921 -0.3866 -0.1817 -0.8645
   61MOL0    Cl 7964   8.839   1.622   8.920 -0.8213 -0.3654  0.6160
   61MOL0     C 7965   9.171   1.997   7.946 -0.6814  0.4522 -0.9107
   61MOL0     C 7966   9.247   2.025   7.841 -0.1576  0.7251 -0.0965
   61MOL0     O 7967   9.561   1.886   7.721 -0.3091 -0.2577 -0.0092
   61MOL0     C 7968   9.511   2.049   7.413  0.8239  0.2025  0.1334
   61MOL0     C 7969   9.589   2.086   7.304  0.0648 -0.4355  0.3643
   61MOL0     N 7970   9.370   2.307   7.078  0.6821 -0.0864 -0.6509
   61MOL0     N 7971   9.326   2.336   7.194 -0.0975  0.4090 -0.1232
   61MOL0     C 7972   8.363   2.711   7.423  1.4966  0.4837 -0.9738
   61MOL0     C 7973   8.230   2.736   7.387 -0.1484 -0.2198 -0.4622
   61MOL0     C 7974   7.875   2.865   7.107 -0.2972 -0.1149  0.3287
   61MOL0     C 7975   7.831   2.834   6.975  0.0679  0.7736 -0.0703
   61MOL0     C 7976   7.698   2.825   6.943 -0.3056 -0.6206  0.5426
   61MOL0     C 7977   7.597   2.845   7.038 -0.6919  0.4200  0.2920
   61MOL0     O 7978   7.470   2.821   6.997 -0.0803 -0.2375 -0.2697
   61MOL0     C 7979   7.355   2.805   7.090 -0.9701 -0.2335  0.0983
   61MOL0     C 7980   7.240   2.748   7.013  0.2882  0.3508 -0.6752
   61MOL0     C 7981   7.268   2.625   6.933  0.1228  0.4176  0.9025
   61MOL0     C 7982   7.357   2.514   6.979 -0.5525  0.8156 -0.2922
   61MOL0     C 7983   7.316   2.474   7.113  0.5739 -1.4745  0.8024
   61MOL0     C 7984   7.280   2.463   7.231 -0.6334  0.2980  0.1025
   61MOL0     C 7985   7.632   2.866   7.172  0.3063  0.6433  0.9777
   61MOL0     C 7986   7.770   2.882   7.206  0.7030 -0.7735  0.2519
   61MOL0     H 7987   8.273   3.011   7.194  3.0438  0.5799 -1.9559
   61MOL0     H 7988   8.507   2.999   7.310  0.3456  0.2924 -0.9235
   61MOL0     H 7989   8.536   2.651   7.610  3.2984 -4.5541 -0.1461
   61MOL0     H 7990   8.637   2.786   7.669 -0.9590  3.4001 -1.6898
   61MOL0     H 7991   8.709   2.581   7.451  3.0957 -0.3070 -0.2530
   61MOL0     H 7992   8.728   2.562   7.631 -0.0215  0.5975  0.9011
   61MOL0     H 7993   8.875   2.773   7.634  0.2526 -0.4073  0.6519
   61MOL0     H 7994   8.863   2.781   7.457  2.9081  0.7748  0.1054
   61MOL0     H 7995   8.952   2.542   7.619 -3.0169  1.1264  0.9855
   61MOL0     H 7996   8.932   2.538   7.444 -1.1653  0.4627  1.5080
   61MOL0     H 7997   9.148   2.697   7.582  2.7435  1.1300 -0.9185
   61MOL0     H 7998   9.087   2.742   7.423 -0.8826  1.1475  0.9855
   61MOL0     H 7999   9.147   2.526   7.329 -1.7092 -1.1365 -0.0435
   61MOL0     H 8000   9.182   2.461   7.495  2.6028  0.1849 -0.1532
   61MOL0     H 8001   9.329   2.675   7.334  2.7534  1.8572  2.7764
   61MOL0     H 8002   9.363   2.643   7.506  1.9929 -0.4341 -0.2815
   61MOL0     H 8003   9.402   2.403   7.446 -0.1781 -0.7420 -0.9469
   61MOL0     H 8004   9.535   2.509   7.390  0.3395  0.4430 -1.1573
   61MOL0     H 8005   9.599   2.526   7.161  0.6134  0.5936  0.2002
   61MOL0     H 8006   9.545   2.476   6.868  1.1210  0.2081  0.4031
   61MOL0     H 8007   9.497   2.298   6.856  0.8705  0.4821  0.8779
   61MOL0     H 8008   9.742   2.416   6.972 -0.9174 -0.4011 -1.7784
   61MOL0     H 8009   9.741   2.321   6.831 -0.4854  2.2100  0.1682
   61MOL0     H 8010   9.602   2.158   7.021  0.4664 -0.5755  2.2801
   61MOL0     H 8011   9.747   2.125   6.930  1.2973  0.8102 -1.5847
   61MOL0     H 8012   9.725   2.267   7.190 -1.1488  0.5593 -0.5808
   61MOL0     H 8013   9.874   2.251   7.077 -0.8708 -0.8540 -2.3889
   61MOL0     H 8014   9.869   1.913   7.364 -0.4227  0.3406 -0.8305
   61MOL0     H 8015   9.750   1.856   7.562 -0.9218  0.1728  0.2489
   61MOL0     H 8016   9.344   1.716   7.733 -1.4588 -1.1404  0.9142
   61MOL0     H 8017   9.228   1.652   7.922  3.4743 -0.3826 -0.3996
   61MOL0     H 8018   9.166   1.672   8.169 -0.1680  0.1586  0.8325
   61MOL0     H 8019   9.034   1.621   8.059  1.1621 -0.1493 -1.1096
   61MOL0     H 8020   8.953   1.570   8.267  0.2994 -0.2057  0.9028
   61MOL0     H 8021   8.850   1.690   8.185 -1.1246  3.6130  2.4798
   61MOL0     H 8022   8.857   1.761   8.411 -0.9831 -0.4038  1.2815
   61MOL0     H 8023   8.916   1.875   8.305 -5.5106 -1.9388 -1.3003
   61MOL0     H 8024   9.105   1.671   8.435 -0.1586 -0.6016 -0.3036
   61MOL0     H 8025   9.149   1.823   8.359 -0.1126 -1.4618 -0.4671
   61MOL0     H 8026   9.003   1.922   8.567 -2.1455 -2.0283  0.9824
   61MOL0     H 8027   9.156   1.856   8.608  0.3590  0.8135 -0.0072
   61MOL0     H 8028   9.034   1.634   8.670  0.3757  0.7243 -0.6514
   61MOL0     H 8029   8.872   1.709   8.634 -0.0668 -1.9860 -0.8119
   61MOL0     H 8030   9.069   1.862   8.797  1.0359 -2.2320 -1.7499
   61MOL0     H 8031   8.878   1.852   8.797 -0.7529 -1.6055 -0.1252
   61MOL0     H 8032   8.986   1.787   9.009  1.7955  1.5713 -2.0717
   61MOL0     H 8033   9.077   1.665   8.920 -0.3725 -0.9315  5.2282
   61MOL0     H 8034   9.130   2.067   8.018 -1.2992  2.2376 -2.8851
   61MOL0     H 8035   9.269   2.129   7.821 -1.4243  1.0268  0.0517
   61MOL0     H 8036   9.409   2.084   7.423 -0.3943 -2.9585  0.1149
   61MOL0     H 8037   9.547   2.158   7.234 -0.3535 -3.9238 -3.3703
   61MOL0     H 8038   8.390   2.624   7.481 -2.3588 -1.0375 -1.1192
   61MOL0     H 8039   8.142   2.677   7.411 -0.1665  0.0685  0.2150
   61MOL0     H 8040   7.905   2.814   6.898  0.5431  1.0049  0.3296
   61MOL0     H 8041   7.665   2.786   6.847 -4.3827  3.8421 -0.2854
   61MOL0     H 8042   7.329   2.907   7.122  3.5548  0.7919  1.1235
   61MOL0     H 8043   7.374   2.735   7.171 -2.6168  0.3849  1.0850
   61MOL0     H 8044   7.154   2.739   7.080  0.7643  0.7806  0.0015
   61MOL0     H 8045   7.216   2.830   6.944 -2.0016  1.1265  0.9379
   61MOL0     H 8046   7.300   2.652   6.831  3.2780 -1.8323  1.1536
   61MOL0     H 8047   7.168   2.583   6.922  0.9872 -1.2176 -1.3839
   61MOL0     H 8048   7.350   2.424   6.917 -1.6234 -0.6510  1.8494
   61MOL0     H 8049   7.460   2.551   6.986 -0.2900 -0.2563  2.7449
   61MOL0     H 8050   7.251   2.458   7.334  0.2623  1.0228  0.3929
   61MOL0     H 8051   7.551   2.887   7.240 -1.7989 -0.7751 -0.9515
   61MOL0     H 8052   7.796   2.883   7.312  1.5875  1.1105  0.0472
   62MOL0     O 8053  10.151   0.451   3.276 -1.2406  0.7320  0.8728
   62MOL0     C 8054  10.108   0.431   3.164 -0.2227 -0.2607  0.2165
   62MOL0     O 8055   9.983   0.381   3.147  0.6759 -0.0045  0.4607
   62MOL0     C 8056   9.886   0.365   3.246  0.0017 -0.0067 -0.5612
   62MOL0     C 8057   9.755   0.406   3.213 -1.2867  0.3809 -0.6692
   62MOL0     C 8058   9.652   0.414   3.302  0.4400 -0.2137  0.0739
   62MOL0     C 8059   9.667   0.367   3.432  0.6285  0.5063  0.2983
   62MOL0     O 8060   9.567   0.383   3.527  0.2835  0.1643 -0.4057
   62MOL0     C 8061   9.431   0.393   3.490  0.3620  0.1361 -0.0266
   62MOL0     C 8062   9.346   0.301   3.578  0.0671  0.6879  0.1366
   62MOL0     C 8063   9.350   0.148   3.566 -1.0008 -0.6370 -0.6895
   62MOL0     C 8064   9.301   0.075   3.427  0.6729  0.0815 -0.7628
   62MOL0     C 8065   9.155   0.104   3.408 -0.4174  0.0874 -0.5677
   62MOL0     C 8066   9.080   0.010   3.310  0.1380  0.1580 -0.7335
   62MOL0     C 8067   8.930   0.043   3.297 -0.3996 -0.4597  0.0114
   62MOL0     C 8068   8.875  -0.039   3.181 -0.0766  1.0221 -0.6190
   62MOL0     N 8069   8.895   0.014   3.054 -1.0045  0.0261 -1.0305
   62MOL0     C 8070   8.814   0.112   3.000  0.0591 -0.5370  0.3313
   62MOL0     C 8071   8.870   0.124   2.876 -0.6604  0.6203 -0.5834
   62MOL0     C 8072   8.812   0.213   2.776 -0.4682  0.6719 -0.0667
   62MOL0     C 8073   8.857   0.353   2.802 -0.5175 -0.3885 -0.1024
   62MOL0     C 8074   8.778   0.451   2.722  0.8628  0.1134 -0.0249
   62MOL0     C 8075   8.831   0.598   2.741  0.1581 -0.1013  0.1636
   62MOL0     O 8076   8.967   0.610   2.728  0.3901  0.2772  0.6612
   62MOL0     C 8077   9.049   0.721   2.761  0.3621  0.0913 -0.1051
   62MOL0     C 8078   8.999   0.839   2.813 -0.3595  0.2861 -0.3472
   62MOL0     C 8079   9.094   0.937   2.852 -0.2025 -0.3961  0.8639
   62MOL0     C 8080   9.235   0.914   2.825  0.2973 -0.7523  1.1804
   62MOL0     C 8081   9.340   1.022   2.859  0.4633  0.1768  0.2441
   62MOL0     O 8082   9.456   1.007   2.784  0.2867 -0.1237 -0.3370
   62MOL0     C 8083   9.537   1.113   2.786  0.7615  0.2585 -0.3522
   62MOL0     C 8084   9.515   1.209   2.689  0.2754 -0.2470  0.2013
   62MOL0     C 8085   9.598   1.325   2.697  0.7040  0.4064 -0.8735
   62MOL0     C 8086   9.707   1.333   2.792 -0.4838 -0.8992 -0.0024
   62MOL0     O 8087   9.765   1.454   2.816 -0.1134 -0.1625 -0.0175
   62MOL0     C 8088   9.701   1.584   2.785 -0.1659 -0.2616 -0.2094
   62MOL0     C 8089   9.789   1.700   2.837 -0.2638 -0.3922 -0.3558
   62MOL0     C 8090   9.718   1.836   2.824 -0.3609 -0.3221 -0.5129
   62MOL0     C 8091   9.813   1.951   2.789 -0.4680  1.1447  0.4351
   62MOL0     C 8092   9.751   2.093   2.802  0.4913 -0.3927  0.3007
   62MOL0     C 8093   9.833   2.206   2.759  0.6089 -0.0975 -0.1545
   62MOL0     C 8094   9.967   2.207   2.829  0.0706  0.0165 -0.4242
   62MOL0     C 8095   9.953   2.259   2.975  0.6063  0.0997  1.2730
   62MOL0    Cl 8096   9.887   2.430   2.969  0.1244  0.1847  0.5419
   62MOL0     C 8097   9.727   1.228   2.877  0.1556  0.5922 -0.1144
   62MOL0     C 8098   9.645   1.113   2.870  0.5598 -0.7821  0.3552
   62MOL0     O 8099   9.309   1.118   2.930  0.1374  0.3412 -0.4630
   62MOL0     C 8100   9.279   0.796   2.771 -0.6688 -0.5592  0.5441
   62MOL0     C 8101   9.185   0.702   2.736  0.5578  0.9711 -0.6692
   62MOL0     N 8102   8.972   0.030   2.853  0.2517  0.2680  0.1046
   62MOL0     N 8103   8.990  -0.031   2.966  0.8901 -0.3258  0.0234
   62MOL0     C 8104   9.798   0.332   3.470  0.5561 -0.4424  0.2558
   62MOL0     C 8105   9.911   0.335   3.378  0.4052 -0.7039  0.3032
   62MOL0     C 8106  10.190   0.482   3.051 -0.0698 -0.3867 -0.4649
   62MOL0     C 8107  10.155   0.448   2.921 -0.2040 -0.8918  0.3151
   62MOL0     C 8108  10.229   0.502   2.815 -1.0644 -0.1554 -0.1500
   62MOL0     C 8109  10.341   0.589   2.830 -0.8173 -0.7537 -0.0568
   62MOL0     O 8110  10.412   0.658   2.736  0.5908  0.2238 -0.3996
   62MOL0     C 8111  10.493   0.578   2.651 -0.2710  0.1839 -0.3699
   62MOL0     C 8112  10.432   0.579   2.513  0.3351 -0.1952  0.5346
   62MOL0     C 8113  10.525   0.532   2.400  0.1988 -0.0951  0.4547
   62MOL0     C 8114  10.472   0.554   2.263 -0.2639 -0.6669 -0.4881
   62MOL0     C 8115  10.435   0.699   2.257  1.3118 -0.3703 -0.4863
   62MOL0     C 8116  10.392   0.803   2.225  0.6772 -0.4816 -0.6659
   62MOL0     C 8117  10.376   0.616   2.963 -0.0976  1.0416  0.6753
   62MOL0     C 8118  10.304   0.564   3.069 -0.7721 -0.4651  0.1518
   62MOL0     H 8119   9.734   0.433   3.110  0.5534  1.0223 -0.9136
   62MOL0     H 8120   9.556   0.454   3.272 -0.6216 -0.8549  2.4032
   62MOL0     H 8121   9.408   0.368   3.386  1.6620 -1.3877  0.0035
   62MOL0     H 8122   9.401   0.495   3.514 -3.7604 -1.3766  2.4514
   62MOL0     H 8123   9.240   0.321   3.560  0.7766  2.7010 -2.5663
   62MOL0     H 8124   9.350   0.331   3.683 -3.8214 -4.1713  2.0655
   62MOL0     H 8125   9.291   0.114   3.652  0.8135 -0.1044  0.8282
   62MOL0     H 8126   9.451   0.114   3.590 -0.6127 -0.0213 -1.4079
   62MOL0     H 8127   9.352   0.123   3.343  0.4395  0.4193 -0.7186
   62MOL0     H 8128   9.320  -0.032   3.425  0.3644 -0.1350 -5.8059
   62MOL0     H 8129   9.148   0.209   3.378  0.5177  0.6225  0.9398
   62MOL0     H 8130   9.106   0.085   3.505 -0.9364 -0.1553 -0.8746
   62MOL0     H 8131   9.089  -0.093   3.347  3.5818  0.2217 -1.0253
   62MOL0     H 8132   9.129   0.007   3.212 -1.0995 -3.0274 -1.3736
   62MOL0     H 8133   8.886   0.031   3.397  2.3116  4.0281  2.0447
   62MOL0     H 8134   8.903   0.147   3.277 -4.1404 -1.2837  0.1987
   62MOL0     H 8135   8.767  -0.042   3.195  0.1179  1.8617  1.2245
   62MOL0     H 8136   8.908  -0.143   3.187 -1.2989  0.6005 -0.8678
   62MOL0     H 8137   8.728   0.176   3.019  1.5033  1.2774  0.9948
   62MOL0     H 8138   8.705   0.195   2.790 -0.4059  0.6685  0.4044
   62MOL0     H 8139   8.845   0.166   2.682  1.9904  0.1138  0.9781
   62MOL0     H 8140   8.964   0.377   2.797 -0.3231 -1.3288 -0.6577
   62MOL0     H 8141   8.831   0.376   2.906 -3.3876  0.8035 -0.9845
   62MOL0     H 8142   8.778   0.419   2.617  1.4448 -0.0650  0.0255
   62MOL0     H 8143   8.672   0.448   2.749  0.4450  2.5852 -1.1664
   62MOL0     H 8144   8.796   0.639   2.836  0.7158 -2.6808  1.5937
   62MOL0     H 8145   8.780   0.659   2.666  1.0739 -1.6497 -1.8361
   62MOL0     H 8146   8.894   0.865   2.822 -0.1874  1.3374 -1.1953
   62MOL0     H 8147   9.066   1.039   2.876  2.1216  0.9046 -1.4338
   62MOL0     H 8148   9.428   1.213   2.625 -0.3199  5.4276  0.7754
   62MOL0     H 8149   9.566   1.415   2.645  0.1904 -0.5158 -2.2059
   62MOL0     H 8150   9.601   1.588   2.829  0.2755 -0.0011  0.8071
   62MOL0     H 8151   9.690   1.596   2.676  1.6946  1.7247 -0.2478
   62MOL0     H 8152   9.885   1.692   2.785  0.5250  0.2705  0.9445
   62MOL0     H 8153   9.815   1.686   2.942  0.0069  2.1050 -0.0279
   62MOL0     H 8154   9.679   1.864   2.922  2.8167  1.3717  0.3982
   62MOL0     H 8155   9.636   1.846   2.752 -1.2486  1.9720  0.7180
   62MOL0     H 8156   9.905   1.939   2.847  0.6508  0.2942 -1.4305
   62MOL0     H 8157   9.852   1.930   2.689  1.8373  0.2171  1.4597
   62MOL0     H 8158   9.719   2.121   2.903  0.8151  0.5311  0.1595
   62MOL0     H 8159   9.662   2.093   2.738  1.1893  2.8973 -0.8765
   62MOL0     H 8160   9.787   2.304   2.772 -3.7465 -1.6854 -1.7271
   62MOL0     H 8161   9.845   2.186   2.652 -2.2207  1.9470 -0.9571
   62MOL0     H 8162  10.024   2.113   2.836 -1.1774 -0.8618 -1.5757
   62MOL0     H 8163  10.025   2.283   2.776  0.4930  0.7220  0.9946
   62MOL0     H 8164  10.044   2.247   3.036 -0.8149 -0.3884  3.3916
   62MOL0     H 8165   9.884   2.197   3.032  0.7056  0.2293  1.5370
   62MOL0     H 8166   9.808   1.239   2.949 -2.5568  1.8953  2.9627
   62MOL0     H 8167   9.661   1.032   2.941  3.3102 -2.2793 -1.7697
   62MOL0     H 8168   9.385   0.779   2.757 -0.6869  0.8023 -1.6817
   62MOL0     H 8169   9.206   0.603   2.697  0.3270 -0.0836  1.6866
   62MOL0     H 8170   9.818   0.311   3.575  0.8852  0.8559  0.4594
   62MOL0     H 8171  10.009   0.307   3.414 -0.0472  0.9085  3.1570
   62MOL0     H 8172  10.071   0.382   2.899  0.5958 -2.1083  0.8286
   62MOL0     H 8173  10.212   0.477   2.711  2.5976 -3.6103 -0.1960
   62MOL0     H 8174  10.497   0.475   2.686 -0.6405  0.9319  2.0414
   62MOL0     H 8175  10.592   0.626   2.658 -0.6643  0.8030  1.7532
   62MOL0     H 8176  10.350   0.506   2.517  0.7629 -0.7584 -0.5021
   62MOL0     H 8177  10.397   0.682   2.501 -1.4024 -0.7599  0.4372
   62MOL0     H 8178  10.547   0.426   2.413 -1.9155 -0.5644  0.4720
   62MOL0     H 8179  10.623   0.581   2.411  0.2473  0.4943 -1.9361
   62MOL0     H 8180  10.541   0.530   2.181  0.1142  1.3590 -0.8276
   62MOL0     H 8181  10.388   0.486   2.246 -0.0216 -0.4548 -2.9003
   62MOL0     H 8182  10.354   0.898   2.192 -3.4860 -0.5801  2.9794
   62MOL0     H 8183  10.462   0.680   2.982  1.3115 -0.5351 -0.1803
   62MOL0     H 8184  10.334   0.589   3.170  2.8959 -1.9046 -0.4291
   63MOL0     O 8185   5.421   2.966   9.690 -0.7223 -0.4741  0.7940
   63MOL0     C 8186   5.390   2.968   9.808  0.7502  0.0997  0.8334
   63MOL0     O 8187   5.279   3.024   9.859  0.2813 -0.8463 -0.2694
   63MOL0     C 8188   5.229   3.128   9.789  0.1055 -0.0773  0.6733
   63MOL0     C 8189   5.158   3.115   9.665 -0.1832  0.3552  0.7408
   63MOL0     C 8190   5.103   3.226   9.608 -0.4046 -0.5769  0.1974
   63MOL0     C 8191   5.123   3.356   9.656 -0.2168  0.9396  1.2561
   63MOL0     O 8192   5.059   3.461   9.590  0.2547 -0.5037 -0.3564
   63MOL0     C 8193   5.115   3.594   9.619  0.6759 -0.0419  0.5153
   63MOL0     C 8194   5.060   3.693   9.512  0.7459  0.1246 -0.0402
   63MOL0     C 8195   5.047   3.839   9.566 -1.0064 -0.1688 -0.5582
   63MOL0     C 8196   4.912   3.861   9.635 -0.1871  0.1424 -0.1930
   63MOL0     C 8197   4.886   4.008   9.652  0.1445  0.2151 -0.0678
   63MOL0     C 8198   4.747   4.045   9.712 -0.0149 -0.7747  0.7372
   63MOL0     C 8199   4.694   4.188   9.685 -1.0206 -0.2469  0.8721
   63MOL0     C 8200   4.797   4.305   9.717  0.9050 -0.5758 -0.6804
   63MOL0     N 8201   4.745   4.443   9.716  0.7252 -2.1429 -0.7714
   63MOL0     C 8202   4.614   4.483   9.681  1.0656 -0.3314 -0.5642
   63MOL0     C 8203   4.607   4.615   9.696 -0.8664  0.6262  0.4806
   63MOL0     C 8204   4.489   4.697   9.677  0.2610 -0.3461 -0.0244
   63MOL0     C 8205   4.403   4.709   9.796 -0.2613 -0.4939 -0.5913
   63MOL0     C 8206   4.452   4.823   9.887 -0.5362  0.7919 -0.2954
   63MOL0     C 8207   4.378   4.816  10.021 -0.7914  0.7123 -0.3887
   63MOL0     O 8208   4.384   4.950  10.072 -0.1523 -0.6357  0.0035
   63MOL0     C 8209   4.282   5.036  10.045 -0.1546 -0.1068  0.4935
   63MOL0     C 8210   4.257   5.135  10.135  0.4100  0.3952 -0.3029
   63MOL0     C 8211   4.150   5.226  10.126  0.8508  0.9096 -0.7776
   63MOL0     C 8212   4.065   5.219  10.018  0.1025  0.1790 -0.2039
   63MOL0     C 8213   3.953   5.304  10.006  0.2339 -0.9843 -0.4790
   63MOL0     O 8214   3.884   5.303   9.884  0.5725  1.1495 -0.4128
   63MOL0     C 8215   3.755   5.359   9.877 -0.0238  0.3473  0.1562
   63MOL0     C 8216   3.710   5.419   9.754 -0.7679 -1.2796 -0.0373
   63MOL0     C 8217   3.584   5.478   9.746 -0.6696 -0.0208  0.2422
   63MOL0     C 8218   3.499   5.468   9.850 -0.8754 -0.9848  0.0295
   63MOL0     O 8219   3.381   5.536   9.861 -0.0839 -0.3245 -0.2062
   63MOL0     C 8220   3.296   5.506   9.751  0.9298 -0.2305 -0.7814
   63MOL0     C 8221   3.164   5.600   9.762 -0.0466  1.1230  0.3045
   63MOL0     C 8222   3.192   5.743   9.805  0.4480 -0.2009 -0.6145
   63MOL0     C 8223   3.257   5.821   9.696  0.9550 -0.0189  0.3143
   63MOL0     C 8224   3.171   5.841   9.572 -0.0091  1.6729  0.4244
   63MOL0     C 8225   3.208   5.971   9.481 -0.1297  0.0453  1.0651
   63MOL0     C 8226   3.107   6.006   9.372 -0.5904  0.5691  0.0244
   63MOL0     C 8227   3.075   5.899   9.270 -0.4291  0.0374 -0.4806
   63MOL0    Cl 8228   3.230   5.839   9.206 -0.0737 -0.5498 -0.6443
   63MOL0     C 8229   3.539   5.409   9.966  0.0303  0.6476 -0.3029
   63MOL0     C 8230   3.665   5.350   9.979  0.6150 -1.1125  0.6186
   63MOL0     O 8231   3.936   5.393  10.093 -0.1337 -0.1675 -0.0655
   63MOL0     C 8232   4.080   5.114   9.924 -0.0429 -0.5339  0.1969
   63MOL0     C 8233   4.188   5.017   9.936  0.4210 -0.5968  0.1688
   63MOL0     N 8234   4.733   4.661   9.727 -0.2212 -0.5750 -0.8895
   63MOL0     N 8235   4.805   4.558   9.743 -0.1457 -0.0619 -0.4890
   63MOL0     C 8236   5.186   3.368   9.779 -0.0654  0.2073 -0.3161
   63MOL0     C 8237   5.243   3.249   9.840  0.6914  0.1268 -0.1007
   63MOL0     C 8238   5.464   2.867   9.892  0.4814  0.0998 -0.7540
   63MOL0     C 8239   5.595   2.832   9.862  0.0580  0.8807  0.7002
   63MOL0     C 8240   5.654   2.722   9.927  0.6109 -0.5357  0.7463
   63MOL0     C 8241   5.589   2.647  10.020  1.3399 -0.6075 -1.1295
   63MOL0     O 8242   5.647   2.525  10.060 -0.4513  0.0398 -0.4988
   63MOL0     C 8243   5.565   2.425  10.124  0.1252  0.2500 -0.3696
   63MOL0     C 8244   5.594   2.422  10.273  0.9530 -0.3730  0.0897
   63MOL0     C 8245   5.737   2.412  10.329  0.1567 -0.0226 -0.4090
   63MOL0     C 8246   5.802   2.280  10.264  0.3258 -0.4860 -0.5801
   63MOL0     C 8247   5.932   2.269  10.324 -0.5633 -0.5220 -0.2037
   63MOL0     C 8248   6.038   2.248  10.377 -0.2594 -0.2616 -0.1636
   63MOL0     C 8249   5.450   2.679  10.052  0.3519  0.6935  0.5152
   63MOL0     C 8250   5.390   2.787   9.985 -0.1282  0.4646  0.0701
   63MOL0     H 8251   5.167   3.014   9.626  2.7170  1.2726 -1.3219
   63MOL0     H 8252   5.053   3.207   9.513  1.5304 -2.0379 -0.5952
   63MOL0     H 8253   5.224   3.588   9.618  0.6374 -0.7622 -0.2381
   63MOL0     H 8254   5.082   3.626   9.718 -1.4762 -3.3501  1.0206
   63MOL0     H 8255   4.964   3.657   9.474 -0.2490  2.4537  0.1211
   63MOL0     H 8256   5.129   3.699   9.427 -0.2376  0.1602 -0.8559
   63MOL0     H 8257   5.052   3.911   9.484 -3.3662 -0.1657 -0.7577
   63MOL0     H 8258   5.136   3.862   9.626 -2.0256  1.3184  0.4481
   63MOL0     H 8259   4.838   3.824   9.564 -0.9624 -1.7797  1.4972
   63MOL0     H 8260   4.902   3.805   9.729  0.6364  3.4214  2.0258
   63MOL0     H 8261   4.911   4.064   9.561  0.0938 -1.0600 -0.8865
   63MOL0     H 8262   4.964   4.029   9.726  0.6678  0.3698 -0.6574
   63MOL0     H 8263   4.766   4.040   9.819  2.8005 -1.1871  0.2950
   63MOL0     H 8264   4.678   3.967   9.678 -0.2562  0.0188 -0.6804
   63MOL0     H 8265   4.669   4.199   9.579 -1.9780  1.1590  1.2182
   63MOL0     H 8266   4.600   4.215   9.733 -2.7882 -0.2730 -2.3254
   63MOL0     H 8267   4.868   4.304   9.634  1.9804  3.1674 -0.0035
   63MOL0     H 8268   4.847   4.282   9.811 -0.5314  3.1097  1.1821
   63MOL0     H 8269   4.527   4.424   9.654  1.5943 -1.1426 -0.5611
   63MOL0     H 8270   4.430   4.648   9.598  0.4903 -0.8773  0.1351
   63MOL0     H 8271   4.526   4.795   9.644  2.3338 -0.6903  1.1297
   63MOL0     H 8272   4.402   4.615   9.851  1.6068 -0.9634 -1.2896
   63MOL0     H 8273   4.306   4.748   9.763 -0.6642 -2.3750 -1.7578
   63MOL0     H 8274   4.561   4.813   9.891 -0.6368 -2.3295 -2.1363
   63MOL0     H 8275   4.433   4.911   9.825 -1.5700  0.1823 -0.8664
   63MOL0     H 8276   4.427   4.741  10.084 -3.2987 -0.9213 -0.2699
   63MOL0     H 8277   4.273   4.787  10.012 -0.7062  0.5551 -0.8885
   63MOL0     H 8278   4.312   5.144  10.228 -0.5409 -0.7749  0.4074
   63MOL0     H 8279   4.152   5.304  10.201  2.6981 -0.3523  0.5630
   63MOL0     H 8280   3.790   5.436   9.683 -0.6813  1.6761  0.6587
   63MOL0     H 8281   3.560   5.539   9.659  0.3849 -0.4140 -0.3420
   63MOL0     H 8282   3.267   5.402   9.735 -1.2677  0.3269 -0.7081
   63MOL0     H 8283   3.353   5.532   9.661 -0.1264  0.3720 -1.2934
   63MOL0     H 8284   3.096   5.538   9.822  0.3843  0.1532 -0.1797
   63MOL0     H 8285   3.122   5.592   9.662 -0.1081 -0.8373  0.4499
   63MOL0     H 8286   3.256   5.739   9.894  0.7546  3.0612 -0.5847
   63MOL0     H 8287   3.098   5.787   9.838  1.7048  0.7802  1.9651
   63MOL0     H 8288   3.269   5.924   9.733 -0.6374  0.6463 -0.9065
   63MOL0     H 8289   3.355   5.778   9.674  1.4985  1.5397 -0.4710
   63MOL0     H 8290   3.064   5.855   9.591 -0.4486 -1.5588  0.9295
   63MOL0     H 8291   3.172   5.751   9.508  1.2214 -0.4791  3.2745
   63MOL0     H 8292   3.306   5.947   9.439 -1.8279 -1.7257 -2.2332
   63MOL0     H 8293   3.212   6.059   9.547 -1.6069 -0.0640  1.3372
   63MOL0     H 8294   3.012   6.036   9.418 -0.3644 -1.1381  1.7220
   63MOL0     H 8295   3.151   6.095   9.326  1.4339  0.4696  1.6683
   63MOL0     H 8296   3.015   5.933   9.186  0.2521  1.4336 -0.4368
   63MOL0     H 8297   3.019   5.816   9.314 -3.1250  1.0058 -1.8461
   63MOL0     H 8298   3.479   5.426  10.055  2.0253  3.8725  0.6261
   63MOL0     H 8299   3.698   5.308  10.074 -2.1576 -2.9069  0.8861
   63MOL0     H 8300   4.018   5.089   9.839 -0.4622  0.0215  0.3317
   63MOL0     H 8301   4.196   4.933   9.869  1.9970 -1.4960  1.4235
   63MOL0     H 8302   5.205   3.467   9.821  0.2752  0.8320 -1.8429
   63MOL0     H 8303   5.288   3.246   9.938  2.4082 -3.2554 -0.8397
   63MOL0     H 8304   5.643   2.894   9.788 -2.7943  1.5975 -0.6806
   63MOL0     H 8305   5.759   2.698   9.908  1.0817  1.7714  0.2148
   63MOL0     H 8306   5.597   2.326  10.088 -0.3098  0.4142 -1.2311
   63MOL0     H 8307   5.461   2.433  10.094 -1.1860 -2.5933  2.7965
   63MOL0     H 8308   5.550   2.509  10.324  1.1951 -1.6738  2.6603
   63MOL0     H 8309   5.532   2.343  10.316  0.3289  0.0858  0.0611
   63MOL0     H 8310   5.726   2.415  10.438  0.9268  2.0037 -0.3506
   63MOL0     H 8311   5.794   2.497  10.290 -2.9543  2.8461  0.8366
   63MOL0     H 8312   5.743   2.190  10.282 -1.6007  0.7380 -0.4485
   63MOL0     H 8313   5.824   2.299  10.159  2.9083  1.9913  0.2755
   63MOL0     H 8314   6.130   2.235  10.430  0.1739 -1.4020 -1.1470
   63MOL0     H 8315   5.388   2.618  10.118  0.7966 -0.8694 -0.4497
   63MOL0     H 8316   5.287   2.809  10.009 -0.2596 -0.1220  0.0462
   64MOL0     O 8317   9.191   1.300  10.874 -0.3113  0.1470  0.3339
   64MOL0     C 8318   9.312   1.283  10.848  0.6586  0.6807 -0.0347
   64MOL0     O 8319   9.398   1.384  10.810  0.2065  0.4913  0.3626
   64MOL0     C 8320   9.331   1.502  10.768  0.1215 -0.2465  0.0054
   64MOL0     C 8321   9.298   1.587  10.871 -0.0020  0.2882  0.3185
   64MOL0     C 8322   9.241   1.714  10.846  0.9822  0.0997 -0.0763
   64MOL0     C 8323   9.202   1.749  10.713 -0.0667  0.4623 -0.7405
   64MOL0     O 8324   9.155   1.876  10.711 -0.6320 -0.0768  0.1946
   64MOL0     C 8325   9.021   1.897  10.661  0.2499  0.2974 -0.3627
   64MOL0     C 8326   9.005   2.025  10.576 -1.6574  0.4588 -1.0040
   64MOL0     C 8327   8.866   2.043  10.512  0.3500  0.2938  0.0332
   64MOL0     C 8328   8.856   2.168  10.416  0.3940 -0.5332  0.0329
   64MOL0     C 8329   8.711   2.188  10.357 -0.0594  0.8636 -0.0110
   64MOL0     C 8330   8.603   2.220  10.470 -0.4739  0.6443  0.5622
   64MOL0     C 8331   8.467   2.282  10.418  0.1291  0.6170 -0.3848
   64MOL0     C 8332   8.477   2.393  10.314 -0.3777  0.4214 -0.8314
   64MOL0     N 8333   8.360   2.455  10.255 -0.1604  0.0464  0.1410
   64MOL0     C 8334   8.272   2.559  10.306 -0.1621  0.1343 -0.6759
   64MOL0     C 8335   8.181   2.595  10.208  0.1172 -0.6005  0.2697
   64MOL0     C 8336   8.064   2.698  10.211 -1.2161  0.8028 -0.4291
   64MOL0     C 8337   7.937   2.632  10.261  0.8151 -0.0005 -0.4448
   64MOL0     C 8338   7.816   2.733  10.269 -0.5478 -1.1819  0.1780
   64MOL0     C 8339   7.679   2.674  10.271  0.3939  0.4966  0.6421
   64MOL0     O 8340   7.646   2.621  10.396  0.1673  0.7271  0.7380
   64MOL0     C 8341   7.518   2.564  10.424  0.1654  0.1624  1.0016
   64MOL0     C 8342   7.489   2.534  10.560  0.3692  0.4366 -0.0284
   64MOL0     C 8343   7.377   2.463  10.592 -0.4638  0.3608 -0.1291
   64MOL0     C 8344   7.289   2.412  10.489 -0.0672  0.1003 -0.0644
   64MOL0     C 8345   7.164   2.351  10.525  0.7132 -0.4340  0.3346
   64MOL0     O 8346   7.146   2.324  10.664 -0.2910  0.2399  0.2444
   64MOL0     C 8347   7.043   2.237  10.698 -0.5007  0.2407  0.4941
   64MOL0     C 8348   6.959   2.269  10.801  0.3184  0.4463  0.6296
   64MOL0     C 8349   6.845   2.194  10.831  0.4572  1.2153 -0.5144
   64MOL0     C 8350   6.815   2.070  10.759  0.7071  0.1936  0.7874
   64MOL0     O 8351   6.700   1.999  10.790  0.4601 -0.0151  0.4338
   64MOL0     C 8352   6.618   1.952  10.677 -1.4834  0.4251  1.0276
   64MOL0     C 8353   6.478   1.943  10.708  1.4931  0.9000 -0.5765
   64MOL0     C 8354   6.403   1.865  10.597 -0.3076  0.1089  0.1657
   64MOL0     C 8355   6.249   1.853  10.620 -0.4079  0.2400 -0.1745
   64MOL0     C 8356   6.172   1.765  10.526  0.0640  0.3886  0.4523
   64MOL0     C 8357   6.026   1.764  10.562  0.1322  0.2931  0.1259
   64MOL0     C 8358   5.959   1.899  10.573  0.0039 -0.2020 -0.2363
   64MOL0     C 8359   5.814   1.879  10.591  0.5879 -0.0223  0.4310
   64MOL0    Cl 8360   5.723   2.026  10.608 -0.0944  0.0201 -0.3806
   64MOL0     C 8361   6.910   2.043  10.652  1.1837  0.5932 -0.4927
   64MOL0     C 8362   7.027   2.120  10.626  0.0122 -0.3121  0.0255
   64MOL0     O 8363   7.087   2.304  10.437 -0.1459  0.2023 -0.8947
   64MOL0     C 8364   7.328   2.433  10.354 -0.0285  0.0227  0.2285
   64MOL0     C 8365   7.436   2.520  10.323  0.3305 -0.1418  0.2804
   64MOL0     N 8366   8.207   2.518  10.110 -0.6590 -0.0685  0.9256
   64MOL0     N 8367   8.320   2.453  10.126 -0.7097  0.1764 -0.7508
   64MOL0     C 8368   9.228   1.661  10.607 -0.2366  0.6511  0.3287
   64MOL0     C 8369   9.303   1.541  10.636 -0.3555 -0.5023  0.1103
   64MOL0     C 8370   9.382   1.147  10.860  0.6775  0.2416  0.0658
   64MOL0     C 8371   9.523   1.134  10.837  0.6078 -0.9006  1.4309
   64MOL0     C 8372   9.584   1.009  10.818  0.0655 -0.1880  1.5890
   64MOL0     C 8373   9.498   0.894  10.824  1.4507 -0.7248 -0.2801
   64MOL0     O 8374   9.556   0.773  10.790 -0.2436  0.1922 -0.2778
   64MOL0     C 8375   9.622   0.727  10.906  0.0851 -1.0130  0.8115
   64MOL0     C 8376   9.700   0.616  10.862 -0.3754 -1.3420  0.1882
   64MOL0     C 8377   9.833   0.656  10.788 -0.1112  0.3158  0.8364
   64MOL0     C 8378   9.873   0.563  10.669 -0.3506  0.4275  0.5853
   64MOL0     C 8379   9.906   0.416  10.701  0.6827  0.4102  0.1459
   64MOL0     C 8380   9.940   0.303  10.730  0.6163 -0.1859  0.3334
   64MOL0     C 8381   9.364   0.910  10.852 -0.0279 -0.1141 -0.1527
   64MOL0     C 8382   9.303   1.036  10.885 -0.9705 -0.0527 -0.4285
   64MOL0     H 8383   9.330   1.557  10.970  0.0070  1.1771  0.5906
   64MOL0     H 8384   9.207   1.780  10.925 -2.8687  3.0377 -3.7603
   64MOL0     H 8385   8.953   1.895  10.747 -0.1700  2.7184 -0.5812
   64MOL0     H 8386   8.983   1.811  10.605  0.1885 -1.6045  2.3727
   64MOL0     H 8387   9.072   2.030  10.490  2.6377  0.9163  2.0316
   64MOL0     H 8388   9.023   2.109  10.644  0.5453  1.1756 -2.3694
   64MOL0     H 8389   8.796   2.069  10.592  0.9883  2.3798 -0.0482
   64MOL0     H 8390   8.831   1.954  10.457  0.0225  1.3148 -1.4676
   64MOL0     H 8391   8.877   2.254  10.480 -1.0898 -0.1772  0.0854
   64MOL0     H 8392   8.927   2.174  10.333  1.3786  1.4550  0.9399
   64MOL0     H 8393   8.688   2.094  10.305  0.9944  1.9825 -2.6602
   64MOL0     H 8394   8.730   2.276  10.296 -0.0017  1.3417  0.6894
   64MOL0     H 8395   8.658   2.285  10.537  1.2370 -1.8835  1.7614
   64MOL0     H 8396   8.576   2.127  10.521  1.1308  0.5088  1.2143
   64MOL0     H 8397   8.427   2.194  10.367 -2.7268  1.2493  0.5925
   64MOL0     H 8398   8.404   2.291  10.507  0.4059  0.2306 -0.1445
   64MOL0     H 8399   8.537   2.353  10.231 -2.6560 -2.3765 -1.2801
   64MOL0     H 8400   8.532   2.475  10.360 -1.6662  0.2182  1.1741
   64MOL0     H 8401   8.282   2.589  10.410 -1.2537 -2.7990  0.3634
   64MOL0     H 8402   8.058   2.719  10.104  1.6462 -2.1426 -1.3364
   64MOL0     H 8403   8.092   2.791  10.261 -0.6936  1.4969 -1.9296
   64MOL0     H 8404   7.959   2.579  10.354  2.4616 -1.2933 -1.4978
   64MOL0     H 8405   7.902   2.552  10.195 -2.6210  0.2252  0.8865
   64MOL0     H 8406   7.827   2.803  10.353  1.3589  2.2626 -2.6381
   64MOL0     H 8407   7.829   2.803  10.185 -2.2130 -1.1756 -0.0935
   64MOL0     H 8408   7.677   2.581  10.212 -0.3751 -0.8989  2.7676
   64MOL0     H 8409   7.614   2.757  10.243 -0.7004 -0.0463  1.5065
   64MOL0     H 8410   7.558   2.581  10.628  1.2299  2.7975 -2.3601
   64MOL0     H 8411   7.349   2.440  10.695 -0.1318 -0.6043 -0.2394
   64MOL0     H 8412   6.974   2.360  10.859 -3.2121  0.2262  2.1503
   64MOL0     H 8413   6.781   2.228  10.912 -1.2232 -0.8187 -0.8851
   64MOL0     H 8414   6.659   1.859  10.637 -0.2154  2.1701 -2.0202
   64MOL0     H 8415   6.640   2.017  10.592  0.8419 -2.2842 -0.5963
   64MOL0     H 8416   6.428   2.040  10.712  2.9795  1.9857 -4.0472
   64MOL0     H 8417   6.475   1.884  10.800  0.3593  1.5207 -0.1940
   64MOL0     H 8418   6.438   1.762  10.585 -0.4216  0.3792 -4.0090
   64MOL0     H 8419   6.425   1.903  10.497  0.2903 -2.6236 -0.8288
   64MOL0     H 8420   6.226   1.842  10.726  0.3590  2.9917  0.3680
   64MOL0     H 8421   6.212   1.952  10.591 -3.0431 -0.4402  0.5044
   64MOL0     H 8422   6.205   1.662  10.541  1.7088  0.6254 -1.2051
   64MOL0     H 8423   6.186   1.796  10.422  0.5580  2.5868  1.1114
   64MOL0     H 8424   6.019   1.719  10.661 -0.2707  1.7156  0.7722
   64MOL0     H 8425   5.964   1.702  10.496 -0.3514  1.3222 -0.4064
   64MOL0     H 8426   6.000   1.953  10.658 -2.2412 -1.5605  1.8448
   64MOL0     H 8427   5.980   1.950  10.478  0.7504 -0.8174 -0.4096
   64MOL0     H 8428   5.796   1.831  10.688 -1.8890  1.3485  0.7389
   64MOL0     H 8429   5.770   1.815  10.514 -2.2553  3.7854 -1.4435
   64MOL0     H 8430   6.889   1.948  10.604  2.3110 -0.7665  1.5301
   64MOL0     H 8431   7.089   2.067  10.554 -0.6427 -1.3672  0.2151
   64MOL0     H 8432   7.266   2.390  10.276 -1.4098  2.3431 -0.0520
   64MOL0     H 8433   7.453   2.545  10.218  1.9370 -1.1744  0.2562
   64MOL0     H 8434   9.190   1.686  10.508 -1.0510  0.2550  0.5333
   64MOL0     H 8435   9.320   1.467  10.558 -0.7020  1.2349 -1.7015
   64MOL0     H 8436   9.585   1.223  10.833  0.6157 -0.9540 -0.3213
   64MOL0     H 8437   9.688   0.989  10.796  0.7001  1.9984  2.3917
   64MOL0     H 8438   9.564   0.715  10.998 -2.8067  0.1237 -0.7357
   64MOL0     H 8439   9.705   0.790  10.939  0.9484 -2.0131  0.6287
   64MOL0     H 8440   9.735   0.560  10.949  0.4219  2.1172  2.3008
   64MOL0     H 8441   9.631   0.556  10.802  1.6163 -2.2390 -1.3293
   64MOL0     H 8442   9.921   0.658  10.853  0.9738 -3.4114 -0.3160
   64MOL0     H 8443   9.819   0.762  10.763  0.7420  0.7554  2.0988
   64MOL0     H 8444   9.798   0.559  10.589 -0.0941 -0.3129  0.3766
   64MOL0     H 8445   9.968   0.610  10.641  0.1125  0.1631  1.6677
   64MOL0     H 8446   9.978   0.209  10.765  3.1947  0.4524 -0.5104
   64MOL0     H 8447   9.300   0.823  10.858 -0.7060  0.2996 -1.0062
   64MOL0     H 8448   9.197   1.045  10.907 -0.5438 -2.9789  4.0746
   65MOL0     O 8449   6.126   0.975   1.079 -0.0591  0.4905 -0.8360
   65MOL0     C 8450   6.047   1.063   1.066  0.4991 -1.2283 -0.3725
   65MOL0     O 8451   5.909   1.046   1.068 -0.3855  0.4800 -0.0922
   65MOL0     C 8452   5.841   0.927   1.038 -0.7028 -0.1336 -0.1425
   65MOL0     C 8453   5.710   0.908   1.081 -0.3918 -0.6739 -0.3751
   65MOL0     C 8454   5.647   0.791   1.037  0.7687  0.6505 -0.7767
   65MOL0     C 8455   5.711   0.697   0.961 -0.2270 -0.4164  0.6001
   65MOL0     O 8456   5.642   0.597   0.900 -0.4706  0.3959  0.4551
   65MOL0     C 8457   5.654   0.461   0.944  0.1382 -0.6600 -0.1925
   65MOL0     C 8458   5.545   0.377   0.872 -0.3542 -0.4472  0.5355
   65MOL0     C 8459   5.399   0.420   0.899  0.7301  0.3217 -0.3713
   65MOL0     C 8460   5.291   0.313   0.858  0.9562  0.1445  0.0972
   65MOL0     C 8461   5.292   0.265   0.709  0.9613 -0.2863 -1.0513
   65MOL0     C 8462   5.272   0.361   0.596  0.0675  1.0746  0.4482
   65MOL0     C 8463   5.347   0.318   0.460 -0.6506  0.7145 -0.9353
   65MOL0     C 8464   5.353   0.166   0.434 -1.2722 -0.0290 -1.0722
   65MOL0     N 8465   5.227   0.092   0.443  0.4785 -0.6492  0.9847
   65MOL0     C 8466   5.124   0.109   0.353  1.0661  0.7703  0.1444
   65MOL0     C 8467   5.030   0.020   0.403 -0.3450  0.5743 -1.8200
   65MOL0     C 8468   4.891   0.003   0.356 -0.6522 -0.8474  1.0188
   65MOL0     C 8469   4.795   0.005   0.490 -1.2389 -0.1078  0.7155
   65MOL0     C 8470   4.783  -0.140   0.532  0.2548 -0.2439 -0.8408
   65MOL0     C 8471   4.741  -0.139   0.676 -0.4077  0.3611 -0.4816
   65MOL0     O 8472   4.865  -0.118   0.756  0.0393  0.1364 -0.0799
   65MOL0     C 8473   4.862  -0.041   0.863 -0.3119  0.1083 -0.2343
   65MOL0     C 8474   4.745  -0.028   0.949 -1.0844 -0.6185  0.1074
   65MOL0     C 8475   4.757   0.039   1.075 -0.0575  0.5634 -0.3761
   65MOL0     C 8476   4.876   0.109   1.112 -0.1892 -0.4055  1.2759
   65MOL0     C 8477   4.890   0.178   1.241 -0.1962 -0.5852  0.0020
   65MOL0     O 8478   5.007   0.242   1.256  0.3066 -0.2422 -0.1879
   65MOL0     C 8479   5.038   0.274   1.386 -0.4429 -0.2889  0.3346
   65MOL0     C 8480   5.079   0.412   1.404  1.2347 -0.2136 -0.1679
   65MOL0     C 8481   5.129   0.451   1.526  0.7550 -0.1209 -1.2934
   65MOL0     C 8482   5.154   0.365   1.638  1.1426  0.3880  0.2036
   65MOL0     O 8483   5.209   0.403   1.763  0.2909 -0.3165  0.0128
   65MOL0     C 8484   5.328   0.490   1.769  0.7252  0.3924  0.7172
   65MOL0     C 8485   5.314   0.548   1.907 -0.0700 -0.5930  0.2708
   65MOL0     C 8486   5.434   0.656   1.935  0.5124  1.3048  0.5394
   65MOL0     C 8487   5.575   0.590   1.927  0.2204  0.6770  0.1076
   65MOL0     C 8488   5.691   0.670   2.000  0.7280  0.4919  0.5191
   65MOL0     C 8489   5.814   0.594   2.030 -0.3726  0.8154 -0.3113
   65MOL0     C 8490   5.856   0.489   1.926  0.2130 -0.0472  0.6040
   65MOL0     C 8491   5.882   0.550   1.779  0.2244 -0.5348 -0.3020
   65MOL0    Cl 8492   5.916   0.427   1.658  1.0160  0.2290 -0.2539
   65MOL0     C 8493   5.118   0.236   1.614 -0.0243 -0.2934 -0.3387
   65MOL0     C 8494   5.059   0.184   1.492  0.0408 -0.8406  0.2508
   65MOL0     O 8495   4.794   0.164   1.320  0.3602 -0.3238 -0.0662
   65MOL0     C 8496   4.989   0.095   1.023  0.9531 -0.2123  0.2205
   65MOL0     C 8497   4.980   0.029   0.905 -1.3231 -0.2586 -0.2086
   65MOL0     N 8498   5.088  -0.055   0.518  0.3959  0.0377  0.5181
   65MOL0     N 8499   5.208  -0.014   0.533  0.9540 -0.4025  0.1118
   65MOL0     C 8500   5.841   0.722   0.909  0.1718 -0.7402 -0.2076
   65MOL0     C 8501   5.897   0.835   0.952 -0.6215 -0.4310  0.6333
   65MOL0     C 8502   6.110   1.179   0.997  0.0399 -1.1392  0.5641
   65MOL0     C 8503   6.026   1.258   0.918 -0.9305  0.6863 -0.3733
   65MOL0     C 8504   6.089   1.375   0.856 -1.1890  0.7231 -0.3762
   65MOL0     C 8505   6.215   1.414   0.878  0.4023 -0.5703 -0.4702
   65MOL0     O 8506   6.249   1.529   0.812  0.0965  0.1323 -0.0656
   65MOL0     C 8507   6.378   1.530   0.752 -0.2314  0.3003  0.2271
   65MOL0     C 8508   6.468   1.633   0.828 -0.0720 -0.8616  0.5508
   65MOL0     C 8509   6.608   1.593   0.812  0.9494  0.7910 -0.8188
   65MOL0     C 8510   6.675   1.582   0.672 -0.4239 -0.7626  0.2663
   65MOL0     C 8511   6.649   1.712   0.606  0.9658 -0.2856 -0.5249
   65MOL0     C 8512   6.636   1.823   0.560 -0.0764 -0.5732  0.5099
   65MOL0     C 8513   6.302   1.327   0.947 -0.0496 -0.0505 -0.5809
   65MOL0     C 8514   6.246   1.214   1.011  0.3130 -0.2872 -0.0361
   65MOL0     H 8515   5.660   0.985   1.138  0.2875 -1.1497  0.8968
   65MOL0     H 8516   5.542   0.776   1.060  0.7613  2.0799  0.2813
   65MOL0     H 8517   5.623   0.467   1.049 -2.2833 -0.7226 -0.8356
   65MOL0     H 8518   5.758   0.432   0.928  1.4395  1.1532  3.6402
   65MOL0     H 8519   5.551   0.275   0.911 -0.2267 -0.0670  1.5276
   65MOL0     H 8520   5.567   0.381   0.765  0.5756 -1.4226  0.6654
   65MOL0     H 8521   5.371   0.512   0.847  1.4401  0.3086 -0.7928
   65MOL0     H 8522   5.386   0.425   1.008 -1.0428 -1.5396 -0.4408
   65MOL0     H 8523   5.309   0.228   0.924  2.0525 -0.0367 -0.4032
   65MOL0     H 8524   5.195   0.362   0.872  1.8006  2.3302 -1.2483
   65MOL0     H 8525   5.225   0.179   0.695 -3.3355  2.6839 -0.5582
   65MOL0     H 8526   5.394   0.225   0.699  1.5374  1.1865 -1.3793
   65MOL0     H 8527   5.308   0.461   0.623 -3.3354  2.4327  0.4069
   65MOL0     H 8528   5.166   0.355   0.572 -0.8600 -0.8924  4.2808
   65MOL0     H 8529   5.297   0.377   0.383 -2.5995  0.1433 -0.1956
   65MOL0     H 8530   5.452   0.344   0.473 -1.2006  1.5239  4.6018
   65MOL0     H 8531   5.414   0.109   0.504  0.2324 -0.4512 -2.6526
   65MOL0     H 8532   5.397   0.160   0.334  0.3634 -1.8863 -0.2925
   65MOL0     H 8533   5.115   0.182   0.273 -0.9252  0.8917  0.4156
   65MOL0     H 8534   4.892  -0.090   0.299 -0.0899 -0.3076  0.1250
   65MOL0     H 8535   4.872   0.085   0.286 -0.0085 -0.2414  1.5457
   65MOL0     H 8536   4.696   0.052   0.486  0.1170  3.0685 -3.4744
   65MOL0     H 8537   4.852   0.058   0.566  2.8133  0.9043 -2.6351
   65MOL0     H 8538   4.720  -0.186   0.456 -2.0334  1.1283  0.1257
   65MOL0     H 8539   4.880  -0.190   0.526 -0.5110 -1.5600 -3.8709
   65MOL0     H 8540   4.716  -0.246   0.680  1.2785 -0.3585 -4.7248
   65MOL0     H 8541   4.659  -0.076   0.712 -1.2701 -1.2582  0.5859
   65MOL0     H 8542   4.652  -0.082   0.932 -0.2335 -2.1698  0.1496
   65MOL0     H 8543   4.670   0.047   1.140  0.0781  0.9712 -0.2406
   65MOL0     H 8544   5.053   0.490   1.333 -1.1630  2.1856  3.0172
   65MOL0     H 8545   5.140   0.555   1.556 -0.7349 -1.0345  3.3984
   65MOL0     H 8546   5.326   0.572   1.696 -3.9325 -1.9610 -2.3022
   65MOL0     H 8547   5.419   0.433   1.749  1.4482  2.1817 -1.6949
   65MOL0     H 8548   5.319   0.459   1.971 -0.0615 -2.4165 -2.1260
   65MOL0     H 8549   5.216   0.596   1.905  0.3846  0.3357 -1.9433
   65MOL0     H 8550   5.424   0.686   2.040  0.9964 -0.6905  1.1989
   65MOL0     H 8551   5.431   0.744   1.870 -1.0860  2.0700  1.5734
   65MOL0     H 8552   5.556   0.497   1.982  0.1514  1.3982  1.3456
   65MOL0     H 8553   5.606   0.574   1.823  1.4441 -1.7642  0.7493
   65MOL0     H 8554   5.669   0.722   2.093  2.5161 -0.0950  1.3008
   65MOL0     H 8555   5.710   0.752   1.930  0.2945 -0.6910 -1.0572
   65MOL0     H 8556   5.793   0.538   2.121  2.4446  0.3797  0.1709
   65MOL0     H 8557   5.900   0.657   2.055 -0.5724  1.1711 -0.5186
   65MOL0     H 8558   5.956   0.446   1.941  0.7912  0.4731 -1.4839
   65MOL0     H 8559   5.784   0.407   1.921 -0.5327  0.6503 -0.6905
   65MOL0     H 8560   5.977   0.605   1.783 -0.0758  0.0509 -0.9124
   65MOL0     H 8561   5.804   0.620   1.747 -1.2214 -1.6368  0.7112
   65MOL0     H 8562   5.125   0.178   1.706 -3.9784  1.2404  1.1444
   65MOL0     H 8563   5.041   0.077   1.503  3.7797 -1.5714  0.9237
   65MOL0     H 8564   5.081   0.149   1.043  1.8076 -1.4044 -0.3560
   65MOL0     H 8565   5.073   0.035   0.850 -0.4462  0.6737  1.3214
   65MOL0     H 8566   5.889   0.649   0.845  2.5802 -1.1098  1.8814
   65MOL0     H 8567   6.001   0.833   0.921 -0.2006 -2.0205  2.0125
   65MOL0     H 8568   5.918   1.250   0.919 -0.7964 -2.0937  0.6165
   65MOL0     H 8569   6.037   1.444   0.790 -0.0109 -0.1026 -2.2350
   65MOL0     H 8570   6.360   1.562   0.649  2.8144  1.5808  0.0030
   65MOL0     H 8571   6.427   1.433   0.741  0.7724  0.5685  1.9608
   65MOL0     H 8572   6.448   1.737   0.802 -0.8955 -0.4949  2.4771
   65MOL0     H 8573   6.437   1.638   0.933  3.3280 -1.3671  1.6967
   65MOL0     H 8574   6.611   1.485   0.829  1.2467  0.2361 -3.8176
   65MOL0     H 8575   6.670   1.662   0.869 -3.2629  2.3504  2.4251
   65MOL0     H 8576   6.777   1.556   0.701 -1.2096 -2.7016  1.5053
   65MOL0     H 8577   6.632   1.502   0.610 -2.2447  0.3579  0.0019
   65MOL0     H 8578   6.614   1.916   0.511 -0.8563 -0.3130  1.3148
   65MOL0     H 8579   6.406   1.352   0.966 -0.1437  1.2995 -1.6528
   65MOL0     H 8580   6.300   1.144   1.073 -1.6028 -3.7853 -2.0019
   66MOL0     O 8581   4.409  10.553   9.269 -0.2921  0.7760  0.3768
   66MOL0     C 8582   4.482  10.514   9.177  0.0149  0.8951  0.3433
   66MOL0     O 8583   4.448  10.415   9.089 -0.1943  0.2938  0.6646
   66MOL0     C 8584   4.319  10.372   9.103  0.3406 -0.5942 -0.1391
   66MOL0     C 8585   4.221  10.399   9.005 -0.6681 -0.1746  0.4430
   66MOL0     C 8586   4.093  10.347   8.991 -0.2266 -0.3073 -0.2612
   66MOL0     C 8587   4.053  10.273   9.096  0.7027 -1.0275 -0.3087
   66MOL0     O 8588   3.923  10.232   9.083  0.5049  0.3629 -0.3908
   66MOL0     C 8589   3.890  10.106   9.143  0.1015  0.6548  1.0112
   66MOL0     C 8590   3.784  10.039   9.061  0.6331  0.1421  0.6059
   66MOL0     C 8591   3.728   9.906   9.111 -0.0568 -0.6831  0.2398
   66MOL0     C 8592   3.625   9.921   9.223 -0.1070  0.2386 -0.2568
   66MOL0     C 8593   3.602   9.789   9.297 -0.1935 -0.4590  1.1221
   66MOL0     C 8594   3.533   9.682   9.211  0.7524  1.1203  0.7030
   66MOL0     C 8595   3.550   9.537   9.273  0.6883 -0.3167 -0.1242
   66MOL0     C 8596   3.455   9.521   9.389  1.4745  0.2684 -0.1578
   66MOL0     N 8597   3.315   9.554   9.366 -0.1845  0.1081  0.7555
   66MOL0     C 8598   3.243   9.667   9.418 -1.0159 -0.0012  0.5497
   66MOL0     C 8599   3.117   9.645   9.384 -0.8424  0.6995 -0.0171
   66MOL0     C 8600   2.996   9.720   9.414  0.2417 -0.0606  0.4166
   66MOL0     C 8601   2.932   9.684   9.550 -1.1633 -0.0416 -0.1432
   66MOL0     C 8602   2.825   9.585   9.554  0.9880  0.2117 -0.1141
   66MOL0     C 8603   2.806   9.526   9.696 -0.0226  0.0691  0.4814
   66MOL0     O 8604   2.727   9.408   9.670  0.3564 -0.3591 -0.5280
   66MOL0     C 8605   2.709   9.327   9.778  0.0554  0.0798  0.3665
   66MOL0     C 8606   2.690   9.198   9.744  0.1248 -0.1304  0.8753
   66MOL0     C 8607   2.677   9.103   9.847  0.1630 -0.2111  0.0512
   66MOL0     C 8608   2.661   9.142   9.982  0.4218 -0.5027 -0.7537
   66MOL0     C 8609   2.642   9.041  10.094  0.3491  0.0512  0.5755
   66MOL0     O 8610   2.668   8.906  10.068 -0.5945  0.3252  0.5033
   66MOL0     C 8611   2.655   8.826  10.171 -0.9105 -0.0780 -0.3557
   66MOL0     C 8612   2.540   8.760  10.194 -0.9073 -0.0068  0.1245
   66MOL0     C 8613   2.525   8.672  10.302  0.9229  1.1300  0.4491
   66MOL0     C 8614   2.640   8.638  10.380 -0.2792  0.5114  0.2119
   66MOL0     O 8615   2.660   8.537  10.473  0.0605 -0.1699  0.4147
   66MOL0     C 8616   2.549   8.507  10.555  0.1202 -0.6208  1.1850
   66MOL0     C 8617   2.609   8.456  10.686  0.0596  0.4058  0.1435
   66MOL0     C 8618   2.659   8.576  10.771  0.1307  0.4545  0.6001
   66MOL0     C 8619   2.543   8.637  10.849  0.3233  0.7761 -0.0691
   66MOL0     C 8620   2.583   8.774  10.902  0.2280 -0.5218 -0.1308
   66MOL0     C 8621   2.577   8.784  11.054  0.0733  0.0702  0.8173
   66MOL0     C 8622   2.682   8.708  11.132 -0.1796  0.0749  0.7664
   66MOL0     C 8623   2.699   8.770  11.262 -0.5939  0.0118  0.6148
   66MOL0    Cl 8624   2.836   8.707  11.345 -0.3627  0.3747  0.5269
   66MOL0     C 8625   2.753   8.708  10.352  0.1308  0.0152 -0.2418
   66MOL0     C 8626   2.765   8.808  10.258 -0.0969 -0.0858 -0.4772
   66MOL0     O 8627   2.588   9.080  10.189  0.2256 -0.6198 -0.3601
   66MOL0     C 8628   2.661   9.281  10.016  0.6231 -0.0264 -1.1718
   66MOL0     C 8629   2.694   9.366   9.913 -0.7961 -0.6090  0.2784
   66MOL0     N 8630   3.108   9.526   9.312  0.1124  0.2105  0.1303
   66MOL0     N 8631   3.227   9.468   9.309  0.2281 -0.6632  0.7419
   66MOL0     C 8632   4.132  10.251   9.198 -0.2623 -0.6357  0.4437
   66MOL0     C 8633   4.265  10.300   9.207 -1.1524 -0.0697 -0.1731
   66MOL0     C 8634   4.609  10.579   9.180 -0.1990 -0.1823 -0.0248
   66MOL0     C 8635   4.623  10.705   9.229 -0.2805  0.0299  0.7629
   66MOL0     C 8636   4.745  10.767   9.211  1.6462 -0.7233  0.4453
   66MOL0     C 8637   4.846  10.713   9.138 -1.2644 -0.4756 -0.5946
   66MOL0     O 8638   4.955  10.793   9.093  0.4947 -0.0085  0.0862
   66MOL0     C 8639   5.049  10.747   9.007 -0.1408  0.1802  0.2697
   66MOL0     C 8640   5.182  10.822   9.026  0.8960 -0.2591  0.1323
   66MOL0     C 8641   5.271  10.763   8.913  0.2335  0.3847 -0.0613
   66MOL0     C 8642   5.412  10.818   8.920  0.4726  0.3606 -0.2036
   66MOL0     C 8643   5.484  10.751   9.027  0.2389  0.7667  0.5458
   66MOL0     C 8644   5.562  10.704   9.114 -0.1556  0.0169 -0.4794
   66MOL0     C 8645   4.835  10.578   9.112 -0.1085  0.8521  0.6182
   66MOL0     C 8646   4.719  10.510   9.119  0.2281 -0.5325  0.4448
   66MOL0     H 8647   4.272  10.471   8.940 -1.7969 -1.2664 -1.7757
   66MOL0     H 8648   4.033  10.368   8.903  1.0665 -0.1281 -1.1326
   66MOL0     H 8649   3.850  10.134   9.241 -2.3469 -1.1242  0.6013
   66MOL0     H 8650   3.978  10.041   9.146  0.1040  0.6522  0.8527
   66MOL0     H 8651   3.814  10.031   8.956 -1.0334  5.0908 -0.5545
   66MOL0     H 8652   3.704  10.113   9.051  0.2389 -0.3232  0.2594
   66MOL0     H 8653   3.814   9.847   9.143  1.4407 -0.4937 -3.0755
   66MOL0     H 8654   3.678   9.857   9.028  3.8138  0.4228 -3.0541
   66MOL0     H 8655   3.666  10.000   9.287 -1.0883  1.5479 -1.1976
   66MOL0     H 8656   3.525   9.957   9.197 -0.6721 -1.2315 -0.2406
   66MOL0     H 8657   3.552   9.811   9.392  0.8525  1.1941  1.3334
   66MOL0     H 8658   3.702   9.757   9.328 -0.0473  1.5151  2.9329
   66MOL0     H 8659   3.567   9.683   9.107 -1.0420  3.3581  0.0449
   66MOL0     H 8660   3.426   9.699   9.199  0.2071 -1.8270  0.6095
   66MOL0     H 8661   3.542   9.461   9.195  0.2150 -0.5420  0.1415
   66MOL0     H 8662   3.655   9.526   9.303  1.1211  0.6335 -1.2041
   66MOL0     H 8663   3.481   9.588   9.472  1.2471 -0.7464  0.7427
   66MOL0     H 8664   3.459   9.415   9.416  2.0648  0.6941  1.5540
   66MOL0     H 8665   3.288   9.743   9.480 -1.7291 -0.7967  2.1110
   66MOL0     H 8666   2.930   9.707   9.328  1.5421 -2.5993 -0.2849
   66MOL0     H 8667   3.015   9.828   9.417  0.7954 -0.1768  2.0260
   66MOL0     H 8668   2.891   9.774   9.597 -3.6523 -2.1638  2.0439
   66MOL0     H 8669   3.013   9.640   9.608 -2.2227 -1.9551 -0.0308
   66MOL0     H 8670   2.727   9.626   9.527  0.1979 -0.9252  0.9103
   66MOL0     H 8671   2.851   9.498   9.492  2.8495  1.4859 -1.2240
   66MOL0     H 8672   2.767   9.598   9.769  1.5407  1.4471 -0.0065
   66MOL0     H 8673   2.901   9.508   9.748 -1.0380  1.2633  2.9284
   66MOL0     H 8674   2.703   9.154   9.646 -1.4090 -2.2615  1.5704
   66MOL0     H 8675   2.694   8.999   9.820  3.1518  0.2902 -0.2781
   66MOL0     H 8676   2.455   8.775  10.127 -0.1057 -1.0539 -1.1779
   66MOL0     H 8677   2.434   8.612  10.302  0.1596  2.2526  0.0502
   66MOL0     H 8678   2.483   8.432  10.511 -0.5060  0.3819  0.3552
   66MOL0     H 8679   2.496   8.603  10.566  3.0411  1.4237 -1.0516
   66MOL0     H 8680   2.692   8.387  10.672  0.2903  1.0702 -2.0816
   66MOL0     H 8681   2.540   8.405  10.755 -0.4732  1.7864  0.6618
   66MOL0     H 8682   2.706   8.658  10.716 -1.7505  2.1572  1.4184
   66MOL0     H 8683   2.733   8.539  10.843  0.6133 -0.1162 -0.1710
   66MOL0     H 8684   2.445   8.632  10.800  2.1927  1.7381 -4.3497
   66MOL0     H 8685   2.538   8.563  10.930 -1.6319  1.8532  0.8522
   66MOL0     H 8686   2.515   8.851  10.865 -2.3864 -1.2512  2.7030
   66MOL0     H 8687   2.683   8.809  10.875  0.5748  0.8319  2.5731
   66MOL0     H 8688   2.481   8.760  11.100 -1.0875  0.1808 -1.3773
   66MOL0     H 8689   2.604   8.890  11.062  0.4739  0.4944 -3.5176
   66MOL0     H 8690   2.660   8.604  11.157 -0.6158  0.8622  4.0797
   66MOL0     H 8691   2.779   8.715  11.082  0.0596  0.7831  1.3186
   66MOL0     H 8692   2.612   8.743  11.323  0.9232  0.3970  3.0882
   66MOL0     H 8693   2.728   8.875  11.267  0.3484 -0.2659  1.1926
   66MOL0     H 8694   2.831   8.682  10.423 -1.7024 -1.6119  1.3059
   66MOL0     H 8695   2.860   8.855  10.232 -0.5422  1.0907 -0.0551
   66MOL0     H 8696   2.646   9.320  10.116  1.4317 -0.5403 -0.8424
   66MOL0     H 8697   2.691   9.471   9.941 -1.8321 -0.0762 -1.5903
   66MOL0     H 8698   4.091  10.187   9.275 -0.7175 -0.2307  0.5443
   66MOL0     H 8699   4.330  10.263   9.286  0.4559  2.3007 -0.2472
   66MOL0     H 8700   4.546  10.753   9.289 -0.3570 -0.9199  1.4463
   66MOL0     H 8701   4.767  10.869   9.240 -2.8299  0.9297 -1.1064
   66MOL0     H 8702   5.017  10.762   8.903  0.1634 -0.3418  0.0992
   66MOL0     H 8703   5.069  10.640   9.005  0.3343  0.2583 -1.7783
   66MOL0     H 8704   5.183  10.930   9.008 -0.1541 -0.4516 -1.2934
   66MOL0     H 8705   5.209  10.817   9.132 -1.5054 -0.5775  0.7867
   66MOL0     H 8706   5.236  10.794   8.814  2.3214 -0.2131 -1.0410
   66MOL0     H 8707   5.267  10.654   8.920  2.7522  0.3283  2.1568
   66MOL0     H 8708   5.459  10.790   8.825  0.9189  3.0349 -0.8463
   66MOL0     H 8709   5.414  10.927   8.931 -2.6262  0.4854 -0.0459
   66MOL0     H 8710   5.632  10.674   9.189  0.2402  0.5202 -0.6504
   66MOL0     H 8711   4.918  10.529   9.062  0.0934  4.3161 -2.9761
   66MOL0     H 8712   4.711  10.410   9.077  0.0016  0.4607 -2.0614
   67MOL0     O 8713   3.165   8.425   7.235 -0.1040 -0.3630 -0.1020
   67MOL0     C 8714   3.242   8.336   7.187  0.4044  0.0448 -0.0266
   67MOL0     O 8715   3.376   8.359   7.165  0.0977 -0.0427  1.0167
   67MOL0     C 8716   3.447   8.473   7.185 -0.3469  0.3792 -0.5963
   67MOL0     C 8717   3.578   8.484   7.137  0.0348  0.0293  0.1886
   67MOL0     C 8718   3.656   8.592   7.166  0.2974  0.3230 -1.0533
   67MOL0     C 8719   3.607   8.698   7.247  0.0652 -0.8591 -0.4569
   67MOL0     O 8720   3.677   8.816   7.278  0.3178 -0.3983  0.6158
   67MOL0     C 8721   3.782   8.848   7.201  0.1109 -0.2997 -1.0513
   67MOL0     C 8722   3.815   8.990   7.256 -0.0243  0.0964  0.4838
   67MOL0     C 8723   3.942   9.070   7.203  0.3052 -1.0142  0.6225
   67MOL0     C 8724   3.962   9.058   7.051  0.3915 -0.0007 -0.1299
   67MOL0     C 8725   4.106   9.075   7.010  0.5441 -0.4050  1.1174
   67MOL0     C 8726   4.137   9.024   6.870  0.5567  0.2487  0.3238
   67MOL0     C 8727   4.125   8.870   6.839  0.5006  0.4301 -0.0146
   67MOL0     C 8728   4.175   8.841   6.703  0.5528 -0.0090  0.2955
   67MOL0     N 8729   4.158   8.694   6.692 -0.2119 -0.0160 -0.8419
   67MOL0     C 8730   4.245   8.612   6.755 -0.2356  0.5132 -0.7875
   67MOL0     C 8731   4.201   8.490   6.722  0.4775 -0.2099 -0.9057
   67MOL0     C 8732   4.250   8.363   6.762  0.8154 -0.4681 -0.3981
   67MOL0     C 8733   4.166   8.305   6.877 -0.1989 -0.3925  0.4062
   67MOL0     C 8734   4.014   8.254   6.852 -0.8596 -0.6975  0.1834
   67MOL0     C 8735   3.997   8.161   6.731 -0.0315 -0.5810 -0.2913
   67MOL0     O 8736   3.861   8.113   6.715  0.2152  0.3184 -0.4645
   67MOL0     C 8737   3.846   8.022   6.607  0.2029 -0.8165 -0.1387
   67MOL0     C 8738   3.722   7.962   6.590  0.3419 -0.5276  0.7452
   67MOL0     C 8739   3.698   7.860   6.492 -0.0471 -0.2192 -0.0990
   67MOL0     C 8740   3.808   7.813   6.414  0.5721  0.0081  0.3283
   67MOL0     C 8741   3.785   7.706   6.324  0.2008  0.0281 -0.3959
   67MOL0     O 8742   3.656   7.668   6.301 -0.5959  0.7834  0.5572
   67MOL0     C 8743   3.634   7.561   6.211  0.0397 -0.4485 -0.1924
   67MOL0     C 8744   3.589   7.438   6.258  0.5383 -0.3401  0.8252
   67MOL0     C 8745   3.565   7.338   6.160 -0.6326 -0.4134  0.2884
   67MOL0     C 8746   3.590   7.354   6.020  0.7558  1.0344  1.1513
   67MOL0     O 8747   3.574   7.254   5.925 -0.7339 -0.3250  0.3177
   67MOL0     C 8748   3.660   7.255   5.805  0.1679  0.2376  0.0750
   67MOL0     C 8749   3.644   7.127   5.718  0.5007  0.5217  0.1990
   67MOL0     C 8750   3.716   7.002   5.761  0.1431  0.5861  0.0659
   67MOL0     C 8751   3.706   6.883   5.664 -0.2233  0.2423 -0.0424
   67MOL0     C 8752   3.677   6.754   5.736 -0.3301 -0.0431 -0.5170
   67MOL0     C 8753   3.687   6.624   5.652 -0.0049 -0.2164 -0.1320
   67MOL0     C 8754   3.717   6.504   5.734  0.1358  0.7402  0.4551
   67MOL0     C 8755   3.845   6.440   5.677 -0.1357  0.2999  0.2674
   67MOL0    Cl 8756   3.806   6.388   5.515  0.4208 -0.5277 -0.0490
   67MOL0     C 8757   3.644   7.475   5.981 -0.0596 -1.0213  0.1287
   67MOL0     C 8758   3.664   7.577   6.076  0.0004  0.4820  0.1022
   67MOL0     O 8759   3.890   7.660   6.268 -0.2108 -0.0321 -0.1129
   67MOL0     C 8760   3.934   7.861   6.447 -0.1475 -0.7513 -0.2336
   67MOL0     C 8761   3.957   7.968   6.533 -0.2094  0.0185  0.0486
   67MOL0     N 8762   4.082   8.512   6.665  0.1719 -0.2539 -0.6737
   67MOL0     N 8763   4.048   8.630   6.654 -0.3121  0.1691 -0.2545
   67MOL0     C 8764   3.475   8.691   7.290 -0.0316 -0.0155 -1.1421
   67MOL0     C 8765   3.404   8.574   7.268  0.7891 -0.5357  0.1272
   67MOL0     C 8766   3.189   8.199   7.182 -0.8344 -0.0527 -0.2411
   67MOL0     C 8767   3.063   8.165   7.237 -0.2072 -0.4327  0.0654
   67MOL0     C 8768   3.015   8.037   7.233  0.2442 -0.8910 -0.3527
   67MOL0     C 8769   3.083   7.946   7.162 -0.7549  1.1996  0.5975
   67MOL0     O 8770   3.015   7.821   7.145  0.2652 -0.6108  0.3033
   67MOL0     C 8771   3.073   7.710   7.079  0.5981  0.8619  0.3777
   67MOL0     C 8772   3.180   7.629   7.160  0.0888 -0.2041 -0.2024
   67MOL0     C 8773   3.239   7.498   7.079  1.2523  0.7008 -0.3096
   67MOL0     C 8774   3.340   7.410   7.168 -0.9247 -0.2451  0.7951
   67MOL0     C 8775   3.447   7.493   7.222  0.2269  0.4083  1.1990
   67MOL0     C 8776   3.523   7.580   7.253 -0.4382  0.6395 -0.3006
   67MOL0     C 8777   3.199   7.979   7.089  0.7018  0.8296 -0.8701
   67MOL0     C 8778   3.263   8.098   7.114  0.3128  0.2029  0.6598
   67MOL0     H 8779   3.626   8.405   7.081  0.8348  2.3497 -2.6959
   67MOL0     H 8780   3.747   8.607   7.108 -0.4204 -1.3712 -2.7386
   67MOL0     H 8781   3.775   8.847   7.092  0.0368 -0.8609 -1.0453
   67MOL0     H 8782   3.872   8.797   7.235 -0.8409 -1.2618  0.0957
   67MOL0     H 8783   3.827   8.967   7.362  2.0343 -2.2060 -0.1484
   67MOL0     H 8784   3.725   9.047   7.230 -0.0284 -0.7447 -1.5727
   67MOL0     H 8785   4.029   9.031   7.257  0.5131 -1.7121 -0.1891
   67MOL0     H 8786   3.948   9.175   7.234 -0.1102 -0.1521 -1.9670
   67MOL0     H 8787   3.906   8.969   7.021 -0.3236  1.1333 -2.3521
   67MOL0     H 8788   3.926   9.146   6.996  6.2521  1.0813 -2.9985
   67MOL0     H 8789   4.179   9.027   7.076 -0.4014 -1.2361  1.5900
   67MOL0     H 8790   4.138   9.179   7.019  0.5120 -0.1808 -0.9127
   67MOL0     H 8791   4.244   9.047   6.862  0.0573  2.1066 -2.0122
   67MOL0     H 8792   4.088   9.090   6.798  1.4401  0.8253  0.2339
   67MOL0     H 8793   4.190   8.813   6.906  0.3426  1.8986  1.4552
   67MOL0     H 8794   4.023   8.842   6.865  0.6743 -3.5306 -2.6006
   67MOL0     H 8795   4.276   8.868   6.673  1.1804 -1.9706  0.4798
   67MOL0     H 8796   4.111   8.880   6.624  1.1064 -0.1366 -0.2132
   67MOL0     H 8797   4.327   8.652   6.814 -1.4028  2.7387 -0.5608
   67MOL0     H 8798   4.351   8.380   6.801  0.1156  0.2629  1.1467
   67MOL0     H 8799   4.266   8.291   6.680 -0.9610 -0.8940 -0.4015
   67MOL0     H 8800   4.159   8.384   6.953 -0.4860  1.2727 -1.2623
   67MOL0     H 8801   4.225   8.220   6.911  1.5387  0.9396  0.8762
   67MOL0     H 8802   3.990   8.194   6.940  0.0698  0.1603  1.0398
   67MOL0     H 8803   3.953   8.344   6.857 -0.1949 -0.3000  2.7560
   67MOL0     H 8804   4.062   8.077   6.756 -0.1482 -0.4627  0.4322
   67MOL0     H 8805   4.042   8.206   6.643  0.6551 -0.2569  0.2222
   67MOL0     H 8806   3.649   7.998   6.661 -0.2962  2.7527 -1.4051
   67MOL0     H 8807   3.600   7.828   6.460  0.7160 -1.4282 -1.3233
   67MOL0     H 8808   3.587   7.430   6.367  2.3728  0.0339  0.9223
   67MOL0     H 8809   3.539   7.237   6.191  0.0593 -0.1036  1.9614
   67MOL0     H 8810   3.758   7.284   5.843  0.0896 -0.7294  1.0401
   67MOL0     H 8811   3.634   7.334   5.733 -0.8840 -1.7779 -1.9061
   67MOL0     H 8812   3.683   7.155   5.620  0.7564  0.6210  0.3261
   67MOL0     H 8813   3.538   7.105   5.708  1.2447 -3.9263  0.2211
   67MOL0     H 8814   3.667   6.968   5.852 -0.7680 -1.2444 -1.0624
   67MOL0     H 8815   3.821   7.024   5.780 -0.1453  1.2115  1.0319
   67MOL0     H 8816   3.635   6.897   5.582  0.0184 -2.0518 -0.7048
   67MOL0     H 8817   3.806   6.865   5.624 -1.0234 -4.5324 -0.4634
   67MOL0     H 8818   3.577   6.754   5.782  0.2023  0.6342  0.6646
   67MOL0     H 8819   3.751   6.740   5.815  4.1714  0.8350 -4.2083
   67MOL0     H 8820   3.773   6.639   5.586  0.2008 -0.7805  0.0004
   67MOL0     H 8821   3.593   6.608   5.598 -0.7241  0.5343  0.8634
   67MOL0     H 8822   3.739   6.527   5.839 -0.4146 -0.2002  0.7884
   67MOL0     H 8823   3.632   6.435   5.734  0.8632 -0.1989  1.0475
   67MOL0     H 8824   3.869   6.349   5.733 -1.4138  0.0436  0.4194
   67MOL0     H 8825   3.935   6.503   5.678  0.8152 -0.9646 -1.0826
   67MOL0     H 8826   3.662   7.495   5.876  2.4404 -3.7047 -0.0822
   67MOL0     H 8827   3.712   7.668   6.040  0.2583 -0.2573 -1.5228
   67MOL0     H 8828   4.025   7.820   6.404 -1.3531 -1.4026 -2.2972
   67MOL0     H 8829   4.060   7.999   6.546 -0.7782  1.3924  1.5217
   67MOL0     H 8830   3.439   8.771   7.354 -1.3204  0.0601 -1.9449
   67MOL0     H 8831   3.299   8.592   7.291  0.4197 -2.9321  0.6082
   67MOL0     H 8832   3.013   8.241   7.295  3.3817  2.4228 -0.1839
   67MOL0     H 8833   2.917   8.020   7.276 -0.3460  4.6507  1.3694
   67MOL0     H 8834   3.103   7.742   6.980 -1.7842 -0.3593 -0.8378
   67MOL0     H 8835   2.991   7.639   7.062  0.5923  1.1399 -0.8409
   67MOL0     H 8836   3.268   7.694   7.163  1.0047 -1.2437 -2.1614
   67MOL0     H 8837   3.158   7.610   7.266  2.3536  0.5033  0.4492
   67MOL0     H 8838   3.291   7.537   6.990 -0.3099 -0.7434 -1.9195
   67MOL0     H 8839   3.170   7.427   7.033  1.5358 -0.3435  0.8448
   67MOL0     H 8840   3.288   7.382   7.260  1.3162 -1.3053  1.8407
   67MOL0     H 8841   3.369   7.324   7.108 -0.7824  0.5448 -0.3033
   67MOL0     H 8842   3.601   7.651   7.275 -0.8227  1.4033 -1.3147
   67MOL0     H 8843   3.247   7.907   7.023 -0.3070 -2.3351  1.6055
   67MOL0     H 8844   3.357   8.121   7.065 -0.0615 -0.3053 -0.3217
   68MOL0     O 8845   4.715   2.255   0.734  0.0505  0.4303  0.0846
   68MOL0     C 8846   4.647   2.238   0.835  0.1770  0.8468 -0.0053
   68MOL0     O 8847   4.701   2.224   0.953 -0.4777 -0.6321 -0.4733
   68MOL0     C 8848   4.825   2.169   0.963  0.3244 -0.9749 -0.2366
   68MOL0     C 8849   4.902   2.228   1.065  0.7415 -0.0050  1.5512
   68MOL0     C 8850   5.032   2.181   1.096  0.2399  0.1276  0.6667
   68MOL0     C 8851   5.081   2.074   1.023 -0.0101  0.1551  0.4112
   68MOL0     O 8852   5.210   2.032   1.054 -0.3778 -0.0819 -0.4565
   68MOL0     C 8853   5.240   1.895   1.036  0.7574 -0.9146  0.4207
   68MOL0     C 8854   5.352   1.847   1.122 -0.0325  0.2146  0.6152
   68MOL0     C 8855   5.366   1.691   1.125  0.1577 -0.4256  0.8488
   68MOL0     C 8856   5.485   1.637   1.213  1.0955 -0.0816 -0.2091
   68MOL0     C 8857   5.528   1.501   1.167 -0.5618 -0.4032 -0.3275
   68MOL0     C 8858   5.653   1.454   1.251  0.1163 -0.1693 -0.5803
   68MOL0     C 8859   5.681   1.307   1.215 -0.1752 -0.5000 -0.4617
   68MOL0     C 8860   5.775   1.226   1.304 -0.6195 -0.0532 -0.7525
   68MOL0     N 8861   5.896   1.310   1.336 -0.1070  0.2757  0.5536
   68MOL0     C 8862   5.927   1.363   1.458 -0.4735 -0.3370 -0.1618
   68MOL0     C 8863   6.063   1.391   1.469 -0.9852 -0.1320 -0.1451
   68MOL0     C 8864   6.155   1.434   1.581  0.1571  0.2777 -0.7872
   68MOL0     C 8865   6.149   1.584   1.610  0.1235 -0.2416  1.2444
   68MOL0     C 8866   6.002   1.627   1.660  0.6621 -0.2951  0.9360
   68MOL0     C 8867   5.932   1.535   1.767  0.3365 -0.9263 -0.3155
   68MOL0     O 8868   5.800   1.579   1.800 -0.2219  0.1095 -0.0485
   68MOL0     C 8869   5.709   1.479   1.821 -0.4331  0.3994  0.4063
   68MOL0     C 8870   5.589   1.490   1.747  0.2654 -0.0425  0.2828
   68MOL0     C 8871   5.500   1.386   1.745  0.4820 -0.4942 -0.3705
   68MOL0     C 8872   5.515   1.269   1.826  0.9706 -0.2644  0.6720
   68MOL0     C 8873   5.417   1.156   1.824  0.2359  0.6673 -0.0028
   68MOL0     O 8874   5.311   1.168   1.747  0.2062  0.7795 -0.8957
   68MOL0     C 8875   5.232   1.057   1.722  0.5323 -0.0426  1.2418
   68MOL0     C 8876   5.166   1.003   1.830  0.1897  0.5654 -0.4672
   68MOL0     C 8877   5.079   0.898   1.807 -0.5798  0.1797 -0.0783
   68MOL0     C 8878   5.050   0.848   1.676  0.3327 -0.9459 -0.1685
   68MOL0     O 8879   4.982   0.729   1.663 -0.4428  0.4015 -1.1003
   68MOL0     C 8880   4.847   0.720   1.712 -0.2110  0.2267  0.2336
   68MOL0     C 8881   4.797   0.575   1.712  0.3541  0.9070  0.2941
   68MOL0     C 8882   4.643   0.556   1.715 -1.1097 -0.1066 -0.0074
   68MOL0     C 8883   4.581   0.635   1.830 -0.1126  0.0931 -0.2924
   68MOL0     C 8884   4.625   0.592   1.974  0.4125 -0.4692  0.5255
   68MOL0     C 8885   4.536   0.659   2.075  0.5396 -0.5798 -0.7480
   68MOL0     C 8886   4.569   0.809   2.066  0.0067  0.0506  0.4350
   68MOL0     C 8887   4.509   0.893   2.179 -0.2239  0.0274  0.6162
   68MOL0    Cl 8888   4.596   1.043   2.189 -0.1191  0.2059 -0.4709
   68MOL0     C 8889   5.097   0.915   1.564  1.0208 -0.5643 -0.3797
   68MOL0     C 8890   5.193   1.011   1.594 -0.1324 -0.7356  0.9162
   68MOL0     O 8891   5.441   1.053   1.890  0.8659  0.5544 -0.3838
   68MOL0     C 8892   5.630   1.278   1.913  1.0145 -0.3638  0.0580
   68MOL0     C 8893   5.727   1.370   1.912 -0.0430  0.3775  0.5317
   68MOL0     N 8894   6.113   1.349   1.342 -0.0061  0.0039 -0.3914
   68MOL0     N 8895   6.017   1.293   1.270 -0.4791  1.3816  1.4827
   68MOL0     C 8896   5.017   2.027   0.905  0.1296 -0.0639 -0.0162
   68MOL0     C 8897   4.887   2.075   0.883  0.2697  0.2372 -1.0465
   68MOL0     C 8898   4.498   2.232   0.818 -0.2419 -0.6133 -1.0164
   68MOL0     C 8899   4.444   2.262   0.697  0.3445 -0.8663  0.8739
   68MOL0     C 8900   4.298   2.259   0.676  0.6755 -0.3783 -0.3787
   68MOL0     C 8901   4.221   2.230   0.787  0.3296  0.4507  0.2940
   68MOL0     O 8902   4.090   2.227   0.764  0.0215  0.1939  0.8070
   68MOL0     C 8903   4.019   2.122   0.827 -0.6959  0.4459  0.0459
   68MOL0     C 8904   3.930   2.062   0.723 -0.1455  0.4284  0.5503
   68MOL0     C 8905   3.811   2.153   0.700 -0.9574  0.7951 -0.3017
   68MOL0     C 8906   3.812   2.217   0.567  0.0725  0.2281 -0.0292
   68MOL0     C 8907   3.803   2.124   0.449  0.0116  0.0518  0.4852
   68MOL0     C 8908   3.818   2.056   0.344  0.7514  0.0401 -0.9939
   68MOL0     C 8909   4.273   2.197   0.913 -0.1532  0.3151 -0.1074
   68MOL0     C 8910   4.414   2.196   0.932  0.0113  0.0774 -0.2163
   68MOL0     H 8911   4.855   2.307   1.123  0.8950  1.5880 -0.4225
   68MOL0     H 8912   5.087   2.214   1.184  2.9782  2.3347 -1.6745
   68MOL0     H 8913   5.265   1.859   0.936  0.3753  0.4865 -0.1922
   68MOL0     H 8914   5.150   1.841   1.066 -0.2664 -0.2366 -1.3253
   68MOL0     H 8915   5.329   1.881   1.224 -2.3193  0.0365  0.2016
   68MOL0     H 8916   5.442   1.884   1.072 -0.3009 -2.4617 -2.1427
   68MOL0     H 8917   5.370   1.662   1.020 -3.2413  0.6455  0.3076
   68MOL0     H 8918   5.275   1.650   1.170 -1.7082  0.4907 -1.8725
   68MOL0     H 8919   5.571   1.705   1.215 -0.2630  1.7154  1.5690
   68MOL0     H 8920   5.464   1.614   1.318 -1.3074 -3.3885 -1.2423
   68MOL0     H 8921   5.555   1.513   1.062 -2.2942 -0.5787 -0.8380
   68MOL0     H 8922   5.445   1.430   1.178 -0.5810 -0.2648  0.4714
   68MOL0     H 8923   5.633   1.457   1.358 -0.0827  0.8264 -0.6364
   68MOL0     H 8924   5.744   1.513   1.238 -0.1500  0.5485  0.7155
   68MOL0     H 8925   5.584   1.258   1.207  0.6114 -2.1581 -0.2003
   68MOL0     H 8926   5.729   1.312   1.117 -3.0473  0.2850 -1.9374
   68MOL0     H 8927   5.803   1.127   1.265  0.8761 -1.8447  4.0970
   68MOL0     H 8928   5.725   1.205   1.400  1.0479 -0.2993  0.1063
   68MOL0     H 8929   5.847   1.389   1.527 -0.5409  0.3846 -0.5046
   68MOL0     H 8930   6.253   1.402   1.543 -0.4477 -1.0301 -1.2976
   68MOL0     H 8931   6.132   1.389   1.678  0.6647  0.3225 -0.6420
   68MOL0     H 8932   6.161   1.637   1.515  2.2670 -0.7640  1.1607
   68MOL0     H 8933   6.229   1.611   1.680 -0.4874  3.2128  0.8211
   68MOL0     H 8934   5.986   1.728   1.697 -1.7431 -0.4223  0.3815
   68MOL0     H 8935   5.945   1.614   1.568  2.5043 -2.3444 -0.0344
   68MOL0     H 8936   5.995   1.533   1.857  0.0564 -2.7279 -0.1316
   68MOL0     H 8937   5.931   1.431   1.734 -1.4540 -1.1155  0.2207
   68MOL0     H 8938   5.569   1.568   1.674  0.2964 -2.2143 -2.1886
   68MOL0     H 8939   5.413   1.393   1.681  1.4523  2.7995 -1.4881
   68MOL0     H 8940   5.179   1.052   1.925  0.4233  0.0228 -0.2188
   68MOL0     H 8941   5.039   0.853   1.897 -1.6489  1.3734  0.0715
   68MOL0     H 8942   4.780   0.788   1.659  1.7762  2.6517  0.6900
   68MOL0     H 8943   4.854   0.755   1.816  2.5148  1.1456 -0.1844
   68MOL0     H 8944   4.854   0.527   1.792  0.4899  0.9602  0.2307
   68MOL0     H 8945   4.829   0.534   1.616  0.0598  0.5501  0.3454
   68MOL0     H 8946   4.618   0.451   1.732  1.1916 -0.7691 -0.2673
   68MOL0     H 8947   4.595   0.581   1.620 -1.2277  3.6418  0.9130
   68MOL0     H 8948   4.586   0.742   1.810 -0.1719  0.3532  1.0460
   68MOL0     H 8949   4.473   0.629   1.816 -0.0867 -0.8993 -0.1188
   68MOL0     H 8950   4.729   0.612   2.000  2.1209  0.1335 -5.2350
   68MOL0     H 8951   4.610   0.483   1.970 -3.7509 -0.0365 -0.2406
   68MOL0     H 8952   4.553   0.613   2.172 -0.9169  0.6106  0.1128
   68MOL0     H 8953   4.429   0.639   2.072  0.3071  0.4443  0.2400
   68MOL0     H 8954   4.677   0.829   2.071 -0.1624  1.0547  0.1526
   68MOL0     H 8955   4.534   0.849   1.971  1.3396  1.5481  0.5295
   68MOL0     H 8956   4.514   0.841   2.275  1.6752  0.2707  0.6892
   68MOL0     H 8957   4.403   0.917   2.172  0.2878  2.2179 -0.4642
   68MOL0     H 8958   5.087   0.879   1.462 -1.4518  1.0037 -0.7768
   68MOL0     H 8959   5.244   1.052   1.508  0.6760 -0.0002  1.7340
   68MOL0     H 8960   5.647   1.204   1.991  0.3102  0.7088  1.2821
   68MOL0     H 8961   5.825   1.356   1.957 -0.1838  0.6817  0.9438
   68MOL0     H 8962   5.050   1.945   0.842 -1.8845 -0.2846 -0.8881
   68MOL0     H 8963   4.833   2.025   0.804 -3.7137  0.2497  1.3798
   68MOL0     H 8964   4.511   2.293   0.618  0.6465  1.3045  1.9284
   68MOL0     H 8965   4.256   2.270   0.577  1.6263  0.3988 -0.7150
   68MOL0     H 8966   3.967   2.170   0.910  3.0772  1.9101  1.7733
   68MOL0     H 8967   4.088   2.045   0.862  0.8799  1.0672 -1.5369
   68MOL0     H 8968   3.989   2.027   0.637 -0.9464 -3.0580  1.2899
   68MOL0     H 8969   3.903   1.963   0.761  0.5295 -1.1815 -2.7234
   68MOL0     H 8970   3.821   2.233   0.774  1.2333  0.2816  0.0207
   68MOL0     H 8971   3.717   2.097   0.702 -0.0630 -0.9775 -2.6208
   68MOL0     H 8972   3.724   2.282   0.562 -0.1374 -0.1381 -3.6216
   68MOL0     H 8973   3.902   2.275   0.548  0.3360  0.0396  0.6235
   68MOL0     H 8974   3.828   1.986   0.264  0.2702  1.1483 -2.0670
   68MOL0     H 8975   4.204   2.175   0.994 -2.4210 -2.1002 -2.5019
   68MOL0     H 8976   4.461   2.175   1.028 -0.8713 -0.3856  0.1288
   69MOL0     O 8977   9.591   5.800   9.604 -0.1542  0.4159  0.6851
   69MOL0     C 8978   9.640   5.777   9.713 -0.4243  0.1657 -0.3002
   69MOL0     O 8979   9.731   5.854   9.778 -0.3329  0.4745 -0.3846
   69MOL0     C 8980   9.698   5.979   9.747  0.0171 -0.0993  0.1098
   69MOL0     C 8981   9.582   6.037   9.808  0.6759 -0.8477  0.0613
   69MOL0     C 8982   9.553   6.177   9.767 -0.0477 -0.3406  0.6013
   69MOL0     C 8983   9.639   6.245   9.686  0.6068 -0.5858 -0.1251
   69MOL0     O 8984   9.600   6.380   9.667  1.0818  0.0707  0.0353
   69MOL0     C 8985   9.634   6.413   9.533  0.0495 -0.0001 -0.2178
   69MOL0     C 8986   9.617   6.554   9.495 -1.1123  1.2797 -0.5851
   69MOL0     C 8987   9.468   6.606   9.500 -0.0297 -0.3024  0.4906
   69MOL0     C 8988   9.387   6.577   9.373 -0.3394 -0.4308 -0.4701
   69MOL0     C 8989   9.239   6.571   9.407  0.6782  0.1753 -0.0900
   69MOL0     C 8990   9.143   6.561   9.291  0.7452 -0.2260 -0.4422
   69MOL0     C 8991   9.153   6.434   9.207 -1.0600 -0.4937  0.0997
   69MOL0     C 8992   9.033   6.392   9.120 -0.3524  0.5136  0.4019
   69MOL0     N 8993   9.059   6.272   9.038  0.4102 -0.4622  0.7122
   69MOL0     C 8994   9.177   6.242   8.971  0.4215 -0.3726 -0.2975
   69MOL0     C 8995   9.149   6.119   8.919  0.9569 -0.6112 -0.3232
   69MOL0     C 8996   9.227   6.019   8.834  0.4917  0.1398 -0.3670
   69MOL0     C 8997   9.192   5.870   8.861  0.2318  0.5852  0.0403
   69MOL0     C 8998   9.240   5.810   8.999 -0.4888 -0.1543 -0.0021
   69MOL0     C 8999   9.392   5.813   9.016 -0.7012 -1.2961 -0.1233
   69MOL0     O 9000   9.469   5.756   8.912  0.4961  0.3117  0.4269
   69MOL0     C 9001   9.466   5.623   8.886  0.2571 -0.5892  0.4824
   69MOL0     C 9002   9.532   5.581   8.776 -0.4904  0.3236 -0.0713
   69MOL0     C 9003   9.534   5.453   8.729 -0.5763  1.1188 -0.3431
   69MOL0     C 9004   9.467   5.350   8.804  1.3857  0.3568  0.6486
   69MOL0     C 9005   9.487   5.213   8.761  0.6138  0.6852 -0.1164
   69MOL0     O 9006   9.471   5.120   8.858 -0.3521 -0.1510  0.1258
   69MOL0     C 9007   9.516   4.993   8.815  0.3174 -0.0220 -0.6501
   69MOL0     C 9008   9.642   4.944   8.852  0.5675 -0.3066  0.7770
   69MOL0     C 9009   9.679   4.821   8.809 -0.1150  0.6880 -0.0084
   69MOL0     C 9010   9.611   4.741   8.717  0.3753  0.3205  0.1889
   69MOL0     O 9011   9.653   4.614   8.696  0.5518  0.3155 -0.6923
   69MOL0     C 9012   9.642   4.586   8.562 -0.4995  0.6891  0.4426
   69MOL0     C 9013   9.741   4.471   8.532  0.0445  0.9717 -0.2205
   69MOL0     C 9014   9.733   4.425   8.383 -0.6086 -0.3393 -0.3309
   69MOL0     C 9015   9.594   4.407   8.326  0.7918  0.3892  0.2691
   69MOL0     C 9016   9.606   4.389   8.168  0.1946  0.1864  0.4720
   69MOL0     C 9017   9.670   4.252   8.133 -0.0716  0.6984 -0.9409
   69MOL0     C 9018   9.660   4.183   7.998  0.4457 -0.2454 -0.2375
   69MOL0     C 9019   9.735   4.263   7.887 -0.4010 -1.3101 -0.2364
   69MOL0    Cl 9020   9.913   4.272   7.905 -0.4520 -0.1879  0.3670
   69MOL0     C 9021   9.487   4.788   8.669  1.2081 -0.1978 -0.6911
   69MOL0     C 9022   9.444   4.911   8.715 -0.5499  0.3995  0.0697
   69MOL0     O 9023   9.514   5.187   8.646  0.5409  0.4178  0.3289
   69MOL0     C 9024   9.396   5.385   8.919 -0.2408 -0.1437  0.3144
   69MOL0     C 9025   9.398   5.522   8.965  0.2371  0.4349 -0.2406
   69MOL0     N 9026   9.020   6.086   8.946 -0.5872  0.0390 -0.0237
   69MOL0     N 9027   8.974   6.172   9.020 -0.0819 -0.9760  0.5592
   69MOL0     C 9028   9.754   6.180   9.628 -0.6575 -0.2581  0.4793
   69MOL0     C 9029   9.786   6.052   9.669  0.5449  1.1683  0.6591
   69MOL0     C 9030   9.629   5.641   9.755 -0.0540  0.1607 -0.2295
   69MOL0     C 9031   9.634   5.622   9.895 -0.0764  0.4039  1.2272
   69MOL0     C 9032   9.614   5.490   9.940 -0.0220  0.2188 -0.2898
   69MOL0     C 9033   9.589   5.381   9.853 -1.5981  0.6547 -0.6020
   69MOL0     O 9034   9.593   5.251   9.900 -0.2658 -0.5343 -0.2463
   69MOL0     C 9035   9.477   5.208   9.981 -0.3178  0.0078  0.3781
   69MOL0     C 9036   9.407   5.082   9.916 -0.0364 -0.0441 -0.7530
   69MOL0     C 9037   9.275   5.053   9.997 -1.8211  0.5086 -0.2940
   69MOL0     C 9038   9.163   5.164  10.005  0.3245 -0.5454 -0.1234
   69MOL0     C 9039   9.120   5.191   9.869 -0.3121  0.3696 -0.5437
   69MOL0     C 9040   9.057   5.221   9.765 -0.0672 -0.3229  1.3008
   69MOL0     C 9041   9.588   5.397   9.721  0.2383  1.0559  0.2050
   69MOL0     C 9042   9.617   5.526   9.672  0.1095  0.4485  0.8772
   69MOL0     H 9043   9.522   5.974   9.873  2.3038 -0.9299  1.5691
   69MOL0     H 9044   9.463   6.225   9.804  0.8207  1.9643 -0.1139
   69MOL0     H 9045   9.572   6.349   9.469 -1.5560 -0.7246  1.9655
   69MOL0     H 9046   9.741   6.399   9.512  0.6092 -1.6679  3.0156
   69MOL0     H 9047   9.660   6.561   9.394  1.9458  2.4177  0.6773
   69MOL0     H 9048   9.684   6.605   9.564  1.2183 -1.3088 -0.7618
   69MOL0     H 9049   9.480   6.711   9.528  0.9964 -0.5353  0.9745
   69MOL0     H 9050   9.408   6.561   9.580  1.9487 -0.8805  1.7157
   69MOL0     H 9051   9.417   6.662   9.311  0.9366 -1.3012 -1.0905
   69MOL0     H 9052   9.409   6.486   9.318  0.2677 -0.4626 -0.1887
   69MOL0     H 9053   9.223   6.661   9.468 -0.4803  1.2965 -1.9248
   69MOL0     H 9054   9.210   6.496   9.481 -0.9871  2.2807  1.5423
   69MOL0     H 9055   9.156   6.653   9.233  1.8865  2.9800  4.2721
   69MOL0     H 9056   9.041   6.563   9.330  0.0946  3.1379 -1.8984
   69MOL0     H 9057   9.239   6.452   9.142 -2.4902  2.0945 -1.2021
   69MOL0     H 9058   9.159   6.349   9.276 -0.0676 -0.6126 -0.1067
   69MOL0     H 9059   9.014   6.471   9.047 -0.7199  1.5603  1.5988
   69MOL0     H 9060   8.943   6.389   9.183  1.0283 -2.9379  2.5149
   69MOL0     H 9061   9.267   6.302   8.972 -1.2015  2.2197  0.7086
   69MOL0     H 9062   9.330   6.056   8.836 -0.7640  4.2075  2.8438
   69MOL0     H 9063   9.204   6.019   8.726 -2.2818  0.6073  0.1403
   69MOL0     H 9064   9.224   5.799   8.784 -0.9246 -1.6133  1.4782
   69MOL0     H 9065   9.083   5.865   8.860  0.2380  0.4535 -1.0181
   69MOL0     H 9066   9.199   5.865   9.084 -1.3081  2.0174 -1.6896
   69MOL0     H 9067   9.213   5.706   9.021 -0.1112  0.3489  3.3417
   69MOL0     H 9068   9.415   5.757   9.107  0.3974 -0.9051 -0.1419
   69MOL0     H 9069   9.430   5.914   9.031  1.2381 -1.7548 -1.4933
   69MOL0     H 9070   9.581   5.646   8.705  0.9476 -0.3683  0.2314
   69MOL0     H 9071   9.585   5.433   8.636  0.5742  0.0013  0.4893
   69MOL0     H 9072   9.709   4.997   8.918  0.3741  0.8992  0.0230
   69MOL0     H 9073   9.779   4.794   8.841  0.0493  0.0126 -1.0513
   69MOL0     H 9074   9.678   4.671   8.504  1.2865  0.7856  1.6011
   69MOL0     H 9075   9.543   4.562   8.521  0.6907 -0.2870 -2.1008
   69MOL0     H 9076   9.731   4.386   8.600  1.7036 -0.2149 -1.3594
   69MOL0     H 9077   9.834   4.527   8.547  0.1091  1.1804 -1.2983
   69MOL0     H 9078   9.789   4.335   8.358 -2.4623 -1.4133 -0.7672
   69MOL0     H 9079   9.779   4.511   8.332 -0.6624 -0.8881 -1.3202
   69MOL0     H 9080   9.548   4.321   8.375  1.0527  1.0714  1.7530
   69MOL0     H 9081   9.529   4.494   8.341 -0.1798 -0.4432  0.9862
   69MOL0     H 9082   9.663   4.466   8.115 -1.3853  3.1619  2.7434
   69MOL0     H 9083   9.509   4.403   8.120  0.6827  1.0502 -0.2983
   69MOL0     H 9084   9.627   4.182   8.206  4.5521  0.2281  1.7329
   69MOL0     H 9085   9.779   4.244   8.144  0.0814 -1.7218 -3.1269
   69MOL0     H 9086   9.709   4.087   8.014  2.6663  0.9047  0.3549
   69MOL0     H 9087   9.563   4.153   7.959 -0.0037 -0.4300  0.9664
   69MOL0     H 9088   9.704   4.367   7.873 -1.0358 -1.1491  2.0255
   69MOL0     H 9089   9.723   4.215   7.789 -1.5277 -1.6648  0.0603
   69MOL0     H 9090   9.435   4.731   8.592  1.6030 -3.0856  1.0521
   69MOL0     H 9091   9.353   4.958   8.683 -1.1406  0.3134  1.5224
   69MOL0     H 9092   9.358   5.316   8.994 -0.0917 -1.6064 -0.9133
   69MOL0     H 9093   9.349   5.545   9.059  0.9175 -0.2590  0.3030
   69MOL0     H 9094   9.829   6.234   9.572 -0.0422  0.0163  1.5445
   69MOL0     H 9095   9.882   6.018   9.631  0.5530  2.5134 -0.5786
   69MOL0     H 9096   9.647   5.704   9.965  0.4594  2.1403 -0.7987
   69MOL0     H 9097   9.609   5.476  10.048  1.6592  1.8656  0.0665
   69MOL0     H 9098   9.405   5.285  10.011 -0.3080 -0.7820  2.5582
   69MOL0     H 9099   9.523   5.164  10.069 -1.8583  0.5697  1.5081
   69MOL0     H 9100   9.383   5.091   9.810  2.4268 -0.4834 -1.4230
   69MOL0     H 9101   9.478   4.998   9.911 -1.0547 -0.9422 -0.4367
   69MOL0     H 9102   9.309   5.027  10.098 -1.9577  1.1643 -0.0762
   69MOL0     H 9103   9.240   4.959   9.953  0.4126 -0.4623 -0.1725
   69MOL0     H 9104   9.081   5.138  10.071  0.1247 -0.2643 -0.2555
   69MOL0     H 9105   9.195   5.260  10.047  2.3357 -0.8303 -0.8695
   69MOL0     H 9106   9.003   5.244   9.676  3.6193  1.4620 -0.7180
   69MOL0     H 9107   9.572   5.312   9.656 -0.5060  0.8566  0.6467
   69MOL0     H 9108   9.606   5.533   9.564  1.0659 -1.3307  0.6109
   70MOL0     O 9109   1.059   8.774   9.120 -0.5182  0.1104  1.0343
   70MOL0     C 9110   1.099   8.691   9.205 -0.2081 -0.7135  0.3427
   70MOL0     O 9111   1.045   8.569   9.228  0.1160 -0.3455 -0.1057
   70MOL0     C 9112   0.928   8.528   9.161  0.6038  0.6042  0.0821
   70MOL0     C 9113   0.807   8.508   9.225  0.3299  0.4100 -0.0884
   70MOL0     C 9114   0.684   8.469   9.171 -0.1017  0.2319  0.1768
   70MOL0     C 9115   0.686   8.460   9.028 -0.2972  0.9719 -0.1561
   70MOL0     O 9116   0.567   8.422   8.971  0.3365 -0.0240 -0.7514
   70MOL0     C 9117   0.526   8.486   8.855 -0.0902  0.7484  0.8854
   70MOL0     C 9118   0.487   8.632   8.888 -0.5055  0.3337 -0.5797
   70MOL0     C 9119   0.602   8.728   8.882  0.3446  0.1517 -0.3330
   70MOL0     C 9120   0.550   8.866   8.931 -0.3727 -0.2178  0.1040
   70MOL0     C 9121   0.654   8.969   8.985 -0.1809 -0.6418  0.8474
   70MOL0     C 9122   0.776   8.975   8.889  0.1991 -0.0370  0.4223
   70MOL0     C 9123   0.855   9.094   8.910 -0.1891  0.2551  0.0150
   70MOL0     C 9124   0.909   9.102   9.057 -0.5251 -0.0368 -0.3483
   70MOL0     N 9125   1.011   9.213   9.056 -0.3512 -0.3592  0.9269
   70MOL0     C 9126   1.123   9.245   8.979  0.6446  0.2480 -0.0154
   70MOL0     C 9127   1.201   9.335   9.046 -0.1340 -0.4249  0.7916
   70MOL0     C 9128   1.343   9.376   9.015 -0.5846  0.0424  0.7287
   70MOL0     C 9129   1.350   9.515   8.943  1.0018  0.4808 -0.4335
   70MOL0     C 9130   1.280   9.627   9.021 -0.5196 -0.7110  1.2884
   70MOL0     C 9131   1.254   9.733   8.917 -0.4449 -0.7769 -0.7608
   70MOL0     O 9132   1.387   9.780   8.876 -0.4932 -0.4376  0.3605
   70MOL0     C 9133   1.399   9.809   8.743  0.7198  0.7408  0.3499
   70MOL0     C 9134   1.470   9.926   8.706  0.5146  0.9260  0.1839
   70MOL0     C 9135   1.490   9.963   8.577 -0.2501  0.2694 -0.5579
   70MOL0     C 9136   1.460   9.872   8.482 -0.5497 -0.1295  0.0055
   70MOL0     C 9137   1.486   9.894   8.336 -0.2397 -0.4769 -0.5516
   70MOL0     O 9138   1.380   9.854   8.247 -1.0122  0.6672 -0.7703
   70MOL0     C 9139   1.368   9.925   8.132  0.0269  0.3172 -0.3071
   70MOL0     C 9140   1.396  10.073   8.122  0.0735  0.7698  0.1382
   70MOL0     C 9141   1.360  10.146   8.013  0.8072  0.5019 -0.4777
   70MOL0     C 9142   1.310  10.078   7.904  1.2569 -0.2309 -0.3416
   70MOL0     O 9143   1.270  10.165   7.799 -0.2733 -0.5656 -0.4449
   70MOL0     C 9144   1.207  10.117   7.678 -0.3378 -0.3569  0.4429
   70MOL0     C 9145   1.316  10.091   7.583  0.0041  1.0608  0.5729
   70MOL0     C 9146   1.257  10.049   7.440  0.2095  0.0808 -0.6599
   70MOL0     C 9147   1.369  10.008   7.346  0.1736  0.6244 -0.1162
   70MOL0     C 9148   1.320   9.979   7.197 -0.0181 -0.6616 -0.0849
   70MOL0     C 9149   1.202   9.867   7.199 -0.4694 -0.7247 -0.0835
   70MOL0     C 9150   1.206   9.791   7.070  0.9894 -2.1217 -0.8035
   70MOL0     C 9151   1.093   9.686   7.057 -0.9948  0.7473  0.3067
   70MOL0    Cl 9152   1.112   9.534   7.160  0.0140  0.1593 -0.2477
   70MOL0     C 9153   1.289   9.943   7.904 -1.0953 -0.8962 -0.1053
   70MOL0     C 9154   1.311   9.868   8.021 -0.6763  0.1731 -0.0583
   70MOL0     O 9155   1.589   9.958   8.308  1.0928 -0.7025  0.1929
   70MOL0     C 9156   1.397   9.754   8.510  1.1465  0.7074  1.0048
   70MOL0     C 9157   1.350   9.725   8.636 -0.4074 -0.7466 -0.3789
   70MOL0     N 9158   1.130   9.375   9.161  0.5435  0.2217  0.7891
   70MOL0     N 9159   1.021   9.299   9.160  0.4505  0.1078  0.4053
   70MOL0     C 9160   0.813   8.470   8.959 -0.2089 -0.8365  0.9984
   70MOL0     C 9161   0.929   8.505   9.021 -0.1443 -0.5714  0.0014
   70MOL0     C 9162   1.220   8.726   9.286 -0.1601 -0.9277  0.2440
   70MOL0     C 9163   1.276   8.638   9.385  0.1531 -0.5310  0.3247
   70MOL0     C 9164   1.387   8.674   9.458 -0.7161  0.5285 -0.8010
   70MOL0     C 9165   1.462   8.790   9.423  0.2611  0.1599 -0.5813
   70MOL0     O 9166   1.567   8.807   9.512 -0.3314 -0.1763  0.5466
   70MOL0     C 9167   1.668   8.907   9.483  0.1091  0.7818  0.3384
   70MOL0     C 9168   1.762   8.846   9.379 -0.8465 -1.3283  1.1899
   70MOL0     C 9169   1.828   8.951   9.294 -0.5570 -0.2882 -0.6593
   70MOL0     C 9170   1.954   8.985   9.372 -0.5400 -0.5167  0.3835
   70MOL0     C 9171   2.002   9.105   9.295  0.4271 -0.6894  0.5803
   70MOL0     C 9172   2.054   9.204   9.240  0.8670  0.2583  0.6596
   70MOL0     C 9173   1.418   8.868   9.325  0.5895  0.0331 -0.0966
   70MOL0     C 9174   1.297   8.842   9.261 -0.0216  0.2915  0.0581
   70MOL0     H 9175   0.811   8.529   9.331 -2.7785 -1.8688  0.6218
   70MOL0     H 9176   0.591   8.470   9.227 -1.3679  1.0850 -1.8199
   70MOL0     H 9177   0.442   8.435   8.808 -0.1101 -0.3372  2.0288
   70MOL0     H 9178   0.604   8.487   8.778 -0.9013 -1.0449 -0.0052
   70MOL0     H 9179   0.432   8.635   8.983  0.7261 -1.4989  0.2515
   70MOL0     H 9180   0.413   8.662   8.813  1.3592 -0.0191 -2.6770
   70MOL0     H 9181   0.636   8.740   8.779  1.3349  0.1658 -0.0218
   70MOL0     H 9182   0.679   8.691   8.951 -0.0181 -1.3947 -0.7229
   70MOL0     H 9183   0.494   8.909   8.848  1.1960  0.5147 -0.6120
   70MOL0     H 9184   0.476   8.846   9.010 -0.4133  1.5730  0.5713
   70MOL0     H 9185   0.695   8.945   9.083  0.5678  3.0537  1.5808
   70MOL0     H 9186   0.609   9.068   8.990 -0.3951 -0.6592 -0.2983
   70MOL0     H 9187   0.736   8.974   8.787 -1.7471 -0.1968  1.1394
   70MOL0     H 9188   0.845   8.891   8.896  1.7140  1.0151 -1.0779
   70MOL0     H 9189   0.939   9.112   8.843 -1.6678  2.8125 -1.3482
   70MOL0     H 9190   0.797   9.187   8.906  2.2190  1.7836 -1.1460
   70MOL0     H 9191   0.961   9.012   9.090 -0.6244 -0.5094 -1.4575
   70MOL0     H 9192   0.830   9.117   9.132 -1.0907  1.8001 -1.2584
   70MOL0     H 9193   1.141   9.186   8.889 -1.0407 -1.5545  0.7469
   70MOL0     H 9194   1.403   9.299   8.965  0.0147  1.2894 -0.5433
   70MOL0     H 9195   1.393   9.395   9.110  2.4845  3.7595 -1.3503
   70MOL0     H 9196   1.296   9.505   8.848 -0.3254 -2.7218  0.5207
   70MOL0     H 9197   1.457   9.535   8.938  1.5754 -1.8711  1.1117
   70MOL0     H 9198   1.186   9.604   9.074 -1.4356  3.0946  1.6135
   70MOL0     H 9199   1.348   9.667   9.097  2.0415 -0.6388 -0.9028
   70MOL0     H 9200   1.196   9.809   8.972 -2.8599 -1.5619 -2.0952
   70MOL0     H 9201   1.181   9.711   8.839 -2.6247 -1.6663  1.4104
   70MOL0     H 9202   1.510   9.995   8.779 -0.4203  1.5090  0.1710
   70MOL0     H 9203   1.556  10.048   8.565 -1.4800  0.9322 -3.5885
   70MOL0     H 9204   1.433  10.131   8.206  0.5902  1.3768 -0.4965
   70MOL0     H 9205   1.368  10.254   8.009  0.9875  0.4521 -4.0230
   70MOL0     H 9206   1.148  10.203   7.643  0.5570  0.0400 -0.1016
   70MOL0     H 9207   1.152  10.023   7.689  2.2561 -1.7624  2.1483
   70MOL0     H 9208   1.380  10.014   7.629 -0.1018  0.8624  0.3909
   70MOL0     H 9209   1.381  10.177   7.567  1.0754  0.4243  1.3503
   70MOL0     H 9210   1.207  10.132   7.390  3.8020  1.1042 -2.9621
   70MOL0     H 9211   1.185   9.966   7.446 -1.3002  1.3153 -1.0471
   70MOL0     H 9212   1.443  10.088   7.340 -0.7480  1.5558  0.4420
   70MOL0     H 9213   1.415   9.920   7.393 -0.4750 -0.7889 -2.0094
   70MOL0     H 9214   1.405   9.940   7.141  1.1390  0.8213  0.5576
   70MOL0     H 9215   1.284  10.060   7.134  2.9779 -0.6265 -1.9295
   70MOL0     H 9216   1.104   9.916   7.208  1.1499  2.4634  2.3876
   70MOL0     H 9217   1.214   9.803   7.287  0.4617  0.0427  0.3780
   70MOL0     H 9218   1.178   9.869   6.998 -0.7762 -0.7135  1.2833
   70MOL0     H 9219   1.303   9.749   7.041  1.6304 -1.4916  0.3359
   70MOL0     H 9220   1.091   9.657   6.951  1.4630 -2.7995  1.0529
   70MOL0     H 9221   0.996   9.730   7.083 -0.2621  2.5733  0.1481
   70MOL0     H 9222   1.236   9.903   7.818 -0.1518 -0.5766 -0.8579
   70MOL0     H 9223   1.295   9.761   8.011 -0.9024  0.1628  0.4109
   70MOL0     H 9224   1.370   9.688   8.428  0.6582  2.5767 -0.4019
   70MOL0     H 9225   1.271   9.652   8.647 -0.5606 -0.8417 -1.8343
   70MOL0     H 9226   0.839   8.454   8.855  1.5992 -0.8886  1.4298
   70MOL0     H 9227   1.023   8.527   8.970 -1.0602  0.7279 -1.1937
   70MOL0     H 9228   1.225   8.547   9.413 -2.2538  0.7540  0.3519
   70MOL0     H 9229   1.421   8.623   9.548 -0.1292  1.6235 -0.3863
   70MOL0     H 9230   1.735   8.922   9.568 -0.7110  2.2690  0.7550
   70MOL0     H 9231   1.629   9.001   9.441  0.6298  0.0684 -1.9126
   70MOL0     H 9232   1.834   8.778   9.425  0.9573  0.1669  0.7444
   70MOL0     H 9233   1.700   8.784   9.314 -0.2978 -2.4245  1.6932
   70MOL0     H 9234   1.765   9.038   9.272 -2.0502 -2.0100 -3.8228
   70MOL0     H 9235   1.860   8.917   9.195 -0.0586 -3.2368  0.4296
   70MOL0     H 9236   1.942   9.010   9.478  0.7203 -0.3847  0.5107
   70MOL0     H 9237   2.018   8.898   9.358 -3.5872 -2.4597 -3.2597
   70MOL0     H 9238   2.067   9.295   9.186  2.8944 -0.0401  0.5702
   70MOL0     H 9239   1.484   8.950   9.297  0.5354  0.0349 -0.2207
   70MOL0     H 9240   1.262   8.916   9.189 -0.8269  1.4476  1.5943
   71MOL0     O 9241   3.765   2.362   8.519 -0.6258  1.2199 -0.3719
   71MOL0     C 9242   3.709   2.336   8.412 -0.3661 -0.4042  0.3265
   71MOL0     O 9243   3.705   2.408   8.291 -1.0938 -0.9884 -0.7686
   71MOL0     C 9244   3.730   2.542   8.295  0.1784 -0.4756  0.0285
   71MOL0     C 9245   3.713   2.599   8.165  0.2655  0.4049 -0.1373
   71MOL0     C 9246   3.721   2.739   8.144 -0.0531  0.2088  0.0780
   71MOL0     C 9247   3.734   2.828   8.245  0.6496  0.2028  0.4870
   71MOL0     O 9248   3.756   2.963   8.217  0.5524  0.0840  0.3600
   71MOL0     C 9249   3.791   3.007   8.086 -0.3042  0.1718 -0.1867
   71MOL0     C 9250   3.859   3.147   8.101 -0.2327  1.7097 -0.1932
   71MOL0     C 9251   3.764   3.244   8.153 -0.3210 -1.0245 -1.1061
   71MOL0     C 9252   3.838   3.381   8.171 -0.8016  0.3133 -0.7658
   71MOL0     C 9253   3.755   3.510   8.206  0.4456  0.0799  0.7829
   71MOL0     C 9254   3.842   3.628   8.235 -0.4096 -0.9962  0.6807
   71MOL0     C 9255   3.920   3.602   8.365  1.0409 -0.3445  0.5233
   71MOL0     C 9256   3.945   3.736   8.437 -0.7467 -0.3410  0.2376
   71MOL0     N 9257   4.067   3.803   8.374  1.0095  0.8273  1.0024
   71MOL0     C 9258   4.084   3.938   8.383 -0.4899  0.8745 -0.3311
   71MOL0     C 9259   4.205   3.970   8.315 -0.5197 -0.7165  0.0929
   71MOL0     C 9260   4.243   4.121   8.289  1.0908 -0.9610  0.3567
   71MOL0     C 9261   4.380   4.130   8.217  0.3711 -0.2995  0.5818
   71MOL0     C 9262   4.422   4.285   8.230 -1.3248 -0.9861  0.2827
   71MOL0     C 9263   4.568   4.318   8.178  0.7248 -0.0119 -0.7695
   71MOL0     O 9264   4.652   4.267   8.278 -0.7798 -0.3407 -0.2073
   71MOL0     C 9265   4.779   4.314   8.295 -0.0477 -0.0441 -0.7224
   71MOL0     C 9266   4.881   4.220   8.306 -0.3304 -0.3336 -0.4492
   71MOL0     C 9267   5.015   4.265   8.330  0.1729 -0.1522  0.7882
   71MOL0     C 9268   5.043   4.397   8.348 -0.2225  0.6746  0.4093
   71MOL0     C 9269   5.184   4.437   8.369 -0.0352  1.0286  0.8343
   71MOL0     O 9270   5.209   4.568   8.394  0.3003  0.0830 -0.2791
   71MOL0     C 9271   5.327   4.630   8.420  0.1247  0.3382 -0.7908
   71MOL0     C 9272   5.327   4.765   8.399  0.6796  0.0728 -1.5535
   71MOL0     C 9273   5.431   4.842   8.440  0.1052  0.3839 -0.3806
   71MOL0     C 9274   5.550   4.787   8.486  0.0367  0.0118  0.0538
   71MOL0     O 9275   5.653   4.868   8.532 -0.4117 -0.3493  0.5105
   71MOL0     C 9276   5.777   4.853   8.464  1.1451 -0.3799 -0.1214
   71MOL0     C 9277   5.888   4.866   8.564  0.2815 -0.5906 -0.3340
   71MOL0     C 9278   5.887   4.762   8.679 -0.6066 -0.6031 -0.4740
   71MOL0     C 9279   5.905   4.620   8.638  0.0054  0.9511  0.3984
   71MOL0     C 9280   6.046   4.564   8.609 -0.4777  0.7926  0.7918
   71MOL0     C 9281   6.042   4.416   8.592 -0.2501  0.3763  0.5496
   71MOL0     C 9282   6.021   4.381   8.437 -0.2824 -1.5319 -0.3599
   71MOL0     C 9283   6.027   4.240   8.414 -1.1515 -0.0714 -0.5424
   71MOL0    Cl 9284   6.039   4.223   8.239 -0.2299 -0.1229 -0.6918
   71MOL0     C 9285   5.553   4.647   8.504  0.3425  0.4711 -1.1311
   71MOL0     C 9286   5.441   4.569   8.481  0.6744 -0.2996  0.5463
   71MOL0     O 9287   5.274   4.346   8.367  0.2497  0.0888  0.6143
   71MOL0     C 9288   4.945   4.487   8.330 -0.4425 -0.3784  0.3428
   71MOL0     C 9289   4.812   4.446   8.306  0.3938 -0.8549  0.5593
   71MOL0     N 9290   4.262   3.848   8.277 -0.6826 -0.4681 -0.4302
   71MOL0     N 9291   4.180   3.751   8.313  0.0666 -0.0729 -0.2632
   71MOL0     C 9292   3.746   2.776   8.375 -1.3114 -0.0063 -0.4608
   71MOL0     C 9293   3.740   2.638   8.413 -0.0814 -0.2587 -0.3330
   71MOL0     C 9294   3.670   2.202   8.416 -0.2109 -0.6299 -0.7264
   71MOL0     C 9295   3.542   2.170   8.366  0.1139 -0.3196 -0.6229
   71MOL0     C 9296   3.502   2.043   8.351  0.2031  0.5227 -0.3658
   71MOL0     C 9297   3.581   1.939   8.393  0.0350 -0.7633  0.3719
   71MOL0     O 9298   3.534   1.813   8.376 -0.1070 -0.4549 -0.0935
   71MOL0     C 9299   3.584   1.700   8.451  0.6518 -0.3233  0.1017
   71MOL0     C 9300   3.521   1.685   8.586  0.3311  0.0747  0.6338
   71MOL0     C 9301   3.588   1.562   8.665  0.7873  0.2266 -0.0065
   71MOL0     C 9302   3.541   1.556   8.810  0.5301 -0.3446 -0.5507
   71MOL0     C 9303   3.395   1.531   8.833  0.1448 -0.4663 -1.3310
   71MOL0     C 9304   3.284   1.490   8.856 -1.0508 -0.1626 -0.1593
   71MOL0     C 9305   3.699   1.971   8.459  0.1829  0.5740 -1.1219
   71MOL0     C 9306   3.755   2.099   8.460  0.1094 -0.2008 -0.0561
   71MOL0     H 9307   3.713   2.539   8.075 -0.7714  1.6431 -1.0023
   71MOL0     H 9308   3.735   2.761   8.038 -1.9558  1.9189  0.1363
   71MOL0     H 9309   3.708   3.018   8.016  1.7972  3.8145 -2.4236
   71MOL0     H 9310   3.873   2.945   8.047  0.9379  0.2466  2.1001
   71MOL0     H 9311   3.902   3.180   8.006  0.9852 -1.2221 -0.7877
   71MOL0     H 9312   3.936   3.118   8.174 -0.3259 -1.2343 -1.1181
   71MOL0     H 9313   3.743   3.198   8.250 -1.5385 -0.6057 -1.1485
   71MOL0     H 9314   3.677   3.261   8.088  0.0119  0.4679 -1.1932
   71MOL0     H 9315   3.911   3.360   8.249 -2.6333 -1.8999  0.4646
   71MOL0     H 9316   3.901   3.403   8.084 -0.5919 -2.2587 -1.3310
   71MOL0     H 9317   3.686   3.498   8.290 -0.4402  2.2559  0.4403
   71MOL0     H 9318   3.704   3.540   8.114  1.4156  2.4342  0.9466
   71MOL0     H 9319   3.786   3.722   8.238 -0.1807 -0.8916  2.7432
   71MOL0     H 9320   3.910   3.635   8.150 -2.0662 -4.3742 -1.1349
   71MOL0     H 9321   3.851   3.557   8.437 -0.4854 -1.5560 -1.5683
   71MOL0     H 9322   4.012   3.545   8.348 -0.3109 -1.6916 -3.5069
   71MOL0     H 9323   3.989   3.709   8.533 -0.0478 -2.7666 -0.6809
   71MOL0     H 9324   3.858   3.801   8.451  1.4767  2.3577  2.7093
   71MOL0     H 9325   4.014   4.004   8.433 -1.3313 -0.6890  0.6281
   71MOL0     H 9326   4.252   4.179   8.381  1.7768 -1.5598  0.6787
   71MOL0     H 9327   4.167   4.169   8.227  0.7123  0.5670  1.9435
   71MOL0     H 9328   4.364   4.108   8.111  2.6329  2.5839 -0.4894
   71MOL0     H 9329   4.455   4.072   8.270 -0.5179  0.5529  2.8988
   71MOL0     H 9330   4.355   4.359   8.185 -0.2820 -0.2094 -0.0414
   71MOL0     H 9331   4.417   4.311   8.336  1.1397 -3.0728  1.0130
   71MOL0     H 9332   4.585   4.423   8.153 -0.9256  0.5312  0.2349
   71MOL0     H 9333   4.583   4.265   8.083  0.7894  0.3127 -0.9423
   71MOL0     H 9334   4.856   4.114   8.310 -2.8837  0.2338  0.8291
   71MOL0     H 9335   5.091   4.188   8.328 -0.7996 -1.2614 -3.3340
   71MOL0     H 9336   5.231   4.806   8.367 -1.4700 -0.9846  2.7051
   71MOL0     H 9337   5.421   4.949   8.425 -2.4086  0.3238  0.3612
   71MOL0     H 9338   5.784   4.923   8.381 -2.7015  1.6342  1.0439
   71MOL0     H 9339   5.788   4.752   8.422 -4.4747 -1.3824  0.0974
   71MOL0     H 9340   5.880   4.968   8.601 -1.0409 -1.1886  1.1639
   71MOL0     H 9341   5.990   4.854   8.525  1.5916  0.0660  2.6221
   71MOL0     H 9342   5.795   4.777   8.736 -0.5464  1.9150 -0.9325
   71MOL0     H 9343   5.964   4.789   8.752 -0.9533  4.7176 -1.7059
   71MOL0     H 9344   5.863   4.552   8.712 -2.9845  2.4444  0.2357
   71MOL0     H 9345   5.834   4.606   8.556 -0.9730  0.1752  1.3579
   71MOL0     H 9346   6.105   4.592   8.697  2.6731  1.2413 -1.3116
   71MOL0     H 9347   6.090   4.608   8.519 -3.0571  1.2225 -0.3622
   71MOL0     H 9348   5.954   4.374   8.642 -2.8070 -1.0404 -4.3927
   71MOL0     H 9349   6.133   4.363   8.622  1.4140  2.8565  0.2216
   71MOL0     H 9350   5.924   4.418   8.402  1.0113  2.2168 -0.5366
   71MOL0     H 9351   6.092   4.432   8.371 -0.5993  0.9036  1.0354
   71MOL0     H 9352   5.935   4.191   8.449 -2.1507  0.3175 -2.4871
   71MOL0     H 9353   6.110   4.194   8.469 -0.7887  0.2197 -0.8429
   71MOL0     H 9354   5.634   4.591   8.549 -2.7460 -2.2247  1.6660
   71MOL0     H 9355   5.450   4.463   8.500 -2.2715 -0.1376  3.6177
   71MOL0     H 9356   4.973   4.591   8.318  1.5174 -1.1505 -3.2452
   71MOL0     H 9357   4.737   4.523   8.290  2.0500  0.5092 -1.1052
   71MOL0     H 9358   3.743   2.851   8.453 -0.4602 -1.1179  0.6828
   71MOL0     H 9359   3.740   2.600   8.514 -2.1562 -0.5114 -0.3731
   71MOL0     H 9360   3.478   2.248   8.327  2.3103  0.3782 -3.1576
   71MOL0     H 9361   3.406   2.016   8.309 -0.1224 -3.0060  2.1507
   71MOL0     H 9362   3.692   1.691   8.464  0.5962 -2.0906 -0.4341
   71MOL0     H 9363   3.547   1.611   8.400 -0.0010 -0.4772  0.8195
   71MOL0     H 9364   3.517   1.774   8.649 -4.3612  0.2578  0.4470
   71MOL0     H 9365   3.415   1.664   8.569 -0.3211  1.7920  2.1902
   71MOL0     H 9366   3.696   1.572   8.678  1.0454 -0.8177 -1.1069
   71MOL0     H 9367   3.557   1.472   8.611  1.8102  1.1042 -2.2091
   71MOL0     H 9368   3.588   1.471   8.861 -1.4461 -0.1829  1.7188
   71MOL0     H 9369   3.576   1.649   8.857  0.1645 -0.3283 -0.3109
   71MOL0     H 9370   3.196   1.451   8.903 -1.4469 -0.0111 -0.7674
   71MOL0     H 9371   3.760   1.888   8.494  2.3128  1.9277 -1.3731
   71MOL0     H 9372   3.860   2.093   8.488  0.1541 -0.6018 -0.3011
   72MOL0     O 9373   6.822   2.957   9.295 -0.5930 -0.1396  0.0622
   72MOL0     C 9374   6.753   2.853   9.299 -0.3457 -0.4181 -0.0667
   72MOL0     O 9375   6.720   2.796   9.414 -0.3468  0.8465  0.7406
   72MOL0     C 9376   6.738   2.856   9.539  0.0826  0.3623  0.2380
   72MOL0     C 9377   6.749   2.999   9.564 -0.0982  0.4326 -0.5328
   72MOL0     C 9378   6.803   3.042   9.686  0.2508 -0.3632  0.7679
   72MOL0     C 9379   6.840   2.949   9.788  0.4426 -0.4695 -0.9705
   72MOL0     O 9380   6.885   2.997   9.912 -0.0058 -0.0577  0.8489
   72MOL0     C 9381   6.899   2.911  10.025 -0.2577 -0.3036  0.2129
   72MOL0     C 9382   6.906   3.012  10.142  0.5805  0.3006 -0.5503
   72MOL0     C 9383   6.889   2.945  10.285 -1.3531 -1.3214 -0.4078
   72MOL0     C 9384   7.011   2.853  10.322 -0.6363  0.2551  0.9462
   72MOL0     C 9385   6.990   2.820  10.471 -0.5636 -0.0334 -0.4620
   72MOL0     C 9386   7.065   2.693  10.516  0.6000 -0.0466  0.9438
   72MOL0     C 9387   7.119   2.697  10.652 -1.0753  0.0756 -0.3406
   72MOL0     C 9388   7.249   2.789  10.665 -0.1263  0.2933  0.3643
   72MOL0     N 9389   7.318   2.786  10.800 -0.1184 -0.2036 -0.1006
   72MOL0     C 9390   7.328   2.898  10.877  0.0687  0.6429 -0.3847
   72MOL0     C 9391   7.401   2.866  10.981  0.3549 -0.4994  0.0747
   72MOL0     C 9392   7.453   2.982  11.072 -0.0448 -0.2177 -0.1406
   72MOL0     C 9393   7.595   3.029  11.031  0.5047 -0.5563 -0.5720
   72MOL0     C 9394   7.699   2.915  11.046 -0.1209  0.1380  0.2618
   72MOL0     C 9395   7.832   2.963  10.981  0.6225  0.6057 -0.1395
   72MOL0     O 9396   7.884   3.064  11.075  0.1052  0.3513  0.6437
   72MOL0     C 9397   8.006   3.116  11.053 -0.0842  0.1230  1.0220
   72MOL0     C 9398   8.044   3.151  10.923  0.2654 -1.2705  0.2348
   72MOL0     C 9399   8.177   3.203  10.905 -0.6662 -0.1856 -0.4886
   72MOL0     C 9400   8.261   3.221  11.015  0.1284  0.0946 -0.2648
   72MOL0     C 9401   8.395   3.281  10.985 -0.2209 -0.0553 -1.2330
   72MOL0     O 9402   8.396   3.375  10.884  0.6097 -0.1827  0.3440
   72MOL0     C 9403   8.502   3.445  10.827 -0.1129 -0.5190  0.1805
   72MOL0     C 9404   8.465   3.521  10.726  1.0542  0.2270 -1.0127
   72MOL0     C 9405   8.547   3.621  10.670  0.4773 -0.6177  1.1102
   72MOL0     C 9406   8.667   3.645  10.736  0.1320  0.3045 -0.4933
   72MOL0     O 9407   8.732   3.758  10.696 -0.1010 -0.2966  0.5025
   72MOL0     C 9408   8.673   3.878  10.738  0.2108  0.2484  0.8835
   72MOL0     C 9409   8.782   3.975  10.708 -0.5408 -0.5304  0.4480
   72MOL0     C 9410   8.771   4.111  10.785 -0.3529 -0.1710  0.5821
   72MOL0     C 9411   8.707   4.225  10.701  0.4747 -0.3978 -0.0946
   72MOL0     C 9412   8.795   4.351  10.713  0.7466 -0.0614  0.0205
   72MOL0     C 9413   8.769   4.414  10.857  0.1527  0.6173  0.6812
   72MOL0     C 9414   8.804   4.563  10.855  0.4181 -0.1620  0.4418
   72MOL0     C 9415   8.930   4.606  10.788  0.1866  1.0232 -0.0685
   72MOL0    Cl 9416   8.985   4.773  10.816  0.4262 -0.1786  0.3700
   72MOL0     C 9417   8.709   3.564  10.839 -1.1313  0.5510  0.6066
   72MOL0     C 9418   8.630   3.465  10.885  0.6512  1.6508 -0.4383
   72MOL0     O 9419   8.491   3.240  11.051 -0.5456 -1.0641  0.0732
   72MOL0     C 9420   8.216   3.184  11.138  0.1988 -0.9125 -0.0806
   72MOL0     C 9421   8.086   3.146  11.162 -0.0060  0.1567  0.4373
   72MOL0     N 9422   7.427   2.729  10.981 -0.6185  0.0144  0.0683
   72MOL0     N 9423   7.390   2.690  10.866  0.6786 -0.1601  0.9758
   72MOL0     C 9424   6.824   2.808   9.757 -0.3595  0.0467 -0.0047
   72MOL0     C 9425   6.776   2.762   9.635 -0.1998 -0.6198 -0.8975
   72MOL0     C 9426   6.691   2.813   9.177  0.1327  1.1479  0.1963
   72MOL0     C 9427   6.688   2.881   9.053 -0.0709  0.6462  0.1528
   72MOL0     C 9428   6.610   2.844   8.947 -0.1324 -0.1594 -0.9651
   72MOL0     C 9429   6.541   2.729   8.955  0.9730 -0.2325 -0.0075
   72MOL0     O 9430   6.460   2.704   8.848 -0.4590  0.4991 -0.0718
   72MOL0     C 9431   6.395   2.579   8.827 -0.1575  0.6842 -0.3511
   72MOL0     C 9432   6.493   2.467   8.789 -0.1940  0.1110 -0.1994
   72MOL0     C 9433   6.512   2.473   8.642 -0.6383  0.7440 -0.7339
   72MOL0     C 9434   6.419   2.394   8.555 -0.2735 -1.0088 -0.2973
   72MOL0     C 9435   6.396   2.256   8.579  0.6132 -0.1756 -0.9857
   72MOL0     C 9436   6.364   2.137   8.610 -0.4728 -1.0155 -0.5543
   72MOL0     C 9437   6.541   2.648   9.064 -0.5858  0.0207 -0.0384
   72MOL0     C 9438   6.610   2.695   9.181  0.7495 -0.2502  0.1326
   72MOL0     H 9439   6.719   3.061   9.480 -2.6606 -2.5772 -2.0218
   72MOL0     H 9440   6.810   3.149   9.700 -2.7317  0.2872 -1.6864
   72MOL0     H 9441   6.983   2.841  10.019 -1.3740 -1.5480 -2.3081
   72MOL0     H 9442   6.810   2.849  10.028 -0.6955  0.3562  2.3778
   72MOL0     H 9443   6.816   3.073  10.127  0.5168 -0.0896 -1.8985
   72MOL0     H 9444   6.998   3.071  10.134  0.0776  1.0183 -1.1776
   72MOL0     H 9445   6.796   2.888  10.297 -2.1546  0.3007  1.6810
   72MOL0     H 9446   6.884   3.037  10.344 -3.2505 -0.7746 -1.3532
   72MOL0     H 9447   7.016   2.773  10.247 -3.8689  2.3363 -1.7568
   72MOL0     H 9448   7.102   2.913  10.310 -1.2576  0.7424 -1.8004
   72MOL0     H 9449   6.883   2.806  10.492 -0.9848  3.3750  0.2610
   72MOL0     H 9450   7.010   2.912  10.526 -1.2946  0.6255 -1.2631
   72MOL0     H 9451   7.148   2.667  10.449  0.7066 -4.5806  2.4886
   72MOL0     H 9452   6.996   2.609  10.500  1.4560 -1.4069  3.7363
   72MOL0     H 9453   7.049   2.731  10.729 -1.1347 -0.7451 -0.0137
   72MOL0     H 9454   7.153   2.594  10.670  0.9666  0.8569  0.5041
   72MOL0     H 9455   7.216   2.889  10.638  0.9192  0.4371 -0.4588
   72MOL0     H 9456   7.317   2.765  10.582 -1.0969  2.8203 -1.2626
   72MOL0     H 9457   7.282   2.992  10.848  0.5380  0.4480 -1.8628
   72MOL0     H 9458   7.460   2.952  11.177  0.0185  2.8212  0.8267
   72MOL0     H 9459   7.386   3.068  11.069  1.6360  1.1338 -2.1253
   72MOL0     H 9460   7.631   3.111  11.094  0.2833 -2.0124  1.5692
   72MOL0     H 9461   7.581   3.067  10.930 -0.2237  1.5209  0.2554
   72MOL0     H 9462   7.722   2.911  11.153 -0.5923  1.5682  0.4351
   72MOL0     H 9463   7.672   2.814  11.016 -2.2650  0.4192  1.0656
   72MOL0     H 9464   7.804   3.004  10.883  2.5447  0.9328 -0.5953
   72MOL0     H 9465   7.911   2.888  10.976  0.6826  0.7417 -1.8906
   72MOL0     H 9466   8.002   3.123  10.827 -1.2033  1.6789 -0.1133
   72MOL0     H 9467   8.222   3.215  10.807  0.7761 -0.9546  0.0404
   72MOL0     H 9468   8.368   3.493  10.687  0.2230 -1.4070  1.8792
   72MOL0     H 9469   8.517   3.687  10.589  2.6808 -1.1097 -0.1785
   72MOL0     H 9470   8.664   3.877  10.847  1.4375 -0.8778  0.9961
   72MOL0     H 9471   8.579   3.893  10.682  0.3560  2.1679  1.0858
   72MOL0     H 9472   8.789   3.981  10.599  0.7646  1.0187  0.5785
   72MOL0     H 9473   8.879   3.939  10.742 -0.4417  0.0061  0.7588
   72MOL0     H 9474   8.871   4.150  10.807  0.1647  1.1937 -3.2947
   72MOL0     H 9475   8.720   4.085  10.878 -3.0595 -3.5554 -1.5678
   72MOL0     H 9476   8.703   4.202  10.594 -0.3350  1.4521 -0.5080
   72MOL0     H 9477   8.609   4.240  10.747 -0.8726 -4.6448 -1.1413
   72MOL0     H 9478   8.766   4.426  10.638  0.2866  1.4860  1.6705
   72MOL0     H 9479   8.896   4.316  10.689 -0.0383 -1.4733 -1.3457
   72MOL0     H 9480   8.843   4.368  10.923  2.9245  0.2217 -2.4296
   72MOL0     H 9481   8.666   4.402  10.891  0.0485 -0.1971  0.1042
   72MOL0     H 9482   8.725   4.625  10.812 -0.4247 -0.7599  1.0976
   72MOL0     H 9483   8.810   4.593  10.960  0.2437  2.5063 -0.2535
   72MOL0     H 9484   8.912   4.599  10.680  0.3712  3.1637 -0.2720
   72MOL0     H 9485   9.015   4.539  10.804 -0.4202  0.2874  0.1441
   72MOL0     H 9486   8.806   3.578  10.885 -1.0564  1.9153  0.0790
   72MOL0     H 9487   8.665   3.416  10.975  1.2987  1.4365 -0.8022
   72MOL0     H 9488   8.282   3.197  11.223  2.8085  0.3831 -2.1594
   72MOL0     H 9489   8.047   3.109  11.256  0.2594 -1.1897  0.0378
   72MOL0     H 9490   6.857   2.726   9.820 -1.0343 -1.7810 -1.8957
   72MOL0     H 9491   6.773   2.656   9.609  0.9710 -0.8394 -0.1940
   72MOL0     H 9492   6.748   2.971   9.039 -0.2154  0.3647 -3.0060
   72MOL0     H 9493   6.601   2.907   8.859 -0.2343  1.8667  0.4408
   72MOL0     H 9494   6.312   2.579   8.756  0.1720 -3.5083 -0.9474
   72MOL0     H 9495   6.360   2.550   8.926  4.0194 -0.1081  1.1212
   72MOL0     H 9496   6.593   2.484   8.829  1.2427 -3.3000 -1.9237
   72MOL0     H 9497   6.454   2.373   8.830  3.6624 -1.1836  0.9823
   72MOL0     H 9498   6.613   2.435   8.623  1.1447  3.9725  1.3127
   72MOL0     H 9499   6.499   2.578   8.613 -0.0774  0.5965 -1.5528
   72MOL0     H 9500   6.327   2.452   8.557  0.0752 -0.4559 -0.1219
   72MOL0     H 9501   6.462   2.402   8.455  1.6625 -1.9266  0.3903
   72MOL0     H 9502   6.336   2.035   8.630 -0.9451 -1.0209 -1.2071
   72MOL0     H 9503   6.497   2.549   9.055 -0.2730 -0.0941 -0.3330
   72MOL0     H 9504   6.596   2.645   9.276  1.5525  2.9297  2.0638
   73MOL0     O 9505   4.033   8.704   3.753  0.2482  0.2610 -0.1465
   73MOL0     C 9506   4.089   8.714   3.638  0.3960  1.2812  0.0792
   73MOL0     O 9507   4.191   8.804   3.609  0.4734 -0.3983  0.4765
   73MOL0     C 9508   4.209   8.914   3.692  0.1236 -0.3913  0.2494
   73MOL0     C 9509   4.336   8.971   3.669 -0.6893  0.1904  0.3407
   73MOL0     C 9510   4.384   9.072   3.757 -0.3577  0.2986  0.7099
   73MOL0     C 9511   4.297   9.131   3.850  0.1753 -0.9915  0.6317
   73MOL0     O 9512   4.364   9.229   3.928  0.0114  0.1397 -0.2920
   73MOL0     C 9513   4.285   9.291   4.032 -0.3034 -0.2672  0.2494
   73MOL0     C 9514   4.369   9.382   4.112 -0.2566 -0.8003  0.6053
   73MOL0     C 9515   4.288   9.497   4.164 -0.1797 -0.6428 -0.3251
   73MOL0     C 9516   4.171   9.454   4.261  0.0739  0.4243 -0.2283
   73MOL0     C 9517   4.101   9.572   4.336 -0.2766  0.5020 -0.2463
   73MOL0     C 9518   4.021   9.657   4.234 -0.1650  0.8182 -0.0647
   73MOL0     C 9519   3.966   9.798   4.286  0.3370 -0.3833 -0.3183
   73MOL0     C 9520   3.867   9.773   4.408  0.5275 -0.6792 -0.5344
   73MOL0     N 9521   3.723   9.775   4.365 -0.9347  0.3566 -0.1335
   73MOL0     C 9522   3.648   9.889   4.336  0.6900 -0.0236  0.3748
   73MOL0     C 9523   3.534   9.840   4.275  0.5741  0.2615  0.1982
   73MOL0     C 9524   3.411   9.921   4.236 -0.8711 -0.4908  0.4217
   73MOL0     C 9525   3.323   9.975   4.360 -1.0053  1.0635  0.6079
   73MOL0     C 9526   3.275   9.860   4.448  0.1745 -0.2167  0.1687
   73MOL0     C 9527   3.154   9.896   4.539  0.2945 -1.2998 -0.8588
   73MOL0     O 9528   3.053   9.812   4.577 -0.6794  0.2536 -0.0258
   73MOL0     C 9529   2.942   9.786   4.498 -0.7852 -0.2294  0.4570
   73MOL0     C 9530   2.920   9.823   4.358  0.2882 -0.6162  0.9434
   73MOL0     C 9531   2.809   9.765   4.293 -0.4950 -0.2010  0.6612
   73MOL0     C 9532   2.722   9.690   4.367 -0.7739 -0.9049  0.7920
   73MOL0     C 9533   2.597   9.648   4.301 -0.0963 -0.1282 -0.4051
   73MOL0     O 9534   2.586   9.665   4.161  0.3533 -0.0844 -0.3713
   73MOL0     C 9535   2.485   9.627   4.071 -0.3468 -0.9880 -1.0299
   73MOL0     C 9536   2.518   9.623   3.937  0.0643 -0.1309 -0.7225
   73MOL0     C 9537   2.423   9.593   3.836  0.7583 -0.3570 -0.0328
   73MOL0     C 9538   2.288   9.574   3.873 -0.5494  0.6573 -0.0650
   73MOL0     O 9539   2.181   9.565   3.787 -0.0962  0.2688  0.1182
   73MOL0     C 9540   2.200   9.592   3.647 -0.1822 -0.0428  0.7240
   73MOL0     C 9541   2.073   9.681   3.630 -1.5645  0.2048 -0.4213
   73MOL0     C 9542   2.068   9.748   3.492  0.5828  0.4965  0.2439
   73MOL0     C 9543   1.922   9.765   3.458 -0.1152 -0.5280 -0.2477
   73MOL0     C 9544   1.871   9.644   3.367  0.1880 -0.7196 -0.7113
   73MOL0     C 9545   1.718   9.614   3.360  0.2601 -0.6335  0.3333
   73MOL0     C 9546   1.681   9.473   3.314 -0.3290 -0.0618 -0.5056
   73MOL0     C 9547   1.727   9.449   3.166  0.2908  0.9432  0.8342
   73MOL0    Cl 9548   1.665   9.280   3.119  0.3896  0.2693 -0.5238
   73MOL0     C 9549   2.247   9.594   4.010 -1.0305  0.1473 -1.4731
   73MOL0     C 9550   2.343   9.618   4.109  0.2611  0.2939 -0.1943
   73MOL0     O 9551   2.511   9.595   4.369 -0.2027  0.1332  0.0672
   73MOL0     C 9552   2.743   9.662   4.502 -0.4578 -0.3739  0.9706
   73MOL0     C 9553   2.848   9.720   4.566  0.0181  0.0139  1.2714
   73MOL0     N 9554   3.554   9.707   4.261 -0.0707 -0.4046  1.0812
   73MOL0     N 9555   3.668   9.665   4.308 -0.1753 -0.4603 -0.3905
   73MOL0     C 9556   4.165   9.074   3.865 -0.8368  0.0921  0.2387
   73MOL0     C 9557   4.117   8.971   3.781 -0.2793 -0.4540 -0.1479
   73MOL0     C 9558   4.031   8.639   3.525  0.4150  0.1173  0.1817
   73MOL0     C 9559   4.008   8.697   3.405  0.2465  0.4680 -0.3642
   73MOL0     C 9560   3.940   8.635   3.303 -0.3777 -0.2344 -0.2881
   73MOL0     C 9561   3.883   8.504   3.317  0.5079  0.8116  0.1628
   73MOL0     O 9562   3.809   8.453   3.214  0.3155  0.5767  0.2584
   73MOL0     C 9563   3.825   8.307   3.185  1.2221 -0.4536  0.1504
   73MOL0     C 9564   3.705   8.225   3.225 -0.5180  0.3006 -0.0602
   73MOL0     C 9565   3.570   8.274   3.205  0.0125 -0.5698  0.1234
   73MOL0     C 9566   3.495   8.246   3.076 -0.6631  0.2975 -0.5899
   73MOL0     C 9567   3.551   8.325   2.964 -0.0498  0.3453  0.5414
   73MOL0     C 9568   3.599   8.413   2.891 -0.0169  0.2523 -0.0343
   73MOL0     C 9569   3.901   8.446   3.436  0.0093  1.0044  0.6826
   73MOL0     C 9570   3.969   8.507   3.542  0.7606  0.8317  0.1656
   73MOL0     H 9571   4.409   8.929   3.602  0.9603  2.1596  0.8020
   73MOL0     H 9572   4.489   9.098   3.748  0.4783 -3.2526 -1.8831
   73MOL0     H 9573   4.244   9.213   4.097  1.6884 -1.5292  0.0702
   73MOL0     H 9574   4.208   9.354   3.986  1.5263  4.1921  2.6336
   73MOL0     H 9575   4.455   9.424   4.059 -2.5310  3.5224 -0.1165
   73MOL0     H 9576   4.400   9.322   4.198 -2.9058  1.8601  3.6660
   73MOL0     H 9577   4.247   9.560   4.085 -0.2086 -2.1820 -1.5650
   73MOL0     H 9578   4.354   9.561   4.224 -0.2380 -0.6449 -0.2588
   73MOL0     H 9579   4.092   9.401   4.208  0.6381 -0.6632  0.0050
   73MOL0     H 9580   4.216   9.387   4.334 -2.5886  0.3909  1.4829
   73MOL0     H 9581   4.177   9.639   4.377 -1.9343  2.2471  0.1128
   73MOL0     H 9582   4.049   9.540   4.426 -3.2523  0.1331 -1.9417
   73MOL0     H 9583   3.954   9.589   4.182  0.7344 -1.5259  1.6732
   73MOL0     H 9584   4.098   9.695   4.165  1.8690  0.8684  2.0869
   73MOL0     H 9585   4.044   9.864   4.324 -0.7328  0.5729  0.2809
   73MOL0     H 9586   3.911   9.846   4.205  1.8133  1.1779 -0.4485
   73MOL0     H 9587   3.873   9.850   4.486 -0.3676 -1.6935  0.5837
   73MOL0     H 9588   3.899   9.686   4.466 -0.9131 -0.7533  0.2003
   73MOL0     H 9589   3.675   9.988   4.372 -0.1934 -0.5493  2.6156
   73MOL0     H 9590   3.351   9.848   4.181  0.8498 -1.8818  0.2824
   73MOL0     H 9591   3.450  10.010   4.185  2.8420 -1.9960  0.3058
   73MOL0     H 9592   3.247  10.041   4.318 -2.9066 -2.4457 -1.9527
   73MOL0     H 9593   3.399  10.035   4.412  0.0554  1.3206 -1.1528
   73MOL0     H 9594   3.247   9.773   4.388  0.2154 -0.3595  0.3553
   73MOL0     H 9595   3.347   9.831   4.526 -0.0845  0.5508  0.7055
   73MOL0     H 9596   3.096   9.969   4.482  1.7517  2.3614  1.9298
   73MOL0     H 9597   3.182   9.957   4.626 -2.0228  1.8782 -2.1463
   73MOL0     H 9598   2.999   9.874   4.304  0.0526  0.4191  1.5529
   73MOL0     H 9599   2.793   9.802   4.192 -1.2209 -2.6431 -0.1750
   73MOL0     H 9600   2.621   9.640   3.908  0.1077 -1.2585 -1.2595
   73MOL0     H 9601   2.445   9.579   3.731 -2.9126  1.7250 -1.2935
   73MOL0     H 9602   2.199   9.503   3.583  0.6045  2.1398 -2.5934
   73MOL0     H 9603   2.289   9.647   3.616  0.1428 -1.3467 -0.7646
   73MOL0     H 9604   2.082   9.757   3.707 -1.3456 -2.1740  2.0610
   73MOL0     H 9605   1.981   9.635   3.667 -2.3676  1.5951 -0.6474
   73MOL0     H 9606   2.115   9.700   3.406 -1.7257 -1.7404  0.0794
   73MOL0     H 9607   2.121   9.843   3.496  2.0451 -0.2919  0.2600
   73MOL0     H 9608   1.869   9.767   3.554  4.4151 -2.9754  2.6548
   73MOL0     H 9609   1.909   9.861   3.409  1.4767  0.3588  0.9679
   73MOL0     H 9610   1.916   9.557   3.414  0.6711  0.6526  1.4816
   73MOL0     H 9611   1.900   9.662   3.263 -1.2246  2.5254 -0.6698
   73MOL0     H 9612   1.681   9.699   3.301  1.3987 -1.4788 -1.6867
   73MOL0     H 9613   1.688   9.620   3.465  0.4080 -3.0278  0.5580
   73MOL0     H 9614   1.711   9.401   3.390 -1.7724  2.2028  2.3967
   73MOL0     H 9615   1.573   9.462   3.313 -0.4086  0.1494 -3.6471
   73MOL0     H 9616   1.834   9.457   3.143 -0.3702  2.3949 -2.2357
   73MOL0     H 9617   1.676   9.532   3.116 -0.3212  1.3707  2.1224
   73MOL0     H 9618   2.142   9.575   4.028 -0.6727 -0.2874  0.2740
   73MOL0     H 9619   2.310   9.629   4.211 -2.0472 -0.2516 -0.8289
   73MOL0     H 9620   2.678   9.588   4.547 -0.4796  0.4662  2.3803
   73MOL0     H 9621   2.857   9.706   4.674  1.3500 -0.1475  1.1506
   73MOL0     H 9622   4.103   9.119   3.942 -0.3290 -3.4358  2.9424
   73MOL0     H 9623   4.022   8.925   3.807  0.6360 -0.8558  2.9312
   73MOL0     H 9624   4.061   8.791   3.390  1.3041 -0.2595 -1.4108
   73MOL0     H 9625   3.927   8.697   3.215  1.0054  0.9933  0.3414
   73MOL0     H 9626   3.916   8.265   3.227  4.5478  4.8424 -0.7692
   73MOL0     H 9627   3.829   8.285   3.078 -0.4017 -1.1623  0.2108
   73MOL0     H 9628   3.711   8.122   3.187  1.8046 -0.4501  2.0259
   73MOL0     H 9629   3.719   8.202   3.331  1.4673  0.6527 -0.2131
   73MOL0     H 9630   3.564   8.381   3.223  3.0829  0.6684 -4.2597
   73MOL0     H 9631   3.508   8.225   3.280 -3.3261  1.9054 -0.8053
   73MOL0     H 9632   3.512   8.140   3.057 -0.2930  0.3558 -0.5774
   73MOL0     H 9633   3.388   8.269   3.078 -0.0484  4.3420 -3.1745
   73MOL0     H 9634   3.641   8.500   2.846  1.6945 -0.3088  0.4096
   73MOL0     H 9635   3.851   8.351   3.450 -0.2393  1.3515  2.2276
   73MOL0     H 9636   3.977   8.457   3.637  0.8133 -0.0344 -0.2806
   74MOL0     O 9637   9.200   9.811   7.057  0.0529 -0.2738  1.1330
   74MOL0     C 9638   9.234   9.913   7.122 -0.5359 -0.8878 -1.0381
   74MOL0     O 9639   9.315  10.020   7.069 -0.4999 -0.1698 -0.2257
   74MOL0     C 9640   9.325  10.051   6.938 -1.0941  0.2222  0.0945
   74MOL0     C 9641   9.274   9.995   6.821 -1.1368  0.0248 -0.7109
   74MOL0     C 9642   9.296  10.057   6.696 -0.4319  0.0666  0.2963
   74MOL0     C 9643   9.399  10.143   6.681 -0.7096 -0.7432 -0.0620
   74MOL0     O 9644   9.439  10.218   6.565 -1.4776  0.5696 -0.5241
   74MOL0     C 9645   9.474  10.139   6.459 -0.0180  0.3253  0.3085
   74MOL0     C 9646   9.516  10.227   6.334 -0.8982 -0.2404  0.6467
   74MOL0     C 9647   9.647  10.182   6.269 -0.2096 -0.1311 -0.2484
   74MOL0     C 9648   9.676  10.267   6.147  0.5566  0.1398 -0.0471
   74MOL0     C 9649   9.820  10.253   6.114  0.9579 -0.1742 -0.7748
   74MOL0     C 9650   9.850  10.319   5.978  0.5480 -0.3549 -0.1800
   74MOL0     C 9651   9.976  10.265   5.915  0.9007  0.0463  0.0488
   74MOL0     C 9652  10.024  10.378   5.813 -0.7228 -0.1034  0.6992
   74MOL0     N 9653  10.152  10.329   5.755 -0.6169  0.2990 -0.1889
   74MOL0     C 9654  10.159  10.218   5.673  0.2007 -1.6722  0.0997
   74MOL0     C 9655  10.290  10.213   5.633  0.5751 -0.2528 -0.6070
   74MOL0     C 9656  10.344  10.111   5.540  0.7701  0.7436 -0.1464
   74MOL0     C 9657  10.427  10.010   5.628 -0.8730 -0.3293 -0.5472
   74MOL0     C 9658  10.339   9.900   5.693  0.2075  0.4686  0.0448
   74MOL0     C 9659  10.425   9.793   5.756 -0.1169 -0.0631 -0.4715
   74MOL0     O 9660  10.336   9.689   5.799  0.0128 -0.0477 -0.0522
   74MOL0     C 9661  10.384   9.589   5.875 -0.8085 -0.5302  0.0899
   74MOL0     C 9662  10.519   9.577   5.916 -0.3506 -0.3462 -0.0760
   74MOL0     C 9663  10.563   9.458   5.980  0.7927 -0.1397  0.4351
   74MOL0     C 9664  10.468   9.362   6.014 -0.2090 -0.8315  0.6654
   74MOL0     C 9665  10.503   9.251   6.098 -1.3562  0.1467  0.2053
   74MOL0     O 9666  10.634   9.236   6.129 -0.2241 -0.1420 -0.4444
   74MOL0     C 9667  10.661   9.127   6.203  0.4951  0.9159 -0.1969
   74MOL0     C 9668  10.681   9.129   6.338 -0.6408 -1.6249 -0.1017
   74MOL0     C 9669  10.724   9.014   6.397 -0.7055  0.1415  0.5880
   74MOL0     C 9670  10.745   8.894   6.330 -1.0646  0.1258  0.5196
   74MOL0     O 9671  10.798   8.779   6.404  0.4934  0.0930  0.2393
   74MOL0     C 9672  10.717   8.755   6.511  0.3933  0.3963  0.0166
   74MOL0     C 9673  10.748   8.605   6.545  0.2439 -0.1655  0.0825
   74MOL0     C 9674  10.641   8.512   6.488  0.0912 -0.1928 -0.3798
   74MOL0     C 9675  10.638   8.503   6.332 -0.0563 -0.3230 -0.5023
   74MOL0     C 9676  10.531   8.421   6.263  0.0499  0.0383  0.5249
   74MOL0     C 9677  10.537   8.270   6.303 -0.2578 -1.3411 -0.2177
   74MOL0     C 9678  10.405   8.194   6.262  0.1549  0.3350 -0.2700
   74MOL0     C 9679  10.297   8.226   6.375  0.2206  0.3228  0.1345
   74MOL0    Cl 9680  10.225   8.396   6.366 -0.3514 -0.0607 -0.6600
   74MOL0     C 9681  10.720   8.889   6.192 -0.8164  0.1346  0.4809
   74MOL0     C 9682  10.683   9.010   6.134 -0.6087 -0.1728  1.1220
   74MOL0     O 9683  10.415   9.172   6.112  0.4892  0.1565 -0.0382
   74MOL0     C 9684  10.334   9.394   5.988 -0.4684 -0.5721 -0.3237
   74MOL0     C 9685  10.288   9.500   5.910  0.5210 -0.2406  0.0906
   74MOL0     N 9686  10.364  10.327   5.679  0.5329  0.7951 -0.4435
   74MOL0     N 9687  10.279  10.385   5.759 -0.3887  0.6250  0.3986
   74MOL0     C 9688   9.452  10.200   6.793  0.3195 -0.7544  0.2150
   74MOL0     C 9689   9.420  10.145   6.919  0.5619 -0.6620  0.1112
   74MOL0     C 9690   9.190   9.921   7.272 -0.4150 -0.3103 -0.8180
   74MOL0     C 9691   9.203  10.045   7.349 -0.6361  0.3827  0.0906
   74MOL0     C 9692   9.143  10.056   7.478  0.0069  0.3818  0.7583
   74MOL0     C 9693   9.073   9.955   7.535 -0.5874  0.5151  1.0501
   74MOL0     O 9694   9.016   9.972   7.656  0.1859  0.3660 -0.5150
   74MOL0     C 9695   8.946   9.872   7.728 -0.6519  0.1946  0.0064
   74MOL0     C 9696   8.889   9.951   7.847 -0.3369  0.3696  1.7975
   74MOL0     C 9697   8.803  10.084   7.807  0.6943  0.1245 -0.6750
   74MOL0     C 9698   8.761  10.164   7.926  0.7170 -0.0043 -0.1073
   74MOL0     C 9699   8.663  10.100   8.017 -1.0271  0.8368  0.3941
   74MOL0     C 9700   8.597  10.059   8.108 -0.3372 -0.4253 -0.0381
   74MOL0     C 9701   9.070   9.831   7.459  0.0823 -0.5882 -0.6940
   74MOL0     C 9702   9.133   9.811   7.332  0.1148 -0.1893  0.9552
   74MOL0     H 9703   9.196   9.921   6.834 -1.2859  0.3992  0.7671
   74MOL0     H 9704   9.249  10.006   6.612  2.4042 -1.5299 -0.4297
   74MOL0     H 9705   9.382  10.092   6.423  0.3090  0.8401 -1.3123
   74MOL0     H 9706   9.536  10.051   6.477 -1.1162 -0.6031 -0.3559
   74MOL0     H 9707   9.518  10.329   6.374  1.9927 -0.7524  2.0633
   74MOL0     H 9708   9.438  10.215   6.258  2.9430 -1.8368 -3.5141
   74MOL0     H 9709   9.641  10.080   6.230 -0.8106 -0.6329  1.1046
   74MOL0     H 9710   9.720  10.194   6.349 -1.9549  2.7977  1.0752
   74MOL0     H 9711   9.609  10.224   6.071 -1.5794  0.9736  1.2839
   74MOL0     H 9712   9.654  10.374   6.153  1.2344  0.5128 -2.8908
   74MOL0     H 9713   9.839  10.146   6.102  0.9326 -0.0264 -2.2646
   74MOL0     H 9714   9.889  10.292   6.190  1.0766 -1.2740 -0.2940
   74MOL0     H 9715   9.855  10.425   6.004 -2.3709 -0.9444  3.8128
   74MOL0     H 9716   9.767  10.299   5.911 -2.7526 -1.5576  3.8210
   74MOL0     H 9717  10.055  10.261   5.991  1.1281 -2.7445 -0.2246
   74MOL0     H 9718   9.957  10.168   5.867 -1.8993 -0.6464  2.2772
   74MOL0     H 9719  10.051  10.460   5.880 -0.4585  0.6589 -0.3190
   74MOL0     H 9720   9.946  10.399   5.740 -1.5476 -1.4968  1.1414
   74MOL0     H 9721  10.075  10.150   5.667 -0.9770 -0.3215  0.6561
   74MOL0     H 9722  10.418  10.163   5.478 -1.1715  2.9938 -0.7134
   74MOL0     H 9723  10.268  10.066   5.476 -2.0148  2.5444  1.6889
   74MOL0     H 9724  10.482  10.071   5.700 -4.1480 -0.6037  2.5112
   74MOL0     H 9725  10.495   9.957   5.561 -0.3866 -0.6676  0.2004
   74MOL0     H 9726  10.279   9.957   5.765 -2.7219 -0.6754 -1.3311
   74MOL0     H 9727  10.262   9.854   5.630 -0.9469  0.6325  1.2956
   74MOL0     H 9728  10.467   9.836   5.848  0.3776  0.7472 -1.0682
   74MOL0     H 9729  10.493   9.758   5.678  1.5160 -0.3932  1.0401
   74MOL0     H 9730  10.596   9.650   5.890 -0.6639  0.2429  0.6042
   74MOL0     H 9731  10.670   9.455   5.998  0.4708 -3.1298  2.4968
   74MOL0     H 9732  10.670   9.219   6.397 -0.9378 -1.7166 -0.0147
   74MOL0     H 9733  10.748   9.022   6.503  3.3461 -3.2297  0.1701
   74MOL0     H 9734  10.610   8.770   6.491  0.5453  0.2964 -0.8716
   74MOL0     H 9735  10.750   8.822   6.591 -1.0091  2.5506 -1.0983
   74MOL0     H 9736  10.750   8.597   6.654 -0.8853  0.0493  0.1327
   74MOL0     H 9737  10.848   8.583   6.506 -0.5075  2.2901 -3.7545
   74MOL0     H 9738  10.546   8.546   6.531  0.4105 -1.0486  1.0785
   74MOL0     H 9739  10.669   8.418   6.536 -2.5085 -0.8379  0.0559
   74MOL0     H 9740  10.629   8.607   6.301  0.9924 -0.4037 -1.1204
   74MOL0     H 9741  10.733   8.450   6.317 -1.4658 -4.0723  2.2451
   74MOL0     H 9742  10.547   8.431   6.155  1.0944  0.0523  0.6718
   74MOL0     H 9743  10.439   8.473   6.292  0.5041  0.9720  0.3224
   74MOL0     H 9744  10.548   8.259   6.411 -1.0624 -1.3999 -0.1364
   74MOL0     H 9745  10.628   8.227   6.259 -0.9383 -4.0673  0.8122
   74MOL0     H 9746  10.360   8.221   6.167  1.4514  1.6724 -0.5349
   74MOL0     H 9747  10.433   8.088   6.261 -2.1606 -0.4741 -4.9249
   74MOL0     H 9748  10.342   8.201   6.472 -1.1395 -1.6321  0.3207
   74MOL0     H 9749  10.222   8.149   6.360 -0.3435  0.1814  3.0717
   74MOL0     H 9750  10.722   8.802   6.127  2.2934  1.3274 -1.2272
   74MOL0     H 9751  10.646   9.007   6.032 -2.8052  2.3162  1.7238
   74MOL0     H 9752  10.265   9.315   6.016  1.8805 -2.4844  0.3569
   74MOL0     H 9753  10.185   9.506   5.878  0.5407  0.8294  0.2059
   74MOL0     H 9754   9.507  10.293   6.779  0.6127 -1.1181 -1.3113
   74MOL0     H 9755   9.469  10.179   7.010 -0.7801 -1.9681  1.3647
   74MOL0     H 9756   9.257  10.126   7.301  0.9861 -1.0024 -0.5288
   74MOL0     H 9757   9.176  10.145   7.530 -0.3634  1.3047 -0.5151
   74MOL0     H 9758   9.005   9.788   7.766  0.4438  0.4345 -1.0873
   74MOL0     H 9759   8.866   9.822   7.674 -2.0616  0.6829  1.5820
   74MOL0     H 9760   8.835   9.877   7.906 -0.3824 -1.5465 -0.4814
   74MOL0     H 9761   8.968   9.987   7.913  0.7166 -1.4828  1.6380
   74MOL0     H 9762   8.710  10.037   7.773 -0.3078  1.1115  0.5736
   74MOL0     H 9763   8.849  10.151   7.735  0.1422 -0.5568 -1.6995
   74MOL0     H 9764   8.853  10.194   7.977  1.8555 -1.1765 -1.3742
   74MOL0     H 9765   8.716  10.255   7.885  0.0414 -0.7613 -1.1184
   74MOL0     H 9766   8.536  10.030   8.191  0.1820 -0.0331  0.4901
   74MOL0     H 9767   9.038   9.740   7.509 -1.1934  1.0955  1.7686
   74MOL0     H 9768   9.102   9.718   7.287 -2.7558  0.0143  2.2538
   75MOL0     O 9769   1.859   6.430   6.778  0.6191 -0.4830 -0.0997
   75MOL0     C 9770   1.872   6.457   6.901 -0.6274 -0.3218 -0.3867
   75MOL0     O 9771   1.797   6.547   6.974 -0.4626 -0.6963  0.3675
   75MOL0     C 9772   1.683   6.604   6.920 -0.1041 -0.1412  0.7211
   75MOL0     C 9773   1.617   6.569   6.798  0.4115  0.4217  0.8574
   75MOL0     C 9774   1.507   6.640   6.752 -0.6270 -0.1982  0.7029
   75MOL0     C 9775   1.453   6.738   6.830 -0.2944 -0.3104  0.1685
   75MOL0     O 9776   1.343   6.808   6.797 -0.9981  0.0529  0.7662
   75MOL0     C 9777   1.247   6.746   6.711  0.3564 -0.2521 -1.1646
   75MOL0     C 9778   1.114   6.824   6.731 -0.1665 -0.0696 -0.2043
   75MOL0     C 9779   1.070   6.832   6.877  0.0082  0.3746  0.8164
   75MOL0     C 9780   0.932   6.911   6.891  0.4257 -0.7041 -0.9172
   75MOL0     C 9781   0.816   6.865   6.802 -0.0729  0.0467 -0.4613
   75MOL0     C 9782   0.776   6.715   6.823  1.2035  0.7001 -0.1713
   75MOL0     C 9783   0.767   6.677   6.972 -0.6772  0.2959  0.2363
   75MOL0     C 9784   0.655   6.748   7.056  0.1580 -0.2856  0.0930
   75MOL0     N 9785   0.519   6.714   7.004  0.0863 -0.0642  0.0736
   75MOL0     C 9786   0.466   6.760   6.879  0.5540 -0.1083  0.4021
   75MOL0     C 9787   0.367   6.667   6.852 -0.0101  0.2828  0.7296
   75MOL0     C 9788   0.297   6.649   6.717  0.4724 -0.0706 -0.8300
   75MOL0     C 9789   0.214   6.771   6.690 -0.3400 -0.6386 -0.0384
   75MOL0     C 9790   0.074   6.755   6.755 -0.7964  0.6660  0.6549
   75MOL0     C 9791  -0.023   6.854   6.706  0.5985 -1.1402 -1.0791
   75MOL0     O 9792  -0.149   6.811   6.765 -0.8600  0.3581 -0.1053
   75MOL0     C 9793  -0.243   6.915   6.767  0.0339 -0.0043 -0.5321
   75MOL0     C 9794  -0.334   6.925   6.872 -0.3045 -0.8813 -0.0314
   75MOL0     C 9795  -0.434   7.027   6.864 -0.3167 -0.1293 -0.4680
   75MOL0     C 9796  -0.443   7.118   6.756  0.8718 -0.2991 -1.2086
   75MOL0     C 9797  -0.546   7.226   6.758  0.8735 -0.0584 -0.8773
   75MOL0     O 9798  -0.631   7.238   6.870  0.0484 -0.0640  0.0776
   75MOL0     C 9799  -0.730   7.328   6.869  0.5279  0.4796 -1.0865
   75MOL0     C 9800  -0.710   7.462   6.864 -0.2681 -0.1675  0.0364
   75MOL0     C 9801  -0.810   7.558   6.869 -0.0859 -0.1393 -0.4382
   75MOL0     C 9802  -0.938   7.519   6.888 -0.0322  0.0680 -0.7910
   75MOL0     O 9803  -1.038   7.618   6.899 -0.3233  0.1191 -0.2358
   75MOL0     C 9804  -1.158   7.596   6.967  0.1967  0.5223  0.3237
   75MOL0     C 9805  -1.151   7.670   7.096  0.2078  0.1729 -0.4064
   75MOL0     C 9806  -1.158   7.820   7.081 -1.2563 -0.4031  0.0257
   75MOL0     C 9807  -1.158   7.884   7.214 -1.2584  0.6526 -0.1856
   75MOL0     C 9808  -1.190   8.027   7.191  0.1896  0.3524  0.0387
   75MOL0     C 9809  -1.171   8.105   7.330  0.2436  0.7634 -0.0225
   75MOL0     C 9810  -1.248   8.242   7.325 -0.2977  0.5452  0.3324
   75MOL0     C 9811  -1.393   8.225   7.352  0.8100  0.4962  0.3673
   75MOL0    Cl 9812  -1.464   8.397   7.361 -0.1341 -0.2425  0.1882
   75MOL0     C 9813  -0.973   7.383   6.884  0.4705  0.6997 -0.3856
   75MOL0     C 9814  -0.861   7.285   6.890  1.2734  0.0808  0.3245
   75MOL0     O 9815  -0.548   7.305   6.655  0.3929  0.6912 -0.1545
   75MOL0     C 9816  -0.355   7.099   6.646  0.5927 -0.0347 -0.6489
   75MOL0     C 9817  -0.267   6.997   6.654 -0.6195  0.9175 -0.1033
   75MOL0     N 9818   0.350   6.592   6.968  0.3358 -0.3422  0.1930
   75MOL0     N 9819   0.453   6.604   7.041  0.8731  0.4015 -0.7127
   75MOL0     C 9820   1.512   6.780   6.949  0.0318  0.4652  0.4152
   75MOL0     C 9821   1.625   6.711   6.986  0.7469  0.1112  0.1664
   75MOL0     C 9822   1.971   6.386   6.973  0.1341 -0.2987  0.8253
   75MOL0     C 9823   2.048   6.285   6.908  0.6498  0.0510 -0.1801
   75MOL0     C 9824   2.145   6.212   6.987  0.7917  0.2189  0.1005
   75MOL0     C 9825   2.190   6.243   7.115 -0.5555 -0.1744  0.4158
   75MOL0     O 9826   2.297   6.183   7.178  0.7417  0.0291  0.5436
   75MOL0     C 9827   2.389   6.098   7.101  1.0956  0.3947 -0.4726
   75MOL0     C 9828   2.517   6.045   7.173 -0.2543 -0.5850 -0.9540
   75MOL0     C 9829   2.491   5.957   7.294  0.2216  0.2212  0.6776
   75MOL0     C 9830   2.479   6.044   7.424  0.2487 -0.0908 -0.6390
   75MOL0     C 9831   2.438   5.959   7.536 -0.0227  0.0482 -0.2265
   75MOL0     C 9832   2.394   5.906   7.642  0.0648  0.2042  0.2914
   75MOL0     C 9833   2.109   6.342   7.180  0.2137  0.0931  0.8743
   75MOL0     C 9834   2.000   6.394   7.112  0.7908 -1.2529  0.2032
   75MOL0     H 9835   1.642   6.487   6.732 -2.0700  0.2304  0.0355
   75MOL0     H 9836   1.478   6.612   6.651  1.0815 -0.7700  0.3471
   75MOL0     H 9837   1.234   6.642   6.741 -0.0218 -0.2338 -1.2543
   75MOL0     H 9838   1.260   6.733   6.603 -0.9789 -0.2363 -1.3453
   75MOL0     H 9839   1.031   6.776   6.678 -0.7530 -0.5222  1.1008
   75MOL0     H 9840   1.136   6.918   6.680  3.8809 -1.6906 -1.8435
   75MOL0     H 9841   1.148   6.894   6.923  1.2853 -1.3989  1.1721
   75MOL0     H 9842   1.065   6.733   6.923 -0.4679  1.4355  3.1778
   75MOL0     H 9843   0.916   6.901   6.998  1.9456 -0.7824 -0.6712
   75MOL0     H 9844   0.943   7.019   6.876 -2.6269 -0.2925 -0.7397
   75MOL0     H 9845   0.838   6.896   6.700  2.0523 -0.5492 -0.2295
   75MOL0     H 9846   0.730   6.931   6.814 -1.6462 -1.6690 -1.6635
   75MOL0     H 9847   0.847   6.652   6.770 -2.2996 -2.1286 -1.9744
   75MOL0     H 9848   0.691   6.699   6.756  1.1449  1.8964 -0.4092
   75MOL0     H 9849   0.737   6.572   6.969 -2.6172  0.7872  0.6502
   75MOL0     H 9850   0.863   6.668   7.022 -1.2210 -0.9149  1.1127
   75MOL0     H 9851   0.658   6.857   7.047 -2.9407 -0.2868 -2.4640
   75MOL0     H 9852   0.656   6.716   7.160  1.8274 -0.2800  0.1148
   75MOL0     H 9853   0.504   6.835   6.811 -2.4056  1.2351  0.0494
   75MOL0     H 9854   0.242   6.556   6.704 -1.6783  1.2656 -1.9586
   75MOL0     H 9855   0.378   6.633   6.645  0.3752  0.7210 -1.1229
   75MOL0     H 9856   0.194   6.779   6.583 -1.6381  1.9852  0.3023
   75MOL0     H 9857   0.259   6.863   6.730  0.7011 -1.4348  0.6588
   75MOL0     H 9858   0.036   6.653   6.748 -0.5029  0.6771 -2.8803
   75MOL0     H 9859   0.094   6.763   6.863 -2.4751 -1.7839  1.2368
   75MOL0     H 9860  -0.027   6.854   6.597 -0.9078 -0.1893 -1.0420
   75MOL0     H 9861  -0.001   6.954   6.744 -1.9219 -2.0085  3.3933
   75MOL0     H 9862  -0.323   6.841   6.940  0.5334 -1.1581 -0.5050
   75MOL0     H 9863  -0.517   7.031   6.934 -1.9426 -1.1628 -2.2393
   75MOL0     H 9864  -0.611   7.505   6.857 -0.9424  1.5181  0.1979
   75MOL0     H 9865  -0.800   7.665   6.850  1.5794 -0.7940 -4.0619
   75MOL0     H 9866  -1.178   7.491   6.991  0.3495  1.1714  3.9685
   75MOL0     H 9867  -1.241   7.633   6.906  1.2309 -1.9564 -2.8257
   75MOL0     H 9868  -1.049   7.662   7.136  0.5644  5.3916  0.4220
   75MOL0     H 9869  -1.225   7.641   7.171  1.0386 -3.7897 -0.8571
   75MOL0     H 9870  -1.241   7.846   7.015 -0.4870 -0.7468 -1.1158
   75MOL0     H 9871  -1.076   7.861   7.021 -2.1726 -0.0935 -1.0488
   75MOL0     H 9872  -1.239   7.844   7.275 -2.6323  0.5612 -1.9858
   75MOL0     H 9873  -1.062   7.864   7.262 -1.2187 -1.6001 -1.0412
   75MOL0     H 9874  -1.298   8.025   7.174  0.3122 -1.0840 -0.7802
   75MOL0     H 9875  -1.132   8.078   7.114 -2.8758  0.6697 -2.2287
   75MOL0     H 9876  -1.062   8.110   7.341  0.2065 -0.6901  1.4943
   75MOL0     H 9877  -1.198   8.050   7.421 -0.0573  2.7378  1.1383
   75MOL0     H 9878  -1.220   8.307   7.408  2.1066 -0.3245  0.2687
   75MOL0     H 9879  -1.230   8.304   7.237  1.6868  0.7662  0.8529
   75MOL0     H 9880  -1.423   8.180   7.447 -3.6341 -0.3719 -1.1830
   75MOL0     H 9881  -1.442   8.157   7.282  0.3799 -0.3320  1.4376
   75MOL0     H 9882  -1.077   7.359   6.902  0.7805  1.5280  3.6683
   75MOL0     H 9883  -0.881   7.180   6.903  0.0418  0.3057  0.3724
   75MOL0     H 9884  -0.359   7.166   6.561 -1.5372  0.7291 -0.0072
   75MOL0     H 9885  -0.199   6.970   6.574 -1.2769 -4.2480  0.7561
   75MOL0     H 9886   1.479   6.865   7.007 -2.4513 -0.3699  0.3422
   75MOL0     H 9887   1.661   6.745   7.083 -0.5779  0.0089  0.7106
   75MOL0     H 9888   2.040   6.253   6.805 -2.8656 -0.2767  0.0804
   75MOL0     H 9889   2.175   6.124   6.930 -1.7792 -0.2993 -0.5914
   75MOL0     H 9890   2.423   6.161   7.018 -1.4171  3.2042  0.4321
   75MOL0     H 9891   2.334   6.017   7.052  1.7060  1.1781 -2.5867
   75MOL0     H 9892   2.592   5.999   7.109  0.1450 -0.8689 -0.3005
   75MOL0     H 9893   2.563   6.136   7.212 -1.2397 -0.6955  0.5938
   75MOL0     H 9894   2.564   5.876   7.297  0.3303  0.2968  4.4028
   75MOL0     H 9895   2.393   5.908   7.284  0.4274 -0.3553  1.4354
   75MOL0     H 9896   2.574   6.093   7.450  0.3191  0.0895 -1.2193
   75MOL0     H 9897   2.394   6.112   7.420  0.6427  0.4592  0.0748
   75MOL0     H 9898   2.364   5.852   7.730 -1.1249  1.7555  0.8946
   75MOL0     H 9899   2.124   6.371   7.283  4.5427  0.1842  0.4211
   75MOL0     H 9900   1.943   6.460   7.176  2.1958  0.1400  0.0679
   76MOL0     O 9901   9.778  10.095   6.912  0.1930 -0.0355  0.5064
   76MOL0     C 9902   9.763  10.216   6.924  0.5549  0.4118  0.4073
   76MOL0     O 9903   9.716  10.280   7.033 -0.6694  0.1587 -0.2127
   76MOL0     C 9904   9.688  10.211   7.146  0.0480 -0.1280  0.8977
   76MOL0     C 9905   9.727  10.086   7.197  0.0983 -0.2489 -0.5772
   76MOL0     C 9906   9.680  10.041   7.319 -0.0768 -0.1717 -0.6228
   76MOL0     C 9907   9.608  10.114   7.406 -0.0955 -0.9207  0.0876
   76MOL0     O 9908   9.550  10.057   7.518 -0.0793 -0.4420 -0.1068
   76MOL0     C 9909   9.619   9.944   7.581  0.9090 -0.4243  0.6959
   76MOL0     C 9910   9.564   9.899   7.706 -0.1295 -0.0659  0.2822
   76MOL0     C 9911   9.451   9.794   7.676  0.9740 -0.4980  0.0272
   76MOL0     C 9912   9.387   9.745   7.814 -0.7963  0.7777  0.8546
   76MOL0     C 9913   9.274   9.638   7.794  1.3939  0.4950  0.5527
   76MOL0     C 9914   9.286   9.511   7.708 -0.6977 -1.5633  0.0208
   76MOL0     C 9915   9.192   9.393   7.751 -0.1510 -0.6471 -1.8621
   76MOL0     C 9916   9.045   9.415   7.761  0.1251  0.1138  0.0415
   76MOL0     N 9917   8.985   9.434   7.628 -0.5363 -0.2128 -0.7010
   76MOL0     C 9918   8.956   9.333   7.543  0.1966  0.1812  0.8169
   76MOL0     C 9919   8.865   9.389   7.451 -0.9205 -0.9567 -0.3219
   76MOL0     C 9920   8.815   9.318   7.324  0.1555 -0.1493 -0.4040
   76MOL0     C 9921   8.914   9.204   7.274  1.4473 -0.2129  0.5017
   76MOL0     C 9922   8.911   9.171   7.120  0.4537  0.2584 -0.1728
   76MOL0     C 9923   9.004   9.061   7.082 -1.6592 -0.3855  0.0439
   76MOL0     O 9924   8.984   9.030   6.942 -0.6351 -0.3551  0.0679
   76MOL0     C 9925   9.083   8.951   6.880  0.5898  0.1467  0.9596
   76MOL0     C 9926   9.183   8.867   6.928  0.8060 -1.1310 -0.4516
   76MOL0     C 9927   9.258   8.785   6.853 -0.4200 -0.9643 -0.3891
   76MOL0     C 9928   9.228   8.763   6.718  0.4737  0.1910  0.0451
   76MOL0     C 9929   9.294   8.659   6.630  0.7054  0.2554  0.1595
   76MOL0     O 9930   9.261   8.676   6.504 -0.4023  0.2993 -0.6687
   76MOL0     C 9931   9.263   8.566   6.427 -0.3720 -0.1610 -0.8818
   76MOL0     C 9932   9.325   8.576   6.298 -0.7914  0.3168  0.4485
   76MOL0     C 9933   9.325   8.474   6.212 -0.0636  0.4121  0.3129
   76MOL0     C 9934   9.260   8.348   6.238  0.1087 -0.8077  0.1760
   76MOL0     O 9935   9.260   8.234   6.159  0.5782 -0.1932  0.0672
   76MOL0     C 9936   9.379   8.180   6.117  0.7196 -0.3344 -0.6234
   76MOL0     C 9937   9.349   8.030   6.085 -0.5935 -0.3606 -0.2510
   76MOL0     C 9938   9.475   7.967   6.045 -0.3632 -0.1815 -0.4483
   76MOL0     C 9939   9.446   7.817   6.014  0.8686 -0.2299 -0.4023
   76MOL0     C 9940   9.558   7.754   5.930 -0.4218  1.2318  0.6814
   76MOL0     C 9941   9.687   7.708   6.003  0.3469 -0.3447 -0.2888
   76MOL0     C 9942   9.788   7.633   5.917  0.8864 -0.0475 -0.1625
   76MOL0     C 9943   9.926   7.626   5.989  0.0851 -0.6729 -0.0285
   76MOL0    Cl 9944   9.907   7.572   6.153  0.0451 -0.1821 -0.1766
   76MOL0     C 9945   9.179   8.350   6.357 -0.0855 -0.0129 -0.9919
   76MOL0     C 9946   9.176   8.458   6.453 -1.2222 -0.2433 -1.2140
   76MOL0     O 9947   9.345   8.560   6.677  0.7603  0.2921 -0.0398
   76MOL0     C 9948   9.128   8.843   6.660 -0.0127  0.7859 -1.1406
   76MOL0     C 9949   9.060   8.931   6.748  0.0425  0.7494  0.6251
   76MOL0     N 9950   8.842   9.517   7.492 -0.1454 -0.0830 -0.4739
   76MOL0     N 9951   8.904   9.539   7.609  0.4481 -0.0498 -0.1689
   76MOL0     C 9952   9.566  10.241   7.363 -0.2855 -0.7019 -0.2597
   76MOL0     C 9953   9.607  10.283   7.235  0.0325 -1.1326 -0.0888
   76MOL0     C 9954   9.785  10.291   6.801 -0.1192 -0.4767 -0.4258
   76MOL0     C 9955   9.831  10.229   6.687  0.7605  0.7060  0.0196
   76MOL0     C 9956   9.821  10.297   6.574  0.0981 -0.8270  0.6014
   76MOL0     C 9957   9.807  10.441   6.557 -0.4099  1.0908 -0.6212
   76MOL0     O 9958   9.814  10.492   6.430 -0.0918  0.5374  0.1594
   76MOL0     C 9959   9.775  10.631   6.407 -0.6001  0.1147 -0.7640
   76MOL0     C 9960   9.904  10.713   6.391  0.2203 -0.3648 -0.2501
   76MOL0     C 9961   9.988  10.651   6.273  0.5025  0.2037  0.7131
   76MOL0     C 9962  10.113  10.748   6.230 -0.6397 -0.7232  0.3078
   76MOL0     C 9963  10.200  10.684   6.143  0.2845  0.5112  0.0296
   76MOL0     C 9964  10.281  10.650   6.067 -0.9139 -0.5398  0.3729
   76MOL0     C 9965   9.786  10.508   6.680  0.5621 -0.7512  0.7276
   76MOL0     C 9966   9.768  10.436   6.802 -0.1912  0.3519 -0.4697
   76MOL0     H 9967   9.779  10.011   7.139  1.2184 -1.1686  1.5277
   76MOL0     H 9968   9.707   9.942   7.354 -0.7664  0.1756  0.9613
   76MOL0     H 9969   9.721   9.979   7.602  2.5310 -3.7539 -0.7854
   76MOL0     H 9970   9.629   9.857   7.516 -1.0670 -1.5802  1.8518
   76MOL0     H 9971   9.533   9.981   7.771  0.2646  0.4192 -0.1363
   76MOL0     H 9972   9.637   9.845   7.766 -0.4204  0.8252  1.4755
   76MOL0     H 9973   9.502   9.716   7.620  2.8233  0.1171  0.7929
   76MOL0     H 9974   9.367   9.833   7.616  0.6771  1.7438  1.7488
   76MOL0     H 9975   9.467   9.699   7.874  0.3623 -0.3336 -1.4000
   76MOL0     H 9976   9.356   9.831   7.874  3.4235  3.8502 -0.8761
   76MOL0     H 9977   9.188   9.685   7.746  2.4206  0.6586 -1.1800
   76MOL0     H 9978   9.242   9.603   7.893 -1.2161 -1.1745 -0.7693
   76MOL0     H 9979   9.379   9.457   7.731 -1.9657 -3.7505  0.3280
   76MOL0     H 9980   9.295   9.537   7.602  1.1743 -2.2558 -0.0346
   76MOL0     H 9981   9.217   9.301   7.697 -0.6924 -1.7707 -0.2688
   76MOL0     H 9982   9.230   9.380   7.852 -2.2405  2.1542 -0.5700
   76MOL0     H 9983   9.023   9.504   7.820 -2.7598  1.0918 -2.2724
   76MOL0     H 9984   8.991   9.329   7.801  2.2814 -0.9415  0.8504
   76MOL0     H 9985   9.007   9.238   7.544 -0.5597 -0.4220 -2.9509
   76MOL0     H 9986   8.804   9.396   7.248  1.0998 -0.2566 -0.6725
   76MOL0     H 9987   8.717   9.277   7.347  1.1386 -1.8594  0.9605
   76MOL0     H 9988   8.877   9.111   7.317  0.2303 -2.2394 -4.3202
   76MOL0     H 9989   9.018   9.220   7.302  1.6462  1.6942 -1.0594
   76MOL0     H 9990   8.807   9.149   7.092  0.0730  2.0636 -0.3496
   76MOL0     H 9991   8.932   9.260   7.060 -0.9130 -0.3362 -1.6018
   76MOL0     H 9992   9.000   8.976   7.151  1.7679 -1.3467 -0.7696
   76MOL0     H 9993   9.107   9.096   7.093 -2.2818  1.4695  0.3190
   76MOL0     H 9994   9.214   8.872   7.032  2.6306 -1.2882 -0.9393
   76MOL0     H 9995   9.342   8.739   6.905  0.1477  1.6544  1.2320
   76MOL0     H 9996   9.357   8.678   6.278 -1.0003  0.6741  1.8152
   76MOL0     H 9997   9.388   8.477   6.124 -1.6002 -1.6169 -0.9345
   76MOL0     H 9998   9.457   8.179   6.194 -0.3597 -2.5214  0.5571
   76MOL0     H 9999   9.412   8.240   6.032  2.6018 -1.3870 -0.6815
   76MOL0     H10000   9.288   8.028   5.994 -0.4794 -3.0722 -0.3406
   76MOL0     H10001   9.296   7.982   6.167 -0.5422  0.9281  0.5554
   76MOL0     H10002   9.545   7.963   6.129  0.5252 -0.7400 -1.1909
   76MOL0     H10003   9.532   8.006   5.959  2.4190  0.6220  1.6234
   76MOL0     H10004   9.425   7.767   6.108  3.2595  1.0197  0.8899
   76MOL0     H10005   9.351   7.809   5.960  2.1191 -2.9379 -2.4477
   76MOL0     H10006   9.592   7.824   5.853 -0.6627 -1.1586 -1.7376
   76MOL0     H10007   9.512   7.666   5.884  2.6120  0.1078 -0.4432
   76MOL0     H10008   9.658   7.640   6.084 -0.0754 -0.2238 -0.3331
   76MOL0     H10009   9.738   7.792   6.051 -1.7303  0.0300  1.4319
   76MOL0     H10010   9.757   7.531   5.895  0.8486  0.0892 -0.7591
   76MOL0     H10011   9.805   7.679   5.820  1.6665  0.8854  0.3983
   76MOL0     H10012   9.959   7.731   5.994  2.6756 -1.3159 -1.7484
   76MOL0     H10013   9.986   7.556   5.930 -0.7555  0.4549 -2.3907
   76MOL0     H10014   9.148   8.248   6.377  1.2817 -0.7973 -2.6520
   76MOL0     H10015   9.108   8.465   6.537 -0.9268 -0.5221 -0.9438
   76MOL0     H10016   9.088   8.836   6.559 -1.7880  0.1731 -0.4456
   76MOL0     H10017   8.982   8.982   6.691 -1.6749 -3.2311 -0.9715
   76MOL0     H10018   9.498  10.304   7.419  3.9915  3.1460  1.2716
   76MOL0     H10019   9.559  10.371   7.194  0.5067 -1.1242 -0.6459
   76MOL0     H10020   9.853  10.123   6.681 -0.3966  0.4250  0.4011
   76MOL0     H10021   9.852  10.245   6.484 -2.5881 -0.4657 -0.6357
   76MOL0     H10022   9.732  10.681   6.494  4.5667 -0.2328  2.4681
   76MOL0     H10023   9.724  10.632   6.311 -0.1272  1.7450 -1.0287
   76MOL0     H10024   9.861  10.811   6.366  3.1148  0.4851 -2.4613
   76MOL0     H10025   9.969  10.713   6.479  2.3469 -1.1484 -1.7282
   76MOL0     H10026   9.931  10.647   6.180  3.2258  2.1122 -1.2122
   76MOL0     H10027  10.017  10.546   6.275  4.8061  1.1752  0.0415
   76MOL0     H10028  10.075  10.845   6.197 -1.2188 -1.3493 -0.9184
   76MOL0     H10029  10.172  10.758   6.321 -0.9872  0.4586  0.4275
   76MOL0     H10030  10.342  10.621   5.984 -3.0288 -0.4733 -1.2901
   76MOL0     H10031   9.781  10.617   6.685 -2.8333 -0.5074 -3.0530
   76MOL0     H10032   9.745  10.495   6.891 -0.4382 -1.1989  0.5232
   77MOL0     O10033   8.619   5.056   6.833 -0.5796  0.8186 -0.0225
   77MOL0     C10034   8.711   5.023   6.916  0.0125  0.1529 -0.5515
   77MOL0     O10035   8.827   5.092   6.940 -0.1926  0.3142 -0.2260
   77MOL0     C10036   8.890   5.171   6.848 -0.6277  0.8686  0.8781
   77MOL0     C10037   8.993   5.252   6.898  0.8528  0.1048 -0.2521
   77MOL0     C10038   9.091   5.303   6.809 -0.2451 -0.5585  0.5220
   77MOL0     C10039   9.084   5.289   6.672 -0.2917  0.1191  0.6353
   77MOL0     O10040   9.188   5.352   6.616 -0.0878 -0.3938 -0.3293
   77MOL0     C10041   9.246   5.285   6.506  0.4875 -0.4110 -0.5725
   77MOL0     C10042   9.327   5.162   6.555  0.7439 -0.2102 -0.3920
   77MOL0     C10043   9.429   5.125   6.445 -0.7504 -0.7370  0.0667
   77MOL0     C10044   9.511   5.011   6.492 -0.0702  0.4178  0.4407
   77MOL0     C10045   9.421   4.883   6.524  0.2974  1.6897 -0.1163
   77MOL0     C10046   9.341   4.827   6.408  0.2664 -0.7743 -0.2131
   77MOL0     C10047   9.220   4.742   6.461 -0.5125  0.2264 -0.5873
   77MOL0     C10048   9.160   4.652   6.357 -0.4866 -0.6404 -0.0908
   77MOL0     N10049   9.141   4.519   6.403 -0.6270  0.3740 -0.6945
   77MOL0     C10050   9.069   4.477   6.510  0.2248 -0.0932  0.4354
   77MOL0     C10051   9.077   4.348   6.513 -0.0011  0.0573  0.5035
   77MOL0     C10052   8.985   4.264   6.595 -0.7229  0.6688 -0.2610
   77MOL0     C10053   9.053   4.132   6.629 -0.3156  0.2603  0.3995
   77MOL0     C10054   8.996   4.016   6.548  0.8897  1.1534  0.2668
   77MOL0     C10055   9.079   3.889   6.558 -0.1345 -0.3032  0.3330
   77MOL0     O10056   9.031   3.801   6.465  0.1066  1.1062 -1.0045
   77MOL0     C10057   8.933   3.720   6.514  0.1233 -0.3387  0.4732
   77MOL0     C10058   8.810   3.709   6.447 -0.2298 -1.2057  0.0707
   77MOL0     C10059   8.708   3.627   6.495  0.2856 -0.4322 -0.0971
   77MOL0     C10060   8.726   3.547   6.607 -0.2506 -1.4682  0.0489
   77MOL0     C10061   8.630   3.457   6.655  0.5366  1.0453 -0.5584
   77MOL0     O10062   8.503   3.497   6.621 -0.4273 -0.3096 -0.2332
   77MOL0     C10063   8.401   3.423   6.655 -0.1042 -0.4366  0.3965
   77MOL0     C10064   8.387   3.284   6.636  0.4015 -0.0406  0.9008
   77MOL0     C10065   8.274   3.217   6.680  0.7419 -0.5414  0.4585
   77MOL0     C10066   8.178   3.282   6.752 -0.0075  0.6690  0.2866
   77MOL0     O10067   8.065   3.230   6.806  0.0056  0.7421 -0.3901
   77MOL0     C10068   8.050   3.090   6.822 -0.1396  0.0755  0.1259
   77MOL0     C10069   7.989   3.044   6.686 -0.3198 -0.0401 -0.1213
   77MOL0     C10070   7.848   3.089   6.675  0.4046 -0.8546 -0.3404
   77MOL0     C10071   7.778   3.059   6.542  0.3482  0.2237  0.4444
   77MOL0     C10072   7.629   3.032   6.582  0.7361 -1.1654 -0.4287
   77MOL0     C10073   7.566   3.132   6.670  1.5434 -0.1269  0.8528
   77MOL0     C10074   7.423   3.087   6.696 -0.4326 -0.0147 -0.8627
   77MOL0     C10075   7.355   3.183   6.801  0.5652  0.4565  0.4757
   77MOL0    Cl10076   7.210   3.110   6.871  0.3805 -0.6528  0.1188
   77MOL0     C10077   8.195   3.414   6.784  0.7543  1.0908 -1.1340
   77MOL0     C10078   8.294   3.489   6.725  0.3846  0.9081  0.2926
   77MOL0     O10079   8.661   3.360   6.727 -0.1156  0.0921 -0.0534
   77MOL0     C10080   8.853   3.551   6.672  0.3220 -0.6823 -0.9859
   77MOL0     C10081   8.952   3.635   6.621  0.1555 -0.9019 -0.1823
   77MOL0     N10082   9.164   4.310   6.412  0.2190 -0.4062  0.0083
   77MOL0     N10083   9.218   4.415   6.364  0.6883 -0.3468 -0.2650
   77MOL0     C10084   8.977   5.217   6.621 -0.5066 -0.4861  0.6614
   77MOL0     C10085   8.871   5.160   6.706 -0.6438  0.2550 -0.3985
   77MOL0     C10086   8.688   4.911   6.999 -0.2603 -0.6656 -0.1499
   77MOL0     C10087   8.574   4.836   6.990  0.2374 -0.7366  0.1576
   77MOL0     C10088   8.549   4.744   7.087 -1.2136 -0.1239 -0.2136
   77MOL0     C10089   8.645   4.709   7.178 -0.2868 -0.7568  0.5350
   77MOL0     O10090   8.627   4.610   7.266  0.1765  0.1265  0.3095
   77MOL0     C10091   8.605   4.486   7.203  0.2779  0.2971 -0.3260
   77MOL0     C10092   8.503   4.404   7.273  0.8292  1.3092 -0.5106
   77MOL0     C10093   8.507   4.261   7.213  0.7744  0.7948  0.0433
   77MOL0     C10094   8.431   4.158   7.303 -0.4003 -0.5382 -0.5000
   77MOL0     C10095   8.448   4.022   7.242  0.2616  0.1892 -0.4229
   77MOL0     C10096   8.473   3.912   7.194  0.3830  0.6910  0.2498
   77MOL0     C10097   8.763   4.781   7.184 -0.7329  0.6100  0.6211
   77MOL0     C10098   8.781   4.888   7.097  0.3825  0.1478 -0.6485
   77MOL0     H10099   9.001   5.259   7.006  1.2711 -1.5540 -0.1379
   77MOL0     H10100   9.177   5.344   6.860  1.7989 -1.0194 -2.2810
   77MOL0     H10101   9.313   5.353   6.453 -1.8281  2.9599  0.4824
   77MOL0     H10102   9.177   5.259   6.425  3.4866 -1.2338 -3.0458
   77MOL0     H10103   9.250   5.084   6.561 -1.0631  1.6261  2.8649
   77MOL0     H10104   9.363   5.174   6.657 -1.2015 -3.3485  0.8397
   77MOL0     H10105   9.489   5.211   6.410  1.1624 -1.8777  0.3965
   77MOL0     H10106   9.385   5.097   6.349  0.7865 -1.7643 -0.3709
   77MOL0     H10107   9.583   4.991   6.412  0.9026 -1.8223  1.7996
   77MOL0     H10108   9.568   5.043   6.579 -0.9019 -2.9307  2.3563
   77MOL0     H10109   9.337   4.902   6.593 -2.0094 -1.4097 -1.8053
   77MOL0     H10110   9.487   4.811   6.574  1.0669  1.3194 -1.6145
   77MOL0     H10111   9.408   4.757   6.358 -1.1121 -4.3351  2.4879
   77MOL0     H10112   9.312   4.901   6.333  1.0546 -1.2237 -0.9787
   77MOL0     H10113   9.246   4.682   6.549  0.7840  2.7310  0.8418
   77MOL0     H10114   9.144   4.816   6.489  0.6482  1.6037 -0.9786
   77MOL0     H10115   9.230   4.638   6.274 -0.2677 -2.6693  0.3606
   77MOL0     H10116   9.059   4.684   6.331 -0.6949  0.6143  2.0404
   77MOL0     H10117   9.012   4.548   6.569  0.9217 -0.4895  1.6171
   77MOL0     H10118   8.888   4.239   6.551 -1.2958 -2.9717  2.5423
   77MOL0     H10119   8.949   4.326   6.677 -1.1225  0.0384  0.0478
   77MOL0     H10120   9.028   4.101   6.731  2.6215 -0.0792  1.0847
   77MOL0     H10121   9.162   4.123   6.630 -0.4014 -2.7353 -1.9719
   77MOL0     H10122   8.892   4.000   6.579  0.6637 -1.3651 -1.4312
   77MOL0     H10123   9.002   4.037   6.441 -1.7798 -2.4840 -0.8316
   77MOL0     H10124   9.083   3.850   6.660  1.7889  0.1655  0.4740
   77MOL0     H10125   9.179   3.904   6.517 -0.6138 -1.0052 -1.1482
   77MOL0     H10126   8.789   3.762   6.355 -2.1235 -1.4417  0.3281
   77MOL0     H10127   8.617   3.619   6.436 -0.4205 -2.0692  1.1246
   77MOL0     H10128   8.471   3.235   6.587  0.8835  1.0630  0.5766
   77MOL0     H10129   8.264   3.110   6.673  3.2233 -1.5233  6.0917
   77MOL0     H10130   7.984   3.059   6.904  0.6134 -2.3270 -0.1118
   77MOL0     H10131   8.141   3.034   6.847  0.4054  0.7257 -0.3796
   77MOL0     H10132   7.989   2.935   6.672  1.0597  0.1149 -1.8394
   77MOL0     H10133   8.057   3.068   6.603  3.9168 -4.6026  1.4968
   77MOL0     H10134   7.842   3.194   6.705  2.8219 -0.1964 -1.8789
   77MOL0     H10135   7.794   3.035   6.753 -0.4671 -0.5956 -0.7530
   77MOL0     H10136   7.793   3.130   6.460 -0.5657  0.8338  0.7894
   77MOL0     H10137   7.811   2.965   6.498  2.7315  1.3444 -0.3309
   77MOL0     H10138   7.629   2.934   6.630 -0.0119 -1.1482 -0.3857
   77MOL0     H10139   7.576   3.017   6.487  1.1451  1.0527 -1.0709
   77MOL0     H10140   7.573   3.228   6.619 -1.9240  0.0835  0.5593
   77MOL0     H10141   7.618   3.130   6.767  2.6826 -0.9640  0.2411
   77MOL0     H10142   7.366   3.064   6.606 -2.0478 -1.1239  0.3859
   77MOL0     H10143   7.430   2.991   6.747  2.1850  1.6014  2.2045
   77MOL0     H10144   7.326   3.280   6.760  0.4333 -0.6032 -2.1605
   77MOL0     H10145   7.437   3.198   6.871  2.8751  1.0615 -2.1875
   77MOL0     H10146   8.127   3.461   6.854  0.1823 -1.8160  0.4354
   77MOL0     H10147   8.306   3.594   6.747  2.1374  0.9644 -0.7046
   77MOL0     H10148   8.874   3.523   6.775 -2.3229  2.8498  0.7018
   77MOL0     H10149   9.044   3.631   6.678  0.6715 -2.6451 -1.0708
   77MOL0     H10150   8.965   5.204   6.514  3.5001 -2.5313  0.2534
   77MOL0     H10151   8.793   5.109   6.652 -0.3328  1.8098 -2.4289
   77MOL0     H10152   8.505   4.850   6.908  1.3832 -0.7492 -0.8306
   77MOL0     H10153   8.454   4.693   7.091 -1.4910  0.1272 -2.5053
   77MOL0     H10154   8.705   4.443   7.191  1.8158  3.7917 -1.6199
   77MOL0     H10155   8.578   4.496   7.097 -0.3781 -0.2083 -0.2101
   77MOL0     H10156   8.524   4.388   7.379 -0.3566 -0.1677 -0.4570
   77MOL0     H10157   8.408   4.458   7.278 -1.5059 -2.4967  1.3301
   77MOL0     H10158   8.607   4.229   7.184  0.0998 -1.4442  0.0117
   77MOL0     H10159   8.446   4.272   7.123 -0.3884  2.5587  0.9872
   77MOL0     H10160   8.465   4.158   7.407  0.0933 -2.1032 -0.6317
   77MOL0     H10161   8.322   4.161   7.305 -0.3858  0.4384 -0.5490
   77MOL0     H10162   8.478   3.819   7.142 -0.6593  1.0169 -0.4600
   77MOL0     H10163   8.835   4.745   7.256  3.8266  0.9706 -3.2772
   77MOL0     H10164   8.880   4.932   7.094  0.8100 -0.7456 -0.0355
   78MOL0     O10165   7.331   5.912   9.273  0.3309  0.4879  0.6441
   78MOL0     C10166   7.281   6.009   9.325 -1.3752  0.6497  0.1884
   78MOL0     O10167   7.309   6.054   9.450 -0.1982 -0.2560  0.2674
   78MOL0     C10168   7.432   6.051   9.514  0.4913 -0.1309 -0.4046
   78MOL0     C10169   7.457   6.155   9.597  0.1696 -0.5957  0.6763
   78MOL0     C10170   7.571   6.167   9.668  0.9293 -0.0367 -0.3210
   78MOL0     C10171   7.659   6.056   9.672 -0.3615  0.6106  0.7644
   78MOL0     O10172   7.761   6.048   9.763  0.0391  0.7361  0.0163
   78MOL0     C10173   7.724   6.046   9.902  0.3304 -0.3827 -0.4947
   78MOL0     C10174   7.844   6.053  10.006  0.1874 -1.4273  0.4979
   78MOL0     C10175   7.918   6.190  10.002  0.1745 -0.0548  0.2858
   78MOL0     C10176   8.042   6.199  10.097 -0.8381  0.3020  0.1249
   78MOL0     C10177   8.100   6.342  10.102 -0.1413  0.1536 -0.3896
   78MOL0     C10178   8.179   6.382   9.980 -0.5570  0.3338  0.3781
   78MOL0     C10179   8.236   6.521   9.996 -0.4475 -0.0590  0.6648
   78MOL0     C10180   8.136   6.620  10.023  0.2735 -0.0247  0.0464
   78MOL0     N10181   8.196   6.753  10.016  0.1596 -0.0870  0.2521
   78MOL0     C10182   8.245   6.816   9.908  1.3625  0.0309  0.3265
   78MOL0     C10183   8.277   6.935   9.952  0.6856 -0.8353  0.5233
   78MOL0     C10184   8.340   7.049   9.868  0.0841 -0.1164  0.0941
   78MOL0     C10185   8.488   7.036   9.859  0.1675 -0.5111 -0.2844
   78MOL0     C10186   8.572   7.049   9.989  0.1318  0.3858 -0.3196
   78MOL0     C10187   8.593   6.906  10.041  0.0561  0.8008 -0.6500
   78MOL0     O10188   8.636   6.818   9.940 -0.0915  0.5519  0.6299
   78MOL0     C10189   8.626   6.692   9.985  0.4388  0.0270 -0.6347
   78MOL0     C10190   8.602   6.601   9.876  0.3916 -0.6032 -0.1701
   78MOL0     C10191   8.596   6.458   9.898 -0.3613 -0.5522 -0.0348
   78MOL0     C10192   8.587   6.410  10.032 -0.4452 -0.0643 -0.0144
   78MOL0     C10193   8.562   6.270  10.069 -0.8029  0.4240  0.9847
   78MOL0     O10194   8.625   6.181   9.984 -0.5078 -0.8241  0.5416
   78MOL0     C10195   8.590   6.049   9.991  0.5983 -0.0918 -0.6082
   78MOL0     C10196   8.657   5.964  10.075 -0.1394 -0.5882  0.0507
   78MOL0     C10197   8.610   5.832  10.081 -0.0546  0.5279  0.9111
   78MOL0     C10198   8.507   5.788  10.000  0.8069  0.2888 -0.1866
   78MOL0     O10199   8.479   5.653  10.003  0.2231 -0.0301 -0.6477
   78MOL0     C10200   8.419   5.603  10.121 -0.1141 -0.0863 -0.3365
   78MOL0     C10201   8.274   5.644  10.139  0.1485 -0.1001  0.1475
   78MOL0     C10202   8.176   5.613  10.032  0.4232  0.7104  0.1116
   78MOL0     C10203   8.049   5.690  10.051  0.0890 -0.1037  0.2997
   78MOL0     C10204   7.947   5.639   9.948 -0.7951  0.5221 -0.8399
   78MOL0     C10205   7.802   5.676   9.981 -0.2367  0.7189  0.0612
   78MOL0     C10206   7.720   5.640   9.853  0.2667  0.3085 -0.2220
   78MOL0     C10207   7.569   5.656   9.894  0.4979 -0.2636  0.0270
   78MOL0    Cl10208   7.461   5.640   9.749 -0.1452 -0.3427  0.0651
   78MOL0     C10209   8.436   5.871   9.916 -0.6730 -0.2050 -0.1503
   78MOL0     C10210   8.478   6.003   9.908 -0.9324 -0.5639  1.1441
   78MOL0     O10211   8.481   6.234  10.154 -0.5420 -1.1580  1.0568
   78MOL0     C10212   8.618   6.499  10.137 -0.2669 -0.4556  0.4708
   78MOL0     C10213   8.635   6.640  10.111  1.0622  0.1992 -0.6003
   78MOL0     N10214   8.257   6.944  10.091  0.1174  0.3891 -0.1646
   78MOL0     N10215   8.199   6.836  10.131 -0.3838  0.0320 -0.5578
   78MOL0     C10216   7.644   5.944   9.584  0.4846 -0.6484 -0.3383
   78MOL0     C10217   7.533   5.948   9.499 -0.1153 -0.7705 -0.0937
   78MOL0     C10218   7.173   6.090   9.265 -0.0042 -0.2581  0.4691
   78MOL0     C10219   7.182   6.129   9.135 -0.6183 -0.6820  0.9392
   78MOL0     C10220   7.102   6.219   9.078  0.5563 -0.1667  0.0077
   78MOL0     C10221   6.984   6.251   9.141 -0.0793 -0.1728  0.3590
   78MOL0     O10222   6.897   6.347   9.084 -0.6438  0.7723  0.3071
   78MOL0     C10223   6.912   6.476   9.136  0.7482  0.2828 -0.4126
   78MOL0     C10224   6.977   6.565   9.034 -0.1900  0.6295 -0.5790
   78MOL0     C10225   7.044   6.683   9.103 -0.2022  0.3812  0.1530
   78MOL0     C10226   7.052   6.815   9.040  1.1557 -0.0763 -0.0235
   78MOL0     C10227   7.059   6.810   8.892 -0.0389 -0.2597  0.5782
   78MOL0     C10228   7.077   6.800   8.770 -0.8138  0.8421  0.9194
   78MOL0     C10229   6.946   6.196   9.267  0.2703  0.3342  0.2786
   78MOL0     C10230   7.044   6.113   9.330 -0.0893  0.1083 -0.4154
   78MOL0     H10231   7.397   6.245   9.600  4.1115  2.7605 -4.1157
   78MOL0     H10232   7.601   6.247   9.735 -0.4300 -0.9093  1.3834
   78MOL0     H10233   7.665   5.957   9.923 -0.5314 -0.0447 -1.4099
   78MOL0     H10234   7.664   6.134   9.924  0.8357  0.4692 -2.3293
   78MOL0     H10235   7.919   5.975   9.991  3.3701  1.0501  2.3401
   78MOL0     H10236   7.816   6.040  10.111  1.8816  0.6835  1.2860
   78MOL0     H10237   7.848   6.273  10.005  1.3763  1.1943 -2.3866
   78MOL0     H10238   7.960   6.202   9.902 -1.0773 -1.0591 -0.3830
   78MOL0     H10239   8.019   6.155  10.194  0.6764 -0.6292  0.0905
   78MOL0     H10240   8.127   6.138  10.064  3.4332  3.3979  4.1274
   78MOL0     H10241   8.163   6.364  10.188 -1.6535  0.1099  0.7695
   78MOL0     H10242   8.015   6.409  10.119  0.1401  0.4885 -0.3001
   78MOL0     H10243   8.124   6.373   9.885  0.2659 -1.5945  0.0414
   78MOL0     H10244   8.260   6.309   9.973 -0.7198  0.3014 -3.6233
   78MOL0     H10245   8.310   6.507  10.075  0.2589  1.1245  0.2525
   78MOL0     H10246   8.285   6.546   9.901 -2.3013 -0.4161 -0.4298
   78MOL0     H10247   8.102   6.612  10.127 -0.9364 -0.8702 -0.3873
   78MOL0     H10248   8.056   6.612   9.949 -1.4248 -0.7698  1.8675
   78MOL0     H10249   8.274   6.775   9.812 -0.1275 -2.2074  0.7379
   78MOL0     H10250   8.307   7.141   9.916  2.8027  1.0619 -0.1245
   78MOL0     H10251   8.307   7.041   9.764  2.6071 -2.1714 -0.6499
   78MOL0     H10252   8.521   7.113   9.788  0.6312 -1.8419 -1.5546
   78MOL0     H10253   8.511   6.963   9.781  2.9314  3.6482 -3.8494
   78MOL0     H10254   8.676   7.081   9.981  0.7481 -1.3136  0.4939
   78MOL0     H10255   8.512   7.099  10.066 -1.7635 -2.1900  0.0175
   78MOL0     H10256   8.501   6.860  10.078  0.9586 -0.7596 -0.2701
   78MOL0     H10257   8.661   6.914  10.126  0.1539  4.9873 -0.9110
   78MOL0     H10258   8.599   6.642   9.775  1.2569  1.3458  0.5391
   78MOL0     H10259   8.610   6.394   9.812 -1.4631  0.2025 -0.7988
   78MOL0     H10260   8.744   5.999  10.131  0.0166 -0.3346 -0.3499
   78MOL0     H10261   8.653   5.750  10.136 -0.9639 -1.3433 -1.0117
   78MOL0     H10262   8.482   5.641  10.201  0.2494  0.1561 -0.7358
   78MOL0     H10263   8.437   5.495  10.115 -1.7011 -0.3469 -1.1017
   78MOL0     H10264   8.265   5.752  10.157 -0.3832 -0.6655  4.0159
   78MOL0     H10265   8.248   5.589  10.229  0.0852  1.9733  1.4689
   78MOL0     H10266   8.147   5.508  10.036  0.9752  0.5543  0.0475
   78MOL0     H10267   8.226   5.633   9.937  1.5192  0.5434  0.6420
   78MOL0     H10268   8.005   5.691  10.151  0.1423  2.6670  0.3759
   78MOL0     H10269   8.060   5.793  10.016 -3.2253  0.2303 -0.0596
   78MOL0     H10270   7.957   5.531   9.938  3.7613  0.7357 -0.9717
   78MOL0     H10271   7.975   5.689   9.854  2.7917  1.1670  0.3923
   78MOL0     H10272   7.791   5.784   9.999  1.6004  0.6202  2.2659
   78MOL0     H10273   7.758   5.636  10.073  2.4563  0.4493  1.3316
   78MOL0     H10274   7.740   5.708   9.770 -1.3428  0.8281 -0.2146
   78MOL0     H10275   7.723   5.539   9.813 -2.3403  0.0206  0.1214
   78MOL0     H10276   7.552   5.755   9.938 -2.1813 -0.4200 -0.4666
   78MOL0     H10277   7.544   5.577   9.965  3.0089  0.1984  1.5547
   78MOL0     H10278   8.357   5.827   9.856  1.4361 -3.1921 -0.9765
   78MOL0     H10279   8.443   6.082   9.842  1.5235  1.0177  1.5968
   78MOL0     H10280   8.606   6.450  10.233  1.2301  3.5927  3.0005
   78MOL0     H10281   8.649   6.698  10.202  0.4632 -2.1464  1.0811
   78MOL0     H10282   7.715   5.866   9.605  0.0597  0.2125  6.4467
   78MOL0     H10283   7.525   5.854   9.446  0.6676 -0.9642  0.1213
   78MOL0     H10284   7.265   6.106   9.068  0.2561 -0.4308  1.9176
   78MOL0     H10285   7.120   6.244   8.974  0.6877  2.5857  0.6165
   78MOL0     H10286   6.975   6.466   9.225 -0.0546 -0.4343  0.0963
   78MOL0     H10287   6.813   6.515   9.162  1.2038  1.1151  0.0985
   78MOL0     H10288   7.058   6.510   8.984 -0.1152  0.0067  0.2105
   78MOL0     H10289   6.899   6.617   8.978 -0.5640  0.9554  0.2327
   78MOL0     H10290   7.149   6.654   9.115  0.6322  2.6958 -0.9156
   78MOL0     H10291   7.022   6.691   9.210  2.9184 -1.8993  1.1230
   78MOL0     H10292   6.967   6.882   9.060 -0.0420 -1.6101  0.1871
   78MOL0     H10293   7.147   6.864   9.065  1.8677 -1.8483  0.9152
   78MOL0     H10294   7.097   6.793   8.665  0.9085  1.4432  1.1746
   78MOL0     H10295   6.844   6.214   9.298  0.6757  1.5335  0.9868
   78MOL0     H10296   7.023   6.080   9.432 -1.3830  2.5923  0.2145
   79MOL0     O10297   9.367   7.214   2.942 -0.2666 -0.0670  0.6484
   79MOL0     C10298   9.458   7.290   2.962  0.4826  0.4203 -0.3930
   79MOL0     O10299   9.483   7.399   2.875 -0.1327 -0.6964  0.7050
   79MOL0     C10300   9.380   7.470   2.810 -0.2094  0.6727 -0.3253
   79MOL0     C10301   9.250   7.479   2.860  0.2117 -0.5661  0.1212
   79MOL0     C10302   9.151   7.537   2.776 -0.2706  0.0593  0.4085
   79MOL0     C10303   9.177   7.591   2.645 -0.0577  0.1982  0.5861
   79MOL0     O10304   9.072   7.632   2.570  0.4882  0.3472  0.4828
   79MOL0     C10305   9.087   7.651   2.426 -0.6127 -0.3006 -0.4698
   79MOL0     C10306   9.123   7.527   2.348 -0.0354  0.3449  0.5930
   79MOL0     C10307   9.100   7.548   2.200 -0.0759  0.3341  0.6574
   79MOL0     C10308   9.187   7.453   2.121 -0.1407  0.4399  0.5822
   79MOL0     C10309   9.167   7.302   2.161  0.3346 -1.0105  0.1656
   79MOL0     C10310   9.022   7.236   2.158  0.1732 -0.3949  0.6705
   79MOL0     C10311   8.922   7.275   2.053  0.3739  0.2885  0.9281
   79MOL0     C10312   8.780   7.229   2.106 -0.2326  0.1774 -0.4428
   79MOL0     N10313   8.756   7.287   2.242  0.7175  0.5556 -0.0946
   79MOL0     C10314   8.743   7.213   2.361 -0.6961  1.2137 -0.1756
   79MOL0     C10315   8.714   7.296   2.457 -0.2352  0.0675 -0.9794
   79MOL0     C10316   8.683   7.250   2.595 -0.5521  0.4824 -0.6027
   79MOL0     C10317   8.810   7.262   2.690  0.8278  0.3498  0.2059
   79MOL0     C10318   8.772   7.181   2.823 -0.4758  0.0538 -1.0889
   79MOL0     C10319   8.870   7.230   2.932 -1.6069 -0.0534  0.1745
   79MOL0     O10320   8.800   7.346   2.974  0.5417  0.3045 -0.2724
   79MOL0     C10321   8.849   7.429   3.076 -1.2061  0.2333  1.7041
   79MOL0     C10322   8.979   7.414   3.128 -0.0291 -0.3269 -0.2379
   79MOL0     C10323   9.018   7.509   3.227  0.0347 -0.4902  0.4153
   79MOL0     C10324   8.934   7.598   3.287  0.0951  0.6595  0.2724
   79MOL0     C10325   8.974   7.700   3.392 -0.7090  0.9821 -0.5737
   79MOL0     O10326   9.068   7.653   3.476 -0.3405  0.6751 -0.3393
   79MOL0     C10327   9.113   7.738   3.573 -0.2629 -0.4084 -0.2024
   79MOL0     C10328   9.036   7.737   3.687  0.0336  0.3084 -0.1326
   79MOL0     C10329   9.082   7.806   3.798 -0.1941 -0.4173  0.0740
   79MOL0     C10330   9.204   7.881   3.793  1.2572  0.0935  0.1491
   79MOL0     O10331   9.238   7.965   3.889  0.3896  0.5287  0.7763
   79MOL0     C10332   9.185   7.961   4.023  0.4804 -0.8116  1.0869
   79MOL0     C10333   9.281   8.004   4.138  0.1351  0.4871  0.4371
   79MOL0     C10334   9.233   8.132   4.195  0.2813  0.1766  0.7934
   79MOL0     C10335   9.329   8.203   4.286  0.1468  0.9815 -0.1114
   79MOL0     C10336   9.353   8.111   4.409 -0.5912  0.1672 -0.2664
   79MOL0     C10337   9.437   8.175   4.521 -0.1786  0.7045  0.1515
   79MOL0     C10338   9.439   8.087   4.647  0.6444 -0.7197  0.2675
   79MOL0     C10339   9.339   8.136   4.746 -0.3298  0.1507 -0.2147
   79MOL0    Cl10340   9.175   8.081   4.701  0.0903 -0.0609 -0.2147
   79MOL0     C10341   9.274   7.890   3.675 -1.1947  0.2290  0.1424
   79MOL0     C10342   9.227   7.820   3.565  0.1272  0.6071 -0.5448
   79MOL0     O10343   8.932   7.814   3.387 -0.2479 -0.6846 -0.1375
   79MOL0     C10344   8.807   7.612   3.230  0.5099  0.1226 -0.5401
   79MOL0     C10345   8.761   7.520   3.134 -0.8288 -0.1734  0.5027
   79MOL0     N10346   8.712   7.429   2.405  0.0602  0.1715  0.3949
   79MOL0     N10347   8.724   7.415   2.277  0.0872  0.1612  0.0297
   79MOL0     C10348   9.310   7.590   2.606 -0.6475  1.3184  0.1071
   79MOL0     C10349   9.414   7.529   2.685  0.7777  0.0476  0.3892
   79MOL0     C10350   9.550   7.276   3.080  0.1752 -0.4376 -1.3131
   79MOL0     C10351   9.508   7.203   3.199  1.2727  0.6504  0.3523
   79MOL0     C10352   9.584   7.188   3.313 -0.0252  1.2265 -0.4707
   79MOL0     C10353   9.717   7.229   3.320 -0.2765  0.6090 -0.1703
   79MOL0     O10354   9.800   7.226   3.434  0.3134  0.4724  0.0814
   79MOL0     C10355   9.751   7.155   3.549  0.6072  0.1698  0.1080
   79MOL0     C10356   9.879   7.122   3.632  0.9712 -0.1494  0.0197
   79MOL0     C10357   9.863   7.018   3.749  0.2674 -0.3352  0.1383
   79MOL0     C10358   9.782   6.891   3.716 -0.3874  0.4351  0.3832
   79MOL0     C10359   9.836   6.799   3.819  0.0077 -0.4480 -0.2333
   79MOL0     C10360   9.877   6.733   3.907  0.5932  0.6650  0.0299
   79MOL0     C10361   9.758   7.310   3.209  0.0513 -0.2966  0.0946
   79MOL0     C10362   9.679   7.332   3.091 -0.3014  0.7273  0.0689
   79MOL0     H10363   9.221   7.430   2.953 -0.0074  2.2746  1.6541
   79MOL0     H10364   9.054   7.562   2.817  0.6970  0.8480  2.3690
   79MOL0     H10365   9.157   7.734   2.412 -2.3140  1.0516 -1.4273
   79MOL0     H10366   9.001   7.700   2.378 -0.6781  1.1502  1.0356
   79MOL0     H10367   9.070   7.435   2.374  2.1655 -2.4964 -3.6403
   79MOL0     H10368   9.229   7.501   2.363 -0.2443 -1.6570 -0.9137
   79MOL0     H10369   9.135   7.647   2.170  1.3759  0.2022  1.7960
   79MOL0     H10370   8.994   7.542   2.172  0.1351  1.9089 -0.5612
   79MOL0     H10371   9.175   7.478   2.015 -0.9730 -0.5289  0.4319
   79MOL0     H10372   9.283   7.494   2.154 -1.2146  2.3370  1.4807
   79MOL0     H10373   9.198   7.294   2.266 -0.8182 -1.0174  0.5302
   79MOL0     H10374   9.235   7.247   2.095 -0.4997 -2.4989  0.4854
   79MOL0     H10375   8.995   7.274   2.257  2.8239  1.2609  0.8525
   79MOL0     H10376   9.037   7.127   2.162 -1.3549 -0.6295  0.5600
   79MOL0     H10377   8.921   7.384   2.045 -1.1840  0.5493  3.3529
   79MOL0     H10378   8.931   7.227   1.955 -2.4381 -1.3726  1.3667
   79MOL0     H10379   8.781   7.121   2.122  0.1156  0.3626  0.8934
   79MOL0     H10380   8.704   7.265   2.036 -0.5320 -1.3354 -0.9162
   79MOL0     H10381   8.759   7.106   2.372 -0.8891  1.3750  2.2182
   79MOL0     H10382   8.662   7.142   2.597  0.3726  0.2845 -0.9522
   79MOL0     H10383   8.599   7.311   2.629  0.2574  1.2472  0.0580
   79MOL0     H10384   8.841   7.365   2.708 -0.9776  0.4657  3.3233
   79MOL0     H10385   8.892   7.212   2.638 -1.0477 -0.2194 -2.4337
   79MOL0     H10386   8.665   7.188   2.846 -0.0253  1.2393  0.9199
   79MOL0     H10387   8.788   7.074   2.807 -1.8843 -0.7191  1.9423
   79MOL0     H10388   8.972   7.250   2.899 -0.8125 -1.3347  1.7416
   79MOL0     H10389   8.878   7.158   3.014 -2.1931 -0.2626  0.0577
   79MOL0     H10390   9.064   7.346   3.118  0.8899  1.0973 -3.1128
   79MOL0     H10391   9.121   7.521   3.257  1.3476  1.1503 -4.0120
   79MOL0     H10392   8.947   7.675   3.695  1.1301 -1.4854 -1.0619
   79MOL0     H10393   9.041   7.793   3.897  0.1915  1.5764  0.5423
   79MOL0     H10394   9.150   7.861   4.051  0.6300 -1.7187 -1.6763
   79MOL0     H10395   9.095   8.023   4.031 -1.5720 -3.8191  4.0898
   79MOL0     H10396   9.382   8.015   4.097 -0.1312  1.3764  0.0096
   79MOL0     H10397   9.302   7.921   4.208  0.6616 -2.2569 -2.7206
   79MOL0     H10398   9.143   8.104   4.251 -0.7278 -0.6924 -1.1549
   79MOL0     H10399   9.195   8.212   4.131  1.8303  3.0922  3.2345
   79MOL0     H10400   9.428   8.221   4.243  0.7186 -1.7174 -0.1196
   79MOL0     H10401   9.272   8.289   4.321 -2.5098 -0.5877 -0.2840
   79MOL0     H10402   9.401   8.017   4.381  0.1792  0.8004 -1.1393
   79MOL0     H10403   9.255   8.077   4.443 -1.0893  1.4170 -0.3789
   79MOL0     H10404   9.400   8.274   4.550  1.9071  1.2945  0.9597
   79MOL0     H10405   9.540   8.177   4.484 -0.8658 -0.4174 -1.9994
   79MOL0     H10406   9.413   7.983   4.625 -0.2400 -0.7771  1.4498
   79MOL0     H10407   9.540   8.098   4.687  1.1742  1.2489 -1.4875
   79MOL0     H10408   9.350   8.244   4.757 -0.7299  0.4853 -2.5924
   79MOL0     H10409   9.340   8.087   4.844 -1.7535  0.6913  0.0934
   79MOL0     H10410   9.365   7.948   3.661 -1.2672  0.9893  2.3863
   79MOL0     H10411   9.286   7.824   3.474  0.2731 -0.4668 -0.5156
   79MOL0     H10412   8.740   7.687   3.271  1.1382  0.5769 -0.3245
   79MOL0     H10413   8.662   7.525   3.090 -1.1530 -1.6245  1.0176
   79MOL0     H10414   9.338   7.625   2.508  1.5359 -0.2556  0.0922
   79MOL0     H10415   9.517   7.520   2.650  0.1500 -2.7498 -1.0405
   79MOL0     H10416   9.401   7.188   3.206  1.4133  0.0058  1.2558
   79MOL0     H10417   9.547   7.149   3.407  0.5470  1.0860 -0.3009
   79MOL0     H10418   9.708   7.058   3.524  0.1471  0.4751 -0.2916
   79MOL0     H10419   9.675   7.202   3.611 -0.5115  0.1383 -1.1825
   79MOL0     H10420   9.953   7.081   3.562  1.2433 -0.5158  0.5139
   79MOL0     H10421   9.912   7.214   3.680  1.0257 -0.8381  1.3506
   79MOL0     H10422   9.814   7.076   3.827 -0.2876  0.4872 -0.7916
   79MOL0     H10423   9.968   7.013   3.779  0.9085  1.9706 -1.3651
   79MOL0     H10424   9.673   6.897   3.716 -0.4383  0.1410 -1.2155
   79MOL0     H10425   9.803   6.848   3.617 -1.8039  0.8597 -0.1199
   79MOL0     H10426   9.911   6.670   3.987 -3.2282 -3.3214 -1.1097
   79MOL0     H10427   9.851   7.366   3.209  1.0794 -1.9434 -0.8756
   79MOL0     H10428   9.716   7.392   3.008 -0.3272  0.2692 -0.2786
   80MOL0     O10429   7.143   3.156   8.454  0.6105 -0.3038  0.0963
   80MOL0     C10430   7.203   3.193   8.555  0.0852  0.0337  0.2257
   80MOL0     O10431   7.168   3.281   8.640 -1.0791 -0.3463  0.3824
   80MOL0     C10432   7.052   3.348   8.628  1.3622  0.0274 -0.1506
   80MOL0     C10433   6.943   3.286   8.704  0.8974  0.7399  0.6894
   80MOL0     C10434   6.820   3.351   8.714  0.6479  0.3814 -0.3555
   80MOL0     C10435   6.793   3.468   8.647  0.4176 -0.2916  0.2350
   80MOL0     O10436   6.666   3.523   8.628 -0.2864  0.0820 -0.3881
   80MOL0     C10437   6.591   3.559   8.737  0.6367 -0.4368  0.1136
   80MOL0     C10438   6.457   3.491   8.734  0.5426  0.0289  0.5023
   80MOL0     C10439   6.463   3.349   8.793 -0.1133  0.2787 -0.5300
   80MOL0     C10440   6.340   3.263   8.749 -0.0184 -0.1177  0.9774
   80MOL0     C10441   6.326   3.134   8.826 -0.0346 -0.5460  0.6386
   80MOL0     C10442   6.189   3.069   8.810  0.8001  0.1854  0.2125
   80MOL0     C10443   6.174   3.005   8.674 -0.2030  0.3812  0.4806
   80MOL0     C10444   6.245   2.876   8.678  0.5371  1.2010 -0.5014
   80MOL0     N10445   6.219   2.801   8.553 -0.0785 -1.0508  0.7665
   80MOL0     C10446   6.264   2.848   8.434 -0.0759  0.1902 -0.8552
   80MOL0     C10447   6.231   2.750   8.349 -0.2652  0.0330 -0.9706
   80MOL0     C10448   6.281   2.745   8.207 -0.4662  0.0809  0.2585
   80MOL0     C10449   6.419   2.670   8.189  0.4364  0.2119 -1.1867
   80MOL0     C10450   6.535   2.736   8.271  0.7331  0.7212  1.4312
   80MOL0     C10451   6.665   2.686   8.228 -0.3439 -0.1950  0.5380
   80MOL0     O10452   6.718   2.582   8.318 -0.0276 -0.1129  0.3241
   80MOL0     C10453   6.819   2.505   8.268 -0.5843  0.9980  0.7308
   80MOL0     C10454   6.934   2.550   8.195  0.7924 -0.6689 -0.8965
   80MOL0     C10455   7.043   2.476   8.161 -0.3452 -0.5888  0.3659
   80MOL0     C10456   7.049   2.338   8.206  0.3763  1.4144  0.1307
   80MOL0     C10457   7.151   2.244   8.145 -0.0959 -0.7665  0.5286
   80MOL0     O10458   7.248   2.307   8.078 -0.2346 -0.0777  0.2846
   80MOL0     C10459   7.328   2.248   7.995 -0.1413  0.6214  0.3594
   80MOL0     C10460   7.437   2.175   8.046  0.4096 -0.5279  0.5679
   80MOL0     C10461   7.531   2.112   7.958 -0.1959 -0.4557  0.0624
   80MOL0     C10462   7.520   2.132   7.817  0.5412  0.1582  0.4611
   80MOL0     O10463   7.610   2.068   7.739  0.0344  0.0285 -0.7286
   80MOL0     C10464   7.725   2.141   7.685  0.4127  0.0234 -0.4804
   80MOL0     C10465   7.734   2.296   7.700  0.7663  1.4438 -0.7379
   80MOL0     C10466   7.860   2.356   7.633  0.5408  0.0616 -0.8234
   80MOL0     C10467   7.989   2.275   7.681 -0.1765 -0.8385  0.6433
   80MOL0     C10468   8.117   2.362   7.658 -0.3479 -0.0466 -0.3319
   80MOL0     C10469   8.249   2.309   7.720 -0.5971  0.0568 -0.5642
   80MOL0     C10470   8.370   2.400   7.705 -0.0107 -0.0178  0.5522
   80MOL0     C10471   8.472   2.383   7.822  0.3126 -0.3078  0.3276
   80MOL0    Cl10472   8.530   2.216   7.793  0.3137  0.0766 -0.3592
   80MOL0     C10473   7.410   2.199   7.766  0.6929  0.4229  0.8548
   80MOL0     C10474   7.318   2.262   7.851  0.9517 -0.2449 -0.5967
   80MOL0     O10475   7.141   2.124   8.155 -0.0975 -0.3333 -0.1319
   80MOL0     C10476   6.952   2.297   8.299  0.5065  0.0669  0.4283
   80MOL0     C10477   6.839   2.380   8.321  0.0759  0.3627 -0.0260
   80MOL0     N10478   6.161   2.648   8.411  1.2138  0.6239  0.1252
   80MOL0     N10479   6.152   2.677   8.536 -0.4028 -0.0008  0.7667
   80MOL0     C10480   6.902   3.523   8.573  0.0503 -0.0901  0.8747
   80MOL0     C10481   7.034   3.470   8.566  0.2379 -0.3769  0.8856
   80MOL0     C10482   7.326   3.121   8.574 -0.1011  0.1719  0.0869
   80MOL0     C10483   7.408   3.072   8.465 -0.7440  0.1229  0.3247
   80MOL0     C10484   7.520   2.993   8.500  0.1277 -0.1923  0.2468
   80MOL0     C10485   7.549   2.953   8.628 -0.4998 -0.3447  1.1111
   80MOL0     O10486   7.659   2.877   8.663  0.0795  0.3569 -0.1019
   80MOL0     C10487   7.770   2.857   8.577 -1.1774  0.4241 -0.3596
   80MOL0     C10488   7.863   2.978   8.576 -0.7210 -0.4314  0.1934
   80MOL0     C10489   7.901   3.039   8.716 -0.4257  0.2478  0.0870
   80MOL0     C10490   7.981   2.949   8.808 -0.9208  1.0355  1.0902
   80MOL0     C10491   8.108   2.887   8.760 -0.4491 -0.4373 -0.0398
   80MOL0     C10492   8.212   2.825   8.732 -0.1785  0.4193 -1.0555
   80MOL0     C10493   7.464   2.994   8.728  0.5878  0.5004  0.1730
   80MOL0     C10494   7.361   3.073   8.703  0.3745 -0.5601  0.5167
   80MOL0     H10495   6.961   3.183   8.735 -1.3054 -1.3807 -4.0349
   80MOL0     H10496   6.748   3.315   8.788  2.5540 -0.5668  1.1201
   80MOL0     H10497   6.570   3.666   8.746  0.7415 -0.4703  0.7915
   80MOL0     H10498   6.638   3.544   8.834 -2.9419 -0.0567  2.0644
   80MOL0     H10499   6.421   3.497   8.631  0.7681 -1.5360  0.3177
   80MOL0     H10500   6.385   3.533   8.804  1.5039 -0.5054  1.8543
   80MOL0     H10501   6.475   3.360   8.902  0.2510  1.4368 -0.6619
   80MOL0     H10502   6.552   3.308   8.745 -1.3631  0.7286 -3.4086
   80MOL0     H10503   6.250   3.325   8.754 -0.7617 -1.2792  3.4320
   80MOL0     H10504   6.342   3.238   8.642 -1.6395 -1.4703  1.2384
   80MOL0     H10505   6.347   3.160   8.930  0.6448 -2.2458  0.9666
   80MOL0     H10506   6.405   3.066   8.792  0.3522 -0.0493  0.5222
   80MOL0     H10507   6.123   3.155   8.823  1.1821  1.8245 -5.6383
   80MOL0     H10508   6.161   2.990   8.881 -0.8818  0.3961 -0.1767
   80MOL0     H10509   6.067   2.988   8.656  0.3286  0.5034 -3.7911
   80MOL0     H10510   6.218   3.056   8.588  0.2456 -0.4628  0.1999
   80MOL0     H10511   6.210   2.802   8.750 -1.0124  1.1911 -1.2294
   80MOL0     H10512   6.355   2.878   8.678  0.5458  1.0581 -1.4574
   80MOL0     H10513   6.312   2.945   8.421  1.7432 -0.1278  2.4262
   80MOL0     H10514   6.308   2.843   8.167  3.6943 -1.6822 -1.8373
   80MOL0     H10515   6.203   2.701   8.145 -2.6605 -1.3715  3.7475
   80MOL0     H10516   6.455   2.676   8.085  0.5653 -0.2503 -1.1685
   80MOL0     H10517   6.402   2.566   8.218 -0.1462  0.4720 -0.5913
   80MOL0     H10518   6.530   2.842   8.246 -0.7319  0.2109 -0.7120
   80MOL0     H10519   6.534   2.723   8.379 -1.4734  1.3687  1.5431
   80MOL0     H10520   6.735   2.771   8.225 -0.6376  0.0495  0.5436
   80MOL0     H10521   6.656   2.653   8.124 -2.2921 -0.0268  0.6293
   80MOL0     H10522   6.928   2.655   8.168 -2.7372 -0.8444 -1.2292
   80MOL0     H10523   7.125   2.510   8.098 -0.0980 -0.8221  0.5568
   80MOL0     H10524   7.435   2.172   8.154 -0.1990 -0.0336  0.5702
   80MOL0     H10525   7.622   2.067   7.996  0.6898  1.5740  0.4774
   80MOL0     H10526   7.719   2.128   7.577 -1.0272 -1.9071 -0.2023
   80MOL0     H10527   7.815   2.087   7.717 -1.0201 -2.9098 -1.0935
   80MOL0     H10528   7.723   2.326   7.805  0.1067  1.1709 -0.7241
   80MOL0     H10529   7.652   2.348   7.650 -1.1664  0.7486  1.5063
   80MOL0     H10530   7.882   2.458   7.668 -0.9047  0.3514 -0.7145
   80MOL0     H10531   7.854   2.359   7.524 -2.0020  0.8886 -0.7163
   80MOL0     H10532   7.977   2.250   7.787  2.8121  3.5875  2.3476
   80MOL0     H10533   7.999   2.186   7.618  1.0424  0.1938 -0.6988
   80MOL0     H10534   8.105   2.460   7.703  0.0550 -0.5215  0.8447
   80MOL0     H10535   8.123   2.376   7.549 -2.0619 -2.5643 -0.8435
   80MOL0     H10536   8.275   2.210   7.681 -0.1023 -0.8950  1.9876
   80MOL0     H10537   8.235   2.279   7.824 -1.1326 -0.9967 -0.9279
   80MOL0     H10538   8.417   2.382   7.608 -4.0316  1.2307 -1.8953
   80MOL0     H10539   8.340   2.506   7.710 -0.4030 -0.1684  1.9771
   80MOL0     H10540   8.437   2.389   7.926  0.3144 -2.2840  0.4674
   80MOL0     H10541   8.560   2.449   7.821  2.5761 -3.1446 -0.6848
   80MOL0     H10542   7.395   2.185   7.660 -0.1584 -0.4312  1.0703
   80MOL0     H10543   7.232   2.320   7.817  1.4189  0.7752 -0.0815
   80MOL0     H10544   6.941   2.197   8.340 -2.1672  0.9824  2.2179
   80MOL0     H10545   6.766   2.341   8.390 -1.7476  1.6800 -1.1325
   80MOL0     H10546   6.888   3.615   8.516 -0.8452 -0.4774  0.4409
   80MOL0     H10547   7.125   3.518   8.532 -0.4933  0.5820  0.2086
   80MOL0     H10548   7.386   3.096   8.362 -0.6410 -0.4407  0.1671
   80MOL0     H10549   7.587   2.967   8.419 -0.0504 -1.7342  0.5559
   80MOL0     H10550   7.743   2.824   8.477 -1.4340  0.0181 -0.1566
   80MOL0     H10551   7.833   2.782   8.626 -0.6875  0.1288 -1.4201
   80MOL0     H10552   7.946   2.955   8.509  0.3889  2.8550  0.2604
   80MOL0     H10553   7.799   3.044   8.516 -0.7229 -1.0101 -0.4505
   80MOL0     H10554   7.815   3.073   8.774 -0.2850  3.1656 -1.2435
   80MOL0     H10555   7.948   3.136   8.697  2.2288 -0.9029  0.3032
   80MOL0     H10556   8.012   3.010   8.892  2.0991  1.8643 -0.4903
   80MOL0     H10557   7.919   2.868   8.849  0.9005  1.1086  4.2711
   80MOL0     H10558   8.307   2.781   8.706  0.6038  3.0649 -3.1691
   80MOL0     H10559   7.471   2.951   8.827  3.1030 -0.1969 -0.2414
   80MOL0     H10560   7.294   3.093   8.786  0.2227  0.9747  0.0573
   81MOL0     O10561   4.671   9.242  10.442 -0.1288 -0.2418  0.3898
   81MOL0     C10562   4.688   9.358  10.406  0.5432 -1.0371  0.0292
   81MOL0     O10563   4.633   9.466  10.463 -0.2273  0.2070  0.9726
   81MOL0     C10564   4.555   9.476  10.579 -0.2967 -0.3501 -0.6978
   81MOL0     C10565   4.522   9.382  10.680 -0.4435  0.0701  0.3865
   81MOL0     C10566   4.437   9.403  10.785  0.4610 -0.3706  0.5005
   81MOL0     C10567   4.394   9.538  10.809  0.3103  0.3481 -0.3904
   81MOL0     O10568   4.312   9.566  10.921  0.2567 -0.1106  0.0419
   81MOL0     C10569   4.203   9.477  10.962  0.0149  0.4317  0.6801
   81MOL0     C10570   4.105   9.548  11.061  0.0433 -0.4989 -0.0453
   81MOL0     C10571   4.044   9.459  11.174  0.8735  0.7338  0.2730
   81MOL0     C10572   3.946   9.541  11.254 -0.4653 -0.0588  0.1375
   81MOL0     C10573   3.886   9.460  11.377 -0.3623 -0.0027  0.4321
   81MOL0     C10574   3.789   9.550  11.455  0.1510 -0.5312 -0.3130
   81MOL0     C10575   3.726   9.479  11.572 -0.4121  0.6525 -0.2914
   81MOL0     C10576   3.830   9.436  11.676 -0.2509 -0.8191 -0.8150
   81MOL0     N10577   3.753   9.370  11.777 -0.3413  0.0723  0.5977
   81MOL0     C10578   3.689   9.248  11.777  1.2663 -0.7451  0.0054
   81MOL0     C10579   3.615   9.241  11.893 -0.8093 -0.8988 -0.3216
   81MOL0     C10580   3.531   9.123  11.934  1.3160 -0.0429 -0.0520
   81MOL0     C10581   3.381   9.168  11.916  0.5232  0.1248  0.7976
   81MOL0     C10582   3.295   9.044  11.925 -0.2867 -1.1345 -0.8442
   81MOL0     C10583   3.144   9.068  11.887 -0.2282 -1.3721 -0.7048
   81MOL0     O10584   3.139   9.077  11.744  0.5858 -0.2511 -0.5750
   81MOL0     C10585   3.009   9.088  11.696  0.0104  0.7708 -0.7431
   81MOL0     C10586   2.946   8.985  11.625 -0.7966 -0.1551 -1.1856
   81MOL0     C10587   2.817   8.998  11.572 -0.4923 -0.4768 -0.3077
   81MOL0     C10588   2.742   9.105  11.615 -0.0968  0.0534 -1.0158
   81MOL0     C10589   2.595   9.102  11.582  0.6962  0.0367 -0.1203
   81MOL0     O10590   2.531   8.986  11.543 -0.4354  0.5047  0.3722
   81MOL0     C10591   2.445   8.971  11.434 -1.1081  0.0447 -0.3030
   81MOL0     C10592   2.403   8.843  11.407  0.0043  0.0791  0.7139
   81MOL0     C10593   2.313   8.818  11.297 -0.5309  1.0749 -0.5107
   81MOL0     C10594   2.273   8.925  11.215 -0.4480  0.1124  0.8489
   81MOL0     O10595   2.205   8.886  11.098 -0.4623 -0.2898  0.0014
   81MOL0     C10596   2.154   8.974  10.996  0.5721 -0.6593 -0.1726
   81MOL0     C10597   2.077   8.874  10.898 -0.6261 -0.2627 -0.1001
   81MOL0     C10598   1.960   8.929  10.830 -0.1686 -1.0901 -0.3881
   81MOL0     C10599   1.901   8.828  10.729 -1.6168  0.7888 -0.8041
   81MOL0     C10600   1.794   8.895  10.643  0.3838 -0.5704  0.0585
   81MOL0     C10601   1.650   8.889  10.707  1.3028 -0.4228  0.0647
   81MOL0     C10602   1.544   8.960  10.626  0.0823 -1.0484 -0.1310
   81MOL0     C10603   1.397   8.950  10.686  0.4886  0.4193  0.1720
   81MOL0    Cl10604   1.330   8.793  10.656 -0.4141  0.5043  0.4088
   81MOL0     C10605   2.318   9.055  11.246  0.2320  0.5668 -0.0354
   81MOL0     C10606   2.394   9.083  11.356 -0.3356 -0.1342 -0.8862
   81MOL0     O10607   2.531   9.207  11.594 -0.1129  0.6302  0.3038
   81MOL0     C10608   2.799   9.210  11.683 -0.1842  0.3052 -0.4194
   81MOL0     C10609   2.931   9.203  11.721  0.4591 -0.7743  0.0587
   81MOL0     N10610   3.633   9.360  11.958  0.2992 -0.0719  0.4347
   81MOL0     N10611   3.710   9.436  11.891  0.8185 -0.7319  0.2773
   81MOL0     C10612   4.436   9.641  10.718 -0.3114 -0.6212 -0.8519
   81MOL0     C10613   4.512   9.605  10.603  0.4810 -0.6031 -0.2443
   81MOL0     C10614   4.762   9.389  10.283  0.1626  0.1515  0.0718
   81MOL0     C10615   4.776   9.519  10.223 -1.0628  0.7145 -0.2014
   81MOL0     C10616   4.855   9.542  10.116  0.2372 -0.0702  1.4516
   81MOL0     C10617   4.903   9.429  10.042 -0.2758  0.0040  1.2117
   81MOL0     O10618   4.956   9.463   9.928  0.3681 -0.0087 -0.8559
   81MOL0     C10619   5.007   9.375   9.833 -0.1442 -0.6490  0.3860
   81MOL0     C10620   5.138   9.294   9.865  0.4115  0.0424 -0.7509
   81MOL0     C10621   5.236   9.400   9.910 -0.3795  0.9116  0.7268
   81MOL0     C10622   5.314   9.356  10.032  0.7355  0.4971  1.2393
   81MOL0     C10623   5.235   9.360  10.157 -0.2096  0.6410  1.6119
   81MOL0     C10624   5.165   9.357  10.256  0.8519  0.4318 -0.2168
   81MOL0     C10625   4.903   9.300  10.097 -0.1958 -0.9760 -0.2187
   81MOL0     C10626   4.823   9.277  10.209  0.0331 -0.3977  1.5497
   81MOL0     H10627   4.548   9.280  10.651 -0.6849  0.4383 -1.1926
   81MOL0     H10628   4.420   9.323  10.857  1.0794 -0.5130  0.4961
   81MOL0     H10629   4.242   9.384  11.006  1.9661  2.1976  2.9574
   81MOL0     H10630   4.142   9.452  10.874 -0.1106 -1.4180  1.2383
   81MOL0     H10631   4.025   9.588  10.997  2.2022 -0.3160 -2.8558
   81MOL0     H10632   4.149   9.635  11.110 -0.8076  0.6996 -1.3235
   81MOL0     H10633   4.120   9.413  11.238  1.2427 -2.5572 -2.2232
   81MOL0     H10634   3.995   9.381  11.114 -0.8213  1.8185  0.1955
   81MOL0     H10635   3.998   9.629  11.295  0.2868 -1.2070  1.7733
   81MOL0     H10636   3.871   9.575  11.182  0.3572  1.9221  0.1309
   81MOL0     H10637   3.972   9.432  11.438  0.1613  0.0247 -0.2896
   81MOL0     H10638   3.827   9.376  11.338 -0.1373 -0.9651  2.0298
   81MOL0     H10639   3.718   9.592  11.383  0.4001  0.2745 -0.1015
   81MOL0     H10640   3.846   9.638  11.487  1.9774 -2.4499  1.9699
   81MOL0     H10641   3.667   9.557  11.622  1.6045  0.2034  3.1059
   81MOL0     H10642   3.664   9.398  11.532  0.3300  0.9413 -2.0963
   81MOL0     H10643   3.866   9.525  11.730  0.5678 -2.0002  0.6836
   81MOL0     H10644   3.913   9.372  11.645  0.7753 -2.0058  3.5704
   81MOL0     H10645   3.697   9.166  11.707 -0.1575 -3.3634  2.6862
   81MOL0     H10646   3.548   9.104  12.040 -2.1318 -0.8380  0.4682
   81MOL0     H10647   3.549   9.029  11.880 -1.7716 -0.3635 -0.7304
   81MOL0     H10648   3.379   9.208  11.814 -0.0672 -3.1874 -0.6273
   81MOL0     H10649   3.348   9.236  11.995 -0.8953 -3.7001  3.7683
   81MOL0     H10650   3.338   8.970  11.857  1.0197 -3.0939  1.8714
   81MOL0     H10651   3.299   9.012  12.030 -2.0720 -2.4963 -1.1379
   81MOL0     H10652   3.114   9.161  11.936 -2.0363 -0.5818 -3.0756
   81MOL0     H10653   3.094   8.980  11.927 -1.1291  0.4895  2.5922
   81MOL0     H10654   3.000   8.891  11.619  0.9309  0.7696 -0.8762
   81MOL0     H10655   2.770   8.925  11.507  1.7839  0.5351 -3.3803
   81MOL0     H10656   2.447   8.774  11.478  0.6801 -2.2440 -1.7850
   81MOL0     H10657   2.277   8.716  11.292  3.8490 -0.9732  2.9478
   81MOL0     H10658   2.228   9.037  10.946 -0.2375 -2.1284 -3.4805
   81MOL0     H10659   2.080   9.040  11.041  3.0930  1.8125  0.6240
   81MOL0     H10660   2.042   8.782  10.945  1.6195 -1.2856 -0.2764
   81MOL0     H10661   2.154   8.838  10.829  0.2993 -2.0794  1.7715
   81MOL0     H10662   1.982   9.022  10.776 -0.4762  0.8098  2.5498
   81MOL0     H10663   1.894   8.963  10.910  2.0411 -0.7777  1.4036
   81MOL0     H10664   1.984   8.797  10.665  1.3897  3.8284  1.2716
   81MOL0     H10665   1.862   8.740  10.780  1.1737 -0.5361 -0.7345
   81MOL0     H10666   1.796   8.834  10.552  0.0984  0.6743 -0.8061
   81MOL0     H10667   1.822   8.995  10.610 -1.2066 -0.5833 -1.4399
   81MOL0     H10668   1.650   8.928  10.809 -0.1113  1.3077 -0.5390
   81MOL0     H10669   1.615   8.785  10.709 -1.7651  0.5064  0.2523
   81MOL0     H10670   1.575   9.065  10.625  1.7718 -1.4803  1.1317
   81MOL0     H10671   1.555   8.931  10.522  3.2095  0.1214 -0.2379
   81MOL0     H10672   1.343   9.029  10.632  2.2550  0.7574 -1.2012
   81MOL0     H10673   1.396   8.982  10.790  1.2392  2.2164 -0.3372
   81MOL0     H10674   2.277   9.139  11.191 -1.0805  1.8950  2.7503
   81MOL0     H10675   2.416   9.188  11.373 -1.4272 -0.1744  1.0112
   81MOL0     H10676   2.735   9.292  11.713  0.1145  0.1769  0.6123
   81MOL0     H10677   2.981   9.280  11.779 -0.3377 -1.0525  1.1437
   81MOL0     H10678   4.384   9.735  10.730 -2.1102 -1.6215 -0.3994
   81MOL0     H10679   4.540   9.679  10.528 -0.2410  0.0463  0.1198
   81MOL0     H10680   4.743   9.606  10.279  1.6185  3.4934 -2.6417
   81MOL0     H10681   4.869   9.645  10.085 -1.1985 -0.5754 -1.1587
   81MOL0     H10682   5.047   9.445   9.759  3.7976 -0.2806  2.5389
   81MOL0     H10683   4.925   9.312   9.798  1.2682 -1.8161 -1.0182
   81MOL0     H10684   5.104   9.217   9.934  2.0993  0.8064  1.0244
   81MOL0     H10685   5.177   9.242   9.777 -1.0902  1.4126 -2.3121
   81MOL0     H10686   5.190   9.495   9.941  3.0543  3.1307 -0.4270
   81MOL0     H10687   5.297   9.426   9.823  1.1078 -1.0312  1.1229
   81MOL0     H10688   5.348   9.253  10.016 -1.4884  0.1368 -2.3301
   81MOL0     H10689   5.398   9.422  10.056  1.2697  0.1840  0.2763
   81MOL0     H10690   5.097   9.372  10.337 -0.0737  0.8767 -1.0543
   81MOL0     H10691   4.943   9.212  10.047  2.6551 -1.1862  2.1529
   81MOL0     H10692   4.810   9.174  10.242 -3.9707 -0.1970  1.0713
   82MOL0     O10693   3.351   9.000   6.393  0.1129  0.1639  0.8240
   82MOL0     C10694   3.372   9.087   6.304  0.7078 -0.6754 -0.5742
   82MOL0     O10695   3.376   9.064   6.172 -0.3690  1.1284 -0.0219
   82MOL0     C10696   3.397   8.931   6.137  0.6541  0.5800  0.1598
   82MOL0     C10697   3.308   8.882   6.045  0.6963  1.2011  1.0300
   82MOL0     C10698   3.326   8.755   5.981 -0.8214 -0.2151 -0.2117
   82MOL0     C10699   3.431   8.674   6.019 -0.7862 -0.4217 -0.8787
   82MOL0     O10700   3.442   8.541   5.969 -0.5606 -0.7225  0.3997
   82MOL0     C10701   3.384   8.510   5.842  1.2115 -0.6184 -0.5423
   82MOL0     C10702   3.431   8.376   5.794  0.5986 -0.2030 -0.1165
   82MOL0     C10703   3.337   8.305   5.699 -0.2860  0.4917 -0.2930
   82MOL0     C10704   3.389   8.163   5.677 -0.1461  1.2818 -0.5010
   82MOL0     C10705   3.294   8.067   5.606  0.0872 -0.3914  0.3013
   82MOL0     C10706   3.285   8.084   5.455 -0.4305 -0.5521 -0.2793
   82MOL0     C10707   3.408   8.056   5.375 -0.1626  0.4549 -0.3363
   82MOL0     C10708   3.439   7.907   5.376  1.0566 -0.5770  1.0699
   82MOL0     N10709   3.327   7.833   5.313 -0.1159  0.7936 -0.6065
   82MOL0     C10710   3.304   7.813   5.180  0.3328 -0.2832  0.4016
   82MOL0     C10711   3.186   7.745   5.177 -0.7091 -0.7319  0.2019
   82MOL0     C10712   3.126   7.685   5.055  0.3645 -0.4591 -0.4696
   82MOL0     C10713   3.128   7.533   5.040 -0.5663 -0.1237 -0.2008
   82MOL0     C10714   2.987   7.470   5.029 -0.6250  0.3096 -0.3187
   82MOL0     C10715   3.003   7.319   5.027 -0.8803  0.1778  0.1407
   82MOL0     O10716   2.996   7.279   4.890 -0.7446  0.3867  0.0199
   82MOL0     C10717   2.951   7.152   4.873 -0.6615  0.5452  0.1520
   82MOL0     C10718   2.881   7.115   4.765 -0.0226 -0.1828  0.0894
   82MOL0     C10719   2.853   6.975   4.742 -1.2252 -0.4084  0.8149
   82MOL0     C10720   2.894   6.876   4.824 -0.5985 -0.1861  0.3275
   82MOL0     C10721   2.888   6.733   4.786 -0.8442 -0.3449 -0.8116
   82MOL0     O10722   2.924   6.641   4.880  0.0498  0.2998 -0.5211
   82MOL0     C10723   2.926   6.510   4.846 -0.3785  0.5406  0.2252
   82MOL0     C10724   2.817   6.446   4.784 -0.6391 -0.1956 -0.7658
   82MOL0     C10725   2.818   6.301   4.763  0.6057  0.2467 -0.2210
   82MOL0     C10726   2.921   6.223   4.799  0.4827 -1.1659 -0.4689
   82MOL0     O10727   2.906   6.090   4.772 -0.3033 -0.3205 -0.5694
   82MOL0     C10728   3.024   6.005   4.744 -0.2732  0.4625  0.2646
   82MOL0     C10729   2.964   5.880   4.680  0.6909  0.6819 -0.7231
   82MOL0     C10730   2.896   5.915   4.548  0.2232 -0.7892  0.8267
   82MOL0     C10731   2.872   5.779   4.483  0.0074  0.2512  0.3708
   82MOL0     C10732   2.800   5.811   4.352 -0.0751 -0.0204  0.0302
   82MOL0     C10733   2.894   5.808   4.232 -0.7880 -0.2082  0.9845
   82MOL0     C10734   2.862   5.925   4.130  1.2686 -0.3343 -0.5888
   82MOL0     C10735   2.878   6.070   4.189 -0.2054 -0.3690 -0.1763
   82MOL0    Cl10736   3.047   6.110   4.167  0.0802 -0.0439 -0.4569
   82MOL0     C10737   3.034   6.287   4.860  1.1020 -0.4325  0.3865
   82MOL0     C10738   3.036   6.433   4.885 -0.0440  0.8981  0.0269
   82MOL0     O10739   2.860   6.712   4.672  0.1577 -0.2638  0.9830
   82MOL0     C10740   2.959   6.912   4.940  0.2528 -0.9194  0.4549
   82MOL0     C10741   2.992   7.051   4.962  0.5278  0.0775 -0.2895
   82MOL0     N10742   3.145   7.750   5.313 -0.2373  0.0154  0.4411
   82MOL0     N10743   3.235   7.778   5.393  0.6089 -0.2442  0.5192
   82MOL0     C10744   3.511   8.724   6.122 -0.0558  0.0883 -0.4497
   82MOL0     C10745   3.505   8.849   6.176 -0.1889 -1.5903  0.6964
   82MOL0     C10746   3.352   9.219   6.359 -0.2121 -0.9180 -0.4012
   82MOL0     C10747   3.380   9.334   6.283  0.0853  0.0393 -0.1841
   82MOL0     C10748   3.365   9.462   6.330  0.4158  0.0516  0.7444
   82MOL0     C10749   3.322   9.484   6.458 -0.0667  0.3136 -1.0587
   82MOL0     O10750   3.316   9.613   6.507  0.0267  0.6422  0.0889
   82MOL0     C10751   3.248   9.637   6.634  0.0063  0.7187  0.0141
   82MOL0     C10752   3.218   9.789   6.650 -0.2659  0.1734 -0.6361
   82MOL0     C10753   3.347   9.875   6.628 -0.0601 -1.0533 -0.2621
   82MOL0     C10754   3.347  10.017   6.657  1.6388 -0.3799  0.5070
   82MOL0     C10755   3.474  10.075   6.629  0.3778  1.5972  0.4256
   82MOL0     C10756   3.581  10.106   6.610  0.2420  1.5040  0.4308
   82MOL0     C10757   3.292   9.372   6.544 -1.1616 -0.1197  0.2664
   82MOL0     C10758   3.305   9.247   6.491  0.3646  0.8396 -0.9766
   82MOL0     H10759   3.224   8.945   6.018 -0.0053 -1.2037 -3.2466
   82MOL0     H10760   3.263   8.719   5.901 -0.5536 -0.4864 -0.3053
   82MOL0     H10761   3.417   8.589   5.774  1.5273  0.0044  0.3159
   82MOL0     H10762   3.275   8.512   5.856  1.0667 -1.0923 -1.5034
   82MOL0     H10763   3.444   8.313   5.882 -3.6217 -0.4728  0.5086
   82MOL0     H10764   3.523   8.386   5.737  0.8330 -1.1752  0.0711
   82MOL0     H10765   3.327   8.356   5.603  1.0674  2.1392  0.3757
   82MOL0     H10766   3.237   8.311   5.742 -0.0608  2.2269  0.0727
   82MOL0     H10767   3.487   8.174   5.631 -0.6861 -0.4388 -2.1750
   82MOL0     H10768   3.423   8.115   5.769  0.5189 -1.1169 -1.9265
   82MOL0     H10769   3.192   8.077   5.644 -0.2211 -0.2687 -0.5238
   82MOL0     H10770   3.323   7.966   5.637  4.3854  0.9723  1.2680
   82MOL0     H10771   3.277   8.192   5.438  0.6891 -0.3240  0.4915
   82MOL0     H10772   3.191   8.036   5.427 -1.4180 -0.0714  1.9498
   82MOL0     H10773   3.392   8.077   5.269  1.8330 -0.3578 -0.8582
   82MOL0     H10774   3.492   8.120   5.404  0.6886  0.6378 -2.9646
   82MOL0     H10775   3.455   7.870   5.478 -3.7613  0.2960  2.4352
   82MOL0     H10776   3.530   7.883   5.322  0.7793 -2.0953  1.2326
   82MOL0     H10777   3.362   7.844   5.093  0.4460  3.9196  1.7831
   82MOL0     H10778   3.172   7.733   4.969 -2.2150  0.5389 -1.3851
   82MOL0     H10779   3.027   7.730   5.046  0.9872  0.7627 -1.4103
   82MOL0     H10780   3.194   7.498   5.120  0.8257  0.9129 -0.8617
   82MOL0     H10781   3.174   7.507   4.944 -1.0570 -1.7777 -0.0218
   82MOL0     H10782   2.933   7.505   5.118 -0.8494  6.3239 -2.3908
   82MOL0     H10783   2.927   7.513   4.949 -0.9782  4.3420  1.8209
   82MOL0     H10784   2.938   7.269   5.100 -1.0601  1.2293  0.7165
   82MOL0     H10785   3.102   7.280   5.051 -0.3730  0.9493 -0.6405
   82MOL0     H10786   2.838   7.195   4.706  0.1438 -0.4859 -0.4545
   82MOL0     H10787   2.804   6.961   4.646 -2.9936  3.0597  1.0369
   82MOL0     H10788   2.734   6.499   4.740 -0.5750  0.0451 -0.6001
   82MOL0     H10789   2.735   6.254   4.712 -2.0516  4.4174 -0.2265
   82MOL0     H10790   3.072   5.974   4.837  0.2605  2.5217  0.7222
   82MOL0     H10791   3.101   6.040   4.675 -1.5176  1.2360 -0.7795
   82MOL0     H10792   2.889   5.825   4.738  0.2323  1.6498 -0.3685
   82MOL0     H10793   3.053   5.820   4.659  1.7039  2.3022 -1.2300
   82MOL0     H10794   2.976   5.966   4.494 -0.2718  2.9092  3.1969
   82MOL0     H10795   2.809   5.977   4.571  0.0020 -0.5660 -0.5459
   82MOL0     H10796   2.970   5.733   4.473  0.0137  0.1369  0.9420
   82MOL0     H10797   2.801   5.727   4.548 -1.9550  0.3325 -1.5574
   82MOL0     H10798   2.741   5.903   4.352  0.8171  0.6443 -2.5725
   82MOL0     H10799   2.734   5.724   4.346  2.0025 -2.1858  4.2500
   82MOL0     H10800   2.890   5.711   4.181  1.0352 -0.0483  0.4841
   82MOL0     H10801   2.997   5.819   4.265 -2.1171 -0.7307  6.0722
   82MOL0     H10802   2.915   5.906   4.036  2.0827 -1.8256  0.1462
   82MOL0     H10803   2.758   5.918   4.096  0.5175  0.0309  1.4970
   82MOL0     H10804   2.851   6.084   4.294  1.0516  2.5980 -0.1563
   82MOL0     H10805   2.823   6.140   4.125  0.4347 -0.6526 -1.0563
   82MOL0     H10806   3.113   6.225   4.902  1.8055  0.1724 -0.0172
   82MOL0     H10807   3.113   6.481   4.946 -1.2098  4.6796 -1.1940
   82MOL0     H10808   3.002   6.850   5.018  0.6719  0.4188  1.3245
   82MOL0     H10809   3.049   7.075   5.051 -2.1172 -3.2266  2.5322
   82MOL0     H10810   3.576   8.656   6.177  0.2851 -2.4981 -3.7328
   82MOL0     H10811   3.572   8.890   6.251 -0.7542  1.2394 -0.1992
   82MOL0     H10812   3.426   9.328   6.185  1.1210  1.4350  0.1805
   82MOL0     H10813   3.393   9.554   6.280 -0.9710  0.7038  1.1177
   82MOL0     H10814   3.320   9.620   6.715 -0.4638 -0.9435  0.1271
   82MOL0     H10815   3.156   9.580   6.649  2.1800 -3.4035 -0.5557
   82MOL0     H10816   3.139   9.833   6.588  0.9683  3.7079  0.0606
   82MOL0     H10817   3.169   9.804   6.747 -2.4899  0.9182 -1.8109
   82MOL0     H10818   3.362   9.875   6.519 -0.9949  1.7297 -0.4619
   82MOL0     H10819   3.427   9.824   6.682  1.2769  0.5842 -0.5964
   82MOL0     H10820   3.277  10.063   6.587  1.3578 -3.3961 -1.3633
   82MOL0     H10821   3.324  10.031   6.763  1.2691  1.8503  0.1735
   82MOL0     H10822   3.683  10.131   6.587 -0.1506  1.7933 -1.0489
   82MOL0     H10823   3.269   9.389   6.649 -0.0510 -1.9153  0.8325
   82MOL0     H10824   3.286   9.162   6.556 -0.4151 -0.1103 -2.4150
   83MOL0     O10825   5.511   9.283   1.610  0.6798 -0.1873  0.0101
   83MOL0     C10826   5.463   9.172   1.635  0.5066 -1.2275 -0.1452
   83MOL0     O10827   5.399   9.130   1.748  0.2939 -0.2027 -0.1420
   83MOL0     C10828   5.338   9.217   1.836  0.2108 -0.6084  0.3092
   83MOL0     C10829   5.274   9.337   1.802 -0.2880  0.2919  1.1486
   83MOL0     C10830   5.203   9.418   1.890  0.4661 -0.1059  0.0508
   83MOL0     C10831   5.184   9.373   2.015  0.3134  0.8109 -0.5918
   83MOL0     O10832   5.092   9.445   2.089 -0.8588  0.6375 -0.0162
   83MOL0     C10833   5.007   9.391   2.190 -1.1126 -0.6855 -0.1862
   83MOL0     C10834   4.876   9.455   2.213  1.3295 -1.4921 -0.6953
   83MOL0     C10835   4.900   9.599   2.259 -0.6704 -0.7317  0.4096
   83MOL0     C10836   4.764   9.656   2.274 -0.4676  0.5927 -0.1202
   83MOL0     C10837   4.763   9.810   2.269 -0.1397 -0.1611  0.2252
   83MOL0     C10838   4.874   9.863   2.370  0.5220 -0.7408 -0.1178
   83MOL0     C10839   4.839   9.849   2.521 -0.2041 -0.2938  0.1463
   83MOL0     C10840   4.895   9.975   2.591 -0.7161  0.6278 -0.0552
   83MOL0     N10841   5.045   9.964   2.602  0.1935 -0.3236 -0.3385
   83MOL0     C10842   5.118   9.859   2.662 -1.1203 -0.4258  0.5359
   83MOL0     C10843   5.248   9.907   2.664 -0.2911  0.2606 -0.5537
   83MOL0     C10844   5.354   9.850   2.762  1.0297 -0.2757  0.2902
   83MOL0     C10845   5.476   9.949   2.776 -0.2771  0.8312  0.6253
   83MOL0     C10846   5.576   9.961   2.649  0.5471 -0.0791  0.0718
   83MOL0     C10847   5.691  10.045   2.696  0.9750 -0.3072 -0.5786
   83MOL0     O10848   5.791  10.038   2.589 -0.1830 -0.6818  0.5281
   83MOL0     C10849   5.803  10.138   2.495  0.5080  0.3440 -0.6636
   83MOL0     C10850   5.932  10.178   2.472 -0.1152 -0.6726 -0.7257
   83MOL0     C10851   5.957  10.283   2.384  0.1770 -0.1472 -0.0576
   83MOL0     C10852   5.852  10.359   2.333 -0.4942  0.0253 -0.2382
   83MOL0     C10853   5.896  10.476   2.245 -0.4485  0.1100 -0.3723
   83MOL0     O10854   6.012  10.468   2.172  0.3304 -1.3434  0.0472
   83MOL0     C10855   6.049  10.570   2.093  0.2583  0.5791  0.3209
   83MOL0     C10856   6.053  10.548   1.954  1.0259  0.5832 -0.7095
   83MOL0     C10857   6.091  10.651   1.868  0.3550 -0.3343  0.3697
   83MOL0     C10858   6.117  10.782   1.927  0.7172  1.3076 -0.7042
   83MOL0     O10859   6.126  10.899   1.838  0.1445  0.4184  0.4116
   83MOL0     C10860   6.192  10.884   1.717  0.2422 -0.6754  0.4634
   83MOL0     C10861   6.240  11.012   1.672 -0.4159 -0.2322  0.4649
   83MOL0     C10862   6.129  11.121   1.664  0.6551  0.7956 -0.1424
   83MOL0     C10863   6.183  11.253   1.602 -0.0015  0.8961 -0.2353
   83MOL0     C10864   6.119  11.381   1.651 -0.6937  1.7159  0.8252
   83MOL0     C10865   6.149  11.395   1.802 -0.2659  0.0766 -0.5515
   83MOL0     C10866   6.087  11.519   1.870  0.6569  0.5501 -0.4951
   83MOL0     C10867   5.917  11.508   1.859 -1.2778  0.1787  0.1449
   83MOL0    Cl10868   5.860  11.615   1.990  0.3547 -0.0381  0.4006
   83MOL0     C10869   6.125  10.792   2.067  0.6855 -1.3737 -0.3866
   83MOL0     C10870   6.098  10.687   2.154  0.5304 -1.3558  0.0401
   83MOL0     O10871   5.825  10.574   2.245 -0.9101 -0.2142 -0.5488
   83MOL0     C10872   5.719  10.338   2.383  0.0033  0.1191  0.5876
   83MOL0     C10873   5.687  10.221   2.456 -0.3418  0.0979 -0.3346
   83MOL0     N10874   5.253  10.018   2.583 -0.1799 -0.1530  0.7165
   83MOL0     N10875   5.135  10.052   2.548  0.0358  0.4954 -0.9717
   83MOL0     C10876   5.245   9.256   2.058 -0.2763  1.0110  0.5321
   83MOL0     C10877   5.325   9.177   1.965  0.3742 -0.7203 -0.5507
   83MOL0     C10878   5.495   9.073   1.530 -0.3247  0.6624 -0.1573
   83MOL0     C10879   5.487   8.937   1.559 -0.0706 -0.0644 -0.6346
   83MOL0     C10880   5.545   8.843   1.474  0.3413 -0.4109  0.4088
   83MOL0     C10881   5.618   8.875   1.363 -0.5448 -0.4464  0.2650
   83MOL0     O10882   5.694   8.783   1.293 -0.2421  0.6954  1.1046
   83MOL0     C10883   5.746   8.819   1.163  0.2134  0.4333  0.8949
   83MOL0     C10884   5.789   8.707   1.065  0.6121  0.0387 -0.1775
   83MOL0     C10885   5.930   8.658   1.111  1.0958 -0.1524  0.2205
   83MOL0     C10886   5.985   8.571   1.002 -0.6176 -0.9751 -0.2366
   83MOL0     C10887   6.116   8.519   1.052 -0.0039  0.1330  0.3788
   83MOL0     C10888   6.227   8.486   1.087 -0.2496 -0.0603 -0.0507
   83MOL0     C10889   5.621   9.014   1.331 -0.1574 -0.1094 -0.3209
   83MOL0     C10890   5.552   9.108   1.413 -1.1882 -0.0541 -0.5257
   83MOL0     H10891   5.297   9.364   1.700 -1.1965  0.5411  1.0064
   83MOL0     H10892   5.157   9.514   1.872 -1.7458 -0.8073  1.5177
   83MOL0     H10893   5.066   9.399   2.282  1.3584 -0.2702 -1.7129
   83MOL0     H10894   4.996   9.284   2.168  0.7173 -1.1083  0.8125
   83MOL0     H10895   4.816   9.398   2.284 -3.5538 -0.1784 -3.3459
   83MOL0     H10896   4.812   9.469   2.125  0.2605  0.1521  0.2895
   83MOL0     H10897   4.950   9.670   2.192 -0.0647  1.0210  2.5663
   83MOL0     H10898   4.968   9.594   2.345 -0.8512 -2.2631  0.4889
   83MOL0     H10899   4.697   9.616   2.198  2.7268 -3.7821 -1.0303
   83MOL0     H10900   4.712   9.619   2.362 -0.7357  1.2339  0.0006
   83MOL0     H10901   4.664   9.841   2.303 -0.8876 -1.4001 -0.7244
   83MOL0     H10902   4.779   9.845   2.167  0.6620 -0.3183  0.2911
   83MOL0     H10903   4.890   9.969   2.348 -0.4039 -0.1014  2.0289
   83MOL0     H10904   4.969   9.812   2.350  1.6312  0.9149  0.7002
   83MOL0     H10905   4.732   9.827   2.531  0.2447 -1.6909  2.6742
   83MOL0     H10906   4.877   9.756   2.563  0.2065  1.0772  3.0602
   83MOL0     H10907   4.857   9.969   2.693 -0.0837 -3.4032  0.0941
   83MOL0     H10908   4.855  10.064   2.541 -1.0887 -0.9335 -2.6959
   83MOL0     H10909   5.079   9.766   2.702 -2.6510  0.4436  1.1430
   83MOL0     H10910   5.378   9.756   2.711 -3.8495 -1.3548 -0.5096
   83MOL0     H10911   5.296   9.851   2.855 -3.0093 -1.7344 -1.9762
   83MOL0     H10912   5.528   9.920   2.868 -4.5275 -4.6427  1.8272
   83MOL0     H10913   5.439  10.050   2.795 -0.7921  0.6129  0.7909
   83MOL0     H10914   5.604   9.857   2.626  1.9889  0.7805 -2.3568
   83MOL0     H10915   5.531   9.995   2.556 -0.5499  0.4307  0.7677
   83MOL0     H10916   5.736   9.994   2.782 -0.3736 -1.2245 -0.3848
   83MOL0     H10917   5.647  10.143   2.713 -2.5478 -1.8031 -0.0761
   83MOL0     H10918   6.012  10.122   2.519  1.2452  0.8318 -1.1604
   83MOL0     H10919   6.057  10.297   2.345  0.9521 -1.6806  1.2609
   83MOL0     H10920   6.028  10.452   1.911  0.3642  1.0279 -1.3410
   83MOL0     H10921   6.090  10.639   1.760  2.1818  0.6935  0.2022
   83MOL0     H10922   6.123  10.844   1.643 -0.2006  2.9532 -1.3046
   83MOL0     H10923   6.279  10.817   1.718  1.9488  1.4575  1.1463
   83MOL0     H10924   6.299  10.992   1.581  0.5077 -1.2244  1.2520
   83MOL0     H10925   6.305  11.037   1.756 -4.6752  2.3509  3.3107
   83MOL0     H10926   6.091  11.120   1.766  3.0115 -0.4386  0.8063
   83MOL0     H10927   6.044  11.091   1.602  1.3319 -0.5421 -0.4515
   83MOL0     H10928   6.291  11.249   1.617 -0.3274  3.4312  5.3189
   83MOL0     H10929   6.150  11.251   1.497 -3.4924 -0.2812  0.7260
   83MOL0     H10930   6.012  11.392   1.635 -0.9335  1.1796  1.9563
   83MOL0     H10931   6.165  11.462   1.594 -0.1284  2.2183  1.9660
   83MOL0     H10932   6.256  11.392   1.820 -0.7476  0.7751  3.2892
   83MOL0     H10933   6.106  11.304   1.844 -0.6248  0.9189  0.9523
   83MOL0     H10934   6.113  11.506   1.975  2.0127 -1.3235 -1.0122
   83MOL0     H10935   6.115  11.618   1.833 -0.0709  1.3215  0.9534
   83MOL0     H10936   5.886  11.406   1.885  0.9177 -0.9004 -1.1845
   83MOL0     H10937   5.873  11.534   1.763  1.1959  0.6657 -0.9320
   83MOL0     H10938   6.115  10.894   2.103 -1.8042 -0.9343 -2.0245
   83MOL0     H10939   6.101  10.710   2.260 -2.3501  1.5831 -0.3608
   83MOL0     H10940   5.642  10.404   2.346  1.0282  0.0894 -1.7724
   83MOL0     H10941   5.583  10.204   2.480 -0.8097 -2.1316 -3.3702
   83MOL0     H10942   5.232   9.230   2.163 -2.1176 -0.1003  0.0594
   83MOL0     H10943   5.375   9.087   1.999 -1.0330 -1.9867 -1.6997
   83MOL0     H10944   5.445   8.910   1.655  0.1672  3.9532  0.8229
   83MOL0     H10945   5.550   8.740   1.506  0.2809  0.1536  2.4283
   83MOL0     H10946   5.826   8.893   1.176  0.7011  0.2890 -1.0044
   83MOL0     H10947   5.678   8.881   1.104  2.5869  2.2307 -0.1333
   83MOL0     H10948   5.721   8.622   1.071  2.1531 -1.1875  0.9391
   83MOL0     H10949   5.790   8.751   0.965  0.4006  0.6682  0.0892
   83MOL0     H10950   5.933   8.595   1.201  1.1609 -0.0885  0.2634
   83MOL0     H10951   6.001   8.741   1.123 -2.3809  3.3981 -1.4141
   83MOL0     H10952   5.923   8.485   0.974  0.2476 -1.5699 -0.4088
   83MOL0     H10953   5.977   8.620   0.904 -1.3168  0.1601  0.3780
   83MOL0     H10954   6.330   8.481   1.119 -0.7129 -2.1670  1.2825
   83MOL0     H10955   5.660   9.050   1.236 -3.4199  0.1381 -1.7341
   83MOL0     H10956   5.557   9.215   1.398 -1.7690  0.5774  2.9165
   84MOL0     O10957   2.700   8.363   0.522 -0.7200  0.1975 -0.5878
   84MOL0     C10958   2.645   8.294   0.445  0.3725  0.6199 -0.0848
   84MOL0     O10959   2.668   8.170   0.417 -0.3653  0.2974  0.5798
   84MOL0     C10960   2.774   8.103   0.473 -0.2618  0.2559  0.3988
   84MOL0     C10961   2.894   8.151   0.545  0.1321 -0.4664  0.8402
   84MOL0     C10962   2.972   8.071   0.625 -0.2267  0.2011 -0.0996
   84MOL0     C10963   2.939   7.934   0.635  1.7735 -0.5132 -0.3521
   84MOL0     O10964   3.028   7.857   0.708 -0.8844 -0.3323 -0.3005
   84MOL0     C10965   2.994   7.725   0.752  0.7812  0.2354 -0.8069
   84MOL0     C10966   3.107   7.669   0.832 -0.1599  0.1329  0.8091
   84MOL0     C10967   3.067   7.544   0.899  0.2561 -0.1058 -0.1074
   84MOL0     C10968   3.157   7.479   1.000  0.3894 -0.1996  0.8239
   84MOL0     C10969   3.176   7.329   0.984 -0.3870 -0.0750  0.3531
   84MOL0     C10970   3.267   7.285   0.871  0.1889  0.3439 -0.4512
   84MOL0     C10971   3.253   7.130   0.845 -0.4993  0.2545 -0.9383
   84MOL0     C10972   3.340   7.058   0.743 -0.3139 -0.3884  0.1043
   84MOL0     N10973   3.485   7.110   0.750 -0.9342  0.3291 -0.1253
   84MOL0     C10974   3.563   7.113   0.870  0.6820 -0.1013  0.0547
   84MOL0     C10975   3.682   7.173   0.837  0.8651 -0.8185 -0.6198
   84MOL0     C10976   3.807   7.200   0.919 -0.3926  0.2583 -0.5465
   84MOL0     C10977   3.825   7.348   0.941  0.2633 -0.0934  0.4509
   84MOL0     C10978   3.723   7.413   1.024  0.5675  0.3978  0.1298
   84MOL0     C10979   3.757   7.560   1.078  0.1893 -0.8589 -0.4829
   84MOL0     O10980   3.862   7.554   1.184  1.1272 -0.0730 -0.0180
   84MOL0     C10981   3.951   7.662   1.174 -0.8634 -0.0547  0.7753
   84MOL0     C10982   4.089   7.641   1.204 -0.5158 -0.2645 -0.4176
   84MOL0     C10983   4.192   7.737   1.165  0.8379  0.8033 -0.4952
   84MOL0     C10984   4.158   7.862   1.104  0.6003 -0.5357 -0.8281
   84MOL0     C10985   4.266   7.966   1.083 -0.0087  0.6041  0.9926
   84MOL0     O10986   4.391   7.927   1.133 -0.4247 -0.0026 -0.2697
   84MOL0     C10987   4.473   8.038   1.165 -0.2305  0.4993  0.1516
   84MOL0     C10988   4.483   8.078   1.298 -0.3403  0.3297  0.3870
   84MOL0     C10989   4.572   8.171   1.340 -0.3852  0.5830  0.3107
   84MOL0     C10990   4.640   8.242   1.245 -0.7511  0.4269 -0.8494
   84MOL0     O10991   4.732   8.325   1.300  0.5764  0.4687 -0.6159
   84MOL0     C10992   4.724   8.471   1.287 -0.0253 -0.7558  0.6134
   84MOL0     C10993   4.799   8.518   1.161  1.0759  0.3951 -0.3262
   84MOL0     C10994   4.941   8.495   1.172  0.3666  0.8496  0.3431
   84MOL0     C10995   5.014   8.519   1.038  0.2361 -0.3097  0.4499
   84MOL0     C10996   5.158   8.482   1.058 -0.1411  0.5118 -0.5294
   84MOL0     C10997   5.233   8.570   1.147 -0.3888  0.5504  0.1846
   84MOL0     C10998   5.239   8.709   1.089  0.3940  0.8560  0.3566
   84MOL0     C10999   5.358   8.794   1.130 -0.9458  0.2439  0.8340
   84MOL0    Cl11000   5.397   8.936   1.036 -0.5276  0.0200 -0.0796
   84MOL0     C11001   4.621   8.223   1.111 -0.6593  0.9071 -0.1531
   84MOL0     C11002   4.546   8.118   1.065 -0.0550  1.7016 -1.0447
   84MOL0     O11003   4.238   8.071   1.029  0.4119 -0.3644  0.3623
   84MOL0     C11004   4.017   7.891   1.092  0.0485  0.1781  0.5526
   84MOL0     C11005   3.916   7.795   1.121  0.0703 -1.0135 -0.4372
   84MOL0     N11006   3.668   7.198   0.694  0.3501  0.1247 -0.1975
   84MOL0     N11007   3.552   7.170   0.653 -0.8509  0.1337  0.8231
   84MOL0     C11008   2.831   7.884   0.561  0.0190  0.2785  0.2360
   84MOL0     C11009   2.750   7.967   0.493  0.7186 -0.3445  0.6611
   84MOL0     C11010   2.546   8.349   0.356  0.0307  0.1260 -0.1947
   84MOL0     C11011   2.509   8.488   0.369  0.2416  0.6234 -0.9009
   84MOL0     C11012   2.424   8.554   0.284 -0.5950  0.8524 -0.0651
   84MOL0     C11013   2.347   8.471   0.204 -0.3538 -0.7650  0.5041
   84MOL0     O11014   2.252   8.518   0.117  0.4918  0.0483  0.3552
   84MOL0     C11015   2.179   8.629   0.161  0.4119 -0.1703  0.8919
   84MOL0     C11016   2.024   8.618   0.150  0.3608 -0.7424 -0.1007
   84MOL0     C11017   1.978   8.650  -0.002 -0.4030 -0.2256 -0.8555
   84MOL0     C11018   1.893   8.546  -0.061 -0.8328  0.2074  0.0057
   84MOL0     C11019   1.991   8.449  -0.102  0.6932  0.2972 -0.0589
   84MOL0     C11020   2.062   8.368  -0.149  0.0476 -0.2649  0.2544
   84MOL0     C11021   2.390   8.339   0.176  0.7556 -0.8988  0.2497
   84MOL0     C11022   2.488   8.275   0.247  1.2300  0.1969 -0.2053
   84MOL0     H11023   2.919   8.256   0.535  0.2412 -0.7259 -2.6157
   84MOL0     H11024   3.059   8.109   0.677  1.1913 -2.7510 -0.1034
   84MOL0     H11025   2.979   7.659   0.665 -1.8386 -1.7381  0.9967
   84MOL0     H11026   2.903   7.743   0.808  1.3092  0.3708  0.0223
   84MOL0     H11027   3.129   7.742   0.911 -0.4267  1.7742 -0.5708
   84MOL0     H11028   3.195   7.647   0.771  1.8450 -1.5931  4.0683
   84MOL0     H11029   3.045   7.469   0.822 -2.1125 -0.3928  0.7534
   84MOL0     H11030   2.971   7.560   0.950 -0.3001 -1.0420 -0.8102
   84MOL0     H11031   3.255   7.528   0.990  0.0229  0.5837  1.0050
   84MOL0     H11032   3.131   7.492   1.105 -0.8811 -0.6841  0.5842
   84MOL0     H11033   3.080   7.278   0.984 -1.0455  1.0453  2.2149
   84MOL0     H11034   3.237   7.295   1.068  1.1422  0.3198 -0.5469
   84MOL0     H11035   3.371   7.316   0.886  0.5617 -1.4214  0.9748
   84MOL0     H11036   3.239   7.331   0.776  0.8603 -0.0126 -0.8294
   84MOL0     H11037   3.264   7.094   0.948  1.5249  1.0757 -0.8228
   84MOL0     H11038   3.151   7.095   0.826 -2.1359  4.0300 -0.0657
   84MOL0     H11039   3.293   7.083   0.648 -1.8896  0.4771  1.0659
   84MOL0     H11040   3.333   6.950   0.758 -2.6388 -0.1907  0.7889
   84MOL0     H11041   3.514   7.098   0.965 -1.2726  0.2291 -0.8607
   84MOL0     H11042   3.899   7.174   0.867 -0.5005  2.9023 -2.2300
   84MOL0     H11043   3.802   7.144   1.013  2.3574 -1.3340 -1.2359
   84MOL0     H11044   3.836   7.395   0.843 -0.1338  1.8415  1.2901
   84MOL0     H11045   3.925   7.358   0.985  1.3866 -2.5416 -1.3486
   84MOL0     H11046   3.630   7.403   0.968  1.0893 -1.4391 -0.4913
   84MOL0     H11047   3.697   7.353   1.112 -2.5199 -0.3093 -1.1396
   84MOL0     H11048   3.670   7.608   1.123  1.4010 -0.4908  1.5945
   84MOL0     H11049   3.796   7.615   0.992  1.0247  1.4327  1.2567
   84MOL0     H11050   4.122   7.544   1.241  0.3246  0.4746  0.8346
   84MOL0     H11051   4.290   7.702   1.195  0.0862 -1.3299 -0.3314
   84MOL0     H11052   4.420   8.020   1.364  2.0162 -1.5343  1.1472
   84MOL0     H11053   4.598   8.201   1.442  3.0775 -1.0622  0.0667
   84MOL0     H11054   4.769   8.514   1.377  0.3079 -0.1748  0.1747
   84MOL0     H11055   4.620   8.504   1.276  1.1932  2.6013 -3.9019
   84MOL0     H11056   4.785   8.625   1.144 -0.2657  0.7016  2.2048
   84MOL0     H11057   4.765   8.457   1.076  1.7265 -0.1128 -0.2312
   84MOL0     H11058   4.956   8.390   1.200 -0.7384  0.0304 -1.9345
   84MOL0     H11059   4.966   8.560   1.257  0.1213 -0.3948  1.4144
   84MOL0     H11060   4.972   8.442   0.972  0.8566 -1.1352  0.9925
   84MOL0     H11061   5.001   8.619   0.996 -1.1280 -0.0196  1.4895
   84MOL0     H11062   5.210   8.466   0.964 -0.6169 -3.2897 -0.2839
   84MOL0     H11063   5.165   8.387   1.111  1.2081  1.0691  0.3430
   84MOL0     H11064   5.336   8.532   1.152 -0.1460  0.9336 -1.5648
   84MOL0     H11065   5.188   8.560   1.246 -0.1032 -0.6250  0.2119
   84MOL0     H11066   5.240   8.704   0.979 -0.1302  0.6224  0.3634
   84MOL0     H11067   5.159   8.778   1.115  0.1571  0.9272 -0.5045
   84MOL0     H11068   5.441   8.724   1.116  0.0706  1.7073 -0.8723
   84MOL0     H11069   5.344   8.838   1.229  1.4001  3.1421  0.0327
   84MOL0     H11070   4.678   8.278   1.037  0.4926  0.9029  0.7136
   84MOL0     H11071   4.521   8.097   0.962 -2.5648  0.6656 -0.2978
   84MOL0     H11072   3.984   7.985   1.050 -0.8267  1.2068  3.3666
   84MOL0     H11073   3.811   7.818   1.102 -0.2599 -1.2745  0.9625
   84MOL0     H11074   2.810   7.778   0.574  0.5904  0.4384  3.0179
   84MOL0     H11075   2.654   7.941   0.450  0.3259  2.5271 -0.4464
   84MOL0     H11076   2.572   8.548   0.434 -0.3059 -1.6178  1.8462
   84MOL0     H11077   2.409   8.661   0.294  1.6515  1.1773  0.4784
   84MOL0     H11078   2.214   8.713   0.101  1.0035 -2.1482 -1.7124
   84MOL0     H11079   2.200   8.656   0.265  2.1325  3.6159 -0.2684
   84MOL0     H11080   1.990   8.526   0.198  3.4608  0.3664  5.0919
   84MOL0     H11081   1.981   8.695   0.214  0.9025 -0.8728  0.4349
   84MOL0     H11082   2.066   8.668  -0.065 -0.8588  3.9454 -0.5363
   84MOL0     H11083   1.925   8.745  -0.009  0.7314  0.4851 -0.1031
   84MOL0     H11084   1.817   8.497   0.001 -1.1055  0.4814 -0.1092
   84MOL0     H11085   1.837   8.582  -0.147 -0.8132 -0.8738 -0.4841
   84MOL0     H11086   2.116   8.292  -0.201  3.0838  2.0463 -0.2911
   84MOL0     H11087   2.332   8.297   0.094  0.4827  3.0387 -1.8619
   84MOL0     H11088   2.489   8.167   0.239 -3.1302 -0.0313 -0.2239
   85MOL0     O11089   0.775   7.238   3.635  0.4964  0.9278 -0.1005
   85MOL0     C11090   0.872   7.298   3.599 -0.1515 -0.9035 -0.3875
   85MOL0     O11091   0.986   7.248   3.536 -0.5454 -0.9704 -0.5442
   85MOL0     C11092   0.999   7.121   3.499  0.4273  1.3107  1.0751
   85MOL0     C11093   0.951   7.004   3.568 -0.1021 -0.1995  0.5806
   85MOL0     C11094   0.961   6.879   3.512  0.6612 -0.2169 -0.1387
   85MOL0     C11095   1.028   6.867   3.383 -0.8009  1.0570  1.0298
   85MOL0     O11096   1.045   6.743   3.334  0.2790 -0.0350  0.9727
   85MOL0     C11097   1.161   6.682   3.404 -0.0535 -0.3954 -0.0137
   85MOL0     C11098   1.170   6.537   3.356  0.8093 -0.2525  1.1125
   85MOL0     C11099   1.274   6.461   3.428  0.0424  0.0841  0.0873
   85MOL0     C11100   1.281   6.317   3.385  0.3916  1.5095  0.0630
   85MOL0     C11101   1.393   6.236   3.456 -0.5845 -0.7427  0.2954
   85MOL0     C11102   1.399   6.239   3.612  0.9536  0.2364  0.6350
   85MOL0     C11103   1.484   6.126   3.669 -0.1349 -0.3345 -0.2558
   85MOL0     C11104   1.490   6.105   3.830 -0.3097  0.5534 -0.2799
   85MOL0     N11105   1.518   6.230   3.902  0.0095 -0.3063  0.0381
   85MOL0     C11106   1.435   6.332   3.929  0.6502 -0.2338 -0.1646
   85MOL0     C11107   1.499   6.428   3.985 -1.0625  0.3845  0.3396
   85MOL0     C11108   1.458   6.567   4.027  0.0471  0.2374  0.3955
   85MOL0     C11109   1.389   6.655   3.918  0.3248 -0.2235 -0.2970
   85MOL0     C11110   1.461   6.681   3.790 -0.4412  0.2838 -0.3504
   85MOL0     C11111   1.401   6.803   3.715 -0.6307 -1.0123  0.5117
   85MOL0     O11112   1.508   6.848   3.628  0.5522 -0.0758  0.3415
   85MOL0     C11113   1.498   6.970   3.571  0.1267 -0.7257  0.4587
   85MOL0     C11114   1.380   7.057   3.585 -0.1705 -0.4570  0.4281
   85MOL0     C11115   1.386   7.176   3.518  0.1702 -0.0680 -0.0269
   85MOL0     C11116   1.496   7.211   3.430 -0.7061 -1.0360  0.1455
   85MOL0     C11117   1.491   7.336   3.346  0.1376 -0.1797 -1.4409
   85MOL0     O11118   1.374   7.415   3.352  0.5455 -1.0443 -0.0546
   85MOL0     C11119   1.378   7.550   3.341 -0.3770 -0.0335  0.3231
   85MOL0     C11120   1.502   7.628   3.346 -0.0601  0.2416 -0.3320
   85MOL0     C11121   1.488   7.768   3.348 -0.5498  0.2505 -0.4586
   85MOL0     C11122   1.363   7.833   3.362 -0.3126  0.5255  0.1613
   85MOL0     O11123   1.370   7.970   3.381  0.3410 -0.2258  0.5020
   85MOL0     C11124   1.250   8.045   3.393 -0.5407 -0.8416 -0.0254
   85MOL0     C11125   1.288   8.190   3.432  0.3656  0.0055  0.9634
   85MOL0     C11126   1.166   8.281   3.434 -0.5465 -0.3598  1.1357
   85MOL0     C11127   1.177   8.433   3.462 -0.2716  0.3981 -0.1119
   85MOL0     C11128   1.040   8.495   3.459 -0.7347 -0.3788 -0.0677
   85MOL0     C11129   1.051   8.646   3.464  0.0230  1.8470 -0.0460
   85MOL0     C11130   0.923   8.721   3.470 -0.1052 -0.9816 -0.5406
   85MOL0     C11131   0.970   8.865   3.500 -0.1678  0.2479 -0.4596
   85MOL0    Cl11132   0.849   8.984   3.481 -0.3029  0.8339  0.4057
   85MOL0     C11133   1.246   7.762   3.342 -0.5632 -0.0629 -0.5232
   85MOL0     C11134   1.255   7.620   3.331  0.6448 -0.7709 -0.6348
   85MOL0     O11135   1.592   7.366   3.282 -0.3586  0.0693 -0.0477
   85MOL0     C11136   1.604   7.123   3.428 -0.6353 -0.4575 -0.1550
   85MOL0     C11137   1.602   6.996   3.487 -0.5026 -1.2431 -0.4389
   85MOL0     N11138   1.632   6.387   4.008  0.5375 -0.3921 -0.7075
   85MOL0     N11139   1.639   6.267   3.963  0.5749 -0.0663  0.0431
   85MOL0     C11140   1.074   6.982   3.321  0.0470 -0.1812  0.6967
   85MOL0     C11141   1.059   7.109   3.375  0.3599 -0.1252  0.3017
   85MOL0     C11142   0.863   7.444   3.591  0.5038  0.0430  0.4763
   85MOL0     C11143   0.985   7.513   3.612  0.5399 -0.3653 -0.1309
   85MOL0     C11144   0.977   7.658   3.607 -0.1170  0.1294  0.8386
   85MOL0     C11145   0.850   7.725   3.608  0.3916  0.1901  0.6806
   85MOL0     O11146   0.840   7.865   3.622  0.2906  0.3263 -0.0336
   85MOL0     C11147   0.950   7.949   3.642 -0.8561 -0.0222  0.4509
   85MOL0     C11148   0.906   8.096   3.665 -0.4349 -0.7991 -0.6860
   85MOL0     C11149   0.817   8.109   3.784 -1.0236 -0.7707 -0.2207
   85MOL0     C11150   0.667   8.126   3.756  0.6347 -0.9936 -0.2606
   85MOL0     C11151   0.614   8.234   3.823 -0.7449 -0.2743  0.6558
   85MOL0     C11152   0.585   8.329   3.892  1.2399  0.4149  0.3419
   85MOL0     C11153   0.736   7.642   3.589 -0.3525 -1.0650  0.6530
   85MOL0     C11154   0.748   7.506   3.584  0.0728 -0.1783  0.4215
   85MOL0     H11155   0.896   7.027   3.658 -0.1590  1.9208  0.0674
   85MOL0     H11156   0.930   6.786   3.557 -1.5669  0.6002  0.1380
   85MOL0     H11157   1.149   6.682   3.512 -0.9785  0.8997 -0.0992
   85MOL0     H11158   1.244   6.746   3.373  0.7578 -1.8599 -1.0017
   85MOL0     H11159   1.189   6.547   3.249 -1.3725 -1.2902  0.5887
   85MOL0     H11160   1.072   6.490   3.370  0.2294  1.2012  2.1565
   85MOL0     H11161   1.254   6.453   3.535  2.1011 -1.6789  0.4326
   85MOL0     H11162   1.365   6.521   3.419 -1.0510  1.9798  0.9948
   85MOL0     H11163   1.183   6.273   3.405  1.7586 -2.5824 -1.0813
   85MOL0     H11164   1.294   6.301   3.278 -3.3893  0.4113 -0.3828
   85MOL0     H11165   1.492   6.262   3.418 -1.1109  2.3642  0.7730
   85MOL0     H11166   1.372   6.136   3.416  2.2559 -0.0119 -3.5359
   85MOL0     H11167   1.296   6.234   3.650  1.3586 -2.3860  1.5864
   85MOL0     H11168   1.447   6.329   3.651  1.5091 -0.9201  2.8056
   85MOL0     H11169   1.454   6.026   3.637  3.4209 -1.6765  0.0883
   85MOL0     H11170   1.589   6.136   3.640 -0.1052  1.3590  0.3376
   85MOL0     H11171   1.577   6.040   3.843 -0.2507  0.1396 -2.3433
   85MOL0     H11172   1.398   6.059   3.865  0.7475 -0.0670  1.8320
   85MOL0     H11173   1.333   6.335   3.893 -0.6365 -0.9201  3.1245
   85MOL0     H11174   1.550   6.621   4.050  0.6240 -0.6682  0.2497
   85MOL0     H11175   1.395   6.549   4.114  0.2855 -0.8511  0.3479
   85MOL0     H11176   1.373   6.749   3.973 -0.7756  1.3689 -3.1394
   85MOL0     H11177   1.291   6.610   3.903 -0.0990 -0.4300  2.4720
   85MOL0     H11178   1.566   6.693   3.816 -0.5254  0.3821 -0.0587
   85MOL0     H11179   1.458   6.593   3.725  0.6053 -1.7326  2.1705
   85MOL0     H11180   1.378   6.886   3.782  4.5002  0.3401  0.9835
   85MOL0     H11181   1.307   6.772   3.668 -0.7080 -2.6683  1.6952
   85MOL0     H11182   1.299   7.024   3.649  0.1139 -1.4193  0.3134
   85MOL0     H11183   1.305   7.247   3.528  0.8085  0.4830  1.5258
   85MOL0     H11184   1.601   7.584   3.352 -0.0862  0.2135 -0.1126
   85MOL0     H11185   1.574   7.834   3.355 -0.5612  0.2434 -0.2514
   85MOL0     H11186   1.204   8.008   3.485  0.0171  1.2338  1.1477
   85MOL0     H11187   1.185   8.043   3.305  1.3551  0.3202 -1.5526
   85MOL0     H11188   1.360   8.230   3.360 -0.2531 -1.0662 -0.2752
   85MOL0     H11189   1.321   8.199   3.536 -1.3782  0.8032  1.4919
   85MOL0     H11190   1.093   8.227   3.494 -1.6044 -0.2730 -0.0172
   85MOL0     H11191   1.123   8.271   3.334  0.5822 -1.2073  0.7107
   85MOL0     H11192   1.224   8.453   3.559  3.3616 -0.0581 -1.6119
   85MOL0     H11193   1.253   8.478   3.398 -0.0449  1.5027  0.9076
   85MOL0     H11194   0.984   8.472   3.550 -2.5807  3.2856 -0.1007
   85MOL0     H11195   0.995   8.464   3.365 -0.5246 -2.5157  0.4887
   85MOL0     H11196   1.093   8.683   3.370  0.4448 -1.6784 -1.4059
   85MOL0     H11197   1.121   8.676   3.543  2.8598  0.4218 -1.8414
   85MOL0     H11198   0.874   8.713   3.372 -3.1686  0.9073  0.7241
   85MOL0     H11199   0.858   8.683   3.549  2.0123 -2.8094  0.4293
   85MOL0     H11200   1.058   8.891   3.440  0.6186  1.6331  1.2144
   85MOL0     H11201   1.004   8.869   3.604 -3.1708  3.2430  0.5764
   85MOL0     H11202   1.144   7.800   3.334  0.0064  1.8592  0.6208
   85MOL0     H11203   1.163   7.568   3.308  0.8287  0.0239 -3.5425
   85MOL0     H11204   1.692   7.138   3.365  0.3745  0.7546  1.4786
   85MOL0     H11205   1.690   6.933   3.488 -0.0528 -0.6230 -0.5697
   85MOL0     H11206   1.129   6.972   3.228 -2.7140 -0.0613 -1.0801
   85MOL0     H11207   1.112   7.192   3.328  3.5400  0.8075  4.8274
   85MOL0     H11208   1.081   7.465   3.622  0.6850 -0.0265  0.1110
   85MOL0     H11209   1.072   7.711   3.608 -0.6819  1.1728  0.6397
   85MOL0     H11210   1.011   7.943   3.552 -5.1140  1.5858 -2.8725
   85MOL0     H11211   1.007   7.914   3.729 -3.3892  1.7183  2.9878
   85MOL0     H11212   0.993   8.161   3.672  0.7821 -2.3708 -0.6103
   85MOL0     H11213   0.856   8.128   3.573  3.0799 -0.1428 -2.5525
   85MOL0     H11214   0.855   8.203   3.826 -1.2511 -0.3955 -0.8455
   85MOL0     H11215   0.824   8.033   3.862 -1.0869 -0.7563 -0.2026
   85MOL0     H11216   0.646   8.155   3.653 -1.7011  2.2354  0.9609
   85MOL0     H11217   0.624   8.029   3.778  1.2574 -1.6721 -1.8324
   85MOL0     H11218   0.547   8.422   3.928 -1.1612  0.2425 -1.5140
   85MOL0     H11219   0.642   7.696   3.578  1.6545  2.5228 -0.8506
   85MOL0     H11220   0.658   7.447   3.578  0.5729 -0.9542  0.4950
   86MOL0     O11221   7.812   9.390   6.129  0.2136  0.2560 -1.3300
   86MOL0     C11222   7.881   9.487   6.112 -0.5812  0.3095  0.4750
   86MOL0     O11223   7.863   9.615   6.160  0.2818 -0.2121  0.0458
   86MOL0     C11224   7.748   9.653   6.230 -0.1376 -0.1836 -0.1908
   86MOL0     C11225   7.617   9.611   6.198 -0.8368 -0.0214 -0.7486
   86MOL0     C11226   7.511   9.661   6.274 -0.7934 -0.4137  0.2126
   86MOL0     C11227   7.528   9.763   6.365 -0.1491  0.1082  0.4623
   86MOL0     O11228   7.415   9.822   6.425  0.4198 -0.0715 -0.1194
   86MOL0     C11229   7.345   9.745   6.524 -0.5913 -0.0442 -0.2203
   86MOL0     C11230   7.291   9.840   6.626 -1.0723  0.5268  0.7121
   86MOL0     C11231   7.184   9.767   6.713 -0.5453  0.0534 -0.4742
   86MOL0     C11232   7.119   9.860   6.823  0.2901  0.5462  0.0063
   86MOL0     C11233   7.013   9.780   6.891 -0.0233 -0.2319  0.6614
   86MOL0     C11234   6.943   9.848   7.006  0.7742 -0.1719 -0.1828
   86MOL0     C11235   6.897   9.994   6.983 -1.2550  0.6613  0.5889
   86MOL0     C11236   6.821  10.067   7.086 -0.2659  0.2709 -0.4634
   86MOL0     N11237   6.697  10.002   7.138  0.3887  0.6964  0.1609
   86MOL0     C11238   6.602   9.957   7.056  0.6284  0.3364  0.6266
   86MOL0     C11239   6.525   9.889   7.135 -0.7562  0.2978 -0.6647
   86MOL0     C11240   6.407   9.801   7.091 -0.2277 -1.1791 -0.1662
   86MOL0     C11241   6.271   9.866   7.049 -0.3943  0.0761 -0.3686
   86MOL0     C11242   6.201   9.879   7.182 -0.5853 -0.1667 -0.7419
   86MOL0     C11243   6.081   9.952   7.168  0.2687 -0.1696  0.0267
   86MOL0     O11244   5.979   9.865   7.120  0.1727 -0.2105  0.2903
   86MOL0     C11245   5.901   9.908   7.016  0.2467  0.2456  0.7054
   86MOL0     C11246   5.826   9.804   6.959  0.4254  0.1808  0.5075
   86MOL0     C11247   5.723   9.846   6.873  0.0379 -0.3861  0.8760
   86MOL0     C11248   5.699   9.978   6.832  1.0085  0.1637 -0.4609
   86MOL0     C11249   5.594  10.014   6.738  0.1185  0.4990 -0.3279
   86MOL0     O11250   5.572   9.928   6.642 -0.1240 -0.4620 -0.4788
   86MOL0     C11251   5.477   9.945   6.553  0.1304  0.5372  0.3662
   86MOL0     C11252   5.349   9.899   6.586  0.5401 -0.1723  0.8218
   86MOL0     C11253   5.240   9.929   6.497  0.5936 -0.8954 -0.2395
   86MOL0     C11254   5.264   9.991   6.370  0.3107  0.5224 -0.4272
   86MOL0     O11255   5.168   9.992   6.270  0.2033  0.1998 -0.1368
   86MOL0     C11256   5.160  10.118   6.207  0.6532 -0.3949 -0.0919
   86MOL0     C11257   5.089  10.111   6.068 -0.7273 -0.4607 -0.0562
   86MOL0     C11258   4.940  10.058   6.065  0.2384 -0.3278 -1.2777
   86MOL0     C11259   4.870  10.086   5.931 -0.5478  0.4395 -0.0469
   86MOL0     C11260   4.934  10.012   5.808  0.2139 -0.5367  0.2402
   86MOL0     C11261   4.861  10.064   5.681 -0.4691 -0.6579  0.3584
   86MOL0     C11262   4.941  10.041   5.553 -0.3037  0.8641  0.6117
   86MOL0     C11263   5.039  10.159   5.518  0.1906  0.6963 -0.2518
   86MOL0    Cl11264   5.108  10.163   5.357 -0.0663 -0.8345 -0.4232
   86MOL0     C11265   5.404  10.029   6.344 -0.7218  0.9678  0.1422
   86MOL0     C11266   5.506  10.013   6.435  0.8476  0.6396 -0.2291
   86MOL0     O11267   5.544  10.126   6.756 -0.6110 -0.3939  0.6449
   86MOL0     C11268   5.781  10.076   6.886 -0.1393  0.5344 -0.4301
   86MOL0     C11269   5.873  10.047   6.987  0.0032  0.5648  0.3503
   86MOL0     N11270   6.578   9.885   7.260  0.3667 -0.0423 -0.0819
   86MOL0     N11271   6.684   9.960   7.267  0.4228  0.6227 -0.6324
   86MOL0     C11272   7.658   9.813   6.382  0.2276  1.2500 -0.1347
   86MOL0     C11273   7.764   9.754   6.314  0.8723 -0.9189 -0.1657
   86MOL0     C11274   7.998   9.468   6.031 -0.8826  0.3031  0.9645
   86MOL0     C11275   8.098   9.555   6.026 -0.3892  0.0312 -0.3210
   86MOL0     C11276   8.227   9.534   5.981 -1.2090  0.3012 -0.8649
   86MOL0     C11277   8.256   9.407   5.925  0.2867 -0.1251 -0.8601
   86MOL0     O11278   8.379   9.355   5.876  0.4732 -0.1620 -0.3220
   86MOL0     C11279   8.488   9.441   5.822 -0.0581 -0.3878 -0.1632
   86MOL0     C11280   8.476   9.458   5.675  0.3761  0.7466 -0.3662
   86MOL0     C11281   8.566   9.352   5.594 -0.0234  0.2528  0.6168
   86MOL0     C11282   8.575   9.386   5.442 -0.0868  0.9481 -0.8079
   86MOL0     C11283   8.666   9.294   5.369  0.7430 -0.3455 -0.5038
   86MOL0     C11284   8.735   9.230   5.289  0.2985 -0.3953  0.1738
   86MOL0     C11285   8.148   9.314   5.919 -0.3249 -0.9810  0.8852
   86MOL0     C11286   8.021   9.349   5.962  0.0851  0.0729  0.2232
   86MOL0     H11287   7.615   9.543   6.113 -1.3274 -0.7628 -0.1588
   86MOL0     H11288   7.405   9.648   6.255 -1.1435  0.1078  1.6595
   86MOL0     H11289   7.403   9.667   6.574 -0.6811 -0.9379 -1.4653
   86MOL0     H11290   7.261   9.692   6.478 -1.0663  0.0336  0.5454
   86MOL0     H11291   7.259   9.923   6.562  2.3062  1.9243  0.6826
   86MOL0     H11292   7.372   9.869   6.693  0.9918 -0.3705 -1.2460
   86MOL0     H11293   7.222   9.675   6.758 -0.6445 -1.9582 -4.1032
   86MOL0     H11294   7.098   9.743   6.649  0.3053 -1.7141 -0.9986
   86MOL0     H11295   7.190   9.894   6.899 -0.9996  0.0135  1.5091
   86MOL0     H11296   7.080   9.941   6.759  1.9791  1.7119  0.3723
   86MOL0     H11297   7.057   9.685   6.922  0.2528  0.0536  1.1497
   86MOL0     H11298   6.930   9.767   6.821  0.7701  1.0028 -0.5646
   86MOL0     H11299   7.000   9.837   7.099  0.9159 -2.0843 -0.4651
   86MOL0     H11300   6.859   9.782   7.031  1.7953 -1.0554  1.0309
   86MOL0     H11301   6.989  10.048   6.961 -0.7104  0.0743  1.3961
   86MOL0     H11302   6.847   9.992   6.886  4.0277  1.8795 -2.5746
   86MOL0     H11303   6.799  10.167   7.047  2.0351  0.0564 -2.5345
   86MOL0     H11304   6.891  10.083   7.169 -0.0494  1.4247 -0.8453
   86MOL0     H11305   6.610   9.948   6.948 -0.1181 -1.1738  0.6644
   86MOL0     H11306   6.393   9.735   7.177 -2.5675 -0.3750  0.1432
   86MOL0     H11307   6.433   9.725   7.017  2.3669 -0.4893 -0.0966
   86MOL0     H11308   6.216   9.816   6.969 -0.4494 -0.5044  0.0240
   86MOL0     H11309   6.298   9.964   7.011  2.8269 -0.6664 -0.2614
   86MOL0     H11310   6.182   9.780   7.223 -0.4457 -0.1794 -0.7063
   86MOL0     H11311   6.268   9.936   7.247  0.1557 -3.3274  1.4649
   86MOL0     H11312   6.109  10.030   7.097 -1.6893  1.3879  0.8694
   86MOL0     H11313   6.044  10.003   7.258 -1.5449 -0.6949 -0.3756
   86MOL0     H11314   5.830   9.698   6.985 -1.7340 -1.1278 -3.5930
   86MOL0     H11315   5.666   9.761   6.837 -1.7165  0.6001  1.2522
   86MOL0     H11316   5.323   9.841   6.673 -0.7190 -1.4821 -0.3722
   86MOL0     H11317   5.143   9.887   6.520 -0.3374  2.7318  3.7673
   86MOL0     H11318   5.255  10.168   6.183  1.4253 -1.0280  1.5268
   86MOL0     H11319   5.106  10.182   6.278 -0.7072 -0.9152 -0.6253
   86MOL0     H11320   5.157  10.047   6.011 -1.1407  0.7740 -2.0313
   86MOL0     H11321   5.107  10.203   6.012  1.8675 -2.0946 -2.1530
   86MOL0     H11322   4.891  10.116   6.144  3.1023  0.8195 -0.1979
   86MOL0     H11323   4.929   9.953   6.091  1.2250 -0.0890  0.2493
   86MOL0     H11324   4.769  10.047   5.948 -0.4602 -0.0443 -0.5707
   86MOL0     H11325   4.868  10.190   5.898 -0.1941 -0.0135 -1.6200
   86MOL0     H11326   4.918   9.904   5.819  0.6681 -0.5036  1.3848
   86MOL0     H11327   5.042  10.032   5.805  0.2572 -0.8452 -0.7821
   86MOL0     H11328   4.836  10.170   5.692 -0.3894 -0.5648 -0.3425
   86MOL0     H11329   4.768  10.006   5.686 -0.9842 -0.0512 -1.4751
   86MOL0     H11330   4.993   9.944   5.555  0.2755  1.1745  2.4555
   86MOL0     H11331   4.875  10.030   5.467  2.6528  3.4745 -2.2881
   86MOL0     H11332   5.122  10.163   5.590  0.4443  0.2498 -0.5097
   86MOL0     H11333   4.996  10.258   5.531  0.6947  0.6132  2.8063
   86MOL0     H11334   5.426  10.074   6.248 -1.9611 -0.9576 -1.1154
   86MOL0     H11335   5.601  10.056   6.403  0.4401  2.0348  0.3623
   86MOL0     H11336   5.758  10.176   6.849 -1.4214  1.2483  2.0394
   86MOL0     H11337   5.927  10.132   7.025  0.6182 -0.4596  1.8372
   86MOL0     H11338   7.673   9.903   6.441  0.9400  0.7146  0.5207
   86MOL0     H11339   7.867   9.773   6.341  0.6297 -2.3870  2.0929
   86MOL0     H11340   8.087   9.653   6.071 -0.0268 -0.8894  1.8887
   86MOL0     H11341   8.307   9.606   5.996 -1.9190  0.8548  0.4877
   86MOL0     H11342   8.579   9.384   5.841  1.3244  1.1894 -1.7186
   86MOL0     H11343   8.501   9.535   5.876 -1.0037 -0.1043 -0.4035
   86MOL0     H11344   8.371   9.456   5.644  0.1876  0.6893  0.2655
   86MOL0     H11345   8.514   9.558   5.651  1.8492  1.6699  4.6187
   86MOL0     H11346   8.534   9.248   5.603  1.8295 -0.4122  0.0219
   86MOL0     H11347   8.668   9.366   5.632 -0.6321  1.3562  1.9205
   86MOL0     H11348   8.477   9.375   5.394 -0.1752  1.5808 -0.7807
   86MOL0     H11349   8.620   9.484   5.420  3.0404 -0.8838 -3.5919
   86MOL0     H11350   8.796   9.165   5.229 -3.1772 -2.2034 -1.6567
   86MOL0     H11351   8.161   9.211   5.886 -1.8679  0.0886 -3.7241
   86MOL0     H11352   7.941   9.277   5.963 -0.3610  0.5041 -1.3509
   87MOL0     O11353   2.394  10.422  10.864 -0.0598 -0.3482  0.3728
   87MOL0     C11354   2.388  10.443  10.983  0.2588  0.1810 -0.6063
   87MOL0     O11355   2.436  10.557  11.042  0.1470  0.2734 -0.5955
   87MOL0     C11356   2.508  10.652  10.982  0.3888  0.0881  0.8855
   87MOL0     C11357   2.629  10.694  11.040  0.4290  0.2957  0.5418
   87MOL0     C11358   2.708  10.797  10.983  0.2502 -0.4867 -0.7907
   87MOL0     C11359   2.667  10.856  10.870  0.5365 -0.2773  0.3402
   87MOL0     O11360   2.755  10.943  10.810  0.1153 -0.3111  0.3201
   87MOL0     C11361   2.767  10.957  10.665  0.8829  0.8063  0.0923
   87MOL0     C11362   2.905  11.015  10.633  0.0018  1.1190 -0.3195
   87MOL0     C11363   2.910  11.068  10.487 -0.1943  0.1879  0.4602
   87MOL0     C11364   3.060  11.084  10.441  0.6071  0.9920 -0.3575
   87MOL0     C11365   3.089  11.092  10.294 -0.6190  0.5900 -0.1844
   87MOL0     C11366   3.235  11.067  10.266 -1.9252 -0.0880 -1.3570
   87MOL0     C11367   3.260  11.073  10.111 -0.3995 -0.7216  0.2995
   87MOL0     C11368   3.402  11.054  10.067 -0.4497  1.0345  0.7217
   87MOL0     N11369   3.429  11.112   9.934 -0.9348  0.4246 -0.3723
   87MOL0     C11370   3.363  11.096   9.821  0.3438  0.1599 -0.2799
   87MOL0     C11371   3.439  11.158   9.724  0.2553 -0.3212  0.5167
   87MOL0     C11372   3.426  11.204   9.587  0.2152 -0.2062 -0.3035
   87MOL0     C11373   3.336  11.114   9.504 -0.4510 -0.1098  0.1817
   87MOL0     C11374   3.359  11.133   9.357 -0.9549 -0.5595 -0.6421
   87MOL0     C11375   3.306  11.015   9.271 -1.1223 -0.3733  0.4983
   87MOL0     O11376   3.356  11.027   9.139 -0.0274  0.5366  0.4535
   87MOL0     C11377   3.269  10.983   9.041  0.5752 -0.3606 -0.1340
   87MOL0     C11378   3.293  11.030   8.909  0.2278  0.0210 -0.4440
   87MOL0     C11379   3.205  10.994   8.807 -0.4335 -0.5217 -0.3872
   87MOL0     C11380   3.093  10.914   8.828  1.2222 -0.4782  0.2576
   87MOL0     C11381   2.994  10.872   8.720 -1.0025 -0.3764 -0.5702
   87MOL0     O11382   2.979  10.949   8.619  0.1843 -0.1538 -0.1811
   87MOL0     C11383   2.917  10.912   8.504 -0.3436 -0.2773  0.5162
   87MOL0     C11384   2.958  10.805   8.421 -0.3082  1.6242 -0.4200
   87MOL0     C11385   2.899  10.762   8.300 -0.5848 -0.4095  0.6048
   87MOL0     C11386   2.793  10.846   8.249  0.0296  0.7200 -0.7605
   87MOL0     O11387   2.749  10.812   8.121  1.0043 -0.1721 -0.0865
   87MOL0     C11388   2.610  10.853   8.086 -0.3918  0.0992  0.1338
   87MOL0     C11389   2.561  10.732   8.004  0.3424  0.5030 -0.2782
   87MOL0     C11390   2.419  10.758   7.961  0.0521  0.3789  0.7037
   87MOL0     C11391   2.340  10.665   7.878 -0.1983  0.8191 -0.2613
   87MOL0     C11392   2.245  10.725   7.774 -0.3174  1.0102  0.5965
   87MOL0     C11393   2.334  10.780   7.664 -0.5040  0.0375  0.8611
   87MOL0     C11394   2.256  10.790   7.530  0.2202  0.1015 -0.4640
   87MOL0     C11395   2.327  10.868   7.415  0.2686 -0.3766  0.4149
   87MOL0    Cl11396   2.198  10.967   7.336  0.2125  0.0296 -0.0173
   87MOL0     C11397   2.745  10.956   8.334 -0.1304 -0.0492  1.0085
   87MOL0     C11398   2.807  10.982   8.451 -0.3380 -0.0957 -0.4758
   87MOL0     O11399   2.951  10.757   8.723 -0.3339  0.2384  0.8885
   87MOL0     C11400   3.079  10.862   8.956 -0.7105  0.5831  0.2860
   87MOL0     C11401   3.165  10.895   9.067  0.1844  0.5811  0.3372
   87MOL0     N11402   3.567  11.183   9.778  0.1093  0.0221  0.1000
   87MOL0     N11403   3.548  11.160   9.903  0.1141 -0.1217  0.8136
   87MOL0     C11404   2.551  10.808  10.816  0.2603 -0.2713  0.0015
   87MOL0     C11405   2.466  10.711  10.864  0.3026 -0.0407 -0.1686
   87MOL0     C11406   2.315  10.337  11.067 -1.0132 -1.3901 -0.6446
   87MOL0     C11407   2.299  10.358  11.211  0.5258  0.0347 -0.5202
   87MOL0     C11408   2.227  10.262  11.285  0.7694  0.4223 -0.1142
   87MOL0     C11409   2.171  10.138  11.222  0.1602 -0.1582 -0.7993
   87MOL0     O11410   2.112  10.040  11.303 -0.1411 -0.2065  0.0027
   87MOL0     C11411   2.035   9.937  11.259  0.1542  1.6128  0.5807
   87MOL0     C11412   2.023   9.825  11.363 -0.0854 -0.1033 -0.4089
   87MOL0     C11413   1.893   9.827  11.436  0.2189  0.2842 -0.0015
   87MOL0     C11414   1.884   9.699  11.520  0.7218 -0.0219  0.9205
   87MOL0     C11415   2.001   9.667  11.601  0.7446 -0.2729  0.2979
   87MOL0     C11416   2.097   9.650  11.663  0.2001  1.0793 -0.7676
   87MOL0     C11417   2.187  10.134  11.088  0.4735 -0.1685  0.3303
   87MOL0     C11418   2.262  10.222  11.007 -0.1022 -0.3820  0.2890
   87MOL0     H11419   2.650  10.664  11.142 -2.3944  2.0978  1.7866
   87MOL0     H11420   2.798  10.829  11.034  0.7615 -0.3067 -1.7829
   87MOL0     H11421   2.685  11.021  10.630  1.8943  0.1398 -3.9946
   87MOL0     H11422   2.764  10.857  10.620 -2.3111  1.1251 -0.6935
   87MOL0     H11423   2.977  10.932  10.635  1.0267  2.0011  0.4577
   87MOL0     H11424   2.930  11.084  10.714  3.6493  1.5109 -1.5877
   87MOL0     H11425   2.861  11.166  10.488  2.0948  1.4378  2.8423
   87MOL0     H11426   2.861  11.000  10.417 -4.0135  1.4366  1.6780
   87MOL0     H11427   3.120  11.161  10.491  2.1208 -0.3412 -0.0560
   87MOL0     H11428   3.122  11.002  10.478  0.5469  0.6146 -1.0747
   87MOL0     H11429   3.055  11.183  10.244  1.6621  1.0697 -0.9638
   87MOL0     H11430   3.034  11.004  10.259  0.3075 -0.5394  1.0775
   87MOL0     H11431   3.283  10.972  10.291  0.5877  1.3012 -0.5803
   87MOL0     H11432   3.289  11.140  10.326 -0.5999 -1.4760 -0.7852
   87MOL0     H11433   3.186  11.007  10.064 -2.1004  1.0386  0.3703
   87MOL0     H11434   3.244  11.177  10.082  3.9835  0.2746  0.7481
   87MOL0     H11435   3.415  10.946  10.064 -3.2650  0.6351 -0.0324
   87MOL0     H11436   3.468  11.092  10.146  2.0695  0.9527 -1.2333
   87MOL0     H11437   3.260  11.061   9.823 -0.5975  2.6583  1.6815
   87MOL0     H11438   3.526  11.214   9.544 -0.4376  1.5150 -1.5436
   87MOL0     H11439   3.389  11.307   9.589  0.3580 -0.1598 -0.0968
   87MOL0     H11440   3.230  11.130   9.529 -0.8636 -0.9870 -0.9008
   87MOL0     H11441   3.355  11.011   9.535  1.3470  0.2964  0.4914
   87MOL0     H11442   3.300  11.221   9.327 -0.9101  0.0766  1.0215
   87MOL0     H11443   3.465  11.146   9.337 -0.6186 -0.7710  0.8624
   87MOL0     H11444   3.200  11.037   9.285 -1.1077 -0.3507  0.5679
   87MOL0     H11445   3.344  10.918   9.304  4.4840  1.0181 -0.8622
   87MOL0     H11446   3.375  11.101   8.898  1.0906 -0.3193  2.8817
   87MOL0     H11447   3.232  11.021   8.706  0.1065  1.1207  0.1565
   87MOL0     H11448   3.037  10.734   8.443 -0.9640  1.4924  1.6578
   87MOL0     H11449   2.938  10.673   8.252  1.0015 -0.1739  1.4045
   87MOL0     H11450   2.612  10.945   8.027  2.2433 -0.4753 -0.8161
   87MOL0     H11451   2.553  10.870   8.177  0.3108 -0.6748  0.7338
   87MOL0     H11452   2.567  10.635   8.054 -2.9305  1.3843  2.0974
   87MOL0     H11453   2.615  10.712   7.910 -2.2995 -1.4569 -1.5208
   87MOL0     H11454   2.416  10.855   7.910 -3.6316 -1.2898 -2.8247
   87MOL0     H11455   2.360  10.761   8.053 -1.8360 -0.7944 -0.3968
   87MOL0     H11456   2.409  10.598   7.826 -2.1225  1.3154 -3.6916
   87MOL0     H11457   2.278  10.609   7.949  0.0129  1.5288  0.4973
   87MOL0     H11458   2.180  10.801   7.817 -4.3629 -2.8257  1.9526
   87MOL0     H11459   2.178  10.645   7.741  0.7553 -1.2369  3.4868
   87MOL0     H11460   2.422  10.717   7.646 -2.1867 -1.4297 -3.3816
   87MOL0     H11461   2.371  10.879   7.693 -1.5280  0.4259  0.8761
   87MOL0     H11462   2.242  10.685   7.505  0.8639 -0.7635  2.4840
   87MOL0     H11463   2.160  10.839   7.548  1.1103  1.2394  1.4496
   87MOL0     H11464   2.375  10.795   7.350 -1.4815  1.6038 -3.4549
   87MOL0     H11465   2.396  10.943   7.455 -0.5992  1.1598 -0.8021
   87MOL0     H11466   2.662  11.020   8.305 -0.6196  0.4253  3.2228
   87MOL0     H11467   2.768  11.059   8.517 -3.8325 -2.3111  0.3496
   87MOL0     H11468   3.003  10.793   8.991  1.0763 -1.7139 -0.1289
   87MOL0     H11469   3.135  10.840   9.156  1.4769 -3.4113 -1.4945
   87MOL0     H11470   2.526  10.845  10.718  0.0592  1.3679  0.6402
   87MOL0     H11471   2.386  10.691  10.794  0.1515 -0.2940  0.0733
   87MOL0     H11472   2.359  10.433  11.262  3.4421 -2.0878 -0.5625
   87MOL0     H11473   2.216  10.275  11.392 -2.2753  3.5690 -0.6008
   87MOL0     H11474   2.082   9.891  11.172 -0.6153 -0.6526  1.3061
   87MOL0     H11475   1.940   9.972  11.218  0.1853  2.6964  1.3716
   87MOL0     H11476   2.030   9.727  11.315 -4.1421 -0.5064 -0.5722
   87MOL0     H11477   2.108   9.832  11.431  3.0706 -2.7419 -3.6895
   87MOL0     H11478   1.813   9.823  11.362  1.4943 -2.3545 -1.3959
   87MOL0     H11479   1.893   9.916  11.499  2.1302  0.6171 -0.3966
   87MOL0     H11480   1.795   9.706  11.583  0.0026  1.6652 -0.2115
   87MOL0     H11481   1.866   9.618  11.449 -3.5043  0.8525  0.7485
   87MOL0     H11482   2.176   9.612  11.724 -1.5467 -3.8384 -1.1166
   87MOL0     H11483   2.153  10.046  11.034 -0.4592  0.8281 -0.7699
   87MOL0     H11484   2.261  10.191  10.903 -0.2642  0.5293  0.0121
   88MOL0     O11485   2.025   7.653   8.282 -0.6037 -0.6335  0.1027
   88MOL0     C11486   2.007   7.533   8.311 -0.0543 -0.5925 -0.2047
   88MOL0     O11487   1.930   7.447   8.244 -0.4891  0.3605  0.2988
   88MOL0     C11488   1.838   7.504   8.159 -0.1436  0.5518 -0.1135
   88MOL0     C11489   1.839   7.470   8.027 -0.2710  0.2489 -0.7489
   88MOL0     C11490   1.758   7.540   7.944  0.5387  0.3809 -0.1396
   88MOL0     C11491   1.661   7.636   7.985 -0.1041  0.5491 -0.3666
   88MOL0     O11492   1.582   7.684   7.885 -0.7149  0.2416  0.3244
   88MOL0     C11493   1.457   7.746   7.928  0.8387  0.1852  0.1490
   88MOL0     C11494   1.370   7.803   7.809  0.0681 -0.2935  0.0625
   88MOL0     C11495   1.327   7.712   7.691 -0.9086 -0.8310  0.3084
   88MOL0     C11496   1.317   7.783   7.561 -0.5413  0.8814 -0.3544
   88MOL0     C11497   1.285   7.684   7.455 -0.4327 -0.7801 -0.3954
   88MOL0     C11498   1.260   7.762   7.319  0.7825  0.2079 -1.3352
   88MOL0     C11499   1.234   7.672   7.205  1.2364 -0.5291  1.0207
   88MOL0     C11500   1.185   7.730   7.076  0.5634 -0.2503  0.5773
   88MOL0     N11501   1.040   7.748   7.072 -0.0088 -0.3886 -0.6678
   88MOL0     C11502   0.973   7.840   7.151  1.1390  0.0935 -0.7801
   88MOL0     C11503   0.844   7.805   7.108  1.1228 -0.2076 -0.1408
   88MOL0     C11504   0.722   7.858   7.170 -0.0703  0.3872 -0.1762
   88MOL0     C11505   0.736   7.883   7.325  0.4829 -0.7827  0.5455
   88MOL0     C11506   0.598   7.922   7.395 -0.0677  0.2116 -0.6152
   88MOL0     C11507   0.616   7.919   7.549  0.2920  0.4823 -0.3797
   88MOL0     O11508   0.484   7.907   7.603 -0.2794 -0.2100  0.4509
   88MOL0     C11509   0.390   8.006   7.578 -0.3293 -0.0746  0.0775
   88MOL0     C11510   0.263   7.959   7.600  0.0863  0.2709  0.2484
   88MOL0     C11511   0.151   8.041   7.575  0.5399  1.1986 -0.3542
   88MOL0     C11512   0.172   8.173   7.536  1.0538  0.2771 -0.4007
   88MOL0     C11513   0.054   8.266   7.515 -0.1970 -0.5270 -1.1751
   88MOL0     O11514  -0.062   8.212   7.465  0.3493  0.1073 -0.2729
   88MOL0     C11515  -0.173   8.282   7.466  0.1797 -0.0291 -0.1747
   88MOL0     C11516  -0.192   8.387   7.377  0.2241 -0.0142 -0.1129
   88MOL0     C11517  -0.320   8.451   7.368  0.0224 -0.7270 -0.6183
   88MOL0     C11518  -0.414   8.418   7.460  1.0408 -0.1158  0.0136
   88MOL0     O11519  -0.537   8.482   7.465  0.0810  0.2236 -0.4130
   88MOL0     C11520  -0.514   8.625   7.463  1.2067  0.7708  0.2292
   88MOL0     C11521  -0.438   8.685   7.589 -0.6321 -0.8013  0.1281
   88MOL0     C11522  -0.482   8.635   7.723 -0.3060 -0.0008 -1.1526
   88MOL0     C11523  -0.610   8.714   7.771  1.1759  0.3085  0.3757
   88MOL0     C11524  -0.689   8.667   7.900  0.1543  0.9220  0.5122
   88MOL0     C11525  -0.600   8.691   8.030  0.0028 -0.2106  0.2877
   88MOL0     C11526  -0.681   8.680   8.164 -1.1216  0.2369 -0.4225
   88MOL0     C11527  -0.741   8.542   8.208 -0.1548  0.7032  0.6041
   88MOL0    Cl11528  -0.607   8.423   8.241  0.1799 -0.3176 -0.1716
   88MOL0     C11529  -0.396   8.315   7.560  0.2821 -0.4477  0.9009
   88MOL0     C11530  -0.273   8.248   7.562 -0.8021  0.3564  0.1896
   88MOL0     O11531   0.063   8.383   7.554  0.0228 -0.2814  0.0627
   88MOL0     C11532   0.299   8.229   7.525 -0.4056  0.5674  0.4442
   88MOL0     C11533   0.417   8.147   7.545  0.5586  0.0604 -0.7695
   88MOL0     N11534   0.840   7.708   7.007 -0.0892  0.8367 -0.2307
   88MOL0     N11535   0.960   7.684   6.985 -0.5100  0.4083  0.8141
   88MOL0     C11536   1.640   7.651   8.127 -0.2131 -1.3494  0.5780
   88MOL0     C11537   1.737   7.589   8.203 -0.4876  0.3668  0.1585
   88MOL0     C11538   2.094   7.472   8.412 -0.0824 -0.1143 -0.1147
   88MOL0     C11539   2.193   7.548   8.481 -0.6484 -1.4593 -0.8325
   88MOL0     C11540   2.277   7.490   8.575 -0.3030  0.1915  0.2943
   88MOL0     C11541   2.251   7.353   8.608  0.1279 -0.3255 -0.5135
   88MOL0     O11542   2.309   7.286   8.707  0.4416  1.3427  0.5473
   88MOL0     C11543   2.395   7.351   8.788  0.3555  0.4329 -0.1067
   88MOL0     C11544   2.485   7.258   8.872 -0.5325 -0.3938 -0.3681
   88MOL0     C11545   2.398   7.172   8.971 -0.2162 -1.2562 -0.0793
   88MOL0     C11546   2.487   7.087   9.053 -0.1498  0.5692  0.7918
   88MOL0     C11547   2.554   6.978   8.982 -0.3353 -0.1747  1.3720
   88MOL0     C11548   2.583   6.885   8.919  0.0659  0.6576  0.4258
   88MOL0     C11549   2.142   7.288   8.552 -0.5022 -0.3769 -0.5617
   88MOL0     C11550   2.075   7.341   8.444 -0.3322  0.1263  0.5124
   88MOL0     H11551   1.923   7.407   7.998  1.5257  2.2716 -0.2509
   88MOL0     H11552   1.756   7.533   7.836  0.9581  1.5382 -0.2373
   88MOL0     H11553   1.490   7.835   7.983  1.9121  0.6859 -1.2285
   88MOL0     H11554   1.398   7.664   7.970  1.5765 -1.5251 -1.9535
   88MOL0     H11555   1.421   7.891   7.770 -0.8143  1.6122  2.9045
   88MOL0     H11556   1.283   7.840   7.863 -1.0239  0.8566 -2.3369
   88MOL0     H11557   1.229   7.672   7.720  0.1259 -1.0878  3.8814
   88MOL0     H11558   1.399   7.631   7.702 -1.1122 -0.6998  3.9506
   88MOL0     H11559   1.237   7.857   7.566 -0.5388  0.8691 -0.0989
   88MOL0     H11560   1.409   7.837   7.537 -0.5799  0.7085 -0.8879
   88MOL0     H11561   1.199   7.636   7.501  0.3608  0.4908  2.6842
   88MOL0     H11562   1.360   7.608   7.434 -3.1641 -4.1535  1.1519
   88MOL0     H11563   1.350   7.821   7.300 -0.5589  4.2220  2.8902
   88MOL0     H11564   1.173   7.827   7.335  2.0076  1.4968  0.6036
   88MOL0     H11565   1.320   7.607   7.192  1.2322 -0.0753 -1.9896
   88MOL0     H11566   1.150   7.609   7.238  0.5227  0.0479  0.3596
   88MOL0     H11567   1.211   7.665   6.992 -2.9387 -0.2463 -0.6754
   88MOL0     H11568   1.218   7.830   7.045 -0.1797  0.0337  0.6729
   88MOL0     H11569   0.999   7.899   7.238 -0.9784  0.0572 -0.0722
   88MOL0     H11570   0.640   7.791   7.144  0.6450 -0.2638 -0.8082
   88MOL0     H11571   0.681   7.953   7.133 -2.6664 -0.7052 -0.2768
   88MOL0     H11572   0.814   7.954   7.353  1.2461 -1.2704 -0.2487
   88MOL0     H11573   0.771   7.787   7.364 -0.5775 -1.7198 -0.7013
   88MOL0     H11574   0.571   8.026   7.377  2.9722  1.1212 -0.4436
   88MOL0     H11575   0.520   7.846   7.383  1.8623 -2.4023  1.8384
   88MOL0     H11576   0.669   8.009   7.581 -0.2952  1.1299 -1.1936
   88MOL0     H11577   0.686   7.841   7.582  0.2815  2.2404  4.7894
   88MOL0     H11578   0.251   7.857   7.633 -1.1848  0.0101 -0.9443
   88MOL0     H11579   0.052   8.007   7.603  0.6151 -0.4284 -1.8587
   88MOL0     H11580  -0.104   8.398   7.313  0.6963 -0.3364  0.4669
   88MOL0     H11581  -0.342   8.514   7.283 -1.8984  0.1394  0.4515
   88MOL0     H11582  -0.616   8.665   7.455  1.6925  1.7186 -1.7225
   88MOL0     H11583  -0.471   8.653   7.367  0.1008 -0.3183 -0.6151
   88MOL0     H11584  -0.435   8.794   7.584 -0.8678 -0.8297 -0.7771
   88MOL0     H11585  -0.336   8.645   7.581 -0.8524 -2.2623  3.0975
   88MOL0     H11586  -0.410   8.640   7.805  0.1375  1.7435 -1.6148
   88MOL0     H11587  -0.520   8.533   7.712 -3.4968  0.7754  1.2218
   88MOL0     H11588  -0.580   8.818   7.782 -1.6149  1.1609  0.5685
   88MOL0     H11589  -0.687   8.713   7.693  3.9598  0.6474 -2.6451
   88MOL0     H11590  -0.717   8.561   7.896 -0.4605  1.0604  0.8964
   88MOL0     H11591  -0.783   8.724   7.901 -0.1292  0.6318 -2.0014
   88MOL0     H11592  -0.558   8.792   8.033 -2.9197  1.0835  1.3491
   88MOL0     H11593  -0.516   8.621   8.038 -0.2833 -0.6772 -0.6274
   88MOL0     H11594  -0.611   8.730   8.232 -0.4727  1.2681 -1.8026
   88MOL0     H11595  -0.766   8.749   8.164 -0.4265  1.1095 -1.2396
   88MOL0     H11596  -0.818   8.508   8.139 -0.3371  2.1144  0.0618
   88MOL0     H11597  -0.793   8.567   8.301 -1.0614  2.4918 -0.3183
   88MOL0     H11598  -0.468   8.296   7.638  1.5947 -0.3915  2.1710
   88MOL0     H11599  -0.262   8.156   7.618 -3.8182 -3.0598 -4.1797
   88MOL0     H11600   0.319   8.334   7.503  1.4567  0.8003  2.7861
   88MOL0     H11601   0.517   8.189   7.533 -0.5178  2.4135 -2.3155
   88MOL0     H11602   1.577   7.728   8.169  1.3785  0.7739 -0.7168
   88MOL0     H11603   1.736   7.606   8.310 -1.8869 -2.4316  0.6634
   88MOL0     H11604   2.202   7.653   8.454 -2.0653 -1.3726 -1.0516
   88MOL0     H11605   2.348   7.550   8.632  1.2011 -2.6464  1.5892
   88MOL0     H11606   2.334   7.411   8.857 -0.3023 -1.0098  0.6188
   88MOL0     H11607   2.463   7.418   8.736  0.4967  0.5384  0.2091
   88MOL0     H11608   2.539   7.187   8.808  0.9427  1.8764 -1.7700
   88MOL0     H11609   2.563   7.308   8.930 -1.3799  1.5482 -0.8538
   88MOL0     H11610   2.329   7.109   8.913 -1.5550  0.4359 -0.3954
   88MOL0     H11611   2.334   7.241   9.027  1.9950  4.3489 -3.6341
   88MOL0     H11612   2.559   7.159   9.094  3.6604 -0.7398 -2.8800
   88MOL0     H11613   2.426   7.043   9.132 -2.3556  1.9210 -0.0584
   88MOL0     H11614   2.614   6.793   8.873  2.2997  2.4961 -2.0074
   88MOL0     H11615   2.121   7.188   8.588  1.3015 -0.0644  1.5561
   88MOL0     H11616   1.997   7.283   8.395  0.3285  0.3260 -0.8385
   89MOL0     O11617   7.332   1.671   2.635 -0.2753 -0.0947 -0.3292
   89MOL0     C11618   7.208   1.659   2.659  0.2929  0.0023 -0.0519
   89MOL0     O11619   7.134   1.563   2.597 -0.3272  0.1631 -0.3922
   89MOL0     C11620   7.197   1.471   2.523 -1.1415  0.3283  0.6765
   89MOL0     C11621   7.235   1.355   2.588  0.7447  0.4616  0.1543
   89MOL0     C11622   7.302   1.261   2.513  0.0430 -0.1978 -0.5507
   89MOL0     C11623   7.329   1.274   2.382  0.6147  0.1397 -0.1692
   89MOL0     O11624   7.389   1.182   2.311 -0.2456  0.5485  0.1475
   89MOL0     C11625   7.458   1.074   2.367 -1.4453 -0.0203 -1.0626
   89MOL0     C11626   7.540   0.995   2.272  0.3414  0.0947 -0.4286
   89MOL0     C11627   7.470   0.955   2.144 -0.0435  1.4592  0.2688
   89MOL0     C11628   7.351   0.856   2.173 -0.0752 -0.3191  0.3903
   89MOL0     C11629   7.288   0.801   2.040  0.2640 -0.0318 -0.2256
   89MOL0     C11630   7.162   0.739   2.079 -0.1825  0.9410  0.1033
   89MOL0     C11631   7.081   0.671   1.964 -0.6813 -0.1130 -0.5973
   89MOL0     C11632   7.040   0.771   1.852 -0.1944 -0.4095 -0.2392
   89MOL0     N11633   6.945   0.702   1.766  0.1882 -0.8740 -0.9161
   89MOL0     C11634   6.985   0.658   1.646 -0.8370 -0.4128  0.1599
   89MOL0     C11635   6.874   0.599   1.597  0.5659 -0.1336  0.8291
   89MOL0     C11636   6.854   0.540   1.457  0.2743  0.0591 -1.1077
   89MOL0     C11637   6.931   0.405   1.467  0.6154  0.2980  0.4718
   89MOL0     C11638   6.835   0.307   1.546 -0.6813  0.3339 -0.0858
   89MOL0     C11639   6.840   0.159   1.501  0.0562 -0.3231 -0.6811
   89MOL0     O11640   6.972   0.099   1.523  0.5650 -0.0630  0.1454
   89MOL0     C11641   6.974   0.003   1.621 -0.6860 -0.9461 -0.2323
   89MOL0     C11642   7.029   0.048   1.744  0.1969  0.2284  0.6464
   89MOL0     C11643   7.054  -0.047   1.848 -0.0268 -0.5642  0.2081
   89MOL0     C11644   7.039  -0.186   1.819  1.1217  0.5076 -0.8585
   89MOL0     C11645   7.070  -0.280   1.927  0.4269 -1.8107 -0.0430
   89MOL0     O11646   7.084  -0.404   1.885 -0.3465 -0.0581 -0.6704
   89MOL0     C11647   7.118  -0.502   1.982  0.4701  0.3689  0.2213
   89MOL0     C11648   7.239  -0.520   2.036 -1.3776  0.6994  0.5148
   89MOL0     C11649   7.263  -0.602   2.155 -0.0884  0.1133 -0.2455
   89MOL0     C11650   7.163  -0.671   2.218 -0.2880 -0.6570 -0.7467
   89MOL0     O11651   7.202  -0.746   2.331  0.3444  0.2965  0.3149
   89MOL0     C11652   7.119  -0.847   2.384  0.5585 -0.0920  0.1886
   89MOL0     C11653   7.193  -0.951   2.451 -0.1710  0.0210  0.5199
   89MOL0     C11654   7.285  -1.037   2.356  0.6589 -0.2759 -0.1489
   89MOL0     C11655   7.389  -1.105   2.446 -0.5729 -0.7066 -0.6583
   89MOL0     C11656   7.459  -1.225   2.379 -0.6427 -0.8002 -1.3661
   89MOL0     C11657   7.602  -1.254   2.438  0.7303  0.2241  0.2855
   89MOL0     C11658   7.707  -1.294   2.332  0.1899  0.0265 -0.9267
   89MOL0     C11659   7.827  -1.340   2.410 -0.8253  0.6671 -0.0500
   89MOL0    Cl11660   7.949  -1.432   2.317  0.0970 -0.0303 -0.4177
   89MOL0     C11661   7.031  -0.653   2.163  0.1138 -0.1853  0.4697
   89MOL0     C11662   7.017  -0.573   2.039 -0.4460  0.3970  0.5060
   89MOL0     O11663   7.084  -0.239   2.039 -0.1046  0.2097 -0.5258
   89MOL0     C11664   7.003  -0.237   1.693 -0.5202 -0.6993  0.5506
   89MOL0     C11665   6.972  -0.137   1.599 -1.5025  0.2537  0.1065
   89MOL0     N11666   6.775   0.585   1.692  0.0564  0.4806  0.0076
   89MOL0     N11667   6.833   0.637   1.803  0.2643  0.1231 -0.2753
   89MOL0     C11668   7.296   1.394   2.319 -0.5594  0.6258  0.1070
   89MOL0     C11669   7.215   1.484   2.388  0.5310 -0.4932  0.1684
   89MOL0     C11670   7.148   1.742   2.758 -0.6039 -0.7184 -0.4310
   89MOL0     C11671   7.221   1.843   2.823  0.9586 -0.0449 -0.4159
   89MOL0     C11672   7.149   1.940   2.902  0.4469  0.2801 -0.1157
   89MOL0     C11673   7.006   1.919   2.928  0.4072 -0.0313 -0.3604
   89MOL0     O11674   6.942   2.001   3.018 -0.0606 -0.7986  0.6533
   89MOL0     C11675   6.801   1.981   3.052 -0.4009  0.0580  0.0957
   89MOL0     C11676   6.743   2.084   3.142  0.0400 -0.3442  0.1031
   89MOL0     C11677   6.826   2.093   3.276  0.5083 -0.9249  0.6428
   89MOL0     C11678   6.777   2.200   3.374  0.4138  0.0891  0.1974
   89MOL0     C11679   6.648   2.152   3.428  0.4915  0.2726  0.1884
   89MOL0     C11680   6.535   2.130   3.469  0.1185  0.3498  0.3781
   89MOL0     C11681   6.939   1.815   2.866 -0.4970 -0.2694  1.1939
   89MOL0     C11682   7.008   1.736   2.771  0.0057  0.4034 -0.9837
   89MOL0     H11683   7.227   1.353   2.696  2.3479 -0.0931  0.3002
   89MOL0     H11684   7.324   1.169   2.567 -4.5259 -2.7002 -2.4246
   89MOL0     H11685   7.395   1.002   2.421 -1.1664  0.3047 -0.2960
   89MOL0     H11686   7.528   1.109   2.443 -2.0857  1.5035 -1.1311
   89MOL0     H11687   7.582   0.905   2.317 -0.6639 -0.3621 -0.3737
   89MOL0     H11688   7.621   1.059   2.237  3.7085 -2.7603  1.5360
   89MOL0     H11689   7.544   0.920   2.071  0.3498  0.2567  1.2259
   89MOL0     H11690   7.429   1.047   2.101  0.9937  1.8364  0.0392
   89MOL0     H11691   7.381   0.772   2.236  2.4540 -0.4883 -0.9048
   89MOL0     H11692   7.279   0.913   2.232  0.9941 -1.4620  2.9236
   89MOL0     H11693   7.349   0.729   1.984  0.1792  0.1323 -0.5308
   89MOL0     H11694   7.276   0.893   1.983  1.7006  0.7783  0.7088
   89MOL0     H11695   7.097   0.813   2.127  0.3507  3.0362 -2.1580
   89MOL0     H11696   7.163   0.658   2.152 -2.5579  3.6876  3.5325
   89MOL0     H11697   7.132   0.587   1.916  1.7568  0.3666  0.9966
   89MOL0     H11698   6.990   0.630   2.009 -0.0405  0.1940  1.0280
   89MOL0     H11699   7.131   0.792   1.795 -0.0206 -2.6084 -0.8857
   89MOL0     H11700   7.001   0.860   1.902 -0.5740  0.3421 -1.7978
   89MOL0     H11701   7.075   0.676   1.588 -1.2563 -2.5352 -1.2493
   89MOL0     H11702   6.904   0.604   1.384 -0.8302  2.5702  0.2088
   89MOL0     H11703   6.753   0.522   1.421  0.5713 -0.7586 -1.5520
   89MOL0     H11704   7.031   0.399   1.511 -0.1300 -1.1900  2.0658
   89MOL0     H11705   6.935   0.366   1.365  0.7740  2.7404 -0.5244
   89MOL0     H11706   6.868   0.310   1.650 -0.8166 -0.4246 -0.0198
   89MOL0     H11707   6.733   0.344   1.553 -0.2441  1.2657  2.0358
   89MOL0     H11708   6.818   0.153   1.394 -0.5839 -3.4456 -0.4813
   89MOL0     H11709   6.764   0.102   1.555 -1.3482 -0.5551 -2.7611
   89MOL0     H11710   7.069   0.149   1.751  0.0663  0.4920 -1.7396
   89MOL0     H11711   7.079  -0.018   1.949  0.2268 -2.2950  0.6688
   89MOL0     H11712   7.330  -0.470   2.005  1.7909 -3.3421  2.2496
   89MOL0     H11713   7.363  -0.613   2.196 -1.4027  1.2200  3.7308
   89MOL0     H11714   7.067  -0.891   2.299 -0.2116  1.8041 -0.3643
   89MOL0     H11715   7.032  -0.822   2.445  0.7700 -0.2101  0.5447
   89MOL0     H11716   7.132  -1.012   2.518  0.3485 -1.6420 -0.4512
   89MOL0     H11717   7.262  -0.892   2.511 -1.4996 -1.0098  3.1950
   89MOL0     H11718   7.335  -0.972   2.284  1.9225 -1.7622 -0.6585
   89MOL0     H11719   7.231  -1.122   2.313  1.7131 -1.1283  0.1578
   89MOL0     H11720   7.459  -1.030   2.485 -2.1230  0.3865  0.1314
   89MOL0     H11721   7.338  -1.139   2.536  2.7833 -0.4896  1.5292
   89MOL0     H11722   7.473  -1.198   2.274 -1.3766  2.3887 -0.7774
   89MOL0     H11723   7.392  -1.311   2.386 -0.8940 -0.4969  2.4578
   89MOL0     H11724   7.594  -1.329   2.516  2.5316  0.5793  0.8624
   89MOL0     H11725   7.632  -1.159   2.485 -4.2008  0.9243  2.7067
   89MOL0     H11726   7.658  -1.376   2.279 -4.6592  0.6938  1.9303
   89MOL0     H11727   7.744  -1.211   2.272 -0.4462 -0.6541 -2.3058
   89MOL0     H11728   7.793  -1.397   2.497 -0.0363  3.3910  2.1717
   89MOL0     H11729   7.870  -1.251   2.456  2.3687 -1.3334  1.1342
   89MOL0     H11730   6.941  -0.686   2.214 -0.0803 -0.5017 -0.0671
   89MOL0     H11731   6.918  -0.546   2.003  0.3926  2.4545 -0.3885
   89MOL0     H11732   6.977  -0.339   1.666  4.8339 -2.6167  1.3393
   89MOL0     H11733   6.960  -0.171   1.496 -1.6317  0.4562  0.0543
   89MOL0     H11734   7.323   1.401   2.214 -1.1081 -3.6869 -0.5032
   89MOL0     H11735   7.176   1.574   2.342  0.4911 -0.8917 -0.5924
   89MOL0     H11736   7.329   1.853   2.819  0.9084  1.6724  1.0780
   89MOL0     H11737   7.206   2.029   2.926 -1.8483  2.3112 -1.7507
   89MOL0     H11738   6.797   1.893   3.117 -0.9590  0.4069  0.5424
   89MOL0     H11739   6.736   1.963   2.966 -0.2583  0.0871 -0.0184
   89MOL0     H11740   6.725   2.175   3.085 -1.2377 -1.6950 -1.7574
   89MOL0     H11741   6.647   2.049   3.181  3.0358 -6.6824  3.3996
   89MOL0     H11742   6.933   2.116   3.276  0.5848 -1.2106  1.7049
   89MOL0     H11743   6.828   1.994   3.322  4.5384 -1.5689 -0.5278
   89MOL0     H11744   6.849   2.228   3.452 -1.6309  6.7639  0.2978
   89MOL0     H11745   6.778   2.300   3.330  2.2769  1.2757  2.6386
   89MOL0     H11746   6.432   2.110   3.492  0.5922  0.1356  2.4992
   89MOL0     H11747   6.835   1.795   2.888 -0.9237 -0.1216 -0.5611
   89MOL0     H11748   6.954   1.658   2.718 -0.7237 -0.3089  0.7438
   90MOL0     O11749   7.963   9.797   0.800  0.2886  0.1306 -0.0531
   90MOL0     C11750   7.916   9.827   0.690  0.1053  0.1098 -0.5293
   90MOL0     O11751   7.800   9.780   0.645 -0.0151  0.0484  0.1609
   90MOL0     C11752   7.691   9.745   0.720 -0.5483  0.5176  0.7995
   90MOL0     C11753   7.683   9.727   0.859 -0.9712  0.2729 -0.1716
   90MOL0     C11754   7.565   9.719   0.926  0.2374 -0.3317 -0.0534
   90MOL0     C11755   7.447   9.715   0.846  1.3484  0.4728 -0.3668
   90MOL0     O11756   7.323   9.692   0.900  0.3321  0.1832 -0.2958
   90MOL0     C11757   7.302   9.683   1.042 -0.4129  1.3872 -1.0407
   90MOL0     C11758   7.154   9.679   1.063  0.6529  0.2619 -0.0837
   90MOL0     C11759   7.108   9.544   1.007  0.1298 -0.3194 -0.5102
   90MOL0     C11760   6.963   9.526   1.026 -0.0624  0.2644  0.2315
   90MOL0     C11761   6.914   9.386   1.010  0.0146  0.6928 -0.3864
   90MOL0     C11762   6.760   9.385   1.003 -0.0392 -0.6158  0.0434
   90MOL0     C11763   6.694   9.254   1.022  0.4058  0.1358  0.3648
   90MOL0     C11764   6.712   9.154   0.914 -0.0456  0.6953  0.4426
   90MOL0     N11765   6.841   9.090   0.912  0.4238 -0.5480  0.5181
   90MOL0     C11766   6.885   9.006   1.011  1.1098  0.2481  0.8971
   90MOL0     C11767   6.981   8.934   0.955  0.6129 -0.8814 -0.3529
   90MOL0     C11768   7.068   8.848   1.042  0.1608 -0.2499  0.2446
   90MOL0     C11769   7.059   8.698   1.025  0.3809  1.2058 -0.1157
   90MOL0     C11770   7.132   8.616   1.132  0.0902  0.2690 -0.1805
   90MOL0     C11771   7.122   8.469   1.094  1.5969 -0.2388  0.0205
   90MOL0     O11772   7.195   8.416   0.981 -0.5059 -0.7054  0.1522
   90MOL0     C11773   7.243   8.285   1.004 -0.1355  0.2591 -0.7618
   90MOL0     C11774   7.156   8.186   0.965 -0.6587 -0.5234  0.0638
   90MOL0     C11775   7.197   8.046   0.975 -0.2576 -0.5079 -0.4400
   90MOL0     C11776   7.322   8.018   1.037  0.8562 -0.2201 -0.2209
   90MOL0     C11777   7.373   7.883   1.048  0.2153 -0.3262 -0.2581
   90MOL0     O11778   7.473   7.857   1.138 -0.1198 -0.0209  0.1209
   90MOL0     C11779   7.548   7.743   1.144 -0.6914  0.9430  0.7116
   90MOL0     C11780   7.684   7.750   1.164 -0.8460  0.6076  0.5613
   90MOL0     C11781   7.761   7.634   1.172  0.4378  1.1120 -0.2993
   90MOL0     C11782   7.696   7.507   1.162  0.1177 -1.1509  0.4315
   90MOL0     O11783   7.780   7.399   1.155 -0.5631  0.4992 -0.1634
   90MOL0     C11784   7.722   7.265   1.163  0.8961 -0.0629  0.4773
   90MOL0     C11785   7.830   7.169   1.196 -0.2824  1.0253  0.8659
   90MOL0     C11786   7.769   7.029   1.220  1.1447  1.1736  0.0578
   90MOL0     C11787   7.879   6.923   1.235 -0.1345  0.5936  0.3541
   90MOL0     C11788   7.829   6.821   1.341  0.6315 -0.1880  0.5453
   90MOL0     C11789   7.722   6.729   1.270 -0.5014  0.6851 -0.5847
   90MOL0     C11790   7.648   6.635   1.373  0.1222  0.8331  0.2955
   90MOL0     C11791   7.500   6.680   1.408 -0.4128  0.0226 -0.6373
   90MOL0    Cl11792   7.445   6.644   1.565 -0.2870 -0.0130  0.0495
   90MOL0     C11793   7.556   7.502   1.149 -0.3305 -0.4321  0.0889
   90MOL0     C11794   7.482   7.617   1.140 -0.9461  0.2880 -0.0555
   90MOL0     O11795   7.322   7.798   0.971 -0.2452  0.1875 -0.1875
   90MOL0     C11796   7.412   8.126   1.064 -0.0917  0.3053 -0.4713
   90MOL0     C11797   7.368   8.259   1.051 -0.2621  0.2947 -0.3355
   90MOL0     N11798   6.986   8.965   0.817  0.3842  0.2214  0.0333
   90MOL0     N11799   6.900   9.049   0.797 -0.3113  0.2230  0.8812
   90MOL0     C11800   7.450   9.739   0.711  0.0157  0.9379 -0.8718
   90MOL0     C11801   7.574   9.750   0.644  0.6338 -0.9267  0.3954
   90MOL0     C11802   7.982   9.929   0.609  0.0084 -0.5032 -0.1215
   90MOL0     C11803   7.933   9.965   0.473  1.0547  0.0811 -0.5000
   90MOL0     C11804   7.986  10.083   0.425 -0.2133  0.6717  1.1670
   90MOL0     C11805   8.097  10.151   0.479  0.2676 -0.1482  1.2679
   90MOL0     O11806   8.155  10.257   0.421  0.0110  0.4077 -0.0569
   90MOL0     C11807   8.111  10.388   0.442 -0.1105 -0.3083 -1.2150
   90MOL0     C11808   8.223  10.489   0.451  0.2654  0.5850  0.1914
   90MOL0     C11809   8.167  10.608   0.534 -0.7209 -0.1569 -0.1884
   90MOL0     C11810   8.268  10.710   0.564 -0.0410  0.3541  0.4311
   90MOL0     C11811   8.360  10.673   0.671 -0.2672 -0.2696 -0.1458
   90MOL0     C11812   8.418  10.639   0.774 -0.9534 -0.3478  0.2579
   90MOL0     C11813   8.152  10.107   0.599  0.4197  0.6189  0.2478
   90MOL0     C11814   8.099   9.993   0.660  0.3396 -0.4026 -0.3833
   90MOL0     H11815   7.773   9.732   0.919  1.4980  0.5314 -3.5837
   90MOL0     H11816   7.557   9.705   1.033  1.3241  0.6075  0.1727
   90MOL0     H11817   7.345   9.766   1.099 -3.4701  0.7445  2.6131
   90MOL0     H11818   7.357   9.603   1.090 -3.3214  0.6541  1.4105
   90MOL0     H11819   7.104   9.763   1.014 -2.5913 -0.0679  2.2854
   90MOL0     H11820   7.145   9.697   1.171  1.7040  0.1107  0.0363
   90MOL0     H11821   7.159   9.461   1.056 -0.9130 -0.6855 -0.0021
   90MOL0     H11822   7.133   9.534   0.901 -1.0542 -3.7466 -0.5834
   90MOL0     H11823   6.934   9.547   1.130 -2.3577  1.6748 -0.6168
   90MOL0     H11824   6.905   9.589   0.958  2.1061  2.0725 -0.0815
   90MOL0     H11825   6.949   9.316   1.087 -1.0800 -1.5956 -1.8536
   90MOL0     H11826   6.935   9.355   0.908  0.1633 -0.1644 -0.0989
   90MOL0     H11827   6.729   9.435   0.911  0.1230  0.4673  0.5691
   90MOL0     H11828   6.714   9.447   1.080  1.3370  0.1967  0.2441
   90MOL0     H11829   6.729   9.198   1.109  0.8081 -3.0819 -1.6910
   90MOL0     H11830   6.591   9.291   1.032  1.3899  2.6178  2.2114
   90MOL0     H11831   6.697   9.200   0.816 -0.6335  0.6846  0.5219
   90MOL0     H11832   6.640   9.072   0.926  0.7493 -0.0736  0.0780
   90MOL0     H11833   6.859   9.021   1.115  2.4119  1.2620  1.0993
   90MOL0     H11834   7.060   8.874   1.148  0.3156  2.7107 -0.3749
   90MOL0     H11835   7.170   8.863   1.007  0.0151 -2.6704 -1.5040
   90MOL0     H11836   7.087   8.676   0.921 -0.6653  1.0820 -0.3865
   90MOL0     H11837   6.952   8.677   1.037  1.0104 -2.1274  0.4783
   90MOL0     H11838   7.234   8.655   1.128 -1.0031  3.3408 -0.9412
   90MOL0     H11839   7.083   8.651   1.224  0.1943  1.2013 -0.4687
   90MOL0     H11840   7.015   8.450   1.082  1.8178 -2.0111  0.4635
   90MOL0     H11841   7.143   8.418   1.189 -2.2702  1.9089  2.2588
   90MOL0     H11842   7.062   8.210   0.917 -0.6284 -0.2927  0.1201
   90MOL0     H11843   7.133   7.964   0.946 -2.7369  1.6692 -1.4675
   90MOL0     H11844   7.734   7.846   1.167 -0.7692  0.5670  0.6144
   90MOL0     H11845   7.869   7.623   1.181  0.0906 -5.5063  0.7548
   90MOL0     H11846   7.660   7.244   1.075 -0.5568 -1.5843  1.8127
   90MOL0     H11847   7.652   7.253   1.246  2.0008  0.5647  1.5341
   90MOL0     H11848   7.891   7.205   1.280 -1.4297 -1.2790  2.8008
   90MOL0     H11849   7.899   7.157   1.112 -2.9058 -1.3158 -1.1071
   90MOL0     H11850   7.700   7.008   1.138  1.5618  0.4549 -0.1171
   90MOL0     H11851   7.704   7.036   1.308  0.6809 -0.6391 -0.0838
   90MOL0     H11852   7.895   6.886   1.134 -1.9593 -1.4159  0.7352
   90MOL0     H11853   7.971   6.971   1.270 -0.5041  1.9332 -0.4519
   90MOL0     H11854   7.795   6.873   1.431  2.3612 -0.0497  1.1602
   90MOL0     H11855   7.912   6.759   1.375  0.5282 -0.8696 -0.4260
   90MOL0     H11856   7.777   6.668   1.198  1.5880  1.6923  0.0927
   90MOL0     H11857   7.648   6.787   1.214 -2.1481  1.0057  1.7473
   90MOL0     H11858   7.637   6.536   1.328 -0.0062  1.4331 -1.0298
   90MOL0     H11859   7.704   6.631   1.467  0.6747  0.8734 -0.0278
   90MOL0     H11860   7.428   6.663   1.328  0.1565 -0.5118 -1.0522
   90MOL0     H11861   7.515   6.788   1.411 -1.7971  0.2228 -0.4049
   90MOL0     H11862   7.503   7.409   1.163 -0.4689  0.0413  3.5885
   90MOL0     H11863   7.373   7.616   1.138 -0.9562 -1.6363 -1.1676
   90MOL0     H11864   7.510   8.101   1.104 -1.0443  0.9037  2.4503
   90MOL0     H11865   7.434   8.343   1.070 -0.8706  1.4234 -2.7974
   90MOL0     H11866   7.369   9.747   0.640  1.1012  1.3207 -2.0952
   90MOL0     H11867   7.563   9.779   0.540 -1.8898  1.0872  1.1048
   90MOL0     H11868   7.850   9.917   0.423  0.9683  0.1400 -0.4136
   90MOL0     H11869   7.935  10.129   0.341 -1.8048 -0.8928  1.2184
   90MOL0     H11870   8.053  10.376   0.535 -1.3917 -0.9297 -2.0646
   90MOL0     H11871   8.033  10.411   0.369  0.9391 -1.7803 -2.8750
   90MOL0     H11872   8.312  10.457   0.506  0.8235  0.9930 -0.4591
   90MOL0     H11873   8.241  10.527   0.350  0.4025  2.6947  0.9617
   90MOL0     H11874   8.127  10.562   0.624 -2.5199  1.5227 -0.0747
   90MOL0     H11875   8.087  10.662   0.482  1.9202  3.0444 -1.3100
   90MOL0     H11876   8.311  10.743   0.470 -1.8102 -2.3914 -1.4826
   90MOL0     H11877   8.218  10.802   0.597 -3.2536 -0.9216 -0.5442
   90MOL0     H11878   8.476  10.610   0.859  0.3794 -2.4246 -1.2605
   90MOL0     H11879   8.238  10.151   0.648 -0.7771  0.3877  2.7119
   90MOL0     H11880   8.141   9.973   0.759  4.9885 -2.4373 -2.4505
   91MOL0     O11881   4.726   6.241   2.761 -0.9540 -0.2800 -0.0056
   91MOL0     C11882   4.762   6.288   2.869  0.3392  0.0453  0.5488
   91MOL0     O11883   4.893   6.304   2.911  0.9525 -0.0487  0.2011
   91MOL0     C11884   4.997   6.257   2.832 -0.3660 -0.8607  0.2642
   91MOL0     C11885   4.997   6.151   2.740  0.8828  0.5906  0.0553
   91MOL0     C11886   5.116   6.094   2.681 -0.2534 -0.3626 -0.1273
   91MOL0     C11887   5.240   6.143   2.717 -0.9386 -0.5935 -0.9029
   91MOL0     O11888   5.340   6.080   2.653 -0.4526  1.0733  0.1026
   91MOL0     C11889   5.439   6.023   2.734 -0.0654 -0.3002 -0.4866
   91MOL0     C11890   5.546   5.957   2.647  0.8118 -0.2121  0.2461
   91MOL0     C11891   5.654   5.865   2.700  0.0716  0.7549  0.1630
   91MOL0     C11892   5.603   5.722   2.725 -0.3243 -0.4267 -0.5958
   91MOL0     C11893   5.696   5.629   2.806  0.6611 -1.1169  0.0894
   91MOL0     C11894   5.648   5.488   2.828  0.0694 -0.2908  0.1535
   91MOL0     C11895   5.762   5.397   2.879 -0.4558 -0.1258 -0.7654
   91MOL0     C11896   5.809   5.420   3.022  0.3936 -0.2719 -0.6237
   91MOL0     N11897   5.700   5.425   3.131 -0.8096 -0.4735 -0.9919
   91MOL0     C11898   5.674   5.535   3.204  0.6448  0.2456  1.0980
   91MOL0     C11899   5.581   5.517   3.291  0.7190 -0.3734  0.7430
   91MOL0     C11900   5.529   5.615   3.390  0.6946  0.3257 -0.9172
   91MOL0     C11901   5.605   5.609   3.518  0.2566 -0.1001 -0.1608
   91MOL0     C11902   5.627   5.736   3.600  0.2513  0.7337 -0.2868
   91MOL0     C11903   5.775   5.785   3.601  0.1790 -0.5601  0.3773
   91MOL0     O11904   5.845   5.803   3.470 -0.0136 -0.0711 -0.7428
   91MOL0     C11905   5.787   5.891   3.380 -0.3628 -0.0798 -0.0917
   91MOL0     C11906   5.710   6.007   3.409 -0.8529  0.0426 -0.0651
   91MOL0     C11907   5.676   6.100   3.310  0.2311 -0.0766  0.0753
   91MOL0     C11908   5.728   6.086   3.176 -0.4435  0.2671 -0.6091
   91MOL0     C11909   5.692   6.183   3.066  0.4546 -0.5739  0.1942
   91MOL0     O11910   5.756   6.160   2.945 -0.1459 -0.8338 -0.6332
   91MOL0     C11911   5.745   6.247   2.843  0.1275 -1.9514 -0.4159
   91MOL0     C11912   5.649   6.345   2.805  0.2977  0.2852  0.4361
   91MOL0     C11913   5.665   6.426   2.696 -0.0965  0.3719 -0.3490
   91MOL0     C11914   5.772   6.405   2.608 -0.1046  1.3159  0.7357
   91MOL0     O11915   5.800   6.478   2.493  0.6429  0.3049 -0.7200
   91MOL0     C11916   5.725   6.602   2.474  0.5504  1.2714 -0.9508
   91MOL0     C11917   5.766   6.670   2.344 -0.6224 -0.2361 -0.5073
   91MOL0     C11918   5.718   6.612   2.211 -0.3189  1.0133  0.5141
   91MOL0     C11919   5.569   6.636   2.174 -0.0375 -0.8077 -0.1601
   91MOL0     C11920   5.546   6.616   2.018  0.5789  0.7763 -0.4252
   91MOL0     C11921   5.399   6.635   1.978  0.3548 -0.7080 -0.6276
   91MOL0     C11922   5.376   6.585   1.839 -0.4011 -0.7276  0.1418
   91MOL0     C11923   5.235   6.611   1.799 -1.0697  0.3264  0.0079
   91MOL0    Cl11924   5.134   6.476   1.842 -0.2149 -0.4797  0.5845
   91MOL0     C11925   5.865   6.311   2.640  0.6766 -1.2050  0.0498
   91MOL0     C11926   5.851   6.227   2.749 -0.7740 -0.0543 -0.2998
   91MOL0     O11927   5.615   6.275   3.092 -0.0555  0.5336  0.6155
   91MOL0     C11928   5.782   5.961   3.148 -0.7341 -1.0734  0.7243
   91MOL0     C11929   5.812   5.866   3.246 -0.0190 -0.4111  0.5228
   91MOL0     N11930   5.543   5.387   3.273  0.6268 -0.0962 -0.8280
   91MOL0     N11931   5.613   5.333   3.177 -1.1551  0.0028 -0.1190
   91MOL0     C11932   5.247   6.237   2.822  0.4786  0.2251  0.8133
   91MOL0     C11933   5.126   6.280   2.877 -0.6002  0.3354 -0.8549
   91MOL0     C11934   4.659   6.347   2.947 -1.0349 -0.3047  0.0596
   91MOL0     C11935   4.541   6.388   2.886  0.0127 -0.0029 -0.3085
   91MOL0     C11936   4.430   6.434   2.958  0.2711  0.5954  0.2875
   91MOL0     C11937   4.437   6.441   3.101 -0.2397 -0.7175 -0.5908
   91MOL0     O11938   4.329   6.495   3.168 -0.0839  0.3928 -0.5052
   91MOL0     C11939   4.317   6.485   3.313 -0.5214 -0.0467  1.0046
   91MOL0     C11940   4.171   6.531   3.335  0.6575 -0.0810 -0.2217
   91MOL0     C11941   4.065   6.450   3.256 -0.6913  0.0925 -0.7206
   91MOL0     C11942   3.943   6.461   3.338  0.6428  1.1443 -0.0240
   91MOL0     C11943   3.848   6.532   3.255 -1.0046 -1.1481  1.0217
   91MOL0     C11944   3.764   6.585   3.183 -0.1638 -0.4392  1.2453
   91MOL0     C11945   4.562   6.410   3.166 -0.7448  0.0390 -0.7098
   91MOL0     C11946   4.671   6.362   3.087 -0.9359  0.9263 -0.3065
   91MOL0     H11947   4.916   6.083   2.714  1.2921  1.0849 -2.7508
   91MOL0     H11948   5.117   6.020   2.601  1.6265  0.8108 -1.2854
   91MOL0     H11949   5.386   5.957   2.804 -0.5823  0.2159 -0.3756
   91MOL0     H11950   5.480   6.104   2.796 -2.6417  0.4808  0.3546
   91MOL0     H11951   5.599   6.036   2.593  0.9659  0.5480  1.4738
   91MOL0     H11952   5.487   5.907   2.569 -1.6508  0.5235  1.5433
   91MOL0     H11953   5.692   5.906   2.794  0.7847 -0.6206  0.4973
   91MOL0     H11954   5.733   5.856   2.625  1.1599  0.9203  1.2532
   91MOL0     H11955   5.501   5.740   2.759  0.8528  4.5350  1.1564
   91MOL0     H11956   5.593   5.665   2.632  1.4050 -0.1619 -0.9837
   91MOL0     H11957   5.708   5.683   2.900  2.8176  0.4053 -0.9815
   91MOL0     H11958   5.790   5.639   2.751  0.7923  1.7262  0.6482
   91MOL0     H11959   5.613   5.456   2.729  1.2175 -1.0062 -0.0334
   91MOL0     H11960   5.558   5.474   2.889  0.7122 -2.2248  0.7262
   91MOL0     H11961   5.721   5.296   2.877 -0.7116 -0.0368 -0.1469
   91MOL0     H11962   5.846   5.397   2.810  1.3718 -2.1836  1.3105
   91MOL0     H11963   5.862   5.515   3.025 -0.8434  0.4401 -0.7091
   91MOL0     H11964   5.882   5.343   3.047  1.0704  0.0975 -1.4086
   91MOL0     H11965   5.730   5.626   3.183  0.3210  0.4397  1.0713
   91MOL0     H11966   5.423   5.594   3.410  1.9356 -2.6956  4.0173
   91MOL0     H11967   5.553   5.718   3.360  2.5678  0.3401  0.5167
   91MOL0     H11968   5.702   5.561   3.503 -0.1755 -0.5916 -1.5146
   91MOL0     H11969   5.547   5.543   3.583 -0.2835  2.3593  2.0503
   91MOL0     H11970   5.563   5.822   3.576  1.8535  1.4898 -2.2180
   91MOL0     H11971   5.613   5.709   3.705 -2.2234 -0.8749 -0.9582
   91MOL0     H11972   5.842   5.730   3.667  1.2665  0.2669 -0.0017
   91MOL0     H11973   5.776   5.888   3.638  2.5198 -0.1358 -0.6645
   91MOL0     H11974   5.685   6.027   3.513 -2.9020  1.6294 -0.7772
   91MOL0     H11975   5.612   6.182   3.340 -1.4371 -1.3505  0.1360
   91MOL0     H11976   5.567   6.362   2.873 -0.1352 -1.1683  0.3189
   91MOL0     H11977   5.585   6.493   2.668  0.1569  0.7726 -0.1157
   91MOL0     H11978   5.738   6.671   2.558 -1.1597 -1.3949  1.6540
   91MOL0     H11979   5.620   6.573   2.472  0.6832  0.3700  1.5290
   91MOL0     H11980   5.874   6.683   2.339 -0.8618  2.2325 -0.3585
   91MOL0     H11981   5.720   6.769   2.350  2.5128  1.4510 -1.8239
   91MOL0     H11982   5.736   6.505   2.206 -0.2842  1.0701 -1.1572
   91MOL0     H11983   5.769   6.658   2.125 -4.0690  0.6489 -2.1752
   91MOL0     H11984   5.503   6.576   2.237 -1.0686  1.5568  1.1332
   91MOL0     H11985   5.546   6.740   2.200  2.5276 -0.2496  0.0937
   91MOL0     H11986   5.569   6.510   1.999 -0.5233  0.5053 -0.2879
   91MOL0     H11987   5.608   6.673   1.948 -0.8470  0.5556 -1.9231
   91MOL0     H11988   5.371   6.740   1.990  0.8350 -0.8452  2.9758
   91MOL0     H11989   5.337   6.585   2.053  0.8243 -0.8373 -0.3176
   91MOL0     H11990   5.433   6.647   1.769  0.3391 -1.1975  0.3163
   91MOL0     H11991   5.390   6.477   1.829  0.3804 -0.5222 -1.4320
   91MOL0     H11992   5.251   6.626   1.691  5.2474  1.6399  0.7224
   91MOL0     H11993   5.191   6.706   1.833 -2.7402 -0.0856 -0.8867
   91MOL0     H11994   5.960   6.323   2.588  0.0103  1.5252 -0.6843
   91MOL0     H11995   5.921   6.147   2.773 -0.3354  0.6160  0.7531
   91MOL0     H11996   5.804   5.919   3.050 -2.2047 -0.6029  0.1630
   91MOL0     H11997   5.855   5.770   3.220 -0.3944 -0.9001  1.6266
   91MOL0     H11998   5.341   6.271   2.864 -0.9046  1.8364  2.7084
   91MOL0     H11999   5.134   6.352   2.958  2.2369 -0.5014 -0.2977
   91MOL0     H12000   4.523   6.370   2.780  2.4348  0.1971 -0.8327
   91MOL0     H12001   4.346   6.467   2.897  0.3856 -1.9198 -1.4132
   91MOL0     H12002   4.384   6.555   3.363 -0.2644  2.3685 -2.3670
   91MOL0     H12003   4.322   6.384   3.355 -1.7811 -0.8173 -0.5471
   91MOL0     H12004   4.157   6.522   3.443 -0.5825  1.4865 -0.2159
   91MOL0     H12005   4.158   6.639   3.323  1.3931  0.1742  1.1473
   91MOL0     H12006   4.088   6.344   3.238 -0.8453 -0.1324  0.3366
   91MOL0     H12007   4.049   6.502   3.161  1.2146  0.3462 -0.9435
   91MOL0     H12008   3.919   6.355   3.352  2.4037  0.5742 -0.9695
   91MOL0     H12009   3.946   6.508   3.436  1.1039  2.1698 -0.5113
   91MOL0     H12010   3.717   6.632   3.098 -0.2221 -1.1848  0.8538
   91MOL0     H12011   4.573   6.417   3.273  0.2454 -2.2378 -0.6007
   91MOL0     H12012   4.753   6.333   3.150 -1.0571  0.1535 -0.4972
   92MOL0     O12013  11.251   7.207   3.206  0.1320 -0.0164 -0.7842
   92MOL0     C12014  11.279   7.294   3.122  0.7894  0.2122 -0.5682
   92MOL0     O12015  11.269   7.429   3.136  0.8351 -0.3532  0.0237
   92MOL0     C12016  11.197   7.481   3.236 -0.2444  0.9321  0.2186
   92MOL0     C12017  11.120   7.598   3.204  0.4870 -0.1111 -0.4764
   92MOL0     C12018  11.043   7.666   3.303  0.3123  0.2920 -0.0343
   92MOL0     C12019  11.047   7.610   3.432  0.4017  0.1123 -0.1236
   92MOL0     O12020  10.967   7.669   3.523 -0.3022  0.0539 -0.0658
   92MOL0     C12021  10.831   7.668   3.498 -0.3633 -0.2498  0.0508
   92MOL0     C12022  10.755   7.682   3.620 -0.0498  0.5930 -0.7505
   92MOL0     C12023  10.605   7.708   3.580 -0.3524 -0.5497  0.1765
   92MOL0     C12024  10.547   7.732   3.720 -0.0169  0.3289  0.3215
   92MOL0     C12025  10.397   7.705   3.720 -0.7894 -0.9978  0.5403
   92MOL0     C12026  10.357   7.565   3.708 -0.5301  0.2862  0.1562
   92MOL0     C12027  10.435   7.456   3.785 -0.2802  0.0256  0.0620
   92MOL0     C12028  10.376   7.451   3.920  0.1244  0.2512 -0.0560
   92MOL0     N12029  10.393   7.573   4.009 -0.1139  0.1580 -0.0216
   92MOL0     C12030  10.513   7.608   4.065 -0.0034  0.1667 -0.0909
   92MOL0     C12031  10.485   7.704   4.162  0.8863 -0.3238 -0.2013
   92MOL0     C12032  10.590   7.775   4.245 -0.4141  0.5237 -0.2809
   92MOL0     C12033  10.582   7.741   4.392  0.3880 -1.0101  0.1543
   92MOL0     C12034  10.463   7.812   4.472 -0.1086 -0.0437 -0.6599
   92MOL0     C12035  10.468   7.794   4.623  0.5230 -0.6055 -0.3137
   92MOL0     O12036  10.606   7.834   4.670 -0.0366 -0.1416  0.0417
   92MOL0     C12037  10.646   7.799   4.800 -0.4845 -0.0541 -1.0950
   92MOL0     C12038  10.745   7.879   4.863  0.0703 -0.8181 -0.3798
   92MOL0     C12039  10.783   7.851   4.995 -1.1926 -0.3632  0.2279
   92MOL0     C12040  10.723   7.745   5.073 -1.1283  0.5966 -0.2890
   92MOL0     C12041  10.769   7.707   5.206  0.7560 -0.2434  0.4263
   92MOL0     O12042  10.883   7.760   5.256  0.4267 -0.1208 -0.4299
   92MOL0     C12043  10.926   7.722   5.385  0.8652 -0.4510 -0.3864
   92MOL0     C12044  10.918   7.599   5.446 -0.5040 -0.1873  0.3619
   92MOL0     C12045  10.968   7.564   5.571 -0.6841 -0.6966  0.7797
   92MOL0     C12046  11.025   7.674   5.649 -0.1147 -0.6321  0.0643
   92MOL0     O12047  11.072   7.652   5.772  0.4462 -0.1042  0.3562
   92MOL0     C12048  11.066   7.752   5.875 -0.5617 -0.1333  0.1231
   92MOL0     C12049  11.118   7.688   6.002  0.0591  1.0794  0.4813
   92MOL0     C12050  11.249   7.601   5.992 -0.2642  0.4622  1.0711
   92MOL0     C12051  11.302   7.556   6.126  0.0586 -1.2328  0.2564
   92MOL0     C12052  11.213   7.441   6.178  0.1909  0.3351  0.6593
   92MOL0     C12053  11.295   7.360   6.273 -0.0273  0.7943  0.0470
   92MOL0     C12054  11.298   7.429   6.419 -0.8595  0.5964  0.1907
   92MOL0     C12055  11.424   7.376   6.498  0.5723  0.6435 -0.1528
   92MOL0    Cl12056  11.440   7.200   6.487  0.1275  0.3913 -0.4160
   92MOL0     C12057  11.042   7.800   5.582 -0.4025 -0.7087  0.3171
   92MOL0     C12058  10.992   7.823   5.452  0.5572 -0.1752 -0.3039
   92MOL0     O12059  10.703   7.620   5.263 -0.1186  0.0489 -0.3080
   92MOL0     C12060  10.616   7.675   5.018  0.7246 -0.0377  0.1926
   92MOL0     C12061  10.576   7.711   4.888  0.8102 -0.3403  0.9651
   92MOL0     N12062  10.349   7.719   4.174  1.2804  1.6867  0.8407
   92MOL0     N12063  10.296   7.639   4.083 -0.7805 -0.0099  0.4100
   92MOL0     C12064  11.122   7.502   3.468 -0.6777  0.4117 -0.4836
   92MOL0     C12065  11.196   7.432   3.371  0.2952 -0.5664  0.6944
   92MOL0     C12066  11.351   7.256   2.994  0.2196 -0.8196 -0.9083
   92MOL0     C12067  11.381   7.354   2.894 -0.8301  0.5265 -0.2668
   92MOL0     C12068  11.452   7.320   2.777 -0.0492 -0.4033 -0.8545
   92MOL0     C12069  11.485   7.194   2.751  0.0473 -0.2569  0.3937
   92MOL0     O12070  11.565   7.161   2.645  0.5114  0.1754 -0.4260
   92MOL0     C12071  11.633   7.254   2.556 -0.6338  0.0437 -0.2949
   92MOL0     C12072  11.614   7.224   2.406 -0.3053 -0.8560  0.5169
   92MOL0     C12073  11.473   7.219   2.337 -0.2272 -0.1052 -0.3733
   92MOL0     C12074  11.370   7.120   2.395  0.0847 -1.0514 -0.1128
   92MOL0     C12075  11.418   6.974   2.420 -0.0284  0.5567  0.2890
   92MOL0     C12076  11.443   6.862   2.442  0.4226  0.4903  0.0901
   92MOL0     C12077  11.460   7.095   2.850  0.3534  0.1699  0.2896
   92MOL0     C12078  11.396   7.127   2.973 -0.5323  0.2407  0.2543
   92MOL0     H12079  11.110   7.638   3.103 -1.8113 -2.6059 -1.3539
   92MOL0     H12080  10.975   7.745   3.274  0.0341 -1.6726 -6.0877
   92MOL0     H12081  10.800   7.584   3.434  2.7429 -0.2086 -1.7574
   92MOL0     H12082  10.813   7.764   3.450  1.8797  0.9742  1.4832
   92MOL0     H12083  10.808   7.760   3.675  1.0623  0.4846 -1.6328
   92MOL0     H12084  10.752   7.585   3.671  1.2163 -0.3477 -2.3258
   92MOL0     H12085  10.576   7.609   3.543  0.8503 -0.8859  0.0879
   92MOL0     H12086  10.576   7.784   3.506  2.0866 -0.1777 -0.4670
   92MOL0     H12087  10.586   7.674   3.805  0.3095  0.2454  0.1202
   92MOL0     H12088  10.573   7.838   3.728  0.6083  0.6484 -3.6349
   92MOL0     H12089  10.362   7.772   3.642  2.0246 -1.0554 -0.9128
   92MOL0     H12090  10.360   7.738   3.817  3.3217 -0.4980  2.1306
   92MOL0     H12091  10.376   7.553   3.601 -0.7644  0.3427  0.1084
   92MOL0     H12092  10.248   7.567   3.723 -0.9438  6.4569 -1.3034
   92MOL0     H12093  10.423   7.358   3.738  5.4535 -1.4532  0.8877
   92MOL0     H12094  10.539   7.490   3.787 -0.9903  2.6052 -1.9909
   92MOL0     H12095  10.432   7.370   3.969 -0.6692  0.0417  0.5209
   92MOL0     H12096  10.273   7.414   3.917  1.1359 -2.9569  0.8371
   92MOL0     H12097  10.612   7.570   4.043  1.7850  2.8214  2.6139
   92MOL0     H12098  10.563   7.881   4.247 -1.8898  0.1651 -0.3561
   92MOL0     H12099  10.690   7.751   4.207 -0.3124  1.5668 -0.6919
   92MOL0     H12100  10.677   7.782   4.429 -0.4324  1.6490 -0.4720
   92MOL0     H12101  10.586   7.632   4.404  1.3906 -0.8945  1.1308
   92MOL0     H12102  10.467   7.918   4.448 -1.5422 -0.0873 -1.1552
   92MOL0     H12103  10.368   7.780   4.429 -1.9094  0.6817  2.5078
   92MOL0     H12104  10.460   7.688   4.650  0.8776 -0.0579  2.2214
   92MOL0     H12105  10.384   7.853   4.659  1.3029  0.8733 -0.8544
   92MOL0     H12106  10.793   7.958   4.806 -3.4386  0.2280 -2.2237
   92MOL0     H12107  10.876   7.895   5.031 -1.8528  0.6911  0.6892
   92MOL0     H12108  10.877   7.518   5.387 -1.1234  0.2819  0.1377
   92MOL0     H12109  10.963   7.461   5.605 -3.2566 -0.3147  1.7802
   92MOL0     H12110  10.963   7.783   5.896 -0.3836 -1.2275  3.0946
   92MOL0     H12111  11.129   7.833   5.838  1.3110 -0.8641  1.5451
   92MOL0     H12112  11.036   7.638   6.055 -2.8606  0.6937 -3.8129
   92MOL0     H12113  11.140   7.775   6.064  4.5548  2.3589 -2.4237
   92MOL0     H12114  11.311   7.684   5.956 -0.1745 -0.6905 -1.7237
   92MOL0     H12115  11.243   7.523   5.915  0.3015  0.0507  1.4425
   92MOL0     H12116  11.407   7.530   6.114  0.2868 -1.0044  1.5761
   92MOL0     H12117  11.309   7.639   6.197 -1.3892 -2.2617  1.6996
   92MOL0     H12118  11.210   7.370   6.094 -1.5205  1.6074 -0.4353
   92MOL0     H12119  11.109   7.453   6.212 -0.9408 -3.2242 -1.0182
   92MOL0     H12120  11.393   7.355   6.226  0.5032  0.3857  1.1786
   92MOL0     H12121  11.249   7.262   6.286 -2.7174  1.7375 -1.4221
   92MOL0     H12122  11.292   7.538   6.411 -1.3887  0.6177  0.8116
   92MOL0     H12123  11.201   7.406   6.465 -1.6070  2.4243 -0.3766
   92MOL0     H12124  11.428   7.405   6.603  0.1971 -2.0424  0.6726
   92MOL0     H12125  11.510   7.425   6.451 -1.1491  2.9444 -1.1394
   92MOL0     H12126  11.086   7.878   5.643  3.3883 -4.4731  2.9615
   92MOL0     H12127  10.992   7.919   5.400 -0.7432 -1.7010 -3.4004
   92MOL0     H12128  10.549   7.603   5.063 -0.3232  1.5144  1.2274
   92MOL0     H12129  10.500   7.639   4.860  0.2016  0.1842  1.2572
   92MOL0     H12130  11.117   7.455   3.566  1.9214 -0.3629 -0.6325
   92MOL0     H12131  11.246   7.345   3.411 -0.1485 -1.3215 -0.3522
   92MOL0     H12132  11.363   7.458   2.918 -0.4428  0.3225  0.9609
   92MOL0     H12133  11.455   7.388   2.693  0.7092  2.3610  1.2737
   92MOL0     H12134  11.740   7.240   2.573 -0.2608  1.4118 -1.3143
   92MOL0     H12135  11.613   7.361   2.571  3.3031  0.7784  0.9055
   92MOL0     H12136  11.675   7.303   2.363  1.5349 -0.3366  3.7641
   92MOL0     H12137  11.664   7.128   2.390 -3.3857 -2.5081 -0.1666
   92MOL0     H12138  11.480   7.195   2.231 -1.9086  0.5169 -0.6631
   92MOL0     H12139  11.417   7.311   2.359 -0.2189 -0.7889  3.0740
   92MOL0     H12140  11.337   7.164   2.490 -1.3901 -1.3499 -0.4622
   92MOL0     H12141  11.282   7.123   2.331  1.2303  0.1655 -1.6900
   92MOL0     H12142  11.478   6.761   2.448  1.8735  0.9282 -0.6528
   92MOL0     H12143  11.509   7.000   2.830  0.9186 -0.0211  2.3570
   92MOL0     H12144  11.378   7.047   3.044  2.5909 -2.3198 -1.5296
   93MOL0     O12145  11.450   0.781   0.479  0.4523 -0.7828  0.4057
   93MOL0     C12146  11.424   0.666   0.497 -0.4572 -0.1049 -1.4896
   93MOL0     O12147  11.313   0.622   0.565 -1.0008  0.4517 -0.3026
   93MOL0     C12148  11.197   0.685   0.524  0.0701 -0.1382 -1.1804
   93MOL0     C12149  11.095   0.609   0.458 -0.0073 -0.1709 -0.9220
   93MOL0     C12150  10.975   0.671   0.422 -0.6310  0.3254 -0.1748
   93MOL0     C12151  10.953   0.809   0.435 -0.2193  1.4748  0.3114
   93MOL0     O12152  10.825   0.856   0.389 -0.5888 -0.1830  0.6678
   93MOL0     C12153  10.801   0.995   0.399 -1.4444 -0.6619  0.1796
   93MOL0     C12154  10.655   1.041   0.370 -0.5203  0.6954  0.7245
   93MOL0     C12155  10.553   0.956   0.453 -0.2555 -0.7230 -0.1699
   93MOL0     C12156  10.409   0.990   0.406 -0.0548 -0.5939  0.1978
   93MOL0     C12157  10.305   0.928   0.495  0.7381  0.4235  0.1985
   93MOL0     C12158  10.154   0.930   0.445 -0.0385 -0.0639 -0.0456
   93MOL0     C12159  10.065   0.855   0.547 -0.4032 -0.3608  0.8126
   93MOL0     C12160   9.941   0.795   0.483 -0.9481  0.1712 -0.3227
   93MOL0     N12161   9.851   0.709   0.557  0.0257 -0.9554 -0.3968
   93MOL0     C12162   9.818   0.740   0.686 -0.7471 -0.0213 -0.0351
   93MOL0     C12163   9.771   0.628   0.741 -0.2802 -0.7122 -0.2224
   93MOL0     C12164   9.730   0.602   0.888  0.3294 -0.1078 -0.0799
   93MOL0     C12165   9.578   0.647   0.900  1.0559  0.5570  0.1689
   93MOL0     C12166   9.554   0.791   0.924  0.9041 -0.1573  0.0243
   93MOL0     C12167   9.409   0.820   0.895  0.4968  0.4994  0.3258
   93MOL0     O12168   9.387   0.957   0.930 -0.3692  0.4537 -0.2083
   93MOL0     C12169   9.384   1.058   0.837  0.2154  0.1561 -0.1041
   93MOL0     C12170   9.464   1.076   0.729 -0.5284  0.4517  1.0008
   93MOL0     C12171   9.463   1.198   0.664 -0.9187  0.9355 -0.5882
   93MOL0     C12172   9.399   1.313   0.708  0.8773 -0.7627  0.4140
   93MOL0     C12173   9.407   1.443   0.644 -0.6847  0.4860  0.6008
   93MOL0     O12174   9.476   1.440   0.532  0.2720  0.0693 -0.1838
   93MOL0     C12175   9.503   1.545   0.450 -0.6654  0.7680 -0.1815
   93MOL0     C12176   9.434   1.672   0.444 -2.1040 -0.4257  0.7194
   93MOL0     C12177   9.483   1.761   0.353  0.1198 -0.1668  0.1037
   93MOL0     C12178   9.590   1.736   0.261  0.0080  0.7798  0.6764
   93MOL0     O12179   9.629   1.825   0.169 -0.6902 -0.0662 -0.2667
   93MOL0     C12180   9.632   1.959   0.224  0.6295  0.4869  0.4321
   93MOL0     C12181   9.613   2.047   0.109 -0.3055 -0.5907 -0.2011
   93MOL0     C12182   9.469   2.037   0.067  0.0801 -0.0699  0.3631
   93MOL0     C12183   9.457   2.109  -0.072  0.4799 -0.3516 -0.2855
   93MOL0     C12184   9.318   2.165  -0.106  0.3698  0.6785 -0.1197
   93MOL0     C12185   9.227   2.058  -0.172  1.7600 -0.2396 -0.3121
   93MOL0     C12186   9.065   2.090  -0.175 -0.5835 -1.0114 -0.5309
   93MOL0     C12187   8.987   1.974  -0.228  0.3848 -0.5345  0.3069
   93MOL0    Cl12188   9.036   1.905  -0.381 -0.2089 -0.2783 -0.1583
   93MOL0     C12189   9.645   1.607   0.259  0.5402  0.9519 -0.2808
   93MOL0     C12190   9.607   1.519   0.356  0.7324  0.9655 -0.3564
   93MOL0     O12191   9.351   1.535   0.696  0.0288 -0.1596  0.3128
   93MOL0     C12192   9.313   1.290   0.818 -0.5198  0.3167  0.3457
   93MOL0     C12193   9.307   1.161   0.884  0.7913 -0.4609  0.0890
   93MOL0     N12194   9.770   0.535   0.638  0.4686 -0.1051 -0.7926
   93MOL0     N12195   9.831   0.579   0.533  0.4807 -1.4286 -0.3865
   93MOL0     C12196  11.050   0.889   0.497  0.9913 -1.0634  0.0295
   93MOL0     C12197  11.174   0.826   0.539 -0.0821  0.6148  0.1763
   93MOL0     C12198  11.527   0.566   0.473 -1.0379  0.0146 -0.3441
   93MOL0     C12199  11.648   0.596   0.409  0.3842 -0.7729 -0.6553
   93MOL0     C12200  11.740   0.494   0.382  0.3073 -0.5542 -1.1414
   93MOL0     C12201  11.711   0.356   0.412  0.2013  0.3012 -0.4035
   93MOL0     O12202  11.782   0.242   0.378  0.2419 -0.3354  0.4049
   93MOL0     C12203  11.904   0.260   0.307  0.2302  0.2494  0.3755
   93MOL0     C12204  11.944   0.116   0.249  0.6178 -0.4032 -0.3416
   93MOL0     C12205  11.976   0.028   0.367 -0.3653  0.3550  0.4476
   93MOL0     C12206  12.111   0.067   0.436 -0.3954  0.6101 -0.4878
   93MOL0     C12207  12.220   0.016   0.359 -0.0562 -0.3691 -0.0130
   93MOL0     C12208  12.302  -0.054   0.298  0.1685 -1.6359  0.0890
   93MOL0     C12209  11.590   0.332   0.471 -0.4015  0.5634  0.1531
   93MOL0     C12210  11.504   0.432   0.509 -0.3622  0.7551  0.0100
   93MOL0     H12211  11.108   0.501   0.453  0.4138 -0.4889  3.5588
   93MOL0     H12212  10.888   0.617   0.385 -1.4291  1.9538 -0.7921
   93MOL0     H12213  10.876   1.049   0.340  0.0150 -0.3459  2.2081
   93MOL0     H12214  10.809   1.037   0.499 -1.0466  1.4171 -0.6632
   93MOL0     H12215  10.644   1.024   0.263  1.9928  0.7427  0.3915
   93MOL0     H12216  10.656   1.149   0.386  5.5180  0.8510  1.6174
   93MOL0     H12217  10.560   0.978   0.560  0.4970  2.9797 -0.8315
   93MOL0     H12218  10.569   0.849   0.436 -1.7222 -0.7718 -1.5108
   93MOL0     H12219  10.388   1.096   0.385  0.5332 -0.5457 -0.1891
   93MOL0     H12220  10.403   0.958   0.301 -0.3299 -0.9032  0.3065
   93MOL0     H12221  10.297   0.974   0.594 -1.4635  1.2459 -0.2959
   93MOL0     H12222  10.337   0.824   0.503 -1.1096 -0.4554 -2.4058
   93MOL0     H12223  10.144   0.892   0.342 -1.9278 -1.1957  0.4828
   93MOL0     H12224  10.125   1.035   0.445  2.3056  0.6862 -2.3623
   93MOL0     H12225  10.125   0.781   0.601  0.3137  0.6099  1.3923
   93MOL0     H12226  10.032   0.934   0.615 -2.9943  0.7737 -1.5566
   93MOL0     H12227   9.983   0.734   0.403  0.9895 -0.3291  0.9822
   93MOL0     H12228   9.894   0.881   0.435  1.1253  0.4125 -2.0740
   93MOL0     H12229   9.829   0.840   0.728 -1.9537 -1.4771  4.2844
   93MOL0     H12230   9.801   0.647   0.958  0.0152  0.9596 -0.4208
   93MOL0     H12231   9.740   0.496   0.913  0.6059 -0.2288 -0.6798
   93MOL0     H12232   9.518   0.594   0.975  0.1132  0.8444 -0.3681
   93MOL0     H12233   9.536   0.618   0.803 -0.5557 -2.1708  1.5393
   93MOL0     H12234   9.566   0.808   1.031 -2.2038 -0.1457  0.4797
   93MOL0     H12235   9.627   0.859   0.878  0.3613  1.8841  1.9652
   93MOL0     H12236   9.342   0.751   0.947 -0.0322  0.8359  0.0951
   93MOL0     H12237   9.377   0.803   0.792 -0.7344  0.4634  0.7019
   93MOL0     H12238   9.525   1.000   0.681  1.2184  4.1402 -3.3949
   93MOL0     H12239   9.528   1.205   0.577 -0.3795 -1.0446 -0.3844
   93MOL0     H12240   9.360   1.704   0.517 -0.3111  0.9086  2.0417
   93MOL0     H12241   9.421   1.849   0.341 -0.4975 -0.7185 -0.8671
   93MOL0     H12242   9.730   1.982   0.267  1.3555 -0.5530 -0.6164
   93MOL0     H12243   9.559   1.983   0.303  1.9177  0.2948  1.7311
   93MOL0     H12244   9.684   2.029   0.028 -2.5576  1.7740 -2.9151
   93MOL0     H12245   9.628   2.148   0.146 -4.7402  0.6719 -1.2548
   93MOL0     H12246   9.393   2.083   0.131 -0.2182 -1.4882  1.0613
   93MOL0     H12247   9.431   1.936   0.051  1.1464  0.0664 -4.8579
   93MOL0     H12248   9.530   2.189  -0.068  0.8779 -0.6562 -1.2073
   93MOL0     H12249   9.486   2.037  -0.149 -1.1362  0.0807 -1.3588
   93MOL0     H12250   9.336   2.246  -0.178 -1.8248  2.0965  0.8158
   93MOL0     H12251   9.274   2.211  -0.017 -0.9057  2.2477 -1.5037
   93MOL0     H12252   9.251   1.970  -0.111 -1.3580 -0.1122  1.2969
   93MOL0     H12253   9.280   2.032  -0.264  0.6738 -0.1717 -0.9746
   93MOL0     H12254   9.036   2.094  -0.069 -0.3075 -2.4635 -0.3810
   93MOL0     H12255   9.044   2.177  -0.237  3.5945  1.2142  0.8372
   93MOL0     H12256   8.881   1.997  -0.222 -0.2162 -3.2659  1.5133
   93MOL0     H12257   9.014   1.892  -0.161 -2.8836 -0.9835  1.2533
   93MOL0     H12258   9.723   1.584   0.188  3.4229 -0.0977  2.9078
   93MOL0     H12259   9.643   1.417   0.371 -0.9781 -0.0736 -2.6753
   93MOL0     H12260   9.267   1.378   0.862  0.3598 -0.0908  2.1306
   93MOL0     H12261   9.248   1.148   0.974 -1.3156 -1.7326 -1.3915
   93MOL0     H12262  11.032   0.995   0.516  1.0098 -1.2723  1.3213
   93MOL0     H12263  11.238   0.888   0.601 -0.8099  0.8728  0.6825
   93MOL0     H12264  11.672   0.693   0.366 -3.1170  0.9590  0.8772
   93MOL0     H12265  11.825   0.508   0.317 -0.4152  0.7150 -1.8477
   93MOL0     H12266  11.972   0.321   0.368 -0.3079  0.4082  0.8260
   93MOL0     H12267  11.890   0.310   0.210 -1.8611 -0.9602 -0.0030
   93MOL0     H12268  11.862   0.078   0.188  2.1333 -1.3780 -1.8513
   93MOL0     H12269  12.036   0.126   0.191  1.5043 -2.1613  0.6834
   93MOL0     H12270  11.973  -0.081   0.352 -1.0863  0.1148  2.1719
   93MOL0     H12271  11.908   0.035   0.452  0.1863 -1.5003  1.0885
   93MOL0     H12272  12.130   0.172   0.458 -0.0736  0.4701 -0.0886
   93MOL0     H12273  12.107   0.010   0.529 -1.7547 -2.5817 -2.3272
   93MOL0     H12274  12.370  -0.099   0.229 -0.8933 -1.3587 -1.1769
   93MOL0     H12275  11.569   0.226   0.486 -0.8713  0.9984  3.4036
   93MOL0     H12276  11.412   0.407   0.561 -0.6541  1.9957  0.0967
   94MOL0     O12277   8.417   1.003   6.608  0.0839  0.0862 -0.1464
   94MOL0     C12278   8.408   0.887   6.650  0.9286  0.9304  0.0457
   94MOL0     O12279   8.432   0.776   6.577  0.8893 -0.9519  0.1657
   94MOL0     C12280   8.476   0.810   6.447  0.3791  0.2265 -0.5298
   94MOL0     C12281   8.399   0.792   6.322  0.5704 -0.5688 -0.5615
   94MOL0     C12282   8.459   0.799   6.199 -0.8025 -1.3159  0.2806
   94MOL0     C12283   8.592   0.820   6.187  1.1413 -0.5805 -0.3907
   94MOL0     O12284   8.639   0.832   6.051  0.5052  1.1867  0.0251
   94MOL0     C12285   8.776   0.882   6.040  0.2171  0.7614 -0.4338
   94MOL0     C12286   8.821   0.884   5.894 -0.1368 -1.3085  0.0144
   94MOL0     C12287   8.770   1.018   5.828 -0.1666 -0.0708  0.2194
   94MOL0     C12288   8.617   1.035   5.837 -0.4682  0.5003  0.2695
   94MOL0     C12289   8.547   1.132   5.738  0.6431 -0.7117 -1.0103
   94MOL0     C12290   8.427   1.193   5.812  0.7123 -0.6190 -0.6934
   94MOL0     C12291   8.351   1.291   5.720 -0.0908 -0.5603 -0.3315
   94MOL0     C12292   8.218   1.346   5.787  0.8495 -0.6229 -0.0370
   94MOL0     N12293   8.145   1.459   5.707 -0.3381  0.1506 -0.7122
   94MOL0     C12294   8.016   1.458   5.672  0.3678 -0.1275  0.8126
   94MOL0     C12295   7.999   1.582   5.617  0.1592 -0.4336 -0.1551
   94MOL0     C12296   7.873   1.634   5.549 -0.5136 -0.8200  0.0465
   94MOL0     C12297   7.886   1.792   5.552 -0.7652  0.0711  0.0290
   94MOL0     C12298   7.931   1.863   5.414  0.0206 -0.1834  0.6497
   94MOL0     C12299   8.066   1.824   5.363 -0.0226 -0.6624 -0.8506
   94MOL0     O12300   8.098   1.899   5.250  0.9305 -0.5884  0.4918
   94MOL0     C12301   8.141   1.829   5.134  0.4719  0.2144  0.2653
   94MOL0     C12302   8.087   1.708   5.098  0.2299 -0.5480 -0.9084
   94MOL0     C12303   8.142   1.627   5.001  0.7123 -0.6967 -0.2245
   94MOL0     C12304   8.265   1.659   4.945 -0.2333  0.6892  0.9039
   94MOL0     C12305   8.344   1.569   4.859  0.4493  0.1959  0.4675
   94MOL0     O12306   8.283   1.447   4.843  0.8455  0.0214 -0.1983
   94MOL0     C12307   8.326   1.344   4.762  0.2866 -0.1665 -0.6079
   94MOL0     C12308   8.242   1.301   4.661  0.7868  0.2857 -0.2898
   94MOL0     C12309   8.288   1.208   4.573 -0.5334  0.0504  0.0484
   94MOL0     C12310   8.418   1.150   4.582  1.1666  0.1718 -0.8495
   94MOL0     O12311   8.452   1.065   4.482  0.6984  0.4620  0.3954
   94MOL0     C12312   8.579   1.086   4.421  0.3300 -0.5230  1.0485
   94MOL0     C12313   8.565   1.051   4.274 -0.7316  0.2139  0.0323
   94MOL0     C12314   8.706   1.057   4.208 -0.4206 -0.0337  0.3637
   94MOL0     C12315   8.693   1.028   4.054  0.8631 -0.5350  0.5911
   94MOL0     C12316   8.812   1.084   3.976 -0.6187  0.1368  0.0134
   94MOL0     C12317   8.812   1.075   3.816 -0.1236  0.3072  0.3578
   94MOL0     C12318   8.771   0.935   3.763  0.3944 -0.3456  0.5557
   94MOL0     C12319   8.730   0.913   3.613 -0.7618 -0.5544  0.3522
   94MOL0    Cl12320   8.878   0.906   3.511 -0.3789 -0.1346 -0.0159
   94MOL0     C12321   8.505   1.182   4.687 -0.5815 -0.5441 -0.2135
   94MOL0     C12322   8.452   1.288   4.769 -0.4532  0.5313 -0.7733
   94MOL0     O12323   8.454   1.600   4.819 -0.4763 -0.4173  0.0070
   94MOL0     C12324   8.327   1.781   4.985 -0.5271 -0.2494 -0.0258
   94MOL0     C12325   8.268   1.855   5.082 -0.0134  0.0519  0.0064
   94MOL0     N12326   8.113   1.656   5.618 -0.3169 -0.2779  0.9243
   94MOL0     N12327   8.202   1.579   5.677  0.3296 -0.1628  0.8704
   94MOL0     C12328   8.667   0.843   6.303 -0.2370  0.4559  0.1903
   94MOL0     C12329   8.607   0.823   6.428 -0.3936 -0.1830  0.6034
   94MOL0     C12330   8.354   0.878   6.788  0.6861  0.0636 -0.9345
   94MOL0     C12331   8.359   0.989   6.883  0.4546 -0.0585  0.9712
   94MOL0     C12332   8.291   0.982   7.001  0.0410  0.3579  1.4409
   94MOL0     C12333   8.195   0.881   7.022 -0.1197  0.3881 -0.0087
   94MOL0     O12334   8.109   0.892   7.131 -0.1675 -0.5746  0.5255
   94MOL0     C12335   8.029   0.786   7.169  0.7884  0.0670 -0.4752
   94MOL0     C12336   7.936   0.816   7.288 -0.7192  0.2325 -0.1326
   94MOL0     C12337   7.893   0.696   7.365 -0.9816  0.0987 -0.1870
   94MOL0     C12338   7.909   0.715   7.514 -0.2534 -0.7150 -0.1381
   94MOL0     C12339   7.884   0.584   7.577  0.2106  0.4331 -0.3566
   94MOL0     C12340   7.843   0.488   7.635 -0.5004  0.3674  0.3489
   94MOL0     C12341   8.200   0.768   6.937 -0.6887  0.0269  0.5447
   94MOL0     C12342   8.278   0.762   6.824 -0.5079  0.3789  0.1437
   94MOL0     H12343   8.299   0.763   6.352  1.9479 -3.1839  2.0019
   94MOL0     H12344   8.409   0.786   6.104  0.0422  1.9380 -0.7544
   94MOL0     H12345   8.844   0.818   6.096 -3.4063 -1.7406  1.5030
   94MOL0     H12346   8.781   0.982   6.085  2.4880 -0.2958  1.8965
   94MOL0     H12347   8.779   0.798   5.841 -3.5274 -0.4189  1.0190
   94MOL0     H12348   8.928   0.861   5.887 -0.2761 -1.3670 -3.3563
   94MOL0     H12349   8.795   1.002   5.723  1.4844 -0.8544  0.7032
   94MOL0     H12350   8.817   1.112   5.859 -0.3702  0.0354  0.2091
   94MOL0     H12351   8.579   0.934   5.820 -0.5672  0.6329 -0.3073
   94MOL0     H12352   8.596   1.061   5.942  0.4781 -1.6072  1.0445
   94MOL0     H12353   8.520   1.076   5.648  1.0179 -0.2674 -1.4109
   94MOL0     H12354   8.613   1.217   5.718 -0.5064  0.5327  0.2770
   94MOL0     H12355   8.473   1.252   5.892  0.9507 -0.2493 -1.1041
   94MOL0     H12356   8.353   1.115   5.832 -0.6934  0.3271 -1.9789
   94MOL0     H12357   8.415   1.376   5.693 -4.0013  1.6359 -3.8034
   94MOL0     H12358   8.324   1.244   5.625 -1.9616  2.3579 -1.3814
   94MOL0     H12359   8.236   1.379   5.890 -2.6688 -0.8181  0.7800
   94MOL0     H12360   8.151   1.268   5.824  1.1388 -1.2457 -0.8048
   94MOL0     H12361   7.958   1.367   5.659 -1.4556  0.8329  1.8510
   94MOL0     H12362   7.788   1.588   5.599 -0.1601 -1.0768  0.4181
   94MOL0     H12363   7.881   1.609   5.443  0.2418  1.1613 -0.4025
   94MOL0     H12364   7.946   1.828   5.635 -0.8949  0.7457 -0.1671
   94MOL0     H12365   7.789   1.836   5.573 -0.0936  1.0420  1.1833
   94MOL0     H12366   7.860   1.840   5.334 -0.1261  0.9664  0.4283
   94MOL0     H12367   7.920   1.969   5.436  1.8310  0.6888 -2.1664
   94MOL0     H12368   8.079   1.715   5.361 -0.7949 -0.8568  1.7639
   94MOL0     H12369   8.129   1.862   5.443 -1.9127  1.3141 -0.1963
   94MOL0     H12370   7.998   1.683   5.154 -0.3445  2.7809 -0.1499
   94MOL0     H12371   8.076   1.544   4.979  1.8498 -2.1783  1.5833
   94MOL0     H12372   8.149   1.353   4.641  0.5324 -0.3684 -0.8586
   94MOL0     H12373   8.228   1.197   4.483 -0.6913 -1.1337  0.2774
   94MOL0     H12374   8.647   1.007   4.454 -0.4303 -1.2241  0.9689
   94MOL0     H12375   8.637   1.179   4.426  2.8488 -1.8434 -0.7303
   94MOL0     H12376   8.492   1.118   4.228  1.2593  1.5528 -1.3908
   94MOL0     H12377   8.525   0.950   4.262  2.2911 -0.9561 -1.3511
   94MOL0     H12378   8.760   0.974   4.256 -0.9482  0.8305  2.5729
   94MOL0     H12379   8.753   1.152   4.233  0.8874  0.1585 -2.4425
   94MOL0     H12380   8.681   0.919   4.049  0.6849 -0.6617  2.8789
   94MOL0     H12381   8.597   1.058   4.012 -0.7626 -4.3132  1.1564
   94MOL0     H12382   8.895   1.026   4.020 -1.9503 -3.7779 -2.1458
   94MOL0     H12383   8.818   1.188   4.009  4.3014  0.7512 -1.9332
   94MOL0     H12384   8.914   1.109   3.799  0.7210 -0.4198  3.3776
   94MOL0     H12385   8.759   1.150   3.756  3.3153  1.4253 -1.5879
   94MOL0     H12386   8.844   0.855   3.781 -1.0627 -1.7263  0.4952
   94MOL0     H12387   8.692   0.897   3.829 -0.7031  1.6276  0.4527
   94MOL0     H12388   8.674   0.997   3.570  1.0195  0.1331 -0.7099
   94MOL0     H12389   8.675   0.818   3.608  1.7186 -2.0018 -2.2853
   94MOL0     H12390   8.606   1.144   4.700 -0.4830 -1.7889 -3.5849
   94MOL0     H12391   8.518   1.321   4.849 -0.4773 -0.2261 -0.4336
   94MOL0     H12392   8.426   1.811   4.955  0.2441 -2.9282 -0.4235
   94MOL0     H12393   8.333   1.928   5.129  2.1190  0.0528 -2.6766
   94MOL0     H12394   8.773   0.863   6.313 -0.5080  1.6963  0.7200
   94MOL0     H12395   8.675   0.817   6.513 -1.6111  1.0315  1.7112
   94MOL0     H12396   8.419   1.076   6.862 -1.0255  0.3382 -2.0757
   94MOL0     H12397   8.302   1.068   7.067  1.3581  2.0781 -0.8968
   94MOL0     H12398   8.096   0.703   7.194  0.9001  0.2849 -0.0347
   94MOL0     H12399   7.976   0.750   7.080  4.1771 -4.1544 -1.1378
   94MOL0     H12400   7.980   0.894   7.350 -3.9237  2.3267 -0.2274
   94MOL0     H12401   7.844   0.866   7.254 -0.0890  1.6138  0.1145
   94MOL0     H12402   7.958   0.611   7.341  1.9430  2.5376 -1.6842
   94MOL0     H12403   7.788   0.671   7.351  0.0877 -5.9064 -0.1003
   94MOL0     H12404   8.013   0.745   7.528  0.5630 -3.7909  1.1646
   94MOL0     H12405   7.835   0.789   7.546  0.3518 -0.1702  0.0239
   94MOL0     H12406   7.808   0.401   7.687  0.3542 -0.0380  0.2450
   94MOL0     H12407   8.138   0.682   6.961 -4.0795  1.6815 -1.4721
   94MOL0     H12408   8.258   0.678   6.758 -1.7079 -0.3604  1.3887
   95MOL0     O12409  10.213   4.768   4.214 -1.3906 -0.5857 -0.3211
   95MOL0     C12410  10.115   4.785   4.144 -0.1166  0.2917 -0.0384
   95MOL0     O12411  10.101   4.890   4.071  0.0473 -1.0002 -0.2550
   95MOL0     C12412  10.166   5.010   4.107  0.4362 -0.0398 -0.0571
   95MOL0     C12413  10.100   5.080   4.211 -0.1431  0.9371 -0.1160
   95MOL0     C12414  10.162   5.189   4.267  0.6554  0.4375  0.8345
   95MOL0     C12415  10.292   5.238   4.220 -0.2403  0.3376  0.6246
   95MOL0     O12416  10.374   5.339   4.260 -0.1463  0.0016  0.1233
   95MOL0     C12417  10.334   5.400   4.382  0.6327  0.0480  0.0030
   95MOL0     C12418  10.416   5.528   4.389  0.7170  0.2564 -0.2180
   95MOL0     C12419  10.353   5.623   4.491  0.2856 -0.3812 -0.6611
   95MOL0     C12420  10.430   5.754   4.473 -1.0128 -0.2867 -0.3521
   95MOL0     C12421  10.353   5.865   4.541  1.5744  0.8564  0.0733
   95MOL0     C12422  10.410   6.005   4.543 -0.1414 -0.4821  0.3724
   95MOL0     C12423  10.548   6.017   4.596 -0.4366 -0.5482 -0.3741
   95MOL0     C12424  10.568   5.992   4.752 -1.4941  0.1089 -0.3492
   95MOL0     N12425  10.708   6.000   4.786  0.3075 -0.1999 -0.4623
   95MOL0     C12426  10.806   6.078   4.725 -0.7987  0.1967  1.4469
   95MOL0     C12427  10.926   6.053   4.786 -0.3221  0.6671  0.0893
   95MOL0     C12428  11.059   6.109   4.780 -0.1438 -0.1868 -0.2803
   95MOL0     C12429  11.122   6.163   4.917  0.4033  0.6035  0.1421
   95MOL0     C12430  11.055   6.292   4.954 -0.2582 -0.4779  0.4399
   95MOL0     C12431  10.907   6.300   4.972 -0.3969  0.3664 -0.3212
   95MOL0     O12432  10.880   6.410   5.064 -0.1589  0.4871  0.0049
   95MOL0     C12433  10.762   6.408   5.137 -0.7589  0.1789  1.1519
   95MOL0     C12434  10.743   6.479   5.261  0.6550  0.2218  0.5838
   95MOL0     C12435  10.619   6.471   5.318 -0.4295  0.4721 -0.6508
   95MOL0     C12436  10.509   6.416   5.268 -0.0836  0.0182  1.2894
   95MOL0     C12437  10.396   6.395   5.355  0.8380  0.3620  0.3907
   95MOL0     O12438  10.415   6.344   5.487 -0.2329 -0.3505  0.2669
   95MOL0     C12439  10.298   6.305   5.554 -0.2707 -0.2918  0.0403
   95MOL0     C12440  10.251   6.369   5.674  0.5239  0.1445  1.2618
   95MOL0     C12441  10.144   6.320   5.746  0.0323 -0.3919 -0.9435
   95MOL0     C12442  10.066   6.222   5.691 -0.4569 -0.9569 -0.1354
   95MOL0     O12443   9.959   6.186   5.769  0.3451 -0.0976 -0.3438
   95MOL0     C12444   9.877   6.081   5.716 -0.4808 -0.2921  0.6678
   95MOL0     C12445   9.784   6.023   5.826  0.7217  0.2597 -0.1735
   95MOL0     C12446   9.871   5.988   5.951  0.2392  1.5105 -0.5537
   95MOL0     C12447   9.949   5.857   5.948  0.7146  0.1285  1.4094
   95MOL0     C12448  10.062   5.849   6.054 -0.2632 -0.4010  1.0919
   95MOL0     C12449  10.005   5.860   6.196  0.1703  0.2430 -0.9624
   95MOL0     C12450  10.112   5.816   6.296  0.5995 -0.3148 -0.2568
   95MOL0     C12451  10.093   5.864   6.440  0.4550 -0.2175  0.4840
   95MOL0    Cl12452   9.959   5.775   6.516 -0.3983  0.0436  0.3759
   95MOL0     C12453  10.100   6.169   5.568  0.2530 -0.6537 -0.4763
   95MOL0     C12454  10.221   6.205   5.504  0.7173 -0.6171 -0.2446
   95MOL0     O12455  10.285   6.420   5.308  0.3559  0.3579 -0.6934
   95MOL0     C12456  10.518   6.360   5.141  0.6900 -0.1878  0.1040
   95MOL0     C12457  10.648   6.352   5.081  0.2735  0.1162 -0.5399
   95MOL0     N12458  10.893   5.955   4.875 -0.6338 -0.3881 -1.3584
   95MOL0     N12459  10.769   5.924   4.877 -0.1867  0.5476  0.0490
   95MOL0     C12460  10.361   5.157   4.119 -0.2185  0.1192  0.3531
   95MOL0     C12461  10.294   5.048   4.061  0.5207 -0.1640  0.7114
   95MOL0     C12462  10.008   4.687   4.141  0.0764  0.2710  0.5332
   95MOL0     C12463   9.914   4.694   4.025 -1.8865  0.0551 -0.1475
   95MOL0     C12464   9.796   4.622   4.012 -0.0438  1.1062 -0.8929
   95MOL0     C12465   9.791   4.514   4.105 -0.7673 -0.5191 -0.0340
   95MOL0     O12466   9.690   4.421   4.088 -0.3975 -1.4710  0.2211
   95MOL0     C12467   9.588   4.419   4.198  0.5815 -0.7601  0.3342
   95MOL0     C12468   9.534   4.559   4.236  0.0449 -0.0884 -0.1899
   95MOL0     C12469   9.390   4.549   4.293  0.0268  0.7603 -0.6432
   95MOL0     C12470   9.284   4.615   4.201  0.4387 -0.9580 -1.1217
   95MOL0     C12471   9.163   4.663   4.267  0.6755  0.8205  0.5828
   95MOL0     C12472   9.059   4.695   4.330 -0.4154 -0.3536 -0.6958
   95MOL0     C12473   9.895   4.492   4.208  0.8275  0.4731  0.3462
   95MOL0     C12474   9.993   4.586   4.230 -0.4530 -0.5658 -1.3539
   95MOL0     H12475   9.998   5.056   4.237  0.5318  3.0028  6.1272
   95MOL0     H12476  10.118   5.233   4.356 -0.4564  0.2435  0.4042
   95MOL0     H12477  10.360   5.326   4.458  0.5329  0.3990  0.3810
   95MOL0     H12478  10.228   5.427   4.377  0.3020 -1.1897  0.1679
   95MOL0     H12479  10.413   5.575   4.291 -0.3371 -1.3110 -0.9756
   95MOL0     H12480  10.520   5.500   4.408  0.3097  0.5497  3.1696
   95MOL0     H12481  10.353   5.597   4.597  1.4342 -0.9700 -0.7857
   95MOL0     H12482  10.248   5.644   4.467 -1.5269 -5.6706  1.0676
   95MOL0     H12483  10.534   5.746   4.505 -0.4429 -0.2663 -2.0735
   95MOL0     H12484  10.429   5.778   4.366  0.4274 -2.0433 -0.8052
   95MOL0     H12485  10.317   5.840   4.641  0.8744  1.2380 -0.0749
   95MOL0     H12486  10.252   5.876   4.502  2.5320  1.2777 -2.4376
   95MOL0     H12487  10.347   6.078   4.594  1.4975  0.4192  1.2006
   95MOL0     H12488  10.414   6.025   4.436  0.2805  0.1221  0.4920
   95MOL0     H12489  10.617   5.955   4.538  1.6407 -0.6164  1.9893
   95MOL0     H12490  10.576   6.122   4.583 -2.3562  0.0209 -0.1344
   95MOL0     H12491  10.527   5.898   4.789 -0.4650 -0.3553 -0.3617
   95MOL0     H12492  10.531   6.081   4.804 -1.1402 -0.3159  0.6542
   95MOL0     H12493  10.786   6.153   4.649 -1.1660  0.8511  2.1762
   95MOL0     H12494  11.063   6.191   4.707 -1.7126 -0.6175 -0.8775
   95MOL0     H12495  11.110   6.016   4.751 -1.6186 -0.9197 -0.5893
   95MOL0     H12496  11.228   6.188   4.919 -0.0019  2.5387  3.3894
   95MOL0     H12497  11.092   6.087   4.990 -1.6243  1.5486  0.3598
   95MOL0     H12498  11.107   6.330   5.042  2.7677  2.6379 -2.3625
   95MOL0     H12499  11.085   6.367   4.880 -2.3293 -0.7986 -0.8175
   95MOL0     H12500  10.863   6.207   5.009  1.7257 -1.5642 -2.3370
   95MOL0     H12501  10.859   6.322   4.876 -2.1799 -0.5141  0.3369
   95MOL0     H12502  10.825   6.541   5.296  3.2901 -0.4548 -3.6638
   95MOL0     H12503  10.608   6.517   5.416  0.3737  0.6018 -0.6117
   95MOL0     H12504  10.300   6.460   5.705 -4.4652  3.6244  0.2106
   95MOL0     H12505  10.118   6.378   5.833  0.5774  2.4686 -2.5426
   95MOL0     H12506   9.941   6.000   5.681 -0.0180  0.8799 -1.3809
   95MOL0     H12507   9.827   6.122   5.628  2.4368 -0.4579 -1.1839
   95MOL0     H12508   9.725   5.941   5.785  1.3453  0.0903 -0.7539
   95MOL0     H12509   9.708   6.096   5.855 -0.2929 -0.0737 -1.8473
   95MOL0     H12510   9.798   5.967   6.029 -0.3583 -0.2968 -1.5459
   95MOL0     H12511   9.942   6.067   5.975  1.4193  0.2282  0.2721
   95MOL0     H12512   9.883   5.774   5.975 -0.2778  1.1874  2.3488
   95MOL0     H12513   9.983   5.842   5.845 -1.6591 -1.8106  0.8016
   95MOL0     H12514  10.120   5.941   6.042  1.8353 -1.9946 -2.7692
   95MOL0     H12515  10.125   5.762   6.034  1.8303  1.0773  0.8538
   95MOL0     H12516   9.916   5.798   6.207  0.1317  0.5843  0.9992
   95MOL0     H12517   9.970   5.962   6.210  0.4113  0.6380 -2.9776
   95MOL0     H12518  10.117   5.707   6.287 -1.8005 -0.3973 -1.3555
   95MOL0     H12519  10.208   5.853   6.256  0.5090  1.7749  1.2699
   95MOL0     H12520  10.078   5.972   6.445 -0.5080 -0.2381 -1.2604
   95MOL0     H12521  10.184   5.835   6.494 -0.4310 -0.2361  2.0001
   95MOL0     H12522  10.029   6.099   5.526 -2.9280 -0.3244  3.7031
   95MOL0     H12523  10.231   6.157   5.407 -2.4795  1.4351 -1.7746
   95MOL0     H12524  10.434   6.329   5.081 -0.1107  4.8384 -1.9039
   95MOL0     H12525  10.654   6.302   4.984  0.1069 -0.9586 -0.0098
   95MOL0     H12526  10.468   5.173   4.111 -0.4898  2.0183  0.0045
   95MOL0     H12527  10.358   5.000   3.989  0.8283  2.4362 -0.8440
   95MOL0     H12528   9.939   4.769   3.950  1.8107 -0.7854  0.0357
   95MOL0     H12529   9.724   4.635   3.932  0.7534  3.1607 -1.3510
   95MOL0     H12530   9.621   4.377   4.294  0.2409  0.5056  1.0149
   95MOL0     H12531   9.498   4.362   4.173 -0.4636  0.5094  1.1084
   95MOL0     H12532   9.601   4.597   4.314  0.1188  0.8333 -0.6873
   95MOL0     H12533   9.545   4.639   4.162  1.2556  0.5416  0.6197
   95MOL0     H12534   9.380   4.592   4.394  0.9531  1.2639 -0.7514
   95MOL0     H12535   9.365   4.446   4.320  2.9851  0.5233  1.7110
   95MOL0     H12536   9.336   4.704   4.165  3.2545 -2.1388 -0.3365
   95MOL0     H12537   9.255   4.555   4.115  0.2668 -0.3856 -1.4594
   95MOL0     H12538   8.968   4.734   4.370 -0.0931  0.3256 -0.6102
   95MOL0     H12539   9.890   4.406   4.274  0.7489 -1.5990 -2.2135
   95MOL0     H12540  10.066   4.568   4.309 -2.3169 -0.5338  0.4669
   96MOL0     O12541   2.323   8.299   1.108 -0.1762  0.5665  0.5514
   96MOL0     C12542   2.312   8.247   1.217 -0.2804  0.4764 -1.0122
   96MOL0     O12543   2.243   8.302   1.330  0.9419 -0.3206  0.1442
   96MOL0     C12544   2.196   8.430   1.342  0.1275  0.2426  0.6824
   96MOL0     C12545   2.157   8.509   1.239  0.4008  0.1002 -0.7500
   96MOL0     C12546   2.119   8.643   1.262  0.4092  0.3679 -0.0550
   96MOL0     C12547   2.125   8.696   1.387  0.7967 -0.8622 -0.2656
   96MOL0     O12548   2.093   8.828   1.393  0.4342 -0.6568 -0.0941
   96MOL0     C12549   2.097   8.889   1.523 -0.3497 -0.2104  0.4647
   96MOL0     C12550   2.041   9.034   1.516  0.1962  0.1868  0.5200
   96MOL0     C12551   2.108   9.122   1.416 -0.3779 -0.2126 -0.6417
   96MOL0     C12552   2.056   9.265   1.423  0.8134 -1.1698 -0.4173
   96MOL0     C12553   2.034   9.329   1.559 -0.0420 -0.8835 -0.3163
   96MOL0     C12554   2.041   9.480   1.567 -0.8718 -0.0058 -0.5017
   96MOL0     C12555   2.034   9.543   1.719  0.4298 -0.0023  0.2860
   96MOL0     C12556   1.889   9.564   1.765 -0.4247  1.4687 -0.9525
   96MOL0     N12557   1.880   9.647   1.884  0.1879 -0.3571 -1.0691
   96MOL0     C12558   1.801   9.755   1.882 -0.4771 -0.0971 -0.6610
   96MOL0     C12559   1.855   9.846   1.972  1.1830  0.4859 -0.0581
   96MOL0     C12560   1.805   9.987   1.993  0.1596 -0.6580  0.7804
   96MOL0     C12561   1.648  10.004   1.998 -1.2561  0.7937  0.1171
   96MOL0     C12562   1.621  10.160   1.989  0.2996 -0.7495  0.7943
   96MOL0     C12563   1.470  10.171   2.017 -0.5912  0.8055 -0.1804
   96MOL0     O12564   1.452  10.194   2.157 -0.3387  0.8368 -0.0970
   96MOL0     C12565   1.332  10.240   2.200  1.8260  0.2184  0.0468
   96MOL0     C12566   1.312  10.321   2.319 -0.5028 -0.8493 -0.9651
   96MOL0     C12567   1.181  10.360   2.361  1.0706 -0.6401  0.6829
   96MOL0     C12568   1.066  10.308   2.279 -0.0723 -0.3423  0.3909
   96MOL0     C12569   0.921  10.318   2.315 -0.2774 -0.1193 -0.1212
   96MOL0     O12570   0.843  10.367   2.205 -0.8261 -0.1157  0.4157
   96MOL0     C12571   0.717  10.416   2.229  0.0435  0.6789  0.0269
   96MOL0     C12572   0.690  10.545   2.193  0.7730  0.5287 -0.7072
   96MOL0     C12573   0.562  10.603   2.229  0.2289  0.4664  0.2005
   96MOL0     C12574   0.465  10.532   2.286  0.7194 -0.0537 -0.5126
   96MOL0     O12575   0.332  10.564   2.309  0.0760  0.1679 -0.2021
   96MOL0     C12576   0.304  10.694   2.308  0.4672 -0.5441 -0.2314
   96MOL0     C12577   0.164  10.723   2.380  0.7379  0.1624 -0.3784
   96MOL0     C12578   0.167  10.854   2.463  0.9169 -0.4794  0.3522
   96MOL0     C12579   0.038  10.877   2.549 -0.0147  0.1115  0.0688
   96MOL0     C12580   0.050  10.996   2.651 -0.2875  0.0795  1.1290
   96MOL0     C12581   0.033  11.125   2.565  1.0382 -0.8895 -0.1018
   96MOL0     C12582   0.035  11.268   2.632 -0.4066  0.2906  0.4904
   96MOL0     C12583   0.181  11.317   2.661  0.6325 -0.0729  0.6324
   96MOL0    Cl12584   0.187  11.474   2.744  0.2650 -0.4190 -0.0853
   96MOL0     C12585   0.489  10.402   2.319 -0.2579  0.1047 -0.3713
   96MOL0     C12586   0.617  10.338   2.287  0.6995 -0.7183  0.8260
   96MOL0     O12587   0.889  10.325   2.434  0.1179 -0.0011  0.5959
   96MOL0     C12588   1.091  10.242   2.162  1.4001 -0.7953  0.1250
   96MOL0     C12589   1.220  10.204   2.126  0.0140 -1.3626  0.2598
   96MOL0     N12590   1.952   9.783   2.040  0.4699 -0.8196  0.4384
   96MOL0     N12591   1.976   9.664   1.991  0.0058 -0.2988  0.1996
   96MOL0     C12592   2.165   8.611   1.497  0.3173  0.6331  0.1972
   96MOL0     C12593   2.199   8.477   1.470 -0.5637 -0.3564 -0.2241
   96MOL0     C12594   2.371   8.109   1.228  0.1310  0.0176  0.5631
   96MOL0     C12595   2.462   8.048   1.138  0.2672 -0.7041 -0.1584
   96MOL0     C12596   2.504   7.912   1.150  1.2306 -0.3116  0.6342
   96MOL0     C12597   2.453   7.837   1.254 -0.5323 -0.6443  0.4781
   96MOL0     O12598   2.483   7.709   1.278  0.5483  0.3988  0.2926
   96MOL0     C12599   2.514   7.629   1.170  0.2420 -0.0878 -0.5457
   96MOL0     C12600   2.531   7.479   1.211  0.7350 -0.1716  0.7380
   96MOL0     C12601   2.597   7.456   1.344  0.1506 -0.1670  0.4122
   96MOL0     C12602   2.739   7.504   1.354  0.9837  1.4500 -0.9290
   96MOL0     C12603   2.825   7.403   1.297  0.4688 -0.3355  0.2918
   96MOL0     C12604   2.917   7.332   1.256  0.4856  0.4356 -0.0520
   96MOL0     C12605   2.371   7.897   1.347 -0.4123  0.0690 -0.3676
   96MOL0     C12606   2.322   8.028   1.332  0.1317  0.6767 -0.4572
   96MOL0     H12607   2.157   8.470   1.138 -1.9551  0.0249 -0.7589
   96MOL0     H12608   2.076   8.687   1.172  1.0925 -0.8135 -1.0023
   96MOL0     H12609   2.201   8.895   1.555  0.5008 -1.0737 -1.9115
   96MOL0     H12610   2.046   8.815   1.585  2.0614 -2.2522  0.1864
   96MOL0     H12611   2.040   9.072   1.618 -0.3767 -2.1676  1.4490
   96MOL0     H12612   1.935   9.033   1.491 -0.3604  1.0059  2.6324
   96MOL0     H12613   2.104   9.083   1.314  1.0407 -0.6026 -0.5689
   96MOL0     H12614   2.213   9.115   1.445 -0.9109 -1.7007  1.1092
   96MOL0     H12615   2.128   9.327   1.368  1.2892 -2.4474 -1.2652
   96MOL0     H12616   1.961   9.269   1.370  1.5100 -1.1809 -1.7030
   96MOL0     H12617   2.118   9.302   1.624  4.0902  3.3974 -3.1728
   96MOL0     H12618   1.936   9.301   1.599 -1.0002  1.4633 -0.8443
   96MOL0     H12619   1.969   9.532   1.503 -0.8966 -2.0187 -2.2170
   96MOL0     H12620   2.141   9.499   1.526 -0.1450 -1.5181  0.4834
   96MOL0     H12621   2.088   9.477   1.787 -2.1629 -0.6620  1.8671
   96MOL0     H12622   2.083   9.640   1.731 -0.7186  1.1194 -2.8894
   96MOL0     H12623   1.844   9.469   1.795  2.3785  0.8026  1.6929
   96MOL0     H12624   1.825   9.606   1.687 -0.7882  0.5636 -1.1536
   96MOL0     H12625   1.729   9.776   1.804 -1.3043 -0.0728  0.0846
   96MOL0     H12626   1.840  10.036   1.902  1.3895 -1.7207  0.6527
   96MOL0     H12627   1.850  10.034   2.080 -2.9710  3.9373  0.2831
   96MOL0     H12628   1.603   9.964   2.090 -3.9557 -0.8781 -1.7858
   96MOL0     H12629   1.604   9.959   1.909  0.7516 -1.9357  0.3765
   96MOL0     H12630   1.688  10.214   2.057  2.4034 -3.6313  1.2226
   96MOL0     H12631   1.626  10.190   1.884 -0.3357 -0.3743  0.8697
   96MOL0     H12632   1.415  10.084   1.981 -1.8360  2.8921 -3.8598
   96MOL0     H12633   1.432  10.249   1.950  0.1700 -1.3211 -3.2936
   96MOL0     H12634   1.401  10.355   2.372 -0.3223  1.1988 -2.4693
   96MOL0     H12635   1.188  10.415   2.455  3.5154 -2.8188  1.8968
   96MOL0     H12636   0.774  10.601   2.155  2.1376 -1.6043 -0.9778
   96MOL0     H12637   0.547  10.706   2.197 -0.2936  0.6913  1.1477
   96MOL0     H12638   0.289  10.726   2.204 -2.8893 -1.0669 -0.0115
   96MOL0     H12639   0.377  10.765   2.348 -1.7279  2.7114 -1.4792
   96MOL0     H12640   0.149  10.651   2.461 -0.2351  0.1452 -0.5632
   96MOL0     H12641   0.076  10.707   2.317 -2.2985  0.8101  3.3355
   96MOL0     H12642   0.166  10.934   2.389 -0.1141 -1.9002 -1.2389
   96MOL0     H12643   0.247  10.845   2.537 -0.4779  0.9947  2.1537
   96MOL0     H12644  -0.036  10.882   2.469  2.3415  0.2235 -2.2096
   96MOL0     H12645   0.019  10.788   2.609 -1.4860  0.9467  0.9093
   96MOL0     H12646   0.150  10.983   2.694 -0.6757  0.0699  2.0523
   96MOL0     H12647  -0.030  10.980   2.724 -2.0213  0.8743 -0.4980
   96MOL0     H12648  -0.066  11.124   2.519 -0.2799 -1.6248  2.5265
   96MOL0     H12649   0.096  11.122   2.476 -1.1870  0.8381 -1.8749
   96MOL0     H12650  -0.003  11.342   2.560  2.5077  0.8205 -0.6435
   96MOL0     H12651  -0.043  11.271   2.708 -2.0717  1.7193 -1.1716
   96MOL0     H12652   0.243  11.312   2.571 -1.2689  4.6819 -1.2988
   96MOL0     H12653   0.223  11.249   2.735 -0.4150 -1.2032  0.2068
   96MOL0     H12654   0.413  10.342   2.368 -0.8408  1.5797  0.5704
   96MOL0     H12655   0.654  10.244   2.327 -0.5326 -2.0136 -0.9461
   96MOL0     H12656   1.005  10.211   2.103 -0.2692  1.1087  1.3979
   96MOL0     H12657   1.232  10.134   2.044 -0.2259 -1.4183  0.2718
   96MOL0     H12658   2.168   8.645   1.600 -2.2973 -2.5028  1.4966
   96MOL0     H12659   2.216   8.417   1.559 -0.0476 -0.4888 -0.4114
   96MOL0     H12660   2.497   8.107   1.054 -0.4084  2.4488  1.5801
   96MOL0     H12661   2.582   7.881   1.081  0.3932 -0.8285 -0.1036
   96MOL0     H12662   2.607   7.659   1.121  0.2899  0.7843  0.0416
   96MOL0     H12663   2.439   7.643   1.092  0.9377  2.6016 -0.8495
   96MOL0     H12664   2.437   7.426   1.188  1.8775 -2.1909  0.4970
   96MOL0     H12665   2.595   7.430   1.137  0.5429  0.2125  0.3093
   96MOL0     H12666   2.600   7.349   1.369 -2.2165 -0.2971  0.4104
   96MOL0     H12667   2.534   7.505   1.419 -0.2314 -0.6215  0.4002
   96MOL0     H12668   2.754   7.604   1.311  1.3722  2.4542  1.4009
   96MOL0     H12669   2.771   7.508   1.458 -0.2309 -1.0401 -0.3727
   96MOL0     H12670   2.991   7.265   1.216 -0.0289  0.8030 -1.6980
   96MOL0     H12671   2.337   7.834   1.428 -1.9401 -1.2086 -1.9199
   96MOL0     H12672   2.260   8.060   1.414 -0.4862  1.9136 -1.3677
   97MOL0     O12673   3.032   1.768   4.588 -0.9653 -0.0675 -0.9737
   97MOL0     C12674   3.088   1.870   4.640 -0.4788  0.5337  1.1804
   97MOL0     O12675   3.030   2.000   4.642  0.4280  0.0256 -0.3174
   97MOL0     C12676   2.907   2.022   4.578  0.0104  0.0277 -0.3723
   97MOL0     C12677   2.892   2.137   4.491  0.3465  0.4509 -1.1980
   97MOL0     C12678   2.763   2.170   4.441 -1.4187 -0.2730 -0.2132
   97MOL0     C12679   2.648   2.105   4.475  0.0657  0.9540 -0.8701
   97MOL0     O12680   2.525   2.133   4.428  0.4297  0.6951 -0.4895
   97MOL0     C12681   2.446   2.024   4.379  0.0034  0.2536 -0.4200
   97MOL0     C12682   2.321   2.077   4.302 -0.6629  0.2667 -0.9845
   97MOL0     C12683   2.187   2.049   4.388 -0.7730 -0.2272  0.0868
   97MOL0     C12684   2.102   1.930   4.337 -0.5931 -0.9736 -0.5254
   97MOL0     C12685   1.960   1.942   4.363  0.2034 -0.4472  0.3498
   97MOL0     C12686   1.881   2.082   4.330 -0.1673  0.8369  0.1478
   97MOL0     C12687   1.749   2.097   4.403  0.2746  0.0505  0.6991
   97MOL0     C12688   1.656   2.212   4.358 -0.2982  0.4401  0.1613
   97MOL0     N12689   1.513   2.204   4.381 -0.6267 -0.7127 -0.0959
   97MOL0     C12690   1.451   2.238   4.489  0.3499  0.0485 -0.2887
   97MOL0     C12691   1.319   2.195   4.464  0.9023 -0.1253  0.7184
   97MOL0     C12692   1.208   2.210   4.564  0.1862 -0.0260  0.6730
   97MOL0     C12693   1.152   2.086   4.642  0.4006 -0.4665 -0.1466
   97MOL0     C12694   1.002   2.105   4.673  0.4925 -0.1880  0.1113
   97MOL0     C12695   0.971   2.206   4.783  0.6532 -0.4312  0.4380
   97MOL0     O12696   0.845   2.272   4.753  0.2504 -0.4167 -0.5235
   97MOL0     C12697   0.792   2.347   4.848 -0.2011 -0.0634 -0.0331
   97MOL0     C12698   0.829   2.362   4.982  0.3621  0.5991  0.6756
   97MOL0     C12699   0.740   2.432   5.067 -0.4989  0.4166 -0.6756
   97MOL0     C12700   0.627   2.503   5.023 -0.6277  0.6184  0.9370
   97MOL0     C12701   0.557   2.593   5.112  0.2736 -0.0278 -0.1360
   97MOL0     O12702   0.419   2.605   5.090  0.2075 -0.7322  0.1255
   97MOL0     C12703   0.344   2.640   5.202  0.4660 -0.0406  0.2425
   97MOL0     C12704   0.314   2.533   5.287 -0.8548 -0.4120 -0.1643
   97MOL0     C12705   0.214   2.548   5.389 -0.2471 -0.0859  0.4828
   97MOL0     C12706   0.139   2.664   5.391  0.1720  0.3047  0.9184
   97MOL0     O12707   0.050   2.696   5.489 -0.2231  1.8661 -0.0712
   97MOL0     C12708  -0.091   2.678   5.457 -0.3367 -0.4086  0.6718
   97MOL0     C12709  -0.171   2.621   5.578  0.0155 -0.1878  0.1104
   97MOL0     C12710  -0.174   2.745   5.681  0.1310  0.0231  0.6638
   97MOL0     C12711  -0.279   2.716   5.780 -0.9651 -0.7341  0.2568
   97MOL0     C12712  -0.296   2.841   5.865 -0.3251  0.0466 -0.3631
   97MOL0     C12713  -0.343   2.805   6.004 -0.5315  0.0122 -0.3388
   97MOL0     C12714  -0.389   2.935   6.074  0.9247 -0.5866 -0.7365
   97MOL0     C12715  -0.448   2.903   6.214 -0.5955 -0.3508  0.3849
   97MOL0    Cl12716  -0.520   3.048   6.275 -0.3459 -0.1887 -0.0655
   97MOL0     C12717   0.158   2.766   5.295  0.8341  0.0566 -0.2692
   97MOL0     C12718   0.266   2.763   5.205  0.1822  0.2535  0.6613
   97MOL0     O12719   0.619   2.634   5.209 -0.0318  0.0294 -0.7307
   97MOL0     C12720   0.597   2.485   4.888  0.5335 -0.5535  0.4027
   97MOL0     C12721   0.686   2.409   4.802  1.4882 -1.0989 -0.8966
   97MOL0     N12722   1.302   2.162   4.329 -0.2086 -0.5969 -0.2549
   97MOL0     N12723   1.423   2.172   4.277  0.4599 -0.5860  0.0304
   97MOL0     C12724   2.665   1.995   4.577 -0.8931 -0.2565 -0.8863
   97MOL0     C12725   2.791   1.953   4.615 -0.6090 -0.5193 -0.3137
   97MOL0     C12726   3.217   1.859   4.709  0.6948  0.4676 -0.6084
   97MOL0     C12727   3.276   1.729   4.722 -0.5488 -0.2257 -0.3735
   97MOL0     C12728   3.386   1.707   4.800  0.1529  0.0636  0.5025
   97MOL0     C12729   3.457   1.804   4.853 -0.4255 -0.6030  0.5561
   97MOL0     O12730   3.565   1.772   4.931  0.4932  0.0650  0.0586
   97MOL0     C12731   3.631   1.867   5.008 -0.4987  0.1916 -1.0079
   97MOL0     C12732   3.732   1.778   5.082 -0.0225 -0.2309 -0.4699
   97MOL0     C12733   3.644   1.683   5.175 -0.0718  1.5325  1.0842
   97MOL0     C12734   3.665   1.543   5.134 -0.4878 -0.8762  0.0911
   97MOL0     C12735   3.780   1.475   5.193 -0.6676 -0.4292 -0.5632
   97MOL0     C12736   3.863   1.425   5.265 -0.6284  0.8746  0.5006
   97MOL0     C12737   3.409   1.934   4.833 -0.3789  0.5878  0.4714
   97MOL0     C12738   3.294   1.959   4.760 -0.2686  0.3061 -0.1466
   97MOL0     H12739   2.979   2.202   4.484  1.5750 -1.0566 -0.5823
   97MOL0     H12740   2.759   2.260   4.381 -1.9237  0.0567  0.3082
   97MOL0     H12741   2.412   1.975   4.471 -2.6737  3.5502  0.5655
   97MOL0     H12742   2.513   1.957   4.325  0.3530 -2.3952  2.9526
   97MOL0     H12743   2.315   2.031   4.203 -2.5985  0.1614 -0.8492
   97MOL0     H12744   2.339   2.184   4.292  0.2074  0.2478  0.1881
   97MOL0     H12745   2.125   2.135   4.361  1.7206  1.5394 -0.3515
   97MOL0     H12746   2.203   2.049   4.496 -1.8099  1.1061  0.2695
   97MOL0     H12747   2.120   1.918   4.230 -1.4190  3.1300 -1.2854
   97MOL0     H12748   2.148   1.845   4.389  1.7974  0.3416 -0.3257
   97MOL0     H12749   1.963   1.947   4.472  0.1414  0.9926  0.3050
   97MOL0     H12750   1.908   1.850   4.331 -2.5954 -0.1713  3.4765
   97MOL0     H12751   1.847   2.068   4.227 -2.1974  1.9025  0.6077
   97MOL0     H12752   1.940   2.172   4.349  0.4121  0.8128 -1.3959
   97MOL0     H12753   1.708   1.997   4.382  0.6642  0.3449 -1.8645
   97MOL0     H12754   1.760   2.101   4.511  0.4592 -1.3426  0.7498
   97MOL0     H12755   1.659   2.213   4.248 -2.5452 -2.1443 -0.0378
   97MOL0     H12756   1.704   2.301   4.400  1.1682 -0.3882  0.3126
   97MOL0     H12757   1.489   2.285   4.580  1.7723 -1.4037 -0.0996
   97MOL0     H12758   1.121   2.263   4.524 -0.6261 -1.5360  0.3319
   97MOL0     H12759   1.251   2.275   4.640  1.2714 -0.4895  0.4661
   97MOL0     H12760   1.215   2.070   4.730  2.0064  0.8237 -1.0246
   97MOL0     H12761   1.171   2.010   4.566  0.7405  2.7517 -3.5768
   97MOL0     H12762   0.964   2.147   4.579  0.1915 -2.9557 -1.1062
   97MOL0     H12763   0.950   2.010   4.689  3.2736 -1.7550  0.4745
   97MOL0     H12764   1.052   2.279   4.783  0.0755  0.3161 -1.8155
   97MOL0     H12765   0.981   2.151   4.876  0.9806 -0.2925  0.4875
   97MOL0     H12766   0.914   2.314   5.029 -2.0242 -2.7108  2.0232
   97MOL0     H12767   0.770   2.449   5.170 -1.2824  2.6192 -0.7641
   97MOL0     H12768   0.374   2.443   5.282  2.6678  1.6804  0.4766
   97MOL0     H12769   0.204   2.466   5.459 -2.7149 -1.0156 -0.8206
   97MOL0     H12770  -0.106   2.617   5.368 -0.7211 -0.3836  0.7171
   97MOL0     H12771  -0.122   2.779   5.426 -1.1242 -1.0287 -0.6286
   97MOL0     H12772  -0.122   2.531   5.615 -1.6816 -2.3307 -2.4708
   97MOL0     H12773  -0.274   2.603   5.547  0.3134 -0.6958 -0.5981
   97MOL0     H12774  -0.188   2.844   5.636  0.0277  0.0301  0.7102
   97MOL0     H12775  -0.073   2.732   5.722  0.5578 -1.5575 -0.8086
   97MOL0     H12776  -0.379   2.693   5.743 -0.5193 -3.5061  0.5059
   97MOL0     H12777  -0.246   2.629   5.837  1.3817  0.3039  0.6084
   97MOL0     H12778  -0.377   2.891   5.811 -0.7920 -1.4587 -1.1176
   97MOL0     H12779  -0.205   2.899   5.878  0.2050 -0.2318 -2.5712
   97MOL0     H12780  -0.258   2.767   6.062  0.4529  2.2699 -0.1773
   97MOL0     H12781  -0.423   2.731   6.003  0.5929 -1.3128  1.6206
   97MOL0     H12782  -0.302   3.001   6.080 -1.6144  3.4849 -3.7468
   97MOL0     H12783  -0.461   2.989   6.012  0.7779 -0.1774 -0.2170
   97MOL0     H12784  -0.372   2.889   6.291 -0.4381  1.2663  0.5669
   97MOL0     H12785  -0.518   2.819   6.218 -1.0347 -0.1982 -2.3864
   97MOL0     H12786   0.103   2.859   5.309  0.0380 -0.6219  1.3169
   97MOL0     H12787   0.291   2.847   5.141  0.0752 -0.1238  0.1115
   97MOL0     H12788   0.532   2.555   4.837  3.2678  1.4935 -0.5134
   97MOL0     H12789   0.664   2.414   4.696 -1.6156  1.6021 -0.3036
   97MOL0     H12790   2.583   1.946   4.629 -1.0685  0.3139 -0.6221
   97MOL0     H12791   2.793   1.871   4.686 -1.7385 -1.2323 -1.0787
   97MOL0     H12792   3.228   1.639   4.685  0.9588 -0.5019 -1.7789
   97MOL0     H12793   3.426   1.608   4.819 -0.8336 -0.0759  1.9870
   97MOL0     H12794   3.562   1.922   5.073 -1.9409 -2.1026 -0.4737
   97MOL0     H12795   3.687   1.935   4.943  2.0437 -0.9227 -0.1095
   97MOL0     H12796   3.785   1.726   5.002  0.4347  1.4622 -1.3136
   97MOL0     H12797   3.804   1.835   5.141 -0.5236  1.6860 -1.5844
   97MOL0     H12798   3.537   1.703   5.170 -0.4534 -0.3871  0.8197
   97MOL0     H12799   3.689   1.698   5.273 -0.0716 -0.0972  1.3549
   97MOL0     H12800   3.578   1.483   5.162  0.0173 -0.3430  3.1978
   97MOL0     H12801   3.679   1.558   5.026  2.4204  1.0361  0.6188
   97MOL0     H12802   3.938   1.395   5.334  1.6783  0.9702 -1.8023
   97MOL0     H12803   3.468   2.023   4.849 -3.6704  3.2149 -0.6809
   97MOL0     H12804   3.257   2.060   4.744  0.9958  1.3564  2.8988
   98MOL0     O12805   3.525   4.426   8.744 -0.2758 -0.3594  0.1685
   98MOL0     C12806   3.545   4.491   8.641  0.9155 -0.4999  0.4869
   98MOL0     O12807   3.452   4.555   8.573  0.0063 -0.2636 -1.2510
   98MOL0     C12808   3.322   4.538   8.620  0.1567 -0.0226  0.4539
   98MOL0     C12809   3.262   4.420   8.646  0.8351 -0.0596 -0.8701
   98MOL0     C12810   3.124   4.405   8.673  0.1117 -0.0935 -0.7706
   98MOL0     C12811   3.055   4.524   8.696 -0.7489 -0.6058 -0.8608
   98MOL0     O12812   2.923   4.538   8.737  0.4194  0.0221  0.2188
   98MOL0     C12813   2.834   4.423   8.731 -0.2661  0.2016  0.5042
   98MOL0     C12814   2.689   4.463   8.755 -0.6647  0.2639  0.1319
   98MOL0     C12815   2.588   4.356   8.715 -0.4752 -0.2259  0.3960
   98MOL0     C12816   2.442   4.412   8.704 -0.2670 -0.6388  0.3645
   98MOL0     C12817   2.349   4.298   8.689 -0.6349  0.2068  0.2991
   98MOL0     C12818   2.206   4.351   8.698  0.0886 -0.0227 -1.1288
   98MOL0     C12819   2.176   4.450   8.591 -0.1864  0.4892  0.2487
   98MOL0     C12820   2.159   4.403   8.447  0.2052  0.0679  0.3596
   98MOL0     N12821   2.066   4.486   8.375  0.5635  0.8956 -0.3453
   98MOL0     C12822   1.931   4.505   8.409  0.7832  0.3737 -0.0974
   98MOL0     C12823   1.885   4.590   8.307 -1.3916 -0.1502  0.2867
   98MOL0     C12824   1.751   4.649   8.282 -0.2296 -0.5946  0.7086
   98MOL0     C12825   1.656   4.539   8.240  0.2158 -1.0502 -0.2188
   98MOL0     C12826   1.511   4.573   8.287 -0.8044 -0.9654 -0.4518
   98MOL0     C12827   1.390   4.536   8.208 -0.3180 -0.4251 -0.1963
   98MOL0     O12828   1.263   4.563   8.269  1.2308  0.8043  0.2704
   98MOL0     C12829   1.229   4.696   8.287  1.4216 -0.1195  0.8863
   98MOL0     C12830   1.296   4.804   8.242 -0.2332 -0.6539  0.8907
   98MOL0     C12831   1.257   4.931   8.285  0.3813 -0.2483  0.8745
   98MOL0     C12832   1.148   4.952   8.373  0.2417  0.3946  0.8780
   98MOL0     C12833   1.118   5.077   8.420 -0.0148 -0.3215  0.0991
   98MOL0     O12834   1.006   5.138   8.365  0.8881  0.6245  0.4753
   98MOL0     C12835   0.963   5.266   8.405  0.5499 -0.0913  0.0778
   98MOL0     C12836   1.054   5.376   8.403  0.6380  0.6992  1.0444
   98MOL0     C12837   0.996   5.507   8.429 -0.8945 -0.5402  0.1846
   98MOL0     C12838   0.859   5.526   8.457 -1.2758 -0.5610  0.0696
   98MOL0     O12839   0.812   5.652   8.488  0.2541  0.0926 -0.1876
   98MOL0     C12840   0.830   5.688   8.628  0.4464  0.4803  0.0964
   98MOL0     C12841   0.755   5.818   8.661 -0.5589 -0.2334 -0.0876
   98MOL0     C12842   0.835   5.936   8.598  0.2854 -1.5426  1.1184
   98MOL0     C12843   0.799   6.069   8.677 -0.3706 -1.0279 -0.0096
   98MOL0     C12844   0.866   6.198   8.628 -1.0667 -0.1394 -0.4980
   98MOL0     C12845   0.795   6.259   8.501 -0.3089 -0.4057 -0.5481
   98MOL0     C12846   0.691   6.360   8.527 -0.0197 -1.1871  0.6066
   98MOL0     C12847   0.742   6.496   8.587  0.7443 -0.0146  0.5304
   98MOL0    Cl12848   0.593   6.603   8.580 -0.7679  0.2689 -0.2363
   98MOL0     C12849   0.775   5.416   8.472 -0.4565  0.8368 -0.6611
   98MOL0     C12850   0.828   5.287   8.434  0.0040 -0.4315 -0.3492
   98MOL0     O12851   1.201   5.136   8.490 -1.0458  0.1462  0.9720
   98MOL0     C12852   1.073   4.840   8.406  0.0053 -0.4083 -1.0070
   98MOL0     C12853   1.111   4.716   8.358  1.1873  0.0015 -1.1167
   98MOL0     N12854   1.994   4.616   8.223 -0.0769 -0.4933 -0.3206
   98MOL0     N12855   2.104   4.559   8.269 -0.0333 -0.6396 -0.0797
   98MOL0     C12856   3.113   4.644   8.662 -0.9404 -0.0131  0.4562
   98MOL0     C12857   3.240   4.657   8.612  0.3992  0.0837  0.5205
   98MOL0     C12858   3.676   4.492   8.577  1.0817  0.4730 -0.1490
   98MOL0     C12859   3.708   4.586   8.479 -0.0569  0.0662 -0.2730
   98MOL0     C12860   3.840   4.586   8.431  0.8881 -0.3955  0.2639
   98MOL0     C12861   3.932   4.488   8.464 -0.1665  0.3513  0.4321
   98MOL0     O12862   4.040   4.466   8.378 -0.3703  0.6441 -0.1464
   98MOL0     C12863   4.107   4.581   8.314 -0.2032  0.6704 -0.7592
   98MOL0     C12864   4.126   4.569   8.158  0.2301  0.2035  0.5290
   98MOL0     C12865   4.165   4.702   8.091  0.6262 -0.3970  0.6881
   98MOL0     C12866   4.306   4.716   8.017  0.2006 -0.0022 -0.5683
   98MOL0     C12867   4.326   4.601   7.927 -0.2588  0.8451 -1.1947
   98MOL0     C12868   4.314   4.511   7.848  0.9930 -0.3532 -0.3266
   98MOL0     C12869   3.894   4.387   8.563  0.0026  0.2538  0.3557
   98MOL0     C12870   3.769   4.397   8.624  0.6717  0.7524  1.0770
   98MOL0     H12871   3.312   4.325   8.627  0.5401 -0.5698  0.7278
   98MOL0     H12872   3.077   4.309   8.690 -3.4875  1.9456  2.0310
   98MOL0     H12873   2.861   4.340   8.797 -0.9280 -2.2340 -2.1052
   98MOL0     H12874   2.842   4.370   8.636  1.1331  0.2890  0.5492
   98MOL0     H12875   2.679   4.544   8.683 -1.4986  0.0272 -0.0306
   98MOL0     H12876   2.676   4.505   8.856 -0.7216  1.6670 -0.4373
   98MOL0     H12877   2.581   4.269   8.780 -0.9518  0.2470  0.9931
   98MOL0     H12878   2.605   4.311   8.617  0.6556 -0.2727  0.6007
   98MOL0     H12879   2.410   4.476   8.787  1.8498 -0.4016  1.0561
   98MOL0     H12880   2.440   4.474   8.614  2.2263  3.3686  2.7388
   98MOL0     H12881   2.355   4.222   8.767  1.5535 -0.0360 -0.0366
   98MOL0     H12882   2.364   4.237   8.599  1.3215  2.3955 -0.9953
   98MOL0     H12883   2.176   4.390   8.796  0.4254  0.4545 -1.2134
   98MOL0     H12884   2.124   4.279   8.689  0.5350 -0.4358 -1.8681
   98MOL0     H12885   2.074   4.474   8.623 -1.1496 -2.3224 -0.4425
   98MOL0     H12886   2.231   4.543   8.609  1.2684 -0.7721  2.7370
   98MOL0     H12887   2.112   4.304   8.444  0.7005 -0.2465  1.7817
   98MOL0     H12888   2.254   4.389   8.394 -0.4421 -2.5425 -0.2660
   98MOL0     H12889   1.884   4.470   8.500  1.7964  0.3841  0.4443
   98MOL0     H12890   1.758   4.732   8.211  1.3813  2.7025  4.3316
   98MOL0     H12891   1.708   4.682   8.378  0.0566  1.7265  0.1126
   98MOL0     H12892   1.684   4.443   8.285  0.9710 -0.3648  0.7986
   98MOL0     H12893   1.659   4.531   8.131 -0.4865  0.2331 -0.3490
   98MOL0     H12894   1.492   4.538   8.389 -1.4537  1.6845  0.4015
   98MOL0     H12895   1.512   4.681   8.274  0.7805 -0.7267  1.3761
   98MOL0     H12896   1.395   4.427   8.196  0.1942 -0.2435 -1.7592
   98MOL0     H12897   1.380   4.580   8.109 -0.9771  1.6605  0.7276
   98MOL0     H12898   1.375   4.812   8.168 -1.1382  1.9856  0.0986
   98MOL0     H12899   1.325   5.013   8.264 -0.3672  0.4749  1.2245
   98MOL0     H12900   1.158   5.352   8.389 -0.5198 -4.0133 -1.2685
   98MOL0     H12901   1.049   5.601   8.417  0.2140 -1.1841 -0.0414
   98MOL0     H12902   0.933   5.702   8.660  0.9996 -1.9548 -0.4813
   98MOL0     H12903   0.778   5.614   8.688 -3.0205 -0.5750 -3.7080
   98MOL0     H12904   0.751   5.824   8.770  0.5923  2.2819 -0.1153
   98MOL0     H12905   0.652   5.822   8.625  0.0732  0.9336 -1.8999
   98MOL0     H12906   0.823   5.943   8.490  0.7747  0.7724  1.1572
   98MOL0     H12907   0.942   5.919   8.612  0.6277 -0.0780  0.5388
   98MOL0     H12908   0.691   6.082   8.669  0.0281  1.2954 -3.7448
   98MOL0     H12909   0.830   6.046   8.780 -1.9227  1.9863  1.2525
   98MOL0     H12910   0.973   6.183   8.608 -0.8859 -1.0207  0.9999
   98MOL0     H12911   0.872   6.262   8.716 -3.2619 -0.5452  0.0079
   98MOL0     H12912   0.766   6.178   8.433  0.4017 -0.0850 -1.2550
   98MOL0     H12913   0.879   6.313   8.456  0.0537  3.3899  3.8937
   98MOL0     H12914   0.653   6.373   8.426  3.1611 -3.4091 -1.0290
   98MOL0     H12915   0.604   6.321   8.581 -0.0390 -1.9928  0.0037
   98MOL0     H12916   0.826   6.535   8.528 -0.3606 -1.4049 -2.1065
   98MOL0     H12917   0.775   6.474   8.689  2.6384  0.2056  0.0052
   98MOL0     H12918   0.672   5.423   8.504 -0.7356  0.5663 -1.4632
   98MOL0     H12919   0.762   5.201   8.428 -3.1537  1.9116 -4.0438
   98MOL0     H12920   0.991   4.845   8.476 -0.9655  2.1399 -2.1798
   98MOL0     H12921   1.057   4.631   8.399  2.2021  1.3453  3.5896
   98MOL0     H12922   3.048   4.729   8.643 -0.2017  1.0478  2.3954
   98MOL0     H12923   3.272   4.750   8.567 -0.7817  0.3863  0.2806
   98MOL0     H12924   3.639   4.662   8.444  2.1538  2.7090  0.7292
   98MOL0     H12925   3.858   4.673   8.369 -1.1868  2.2374  3.0430
   98MOL0     H12926   4.204   4.592   8.365 -1.7774  1.9005  2.2687
   98MOL0     H12927   4.051   4.673   8.332  0.9221  2.0510 -3.6973
   98MOL0     H12928   4.194   4.487   8.133 -0.4233 -0.6787  1.5532
   98MOL0     H12929   4.032   4.533   8.116  0.2037 -1.8706  2.1826
   98MOL0     H12930   4.162   4.778   8.170 -0.3476  0.3636 -0.0585
   98MOL0     H12931   4.088   4.727   8.018 -0.5239  2.4093  2.6874
   98MOL0     H12932   4.317   4.806   7.955 -0.3559 -0.1472 -0.8854
   98MOL0     H12933   4.386   4.707   8.091  0.0102 -1.7363 -0.5332
   98MOL0     H12934   4.284   4.437   7.776 -2.2044  1.5670 -1.1687
   98MOL0     H12935   3.956   4.307   8.601 -0.5857  0.4657  1.8293
   98MOL0     H12936   3.750   4.332   8.709  1.9414 -0.0516  0.7703
   99MOL0     O12937   8.384   7.614  10.826 -0.3908  0.5706  0.6447
   99MOL0     C12938   8.297   7.606  10.914  0.0922 -0.4277 -0.4464
   99MOL0     O12939   8.259   7.493  10.982 -0.8029 -0.1868  1.2037
   99MOL0     C12940   8.335   7.375  10.957  0.0451 -0.8343  0.0446
   99MOL0     C12941   8.360   7.297  11.069  0.3629 -0.3488 -0.8763
   99MOL0     C12942   8.391   7.168  11.062 -0.9758  0.7267 -0.1580
   99MOL0     C12943   8.430   7.106  10.937 -0.7488 -1.1640  0.1381
   99MOL0     O12944   8.437   6.970  10.915  0.2912 -0.4382 -0.8923
   99MOL0     C12945   8.477   6.907  10.791 -1.0287  0.0373 -0.6281
   99MOL0     C12946   8.463   6.754  10.813 -0.3454  0.1133 -0.1463
   99MOL0     C12947   8.597   6.684  10.855  0.1291 -0.3537  1.0036
   99MOL0     C12948   8.598   6.525  10.849  1.0213  0.0895 -0.1654
   99MOL0     C12949   8.490   6.472  10.938  0.7651 -0.5888 -0.3570
   99MOL0     C12950   8.487   6.324  10.994 -0.7095  0.9150  0.1123
   99MOL0     C12951   8.529   6.206  10.910  0.3219  1.3297  0.2962
   99MOL0     C12952   8.432   6.145  10.806  0.6468  0.1298 -0.5645
   99MOL0     N12953   8.335   6.066  10.884  0.2955 -0.5975  0.6954
   99MOL0     C12954   8.364   5.965  10.970 -0.2907 -0.4417  0.6899
   99MOL0     C12955   8.246   5.931  11.020 -0.4162  0.1830  0.4680
   99MOL0     C12956   8.237   5.843  11.146 -0.2296 -0.4229  0.0647
   99MOL0     C12957   8.212   5.928  11.276 -0.8199  0.3445 -0.3867
   99MOL0     C12958   8.198   5.845  11.399  0.2563 -0.2263  0.5438
   99MOL0     C12959   8.253   5.907  11.525  0.0041 -0.3990 -0.9193
   99MOL0     O12960   8.161   6.005  11.581 -0.4131  1.5012 -0.4334
   99MOL0     C12961   8.188   6.058  11.705  0.1211 -0.5086 -0.5760
   99MOL0     C12962   8.315   6.134  11.731  0.5805  0.4076  0.0800
   99MOL0     C12963   8.338   6.192  11.857 -0.0227 -0.6155  0.2598
   99MOL0     C12964   8.240   6.182  11.963  1.0540 -0.1433  0.3954
   99MOL0     C12965   8.277   6.235  12.092 -1.1641  0.2299 -0.6207
   99MOL0     O12966   8.409   6.269  12.116 -0.1512 -0.9476 -1.0925
   99MOL0     C12967   8.453   6.260  12.245 -0.3364  0.1611  0.1972
   99MOL0     C12968   8.511   6.371  12.303 -0.0488 -0.0218 -0.5572
   99MOL0     C12969   8.526   6.376  12.444  0.4721 -0.1572 -0.1874
   99MOL0     C12970   8.518   6.263  12.526  0.3089 -0.6713  0.0464
   99MOL0     O12971   8.549   6.252  12.658 -0.0063  0.3830  0.0028
   99MOL0     C12972   8.688   6.242  12.690 -0.7701 -0.8772 -0.0502
   99MOL0     C12973   8.744   6.108  12.690  0.1344 -0.3552 -0.0303
   99MOL0     C12974   8.657   6.012  12.780  0.5519 -1.3319 -0.2558
   99MOL0     C12975   8.698   5.869  12.750  0.7461  0.1937  0.2211
   99MOL0     C12976   8.621   5.763  12.818 -0.3399  0.1948 -0.1622
   99MOL0     C12977   8.476   5.752  12.754 -0.9382 -0.1158 -0.5833
   99MOL0     C12978   8.467   5.661  12.633  0.1277  0.5410 -0.1171
   99MOL0     C12979   8.339   5.680  12.547  0.6379 -0.2195  0.1712
   99MOL0    Cl12980   8.366   5.837  12.459  0.2406 -0.4227  0.2312
   99MOL0     C12981   8.461   6.152  12.465 -0.2094 -0.4953 -0.1289
   99MOL0     C12982   8.430   6.145  12.328 -0.0419  0.4140 -0.2215
   99MOL0     O12983   8.189   6.249  12.178 -0.4896 -0.3654 -0.2170
   99MOL0     C12984   8.115   6.135  11.937  0.0761  0.4069 -0.0809
   99MOL0     C12985   8.092   6.061  11.808  0.2906  0.0637 -1.0855
   99MOL0     N12986   8.147   6.017  10.973  0.4861  0.3096 -0.9870
   99MOL0     N12987   8.196   6.099  10.892 -0.8214 -0.5995  0.5331
   99MOL0     C12988   8.425   7.191  10.826  0.4607 -0.1487  0.8802
   99MOL0     C12989   8.383   7.321  10.842 -0.0038  0.2708 -0.5963
   99MOL0     C12990   8.230   7.728  10.950  0.4597 -0.5226 -1.3723
   99MOL0     C12991   8.264   7.846  10.887  0.8256 -0.6857 -0.4053
   99MOL0     C12992   8.206   7.973  10.924  1.0804  0.5814  0.7956
   99MOL0     C12993   8.101   7.967  11.011  0.2768  1.0305 -0.2113
   99MOL0     O12994   8.016   8.081  11.008  0.5645  1.0837  0.4960
   99MOL0     C12995   7.933   8.109  11.125  0.2231  1.3039  0.9304
   99MOL0     C12996   7.895   8.257  11.123 -0.0284 -0.3609 -0.6579
   99MOL0     C12997   7.778   8.299  11.044  0.6729 -1.2389 -0.2451
   99MOL0     C12998   7.748   8.454  11.062  0.5698 -0.1224  0.3715
   99MOL0     C12999   7.633   8.472  10.974  0.4423 -0.3247  0.3619
   99MOL0     C13000   7.527   8.479  10.921 -0.0191 -0.4581 -0.8811
   99MOL0     C13001   8.073   7.846  11.075  0.4724  0.0759 -0.2323
   99MOL0     C13002   8.131   7.728  11.034  0.4158  0.0910  0.1313
   99MOL0     H13003   8.336   7.351  11.161 -0.5893  1.6630 -2.2289
   99MOL0     H13004   8.385   7.109  11.153  0.7928  0.0740 -0.4234
   99MOL0     H13005   8.579   6.934  10.762 -0.1758 -0.7205  1.4438
   99MOL0     H13006   8.415   6.938  10.707 -2.9312 -0.0436  0.6609
   99MOL0     H13007   8.431   6.710  10.718 -0.9891 -2.2637  1.0929
   99MOL0     H13008   8.380   6.747  10.883 -0.0584  5.1318  1.0263
   99MOL0     H13009   8.627   6.721  10.953 -0.9674  3.2415  0.1015
   99MOL0     H13010   8.673   6.725  10.787  0.3492 -2.4992 -0.1432
   99MOL0     H13011   8.584   6.474  10.754  0.5939  1.4120 -0.8409
   99MOL0     H13012   8.694   6.487  10.884  0.4582 -0.7961  0.4519
   99MOL0     H13013   8.399   6.488  10.880 -0.0552  2.2494  1.5123
   99MOL0     H13014   8.488   6.535  11.027 -1.8678  0.1035 -0.8333
   99MOL0     H13015   8.393   6.296  11.043  0.7954 -0.0263  2.6572
   99MOL0     H13016   8.567   6.342  11.066  0.7607  1.3624 -1.5649
   99MOL0     H13017   8.618   6.223  10.850 -0.1428  1.4882 -0.3536
   99MOL0     H13018   8.560   6.123  10.975  1.7924  2.2172  0.7882
   99MOL0     H13019   8.481   6.077  10.736  0.4442 -0.4798 -0.1189
   99MOL0     H13020   8.384   6.225  10.748  2.2913  0.6846 -1.2237
   99MOL0     H13021   8.460   5.933  11.010  0.3916  1.7216  0.9153
   99MOL0     H13022   8.328   5.783  11.157 -0.8307 -2.0890 -2.9127
   99MOL0     H13023   8.147   5.786  11.121  1.4825 -1.4433 -5.0342
   99MOL0     H13024   8.120   5.983  11.253 -1.0929 -0.5658 -1.5777
   99MOL0     H13025   8.300   5.993  11.283 -0.3696 -0.2237 -0.7902
   99MOL0     H13026   8.099   5.801  11.410  0.1295  0.3148  1.7460
   99MOL0     H13027   8.269   5.763  11.389  0.6387 -0.2020  2.5177
   99MOL0     H13028   8.351   5.952  11.509 -0.8239  2.1649  0.5904
   99MOL0     H13029   8.267   5.821  11.591  2.3665  1.2036  0.8467
   99MOL0     H13030   8.371   6.150  11.639 -4.1597  1.8885 -2.9403
   99MOL0     H13031   8.434   6.241  11.871 -0.4381 -0.1890  1.8711
   99MOL0     H13032   8.542   6.466  12.261  1.3376 -0.0368  0.3821
   99MOL0     H13033   8.572   6.470  12.470  1.6591 -0.0781 -2.3241
   99MOL0     H13034   8.678   6.280  12.792 -1.3118 -2.6154  0.5632
   99MOL0     H13035   8.754   6.309  12.632 -0.3955  1.7200  3.0934
   99MOL0     H13036   8.843   6.098  12.735  0.5749 -1.3374 -1.1558
   99MOL0     H13037   8.754   6.074  12.586 -1.2199  1.0834 -0.6770
   99MOL0     H13038   8.554   6.029  12.748  1.2989  5.1007 -0.5932
   99MOL0     H13039   8.648   6.044  12.884 -4.4756  1.1409 -1.1787
   99MOL0     H13040   8.696   5.846  12.643 -1.1162  0.0540  0.2571
   99MOL0     H13041   8.804   5.861  12.776  0.9820  2.3898  0.0806
   99MOL0     H13042   8.615   5.782  12.926  0.4347  1.5741 -0.3288
   99MOL0     H13043   8.677   5.669  12.813 -0.2043  0.2994 -0.6330
   99MOL0     H13044   8.442   5.855  12.740 -2.2219 -1.0060 -6.1048
   99MOL0     H13045   8.419   5.707  12.836 -2.4357  0.6425 -1.1709
   99MOL0     H13046   8.553   5.666  12.565  0.7715 -3.8473  0.1024
   99MOL0     H13047   8.472   5.556  12.663  0.1060  0.5346 -0.1340
   99MOL0     H13048   8.248   5.683  12.608  0.3776  0.7015 -0.2468
   99MOL0     H13049   8.325   5.605  12.468 -0.4240  1.1680 -1.0106
   99MOL0     H13050   8.419   6.072  12.525 -2.2248  0.0051 -0.8117
   99MOL0     H13051   8.381   6.057  12.287 -0.7371  0.9869 -0.6394
   99MOL0     H13052   8.034   6.137  12.009 -0.8545 -0.2594 -1.0773
   99MOL0     H13053   8.005   6.001  11.783  1.1703 -1.2738 -1.0128
   99MOL0     H13054   8.465   7.148  10.735 -0.3890  0.0276  0.4166
   99MOL0     H13055   8.374   7.369  10.746 -0.8303 -2.3696 -1.9552
   99MOL0     H13056   8.339   7.849  10.809  0.0040  2.4238 -1.2360
   99MOL0     H13057   8.242   8.068  10.886 -0.5856 -0.0910 -2.9554
   99MOL0     H13058   8.004   8.088  11.206  0.2256 -0.3579  0.5409
   99MOL0     H13059   7.854   8.035  11.107  0.5754  1.4460 -1.5675
   99MOL0     H13060   7.874   8.266  11.230 -2.8664 -0.8027 -1.1140
   99MOL0     H13061   7.981   8.320  11.099  0.1604 -0.3945 -0.0891
   99MOL0     H13062   7.695   8.248  11.094  0.2871 -0.5899 -0.2049
   99MOL0     H13063   7.784   8.270  10.939 -2.9678 -1.0926 -0.6379
   99MOL0     H13064   7.724   8.469  11.168  3.0100  0.5966  0.8969
   99MOL0     H13065   7.819   8.523  11.014  1.1237 -1.9760 -1.6255
   99MOL0     H13066   7.435   8.493  10.869 -0.6068  0.0397  0.2452
   99MOL0     H13067   7.985   7.843  11.139  1.0970 -3.0126  0.6527
   99MOL0     H13068   8.084   7.643  11.082  0.3242  0.3510  0.5157
  100MOL0     O13069   0.254   0.059   4.063 -0.4647 -0.0446 -0.5539
  100MOL0     C13070   0.293   0.168   4.097  0.0999 -1.5099  1.2091
  100MOL0     O13071   0.266   0.287   4.023 -0.2322  0.5244  0.2940
  100MOL0     C13072   0.184   0.285   3.910  0.3791  0.1272 -0.5109
  100MOL0     C13073   0.186   0.179   3.825  0.1977  0.0972 -0.2913
  100MOL0     C13074   0.108   0.188   3.704  0.2555 -0.4387  0.0677
  100MOL0     C13075   0.037   0.304   3.675 -0.3764  0.1996 -0.4275
  100MOL0     O13076  -0.022   0.322   3.546  1.0311 -0.5571  0.8721
  100MOL0     C13077  -0.050   0.210   3.455 -0.8755 -0.1988 -0.3743
  100MOL0     C13078  -0.068   0.271   3.316  0.3711  0.3718  0.0944
  100MOL0     C13079   0.067   0.326   3.268 -0.1642  0.6738  0.0250
  100MOL0     C13080   0.064   0.368   3.123 -0.0324 -0.8025  0.4040
  100MOL0     C13081   0.188   0.429   3.054 -0.1669  0.5663 -0.6540
  100MOL0     C13082   0.198   0.398   2.900  0.8218  0.4461  0.0348
  100MOL0     C13083   0.287   0.504   2.829 -2.0787 -0.6545 -0.1699
  100MOL0     C13084   0.380   0.430   2.737 -0.5830  0.0851 -0.4070
  100MOL0     N13085   0.479   0.347   2.815  0.0036 -0.1193  0.0101
  100MOL0     C13086   0.563   0.396   2.905 -0.5419  0.3517 -0.1068
  100MOL0     C13087   0.642   0.295   2.950  0.0899 -0.2192  0.0961
  100MOL0     C13088   0.737   0.298   3.067  0.0605  0.6286 -0.3946
  100MOL0     C13089   0.674   0.312   3.206 -0.5651  0.0999  0.1170
  100MOL0     C13090   0.623   0.177   3.249  0.1540 -0.0119  0.4471
  100MOL0     C13091   0.483   0.158   3.189  1.2227  0.7546 -1.1289
  100MOL0     O13092   0.394   0.097   3.287  0.2498 -0.7620  0.1226
  100MOL0     C13093   0.287   0.029   3.236  0.3410  0.8459 -0.3277
  100MOL0     C13094   0.224  -0.055   3.332  0.6251 -0.1884  0.7551
  100MOL0     C13095   0.113  -0.127   3.289 -0.2138  0.3290 -0.0139
  100MOL0     C13096   0.051  -0.112   3.162 -0.5359 -0.4412 -0.0398
  100MOL0     C13097  -0.082  -0.162   3.134  0.4572  0.4723 -0.1731
  100MOL0     O13098  -0.162  -0.188   3.241  0.1335  0.4558  0.3486
  100MOL0     C13099  -0.290  -0.239   3.237 -0.1876 -0.3638 -0.1374
  100MOL0     C13100  -0.353  -0.308   3.133 -0.5196  1.1853  0.1748
  100MOL0     C13101  -0.486  -0.337   3.141  0.1896 -0.6482 -0.2300
  100MOL0     C13102  -0.561  -0.304   3.254 -0.4296 -0.7157  0.1139
  100MOL0     O13103  -0.697  -0.316   3.268  0.4936  0.4912  0.2430
  100MOL0     C13104  -0.779  -0.410   3.187 -0.6299  0.4398 -0.8029
  100MOL0     C13105  -0.832  -0.517   3.283  0.5567  1.0313 -0.0185
  100MOL0     C13106  -0.877  -0.466   3.424  0.8394 -0.4740 -0.1194
  100MOL0     C13107  -1.017  -0.403   3.419 -0.8533  0.4854 -0.2195
  100MOL0     C13108  -1.096  -0.422   3.548 -0.5542  0.7739 -0.1396
  100MOL0     C13109  -1.240  -0.378   3.530  0.9878 -0.0279  0.2628
  100MOL0     C13110  -1.325  -0.408   3.649 -0.1328  0.1681 -0.8349
  100MOL0     C13111  -1.315  -0.309   3.773 -0.4884 -0.8868  0.0631
  100MOL0    Cl13112  -1.423  -0.336   3.915  0.3982 -0.4083 -0.0743
  100MOL0     C13113  -0.496  -0.230   3.358 -0.3485  0.4095  0.0467
  100MOL0     C13114  -0.360  -0.190   3.345 -0.1621  0.7883 -0.5003
  100MOL0     O13115  -0.116  -0.166   3.014 -0.3122 -0.4084  0.9115
  100MOL0     C13116   0.123  -0.028   3.074  0.1964  0.2205  0.8643
  100MOL0     C13117   0.244   0.035   3.109 -0.0171 -0.0999 -0.1323
  100MOL0     N13118   0.613   0.185   2.867 -0.1961 -0.0750  0.4866
  100MOL0     N13119   0.521   0.222   2.785 -0.2635  0.1738  0.5840
  100MOL0     C13120   0.037   0.404   3.777  0.3963  0.3493  1.5097
  100MOL0     C13121   0.090   0.396   3.898  0.4546  0.5458  1.0971
  100MOL0     C13122   0.388   0.187   4.219 -0.3935  0.1411  0.1934
  100MOL0     C13123   0.408   0.082   4.309 -0.1224  0.4470 -0.5100
  100MOL0     C13124   0.496   0.095   4.414  0.0422  0.2667  0.3170
  100MOL0     C13125   0.582   0.205   4.429  0.7116  1.1604 -0.2541
  100MOL0     O13126   0.683   0.190   4.527 -1.5412  0.2325  0.5921
  100MOL0     C13127   0.786   0.287   4.538  0.2779  0.3963  0.7873
  100MOL0     C13128   0.761   0.352   4.672  0.5770 -1.8630 -0.3813
  100MOL0     C13129   0.870   0.454   4.713  0.7439 -1.1489  0.2525
  100MOL0     C13130   0.827   0.518   4.851  0.0345 -0.3379 -0.0925
  100MOL0     C13131   0.861   0.432   4.970 -0.1173  0.4226  0.5471
  100MOL0     C13132   0.891   0.361   5.066  0.2636  0.2031 -0.5982
  100MOL0     C13133   0.557   0.313   4.342  0.1254 -0.2047 -0.5353
  100MOL0     C13134   0.461   0.306   4.241  0.0689  0.4425  0.1381
  100MOL0     H13135   0.240   0.085   3.831 -1.0556 -0.7249 -1.3077
  100MOL0     H13136   0.119   0.110   3.629 -0.5731 -0.9512  0.4623
  100MOL0     H13137  -0.147   0.164   3.476 -0.6203 -0.7916 -0.4732
  100MOL0     H13138   0.027   0.132   3.453 -0.5806 -0.0590  2.3783
  100MOL0     H13139  -0.143   0.351   3.316 -0.3382 -0.2792 -0.1848
  100MOL0     H13140  -0.104   0.190   3.253  1.0814 -0.5858  0.8961
  100MOL0     H13141   0.153   0.259   3.275 -1.9376 -1.6580  0.6944
  100MOL0     H13142   0.086   0.416   3.327  3.4715  2.9082 -4.0057
  100MOL0     H13143   0.037   0.277   3.069 -0.3874 -1.7223  2.0381
  100MOL0     H13144  -0.023   0.433   3.120  0.0080 -0.7097  1.0636
  100MOL0     H13145   0.274   0.388   3.107 -2.6234 -1.8550  1.8173
  100MOL0     H13146   0.187   0.536   3.077  1.0897  0.9734 -2.3184
  100MOL0     H13147   0.098   0.408   2.857  1.0914 -0.1417 -0.7545
  100MOL0     H13148   0.237   0.298   2.880  0.7716  0.6366 -1.0955
  100MOL0     H13149   0.228   0.585   2.785 -0.5882 -0.1240 -1.2430
  100MOL0     H13150   0.352   0.554   2.901 -1.5326 -1.8594  0.1980
  100MOL0     H13151   0.439   0.505   2.684  0.6851  0.2849  1.1774
  100MOL0     H13152   0.322   0.362   2.674 -4.9189  1.3415  1.8434
  100MOL0     H13153   0.552   0.495   2.948 -0.1910  0.1184  0.5361
  100MOL0     H13154   0.803   0.385   3.064  1.2067 -0.2433 -2.5092
  100MOL0     H13155   0.804   0.212   3.054  0.1878  1.0274 -2.9058
  100MOL0     H13156   0.612   0.401   3.219  2.1319  2.2586 -0.6804
  100MOL0     H13157   0.754   0.339   3.275  0.4932 -0.5155 -0.8312
  100MOL0     H13158   0.691   0.097   3.220 -1.1398 -0.4049 -1.7177
  100MOL0     H13159   0.613   0.175   3.358 -1.7218 -3.2592  0.3181
  100MOL0     H13160   0.489   0.096   3.100 -2.7540 -0.2449 -0.9028
  100MOL0     H13161   0.438   0.255   3.167 -0.8422 -0.0443 -0.6269
  100MOL0     H13162   0.262  -0.049   3.434  1.2823 -0.0000  0.5063
  100MOL0     H13163   0.072  -0.199   3.358 -1.4339  2.6578  1.8525
  100MOL0     H13164  -0.291  -0.327   3.045  0.0008 -3.1218  1.2569
  100MOL0     H13165  -0.536  -0.367   3.049  0.3269 -1.2613 -0.1118
  100MOL0     H13166  -0.719  -0.447   3.103 -0.3216  1.1924 -0.9251
  100MOL0     H13167  -0.858  -0.348   3.143  1.5232  2.8204 -1.6003
  100MOL0     H13168  -0.761  -0.600   3.287 -1.5375 -0.8024  1.7043
  100MOL0     H13169  -0.917  -0.571   3.239 -0.6023  2.3763  0.5076
  100MOL0     H13170  -0.821  -0.382   3.467 -0.2734  0.4223 -0.3688
  100MOL0     H13171  -0.884  -0.554   3.489  2.8576 -0.6243 -0.0294
  100MOL0     H13172  -1.015  -0.299   3.384  0.7756  0.5548 -0.0303
  100MOL0     H13173  -1.068  -0.463   3.343  3.0442 -1.6311 -1.4402
  100MOL0     H13174  -1.049  -0.361   3.626 -0.5769 -2.5325  2.7022
  100MOL0     H13175  -1.086  -0.526   3.583  2.1410  1.4111  1.3144
  100MOL0     H13176  -1.294  -0.422   3.446 -0.0159  2.1274 -0.3149
  100MOL0     H13177  -1.262  -0.273   3.507 -2.9535 -0.4655  1.3094
  100MOL0     H13178  -1.433  -0.403   3.633 -0.2178  0.9781 -0.0524
  100MOL0     H13179  -1.311  -0.510   3.688 -1.7952  0.3933  0.4686
  100MOL0     H13180  -1.327  -0.205   3.742  0.9177 -0.4973  0.7107
  100MOL0     H13181  -1.214  -0.315   3.816 -0.3408 -0.5620 -0.2268
  100MOL0     H13182  -0.546  -0.194   3.447 -1.7257 -0.0923 -0.4992
  100MOL0     H13183  -0.300  -0.126   3.409  0.1809  2.5922 -2.5339
  100MOL0     H13184   0.078  -0.010   2.977 -2.1558  0.5679  1.9519
  100MOL0     H13185   0.285   0.103   3.034  0.7636  1.1787  1.4065
  100MOL0     H13186  -0.008   0.498   3.748  0.0568  0.2135  1.5926
  100MOL0     H13187   0.078   0.475   3.972 -2.1597  2.1728 -0.9171
  100MOL0     H13188   0.364  -0.016   4.290  1.0551 -0.1105 -0.5049
  100MOL0     H13189   0.524   0.002   4.462  3.1491  0.2537 -1.3064
  100MOL0     H13190   0.789   0.366   4.462  0.2973 -0.4354 -0.1004
  100MOL0     H13191   0.885   0.242   4.551 -0.2839 -1.0610  0.2055
  100MOL0     H13192   0.661   0.397   4.679  1.7533  0.6043  4.1203
  100MOL0     H13193   0.769   0.280   4.754 -0.1809 -0.1170  1.3135
  100MOL0     H13194   0.865   0.531   4.636 -2.8769  0.9627  2.2935
  100MOL0     H13195   0.974   0.419   4.719  2.0393  1.6937 -2.7149
  100MOL0     H13196   0.886   0.608   4.870  0.1400 -0.1626 -1.1605
  100MOL0     H13197   0.722   0.541   4.835 -0.5602 -2.6375  0.1884
  100MOL0     H13198   0.893   0.298   5.153  0.9770  1.5261  0.3692
  100MOL0     H13199   0.613   0.406   4.336  1.3253 -0.5376  3.3272
  100MOL0     H13200   0.459   0.387   4.170  1.1258  0.7514  0.4327
  101MOL0     O13201   8.508   3.036   0.018  0.0540  0.4714 -0.1643
  101MOL0     C13202   8.568   2.937  -0.013  0.8343 -0.1184 -0.0231
  101MOL0     O13203   8.690   2.935  -0.076 -0.2336 -0.1707  0.2638
  101MOL0     C13204   8.772   3.053  -0.087  0.4708 -1.0710 -0.2248
  101MOL0     C13205   8.724   3.172  -0.157 -0.8986  0.1739 -0.7672
  101MOL0     C13206   8.809   3.277  -0.182  0.0374 -0.8500 -0.1783
  101MOL0     C13207   8.937   3.280  -0.139 -0.4176  1.4477  0.0012
  101MOL0     O13208   9.019   3.376  -0.177  0.0831 -0.0391  0.6324
  101MOL0     C13209   9.142   3.387  -0.109 -0.5123  0.6881 -0.6937
  101MOL0     C13210   9.206   3.525  -0.155  0.5152  0.2883 -0.6090
  101MOL0     C13211   9.275   3.535  -0.293  0.8814  0.4008 -0.1732
  101MOL0     C13212   9.194   3.610  -0.403  0.0546 -0.0375  0.0057
  101MOL0     C13213   9.290   3.646  -0.519 -0.5707 -0.5998 -0.2154
  101MOL0     C13214   9.232   3.727  -0.628 -0.4178 -0.6930 -0.2387
  101MOL0     C13215   9.337   3.780  -0.716  0.8499 -0.1018  1.8951
  101MOL0     C13216   9.292   3.893  -0.812  0.8027 -0.1850  0.0087
  101MOL0     N13217   9.376   4.013  -0.829 -0.2248 -0.1011 -0.6482
  101MOL0     C13218   9.493   4.027  -0.894  0.0570  0.1923  0.0872
  101MOL0     C13219   9.516   4.159  -0.887 -0.3017  0.8853 -0.3046
  101MOL0     C13220   9.640   4.230  -0.950  1.0681 -0.7178 -0.8878
  101MOL0     C13221   9.653   4.224  -1.109 -0.2989  0.4314  0.2184
  101MOL0     C13222   9.560   4.306  -1.195  0.2094 -0.6130  1.0454
  101MOL0     C13223   9.418   4.243  -1.210 -0.1140 -0.1412 -0.2307
  101MOL0     O13224   9.341   4.316  -1.312  0.2770  0.2412 -0.8696
  101MOL0     C13225   9.266   4.422  -1.262 -0.8020  0.4338  0.4568
  101MOL0     C13226   9.243   4.536  -1.349 -1.2545 -0.5632  0.1183
  101MOL0     C13227   9.151   4.629  -1.306 -0.5470 -1.1061  0.2671
  101MOL0     C13228   9.078   4.625  -1.188 -0.3246  0.1735  0.7488
  101MOL0     C13229   8.972   4.716  -1.150  0.5737  0.2558  0.2989
  101MOL0     O13230   8.879   4.682  -1.054 -0.6003 -0.4753  0.5682
  101MOL0     C13231   8.775   4.774  -1.031  0.4904  0.6563  1.1271
  101MOL0     C13232   8.758   4.841  -0.903 -0.3154  0.7677  0.0665
  101MOL0     C13233   8.643   4.919  -0.872 -0.1812  0.1872 -0.4024
  101MOL0     C13234   8.549   4.943  -0.980  0.0621 -0.6418  0.0341
  101MOL0     O13235   8.433   5.021  -0.967 -0.1536  1.1888  0.0106
  101MOL0     C13236   8.460   5.143  -0.899  0.0169  0.3705  0.2722
  101MOL0     C13237   8.352   5.246  -0.924  0.8429 -0.0788  1.1213
  101MOL0     C13238   8.203   5.197  -0.906 -0.8238  0.0586 -0.0070
  101MOL0     C13239   8.097   5.303  -0.947 -1.2311  0.2601  0.0414
  101MOL0     C13240   8.072   5.405  -0.830  0.6451  0.8472 -0.2877
  101MOL0     C13241   8.152   5.539  -0.835 -0.5971 -0.5536 -0.3949
  101MOL0     C13242   8.176   5.590  -0.691  0.2917  0.9810  0.0054
  101MOL0     C13243   8.296   5.522  -0.613  0.0626  0.2209 -0.2856
  101MOL0    Cl13244   8.432   5.610  -0.694  0.0588  0.1944  0.2436
  101MOL0     C13245   8.567   4.886  -1.108  0.7417  1.0747  0.3761
  101MOL0     C13246   8.674   4.796  -1.126  0.8139 -0.1435  0.7124
  101MOL0     O13247   8.974   4.829  -1.211  0.5682 -0.1839  0.0371
  101MOL0     C13248   9.113   4.532  -1.096  0.6296  0.4408  0.5572
  101MOL0     C13249   9.196   4.429  -1.140  0.2719 -0.0164 -0.5624
  101MOL0     N13250   9.410   4.216  -0.828  0.0592  0.0721  0.9796
  101MOL0     N13251   9.320   4.134  -0.801 -0.3117  0.0199 -0.7012
  101MOL0     C13252   8.987   3.160  -0.078 -0.0671  0.8290  0.5662
  101MOL0     C13253   8.905   3.047  -0.053 -0.1469 -0.6205  0.2895
  101MOL0     C13254   8.509   2.808   0.024 -1.3763  0.2919  0.1878
  101MOL0     C13255   8.584   2.686   0.012  0.6078  0.2689 -0.2226
  101MOL0     C13256   8.514   2.564   0.049 -0.8500 -1.0224 -0.1863
  101MOL0     C13257   8.379   2.565   0.096 -0.4774  0.2323 -0.3166
  101MOL0     O13258   8.329   2.446   0.144 -0.0471  0.3757  1.0093
  101MOL0     C13259   8.268   2.369   0.045 -0.0268 -0.3795 -0.0355
  101MOL0     C13260   8.128   2.407   0.000  0.6973 -1.1917 -0.0285
  101MOL0     C13261   8.018   2.414   0.113 -0.4210 -1.0178  0.4104
  101MOL0     C13262   7.869   2.415   0.065 -0.1561 -0.9290 -0.2410
  101MOL0     C13263   7.853   2.514  -0.048  0.5717 -0.2170  0.4074
  101MOL0     C13264   7.831   2.581  -0.152  0.5721  0.7230  0.5587
  101MOL0     C13265   8.310   2.686   0.093 -0.5347  0.2119 -0.0471
  101MOL0     C13266   8.377   2.798   0.056  0.3829 -0.8970  0.8731
  101MOL0     H13267   8.619   3.174  -0.187 -2.1183  4.4487  2.7912
  101MOL0     H13268   8.801   3.362  -0.249  6.0248  0.8550  0.6670
  101MOL0     H13269   9.210   3.305  -0.134  0.3856  1.0782  0.4020
  101MOL0     H13270   9.136   3.389  -0.000 -0.7009  0.8734 -0.7082
  101MOL0     H13271   9.280   3.557  -0.081  0.2394 -1.2768  0.4151
  101MOL0     H13272   9.117   3.587  -0.141  1.4934  1.6149 -0.1715
  101MOL0     H13273   9.290   3.434  -0.332 -0.3384 -0.4143  1.3127
  101MOL0     H13274   9.361   3.597  -0.268  0.9291  0.2369  0.0789
  101MOL0     H13275   9.109   3.552  -0.441 -0.7826 -0.3354  2.2098
  101MOL0     H13276   9.162   3.706  -0.361  1.7188 -0.0195  1.3249
  101MOL0     H13277   9.334   3.552  -0.552  0.0829 -1.4190  2.6560
  101MOL0     H13278   9.377   3.701  -0.481 -2.0782  1.0608  1.0745
  101MOL0     H13279   9.187   3.817  -0.586 -0.3823 -0.9388  0.3253
  101MOL0     H13280   9.166   3.667  -0.692 -0.5908  0.1365 -0.8510
  101MOL0     H13281   9.409   3.831  -0.652  1.1391 -1.6857  2.8887
  101MOL0     H13282   9.389   3.696  -0.763 -5.2339 -3.0406 -0.7466
  101MOL0     H13283   9.199   3.933  -0.770 -0.0553 -0.6300 -1.4028
  101MOL0     H13284   9.246   3.855  -0.904 -3.0646 -0.1717  1.7193
  101MOL0     H13285   9.554   3.959  -0.953 -1.5833  0.4367 -2.0355
  101MOL0     H13286   9.733   4.193  -0.907  2.7311  3.2859 -0.5789
  101MOL0     H13287   9.646   4.335  -0.920  0.9294 -0.5204 -1.5454
  101MOL0     H13288   9.653   4.125  -1.155  0.8340  2.0210 -3.6369
  101MOL0     H13289   9.753   4.259  -1.138  0.5571  1.6513  4.0805
  101MOL0     H13290   9.557   4.408  -1.157  1.8246 -0.3586  0.5468
  101MOL0     H13291   9.612   4.301  -1.291 -1.1772  0.9713  0.1621
  101MOL0     H13292   9.366   4.244  -1.114 -1.0657 -1.9400 -0.6936
  101MOL0     H13293   9.418   4.140  -1.245 -0.4181 -0.2166 -0.0142
  101MOL0     H13294   9.305   4.551  -1.437  1.7265 -3.7984  1.4497
  101MOL0     H13295   9.127   4.703  -1.381 -0.8028 -0.0868  1.3327
  101MOL0     H13296   8.830   4.818  -0.825 -1.3528  0.6349  1.0103
  101MOL0     H13297   8.633   4.946  -0.768 -2.1962 -1.5698 -0.0553
  101MOL0     H13298   8.552   5.186  -0.938 -0.6268 -0.4576 -2.3850
  101MOL0     H13299   8.455   5.133  -0.790 -1.8028 -4.3605 -0.0248
  101MOL0     H13300   8.369   5.288  -1.023 -0.1008 -0.3134  0.8531
  101MOL0     H13301   8.370   5.340  -0.870  1.1141  0.9348 -0.6456
  101MOL0     H13302   8.197   5.170  -0.800 -1.1429 -2.5375 -0.6126
  101MOL0     H13303   8.184   5.105  -0.962  3.3648 -1.6180  0.9001
  101MOL0     H13304   8.113   5.365  -1.036 -0.5620 -1.6460 -1.2203
  101MOL0     H13305   8.006   5.242  -0.951 -2.0736  1.4948 -0.7095
  101MOL0     H13306   8.079   5.345  -0.739 -2.4840  0.1918 -0.3512
  101MOL0     H13307   7.967   5.434  -0.836  0.8122  1.2360 -2.1527
  101MOL0     H13308   8.091   5.603  -0.899 -0.8724 -0.5405 -0.1200
  101MOL0     H13309   8.247   5.539  -0.891 -0.4847 -0.8581 -0.2093
  101MOL0     H13310   8.194   5.698  -0.686 -0.0359  1.0087  0.8621
  101MOL0     H13311   8.079   5.570  -0.646 -1.3948  2.4143 -2.7538
  101MOL0     H13312   8.296   5.412  -0.617 -1.0187  0.2036  0.0475
  101MOL0     H13313   8.280   5.555  -0.510  2.1551  1.2087 -0.2268
  101MOL0     H13314   8.506   4.906  -1.195  2.3859 -0.1807 -1.1448
  101MOL0     H13315   8.686   4.764  -1.229  0.2047  1.3677  0.1550
  101MOL0     H13316   9.062   4.531  -1.000 -1.5535 -2.9655 -0.4582
  101MOL0     H13317   9.210   4.341  -1.078  1.6195 -0.4960 -1.4927
  101MOL0     H13318   9.092   3.137  -0.064 -0.1007  1.7157  2.6331
  101MOL0     H13319   8.940   2.952  -0.014 -0.0305 -1.0426 -0.7898
  101MOL0     H13320   8.688   2.694  -0.017 -0.2728  1.8638 -3.3001
  101MOL0     H13321   8.569   2.471   0.050 -0.4504 -0.7926  1.1142
  101MOL0     H13322   8.265   2.268   0.088 -4.3119 -0.2553  0.3498
  101MOL0     H13323   8.333   2.363  -0.043  0.9603  1.5824  0.4970
  101MOL0     H13324   8.138   2.491  -0.068  1.4212 -3.1882 -2.5310
  101MOL0     H13325   8.091   2.328  -0.066 -1.3197 -0.0682 -0.3291
  101MOL0     H13326   8.028   2.516   0.149 -1.1706 -1.2264  1.2405
  101MOL0     H13327   8.027   2.336   0.189  3.4605  0.8471  2.1585
  101MOL0     H13328   7.850   2.317   0.020 -0.9872 -0.3694 -1.1336
  101MOL0     H13329   7.808   2.438   0.153  2.0959  1.9582  0.7541
  101MOL0     H13330   7.817   2.648  -0.234  3.1778  0.1382 -0.4608
  101MOL0     H13331   8.210   2.676   0.134 -1.3621 -3.0906 -2.4623
  101MOL0     H13332   8.315   2.888   0.059 -0.6795 -1.5816  0.1144
  102MOL0     O13333  10.373   1.411   9.839 -0.7445  0.3934 -0.5534
  102MOL0     C13334  10.273   1.347   9.857 -0.6663  0.7274  0.2501
  102MOL0     O13335  10.252   1.215   9.899 -0.8083 -0.5682  0.1181
  102MOL0     C13336  10.366   1.159   9.951 -0.1591  0.4273 -0.3815
  102MOL0     C13337  10.433   1.063   9.887  0.3611 -0.0420 -0.2240
  102MOL0     C13338  10.556   1.019   9.941 -0.7146 -0.4332 -0.1413
  102MOL0     C13339  10.614   1.082  10.058  0.0041  0.3375  0.7063
  102MOL0     O13340  10.739   1.037  10.087 -0.0445 -0.2972  0.1602
  102MOL0     C13341  10.832   1.146  10.087 -0.0923  0.7057 -0.6015
  102MOL0     C13342  10.975   1.101  10.137 -0.7964  0.9245 -0.1528
  102MOL0     C13343  11.016   0.958  10.089 -0.0978 -0.9704 -0.2409
  102MOL0     C13344  11.152   0.925  10.147  0.3864  0.4283 -0.1011
  102MOL0     C13345  11.188   0.786  10.113  0.2577  0.2036  0.0764
  102MOL0     C13346  11.320   0.740  10.169 -1.0704  0.1653  0.3217
  102MOL0     C13347  11.333   0.595  10.125 -0.3145 -0.8149  0.6719
  102MOL0     C13348  11.450   0.544  10.200 -0.4898 -0.0613 -0.4657
  102MOL0     N13349  11.490   0.412  10.165 -0.1586  0.2030 -0.3123
  102MOL0     C13350  11.583   0.368  10.068  0.3735 -0.2620 -0.1240
  102MOL0     C13351  11.598   0.237  10.102 -0.7328 -0.5763  0.6576
  102MOL0     C13352  11.701   0.155  10.030 -0.7421 -0.2790  0.0486
  102MOL0     C13353  11.713   0.006  10.077  0.5558 -0.0838  0.1527
  102MOL0     C13354  11.828  -0.065  10.005 -0.4298 -0.6955  0.5546
  102MOL0     C13355  11.838  -0.212  10.048  0.8777 -0.0220  0.8090
  102MOL0     O13356  11.971  -0.267  10.008  0.2796  0.1074  0.5008
  102MOL0     C13357  11.985  -0.347   9.894 -0.5133 -0.7050  0.4831
  102MOL0     C13358  11.904  -0.330   9.785  0.4271  0.1349  0.4196
  102MOL0     C13359  11.938  -0.400   9.673  1.0882  0.7045  0.2159
  102MOL0     C13360  12.037  -0.498   9.660 -0.0934  0.6513  0.7956
  102MOL0     C13361  12.062  -0.558   9.522 -1.0483  0.4331  0.1300
  102MOL0     O13362  11.951  -0.564   9.447  0.1890 -0.0971 -0.0059
  102MOL0     C13363  11.958  -0.614   9.323 -0.0371  0.5270 -0.1373
  102MOL0     C13364  12.004  -0.754   9.296  0.5062  0.6773  0.1374
  102MOL0     C13365  11.997  -0.806   9.166  0.8886 -0.0346  0.6661
  102MOL0     C13366  11.952  -0.729   9.068  0.0057  0.5731  0.8953
  102MOL0     O13367  11.956  -0.786   8.942 -0.1765  0.3673  0.6829
  102MOL0     C13368  11.913  -0.711   8.825  1.2338  0.0864 -1.1628
  102MOL0     C13369  11.755  -0.731   8.828 -0.1783  0.3696 -0.5428
  102MOL0     C13370  11.724  -0.866   8.766  0.0172  0.8484 -0.0223
  102MOL0     C13371  11.577  -0.880   8.769  0.2864  0.1513 -0.1781
  102MOL0     C13372  11.512  -0.982   8.674  0.0174 -0.2151 -0.7744
  102MOL0     C13373  11.589  -1.109   8.654 -0.6187  0.0012  0.8714
  102MOL0     C13374  11.550  -1.204   8.543  0.2410 -0.3859 -0.6559
  102MOL0     C13375  11.402  -1.240   8.534 -0.2697  0.5347  0.2969
  102MOL0    Cl13376  11.379  -1.401   8.449  0.1614 -0.0054 -0.1380
  102MOL0     C13377  11.903  -0.595   9.093  0.0504 -0.2607  0.3382
  102MOL0     C13378  11.904  -0.542   9.224 -0.4212 -0.0910 -1.3560
  102MOL0     O13379  12.167  -0.603   9.489  0.6203  0.2900  0.2752
  102MOL0     C13380  12.116  -0.514   9.772  0.0567  0.9674  0.4981
  102MOL0     C13381  12.090  -0.443   9.887 -0.2848 -0.6864 -0.1843
  102MOL0     N13382  11.531   0.208  10.220 -0.5348  0.1647 -0.4323
  102MOL0     N13383  11.471   0.308  10.256 -0.2096 -0.0950 -0.4474
  102MOL0     C13384  10.543   1.166  10.130  0.0699 -0.3904  0.3637
  102MOL0     C13385  10.412   1.206  10.077 -0.3559 -1.0654  1.0366
  102MOL0     C13386  10.150   1.417   9.811 -0.2773 -0.4429 -0.6265
  102MOL0     C13387  10.034   1.417   9.893  0.7787 -1.3060 -0.8821
  102MOL0     C13388   9.918   1.483   9.839 -0.4418  0.5444 -0.3036
  102MOL0     C13389   9.916   1.566   9.730 -0.5947  0.3763 -0.0979
  102MOL0     O13390   9.805   1.632   9.692 -0.1677 -0.3326  0.2007
  102MOL0     C13391   9.725   1.688   9.796 -0.5829 -0.8996  0.5383
  102MOL0     C13392   9.785   1.826   9.838  0.0174  0.0084 -0.5356
  102MOL0     C13393   9.671   1.888   9.919 -0.4259  0.0270 -0.1450
  102MOL0     C13394   9.715   2.006   9.997  0.7134 -0.5218 -0.2777
  102MOL0     C13395   9.607   2.071  10.076 -0.0912  0.9151 -1.0131
  102MOL0     C13396   9.520   2.146  10.121 -0.5741  0.4392  0.4986
  102MOL0     C13397  10.030   1.559   9.646  0.7465 -1.1211  0.0633
  102MOL0     C13398  10.148   1.480   9.679  0.6594  0.6709  0.0344
  102MOL0     H13399  10.399   1.033   9.789 -0.7171 -1.4457  0.5545
  102MOL0     H13400  10.616   0.945   9.890 -0.0582  0.1418 -0.2141
  102MOL0     H13401  10.784   1.215  10.157 -1.6337 -0.9027  0.0066
  102MOL0     H13402  10.843   1.195   9.990  1.5887  0.9919 -0.3058
  102MOL0     H13403  10.974   1.114  10.246  2.7385  7.8428 -0.4566
  102MOL0     H13404  11.049   1.169  10.095 -1.2796  2.2485  1.0593
  102MOL0     H13405  11.028   0.966   9.980  3.2170 -1.9541 -0.0455
  102MOL0     H13406  10.936   0.884  10.105 -1.3116  0.2886 -0.2706
  102MOL0     H13407  11.231   0.987  10.106 -0.4861  1.8097  0.2355
  102MOL0     H13408  11.158   0.936  10.256  2.5329 -2.0996  0.1270
  102MOL0     H13409  11.193   0.778  10.004 -2.0237 -3.6952  0.0611
  102MOL0     H13410  11.107   0.721  10.147  1.9128 -1.0780  1.7810
  102MOL0     H13411  11.332   0.764  10.275  0.6626  0.8447  0.0037
  102MOL0     H13412  11.389   0.812  10.124 -2.7166  1.6153 -0.0287
  102MOL0     H13413  11.243   0.541  10.155 -2.7885  1.0719 -2.7172
  102MOL0     H13414  11.330   0.587  10.016 -1.0119  1.7626  0.4442
  102MOL0     H13415  11.440   0.552  10.308 -0.1082  3.4405 -0.5798
  102MOL0     H13416  11.540   0.604  10.179  1.5663 -2.5717  0.5601
  102MOL0     H13417  11.620   0.421   9.981 -1.5167 -0.4896 -1.0991
  102MOL0     H13418  11.800   0.201  10.034 -1.3028  1.1956 -1.7830
  102MOL0     H13419  11.660   0.158   9.929 -1.0598 -4.1169 -0.0930
  102MOL0     H13420  11.616  -0.038  10.055  0.6392  0.5720 -1.7610
  102MOL0     H13421  11.724   0.005  10.186 -0.9138  1.0709  0.3389
  102MOL0     H13422  11.826  -0.051   9.897  0.8363  2.2621  0.8021
  102MOL0     H13423  11.918  -0.017  10.044 -0.4768  0.4705 -0.7192
  102MOL0     H13424  11.764  -0.269   9.990  1.7786  2.2871 -2.9914
  102MOL0     H13425  11.805  -0.228  10.151 -0.9142 -2.2553 -0.0107
  102MOL0     H13426  11.813  -0.271   9.783  0.5925  0.4231  0.9989
  102MOL0     H13427  11.885  -0.372   9.583 -0.3867 -1.8726  0.1735
  102MOL0     H13428  12.057  -0.813   9.370  0.9024 -0.1442 -0.7728
  102MOL0     H13429  12.063  -0.891   9.151  1.5787  0.1555  2.3912
  102MOL0     H13430  11.959  -0.757   8.737  1.8451  0.7615 -1.2041
  102MOL0     H13431  11.950  -0.608   8.821  1.2751  0.2466  1.4224
  102MOL0     H13432  11.709  -0.658   8.761 -1.2501 -0.8769 -1.1983
  102MOL0     H13433  11.705  -0.717   8.925 -0.0244  0.6475 -0.5031
  102MOL0     H13434  11.771  -0.946   8.824 -4.1963  0.5392  3.4628
  102MOL0     H13435  11.753  -0.875   8.661  1.7133 -0.3576  0.5174
  102MOL0     H13436  11.567  -0.907   8.875  0.7715  1.2103  0.1441
  102MOL0     H13437  11.531  -0.782   8.754  0.9637  0.1924 -2.3053
  102MOL0     H13438  11.505  -0.936   8.575 -1.5855 -0.3058 -0.7305
  102MOL0     H13439  11.407  -1.005   8.691 -0.2752  0.2434 -1.8704
  102MOL0     H13440  11.592  -1.168   8.746  2.9109 -1.6341 -0.1198
  102MOL0     H13441  11.695  -1.089   8.632 -0.9364 -0.8754 -1.7398
  102MOL0     H13442  11.573  -1.162   8.444 -1.0146 -2.0152 -1.7148
  102MOL0     H13443  11.604  -1.298   8.558 -0.8342 -0.8999  0.1333
  102MOL0     H13444  11.352  -1.158   8.482 -2.4456 -2.3205 -2.4542
  102MOL0     H13445  11.362  -1.247   8.636  2.5033 -0.9716  1.4148
  102MOL0     H13446  11.875  -0.527   9.014 -2.4723 -2.2946 -0.6775
  102MOL0     H13447  11.870  -0.442   9.252  1.5092  0.3356 -0.3925
  102MOL0     H13448  12.203  -0.579   9.762 -1.9652 -1.9269  0.4697
  102MOL0     H13449  12.160  -0.462   9.968 -0.1474 -0.1984 -0.1863
  102MOL0     H13450  10.578   1.221  10.217  1.4592 -1.3423  0.4414
  102MOL0     H13451  10.350   1.283  10.120  2.3048  0.1445  2.9943
  102MOL0     H13452  10.023   1.350   9.978 -0.4243  1.1958  1.0596
  102MOL0     H13453   9.834   1.466   9.906  1.8068  1.2702  2.9252
  102MOL0     H13454   9.711   1.629   9.887 -0.5000  0.9500  1.8147
  102MOL0     H13455   9.627   1.700   9.749  0.8827  2.4333 -2.1314
  102MOL0     H13456   9.879   1.831   9.893 -1.2126  0.0829  1.6810
  102MOL0     H13457   9.794   1.885   9.747  0.7853  1.6286  0.5447
  102MOL0     H13458   9.634   1.822   9.998  2.3082  1.7072  2.7796
  102MOL0     H13459   9.600   1.915   9.841  0.4062 -1.6660 -1.5482
  102MOL0     H13460   9.809   1.986  10.050  3.2203  2.3367 -3.2116
  102MOL0     H13461   9.733   2.074   9.913 -0.4466  0.2546  0.0743
  102MOL0     H13462   9.431   2.202  10.141 -0.4712  0.0007  2.3890
  102MOL0     H13463  10.035   1.619   9.556  4.3764  0.7193  1.2790
  102MOL0     H13464  10.236   1.460   9.618  0.1264  0.8585 -0.7970
  103MOL0     O13465   8.335   3.080   0.786  0.3852  0.2869 -0.3902
  103MOL0     C13466   8.289   3.121   0.681 -0.0700 -0.0833 -1.1044
  103MOL0     O13467   8.322   3.075   0.559  0.3641 -0.1857  1.0816
  103MOL0     C13468   8.375   2.947   0.561 -1.0089 -0.2026  0.3045
  103MOL0     C13469   8.508   2.929   0.518 -0.5243 -0.2324 -0.3348
  103MOL0     C13470   8.571   2.810   0.502  0.1281 -0.3690  0.4283
  103MOL0     C13471   8.500   2.690   0.531  0.0390  0.2084  0.0017
  103MOL0     O13472   8.568   2.569   0.501 -0.4331  0.4239 -0.1369
  103MOL0     C13473   8.483   2.454   0.472 -0.1906  0.5994  0.6439
  103MOL0     C13474   8.566   2.326   0.472  0.5738 -0.6917 -0.1574
  103MOL0     C13475   8.491   2.201   0.490  0.9232  0.0488 -1.6591
  103MOL0     C13476   8.571   2.076   0.521 -0.5096  0.0752  0.3900
  103MOL0     C13477   8.492   1.949   0.555 -0.0316  0.0007  0.4050
  103MOL0     C13478   8.426   1.957   0.696  0.0415 -0.2519 -0.1396
  103MOL0     C13479   8.360   1.824   0.730  0.7734 -0.1499  0.5813
  103MOL0     C13480   8.426   1.683   0.723 -0.0655  0.2558 -0.0059
  103MOL0     N13481   8.327   1.580   0.686  0.4949 -0.1470  0.1557
  103MOL0     C13482   8.236   1.539   0.777 -0.5256 -1.2373  0.3237
  103MOL0     C13483   8.174   1.426   0.729 -0.5716 -0.1767 -0.1534
  103MOL0     C13484   8.048   1.363   0.774 -0.2199 -0.7168 -0.7096
  103MOL0     C13485   8.055   1.271   0.899  0.0529  0.2952  0.4099
  103MOL0     C13486   7.929   1.189   0.937 -1.0462 -0.1228  0.2697
  103MOL0     C13487   7.797   1.271   0.929  0.9354 -0.3524 -0.3149
  103MOL0     O13488   7.798   1.374   1.021 -0.2192 -0.0667 -0.1481
  103MOL0     C13489   7.690   1.454   1.025 -0.0476  0.4243 -0.4396
  103MOL0     C13490   7.617   1.512   0.912 -0.0793 -0.0950 -0.4505
  103MOL0     C13491   7.515   1.600   0.949 -0.0454  0.0379  0.3350
  103MOL0     C13492   7.480   1.630   1.083 -0.4089  0.1125 -0.4726
  103MOL0     C13493   7.363   1.715   1.117 -0.5202 -0.3481  0.0722
  103MOL0     O13494   7.260   1.708   1.035 -0.8191  0.4853  0.3113
  103MOL0     C13495   7.143   1.788   1.046  0.2501  1.4362 -0.1152
  103MOL0     C13496   7.126   1.908   1.121 -0.2993  0.2793  0.7735
  103MOL0     C13497   6.997   1.970   1.107  0.0850  0.0067 -0.0080
  103MOL0     C13498   6.897   1.923   1.013  0.1959  0.8876 -0.1998
  103MOL0     O13499   6.777   1.978   1.027  0.2415 -0.1910 -0.0828
  103MOL0     C13500   6.668   1.955   0.930  0.0830 -1.1208 -0.8026
  103MOL0     C13501   6.565   2.069   0.925 -0.3676 -0.6368  0.6065
  103MOL0     C13502   6.436   2.022   0.851  0.3872  0.3760  0.3239
  103MOL0     C13503   6.329   2.127   0.856  1.1759  0.1518  0.4474
  103MOL0     C13504   6.183   2.068   0.854 -0.5132  1.0952 -0.9342
  103MOL0     C13505   6.071   2.173   0.825  0.3004  0.2383 -0.0496
  103MOL0     C13506   6.077   2.293   0.928  0.2332 -0.6257 -0.3415
  103MOL0     C13507   6.051   2.266   1.068  1.0143 -0.3046 -0.4589
  103MOL0    Cl13508   5.876   2.272   1.106 -0.2664 -0.3872  0.1435
  103MOL0     C13509   6.921   1.806   0.937 -1.2090  1.0573 -0.0620
  103MOL0     C13510   7.039   1.742   0.962  0.3344  0.3834  0.0088
  103MOL0     O13511   7.364   1.771   1.223 -0.7267 -0.5713 -0.6697
  103MOL0     C13512   7.557   1.583   1.181 -0.1967 -0.2784 -0.3817
  103MOL0     C13513   7.664   1.490   1.157  0.7976 -0.2823  0.1964
  103MOL0     N13514   8.234   1.410   0.607 -0.8940 -0.1430  0.3473
  103MOL0     N13515   8.317   1.503   0.581 -0.1860 -0.0303  0.2704
  103MOL0     C13516   8.366   2.707   0.562  0.3163 -0.2951 -0.5881
  103MOL0     C13517   8.303   2.831   0.579  0.0376 -0.7031  0.3139
  103MOL0     C13518   8.206   3.235   0.690 -0.4199  0.0264  0.6371
  103MOL0     C13519   8.158   3.299   0.575  0.5078  0.4113  0.0309
  103MOL0     C13520   8.079   3.408   0.579  1.1414 -0.6128  0.0561
  103MOL0     C13521   8.055   3.469   0.702  0.2877 -0.7219 -0.5051
  103MOL0     O13522   7.965   3.576   0.713 -0.6485 -0.3044  1.5621
  103MOL0     C13523   7.844   3.541   0.771  0.0966 -0.6051 -0.2107
  103MOL0     C13524   7.732   3.543   0.669 -0.3300 -0.3350 -0.4339
  103MOL0     C13525   7.594   3.514   0.737 -0.1003  0.7124  0.3907
  103MOL0     C13526   7.566   3.363   0.748  0.7376 -0.1931  0.4530
  103MOL0     C13527   7.448   3.351   0.830 -0.5109  0.4717  0.3697
  103MOL0     C13528   7.337   3.361   0.883 -0.3713  1.1032 -0.2668
  103MOL0     C13529   8.110   3.418   0.817  1.2022  0.0781 -0.6100
  103MOL0     C13530   8.183   3.302   0.812  0.4303  0.2399 -0.1675
  103MOL0     H13531   8.564   3.022   0.510 -0.7524 -0.1938 -1.7001
  103MOL0     H13532   8.676   2.810   0.475 -0.0293  0.1555 -0.1998
  103MOL0     H13533   8.452   2.480   0.370 -1.3471 -0.4964  0.7027
  103MOL0     H13534   8.395   2.450   0.536 -0.6883  2.0647  0.0946
  103MOL0     H13535   8.634   2.331   0.558 -0.9311 -2.8051  1.2878
  103MOL0     H13536   8.627   2.310   0.383 -1.9349 -2.5045 -1.6886
  103MOL0     H13537   8.433   2.174   0.401 -0.7374 -0.6119 -0.4386
  103MOL0     H13538   8.421   2.213   0.573 -0.6563  0.4655 -3.0080
  103MOL0     H13539   8.632   2.046   0.435  2.6180 -2.9611  3.3643
  103MOL0     H13540   8.649   2.097   0.594 -0.6650  0.7374  0.3696
  103MOL0     H13541   8.571   1.875   0.569  1.1743  1.3421  0.8274
  103MOL0     H13542   8.428   1.915   0.472  0.1652 -0.7308  0.5431
  103MOL0     H13543   8.350   2.034   0.684 -1.8408 -1.9709  0.0754
  103MOL0     H13544   8.482   1.983   0.786 -1.0065  1.3934  0.0714
  103MOL0     H13545   8.325   1.831   0.833 -0.7854  0.3745  0.0484
  103MOL0     H13546   8.271   1.822   0.666  0.7284  0.1110  0.6343
  103MOL0     H13547   8.464   1.668   0.824  0.3753  2.0335  0.1189
  103MOL0     H13548   8.510   1.676   0.653  1.8598 -2.5083  2.3384
  103MOL0     H13549   8.227   1.605   0.862  0.4616 -0.1823 -0.3590
  103MOL0     H13550   7.990   1.323   0.691 -3.2272  4.0568 -1.2793
  103MOL0     H13551   7.982   1.445   0.805  1.5550 -1.0537  5.2350
  103MOL0     H13552   8.095   1.341   0.972  0.9313 -0.1994  0.4311
  103MOL0     H13553   8.132   1.195   0.880 -1.0076 -0.6294 -0.3085
  103MOL0     H13554   7.921   1.107   0.865  0.0336  0.9045 -1.0643
  103MOL0     H13555   7.940   1.141   1.035 -0.5369  2.8398  1.7837
  103MOL0     H13556   7.715   1.200   0.944  1.0569 -0.3247  0.5556
  103MOL0     H13557   7.778   1.310   0.829 -1.5895 -0.5692  0.0031
  103MOL0     H13558   7.651   1.505   0.809  0.3601  5.0142 -0.9067
  103MOL0     H13559   7.451   1.643   0.873  1.6708 -1.7674 -2.3427
  103MOL0     H13560   7.209   1.943   1.182  2.9138 -1.0094 -2.4629
  103MOL0     H13561   6.973   2.062   1.159 -2.4523 -0.5082 -0.1529
  103MOL0     H13562   6.612   1.867   0.961 -0.0879 -0.8718 -0.3955
  103MOL0     H13563   6.712   1.939   0.831 -1.8854 -2.8784 -1.4502
  103MOL0     H13564   6.617   2.155   0.883 -2.0906  0.4007  0.4976
  103MOL0     H13565   6.535   2.091   1.027  0.1785  1.1993  0.3974
  103MOL0     H13566   6.393   1.936   0.904  0.1324 -0.2659 -0.8953
  103MOL0     H13567   6.455   1.999   0.746  0.8908 -0.3241  0.5622
  103MOL0     H13568   6.334   2.190   0.945 -0.3877 -2.0017  2.1903
  103MOL0     H13569   6.355   2.190   0.770 -2.1754  2.4679  0.9359
  103MOL0     H13570   6.161   2.020   0.950  0.1471 -3.0970 -2.6745
  103MOL0     H13571   6.188   1.993   0.774  0.5594  1.6347 -1.3996
  103MOL0     H13572   5.969   2.134   0.815  0.9175 -1.0143 -2.5417
  103MOL0     H13573   6.093   2.214   0.726  1.1555  0.7989  0.3655
  103MOL0     H13574   6.167   2.355   0.931 -1.2714  1.6547  2.7363
  103MOL0     H13575   5.998   2.351   0.881 -1.4760 -1.3507  1.4972
  103MOL0     H13576   6.086   2.348   1.131 -1.4490 -1.0768  2.1118
  103MOL0     H13577   6.108   2.184   1.113 -0.1995 -1.0021 -0.1283
  103MOL0     H13578   6.862   1.773   0.852  1.3074  0.8745 -1.8497
  103MOL0     H13579   7.047   1.663   0.888  1.5536 -0.8022  1.3282
  103MOL0     H13580   7.522   1.607   1.281  0.3671  3.1317 -0.8745
  103MOL0     H13581   7.723   1.442   1.235  0.2696 -2.3371 -0.6366
  103MOL0     H13582   8.302   2.622   0.584 -0.3799  0.3058 -0.2497
  103MOL0     H13583   8.197   2.849   0.595  0.6183  2.0742  1.6700
  103MOL0     H13584   8.184   3.257   0.478 -1.6006  2.0683 -1.3391
  103MOL0     H13585   8.037   3.444   0.486  0.1674  1.4259  1.2139
  103MOL0     H13586   7.819   3.608   0.854 -1.2359 -0.6058 -0.5876
  103MOL0     H13587   7.849   3.442   0.817  0.2200 -0.0626  0.9916
  103MOL0     H13588   7.728   3.643   0.624 -3.3303 -0.0508  0.2260
  103MOL0     H13589   7.757   3.468   0.593  0.6197 -1.7064  1.1604
  103MOL0     H13590   7.522   3.557   0.667  0.3283  1.0764  0.1720
  103MOL0     H13591   7.568   3.571   0.827 -0.8227  4.3326 -1.9155
  103MOL0     H13592   7.562   3.309   0.653 -0.0638 -2.8593  1.9075
  103MOL0     H13593   7.646   3.307   0.796  0.9669 -1.4040 -1.2443
  103MOL0     H13594   7.243   3.382   0.929  0.9826 -0.5790  3.7239
  103MOL0     H13595   8.108   3.463   0.915 -2.3197 -0.8827 -0.0993
  103MOL0     H13596   8.223   3.266   0.906  2.8161  1.3267 -0.6956
  104MOL0     O13597  10.618   3.572   8.546 -0.6944 -0.3684  1.1115
  104MOL0     C13598  10.708   3.491   8.564  0.6448  0.4828  0.0673
  104MOL0     O13599  10.812   3.508   8.646  0.5868 -0.5536 -0.0750
  104MOL0     C13600  10.838   3.642   8.688 -0.9478 -0.1637  0.3646
  104MOL0     C13601  10.876   3.743   8.593 -0.9844 -0.5547 -0.0628
  104MOL0     C13602  10.933   3.864   8.638  0.1666  0.8049  0.2583
  104MOL0     C13603  10.944   3.896   8.777  0.3965 -0.8824  0.1265
  104MOL0     O13604  11.015   4.010   8.815 -0.1643  0.3519 -0.1165
  104MOL0     C13605  11.042   4.046   8.954  0.2164 -0.4678  0.7930
  104MOL0     C13606  10.929   4.123   9.005  0.7035  0.7533  0.5265
  104MOL0     C13607  10.909   4.268   8.951 -0.1772  0.5251  0.5766
  104MOL0     C13608  11.011   4.364   9.020  0.5783 -0.3970 -0.2189
  104MOL0     C13609  10.999   4.512   8.965 -0.4678  0.7977 -0.0802
  104MOL0     C13610  11.078   4.601   9.069  0.3048 -0.2176  0.4010
  104MOL0     C13611  11.072   4.751   9.032 -0.6724  1.2122 -0.3896
  104MOL0     C13612  11.170   4.836   9.111  0.1889 -0.6336  0.0147
  104MOL0     N13613  11.160   4.842   9.258  0.4131 -0.3624 -0.4179
  104MOL0     C13614  11.071   4.926   9.334 -0.3322  0.8458  0.1808
  104MOL0     C13615  11.093   4.894   9.462  0.4711  0.2180  0.4021
  104MOL0     C13616  11.005   4.939   9.584 -0.5019 -0.2255 -0.7920
  104MOL0     C13617  11.005   5.099   9.601  0.3989  0.7213  0.2814
  104MOL0     C13618  10.900   5.128   9.708  0.3347 -0.0733  0.4733
  104MOL0     C13619  10.880   5.277   9.749 -0.3865  0.6804  0.4466
  104MOL0     O13620  11.004   5.340   9.760  0.1579 -1.0620  0.4569
  104MOL0     C13621  11.006   5.471   9.815 -0.0489  0.3574 -0.6766
  104MOL0     C13622  11.126   5.527   9.864 -0.0301  0.7090 -0.3308
  104MOL0     C13623  11.143   5.655   9.909 -0.9748 -0.6651 -0.3958
  104MOL0     C13624  11.026   5.721   9.943 -0.2339  0.6511  0.3746
  104MOL0     C13625  11.027   5.849  10.006  0.5984 -0.5251  0.7416
  104MOL0     O13626  10.913   5.922  10.009 -0.0980  0.5999  0.2112
  104MOL0     C13627  10.921   6.037  10.079 -0.5745  0.9773 -0.3605
  104MOL0     C13628  10.912   6.032  10.218  0.2716  0.0276  0.3793
  104MOL0     C13629  10.908   6.149  10.291  0.4466  0.0425  0.3568
  104MOL0     C13630  10.936   6.267  10.230  0.4171  0.4532  0.8890
  104MOL0     O13631  10.934   6.376  10.310 -0.0687 -0.0594  0.1054
  104MOL0     C13632  10.832   6.480  10.299  0.0917 -0.1707  0.1761
  104MOL0     C13633  10.859   6.578  10.418 -0.7072 -0.0373 -0.0945
  104MOL0     C13634  10.779   6.708  10.409 -0.0244 -0.7598 -0.1475
  104MOL0     C13635  10.830   6.800  10.297  0.1854  0.4202  0.1211
  104MOL0     C13636  10.751   6.930  10.280  0.1174 -0.0305 -0.0923
  104MOL0     C13637  10.817   7.048  10.223 -1.0948  0.1756 -0.1531
  104MOL0     C13638  10.874   7.009  10.092  0.9846  0.0994 -0.2590
  104MOL0     C13639  10.924   7.131  10.031 -0.3667  0.1027 -0.6340
  104MOL0    Cl13640  11.069   7.190  10.105  0.0988  0.0972 -0.0248
  104MOL0     C13641  10.933   6.274  10.091 -0.3549  0.8348  0.5803
  104MOL0     C13642  10.929   6.158  10.015 -0.0636 -0.8464 -0.5445
  104MOL0     O13643  11.135   5.885  10.050 -0.7807  0.2142 -0.1065
  104MOL0     C13644  10.899   5.669   9.909 -0.3400  0.1935 -0.3643
  104MOL0     C13645  10.890   5.550   9.842  0.4502  0.1059 -0.8087
  104MOL0     N13646  11.203   4.808   9.463 -0.6698  0.8345  0.0383
  104MOL0     N13647  11.238   4.774   9.342 -0.1364 -1.2247 -0.1032
  104MOL0     C13648  10.908   3.792   8.872  0.1208 -0.3661 -0.2407
  104MOL0     C13649  10.866   3.668   8.827  0.8885  0.4650 -0.1818
  104MOL0     C13650  10.703   3.363   8.489  0.7449 -0.9456 -0.1733
  104MOL0     C13651  10.572   3.304   8.465 -0.3148  0.1749 -0.3025
  104MOL0     C13652  10.562   3.181   8.405 -0.2232  0.2140 -0.8498
  104MOL0     C13653  10.681   3.101   8.395  0.0513  0.1892  0.2594
  104MOL0     O13654  10.701   2.972   8.352  0.2202 -0.1029 -0.3274
  104MOL0     C13655  10.574   2.895   8.337 -0.8190  0.0444 -0.7085
  104MOL0     C13656  10.607   2.777   8.426 -0.0168 -0.2182  0.5849
  104MOL0     C13657  10.511   2.659   8.389  0.7845  0.5219  0.1128
  104MOL0     C13658  10.554   2.521   8.435 -0.9232  0.2744 -0.1169
  104MOL0     C13659  10.456   2.411   8.391 -0.5899  0.7278 -0.2579
  104MOL0     C13660  10.402   2.307   8.364  0.4918 -0.0776  0.9055
  104MOL0     C13661  10.808   3.164   8.425  0.7600 -0.5958 -0.1562
  104MOL0     C13662  10.815   3.291   8.470  0.3848  0.1141 -0.7315
  104MOL0     H13663  10.860   3.726   8.487  0.1721  0.2572 -0.3851
  104MOL0     H13664  10.978   3.942   8.578  1.5178  0.4053  0.7074
  104MOL0     H13665  11.128   4.114   8.957  0.8520 -1.2224  0.1420
  104MOL0     H13666  11.069   3.956   9.011  1.3023 -1.3516 -1.0304
  104MOL0     H13667  10.930   4.129   9.114 -4.9365 -1.1184  1.0400
  104MOL0     H13668  10.833   4.080   8.974 -0.6404  4.3440 -0.7865
  104MOL0     H13669  10.810   4.302   8.982  0.9283  3.4897  1.1227
  104MOL0     H13670  10.920   4.269   8.842 -5.2247 -0.4222 -0.1888
  104MOL0     H13671  10.987   4.361   9.127  0.2913 -3.4330 -0.2814
  104MOL0     H13672  11.114   4.332   9.001  0.7709 -0.8280  1.3793
  104MOL0     H13673  10.898   4.550   8.954 -0.6781  0.2676 -0.0201
  104MOL0     H13674  11.057   4.511   8.873  2.7217 -0.8073  1.7407
  104MOL0     H13675  11.183   4.573   9.077  0.7394  1.7941  3.5215
  104MOL0     H13676  11.042   4.578   9.170  3.6283 -1.1718  1.5064
  104MOL0     H13677  11.096   4.774   8.928 -1.1224 -2.2648 -1.3987
  104MOL0     H13678  10.966   4.778   9.033 -1.0233 -0.1042 -0.1825
  104MOL0     H13679  11.165   4.940   9.079  0.4086  0.6877  3.7431
  104MOL0     H13680  11.270   4.799   9.085  0.2302 -0.8608  0.4782
  104MOL0     H13681  10.991   4.990   9.299 -1.5916 -1.6095 -1.7896
  104MOL0     H13682  11.055   4.902   9.674 -1.9971  1.2721  0.7141
  104MOL0     H13683  10.902   4.906   9.569 -1.1747  0.0701  2.4982
  104MOL0     H13684  10.984   5.148   9.506 -1.4427  1.7217  1.1362
  104MOL0     H13685  11.108   5.117   9.634 -0.5006  3.1599  2.0577
  104MOL0     H13686  10.799   5.085   9.698  0.7276 -0.6132 -1.5601
  104MOL0     H13687  10.947   5.092   9.800  1.0718 -2.2930 -0.7152
  104MOL0     H13688  10.818   5.277   9.839 -0.9160 -1.7217  0.1558
  104MOL0     H13689  10.822   5.333   9.675  0.8160  0.3632 -0.7745
  104MOL0     H13690  11.209   5.457   9.874 -1.4406 -0.7508  2.1768
  104MOL0     H13691  11.244   5.688   9.932 -0.3346 -0.8735 -2.6278
  104MOL0     H13692  10.887   5.935  10.259  0.3292 -1.3626 -2.6195
  104MOL0     H13693  10.891   6.157  10.398 -0.1805  2.2928  0.1400
  104MOL0     H13694  10.736   6.433  10.323  0.9269 -4.6783 -3.8984
  104MOL0     H13695  10.842   6.527  10.201 -1.1972 -3.1503 -1.5007
  104MOL0     H13696  10.965   6.593  10.400  0.4400 -4.0725  2.2454
  104MOL0     H13697  10.852   6.523  10.512  1.0200 -3.2837 -1.7006
  104MOL0     H13698  10.788   6.754  10.508 -0.5493  2.9492 -1.6546
  104MOL0     H13699  10.672   6.684  10.401  0.0074 -1.7461  1.7673
  104MOL0     H13700  10.933   6.818  10.329  0.0155 -3.1178  3.2557
  104MOL0     H13701  10.833   6.740  10.206 -0.8461 -0.9973  0.9977
  104MOL0     H13702  10.711   6.960  10.377 -1.5615 -2.7500  0.1810
  104MOL0     H13703  10.661   6.900  10.224  0.8307 -0.5687 -0.9703
  104MOL0     H13704  10.891   7.082  10.295 -1.2404  2.3234 -0.9564
  104MOL0     H13705  10.742   7.126  10.207 -0.1232  1.0459 -0.5141
  104MOL0     H13706  10.949   6.934  10.118  1.3054  1.3342  2.8344
  104MOL0     H13707  10.800   6.961  10.028 -1.6063 -0.0158  2.5698
  104MOL0     H13708  10.845   7.204  10.013  0.0217  0.2272 -1.9506
  104MOL0     H13709  10.956   7.088   9.936 -3.1410 -1.7921 -0.8207
  104MOL0     H13710  10.953   6.362  10.030 -1.5678  0.2043 -0.7753
  104MOL0     H13711  10.935   6.178   9.908  1.2473 -1.0076 -0.5155
  104MOL0     H13712  10.801   5.711   9.928 -2.0663 -3.2252 -0.8870
  104MOL0     H13713  10.795   5.504   9.821 -0.6690  1.0023  1.8491
  104MOL0     H13714  10.903   3.814   8.978 -1.5051  1.7697 -0.6809
  104MOL0     H13715  10.863   3.585   8.896  0.3470 -0.4907 -1.3247
  104MOL0     H13716  10.483   3.361   8.490  1.0197  1.2177  2.4665
  104MOL0     H13717  10.460   3.149   8.384  0.6178 -2.3416 -1.4188
  104MOL0     H13718  10.562   2.869   8.232  2.2253 -2.6986 -0.5247
  104MOL0     H13719  10.483   2.947   8.372 -1.0561  0.6157 -2.0997
  104MOL0     H13720  10.710   2.754   8.395  0.4410  2.7047 -0.4690
  104MOL0     H13721  10.597   2.801   8.532 -2.3677  3.3211 -0.2401
  104MOL0     H13722  10.493   2.655   8.281  0.8234  1.0999  0.0847
  104MOL0     H13723  10.418   2.684   8.440 -0.9731 -0.0221 -2.6300
  104MOL0     H13724  10.661   2.520   8.410 -0.7123  2.2668  0.4709
  104MOL0     H13725  10.558   2.518   8.544  3.4912 -1.4566 -0.1249
  104MOL0     H13726  10.331   2.231   8.339  1.7710 -1.0745  0.1868
  104MOL0     H13727  10.902   3.111   8.423  2.1866  1.8055 -0.2972
  104MOL0     H13728  10.916   3.329   8.485 -0.1072  1.0068  0.5563
  105MOL0     O13729   8.976   6.588  10.807  0.6944 -0.1379  0.2024
  105MOL0     C13730   9.094   6.605  10.837  0.2836  0.1725  0.3771
  105MOL0     O13731   9.159   6.726  10.836 -1.0630 -0.4426  0.0760
  105MOL0     C13732   9.081   6.839  10.829  0.3136  0.1523  0.0274
  105MOL0     C13733   8.998   6.883  10.931  0.6615 -0.4073 -0.0956
  105MOL0     C13734   8.919   6.992  10.928  0.2209 -0.7897 -0.2988
  105MOL0     C13735   8.925   7.070  10.816 -0.5735  0.5238  0.3911
  105MOL0     O13736   8.843   7.178  10.784  1.1031  0.0148 -0.0766
  105MOL0     C13737   8.753   7.244  10.882 -0.1516 -0.0935 -0.4642
  105MOL0     C13738   8.819   7.307  11.003  0.1227  0.5150 -0.4308
  105MOL0     C13739   8.721   7.384  11.092 -0.1120  0.1577 -0.1031
  105MOL0     C13740   8.704   7.521  11.040 -0.0648  0.7278 -0.5376
  105MOL0     C13741   8.608   7.596  11.137  0.8599 -0.0386 -0.4629
  105MOL0     C13742   8.600   7.742  11.103 -0.0663 -0.6990 -0.6237
  105MOL0     C13743   8.515   7.823  11.196  0.3609 -0.1831 -0.7160
  105MOL0     C13744   8.493   7.957  11.149  0.0049 -0.7636 -0.1557
  105MOL0     N13745   8.610   8.055  11.157  0.3995  0.0407  0.4022
  105MOL0     C13746   8.659   8.127  11.264 -1.8927 -0.3203 -0.1547
  105MOL0     C13747   8.774   8.196  11.213  0.8417  0.4325 -0.4586
  105MOL0     C13748   8.862   8.279  11.305 -0.1284  0.9627 -0.0403
  105MOL0     C13749   8.899   8.421  11.237 -0.0190  0.3154 -0.1503
  105MOL0     C13750   8.777   8.513  11.206  0.5330 -0.4946  1.2260
  105MOL0     C13751   8.832   8.640  11.144  1.1351 -0.5871  0.3751
  105MOL0     O13752   8.899   8.719  11.240  0.2296 -0.0605 -0.2229
  105MOL0     C13753   8.870   8.852  11.243  0.9978  0.8040 -0.3717
  105MOL0     C13754   8.821   8.914  11.354 -0.7886 -0.1050 -0.1480
  105MOL0     C13755   8.802   9.049  11.354  0.2009 -0.7182 -0.0314
  105MOL0     C13756   8.824   9.123  11.234  1.0293 -0.3071  0.5669
  105MOL0     C13757   8.810   9.268  11.227 -0.1369 -0.3219 -0.0144
  105MOL0     O13758   8.819   9.331  11.344  0.1112  0.2245  0.4391
  105MOL0     C13759   8.855   9.459  11.366 -0.3320 -1.5596 -0.6616
  105MOL0     C13760   8.826   9.519  11.487 -0.1990  0.5866  0.1732
  105MOL0     C13761   8.835   9.655  11.500  0.0405 -0.0029 -1.0533
  105MOL0     C13762   8.898   9.730  11.409 -0.9962 -0.2131  0.3997
  105MOL0     O13763   8.919   9.870  11.452  0.2816 -0.5479 -0.5565
  105MOL0     C13764   8.932   9.979  11.354  1.2315  0.0126 -0.4756
  105MOL0     C13765   8.941  10.116  11.414 -0.5238  0.5185 -0.7945
  105MOL0     C13766   8.921  10.236  11.310 -0.3235  0.3313 -0.2449
  105MOL0     C13767   8.932  10.376  11.369 -0.5020  0.0728 -0.5019
  105MOL0     C13768   9.067  10.410  11.440 -1.1298  0.2706 -0.2643
  105MOL0     C13769   9.047  10.392  11.586  0.2631  0.5876  0.4453
  105MOL0     C13770   9.170  10.406  11.685  0.0818  1.2667 -0.9209
  105MOL0     C13771   9.136  10.348  11.822  0.3468  0.4615 -0.4867
  105MOL0    Cl13772   9.008  10.454  11.901 -0.4015  0.0118 -0.6445
  105MOL0     C13773   8.930   9.678  11.287 -0.4075  0.2560 -0.2439
  105MOL0     C13774   8.905   9.544  11.264  0.4712  0.3956  0.1839
  105MOL0     O13775   8.811   9.320  11.115 -0.0236 -0.3118  0.0111
  105MOL0     C13776   8.866   9.056  11.118  0.7911  0.4155  0.1756
  105MOL0     C13777   8.896   8.920  11.132 -0.0671 -0.0554  0.3256
  105MOL0     N13778   8.777   8.176  11.079  0.6541  0.7897  0.2169
  105MOL0     N13779   8.680   8.091  11.042  0.0299  0.0609 -0.3006
  105MOL0     C13780   9.000   7.033  10.707 -0.8082 -0.5018 -0.0099
  105MOL0     C13781   9.088   6.915  10.706  0.9177 -0.5017 -0.2992
  105MOL0     C13782   9.182   6.484  10.860  0.5160  0.5954 -0.7354
  105MOL0     C13783   9.117   6.361  10.887  0.1309 -0.0954  0.1755
  105MOL0     C13784   9.183   6.240  10.912 -0.2939 -0.0175  0.1721
  105MOL0     C13785   9.317   6.232  10.913 -0.1908  0.0900  1.1935
  105MOL0     O13786   9.378   6.118  10.957 -0.4982  0.4158  0.5767
  105MOL0     C13787   9.402   6.116  11.101  0.1397  0.8787 -0.1753
  105MOL0     C13788   9.285   6.048  11.184  0.5051  0.1238  0.3021
  105MOL0     C13789   9.307   6.041  11.338  0.3980 -0.4980  0.8142
  105MOL0     C13790   9.203   5.954  11.403 -0.0350 -0.5505 -0.2806
  105MOL0     C13791   9.229   5.947  11.551 -0.3241 -0.4195  0.2374
  105MOL0     C13792   9.253   5.956  11.670  0.1669  0.3191  0.4146
  105MOL0     C13793   9.390   6.357  10.888 -0.3126  1.0503  0.2220
  105MOL0     C13794   9.321   6.475  10.864 -0.3933 -0.9101  0.5259
  105MOL0     H13795   8.986   6.825  11.022  1.3204 -1.2978 -0.5494
  105MOL0     H13796   8.860   7.035  11.008  0.3285  1.9742 -1.6023
  105MOL0     H13797   8.689   7.161  10.913  0.0364 -0.4381 -0.9967
  105MOL0     H13798   8.690   7.321  10.835 -2.9094 -1.9572 -0.0877
  105MOL0     H13799   8.897   7.379  10.976  2.0786 -0.8302  1.2699
  105MOL0     H13800   8.860   7.236  11.075 -5.3153  1.0330  3.8200
  105MOL0     H13801   8.760   7.399  11.193  1.6730  1.0543 -0.8686
  105MOL0     H13802   8.633   7.323  11.113 -1.1017  2.0682  1.7127
  105MOL0     H13803   8.796   7.580  11.031 -0.5966  1.7667  0.6100
  105MOL0     H13804   8.657   7.512  10.942 -2.2750  1.0845  0.4417
  105MOL0     H13805   8.644   7.571  11.238  1.5863 -0.1034 -0.7323
  105MOL0     H13806   8.508   7.554  11.123  1.0845 -0.0943 -2.0592
  105MOL0     H13807   8.550   7.757  11.006 -1.4145  2.3257  0.3914
  105MOL0     H13808   8.692   7.800  11.089 -1.9987  2.9959  0.6133
  105MOL0     H13809   8.417   7.781  11.217  1.4982 -0.7069  4.9558
  105MOL0     H13810   8.554   7.835  11.297 -4.7469  3.1256  1.2392
  105MOL0     H13811   8.419   8.000  11.218  0.1679  2.6953 -1.8838
  105MOL0     H13812   8.450   7.964  11.049 -0.4426 -1.5274 -0.0200
  105MOL0     H13813   8.631   8.129  11.368 -3.0055 -1.1996 -0.4195
  105MOL0     H13814   8.956   8.224  11.314 -1.6907 -1.8975  0.0460
  105MOL0     H13815   8.814   8.292  11.402 -1.6124  0.6113 -0.6992
  105MOL0     H13816   8.950   8.405  11.141 -2.0245  1.0145 -1.3865
  105MOL0     H13817   8.978   8.465  11.298  1.0431 -3.0702  1.1498
  105MOL0     H13818   8.702   8.466  11.141 -0.7375 -0.0889  2.3518
  105MOL0     H13819   8.719   8.540  11.295 -1.1186  1.1996 -0.2564
  105MOL0     H13820   8.739   8.689  11.112 -1.6114 -4.0990  2.2517
  105MOL0     H13821   8.888   8.615  11.053 -0.7597 -2.6514 -0.3336
  105MOL0     H13822   8.790   8.856  11.441  0.6406  3.1436  2.7857
  105MOL0     H13823   8.768   9.102  11.442  0.1262 -1.6472  0.5195
  105MOL0     H13824   8.784   9.456  11.565 -0.2445  1.8166  1.1964
  105MOL0     H13825   8.780   9.691  11.586  0.4732  2.0996 -1.5956
  105MOL0     H13826   8.849   9.985  11.283  2.1664 -0.9948 -1.6946
  105MOL0     H13827   9.012   9.956  11.283 -0.0618 -2.6139 -1.2248
  105MOL0     H13828   9.045  10.120  11.446 -0.2821  4.3906 -1.6175
  105MOL0     H13829   8.877  10.134  11.501  0.0585  0.5932 -0.3812
  105MOL0     H13830   8.826  10.235  11.256 -1.0269 -0.9592  0.9529
  105MOL0     H13831   9.009  10.231  11.244  0.6136  1.4236  0.8614
  105MOL0     H13832   8.922  10.449  11.288  0.2058  0.3487 -0.3414
  105MOL0     H13833   8.847  10.385  11.438  1.4219 -1.5153  2.2576
  105MOL0     H13834   9.091  10.516  11.428  0.2504  0.0674  0.4886
  105MOL0     H13835   9.146  10.345  11.400 -0.9791 -1.4821  2.6546
  105MOL0     H13836   9.014  10.290  11.606  1.5008 -0.4647 -2.2744
  105MOL0     H13837   8.963  10.457  11.611 -5.2446 -5.8589  1.1996
  105MOL0     H13838   9.262  10.365  11.643  0.4477  1.4821 -0.3313
  105MOL0     H13839   9.178  10.514  11.701 -0.6308  1.8950 -3.9949
  105MOL0     H13840   9.233  10.336  11.871 -0.6080  0.0541  1.3628
  105MOL0     H13841   9.095  10.247  11.814  0.2759  0.5806 -2.1457
  105MOL0     H13842   8.972   9.750  11.218 -0.8925 -0.3616 -1.2077
  105MOL0     H13843   8.920   9.514  11.161 -0.5935 -1.7440  0.5957
  105MOL0     H13844   8.884   9.105  11.023 -4.1795  1.8724 -0.3333
  105MOL0     H13845   8.932   8.868  11.043  0.2541  2.8331 -1.3444
  105MOL0     H13846   8.986   7.098  10.621 -1.6963 -1.4032 -0.5739
  105MOL0     H13847   9.151   6.885  10.623  1.7225 -3.2127  1.1689
  105MOL0     H13848   9.009   6.361  10.900  0.1380  1.3001  0.2827
  105MOL0     H13849   9.145   6.139  10.928  3.1432 -1.2727  1.3926
  105MOL0     H13850   9.407   6.219  11.136 -0.0111  0.6111  0.6583
  105MOL0     H13851   9.493   6.058  11.120 -0.3972 -0.0856 -0.4424
  105MOL0     H13852   9.196   6.109  11.171  1.4722  1.9488  1.7396
  105MOL0     H13853   9.270   5.945  11.150  2.2877  0.2356 -0.9763
  105MOL0     H13854   9.314   6.141  11.380  0.6231 -0.8328  1.5852
  105MOL0     H13855   9.398   5.988  11.367  0.1449 -0.5711  1.4896
  105MOL0     H13856   9.102   5.990  11.386  0.1680  0.8405  1.2500
  105MOL0     H13857   9.206   5.851  11.365 -0.9783 -1.3143  1.5761
  105MOL0     H13858   9.255   5.969  11.777  1.5096  0.3117  0.4004
  105MOL0     H13859   9.497   6.339  10.882  0.0209  2.4761  1.1289
  105MOL0     H13860   9.378   6.566  10.846 -0.4063 -1.3832 -2.3849
  106MOL0     O13861   1.736  10.862   6.180 -0.3962 -0.4798 -0.0783
  106MOL0     C13862   1.693  10.937   6.100  0.0765  0.4890 -0.0224
  106MOL0     O13863   1.611  11.038   6.120 -0.1605 -0.5239  0.0542
  106MOL0     C13864   1.545  11.050   6.234  0.1531  0.5630 -0.2166
  106MOL0     C13865   1.613  11.078   6.357  0.1424 -0.4727  0.6487
  106MOL0     C13866   1.538  11.100   6.475  0.3819 -0.0236  0.3060
  106MOL0     C13867   1.401  11.086   6.487 -0.6178 -0.1890  0.2397
  106MOL0     O13868   1.345  11.104   6.611  0.2915  0.4055 -0.3624
  106MOL0     C13869   1.205  11.096   6.648 -0.0334  1.6417  0.0820
  106MOL0     C13870   1.171  11.123   6.798 -0.0785  0.6986  1.2827
  106MOL0     C13871   1.228  11.040   6.911 -0.8639  0.7907  0.2148
  106MOL0     C13872   1.166  11.062   7.044 -0.5484  0.2464 -0.3743
  106MOL0     C13873   1.225  10.962   7.145 -0.1687 -0.2197 -0.8905
  106MOL0     C13874   1.156  10.826   7.146 -0.2909  0.5437  0.4679
  106MOL0     C13875   1.214  10.732   7.252 -1.0072 -0.4236 -1.0284
  106MOL0     C13876   1.182  10.780   7.394  0.4600 -0.1075  0.0448
  106MOL0     N13877   1.195  10.673   7.494  0.4732  1.0217 -0.4286
  106MOL0     C13878   1.315  10.640   7.552 -0.0323 -0.1606 -0.6784
  106MOL0     C13879   1.270  10.570   7.670  0.5525  0.6561 -0.3842
  106MOL0     C13880   1.356  10.547   7.790 -0.6344  0.1515 -0.0688
  106MOL0     C13881   1.325  10.646   7.898  0.3208  0.3449 -0.1864
  106MOL0     C13882   1.195  10.620   7.970 -0.3034  0.8393 -0.2781
  106MOL0     C13883   1.197  10.490   8.043  0.1871 -0.0924 -0.9746
  106MOL0     O13884   1.122  10.522   8.165  0.0671  1.2507 -0.0274
  106MOL0     C13885   0.989  10.542   8.173  1.1153  0.7162  0.5390
  106MOL0     C13886   0.942  10.628   8.275 -0.3835  0.0887  0.3211
  106MOL0     C13887   0.812  10.673   8.276  0.1118 -0.3633 -0.3157
  106MOL0     C13888   0.723  10.625   8.190 -0.0438  1.0310  1.0520
  106MOL0     C13889   0.579  10.668   8.181 -0.8957  0.3856 -0.5177
  106MOL0     O13890   0.561  10.784   8.237 -0.0049  0.1428 -0.3164
  106MOL0     C13891   0.433  10.826   8.255  0.8000  0.5839 -0.3518
  106MOL0     C13892   0.364  10.894   8.164  0.4926 -0.3434  0.3212
  106MOL0     C13893   0.222  10.923   8.172 -0.2182 -0.2126  0.2080
  106MOL0     C13894   0.160  10.875   8.291 -0.5515 -0.3437 -0.3009
  106MOL0     O13895   0.029  10.906   8.307 -0.2103 -0.5660 -0.0138
  106MOL0     C13896  -0.049  10.797   8.351 -0.1632 -0.7411 -0.3387
  106MOL0     C13897  -0.201  10.839   8.336 -0.5025 -1.3968 -0.1333
  106MOL0     C13898  -0.300  10.721   8.315 -0.1961 -0.2176 -0.5194
  106MOL0     C13899  -0.453  10.763   8.345 -0.1930  0.4145 -0.5669
  106MOL0     C13900  -0.552  10.640   8.328  0.2445  0.5724 -0.4482
  106MOL0     C13901  -0.570  10.600   8.174 -0.5631  0.0495 -0.8048
  106MOL0     C13902  -0.672  10.487   8.163  0.2900  0.4778 -0.5715
  106MOL0     C13903  -0.692  10.442   8.022  0.7440  0.4590  0.9275
  106MOL0    Cl13904  -0.724  10.592   7.926 -0.0076  0.0018 -0.3655
  106MOL0     C13905   0.231  10.795   8.386  0.2010  0.4477 -0.3701
  106MOL0     C13906   0.361  10.770   8.371 -0.1072 -0.9577  0.1443
  106MOL0     O13907   0.499  10.591   8.143  0.2955 -0.7446  0.4715
  106MOL0     C13908   0.766  10.535   8.089  0.0313 -0.0972 -0.2130
  106MOL0     C13909   0.898  10.490   8.079 -1.0328 -0.2514 -0.0552
  106MOL0     N13910   1.134  10.556   7.670 -0.1005  0.1419  0.5079
  106MOL0     N13911   1.088  10.621   7.570 -0.4210  0.1153  0.8895
  106MOL0     C13912   1.335  11.054   6.364  0.3015  0.6680  0.8550
  106MOL0     C13913   1.403  11.043   6.236 -0.2414 -0.7968 -0.3881
  106MOL0     C13914   1.727  10.920   5.958 -0.9018 -0.1200 -0.2650
  106MOL0     C13915   1.801  10.806   5.927  0.5215  0.2478  0.1824
  106MOL0     C13916   1.832  10.784   5.794 -0.7665  0.4727 -0.7643
  106MOL0     C13917   1.795  10.873   5.696 -0.6504  0.3967  0.0828
  106MOL0     O13918   1.812  10.848   5.562  0.0148 -0.6899  0.3323
  106MOL0     C13919   1.872  10.727   5.508  0.3846  0.1353  0.5662
  106MOL0     C13920   1.856  10.726   5.355  0.7226  0.0687 -0.2120
  106MOL0     C13921   1.927  10.616   5.287  0.3312 -0.9816 -1.0029
  106MOL0     C13922   1.853  10.542   5.184 -0.1445  0.4178 -1.9149
  106MOL0     C13923   1.722  10.503   5.237  0.8948 -0.3697 -0.1967
  106MOL0     C13924   1.618  10.450   5.274  0.2020 -0.5061 -0.2109
  106MOL0     C13925   1.723  10.986   5.725 -0.2627  0.2942  0.1576
  106MOL0     C13926   1.694  11.014   5.860 -0.2996  0.4264  0.5684
  106MOL0     H13927   1.721  11.090   6.365  0.0709 -0.5801  2.0000
  106MOL0     H13928   1.602  11.116   6.561  1.2620  1.7960 -0.6288
  106MOL0     H13929   1.173  10.993   6.628  0.3776  1.2037  1.5131
  106MOL0     H13930   1.157  11.163   6.576  0.8308 -1.1669 -3.3691
  106MOL0     H13931   1.062  11.116   6.805 -0.2335 -2.7052 -1.4764
  106MOL0     H13932   1.188  11.229   6.821  1.0202  0.4402  1.7047
  106MOL0     H13933   1.334  11.066   6.907 -1.2247  2.6953  1.5873
  106MOL0     H13934   1.211  10.933   6.896  0.2573  0.3849  1.5455
  106MOL0     H13935   1.203  11.164   7.062  2.1476 -1.1520  3.0884
  106MOL0     H13936   1.057  11.068   7.049 -0.6709  0.4070 -2.4219
  106MOL0     H13937   1.213  11.008   7.243  1.0119 -1.3606 -0.1768
  106MOL0     H13938   1.333  10.959   7.126 -0.3569  2.1987 -2.8597
  106MOL0     H13939   1.165  10.771   7.052 -4.6874 -0.0929  0.2178
  106MOL0     H13940   1.047  10.829   7.144 -0.4172  1.0690 -4.3849
  106MOL0     H13941   1.170  10.633   7.239  0.3866 -0.8246 -3.1579
  106MOL0     H13942   1.323  10.730   7.244 -0.5750  0.0995  2.9736
  106MOL0     H13943   1.073  10.789   7.400  0.1445 -3.4147  2.2389
  106MOL0     H13944   1.236  10.871   7.422 -1.2524  0.8876  0.2842
  106MOL0     H13945   1.420  10.655   7.527 -0.3712  0.5027 -1.7391
  106MOL0     H13946   1.464  10.543   7.772 -0.0382 -1.4475  3.1534
  106MOL0     H13947   1.331  10.447   7.825 -0.7732  0.0285 -0.5070
  106MOL0     H13948   1.323  10.744   7.850 -1.7682 -0.5074 -2.0261
  106MOL0     H13949   1.405  10.646   7.973  0.7277 -2.4388 -0.4903
  106MOL0     H13950   1.192  10.707   8.037  2.9030  2.1151 -1.5867
  106MOL0     H13951   1.106  10.631   7.908 -0.4357  2.3401  0.1417
  106MOL0     H13952   1.298  10.470   8.080 -0.0420 -1.9834 -1.2890
  106MOL0     H13953   1.156  10.407   7.985 -0.6984  0.7531 -1.5942
  106MOL0     H13954   1.015  10.669   8.344 -0.1114 -2.5353  1.7488
  106MOL0     H13955   0.783  10.747   8.350  0.2934 -0.5449 -0.0613
  106MOL0     H13956   0.404  10.938   8.073 -0.8580 -0.7963 -0.5248
  106MOL0     H13957   0.170  10.990   8.105  1.2454  0.2635 -0.4713
  106MOL0     H13958  -0.040  10.763   8.455 -1.4457  0.0796  0.0648
  106MOL0     H13959  -0.036  10.714   8.281  1.4732  0.3145 -1.3391
  106MOL0     H13960  -0.203  10.913   8.255  7.1061  1.7822  1.6635
  106MOL0     H13961  -0.228  10.876   8.435  0.8665 -0.7638  0.0225
  106MOL0     H13962  -0.272  10.638   8.381  0.0354  1.8096  2.1044
  106MOL0     H13963  -0.297  10.687   8.211 -1.3685 -0.6737 -0.4222
  106MOL0     H13964  -0.444  10.785   8.452 -0.5844  3.2801 -1.0162
  106MOL0     H13965  -0.499  10.848   8.293  0.5287  1.5115  0.5310
  106MOL0     H13966  -0.636  10.675   8.387 -1.4901  1.3763 -3.2277
  106MOL0     H13967  -0.506  10.553   8.376 -1.8074  0.3649  1.2741
  106MOL0     H13968  -0.481  10.572   8.117 -0.6417  1.6863 -1.7976
  106MOL0     H13969  -0.610  10.693   8.133 -2.0911  0.4820  1.4736
  106MOL0     H13970  -0.651  10.405   8.233 -0.6040  1.2720  0.6803
  106MOL0     H13971  -0.769  10.523   8.199 -0.8020 -1.5616 -1.3425
  106MOL0     H13972  -0.773  10.369   8.020  0.1993  1.0573  0.1075
  106MOL0     H13973  -0.602  10.388   7.994  1.3015  0.7698  2.0741
  106MOL0     H13974   0.192  10.733   8.467 -1.7684 -0.0218 -1.6056
  106MOL0     H13975   0.404  10.697   8.439  0.9918 -2.3436 -1.9287
  106MOL0     H13976   0.699  10.513   8.006  1.0526 -0.2549 -1.0194
  106MOL0     H13977   0.925  10.429   7.993 -0.7455  1.1861 -1.0110
  106MOL0     H13978   1.228  11.040   6.354  0.1560  2.3943 -0.3962
  106MOL0     H13979   1.347  11.039   6.143 -2.3196 -1.7454  0.8271
  106MOL0     H13980   1.843  10.731   5.993 -0.6151 -0.8058 -0.2686
  106MOL0     H13981   1.892  10.700   5.763 -0.0452  1.3411 -1.8188
  106MOL0     H13982   1.829  10.634   5.547  3.8142  0.0101  4.7660
  106MOL0     H13983   1.979  10.723   5.531  0.7799 -2.2066 -1.2148
  106MOL0     H13984   1.751  10.727   5.327  0.1993 -3.6291  1.0125
  106MOL0     H13985   1.878  10.824   5.312  2.9282  1.4009  3.4729
  106MOL0     H13986   1.984  10.552   5.355  4.4393  2.5268 -0.7067
  106MOL0     H13987   2.002  10.679   5.238  1.5654  1.0954  3.1136
  106MOL0     H13988   1.824  10.592   5.091  0.6129 -0.4103 -2.6107
  106MOL0     H13989   1.913  10.454   5.163  0.3161  0.5176 -1.0634
  106MOL0     H13990   1.533  10.390   5.300 -0.1491 -1.3163 -2.8998
  106MOL0     H13991   1.675  11.052   5.654 -3.6145 -1.6045  0.4547
  106MOL0     H13992   1.633  11.102   5.879  1.2697  1.8762 -0.7551
  107MOL0     O13993   9.303  10.919   2.705  0.8637 -0.6160 -0.4466
  107MOL0     C13994   9.358  10.962   2.807  0.5716  0.4766  0.4962
  107MOL0     O13995   9.387  11.097   2.835  0.2658 -0.3022  0.7809
  107MOL0     C13996   9.344  11.183   2.736  0.2694  0.3909 -0.3763
  107MOL0     C13997   9.236  11.270   2.755 -0.3790 -0.6410  0.2080
  107MOL0     C13998   9.176  11.335   2.642 -0.3914 -0.2268  0.7261
  107MOL0     C13999   9.222  11.314   2.515 -0.3915 -1.0443  0.8129
  107MOL0     O14000   9.173  11.368   2.396  0.6805  1.0346 -0.0587
  107MOL0     C14001   9.052  11.451   2.400  0.0445 -0.5612 -1.1008
  107MOL0     C14002   8.995  11.484   2.263  1.0128  0.3945  0.3261
  107MOL0     C14003   8.950  11.357   2.181  0.4030 -0.8709  0.1317
  107MOL0     C14004   8.803  11.329   2.214 -0.6436  0.1297  0.7955
  107MOL0     C14005   8.747  11.255   2.093  0.7914  0.2465 -0.2345
  107MOL0     C14006   8.592  11.245   2.104 -0.0635 -0.5312 -0.1175
  107MOL0     C14007   8.527  11.118   2.038 -0.0815  0.6280  1.1522
  107MOL0     C14008   8.504  11.141   1.874 -0.0044  0.2304  0.2110
  107MOL0     N14009   8.413  11.037   1.818 -0.7657 -0.0990 -0.1819
  107MOL0     C14010   8.394  10.909   1.873  0.2347  0.3399  0.3739
  107MOL0     C14011   8.316  10.859   1.773  0.2765  0.6590 -0.1962
  107MOL0     C14012   8.257  10.718   1.793  0.9965 -0.5887  0.0869
  107MOL0     C14013   8.132  10.687   1.721 -0.3619  0.1688  0.6373
  107MOL0     C14014   8.136  10.619   1.578  0.0096 -0.3922 -0.1599
  107MOL0     C14015   8.238  10.502   1.561 -0.0518  0.0971  0.1859
  107MOL0     O14016   8.226  10.400   1.657  0.7023 -0.1576  0.1300
  107MOL0     C14017   8.330  10.357   1.741 -1.4148  0.2128 -0.3140
  107MOL0     C14018   8.460  10.414   1.755 -0.3988 -0.0171 -0.1651
  107MOL0     C14019   8.562  10.350   1.830  0.3360  0.4110 -0.5344
  107MOL0     C14020   8.534  10.237   1.912 -0.7554  0.8244  0.4744
  107MOL0     C14021   8.640  10.173   1.998  0.2183  0.0857  0.2725
  107MOL0     O14022   8.768  10.206   1.995 -0.1531 -0.6734  0.5131
  107MOL0     C14023   8.855  10.129   2.067 -0.4055 -0.0376 -0.1188
  107MOL0     C14024   8.874  10.135   2.206  0.9830  0.8312  0.1925
  107MOL0     C14025   8.958  10.044   2.272 -0.1755 -0.1997  0.0253
  107MOL0     C14026   9.018   9.938   2.200  0.0591 -0.1947  0.0782
  107MOL0     O14027   9.068   9.833   2.263 -0.4565  0.3195  0.4087
  107MOL0     C14028   9.089   9.717   2.183  0.2539 -1.5184 -0.7386
  107MOL0     C14029   9.135   9.606   2.264 -1.0397  0.5801  0.3365
  107MOL0     C14030   9.224   9.498   2.194  0.0137 -0.5690 -0.2247
  107MOL0     C14031   9.227   9.388   2.298 -0.3708  0.0956  0.7347
  107MOL0     C14032   9.312   9.273   2.240  0.0711  0.2007 -0.6557
  107MOL0     C14033   9.352   9.172   2.348  0.6380 -0.2302  1.3967
  107MOL0     C14034   9.424   9.047   2.295  0.2016 -0.6241  0.5852
  107MOL0     C14035   9.568   9.067   2.248 -0.1754  0.4502  0.2298
  107MOL0    Cl14036   9.608   8.940   2.132 -0.2724  0.4746  0.6902
  107MOL0     C14037   9.015   9.954   2.061  0.0159  0.3348  0.2601
  107MOL0     C14038   8.928  10.041   2.001  0.1988 -0.4703  0.1749
  107MOL0     O14039   8.591  10.092   2.080 -0.0410  0.5655  0.9976
  107MOL0     C14040   8.402  10.187   1.909  0.3569 -1.2059  0.7276
  107MOL0     C14041   8.307  10.244   1.818  0.1514 -0.3335 -0.4372
  107MOL0     N14042   8.284  10.951   1.678  0.2658 -0.9361  0.0658
  107MOL0     N14043   8.338  11.059   1.709  0.2536 -0.5519 -0.2799
  107MOL0     C14044   9.345  11.246   2.498  0.0028  0.4308 -0.2940
  107MOL0     C14045   9.403  11.175   2.605 -0.0048  0.5444  0.7009
  107MOL0     C14046   9.423  10.865   2.898 -0.2289  0.4813 -0.2180
  107MOL0     C14047   9.436  10.730   2.865 -0.6940 -1.1793 -0.5163
  107MOL0     C14048   9.498  10.641   2.950  0.7606  0.1817 -0.2832
  107MOL0     C14049   9.542  10.678   3.069 -0.9858  0.3166 -0.5494
  107MOL0     O14050   9.601  10.585   3.157 -0.3967 -0.1737 -0.4375
  107MOL0     C14051   9.623  10.602   3.298 -0.5983 -0.2124 -0.4169
  107MOL0     C14052   9.635  10.465   3.360  0.2511  0.1785  0.7226
  107MOL0     C14053   9.659  10.470   3.505 -0.5328  0.2229 -0.6560
  107MOL0     C14054   9.683  10.331   3.566 -0.6897 -0.6126  0.5939
  107MOL0     C14055   9.563  10.251   3.562  0.7721 -0.2735  0.9239
  107MOL0     C14056   9.453  10.193   3.578 -0.8575  0.5364 -0.1377
  107MOL0     C14057   9.561  10.806   3.092  0.3239 -0.8343  0.8332
  107MOL0     C14058   9.498  10.909   3.014 -0.0173  0.3616  0.6267
  107MOL0     H14059   9.182  11.274   2.849  0.0830 -0.5638  0.4748
  107MOL0     H14060   9.084  11.391   2.654 -0.7377 -0.7596  0.5986
  107MOL0     H14061   9.072  11.547   2.449  1.1474 -1.1877 -0.2646
  107MOL0     H14062   8.976  11.410   2.467  0.1483  0.0533 -0.5938
  107MOL0     H14063   9.067  11.536   2.200  3.8100 -1.8776  1.4162
  107MOL0     H14064   8.905  11.542   2.285  1.6709  1.2118  0.8712
  107MOL0     H14065   9.022  11.275   2.193  0.7381 -0.6683 -0.4716
  107MOL0     H14066   8.964  11.381   2.075  0.1770  2.1801  0.6859
  107MOL0     H14067   8.792  11.270   2.305 -1.8178 -4.2252 -1.8779
  107MOL0     H14068   8.749  11.423   2.230  0.8452  0.7279  2.7242
  107MOL0     H14069   8.794  11.156   2.088  2.1395  0.8721 -0.5159
  107MOL0     H14070   8.766  11.316   2.004  2.0807 -1.3617 -1.1286
  107MOL0     H14071   8.549  11.336   2.061  0.5427 -0.4307 -0.5302
  107MOL0     H14072   8.560  11.237   2.208  1.4343 -2.7049  0.2398
  107MOL0     H14073   8.575  11.023   2.058 -0.7915 -0.9614 -3.3956
  107MOL0     H14074   8.424  11.129   2.075 -0.3950 -0.6998  0.7198
  107MOL0     H14075   8.599  11.129   1.821 -2.7234 -2.9439 -4.7340
  107MOL0     H14076   8.458  11.241   1.867 -2.0552 -0.6219  0.6223
  107MOL0     H14077   8.406  10.884   1.978  1.7299  4.2518  1.2997
  107MOL0     H14078   8.232  10.721   1.899 -1.9678 -0.1631 -0.5158
  107MOL0     H14079   8.332  10.639   1.786 -1.2173 -2.8388  0.5016
  107MOL0     H14080   8.063  10.772   1.730 -0.9035 -0.2225  0.2405
  107MOL0     H14081   8.085  10.617   1.791 -2.5457  3.7281  3.0321
  107MOL0     H14082   8.041  10.566   1.568  0.7995 -2.1656  1.1939
  107MOL0     H14083   8.138  10.693   1.498 -2.8794  1.4069  1.2511
  107MOL0     H14084   8.345  10.526   1.560  0.5800 -2.4596  0.0302
  107MOL0     H14085   8.217  10.462   1.461 -1.0014  1.3773 -0.1476
  107MOL0     H14086   8.494  10.510   1.716  1.7892  0.0226  1.6083
  107MOL0     H14087   8.655  10.404   1.848  2.2172 -1.3605 -3.9645
  107MOL0     H14088   8.821  10.203   2.272  2.6345  3.0128 -0.6012
  107MOL0     H14089   8.973  10.055   2.379 -0.0061  1.1182 -0.1162
  107MOL0     H14090   9.166   9.746   2.112  1.1779 -1.9462  0.0598
  107MOL0     H14091   8.996   9.704   2.127  0.9084  1.0528 -2.5885
  107MOL0     H14092   9.049   9.553   2.306  0.1731 -1.2819  0.5689
  107MOL0     H14093   9.189   9.640   2.353  0.2400 -0.8143  0.1201
  107MOL0     H14094   9.322   9.539   2.169 -1.2128  2.4844 -0.4141
  107MOL0     H14095   9.179   9.456   2.104  1.8630 -2.5745 -0.3100
  107MOL0     H14096   9.275   9.429   2.387 -1.8227 -3.1345  3.2179
  107MOL0     H14097   9.132   9.350   2.339 -1.4086  1.1905 -0.5573
  107MOL0     H14098   9.412   9.304   2.207  0.9713 -1.8136 -0.0280
  107MOL0     H14099   9.268   9.228   2.151 -0.9132  0.8199 -0.4954
  107MOL0     H14100   9.268   9.144   2.413 -1.4480 -0.0090 -1.0319
  107MOL0     H14101   9.422   9.235   2.403 -1.5859  2.7751  0.9957
  107MOL0     H14102   9.422   8.970   2.373  0.9810  0.6985  1.9676
  107MOL0     H14103   9.370   9.004   2.210  0.6144  2.2457 -1.2711
  107MOL0     H14104   9.646   9.054   2.324  1.9655 -3.3738 -2.2679
  107MOL0     H14105   9.575   9.164   2.197  1.1485 -0.9570 -2.4900
  107MOL0     H14106   9.048   9.880   1.989  2.5408  2.2223 -0.6894
  107MOL0     H14107   8.932  10.045   1.893  3.9165 -2.7110  0.0434
  107MOL0     H14108   8.378  10.094   1.959  1.8606 -1.0980  1.6856
  107MOL0     H14109   8.220  10.181   1.799  0.0607 -0.3548  0.0295
  107MOL0     H14110   9.378  11.227   2.396  4.4060 -0.9004  1.1438
  107MOL0     H14111   9.486  11.107   2.587 -0.0870  0.7198 -0.4080
  107MOL0     H14112   9.401  10.696   2.768 -2.2973 -1.0398 -0.0116
  107MOL0     H14113   9.489  10.536   2.924  1.0716 -1.3058  4.6137
  107MOL0     H14114   9.542  10.655   3.348  0.6220 -1.6609  3.4766
  107MOL0     H14115   9.718  10.655   3.315 -1.5729  0.9243  2.0016
  107MOL0     H14116   9.538  10.414   3.351  0.5514 -0.1143 -1.1347
  107MOL0     H14117   9.704  10.401   3.304 -1.2404 -0.1625 -0.7989
  107MOL0     H14118   9.587  10.530   3.561  0.9113 -0.5298  2.1877
  107MOL0     H14119   9.746  10.535   3.515 -0.1316 -0.5843  1.6214
  107MOL0     H14120   9.773  10.282   3.528  0.5947  1.5707  0.6133
  107MOL0     H14121   9.683  10.346   3.675  0.7799 -4.0774  1.1928
  107MOL0     H14122   9.358  10.152   3.607 -0.6756  2.3566  3.6118
  107MOL0     H14123   9.619  10.843   3.176  2.3312 -0.3463 -0.6845
  107MOL0     H14124   9.509  11.016   3.026 -2.7071  0.8897 -0.8063
  108MOL0     O14125   8.359   4.876   4.636 -0.3801  0.3734  0.3429
  108MOL0     C14126   8.398   4.979   4.581 -0.2719 -1.2453 -0.0763
  108MOL0     O14127   8.437   4.999   4.453  0.4953  0.1017 -0.3641
  108MOL0     C14128   8.438   4.884   4.378  0.3459 -1.1043 -0.0267
  108MOL0     C14129   8.314   4.835   4.328  1.1160  0.2363 -0.4445
  108MOL0     C14130   8.328   4.754   4.213  0.0720  0.0683  0.1046
  108MOL0     C14131   8.456   4.707   4.169  0.9968  0.0877 -0.5806
  108MOL0     O14132   8.458   4.627   4.064  0.1605  0.2128  0.2611
  108MOL0     C14133   8.516   4.495   4.067 -0.2474  0.0331  0.8678
  108MOL0     C14134   8.479   4.396   4.166  0.7401 -0.2066 -1.0329
  108MOL0     C14135   8.519   4.255   4.142  0.2234  0.7323  0.1184
  108MOL0     C14136   8.473   4.202   4.005  0.4749 -0.0072  0.3078
  108MOL0     C14137   8.316   4.186   3.994 -0.9116 -0.1721 -0.0056
  108MOL0     C14138   8.259   4.083   3.898 -0.7158  0.0832  0.9650
  108MOL0     C14139   8.109   4.066   3.904 -0.2415 -0.1041 -0.7132
  108MOL0     C14140   8.027   3.998   3.791 -0.1614  0.2660 -0.1263
  108MOL0     N14141   8.101   3.979   3.670  0.0330 -0.8987  0.3614
  108MOL0     C14142   8.118   4.059   3.562  0.1289  0.0949  0.0570
  108MOL0     C14143   8.191   3.997   3.475  0.0263  1.5791 -0.1010
  108MOL0     C14144   8.261   4.054   3.350  0.4514  0.7194 -0.7150
  108MOL0     C14145   8.237   3.973   3.218 -0.3203 -0.2346  0.1084
  108MOL0     C14146   8.304   4.026   3.088  0.7549  0.5740  0.3650
  108MOL0     C14147   8.254   4.162   3.046  0.0868 -0.1820  1.0599
  108MOL0     O14148   8.118   4.187   3.070 -0.7390 -0.1851 -0.2742
  108MOL0     C14149   8.068   4.316   3.095  0.4062  0.1603 -0.5441
  108MOL0     C14150   7.947   4.326   3.156  0.4637 -0.0076 -0.2076
  108MOL0     C14151   7.884   4.442   3.161  0.8989  0.9320  0.0457
  108MOL0     C14152   7.931   4.561   3.103 -1.2855 -0.2308  0.4358
  108MOL0     C14153   7.854   4.686   3.103 -0.1451  0.9634  0.2493
  108MOL0     O14154   7.918   4.787   3.044  0.8223  0.7857 -0.3048
  108MOL0     C14155   7.903   4.921   3.061  0.7219 -0.2719 -1.2216
  108MOL0     C14156   7.900   4.976   3.197  0.3342  0.2516  1.3514
  108MOL0     C14157   7.869   5.110   3.211  0.6069  0.0365  0.3377
  108MOL0     C14158   7.856   5.193   3.096  0.8471  0.0209 -0.8602
  108MOL0     O14159   7.838   5.329   3.122  0.0957 -0.2894 -0.5784
  108MOL0     C14160   7.958   5.411   3.112  0.3062  0.6609  0.2027
  108MOL0     C14161   7.915   5.560   3.117  0.0892 -0.7005  0.7438
  108MOL0     C14162   7.999   5.675   3.051 -0.9031 -1.3103  1.5843
  108MOL0     C14163   8.146   5.678   3.096  1.2311  0.0141  0.0359
  108MOL0     C14164   8.222   5.805   3.077 -0.4337  0.6518  0.8818
  108MOL0     C14165   8.357   5.788   3.142 -1.1453  1.1931  0.5488
  108MOL0     C14166   8.442   5.903   3.114 -0.0263 -0.5845  0.0770
  108MOL0     C14167   8.596   5.877   3.124  0.1177 -0.2738  0.1630
  108MOL0    Cl14168   8.636   5.800   3.284 -0.1679  0.2600 -0.1772
  108MOL0     C14169   7.852   5.137   2.969  0.5260 -0.1178  0.3149
  108MOL0     C14170   7.884   5.006   2.956 -0.0314  0.2294  0.8541
  108MOL0     O14171   7.750   4.690   3.168  0.9984  0.0452  0.1355
  108MOL0     C14172   8.064   4.556   3.051 -0.0702 -0.7046 -0.0169
  108MOL0     C14173   8.124   4.432   3.037  0.1582 -0.8283 -0.8813
  108MOL0     N14174   8.211   3.868   3.527 -0.5398 -0.8018  0.4845
  108MOL0     N14175   8.162   3.857   3.647 -0.4232  0.5787 -0.3948
  108MOL0     C14176   8.570   4.753   4.226  0.4094  0.0567 -0.1990
  108MOL0     C14177   8.561   4.836   4.339  0.0663 -0.3912  0.2658
  108MOL0     C14178   8.374   5.099   4.659 -0.3562  1.0089  0.6309
  108MOL0     C14179   8.335   5.097   4.793  0.1065  0.2230  1.0010
  108MOL0     C14180   8.322   5.218   4.864 -0.9479  1.0433 -0.2524
  108MOL0     C14181   8.339   5.343   4.811  0.3313  0.6074 -1.1027
  108MOL0     O14182   8.314   5.466   4.881  0.2144  0.4260  0.0969
  108MOL0     C14183   8.182   5.483   4.940 -0.7656  0.4816  0.1228
  108MOL0     C14184   8.072   5.432   4.850 -0.2465 -0.0851  0.1782
  108MOL0     C14185   7.941   5.458   4.920 -0.1598 -1.0270  0.5931
  108MOL0     C14186   7.825   5.453   4.822 -0.0714  0.1753 -0.4338
  108MOL0     C14187   7.711   5.383   4.894 -0.0340  0.3652  0.0792
  108MOL0     C14188   7.616   5.329   4.951  0.4748 -0.4644 -0.4483
  108MOL0     C14189   8.365   5.343   4.679  0.2787  0.4352  0.3527
  108MOL0     C14190   8.395   5.218   4.602 -0.7635 -0.4937 -0.1343
  108MOL0     H14191   8.215   4.856   4.368  0.8321  2.4156 -2.1294
  108MOL0     H14192   8.241   4.726   4.154 -1.6300 -0.6476  2.7585
  108MOL0     H14193   8.623   4.518   4.065 -0.1033  0.2137 -4.5367
  108MOL0     H14194   8.501   4.444   3.971 -3.2752  0.5379  0.9820
  108MOL0     H14195   8.371   4.390   4.184  0.6328 -3.4459 -2.0408
  108MOL0     H14196   8.519   4.432   4.262  1.3479  2.4055 -2.2029
  108MOL0     H14197   8.487   4.191   4.225  1.0657 -1.2953 -1.0619
  108MOL0     H14198   8.627   4.251   4.126  0.0741 -2.2632 -0.7109
  108MOL0     H14199   8.520   4.252   3.920  2.1152 -1.2105  0.4738
  108MOL0     H14200   8.507   4.098   4.005  0.9230  0.1277 -0.9362
  108MOL0     H14201   8.280   4.287   3.976 -0.8398 -0.1423  0.0158
  108MOL0     H14202   8.279   4.155   4.093  1.7414 -0.4001  1.0064
  108MOL0     H14203   8.297   3.982   3.913 -1.1749 -0.1670  0.4907
  108MOL0     H14204   8.292   4.115   3.798  2.2782 -0.1458  1.7753
  108MOL0     H14205   8.092   4.009   3.996 -2.8831 -1.2544 -1.8347
  108MOL0     H14206   8.078   4.166   3.937  0.5191 -0.5357  1.5067
  108MOL0     H14207   7.944   4.065   3.765 -1.1940 -0.9994 -0.2119
  108MOL0     H14208   7.982   3.906   3.830  2.3576  0.0034  2.4806
  108MOL0     H14209   8.070   4.153   3.535  1.6606  0.1998 -2.5787
  108MOL0     H14210   8.368   4.065   3.371 -0.0883  0.8669  2.2692
  108MOL0     H14211   8.232   4.157   3.324 -0.4609 -0.0490 -3.0444
  108MOL0     H14212   8.129   3.970   3.204 -0.1031 -0.3877 -1.8840
  108MOL0     H14213   8.264   3.869   3.237 -1.5249 -0.1589  2.5363
  108MOL0     H14214   8.412   4.037   3.098  1.2112 -0.5324 -2.3087
  108MOL0     H14215   8.277   3.963   3.002  0.3931  1.5766 -0.2798
  108MOL0     H14216   8.256   4.156   2.936 -1.1377  1.3009  0.9146
  108MOL0     H14217   8.315   4.244   3.086 -0.4635 -0.4565  2.5251
  108MOL0     H14218   7.910   4.238   3.208 -0.5396 -0.8376 -2.2050
  108MOL0     H14219   7.792   4.432   3.219  1.8218  1.0659  1.6119
  108MOL0     H14220   7.920   4.910   3.281  0.8647 -0.4947  0.6581
  108MOL0     H14221   7.864   5.158   3.308 -0.5645 -0.2084  0.4122
  108MOL0     H14222   8.009   5.389   3.018 -1.2677  0.6259 -0.6889
  108MOL0     H14223   8.030   5.369   3.183  1.2963 -0.6898 -1.5210
  108MOL0     H14224   7.901   5.601   3.217 -1.1793 -1.1490  0.7598
  108MOL0     H14225   7.821   5.564   3.063  1.8398 -0.8414 -2.5891
  108MOL0     H14226   7.955   5.774   3.069 -0.3076 -0.1938 -2.2209
  108MOL0     H14227   7.986   5.674   2.942 -1.9998  2.3687  1.5506
  108MOL0     H14228   8.146   5.635   3.196 -1.0409 -1.2325 -0.4479
  108MOL0     H14229   8.199   5.592   3.052 -0.5833 -1.1087 -0.0307
  108MOL0     H14230   8.155   5.887   3.105 -0.0701  1.7228 -1.1883
  108MOL0     H14231   8.234   5.825   2.970 -2.1811  0.8674  0.6991
  108MOL0     H14232   8.413   5.707   3.095 -2.8541  1.3257 -1.9270
  108MOL0     H14233   8.345   5.778   3.250  1.0437  0.0481  0.7290
  108MOL0     H14234   8.418   5.947   3.017  4.2001 -1.1552 -1.3968
  108MOL0     H14235   8.415   5.984   3.184  0.5549  0.0664 -0.4463
  108MOL0     H14236   8.656   5.969   3.129  0.8981 -0.8315  2.7651
  108MOL0     H14237   8.628   5.811   3.044 -0.3114  3.4537 -3.4430
  108MOL0     H14238   7.839   5.199   2.881  0.4015  0.0505  0.4511
  108MOL0     H14239   7.891   4.951   2.863  2.3265  1.2960  0.3136
  108MOL0     H14240   8.116   4.647   3.024 -2.3232  0.8269  0.4929
  108MOL0     H14241   8.216   4.413   2.982  1.7459  0.7510  1.0679
  108MOL0     H14242   8.662   4.717   4.182 -0.0031 -0.1871 -0.8874
  108MOL0     H14243   8.639   4.885   4.396 -2.4161  0.6870  3.0140
  108MOL0     H14244   8.319   5.003   4.843  1.0201 -1.7131 -2.0473
  108MOL0     H14245   8.303   5.219   4.971 -1.4576 -2.5775 -0.1869
  108MOL0     H14246   8.161   5.588   4.962 -2.3734  0.1472  0.2872
  108MOL0     H14247   8.160   5.425   5.030 -0.8304 -0.6047 -0.5666
  108MOL0     H14248   8.076   5.497   4.762 -0.1076 -0.9632 -0.4819
  108MOL0     H14249   8.084   5.326   4.825 -1.6042 -0.0672 -0.6372
  108MOL0     H14250   7.952   5.555   4.968 -1.1857 -0.6496  0.0915
  108MOL0     H14251   7.928   5.389   5.004  2.1105 -1.8161  0.3747
  108MOL0     H14252   7.789   5.544   4.774 -3.5281 -1.1893 -0.7226
  108MOL0     H14253   7.850   5.392   4.734  0.4624 -0.4551  0.1393
  108MOL0     H14254   7.542   5.280   5.010  0.5031  0.2360  0.1823
  108MOL0     H14255   8.373   5.441   4.633  1.8799  0.5757  0.8612
  108MOL0     H14256   8.410   5.229   4.495 -1.8679  2.5290 -0.0509
  109MOL0     O14257   4.303  10.748   9.558  0.6605 -0.2375 -0.4077
  109MOL0     C14258   4.367  10.849   9.522  0.0205  0.0827  0.7119
  109MOL0     O14259   4.309  10.963   9.476 -1.1325 -0.6272 -0.5695
  109MOL0     C14260   4.172  10.962   9.442  0.5172 -0.1392  0.4064
  109MOL0     C14261   4.072  11.007   9.522 -0.9161  0.6110  1.3222
  109MOL0     C14262   3.945  11.009   9.476 -0.0240 -0.9732 -0.0816
  109MOL0     C14263   3.905  10.968   9.349  0.1719 -0.2962  0.3633
  109MOL0     O14264   3.771  10.970   9.304  0.9991  0.9438 -0.4056
  109MOL0     C14265   3.736  11.033   9.184 -0.7385 -0.0967  0.1366
  109MOL0     C14266   3.686  10.928   9.083 -0.0081 -0.0908  0.3903
  109MOL0     C14267   3.672  11.022   8.962  0.0454  0.3969 -0.0316
  109MOL0     C14268   3.646  10.936   8.830 -1.1916  0.7210 -0.5263
  109MOL0     C14269   3.688  11.001   8.701 -0.3039  0.2663 -0.8064
  109MOL0     C14270   3.620  11.135   8.675  0.0997 -0.0320  0.5565
  109MOL0     C14271   3.614  11.167   8.523  1.1379 -0.7802  0.2374
  109MOL0     C14272   3.753  11.162   8.446 -0.1453 -0.0487 -0.2098
  109MOL0     N14273   3.850  11.272   8.470  0.5032 -0.0546 -0.1880
  109MOL0     C14274   3.967  11.269   8.525 -1.1255 -1.0544 -0.4201
  109MOL0     C14275   4.019  11.400   8.528  1.3042  0.2621 -0.1326
  109MOL0     C14276   4.137  11.436   8.606 -0.1437  0.0957  0.2416
  109MOL0     C14277   4.247  11.364   8.533 -0.9775 -0.5188 -0.7160
  109MOL0     C14278   4.392  11.412   8.564 -0.1860  0.3198  0.5840
  109MOL0     C14279   4.499  11.337   8.474 -0.1706  0.0875 -1.3802
  109MOL0     O14280   4.490  11.380   8.343 -0.0485  0.3370 -0.6565
  109MOL0     C14281   4.562  11.491   8.309 -0.4884 -0.3030  0.2058
  109MOL0     C14282   4.644  11.570   8.399 -0.2203  0.0759  0.7035
  109MOL0     C14283   4.696  11.689   8.349 -0.9243 -0.5664  0.2345
  109MOL0     C14284   4.679  11.726   8.204 -0.7144 -0.1067 -1.6647
  109MOL0     C14285   4.757  11.848   8.156  0.7119 -0.5203  0.2613
  109MOL0     O14286   4.734  11.890   8.025  0.6562 -0.2471 -0.3465
  109MOL0     C14287   4.802  11.990   7.971 -0.5639 -0.6705 -0.2690
  109MOL0     C14288   4.945  11.983   7.958  0.6849 -0.2028  0.2410
  109MOL0     C14289   5.013  12.084   7.893  0.5412  0.1296 -0.2731
  109MOL0     C14290   4.933  12.185   7.840  1.2383  0.2490 -0.2732
  109MOL0     O14291   5.002  12.280   7.770 -0.2180  0.2850  0.2029
  109MOL0     C14292   4.978  12.412   7.798  0.1941  0.3403  0.0172
  109MOL0     C14293   5.109  12.469   7.855  0.0993  0.1942 -0.5827
  109MOL0     C14294   5.153  12.427   8.000 -0.6264 -0.0161  0.5681
  109MOL0     C14295   5.310  12.447   8.036  0.3757 -0.4949  0.1482
  109MOL0     C14296   5.349  12.365   8.155  0.6141  0.6290  0.0377
  109MOL0     C14297   5.479  12.418   8.213 -0.0369  1.1291  0.2147
  109MOL0     C14298   5.557  12.315   8.290  0.1557 -0.1859  1.3248
  109MOL0     C14299   5.573  12.353   8.430  0.5890  0.4478  0.8556
  109MOL0    Cl14300   5.720  12.451   8.447  0.0394  0.0574  0.0816
  109MOL0     C14301   4.798  12.189   7.844 -0.2733 -0.5178 -0.3259
  109MOL0     C14302   4.726  12.088   7.914 -0.6406 -0.5503 -0.5329
  109MOL0     O14303   4.832  11.899   8.239 -0.0448  0.0854  0.3380
  109MOL0     C14304   4.606  11.648   8.127  0.0698 -0.3116 -0.6745
  109MOL0     C14305   4.549  11.534   8.181  0.4919  0.8477  0.2638
  109MOL0     N14306   3.928  11.480   8.456  0.1999  0.7805 -0.0695
  109MOL0     N14307   3.827  11.397   8.424  0.1637 -0.0829  0.7946
  109MOL0     C14308   4.007  10.939   9.261  0.2272  0.2269 -0.6810
  109MOL0     C14309   4.138  10.936   9.306  0.0868 -1.1606 -0.2919
  109MOL0     C14310   4.519  10.850   9.521 -0.2932 -0.7219  0.0592
  109MOL0     C14311   4.594  10.960   9.491 -0.4651 -1.1908 -0.7685
  109MOL0     C14312   4.737  10.954   9.488  0.5524  0.0719 -0.3510
  109MOL0     C14313   4.796  10.832   9.517 -0.8242 -0.5432  0.0294
  109MOL0     O14314   4.927  10.826   9.491  0.5238 -0.0762  0.2839
  109MOL0     C14315   4.991  10.710   9.499 -0.7734  0.3680 -0.9838
  109MOL0     C14316   5.134  10.746   9.486  0.4387 -0.2880 -0.2714
  109MOL0     C14317   5.216  10.622   9.525 -0.4616 -0.1414 -0.6700
  109MOL0     C14318   5.355  10.661   9.481 -0.2293  0.5609  0.3091
  109MOL0     C14319   5.453  10.561   9.502 -0.2921  0.4758 -0.9021
  109MOL0     C14320   5.526  10.458   9.523 -0.5572 -0.4829 -0.7210
  109MOL0     C14321   4.726  10.720   9.567 -0.2908  0.1029  0.1779
  109MOL0     C14322   4.589  10.739   9.571  0.1164 -0.3739  0.2922
  109MOL0     H14323   4.093  11.050   9.619  0.5971  2.4257  0.2716
  109MOL0     H14324   3.856  11.023   9.536  0.1798  0.3231 -0.0450
  109MOL0     H14325   3.821  11.089   9.141 -0.5929 -0.7806 -0.4956
  109MOL0     H14326   3.656  11.103   9.210 -2.1944 -1.1322 -1.3651
  109MOL0     H14327   3.588  10.884   9.101 -1.7590  4.4783  4.2664
  109MOL0     H14328   3.760  10.848   9.086 -0.0285 -0.1307  3.1565
  109MOL0     H14329   3.763  11.081   8.946 -0.3819  0.8707 -0.7930
  109MOL0     H14330   3.582  11.082   8.981 -0.7729 -0.8209 -0.0003
  109MOL0     H14331   3.716  10.852   8.840 -0.4147  1.1914 -1.7597
  109MOL0     H14332   3.542  10.907   8.844 -0.9923 -0.2768 -0.9919
  109MOL0     H14333   3.677  10.931   8.618  1.4448 -0.2901 -0.6130
  109MOL0     H14334   3.796  11.018   8.694 -0.3442  0.0274 -2.2266
  109MOL0     H14335   3.661  11.213   8.741 -1.1973 -0.2425  1.6413
  109MOL0     H14336   3.515  11.127   8.702 -0.4704 -0.5644 -1.6500
  109MOL0     H14337   3.534  11.111   8.474  0.3208  1.5717 -1.3077
  109MOL0     H14338   3.571  11.268   8.528  1.5584 -0.6248  0.7124
  109MOL0     H14339   3.721  11.172   8.342 -4.0961 -0.4679  0.7997
  109MOL0     H14340   3.806  11.070   8.471  1.7354  1.6192  2.4852
  109MOL0     H14341   4.007  11.175   8.562 -2.6574 -1.1971  0.9786
  109MOL0     H14342   4.119  11.394   8.705 -1.3251 -2.4593 -0.9764
  109MOL0     H14343   4.155  11.544   8.613 -2.1571  0.5712 -1.1292
  109MOL0     H14344   4.226  11.351   8.426 -3.6416  2.4862 -0.7324
  109MOL0     H14345   4.249  11.260   8.565  3.3206 -0.5459 -0.5614
  109MOL0     H14346   4.407  11.521   8.560 -1.7708  1.0432  6.0701
  109MOL0     H14347   4.407  11.403   8.672 -0.8275  2.7587  0.9457
  109MOL0     H14348   4.478  11.230   8.469 -1.6590  0.2510  0.4129
  109MOL0     H14349   4.596  11.342   8.526 -1.6421  0.2300  1.5321
  109MOL0     H14350   4.677  11.528   8.493  0.1787  0.4827  0.7514
  109MOL0     H14351   4.756  11.749   8.417  0.4890 -3.7861  2.0345
  109MOL0     H14352   4.997  11.903   8.010 -0.6313 -1.2036  0.0650
  109MOL0     H14353   5.119  12.069   7.879  0.9577 -1.5213  3.3345
  109MOL0     H14354   4.899  12.431   7.872 -2.1806 -0.0649 -2.2562
  109MOL0     H14355   4.942  12.457   7.705 -0.4286 -0.1718 -0.0002
  109MOL0     H14356   5.097  12.577   7.849 -4.8461 -0.0247  0.5332
  109MOL0     H14357   5.177  12.423   7.782 -1.8233 -5.4399  0.6247
  109MOL0     H14358   5.120  12.323   8.010  2.5006 -1.1726  0.2040
  109MOL0     H14359   5.098  12.490   8.070 -1.0322  1.4944 -1.0542
  109MOL0     H14360   5.370  12.402   7.956  0.8782  0.9372 -0.3320
  109MOL0     H14361   5.336  12.553   8.050  1.8353 -1.0776  2.4004
  109MOL0     H14362   5.344  12.263   8.115 -2.3958  1.3034 -1.5904
  109MOL0     H14363   5.266  12.348   8.224 -0.4633 -1.7026 -1.6987
  109MOL0     H14364   5.447  12.494   8.284 -3.7485 -0.2383  0.2208
  109MOL0     H14365   5.546  12.452   8.134 -0.3719 -0.3840 -0.7635
  109MOL0     H14366   5.517  12.214   8.278  0.7133 -0.1289 -2.0328
  109MOL0     H14367   5.654  12.289   8.246 -0.8793 -0.1193 -1.1808
  109MOL0     H14368   5.573  12.258   8.484 -2.2063  1.0329  2.0498
  109MOL0     H14369   5.486  12.398   8.479  0.2728 -0.4230  1.0998
  109MOL0     H14370   4.750  12.264   7.782  0.7128 -0.1545 -0.6639
  109MOL0     H14371   4.617  12.090   7.917 -0.6266  0.2213 -0.2235
  109MOL0     H14372   4.605  11.665   8.020  0.8756 -0.0190 -0.6368
  109MOL0     H14373   4.485  11.479   8.113  0.9790  0.7202 -0.0970
  109MOL0     H14374   3.974  10.907   9.162  0.8625 -0.1730 -0.7684
  109MOL0     H14375   4.218  10.931   9.233 -1.4984  0.1772 -2.2474
  109MOL0     H14376   4.542  11.045   9.448  1.0749 -0.8953 -2.1103
  109MOL0     H14377   4.797  11.038   9.454  1.2217 -0.6991 -1.1221
  109MOL0     H14378   4.964  10.639   9.420  1.1901 -0.0269 -1.3483
  109MOL0     H14379   4.986  10.668   9.600  0.5038 -1.7936 -1.7666
  109MOL0     H14380   5.164  10.782   9.387  2.7057  0.6254  0.6587
  109MOL0     H14381   5.155  10.825   9.559 -2.6073 -0.7198  1.2229
  109MOL0     H14382   5.171  10.528   9.490  0.7197  0.1050 -3.0486
  109MOL0     H14383   5.232  10.625   9.633  1.3683  2.6459 -0.9391
  109MOL0     H14384   5.355  10.676   9.373 -0.4579 -2.0659 -0.1326
  109MOL0     H14385   5.389  10.753   9.529 -0.8581  0.4175  1.0480
  109MOL0     H14386   5.592  10.384   9.562 -0.8964 -0.9886 -1.0828
  109MOL0     H14387   4.765  10.621   9.587 -3.6947 -1.5213 -0.4374
  109MOL0     H14388   4.526  10.656   9.602  0.0275 -0.3256  0.2441
  110MOL0     O14389   9.349   8.674   4.523  0.0459 -0.6276 -0.8147
  110MOL0     C14390   9.429   8.598   4.468  0.6292  0.5767 -0.0131
  110MOL0     O14391   9.532   8.521   4.530 -0.0134  0.1802  0.8238
  110MOL0     C14392   9.581   8.568   4.644  0.0071  0.9774 -0.7558
  110MOL0     C14393   9.595   8.476   4.746 -0.2310  0.8036  0.3237
  110MOL0     C14394   9.642   8.501   4.864 -0.5587 -0.0078  0.1079
  110MOL0     C14395   9.691   8.631   4.897 -0.6630 -0.3365 -0.1929
  110MOL0     O14396   9.761   8.658   5.014  0.2508  0.0151  0.4918
  110MOL0     C14397   9.798   8.537   5.095 -0.2625  0.3071  1.2328
  110MOL0     C14398   9.895   8.594   5.192  0.1759  0.9903 -0.7610
  110MOL0     C14399   9.986   8.471   5.242 -0.7157 -1.1287  0.6819
  110MOL0     C14400   9.912   8.367   5.325  0.1008  0.1833 -0.6260
  110MOL0     C14401  10.009   8.249   5.358  0.4807  0.0851  0.1883
  110MOL0     C14402   9.930   8.133   5.416 -0.5039  0.4884  0.2606
  110MOL0     C14403  10.008   8.007   5.464 -0.6270 -0.2953  0.0426
  110MOL0     C14404   9.920   7.882   5.501 -0.1173 -0.3898 -0.2103
  110MOL0     N14405   9.918   7.799   5.382  1.2251 -0.4309  0.4780
  110MOL0     C14406  10.018   7.713   5.333  0.4678  0.2999 -0.1849
  110MOL0     C14407   9.954   7.667   5.220 -0.1598 -0.6359  0.3921
  110MOL0     C14408  10.012   7.548   5.142  0.3818  0.7630  0.0773
  110MOL0     C14409  10.161   7.549   5.108  0.1809 -0.8441  0.3997
  110MOL0     C14410  10.178   7.650   4.990 -0.0786 -0.2189 -1.2308
  110MOL0     C14411  10.206   7.795   5.046  1.2948 -0.5301 -0.1467
  110MOL0     O14412  10.191   7.900   4.949  0.8233 -0.0391 -0.5206
  110MOL0     C14413  10.263   8.006   4.983 -0.0862  1.0691  1.1761
  110MOL0     C14414  10.333   8.082   4.898 -0.4997 -1.4308  0.2725
  110MOL0     C14415  10.407   8.199   4.934 -0.4559 -0.5436 -0.0847
  110MOL0     C14416  10.402   8.245   5.067  0.9293 -0.1817 -0.3069
  110MOL0     C14417  10.470   8.359   5.117  0.1219 -0.6556 -0.4579
  110MOL0     O14418  10.458   8.388   5.250  0.4189  0.0372  0.7515
  110MOL0     C14419  10.489   8.511   5.287 -0.2842  0.6032  0.1951
  110MOL0     C14420  10.618   8.543   5.335 -0.2080  0.2005 -0.0608
  110MOL0     C14421  10.648   8.680   5.358  0.6037 -0.1731  0.1757
  110MOL0     C14422  10.551   8.778   5.353  0.5514 -0.2022  1.0290
  110MOL0     O14423  10.598   8.907   5.353 -0.3243 -0.2472 -0.2601
  110MOL0     C14424  10.537   9.010   5.281 -0.2087  0.2339 -0.3585
  110MOL0     C14425  10.532   8.979   5.129  0.5986 -0.4470 -0.3632
  110MOL0     C14426  10.457   9.078   5.051  0.1464  0.4851 -0.9576
  110MOL0     C14427  10.302   9.066   5.064  0.4326  0.6324 -0.0432
  110MOL0     C14428  10.232   8.962   4.963 -0.3262  0.1897  0.3814
  110MOL0     C14429  10.230   8.825   5.024  0.1275  0.6256  0.2620
  110MOL0     C14430  10.135   8.746   4.932 -1.3551  0.4436 -0.2173
  110MOL0     C14431  10.166   8.591   4.928 -0.3169  0.1274  0.0015
  110MOL0    Cl14432  10.264   8.557   4.772 -0.4756 -0.0200  0.4592
  110MOL0     C14433  10.419   8.740   5.319 -0.5107 -0.2185 -0.9931
  110MOL0     C14434  10.391   8.604   5.296 -1.1321 -0.3664 -1.2032
  110MOL0     O14435  10.515   8.441   5.038 -1.0059 -0.2177 -0.3884
  110MOL0     C14436  10.313   8.170   5.155 -0.2961 -0.9908  0.0875
  110MOL0     C14437  10.246   8.061   5.109  0.2263 -0.3602 -1.3297
  110MOL0     N14438   9.828   7.727   5.202  0.2613  0.2898  0.3505
  110MOL0     N14439   9.804   7.801   5.301  0.4354  0.5449 -0.8894
  110MOL0     C14440   9.691   8.727   4.790 -0.1996 -0.4956 -0.0599
  110MOL0     C14441   9.632   8.694   4.663  0.1560 -0.1363  0.3733
  110MOL0     C14442   9.395   8.564   4.327 -0.1066  0.1856  0.7293
  110MOL0     C14443   9.270   8.590   4.263 -0.5546  0.6425  0.8271
  110MOL0     C14444   9.260   8.557   4.130  0.3659  0.7451  0.5917
  110MOL0     C14445   9.352   8.486   4.057  0.2286 -0.1930  0.7754
  110MOL0     O14446   9.345   8.449   3.922 -0.5337  0.5566 -0.4360
  110MOL0     C14447   9.223   8.402   3.869  0.6656  0.3540 -0.2234
  110MOL0     C14448   9.227   8.399   3.719 -0.1514  0.5635 -0.8370
  110MOL0     C14449   9.093   8.369   3.658 -0.1411  0.4755  0.8278
  110MOL0     C14450   9.053   8.216   3.677 -0.0395  0.6506  0.4962
  110MOL0     C14451   8.945   8.172   3.588  1.5732  0.7331  0.6208
  110MOL0     C14452   8.881   8.138   3.490  0.3755  0.5213  0.2790
  110MOL0     C14453   9.472   8.455   4.118  0.5814  0.1673  0.9724
  110MOL0     C14454   9.493   8.493   4.251 -0.7584 -0.5977 -0.3381
  110MOL0     H14455   9.575   8.371   4.732  2.8378  0.1421  0.2025
  110MOL0     H14456   9.655   8.413   4.927  2.9854  0.5519  0.3869
  110MOL0     H14457   9.834   8.448   5.044  0.2311  2.3358 -2.2520
  110MOL0     H14458   9.702   8.510   5.140 -0.4142 -1.4427 -0.0523
  110MOL0     H14459   9.843   8.641   5.276  3.3671  3.4264  0.0621
  110MOL0     H14460   9.961   8.668   5.146 -2.0687  1.2316 -3.8638
  110MOL0     H14461  10.072   8.521   5.289 -3.2415  3.2327  1.1917
  110MOL0     H14462  10.029   8.425   5.152  0.1625  0.0043  0.4945
  110MOL0     H14463   9.887   8.408   5.424 -2.8592  0.6432 -1.4578
  110MOL0     H14464   9.821   8.328   5.279 -0.4032  2.5945 -1.8796
  110MOL0     H14465  10.076   8.274   5.441 -0.4441  0.2926  0.8905
  110MOL0     H14466  10.070   8.228   5.270  3.3035  3.1836  1.1897
  110MOL0     H14467   9.867   8.096   5.334  1.0719 -2.0657  0.1026
  110MOL0     H14468   9.870   8.175   5.498 -0.5205  0.7015  0.1396
  110MOL0     H14469  10.082   7.980   5.387  0.6862  1.2640  0.6959
  110MOL0     H14470  10.057   8.035   5.558 -1.5844 -0.6891  0.6748
  110MOL0     H14471   9.817   7.913   5.524 -0.2698  0.2413 -1.6380
  110MOL0     H14472   9.971   7.832   5.583  0.7423 -1.6668 -1.4715
  110MOL0     H14473  10.099   7.667   5.389 -1.0738 -3.7084 -0.8810
  110MOL0     H14474   9.958   7.532   5.048  0.7071  2.8793 -0.5168
  110MOL0     H14475   9.995   7.468   5.214 -0.2998  2.3085  1.6892
  110MOL0     H14476  10.205   7.452   5.082  0.6715 -0.6718  0.5826
  110MOL0     H14477  10.212   7.584   5.198  0.4827  0.4834 -0.2654
  110MOL0     H14478  10.270   7.624   4.936  2.8205 -2.1559  3.9223
  110MOL0     H14479  10.090   7.654   4.924 -1.0310 -2.1913 -0.1698
  110MOL0     H14480  10.307   7.800   5.089  1.2739 -2.1755  0.1763
  110MOL0     H14481  10.143   7.817   5.132  1.1917  1.0490 -0.5953
  110MOL0     H14482  10.338   8.042   4.797 -0.8019  0.8332 -0.7131
  110MOL0     H14483  10.459   8.253   4.855 -1.5051 -1.7176 -1.6385
  110MOL0     H14484  10.693   8.466   5.341 -0.7560 -0.7495 -3.4531
  110MOL0     H14485  10.746   8.719   5.384  0.8373  0.1403 -1.0719
  110MOL0     H14486  10.586   9.107   5.293  0.7623 -0.2675 -0.1626
  110MOL0     H14487  10.435   9.016   5.321 -1.3491  2.1806 -3.2385
  110MOL0     H14488  10.489   8.880   5.111 -3.0562  0.9540 -0.2200
  110MOL0     H14489  10.635   8.984   5.095 -0.3601  2.4274 -3.3377
  110MOL0     H14490  10.492   9.066   4.948 -1.3623 -1.7135 -1.2656
  110MOL0     H14491  10.473   9.177   5.094 -0.6850 -0.2708  1.2032
  110MOL0     H14492  10.262   9.053   5.165  0.5002  1.2571  0.0667
  110MOL0     H14493  10.266   9.167   5.043  0.5642  0.1472 -2.9711
  110MOL0     H14494  10.301   8.954   4.879 -1.1738  1.4979 -0.4806
  110MOL0     H14495  10.138   8.998   4.919  0.9310 -2.6819 -5.6591
  110MOL0     H14496  10.194   8.819   5.127  0.9086  0.4400  0.5301
  110MOL0     H14497  10.334   8.793   5.029  0.1504  0.9071  3.5530
  110MOL0     H14498  10.037   8.754   4.979 -0.3125  2.1755  1.7850
  110MOL0     H14499  10.131   8.772   4.826  0.6304 -2.9629 -1.2944
  110MOL0     H14500  10.069   8.541   4.920 -1.6917  2.7976 -1.3978
  110MOL0     H14501  10.225   8.559   5.015  1.2336  0.3872 -0.9204
  110MOL0     H14502  10.334   8.807   5.314  0.9751  1.8109 -0.4541
  110MOL0     H14503  10.284   8.586   5.293 -1.4581  1.1740  0.1046
  110MOL0     H14504  10.308   8.205   5.258  2.5592 -0.8353  0.2421
  110MOL0     H14505  10.176   8.014   5.177 -2.0157  1.7810 -2.0009
  110MOL0     H14506   9.760   8.808   4.813 -1.1942  0.9935 -1.9714
  110MOL0     H14507   9.617   8.766   4.583 -5.1417  0.5543  1.6349
  110MOL0     H14508   9.188   8.652   4.298 -0.7999  0.8196 -0.0505
  110MOL0     H14509   9.167   8.587   4.082 -0.3883 -2.2026 -0.0055
  110MOL0     H14510   9.156   8.483   3.899  0.8633  0.3601  0.2024
  110MOL0     H14511   9.182   8.307   3.905  0.1262  1.0405  1.0508
  110MOL0     H14512   9.264   8.491   3.674  2.4551  0.0489  0.0971
  110MOL0     H14513   9.305   8.324   3.700  2.5781  1.9921  3.3620
  110MOL0     H14514   9.094   8.388   3.550 -0.8446  2.5286  1.1365
  110MOL0     H14515   9.020   8.433   3.707 -4.9341 -1.1526 -3.3109
  110MOL0     H14516   9.142   8.157   3.653  0.2428  1.0959  0.4359
  110MOL0     H14517   9.017   8.199   3.779 -5.0489 -0.8357 -1.2351
  110MOL0     H14518   8.818   8.121   3.405 -3.6791  2.8415  2.5356
  110MOL0     H14519   9.536   8.385   4.065 -1.5689 -1.6503  0.5747
  110MOL0     H14520   9.593   8.477   4.289 -1.1780  1.8898  2.0818
  111MOL0     O14521   4.610   9.589   6.237 -0.2458 -0.7875 -0.1535
  111MOL0     C14522   4.530   9.665   6.278  0.7085 -0.6127  0.6098
  111MOL0     O14523   4.447   9.746   6.195  0.0021  0.6793  0.0065
  111MOL0     C14524   4.453   9.739   6.059 -0.1360  0.2479 -0.3249
  111MOL0     C14525   4.414   9.857   6.002  0.9607 -0.5452 -0.3041
  111MOL0     C14526   4.392   9.869   5.865 -0.5885 -1.0558  0.0878
  111MOL0     C14527   4.397   9.757   5.787  1.1053 -0.6808  0.5666
  111MOL0     O14528   4.387   9.761   5.649 -0.8054  0.0717  0.2286
  111MOL0     C14529   4.378   9.889   5.581 -0.3960  0.4205 -0.6881
  111MOL0     C14530   4.256   9.864   5.486  0.5714  0.3788 -0.6013
  111MOL0     C14531   4.238   9.962   5.375 -0.5155  0.0057 -0.9508
  111MOL0     C14532   4.129   9.926   5.279 -0.2369  0.9441 -0.3116
  111MOL0     C14533   4.002   9.888   5.341  0.2802 -0.5494  0.3724
  111MOL0     C14534   3.902   9.855   5.231  0.3389  0.5208  0.3518
  111MOL0     C14535   3.765   9.790   5.267 -0.1711 -0.6307 -0.9893
  111MOL0     C14536   3.677   9.879   5.355  0.3462  0.0966 -0.0172
  111MOL0     N14537   3.539   9.828   5.364 -1.4366 -0.6834  0.6159
  111MOL0     C14538   3.500   9.704   5.398 -0.6017  0.5832 -0.5971
  111MOL0     C14539   3.367   9.697   5.379  0.8282 -0.0509 -0.1469
  111MOL0     C14540   3.274   9.581   5.420  0.6179 -0.3675  0.6855
  111MOL0     C14541   3.305   9.471   5.321  0.4864  0.9652  0.5586
  111MOL0     C14542   3.244   9.346   5.368 -1.0362  0.3795 -0.3538
  111MOL0     C14543   3.256   9.226   5.270  0.4394 -0.7683  0.5070
  111MOL0     O14544   3.283   9.104   5.337 -0.3794  0.7612 -0.7311
  111MOL0     C14545   3.245   8.988   5.268 -0.2383 -1.1219  0.5054
  111MOL0     C14546   3.200   8.988   5.133  0.4375  0.1554  0.6242
  111MOL0     C14547   3.157   8.867   5.071 -0.4300 -0.4125  0.3610
  111MOL0     C14548   3.167   8.746   5.130  0.5841 -0.6773 -0.2545
  111MOL0     C14549   3.136   8.627   5.059 -0.4884  0.6175  0.0844
  111MOL0     O14550   3.073   8.649   4.940  0.3920  0.2525 -0.6370
  111MOL0     C14551   3.029   8.546   4.864  0.0701  0.2536  0.7386
  111MOL0     C14552   3.120   8.480   4.776 -0.7868 -0.4089 -0.0282
  111MOL0     C14553   3.065   8.394   4.689 -0.9481 -0.3873 -0.1431
  111MOL0     C14554   2.926   8.373   4.679  0.0044  1.4548  0.3877
  111MOL0     O14555   2.894   8.269   4.581 -0.4202  0.4416  0.5664
  111MOL0     C14556   2.750   8.229   4.577 -0.9909  0.1476  0.7493
  111MOL0     C14557   2.724   8.141   4.452  0.4657 -0.1423 -0.7100
  111MOL0     C14558   2.760   7.992   4.467  0.9602  0.0320  0.9438
  111MOL0     C14559   2.639   7.911   4.520  0.4130 -0.3121  0.0628
  111MOL0     C14560   2.697   7.779   4.577 -0.0993  0.6224 -0.6019
  111MOL0     C14561   2.584   7.687   4.632 -1.4821 -0.0729  0.3267
  111MOL0     C14562   2.647   7.559   4.695 -0.2706  1.0842  0.7861
  111MOL0     C14563   2.562   7.498   4.807  0.1248 -0.0038  0.0321
  111MOL0    Cl14564   2.607   7.581   4.959 -0.8486  0.4969 -0.2018
  111MOL0     C14565   2.839   8.427   4.767  0.1180 -0.6296 -0.3653
  111MOL0     C14566   2.891   8.518   4.863  0.0100 -0.3885  0.4915
  111MOL0     O14567   3.177   8.514   5.102  0.3345 -0.0070 -0.2502
  111MOL0     C14568   3.215   8.743   5.264  0.5532  0.5137  0.1853
  111MOL0     C14569   3.244   8.866   5.325 -0.4899 -0.0275 -0.0058
  111MOL0     N14570   3.330   9.815   5.326 -0.2643 -0.3803  0.2257
  111MOL0     N14571   3.426   9.894   5.332 -0.0927 -0.8495 -0.1831
  111MOL0     C14572   4.425   9.634   5.849 -0.3228 -0.1437  0.4543
  111MOL0     C14573   4.452   9.624   5.986  0.2581 -0.5306 -0.2698
  111MOL0     C14574   4.499   9.666   6.424  0.3497 -0.2729  0.1369
  111MOL0     C14575   4.423   9.771   6.467 -0.1626  0.0591  0.2690
  111MOL0     C14576   4.393   9.789   6.599  0.9033 -0.2923 -0.0767
  111MOL0     C14577   4.445   9.699   6.690  0.2709  0.3779  0.4177
  111MOL0     O14578   4.419   9.701   6.821 -1.1821  0.5039  0.3550
  111MOL0     C14579   4.297   9.762   6.870 -0.7767  0.1280 -0.1037
  111MOL0     C14580   4.300   9.771   7.022 -0.5039 -0.5304  0.5414
  111MOL0     C14581   4.365   9.649   7.098 -0.3469 -0.0017  0.1625
  111MOL0     C14582   4.297   9.513   7.052 -0.2188 -0.3529  0.5629
  111MOL0     C14583   4.159   9.508   7.085 -0.7881 -0.8410 -0.4528
  111MOL0     C14584   4.032   9.517   7.109 -0.1543 -0.2318 -0.0421
  111MOL0     C14585   4.517   9.588   6.647 -0.9471  0.3645 -0.0702
  111MOL0     C14586   4.537   9.566   6.512  0.2521 -0.0688  0.3315
  111MOL0     H14587   4.396   9.945   6.064  0.8378 -1.1199  0.4872
  111MOL0     H14588   4.372   9.971   5.836 -1.1581 -0.5786  2.0513
  111MOL0     H14589   4.462   9.910   5.515 -2.0955 -2.1643 -4.0060
  111MOL0     H14590   4.363   9.981   5.639  0.0603 -0.0409  0.1785
  111MOL0     H14591   4.160   9.846   5.535  1.3535 -3.3387 -0.1075
  111MOL0     H14592   4.276   9.771   5.432 -3.5072 -0.4212 -1.1027
  111MOL0     H14593   4.339   9.970   5.332  0.9222 -2.1402  1.7181
  111MOL0     H14594   4.211  10.052   5.432 -1.6637 -0.4519 -0.7484
  111MOL0     H14595   4.107  10.009   5.212 -0.9260  0.4282 -0.7366
  111MOL0     H14596   4.160   9.842   5.215 -3.4757  0.5891 -1.5949
  111MOL0     H14597   3.959   9.966   5.405 -2.5208 -1.9660  0.3700
  111MOL0     H14598   4.010   9.801   5.407  0.9613  1.7423  3.5299
  111MOL0     H14599   3.943   9.789   5.154  1.3168  1.4057  0.0859
  111MOL0     H14600   3.887   9.949   5.177 -0.6218  0.3775  0.3597
  111MOL0     H14601   3.720   9.778   5.169 -0.3448 -0.3543 -0.9432
  111MOL0     H14602   3.774   9.691   5.314 -0.1129 -0.3163 -0.3286
  111MOL0     H14603   3.672   9.980   5.315  2.5443  0.1160 -0.3820
  111MOL0     H14604   3.725   9.877   5.454 -0.9857 -0.1252  0.6406
  111MOL0     H14605   3.558   9.627   5.448 -0.5977  1.4192  0.7636
  111MOL0     H14606   3.172   9.612   5.396  0.7595 -0.0948  0.4307
  111MOL0     H14607   3.292   9.550   5.524 -3.0205 -0.3247  1.4530
  111MOL0     H14608   3.413   9.453   5.308  0.3219 -0.0750  0.5294
  111MOL0     H14609   3.261   9.507   5.227 -4.2909 -0.6266  1.9069
  111MOL0     H14610   3.293   9.322   5.462 -0.9605 -1.1052 -0.7588
  111MOL0     H14611   3.139   9.378   5.377 -0.7524  1.4431 -0.6178
  111MOL0     H14612   3.336   9.246   5.198  1.6124 -3.0651  1.0856
  111MOL0     H14613   3.169   9.217   5.204  0.8429 -1.0869  0.0050
  111MOL0     H14614   3.179   9.073   5.069  0.2730 -1.7243 -1.9660
  111MOL0     H14615   3.126   8.860   4.967 -1.4815  1.0071  0.5414
  111MOL0     H14616   3.227   8.498   4.775 -0.6783 -0.7377  1.9182
  111MOL0     H14617   3.145   8.346   4.634  2.3263  3.2292  0.9490
  111MOL0     H14618   2.685   8.314   4.554 -1.5149  0.6861  3.7616
  111MOL0     H14619   2.717   8.175   4.667 -2.5611 -0.2290 -0.0172
  111MOL0     H14620   2.770   8.183   4.362 -2.5844  1.2936 -1.7419
  111MOL0     H14621   2.617   8.151   4.429  0.6332  1.8714 -0.8298
  111MOL0     H14622   2.852   8.004   4.525  1.4594  1.4815 -0.0797
  111MOL0     H14623   2.786   7.951   4.369 -1.1983 -0.9523  0.7193
  111MOL0     H14624   2.592   7.964   4.603  1.8399  0.0890  0.6618
  111MOL0     H14625   2.565   7.881   4.445  1.1901 -0.8804 -0.4993
  111MOL0     H14626   2.759   7.811   4.661 -3.3949 -1.5392  2.9985
  111MOL0     H14627   2.758   7.717   4.511 -0.3283 -0.1161 -0.1333
  111MOL0     H14628   2.525   7.674   4.541 -1.7941  2.6054  0.0547
  111MOL0     H14629   2.522   7.738   4.707 -0.2413  2.0859 -0.0165
  111MOL0     H14630   2.666   7.480   4.622 -1.1817  1.6842 -0.1178
  111MOL0     H14631   2.746   7.592   4.728  0.8967 -0.4420 -1.0026
  111MOL0     H14632   2.581   7.391   4.816  2.1531  0.2841 -0.4681
  111MOL0     H14633   2.457   7.522   4.785 -0.4534 -0.2124  2.2558
  111MOL0     H14634   2.733   8.403   4.771  0.4357 -1.8862  2.3176
  111MOL0     H14635   2.839   8.562   4.948  0.7016  2.9600 -0.6796
  111MOL0     H14636   3.234   8.651   5.318  1.0088  1.3423  1.4713
  111MOL0     H14637   3.265   8.865   5.431  1.4880 -0.4447 -0.3599
  111MOL0     H14638   4.436   9.550   5.781  1.4662 -0.4684  1.1050
  111MOL0     H14639   4.488   9.531   6.029  1.5256  0.5556  1.0949
  111MOL0     H14640   4.374   9.828   6.389  2.2776  1.3698 -0.3971
  111MOL0     H14641   4.325   9.871   6.621 -0.1880 -1.0096 -0.6534
  111MOL0     H14642   4.214   9.698   6.839  1.1458 -2.1092 -0.9247
  111MOL0     H14643   4.288   9.868   6.842  2.6498  0.2727 -1.1171
  111MOL0     H14644   4.368   9.856   7.039  1.6858 -2.0872  0.0661
  111MOL0     H14645   4.205   9.800   7.068 -1.8271 -1.6278 -1.3738
  111MOL0     H14646   4.342   9.656   7.205 -1.7959 -1.1516 -0.0378
  111MOL0     H14647   4.470   9.657   7.070 -0.5287  0.8775 -0.3161
  111MOL0     H14648   4.318   9.481   6.949 -0.7543  2.6481 -0.5784
  111MOL0     H14649   4.358   9.432   7.094 -1.5506 -1.6328  0.0955
  111MOL0     H14650   3.928   9.530   7.133  0.1180  2.3972  0.0379
  111MOL0     H14651   4.553   9.506   6.708 -0.8965 -0.2578 -0.9170
  111MOL0     H14652   4.599   9.490   6.466  0.8296  1.0248 -0.7399
  112MOL0     O14653   9.777   2.498   9.450 -1.2261 -0.3545  0.0900
  112MOL0     C14654   9.703   2.501   9.544  0.2839 -0.2264  0.0436
  112MOL0     O14655   9.735   2.471   9.675  0.2954 -0.6712 -0.2589
  112MOL0     C14656   9.864   2.424   9.706  1.0543  1.4669 -0.6662
  112MOL0     C14657   9.946   2.341   9.631  0.7513  0.1550  0.7627
  112MOL0     C14658  10.079   2.311   9.664 -0.3361  0.7497 -0.3670
  112MOL0     C14659  10.142   2.361   9.787 -0.5410 -0.7317  0.2833
  112MOL0     O14660  10.264   2.325   9.821 -0.5254 -0.3749 -0.0673
  112MOL0     C14661  10.369   2.420   9.804 -0.7819 -0.2145  1.2973
  112MOL0     C14662  10.503   2.376   9.851 -0.0660 -0.4879 -0.1177
  112MOL0     C14663  10.618   2.472   9.809 -0.1818 -0.1508 -0.2300
  112MOL0     C14664  10.724   2.485   9.917  0.4403 -0.1192 -0.2107
  112MOL0     C14665  10.798   2.367   9.967  0.5482 -0.8364 -0.4163
  112MOL0     C14666  10.883   2.406  10.094  0.0525 -0.0392  0.5733
  112MOL0     C14667  10.933   2.293  10.176  0.3563  0.3059  0.1707
  112MOL0     C14668  11.011   2.348  10.292 -0.3447  0.0178  0.6667
  112MOL0     N14669  11.123   2.436  10.272 -0.1021 -0.5188  0.7433
  112MOL0     C14670  11.217   2.420  10.175 -1.0022  1.0648 -0.8664
  112MOL0     C14671  11.300   2.531  10.189  0.6782 -0.6504  0.1324
  112MOL0     C14672  11.426   2.570  10.122  0.7381 -0.0727  0.7888
  112MOL0     C14673  11.386   2.677   9.999 -0.4865  0.4591  0.0601
  112MOL0     C14674  11.483   2.795   9.989 -0.0044 -0.1266  0.1386
  112MOL0     C14675  11.627   2.754   9.975 -0.8730  0.6438 -0.5383
  112MOL0     O14676  11.723   2.862   9.957 -0.1591 -0.1218 -0.3441
  112MOL0     C14677  11.788   2.920  10.063 -0.1776 -0.1381  0.9728
  112MOL0     C14678  11.791   2.883  10.195 -0.0578  0.4636 -0.2584
  112MOL0     C14679  11.886   2.935  10.289  0.4964 -1.0266 -0.3178
  112MOL0     C14680  11.965   3.038  10.250 -0.6971 -0.2690 -0.5420
  112MOL0     C14681  12.062   3.096  10.345 -0.8614 -0.6965  0.3134
  112MOL0     O14682  12.079   3.020  10.458  0.1618 -0.6478  0.3157
  112MOL0     C14683  12.180   3.043  10.547 -0.2355 -0.2066 -0.2088
  112MOL0     C14684  12.162   3.136  10.656 -0.5699  0.6098 -0.8949
  112MOL0     C14685  12.260   3.167  10.743 -0.1799 -0.2919  0.0006
  112MOL0     C14686  12.385   3.112  10.729 -0.2713  0.0706  0.1477
  112MOL0     O14687  12.482   3.158  10.821 -0.6427 -0.1282 -0.1335
  112MOL0     C14688  12.475   3.118  10.957 -0.4896 -0.5270 -0.2495
  112MOL0     C14689  12.600   3.136  11.041 -0.7104 -0.8747 -0.4744
  112MOL0     C14690  12.658   3.274  11.031 -0.3528  0.4411 -0.0545
  112MOL0     C14691  12.774   3.279  11.135 -0.2527  0.1060  0.3231
  112MOL0     C14692  12.869   3.394  11.121 -0.0521  0.2079 -0.3547
  112MOL0     C14693  12.959   3.395  10.996  0.1787 -0.0991 -0.7038
  112MOL0     C14694  13.029   3.526  10.991 -0.0941 -0.8823  0.1391
  112MOL0     C14695  13.159   3.519  10.923 -0.1152  1.0497  0.1194
  112MOL0    Cl14696  13.197   3.691  10.912 -0.2596 -0.5455 -0.1376
  112MOL0     C14697  12.403   3.024  10.615  0.0213 -0.3825 -0.1911
  112MOL0     C14698  12.304   2.987  10.524 -0.4100 -0.3783 -0.1925
  112MOL0     O14699  12.141   3.180  10.302 -0.2503  0.2250 -0.9167
  112MOL0     C14700  11.966   3.071  10.112 -1.2155 -0.4370 -0.2740
  112MOL0     C14701  11.876   3.018  10.018  0.1426 -0.7681  0.6877
  112MOL0     N14702  11.245   2.612  10.288 -0.3056 -0.6484  0.3229
  112MOL0     N14703  11.148   2.556  10.331  0.2298  0.0935 -0.1094
  112MOL0     C14704  10.058   2.443   9.861  0.4011  0.2729 -1.0657
  112MOL0     C14705   9.926   2.470   9.824  0.7935 -0.1577 -0.6481
  112MOL0     C14706   9.563   2.521   9.512  0.0124  0.0379  0.4764
  112MOL0     C14707   9.518   2.545   9.382  0.7212 -0.4393 -0.4807
  112MOL0     C14708   9.383   2.582   9.361 -0.1236 -0.1431  0.4668
  112MOL0     C14709   9.296   2.586   9.469  0.6812 -0.0403 -1.0722
  112MOL0     O14710   9.166   2.627   9.431 -1.0898  0.5572  0.2931
  112MOL0     C14711   9.061   2.644   9.530 -0.4182 -0.4473 -0.3747
  112MOL0     C14712   8.986   2.522   9.559 -0.4730 -0.6348 -0.4124
  112MOL0     C14713   8.919   2.440   9.445 -0.4423  0.0106  0.8273
  112MOL0     C14714   8.806   2.354   9.488 -0.7637  0.0038 -0.5047
  112MOL0     C14715   8.846   2.225   9.559  0.3824 -0.3899  0.5169
  112MOL0     C14716   8.880   2.126   9.616 -0.0644  0.0331 -0.5730
  112MOL0     C14717   9.332   2.534   9.593  0.5699  0.1915 -0.0105
  112MOL0     C14718   9.469   2.500   9.610 -0.1929  0.6069  0.2698
  112MOL0     H14719   9.916   2.288   9.541  0.1124  1.8099 -0.0294
  112MOL0     H14720  10.141   2.242   9.608 -1.8353 -1.6594  0.7885
  112MOL0     H14721  10.338   2.506   9.863 -1.6751  2.3743 -2.5563
  112MOL0     H14722  10.377   2.448   9.699  3.4666  0.3150  1.5897
  112MOL0     H14723  10.511   2.276   9.807  0.5922 -0.9682  1.0419
  112MOL0     H14724  10.514   2.354   9.957  0.9493 -0.7050 -0.2547
  112MOL0     H14725  10.582   2.575   9.796 -0.5303 -0.1959  0.3758
  112MOL0     H14726  10.665   2.435   9.717  0.0606  0.8034 -0.5077
  112MOL0     H14727  10.802   2.552   9.879 -2.1845  2.0065 -2.3387
  112MOL0     H14728  10.667   2.535   9.996  4.1270 -1.0582  3.3924
  112MOL0     H14729  10.865   2.331   9.888 -0.8727 -0.4878 -1.8309
  112MOL0     H14730  10.739   2.280   9.997  1.3159 -1.2574 -0.0667
  112MOL0     H14731  10.829   2.470  10.163  1.9889 -1.1816  3.3243
  112MOL0     H14732  10.970   2.463  10.060  0.2142 -1.1210 -0.9817
  112MOL0     H14733  10.846   2.233  10.205  0.2024 -0.9316 -2.5726
  112MOL0     H14734  10.998   2.224  10.121 -1.1306 -1.7114  0.7916
  112MOL0     H14735  11.064   2.270  10.349  1.6244  3.1321  3.5095
  112MOL0     H14736  10.933   2.396  10.351 -0.2908  1.8484 -0.6677
  112MOL0     H14737  11.231   2.330  10.116  3.2625 -0.8490  2.4432
  112MOL0     H14738  11.472   2.477  10.089  0.4323  0.1451 -0.2867
  112MOL0     H14739  11.479   2.633  10.194  0.4668  0.1816  0.7673
  112MOL0     H14740  11.285   2.716  10.010 -1.1628 -1.1501 -0.2107
  112MOL0     H14741  11.402   2.639   9.898  3.5376 -0.0497  0.7208
  112MOL0     H14742  11.455   2.855   9.902 -1.6597  1.7168  1.8579
  112MOL0     H14743  11.486   2.861  10.076  0.5470  0.6055 -0.4231
  112MOL0     H14744  11.647   2.689   9.889  0.4269  0.6542 -0.2643
  112MOL0     H14745  11.663   2.695  10.060  1.6847  0.7748 -1.4412
  112MOL0     H14746  11.731   2.815  10.254  1.0416 -1.2144 -1.0039
  112MOL0     H14747  11.882   2.909  10.394  3.5222  0.9757  0.4410
  112MOL0     H14748  12.064   3.180  10.674 -0.0991  0.7079  1.7112
  112MOL0     H14749  12.252   3.252  10.811  1.2828 -0.0180 -0.1452
  112MOL0     H14750  12.460   3.011  10.976 -1.4423  0.1825  3.9479
  112MOL0     H14751  12.397   3.174  11.008  0.7547  3.3182 -2.1249
  112MOL0     H14752  12.676   3.069  10.999  0.7377  0.8786 -0.7950
  112MOL0     H14753  12.580   3.114  11.146 -1.0867 -3.4505 -1.0294
  112MOL0     H14754  12.602   3.368  11.040  0.0962  0.8046 -0.9497
  112MOL0     H14755  12.710   3.291  10.936  2.9727  3.4874  2.0575
  112MOL0     H14756  12.726   3.293  11.233  0.1592  3.3880  0.1493
  112MOL0     H14757  12.826   3.183  11.129 -1.2694 -0.4395  0.1411
  112MOL0     H14758  12.928   3.394  11.213 -0.9120  0.6355  0.2159
  112MOL0     H14759  12.816   3.489  11.133  1.0376  0.5870  2.1044
  112MOL0     H14760  12.903   3.393  10.902 -0.2476  3.9132 -0.7131
  112MOL0     H14761  13.035   3.317  10.985  4.7536  3.8247 -0.4678
  112MOL0     H14762  12.967   3.599  10.938 -1.4767 -1.4383  0.9247
  112MOL0     H14763  13.040   3.582  11.085  2.1042  2.8435 -2.0649
  112MOL0     H14764  13.147   3.467  10.827  0.7973 -0.1630  0.6236
  112MOL0     H14765  13.219   3.453  10.987  0.2507  0.1084 -1.1548
  112MOL0     H14766  12.497   2.976  10.591 -1.2518 -1.7865 -2.7417
  112MOL0     H14767  12.309   2.930  10.432 -2.6050 -3.8352  1.6489
  112MOL0     H14768  12.040   3.140  10.074  1.3731 -3.6248 -1.4810
  112MOL0     H14769  11.871   3.038   9.911  1.2789 -0.2439  0.7252
  112MOL0     H14770  10.088   2.474   9.960  1.2307  0.3207 -1.3167
  112MOL0     H14771   9.877   2.532   9.898  2.6392 -0.1273  0.6022
  112MOL0     H14772   9.589   2.553   9.300 -0.9212 -1.3850 -2.0710
  112MOL0     H14773   9.349   2.618   9.265  2.3289  2.8201  0.5789
  112MOL0     H14774   8.994   2.722   9.492 -0.7262 -1.8262 -2.8257
  112MOL0     H14775   9.117   2.684   9.615  1.7574 -0.2487 -1.8123
  112MOL0     H14776   9.048   2.457   9.622 -1.0816 -1.0364 -0.2273
  112MOL0     H14777   8.906   2.548   9.629  1.7390 -2.2334  2.9700
  112MOL0     H14778   8.996   2.384   9.392  0.8584  1.1522  1.4439
  112MOL0     H14779   8.892   2.513   9.368  0.8433  3.3357  3.2695
  112MOL0     H14780   8.745   2.415   9.555 -0.0875  2.2358 -1.8278
  112MOL0     H14781   8.741   2.329   9.404 -2.2489 -1.6658  1.0667
  112MOL0     H14782   8.908   2.031   9.658  2.1560 -0.0171 -1.9929
  112MOL0     H14783   9.276   2.507   9.681 -1.0770 -0.3585 -1.1698
  112MOL0     H14784   9.500   2.477   9.711 -1.6239  3.5547  1.5031
  113MOL0     O14785  10.390   7.136   8.296 -1.2118  1.1548  0.2014
  113MOL0     C14786  10.490   7.131   8.221  0.0497 -0.6629 -0.1755
  113MOL0     O14787  10.503   7.043   8.114  0.3036 -0.2092  0.2045
  113MOL0     C14788  10.404   6.951   8.101 -0.2014  0.7238 -0.2986
  113MOL0     C14789  10.314   6.966   7.998  0.5511 -0.3806  0.4385
  113MOL0     C14790  10.223   6.867   7.969 -0.6595  0.8200 -0.8096
  113MOL0     C14791  10.217   6.754   8.049 -0.1113 -0.4218 -0.1730
  113MOL0     O14792  10.126   6.664   8.012  0.5466 -0.1144  0.4741
  113MOL0     C14793  10.073   6.569   8.108  0.0589 -0.1801 -1.1878
  113MOL0     C14794   9.964   6.472   8.030 -0.1188 -0.2626 -0.7711
  113MOL0     C14795  10.028   6.334   8.010 -0.6839 -0.0723 -0.6273
  113MOL0     C14796   9.937   6.218   7.941  0.5523 -0.4643 -0.1264
  113MOL0     C14797   9.890   6.255   7.795  0.3035 -0.2353  0.1481
  113MOL0     C14798   9.829   6.132   7.717 -0.2041 -0.0407  0.8228
  113MOL0     C14799   9.955   6.054   7.672  0.0357 -0.0226 -0.8477
  113MOL0     C14800   9.916   5.943   7.582 -0.8554  0.1269 -0.2074
  113MOL0     N14801  10.033   5.872   7.526 -0.6197  0.4655 -0.3290
  113MOL0     C14802  10.077   5.883   7.394 -0.5368  0.8280  0.0458
  113MOL0     C14803  10.171   5.785   7.375 -0.1227  0.1401  0.3783
  113MOL0     C14804  10.269   5.748   7.261  0.0570  0.4629  0.3725
  113MOL0     C14805  10.296   5.876   7.188 -0.4796  0.1932  0.8576
  113MOL0     C14806  10.433   5.864   7.119  0.1925 -0.0166  0.1183
  113MOL0     C14807  10.432   5.791   6.987  0.0379  0.4312 -0.2454
  113MOL0     O14808  10.415   5.647   6.991 -0.7267 -0.2359 -0.0037
  113MOL0     C14809  10.387   5.583   6.874 -0.3249  0.2476  0.4266
  113MOL0     C14810  10.343   5.640   6.754 -0.3008  0.5053 -0.6576
  113MOL0     C14811  10.296   5.570   6.636 -0.3711  0.5100  0.3534
  113MOL0     C14812  10.308   5.429   6.643  0.2256 -0.3342 -0.3464
  113MOL0     C14813  10.253   5.334   6.540  0.1336 -0.2544 -0.6133
  113MOL0     O14814  10.199   5.211   6.578 -0.4345 -0.5929 -0.2832
  113MOL0     C14815  10.163   5.112   6.487 -0.4550  0.1901 -0.5402
  113MOL0     C14816  10.051   5.039   6.499 -0.5780 -0.1044  0.0369
  113MOL0     C14817  10.017   4.947   6.403  0.4420 -0.1795 -0.3754
  113MOL0     C14818  10.097   4.912   6.291  1.2546  0.3318  0.8167
  113MOL0     O14819  10.055   4.803   6.220  0.0852 -0.2566  0.4829
  113MOL0     C14820  10.132   4.751   6.118  0.2154  1.0599  0.1768
  113MOL0     C14821  10.070   4.607   6.085  0.1570 -0.4201 -0.0031
  113MOL0     C14822  10.170   4.526   6.003 -0.1240  0.3373 -0.1781
  113MOL0     C14823  10.309   4.520   6.062  0.4160 -0.2164  0.0499
  113MOL0     C14824  10.330   4.462   6.197 -0.0028  0.0669 -0.2200
  113MOL0     C14825  10.347   4.303   6.212  0.5384  0.5709  0.8364
  113MOL0     C14826  10.378   4.266   6.347 -0.7251 -0.0075  0.1502
  113MOL0     C14827  10.512   4.310   6.396 -0.8948  0.5430 -0.1804
  113MOL0    Cl14828  10.648   4.238   6.301  0.2901  0.0244  0.2213
  113MOL0     C14829  10.221   4.981   6.278 -0.1288 -0.4114  0.5669
  113MOL0     C14830  10.253   5.083   6.381  0.3965  0.4099  1.0162
  113MOL0     O14831  10.283   5.367   6.428  0.6668  0.6404  0.3973
  113MOL0     C14832  10.356   5.371   6.764 -0.5090 -0.2480  0.8984
  113MOL0     C14833  10.385   5.445   6.882  1.0420  0.8892 -0.0695
  113MOL0     N14834  10.176   5.718   7.496 -0.4029  0.2719 -0.0721
  113MOL0     N14835  10.093   5.763   7.586 -0.5953  0.3824  0.8893
  113MOL0     C14836  10.299   6.746   8.161 -0.1161 -0.1340 -0.4600
  113MOL0     C14837  10.396   6.842   8.188  0.4704  0.3523 -0.1323
  113MOL0     C14838  10.591   7.236   8.253  1.2404  0.0256  0.5021
  113MOL0     C14839  10.708   7.233   8.176 -0.2866  0.1043  0.4250
  113MOL0     C14840  10.817   7.322   8.203  0.8998 -0.8878  1.0221
  113MOL0     C14841  10.814   7.411   8.314  0.1520  1.0116 -0.2414
  113MOL0     O14842  10.918   7.499   8.336 -0.3930 -0.1684  0.7882
  113MOL0     C14843  10.896   7.640   8.358  0.2339 -0.2831 -0.4034
  113MOL0     C14844  11.017   7.725   8.342 -0.0031  0.4411  0.1382
  113MOL0     C14845  11.105   7.704   8.462 -0.4630  0.2390 -0.1528
  113MOL0     C14846  11.252   7.749   8.431  0.1786 -0.6547  0.0651
  113MOL0     C14847  11.325   7.652   8.352 -0.5823  0.5248  0.7996
  113MOL0     C14848  11.392   7.564   8.288  0.4997 -0.2360 -0.8020
  113MOL0     C14849  10.695   7.411   8.392 -1.1731 -1.4551 -0.6398
  113MOL0     C14850  10.583   7.328   8.362 -0.5415 -0.2144  0.1544
  113MOL0     H14851  10.328   7.057   7.941 -1.1942  0.2356  0.9146
  113MOL0     H14852  10.173   6.869   7.872  0.2896  0.9252 -1.3121
  113MOL0     H14853  10.017   6.608   8.193 -0.1570 -0.3460 -1.2501
  113MOL0     H14854  10.161   6.512   8.139 -1.5861 -1.5774  1.2581
  113MOL0     H14855   9.924   6.513   7.937 -2.7147 -1.9606 -0.5186
  113MOL0     H14856   9.873   6.462   8.091  1.2677  1.1251  1.7203
  113MOL0     H14857  10.070   6.298   8.104 -2.0318  0.3233  0.1548
  113MOL0     H14858  10.110   6.345   7.939 -1.3116  1.4214 -1.1467
  113MOL0     H14859   9.992   6.124   7.942 -0.0217 -0.8074  1.7131
  113MOL0     H14860   9.844   6.207   7.997  0.8926 -1.5864  0.2447
  113MOL0     H14861   9.979   6.298   7.747  1.7498 -2.4872  0.6583
  113MOL0     H14862   9.815   6.334   7.808  0.8136  0.0394  1.5808
  113MOL0     H14863   9.790   6.166   7.620  1.5645 -3.7945 -1.4118
  113MOL0     H14864   9.754   6.072   7.768 -2.5880 -0.6209 -2.9755
  113MOL0     H14865  10.004   6.120   7.599  1.1825 -1.2448 -1.2104
  113MOL0     H14866  10.020   6.027   7.756 -0.9634 -0.2764 -0.1344
  113MOL0     H14867   9.849   5.977   7.502 -2.1437  0.6597  1.0450
  113MOL0     H14868   9.847   5.879   7.638  0.1716 -1.1292 -0.3521
  113MOL0     H14869  10.030   5.952   7.323 -3.9372 -2.7192 -1.5347
  113MOL0     H14870  10.239   5.675   7.186 -0.9219  1.5794 -0.3484
  113MOL0     H14871  10.356   5.702   7.308 -1.6625 -2.2489  1.0879
  113MOL0     H14872  10.294   5.956   7.263 -1.2001 -0.6137  1.7293
  113MOL0     H14873  10.223   5.901   7.111 -0.2634 -3.9593 -0.9529
  113MOL0     H14874  10.471   5.963   7.093 -1.2527  0.8675  1.2213
  113MOL0     H14875  10.509   5.815   7.179  2.8872 -0.5258 -3.3737
  113MOL0     H14876  10.527   5.802   6.935  0.0887 -1.6538 -0.6975
  113MOL0     H14877  10.360   5.840   6.921 -2.5386 -0.9662  1.3600
  113MOL0     H14878  10.337   5.747   6.738  1.2490  0.5563 -1.0330
  113MOL0     H14879  10.259   5.627   6.552 -0.2617  1.9360  1.2432
  113MOL0     H14880   9.979   5.063   6.576  0.7080 -0.2807  1.3217
  113MOL0     H14881   9.925   4.893   6.422 -1.4963  3.0176  0.0928
  113MOL0     H14882  10.237   4.744   6.147  0.1681 -0.0609  0.1189
  113MOL0     H14883  10.121   4.815   6.030 -0.2453  2.3828  1.1588
  113MOL0     H14884   9.974   4.627   6.038 -0.8294  2.5401  2.9719
  113MOL0     H14885  10.058   4.548   6.176  0.0342 -0.6272 -0.1514
  113MOL0     H14886  10.174   4.570   5.903 -2.8433  2.3318  0.4462
  113MOL0     H14887  10.135   4.423   6.008 -1.5158  0.8448  2.6826
  113MOL0     H14888  10.370   4.461   5.992 -0.5468  0.7663 -1.6892
  113MOL0     H14889  10.360   4.616   6.062 -1.0865  0.6140 -0.5804
  113MOL0     H14890  10.245   4.488   6.260 -0.7608 -2.5512 -0.0418
  113MOL0     H14891  10.423   4.514   6.224  0.1414  1.2118 -2.6416
  113MOL0     H14892  10.427   4.260   6.151  1.5488  1.1817  1.6897
  113MOL0     H14893  10.252   4.259   6.181 -2.0025  3.4712  3.6707
  113MOL0     H14894  10.297   4.299   6.413 -0.8476 -1.2284  0.6397
  113MOL0     H14895  10.386   4.157   6.335  1.1857  0.0825  0.3552
  113MOL0     H14896  10.520   4.273   6.499  3.3785  0.9547 -0.1576
  113MOL0     H14897  10.528   4.417   6.410  1.2574  0.1732  0.6929
  113MOL0     H14898  10.287   4.964   6.194  3.0681 -2.5761  3.2853
  113MOL0     H14899  10.343   5.144   6.375  0.6789 -0.0832  0.1365
  113MOL0     H14900  10.353   5.263   6.773 -2.7406 -0.4917 -1.7660
  113MOL0     H14901  10.420   5.392   6.969  2.6217  0.9811 -0.6101
  113MOL0     H14902  10.294   6.663   8.230 -0.4841  2.3716  2.7803
  113MOL0     H14903  10.464   6.819   8.270  1.1206 -1.3122 -1.1023
  113MOL0     H14904  10.711   7.173   8.085  1.7077  0.2958  0.3071
  113MOL0     H14905  10.902   7.312   8.136 -2.7303 -3.4371 -3.8189
  113MOL0     H14906  10.862   7.647   8.462 -0.2045  2.8767 -0.6637
  113MOL0     H14907  10.814   7.687   8.304 -0.9543 -1.6684  0.1488
  113MOL0     H14908  11.068   7.682   8.255  0.2494  0.9922  0.0120
  113MOL0     H14909  11.002   7.831   8.318  0.0654  1.2713  3.3204
  113MOL0     H14910  11.106   7.602   8.501  1.4039 -0.4925 -1.9534
  113MOL0     H14911  11.061   7.774   8.534 -4.2159 -1.2845 -0.7314
  113MOL0     H14912  11.251   7.853   8.396 -2.2446  0.1521  2.1771
  113MOL0     H14913  11.292   7.755   8.533 -0.7565  2.2648  0.3554
  113MOL0     H14914  11.449   7.495   8.229  0.8916  0.5793 -1.3861
  113MOL0     H14915  10.691   7.485   8.471  0.4441 -0.2994 -1.5548
  113MOL0     H14916  10.493   7.350   8.419  1.1580  2.8147  1.9558
  114MOL0     O14917   9.256  11.112   9.089  0.7330 -0.3223 -0.0734
  114MOL0     C14918   9.360  11.170   9.083  0.0532 -0.0628 -0.4115
  114MOL0     O14919   9.391  11.287   9.142  0.8371 -0.6374  0.8012
  114MOL0     C14920   9.284  11.358   9.208  0.1619 -1.1559  0.1413
  114MOL0     C14921   9.231  11.470   9.146 -0.1199 -1.5454 -0.6708
  114MOL0     C14922   9.110  11.519   9.200 -0.4740 -1.1198 -0.1176
  114MOL0     C14923   9.060  11.478   9.324  0.4419  0.6234 -0.1781
  114MOL0     O14924   8.941  11.530   9.377 -1.0183 -0.3248 -0.2925
  114MOL0     C14925   8.933  11.555   9.522  0.6831 -0.0295 -0.3381
  114MOL0     C14926   8.833  11.672   9.555  0.6584 -0.4770  0.1928
  114MOL0     C14927   8.803  11.683   9.703 -0.1335  0.3374 -0.4054
  114MOL0     C14928   8.919  11.712   9.796  0.4876  0.2049 -0.0584
  114MOL0     C14929   8.958  11.855   9.783 -0.0594 -0.5328 -0.0828
  114MOL0     C14930   9.062  11.897   9.888 -0.0558  0.4713  0.0403
  114MOL0     C14931   9.074  12.049   9.895  0.1263 -0.2886 -1.1500
  114MOL0     C14932   9.177  12.104  10.002 -0.5228  0.1809 -0.4592
  114MOL0     N14933   9.132  12.078  10.145  0.0284  0.3311 -0.7993
  114MOL0     C14934   9.140  11.960  10.222 -0.3298 -0.9221  0.8644
  114MOL0     C14935   9.124  11.995  10.347 -0.6949 -0.1480 -0.5371
  114MOL0     C14936   9.121  11.899  10.460 -0.5669 -0.6401 -0.3713
  114MOL0     C14937   9.255  11.889  10.539  0.2069  0.3265  0.3507
  114MOL0     C14938   9.257  11.991  10.658 -0.1744 -0.9133 -0.1386
  114MOL0     C14939   9.195  11.951  10.777  1.6945 -0.7751 -0.0013
  114MOL0     O14940   9.300  11.950  10.873 -0.7162 -0.4571 -0.2639
  114MOL0     C14941   9.390  11.842  10.880 -0.5787 -0.3323  0.4554
  114MOL0     C14942   9.381  11.725  10.811 -0.1612 -0.6434 -0.7485
  114MOL0     C14943   9.467  11.618  10.831  0.2875 -0.5500  0.0307
  114MOL0     C14944   9.569  11.623  10.921  0.1421  0.3613  0.1020
  114MOL0     C14945   9.650  11.497  10.941 -0.0480  0.4653 -0.2128
  114MOL0     O14946   9.584  11.380  10.931  0.7189  1.0107 -0.3138
  114MOL0     C14947   9.652  11.262  10.942 -0.3171  0.0982 -0.5111
  114MOL0     C14948   9.791  11.245  10.915 -0.0098  0.0866 -0.2673
  114MOL0     C14949   9.857  11.119  10.943 -0.5620 -0.3983 -0.0966
  114MOL0     C14950   9.788  11.016  10.999  0.5017 -0.4760  0.4926
  114MOL0     O14951   9.854  10.892  11.025 -0.3360 -0.2483 -0.4972
  114MOL0     C14952   9.980  10.871  10.969 -0.1201 -0.3083  0.2456
  114MOL0     C14953   9.997  10.719  10.959 -0.1871  0.2080 -0.1859
  114MOL0     C14954  10.116  10.684  10.865 -0.6087  0.8904  0.3802
  114MOL0     C14955  10.246  10.764  10.892  0.1967  0.2413  0.4127
  114MOL0     C14956  10.293  10.747  11.048  1.2897 -0.5491  0.4529
  114MOL0     C14957  10.409  10.847  11.086 -0.0822 -0.4452  0.0235
  114MOL0     C14958  10.450  10.852  11.236 -0.7472  0.7028  0.3182
  114MOL0     C14959  10.546  10.972  11.252 -0.5275  0.0438 -0.3775
  114MOL0    Cl14960  10.460  11.127  11.261 -0.0027 -0.1628 -0.2226
  114MOL0     C14961   9.648  11.034  11.011  0.0136  0.4060 -0.4951
  114MOL0     C14962   9.581  11.159  10.996  0.7090  0.5795 -0.0719
  114MOL0     O14963   9.770  11.509  10.968  0.7762  0.7745 -0.2468
  114MOL0     C14964   9.594  11.748  10.988 -0.5689 -0.2835 -0.1199
  114MOL0     C14965   9.502  11.846  10.971  0.5015  0.8299  0.7365
  114MOL0     N14966   9.099  12.134  10.348  0.2764  0.7271 -0.3587
  114MOL0     N14967   9.100  12.176  10.229  0.2044  0.2914 -0.3002
  114MOL0     C14968   9.117  11.368   9.389 -0.2598 -0.6037  0.0714
  114MOL0     C14969   9.229  11.307   9.334 -0.5977  0.2302  0.3763
  114MOL0     C14970   9.474  11.098   9.013 -0.2166 -0.8157 -0.2042
  114MOL0     C14971   9.606  11.146   9.023  0.8457 -0.0429 -0.5786
  114MOL0     C14972   9.712  11.075   8.971 -0.2427 -0.5374 -0.3809
  114MOL0     C14973   9.689  10.961   8.887 -0.3077 -0.0380  0.6281
  114MOL0     O14974   9.795  10.883   8.857  0.9370 -0.2512  0.6118
  114MOL0     C14975   9.798  10.801   8.736 -0.4092  1.0952  0.5191
  114MOL0     C14976   9.944  10.804   8.689 -0.7232 -0.4835  0.5224
  114MOL0     C14977   9.957  10.923   8.589 -0.5974 -0.5692 -0.4175
  114MOL0     C14978  10.094  10.955   8.532 -0.2213  1.2506  0.9710
  114MOL0     C14979  10.191  11.004   8.630 -0.5497  0.0668  0.5024
  114MOL0     C14980  10.280  11.045   8.694  0.6801  0.9524  1.2524
  114MOL0     C14981   9.557  10.922   8.853  0.6840 -0.1913  0.2275
  114MOL0     C14982   9.453  10.989   8.927  0.0241  0.8567 -0.0380
  114MOL0     H14983   9.267  11.517   9.055  2.2233  0.2621  1.0521
  114MOL0     H14984   9.058  11.599   9.148 -0.0158  0.9212  2.3842
  114MOL0     H14985   9.033  11.570   9.565  0.1068  2.0403  0.4214
  114MOL0     H14986   8.880  11.475   9.574 -3.9901  3.1621  0.4846
  114MOL0     H14987   8.743  11.669   9.492  0.7998  1.9637 -0.2525
  114MOL0     H14988   8.891  11.753   9.511  2.0065 -1.7215 -0.3855
  114MOL0     H14989   8.751  11.600   9.753  1.1272 -0.8595 -0.9933
  114MOL0     H14990   8.730  11.764   9.700 -1.8571 -1.1464 -0.1301
  114MOL0     H14991   8.887  11.692   9.899  0.1636  2.1402  0.2554
  114MOL0     H14992   9.002  11.649   9.763  0.0465 -1.3899  1.6859
  114MOL0     H14993   8.878  11.926   9.805  0.3846 -0.6272  2.0218
  114MOL0     H14994   8.993  11.871   9.680  2.6987 -2.7477  0.3693
  114MOL0     H14995   9.156  11.845   9.869  0.8367  2.1928 -0.4374
  114MOL0     H14996   9.024  11.856   9.983 -0.5421  0.7486 -0.0327
  114MOL0     H14997   9.113  12.081   9.798 -0.4422  2.0954 -0.6680
  114MOL0     H14998   8.981  12.098   9.925  0.0273 -1.9576  1.6712
  114MOL0     H14999   9.186  12.213   9.996 -0.8002  0.1273 -2.4965
  114MOL0     H15000   9.275  12.058   9.988 -1.7893 -2.5862 -0.7638
  114MOL0     H15001   9.162  11.860  10.187 -0.3246 -0.7216  0.2760
  114MOL0     H15002   9.111  11.802  10.410  0.3523  0.7655 -3.5439
  114MOL0     H15003   9.037  11.928  10.524 -0.3218  0.4884 -0.5315
  114MOL0     H15004   9.333  11.933  10.477  1.2583 -0.7114  0.8935
  114MOL0     H15005   9.286  11.785  10.552  2.0817  0.4605 -2.2935
  114MOL0     H15006   9.364  12.012  10.669  0.0384 -0.4366 -2.5960
  114MOL0     H15007   9.218  12.084  10.617  1.1864 -1.7413 -3.6321
  114MOL0     H15008   9.135  11.862  10.761  2.6558 -1.2472 -1.0757
  114MOL0     H15009   9.124  12.030  10.806  0.0914 -1.0984 -2.6951
  114MOL0     H15010   9.297  11.700  10.748 -3.0507  2.0441  1.6677
  114MOL0     H15011   9.436  11.524  10.786  1.0759 -1.1936  0.8210
  114MOL0     H15012   9.854  11.317  10.864  1.1288 -0.7342 -0.0527
  114MOL0     H15013   9.963  11.113  10.923 -0.4700  0.0244  0.2548
  114MOL0     H15014  10.063  10.922  11.020 -0.7765 -1.3056  2.4202
  114MOL0     H15015   9.985  10.908  10.866  2.8180 -0.4098  0.2501
  114MOL0     H15016   9.904  10.679  10.918  0.9734 -0.5246 -2.2726
  114MOL0     H15017   9.998  10.666  11.054 -2.1567 -1.1830 -0.8620
  114MOL0     H15018  10.090  10.690  10.758 -0.7612 -0.9091  0.3000
  114MOL0     H15019  10.149  10.582  10.883  2.1673  1.5497 -0.5097
  114MOL0     H15020  10.329  10.732  10.829  1.6310 -2.2573  3.3470
  114MOL0     H15021  10.237  10.868  10.858 -4.7284 -0.2016 -0.3714
  114MOL0     H15022  10.337  10.648  11.062  0.3190 -1.1518 -0.5939
  114MOL0     H15023  10.209  10.752  11.118 -0.8938 -4.3439 -1.5763
  114MOL0     H15024  10.386  10.946  11.046 -0.7326 -1.1101 -1.3163
  114MOL0     H15025  10.495  10.812  11.029  0.0623  0.0528 -0.0680
  114MOL0     H15026  10.354  10.854  11.287 -1.5809  3.2155 -1.2257
  114MOL0     H15027  10.510  10.764  11.263 -1.8685 -0.0821  0.3267
  114MOL0     H15028  10.629  10.974  11.181 -0.5481 -1.1154 -0.4589
  114MOL0     H15029  10.594  10.958  11.350 -0.7241 -0.2853 -0.3266
  114MOL0     H15030   9.601  10.954  11.068  2.8526 -0.5946  0.6582
  114MOL0     H15031   9.477  11.163  11.027  0.9572 -1.8210  1.3296
  114MOL0     H15032   9.677  11.760  11.057  0.1110  2.4236 -1.2552
  114MOL0     H15033   9.517  11.935  11.032  3.5503  2.8845 -2.6116
  114MOL0     H15034   9.087  11.330   9.486 -0.1135 -1.1669 -0.1005
  114MOL0     H15035   9.270  11.225   9.391 -3.5711  0.5969  3.3479
  114MOL0     H15036   9.616  11.231   9.090 -2.3474  1.7839 -2.1793
  114MOL0     H15037   9.811  11.096   9.010  1.9042 -1.4223 -4.7686
  114MOL0     H15038   9.737  10.835   8.652 -1.7618 -1.3406  0.4206
  114MOL0     H15039   9.773  10.698   8.761  0.0008  1.3138  1.9224
  114MOL0     H15040  10.008  10.823   8.776 -0.6424  0.9808  0.1792
  114MOL0     H15041   9.975  10.714   8.635 -0.3864 -1.2213  1.9004
  114MOL0     H15042   9.921  11.015   8.635  4.8812  0.1328  3.4544
  114MOL0     H15043   9.887  10.904   8.508  0.5873  1.8204 -2.1245
  114MOL0     H15044  10.141  10.871   8.480 -0.4844  1.8650 -0.2865
  114MOL0     H15045  10.070  11.024   8.451 -1.6145 -0.4393 -0.1414
  114MOL0     H15046  10.365  11.084   8.746  1.2703 -1.7485  2.5331
  114MOL0     H15047   9.535  10.834   8.794  3.3895 -0.1280 -1.0056
  114MOL0     H15048   9.356  10.941   8.924  0.9843 -1.2554 -3.1458
  115MOL0     O15049  10.045   1.831   9.437  0.3803 -0.8565  0.0945
  115MOL0     C15050   9.984   1.888   9.352  0.4040 -0.2374 -0.4350
  115MOL0     O15051  10.037   1.956   9.247 -0.0273  0.0610  0.0104
  115MOL0     C15052  10.171   1.999   9.252  0.9436  0.0453  0.0857
  115MOL0     C15053  10.249   2.024   9.375  0.3033 -0.1682  0.5843
  115MOL0     C15054  10.374   2.071   9.362  0.0520 -0.8847  0.5490
  115MOL0     C15055  10.435   2.095   9.232  0.8302 -0.4603  0.5497
  115MOL0     O15056  10.556   2.160   9.208  0.2259 -0.5653 -0.4817
  115MOL0     C15057  10.617   2.203   9.332  0.2175  0.9251 -0.5086
  115MOL0     C15058  10.734   2.298   9.308  0.0746 -0.2379 -0.5926
  115MOL0     C15059  10.867   2.222   9.341  0.3041  0.3005  0.2088
  115MOL0     C15060  10.978   2.321   9.339  1.0454 -0.1722 -0.5773
  115MOL0     C15061  11.099   2.269   9.418 -0.8546 -0.8223 -0.4530
  115MOL0     C15062  11.155   2.144   9.357 -0.5639 -0.3969  0.7598
  115MOL0     C15063  11.288   2.111   9.425  0.4347  0.3168 -0.5635
  115MOL0     C15064  11.334   1.978   9.368  0.5897 -0.6119 -0.9282
  115MOL0     N15065  11.436   1.904   9.444 -0.8376 -0.0780  0.0621
  115MOL0     C15066  11.531   1.947   9.539  0.9149 -0.2536 -0.2159
  115MOL0     C15067  11.579   1.843   9.597 -0.0517  0.5039 -0.8979
  115MOL0     C15068  11.691   1.828   9.696 -0.4560 -0.7489 -0.1148
  115MOL0     C15069  11.829   1.800   9.625 -0.4229  0.4794 -0.2452
  115MOL0     C15070  11.895   1.687   9.707  0.2108  0.0379  0.4281
  115MOL0     C15071  12.047   1.680   9.691  1.3348 -0.2513  0.2898
  115MOL0     O15072  12.100   1.553   9.738  0.4280  0.5944 -0.1300
  115MOL0     C15073  12.235   1.528   9.718  0.5959  0.5683  0.4236
  115MOL0     C15074  12.325   1.623   9.692  0.0186 -0.0212  1.1629
  115MOL0     C15075  12.461   1.587   9.694 -0.2599  0.2471 -0.3473
  115MOL0     C15076  12.509   1.464   9.740  0.4078  0.8162  0.4204
  115MOL0     C15077  12.652   1.422   9.754 -1.1435  0.3470 -0.8356
  115MOL0     O15078  12.686   1.289   9.742 -0.4803  0.3076  0.2468
  115MOL0     C15079  12.802   1.226   9.794  1.2447 -0.5639  0.2409
  115MOL0     C15080  12.854   1.272   9.914 -1.3876  0.2232  1.0992
  115MOL0     C15081  12.969   1.202   9.964 -0.6821 -0.0010  0.8820
  115MOL0     C15082  13.027   1.092   9.907 -0.0610  0.7020  0.3704
  115MOL0     O15083  13.134   1.020   9.952  0.2572  0.2035 -0.2358
  115MOL0     C15084  13.253   1.086  10.005 -0.0800 -0.2074 -0.0712
  115MOL0     C15085  13.250   1.098  10.159  0.9435  0.6318  0.0442
  115MOL0     C15086  13.276   0.971  10.236 -0.4200 -0.5963 -0.2768
  115MOL0     C15087  13.328   1.010  10.376 -0.0501  0.2861  0.4003
  115MOL0     C15088  13.360   0.891  10.459 -0.4665  0.0836  0.3331
  115MOL0     C15089  13.414   0.924  10.599  0.4451  0.4590 -0.3959
  115MOL0     C15090  13.325   1.026  10.669  0.4987 -0.4596 -0.1295
  115MOL0     C15091  13.351   1.024  10.817  1.2433 -0.4027 -0.3960
  115MOL0    Cl15092  13.228   1.129  10.904 -0.6576 -0.2264 -0.1471
  115MOL0     C15093  12.962   1.054   9.779 -0.0723  0.2704 -0.2094
  115MOL0     C15094  12.850   1.111   9.730 -0.3535 -0.3475 -0.1121
  115MOL0     O15095  12.736   1.514   9.769  1.0928 -0.0209 -0.9184
  115MOL0     C15096  12.410   1.368   9.770 -0.1078  0.6267 -0.4258
  115MOL0     C15097  12.278   1.402   9.764  0.2588  0.4431 -0.0505
  115MOL0     N15098  11.524   1.731   9.522  0.1379 -0.1964  0.3070
  115MOL0     N15099  11.446   1.772   9.431  0.3894 -0.3198  0.4978
  115MOL0     C15100  10.357   2.085   9.119  0.6429  1.1630  0.2233
  115MOL0     C15101  10.220   2.027   9.122 -0.1966 -0.9032  0.4537
  115MOL0     C15102   9.835   1.898   9.360  0.7362 -0.2034  0.2800
  115MOL0     C15103   9.773   2.010   9.301 -0.3823 -1.3445  0.9321
  115MOL0     C15104   9.635   2.038   9.305 -0.8779  0.7104  0.1440
  115MOL0     C15105   9.553   1.954   9.380 -1.0966 -0.3723 -0.4277
  115MOL0     O15106   9.414   1.962   9.386 -0.2533 -0.1939  0.4449
  115MOL0     C15107   9.355   2.091   9.384 -0.0797  0.5079  0.6815
  115MOL0     C15108   9.357   2.143   9.527  0.2247 -0.2308 -1.2773
  115MOL0     C15109   9.295   2.058   9.640  0.6573  0.1899  0.8964
  115MOL0     C15110   9.382   2.095   9.768 -0.0179  0.0820 -0.2679
  115MOL0     C15111   9.323   2.209   9.835  0.3975 -0.5547 -0.4471
  115MOL0     C15112   9.269   2.309   9.888  0.1335  0.2380  0.0952
  115MOL0     C15113   9.607   1.831   9.429  0.2440 -0.4468 -0.5112
  115MOL0     C15114   9.753   1.808   9.426  1.4001  0.3767  0.5115
  115MOL0     H15115  10.204   2.024   9.474  2.2171  2.7810  1.5748
  115MOL0     H15116  10.423   2.118   9.446  1.7711  0.6930 -1.2303
  115MOL0     H15117  10.639   2.114   9.392  1.4896 -0.1995 -2.4966
  115MOL0     H15118  10.545   2.267   9.384  2.4021  2.8940  0.2523
  115MOL0     H15119  10.744   2.374   9.386  4.8883 -1.7828  0.6773
  115MOL0     H15120  10.737   2.341   9.208  0.9253  1.9668  0.3105
  115MOL0     H15121  10.888   2.143   9.268 -0.0077  0.5493 -0.1522
  115MOL0     H15122  10.863   2.173   9.439  0.5273  1.6924  0.9313
  115MOL0     H15123  10.992   2.339   9.232 -2.5391 -0.2077 -1.1540
  115MOL0     H15124  10.948   2.417   9.382 -1.0476 -1.2039  0.3795
  115MOL0     H15125  11.064   2.254   9.521 -1.2408  2.7158  0.0853
  115MOL0     H15126  11.172   2.350   9.430 -1.9471  0.2390 -0.6935
  115MOL0     H15127  11.173   2.165   9.251  2.8933  0.6670  1.4404
  115MOL0     H15128  11.102   2.048   9.359  0.5711 -1.1052 -1.0465
  115MOL0     H15129  11.365   2.185   9.400  0.1851  1.5060  1.9856
  115MOL0     H15130  11.271   2.115   9.532 -2.1208 -2.3096 -0.7671
  115MOL0     H15131  11.375   1.990   9.267 -0.3516  1.0666 -1.1461
  115MOL0     H15132  11.254   1.904   9.361  0.4655 -0.5969  0.2307
  115MOL0     H15133  11.551   2.046   9.579 -1.1410  1.1773 -2.3930
  115MOL0     H15134  11.665   1.754   9.772  1.6717  1.8192  3.4176
  115MOL0     H15135  11.713   1.914   9.760  0.5001 -0.5588 -0.6845
  115MOL0     H15136  11.891   1.891   9.622  0.7165 -0.2523  0.3104
  115MOL0     H15137  11.807   1.774   9.521 -0.5670 -1.6775  0.2745
  115MOL0     H15138  11.875   1.702   9.814  0.3306  1.8671  0.2398
  115MOL0     H15139  11.844   1.594   9.681  0.7029 -0.3447  0.8208
  115MOL0     H15140  12.082   1.771   9.740 -2.7674  0.4929  2.2135
  115MOL0     H15141  12.054   1.677   9.582 -0.2579 -3.5643  0.1421
  115MOL0     H15142  12.313   1.729   9.676  3.1088  0.1139 -1.1720
  115MOL0     H15143  12.535   1.662   9.666  0.6406 -0.3080  0.5059
  115MOL0     H15144  12.814   1.360   9.963  2.8795  2.0069  1.8191
  115MOL0     H15145  12.997   1.242  10.061  0.1303  1.8866 -0.0850
  115MOL0     H15146  13.251   1.186   9.961 -2.4369 -0.4828 -0.7190
  115MOL0     H15147  13.340   1.028   9.975  1.9861  0.6579  3.6716
  115MOL0     H15148  13.148   1.132  10.175 -0.0700 -1.8135 -0.7093
  115MOL0     H15149  13.327   1.164  10.201  2.3569 -1.2901  0.6204
  115MOL0     H15150  13.359   0.919  10.188  1.3949  3.6708 -2.3266
  115MOL0     H15151  13.193   0.900  10.239 -0.7740 -0.2055 -0.6314
  115MOL0     H15152  13.420   1.068  10.384  1.3929 -1.8786  0.0970
  115MOL0     H15153  13.245   1.067  10.420  1.0507 -0.5926  3.9879
  115MOL0     H15154  13.447   0.836  10.422  0.7074  1.1430  1.3927
  115MOL0     H15155  13.273   0.826  10.456  0.5254 -1.3434  1.2820
  115MOL0     H15156  13.515   0.964  10.583 -0.0519  1.3814 -1.3867
  115MOL0     H15157  13.419   0.827  10.650  0.4962  1.0473  0.7318
  115MOL0     H15158  13.340   1.125  10.623  4.7346 -1.0321 -0.4126
  115MOL0     H15159  13.223   0.991  10.652  0.8298 -1.3417 -0.3194
  115MOL0     H15160  13.448   1.070  10.837  0.8922 -0.4660  1.6045
  115MOL0     H15161  13.357   0.932  10.875  3.4496  0.2494  0.4884
  115MOL0     H15162  13.010   0.968   9.733 -0.6816 -0.2990  0.2046
  115MOL0     H15163  12.806   1.076   9.637  0.4143 -0.9990 -0.2414
  115MOL0     H15164  12.436   1.271   9.810  2.8210  1.3534 -0.3898
  115MOL0     H15165  12.205   1.332   9.804  2.1267 -0.8903  1.2331
  115MOL0     H15166  10.398   2.111   9.022  0.6804 -0.1722 -0.1420
  115MOL0     H15167  10.154   2.019   9.036  0.8086  3.8655 -1.0369
  115MOL0     H15168   9.824   2.082   9.237 -2.8949  0.6158  0.9789
  115MOL0     H15169   9.604   2.123   9.244  0.8794 -0.0221 -1.9183
  115MOL0     H15170   9.251   2.065   9.365  0.5094 -0.1311 -2.1005
  115MOL0     H15171   9.370   2.162   9.302 -3.0942 -0.5415 -0.9184
  115MOL0     H15172   9.464   2.159   9.543  0.0151  2.0569 -1.8675
  115MOL0     H15173   9.307   2.240   9.528  3.4296  1.5820  0.1651
  115MOL0     H15174   9.298   1.949   9.632  0.4770  0.3094 -1.4281
  115MOL0     H15175   9.194   2.096   9.657  1.4108  3.4475 -0.9856
  115MOL0     H15176   9.384   2.016   9.844 -3.5848  1.3718  1.4159
  115MOL0     H15177   9.486   2.109   9.740  0.5517 -0.9005  1.2260
  115MOL0     H15178   9.221   2.379   9.954 -2.6586 -3.2787  2.1618
  115MOL0     H15179   9.553   1.745   9.468  1.6726 -1.8028 -1.3949
  115MOL0     H15180   9.803   1.718   9.459  1.3547 -1.7350 -4.3630
  116MOL0     O15181   2.124   6.266   9.010 -0.0432  0.4275  0.1426
  116MOL0     C15182   2.210   6.232   9.093  0.1208 -0.1894 -0.3671
  116MOL0     O15183   2.341   6.273   9.100  0.3180 -0.5249  0.3606
  116MOL0     C15184   2.388   6.338   8.988  1.0849  0.4369 -0.8702
  116MOL0     C15185   2.335   6.455   8.946 -1.0976 -0.2082 -0.0834
  116MOL0     C15186   2.387   6.523   8.826  0.0925 -0.1937  0.1877
  116MOL0     C15187   2.495   6.465   8.757  0.1435 -0.5278 -0.2426
  116MOL0     O15188   2.557   6.524   8.647  0.3742  0.6295 -0.3561
  116MOL0     C15189   2.478   6.574   8.542 -0.2474 -0.6695 -0.2531
  116MOL0     C15190   2.478   6.724   8.555 -0.6198 -1.2200  0.0810
  116MOL0     C15191   2.611   6.792   8.544 -0.5505  0.2209 -0.6908
  116MOL0     C15192   2.606   6.948   8.569  0.4958  0.3271  0.3803
  116MOL0     C15193   2.574   7.017   8.437  0.0363  0.2417 -0.8433
  116MOL0     C15194   2.556   7.166   8.464 -0.4147 -0.1406 -0.1392
  116MOL0     C15195   2.549   7.237   8.331  0.1424 -0.1126  0.3174
  116MOL0     C15196   2.688   7.296   8.310  0.9689 -0.6797  0.2453
  116MOL0     N15197   2.682   7.422   8.368 -1.2191  0.1060 -0.5770
  116MOL0     C15198   2.654   7.544   8.306  0.2497  1.1040 -0.1159
  116MOL0     C15199   2.630   7.627   8.408 -0.0315  0.0103  0.0486
  116MOL0     C15200   2.606   7.773   8.391 -0.2860 -0.3840  0.0732
  116MOL0     C15201   2.515   7.836   8.498  0.6368 -0.8089  0.3809
  116MOL0     C15202   2.462   7.971   8.448  0.9751 -0.6629  0.3506
  116MOL0     C15203   2.356   7.963   8.329 -0.4425 -0.0324 -0.8108
  116MOL0     O15204   2.292   8.094   8.314  0.7996  0.3071 -0.1199
  116MOL0     C15205   2.158   8.101   8.314 -0.1707  0.3448  0.9745
  116MOL0     C15206   2.104   8.223   8.327  1.8830 -0.2739 -0.4092
  116MOL0     C15207   1.965   8.253   8.316 -0.0264  0.2691  0.5305
  116MOL0     C15208   1.875   8.143   8.285 -0.4441 -0.2989  0.1658
  116MOL0     C15209   1.730   8.170   8.283 -0.3977 -1.4921  1.1300
  116MOL0     O15210   1.656   8.063   8.315 -1.3065  0.2477  0.7171
  116MOL0     C15211   1.525   8.081   8.355 -0.3724  0.7410  0.2530
  116MOL0     C15212   1.497   8.164   8.459  0.1510 -0.8341  0.4823
  116MOL0     C15213   1.370   8.173   8.514  0.2749  0.0852 -0.2317
  116MOL0     C15214   1.260   8.108   8.458 -0.4114 -0.4796 -0.0437
  116MOL0     O15215   1.135   8.103   8.514 -0.3069  0.2708 -0.0474
  116MOL0     C15216   1.116   8.075   8.654 -0.3240 -0.2091 -0.6150
  116MOL0     C15217   0.966   8.098   8.680  0.1462  1.1597 -0.2660
  116MOL0     C15218   0.917   8.064   8.829 -1.2790 -0.4719 -0.1982
  116MOL0     C15219   0.781   8.108   8.867  0.3850 -0.3098 -0.6872
  116MOL0     C15220   0.760   8.141   9.033  0.6718 -0.2378  0.9319
  116MOL0     C15221   0.776   8.012   9.115 -1.1867 -0.0111 -0.3025
  116MOL0     C15222   0.740   8.018   9.258  1.2623 -0.0719 -0.5638
  116MOL0     C15223   0.762   7.893   9.326  0.7877 -0.1749  0.2563
  116MOL0    Cl15224   0.634   7.771   9.286  0.1130  0.0229 -0.3296
  116MOL0     C15225   1.293   8.032   8.336 -0.5205 -0.1209 -0.2263
  116MOL0     C15226   1.422   8.013   8.294  0.7280 -0.7365  0.7331
  116MOL0     O15227   1.689   8.268   8.226 -0.6565 -0.0436 -0.5392
  116MOL0     C15228   1.924   8.013   8.272  0.1882 -0.2406  0.3900
  116MOL0     C15229   2.071   7.994   8.283  1.9171 -0.6809  0.1220
  116MOL0     N15230   2.648   7.565   8.529 -0.0892  0.0499 -0.7346
  116MOL0     N15231   2.685   7.440   8.504  0.3931  0.2619 -0.4264
  116MOL0     C15232   2.542   6.339   8.804  0.8882  0.0049  0.1356
  116MOL0     C15233   2.485   6.274   8.916 -0.0726  0.8574  0.5173
  116MOL0     C15234   2.165   6.126   9.177  0.8083  0.2099 -0.1958
  116MOL0     C15235   2.068   6.026   9.134  0.4026  0.4770 -0.4515
  116MOL0     C15236   2.048   5.923   9.222 -0.1681  0.0883 -0.7915
  116MOL0     C15237   2.118   5.913   9.349  0.2414  0.3717 -0.3967
  116MOL0     O15238   2.103   5.810   9.436 -0.3353 -0.5354  0.1678
  116MOL0     C15239   1.969   5.778   9.467 -0.0581 -0.3005 -0.2198
  116MOL0     C15240   1.974   5.713   9.605  0.0808 -0.4734 -0.6298
  116MOL0     C15241   1.829   5.660   9.661 -0.0941 -0.2120  0.1818
  116MOL0     C15242   1.848   5.586   9.794 -0.5454  0.0590 -0.4409
  116MOL0     C15243   1.885   5.692   9.881 -0.3137  0.4177  0.9509
  116MOL0     C15244   1.907   5.787   9.956  0.0196 -1.1210  0.9157
  116MOL0     C15245   2.205   6.014   9.388  0.7272 -0.2511  0.4417
  116MOL0     C15246   2.223   6.124   9.296 -0.0896  0.2680 -0.0306
  116MOL0     H15247   2.258   6.498   9.009 -3.1225 -1.3450 -1.6690
  116MOL0     H15248   2.361   6.626   8.805 -1.5478  0.3093  3.7921
  116MOL0     H15249   2.376   6.535   8.541 -0.7593  0.5856  0.5205
  116MOL0     H15250   2.515   6.537   8.446 -2.2612 -2.4030 -0.4489
  116MOL0     H15251   2.415   6.761   8.636 -0.7277  1.2523 -1.0201
  116MOL0     H15252   2.412   6.761   8.476 -0.7804  0.9661  1.1479
  116MOL0     H15253   2.660   6.769   8.449 -3.4339 -1.1544 -1.9861
  116MOL0     H15254   2.677   6.760   8.625  0.1418 -0.0593 -1.3552
  116MOL0     H15255   2.523   6.954   8.640 -1.6010  3.0446 -2.0694
  116MOL0     H15256   2.696   6.984   8.619  0.9787 -2.0955  1.4434
  116MOL0     H15257   2.487   6.975   8.385  1.4211 -2.6545 -0.9977
  116MOL0     H15258   2.663   6.993   8.378 -1.2908 -4.7702 -1.2797
  116MOL0     H15259   2.646   7.194   8.520  1.8797 -0.4087 -3.4330
  116MOL0     H15260   2.462   7.186   8.515  0.2381 -0.9514  1.4702
  116MOL0     H15261   2.525   7.162   8.255  1.3231  0.2173 -0.4248
  116MOL0     H15262   2.470   7.312   8.326  1.7216  1.5415 -1.7339
  116MOL0     H15263   2.705   7.314   8.204  1.8793  0.8911  0.6281
  116MOL0     H15264   2.779   7.241   8.339  0.8938 -0.5378  0.7694
  116MOL0     H15265   2.663   7.583   8.205 -1.2743 -0.4349 -0.9210
  116MOL0     H15266   2.588   7.796   8.286  3.5795 -0.6833 -0.8030
  116MOL0     H15267   2.701   7.824   8.404  0.5155 -1.4148 -1.4596
  116MOL0     H15268   2.572   7.860   8.588 -2.2415 -1.9887  2.6656
  116MOL0     H15269   2.435   7.768   8.529  1.1410 -1.1642  0.9233
  116MOL0     H15270   2.420   8.028   8.530  2.1533 -0.2852  0.7061
  116MOL0     H15271   2.546   8.036   8.423 -0.3771  0.3415 -1.9219
  116MOL0     H15272   2.279   7.890   8.354 -1.9637  2.6714  3.6552
  116MOL0     H15273   2.411   7.930   8.240 -3.9476 -1.6123 -2.5670
  116MOL0     H15274   2.170   8.300   8.366  1.2624  0.5503 -0.9584
  116MOL0     H15275   1.936   8.356   8.333  3.3546  1.4101  0.0151
  116MOL0     H15276   1.586   8.219   8.490 -0.7026 -1.1743  4.0893
  116MOL0     H15277   1.364   8.229   8.607  2.8510  1.9753 -1.0861
  116MOL0     H15278   1.174   8.130   8.729  1.3621 -0.9996 -1.2702
  116MOL0     H15279   1.153   7.975   8.679 -3.9774 -1.8652 -1.2690
  116MOL0     H15280   0.905   8.038   8.612  0.3202 -2.1273  2.2127
  116MOL0     H15281   0.937   8.201   8.660 -1.9611  0.4115 -1.3659
  116MOL0     H15282   0.986   8.116   8.897 -1.4300  1.0485 -1.1440
  116MOL0     H15283   0.922   7.957   8.850  0.3179 -0.5717 -0.9740
  116MOL0     H15284   0.747   8.198   8.815 -3.3597 -1.5574 -0.7178
  116MOL0     H15285   0.699   8.044   8.832  0.9889 -1.6541  0.2675
  116MOL0     H15286   0.661   8.183   9.052 -0.1026 -0.1803 -2.5534
  116MOL0     H15287   0.831   8.222   9.052  0.3549  1.0478 -2.6083
  116MOL0     H15288   0.881   7.988   9.098 -1.7900 -1.4548 -2.4000
  116MOL0     H15289   0.698   7.945   9.079 -1.8757 -0.1551  1.3722
  116MOL0     H15290   0.802   8.094   9.306 -0.9971  1.0582  0.7122
  116MOL0     H15291   0.634   8.045   9.264  0.8013 -1.8280 -0.2569
  116MOL0     H15292   0.772   7.906   9.434  0.8565  4.0994 -0.0851
  116MOL0     H15293   0.867   7.871   9.305  1.4094  1.5810  1.2459
  116MOL0     H15294   1.219   7.965   8.292  2.7094 -3.1166 -1.6070
  116MOL0     H15295   1.441   7.951   8.207 -2.5107  0.5980 -1.1278
  116MOL0     H15296   1.852   7.931   8.264 -3.5811  2.7280  0.7950
  116MOL0     H15297   2.105   7.893   8.266  0.2032 -1.0370 -1.5040
  116MOL0     H15298   2.626   6.285   8.759 -0.4469 -1.6291 -0.5277
  116MOL0     H15299   2.526   6.180   8.952  0.6549  0.4653 -1.2392
  116MOL0     H15300   2.025   6.012   9.035  3.3131 -2.7100 -1.4753
  116MOL0     H15301   1.969   5.851   9.198 -0.6593  0.0269  0.8578
  116MOL0     H15302   1.934   5.712   9.388  3.5023 -0.2869 -1.9917
  116MOL0     H15303   1.900   5.863   9.466  1.4785  1.0098 -0.1487
  116MOL0     H15304   2.042   5.627   9.604  1.3082  0.2739  2.9809
  116MOL0     H15305   2.003   5.788   9.679  1.0179 -1.3510 -0.0734
  116MOL0     H15306   1.785   5.600   9.580 -3.2953  1.0594  0.8409
  116MOL0     H15307   1.767   5.750   9.669  2.1980  1.4704 -0.0322
  116MOL0     H15308   1.758   5.530   9.820  1.6917 -3.7652 -0.0788
  116MOL0     H15309   1.930   5.514   9.801 -0.3780  0.3572  0.7888
  116MOL0     H15310   1.932   5.871  10.018 -1.8569 -1.8320  2.7229
  116MOL0     H15311   2.246   6.023   9.488 -0.2823 -0.0772  0.8500
  116MOL0     H15312   2.277   6.203   9.348 -1.1842  2.1124 -1.5465
  117MOL0     O15313   3.831   9.576   8.095  0.7314 -0.2506  0.3374
  117MOL0     C15314   3.943   9.577   8.053 -0.8786 -0.2978  0.5880
  117MOL0     O15315   3.971   9.543   7.927 -0.0063  0.3572  0.4597
  117MOL0     C15316   3.904   9.442   7.863 -0.0004 -0.0468 -0.9677
  117MOL0     C15317   3.913   9.437   7.718  0.2029  0.0181 -0.1221
  117MOL0     C15318   3.851   9.336   7.651 -0.1712  0.5607 -0.2975
  117MOL0     C15319   3.773   9.240   7.724  0.9099 -0.1588 -0.6343
  117MOL0     O15320   3.708   9.150   7.647 -0.3559 -0.2809 -0.5587
  117MOL0     C15321   3.753   9.015   7.655 -0.4183 -0.3550 -0.3147
  117MOL0     C15322   3.647   8.911   7.611  0.0068 -1.2056  0.5767
  117MOL0     C15323   3.546   8.886   7.719 -0.9774  0.0287  0.0271
  117MOL0     C15324   3.457   8.756   7.679 -1.3702 -0.0142 -0.1144
  117MOL0     C15325   3.514   8.622   7.719  0.3717  1.3067  0.3533
  117MOL0     C15326   3.425   8.507   7.729  0.2160  0.8480  0.8863
  117MOL0     C15327   3.325   8.485   7.613 -0.7149 -0.0268  0.3898
  117MOL0     C15328   3.220   8.378   7.652 -0.2301  0.1532 -0.8760
  117MOL0     N15329   3.283   8.248   7.637 -0.2161  0.2797 -0.2467
  117MOL0     C15330   3.300   8.186   7.516  0.6594  0.6369  0.1209
  117MOL0     C15331   3.356   8.066   7.550 -0.4219 -0.0398  0.6632
  117MOL0     C15332   3.401   7.968   7.452 -0.3347  0.5847  0.3481
  117MOL0     C15333   3.332   7.831   7.466  0.4780 -0.8314 -0.7465
  117MOL0     C15334   3.394   7.735   7.575  0.3678 -0.1328 -0.0132
  117MOL0     C15335   3.322   7.608   7.574 -0.6741  1.5223  0.7179
  117MOL0     O15336   3.197   7.608   7.638 -0.0614 -0.1930 -0.3536
  117MOL0     C15337   3.159   7.501   7.722  0.4430 -0.4556  0.7727
  117MOL0     C15338   3.025   7.508   7.764 -0.5421 -1.4613 -0.0713
  117MOL0     C15339   2.976   7.414   7.849  0.3826 -0.3096  0.7556
  117MOL0     C15340   3.047   7.306   7.902 -0.7751 -0.3796  0.9087
  117MOL0     C15341   2.990   7.214   8.004 -1.1117  1.1653  0.1808
  117MOL0     O15342   3.081   7.145   8.087  0.2869  0.3181  0.0319
  117MOL0     C15343   3.053   7.038   8.166  0.0679 -0.3347 -0.1541
  117MOL0     C15344   3.125   7.024   8.276 -0.1629  0.1074  0.5971
  117MOL0     C15345   3.090   6.919   8.366  0.5165 -0.4939 -0.5910
  117MOL0     C15346   2.987   6.831   8.341 -0.2829 -0.5212 -0.4163
  117MOL0     O15347   2.946   6.741   8.438  0.1435  0.7548  0.5938
  117MOL0     C15348   2.935   6.605   8.394  0.1179  0.4051 -0.4110
  117MOL0     C15349   2.985   6.525   8.521 -0.8401 -0.0731  0.2953
  117MOL0     C15350   2.900   6.542   8.652  0.3083  0.6745  0.6379
  117MOL0     C15351   2.920   6.456   8.772  0.6830 -0.5712  0.9204
  117MOL0     C15352   2.857   6.523   8.890  0.3563 -0.3927  0.0037
  117MOL0     C15353   2.891   6.451   9.022  0.3919  0.5119  0.1908
  117MOL0     C15354   2.824   6.527   9.139 -0.2338 -0.3150  0.4490
  117MOL0     C15355   2.780   6.429   9.250 -0.1487 -1.4654  0.8226
  117MOL0    Cl15356   2.909   6.323   9.304  0.0149 -0.8458 -0.3266
  117MOL0     C15357   2.919   6.843   8.220 -0.3089  0.7525  0.0098
  117MOL0     C15358   2.956   6.941   8.125  0.1080  0.9567 -0.5053
  117MOL0     O15359   2.869   7.191   8.009 -0.2619  0.3722  0.4659
  117MOL0     C15360   3.186   7.304   7.874 -0.3790 -0.4494  0.6407
  117MOL0     C15361   3.242   7.405   7.783  0.9693  0.2069 -1.6628
  117MOL0     N15362   3.368   8.062   7.689  0.0399  0.5341 -0.4486
  117MOL0     N15363   3.318   8.165   7.737  0.2976 -0.2724 -0.0430
  117MOL0     C15364   3.756   9.254   7.860 -0.8058  0.3387 -0.0095
  117MOL0     C15365   3.823   9.352   7.928  0.1281 -0.3961 -1.0738
  117MOL0     C15366   4.057   9.614   8.134  0.4408 -0.1241  0.0242
  117MOL0     C15367   4.034   9.722   8.228  0.1055  0.5303  0.4055
  117MOL0     C15368   4.137   9.765   8.309 -0.6694  0.6436  0.5294
  117MOL0     C15369   4.264   9.704   8.297  0.0065  1.1815 -0.1904
  117MOL0     O15370   4.369   9.751   8.358 -0.2205 -0.1195  0.1552
  117MOL0     C15371   4.363   9.740   8.502 -0.5503  0.2766 -1.0151
  117MOL0     C15372   4.507   9.757   8.573  0.1489 -0.4492  0.6703
  117MOL0     C15373   4.560   9.612   8.588  0.7111  0.0811 -0.2221
  117MOL0     C15374   4.689   9.611   8.674 -0.5055 -0.2211  1.5574
  117MOL0     C15375   4.804   9.598   8.590 -0.4867 -0.2445  0.3367
  117MOL0     C15376   4.893   9.571   8.519  0.2939 -0.5502  0.1028
  117MOL0     C15377   4.286   9.605   8.202 -0.0964 -0.1654  0.0479
  117MOL0     C15378   4.187   9.555   8.114  0.1616 -1.1532 -0.7826
  117MOL0     H15379   3.953   9.523   7.667 -0.9259  0.4807 -0.2551
  117MOL0     H15380   3.863   9.333   7.543  2.4998 -1.5142 -0.0488
  117MOL0     H15381   3.776   9.001   7.761 -0.4715 -3.3318 -0.6135
  117MOL0     H15382   3.838   9.008   7.587  0.8155  2.4384  0.7946
  117MOL0     H15383   3.711   8.823   7.597 -0.5984 -1.6014  0.2509
  117MOL0     H15384   3.577   8.929   7.528 -1.6492  0.1577  2.1846
  117MOL0     H15385   3.489   8.974   7.749 -0.5153 -0.8160  3.9545
  117MOL0     H15386   3.609   8.869   7.807  2.4898  1.5222 -1.9842
  117MOL0     H15387   3.361   8.765   7.730  0.4930  1.3897  3.5046
  117MOL0     H15388   3.435   8.766   7.572 -1.4355 -0.0809 -0.1076
  117MOL0     H15389   3.562   8.622   7.818  0.3513  1.7176  0.3659
  117MOL0     H15390   3.583   8.595   7.638 -2.7224  0.7315 -2.2732
  117MOL0     H15391   3.365   8.506   7.820 -1.9969 -1.9592 -0.4461
  117MOL0     H15392   3.496   8.427   7.752  1.7040  2.5924  2.7117
  117MOL0     H15393   3.273   8.579   7.590 -1.7023 -0.0436  2.3233
  117MOL0     H15394   3.381   8.451   7.526  0.3626  0.2321  0.9657
  117MOL0     H15395   3.130   8.395   7.593 -0.0464  0.9035 -0.9487
  117MOL0     H15396   3.197   8.389   7.759  1.1622 -1.9855 -0.2829
  117MOL0     H15397   3.276   8.232   7.421 -0.1513  0.5313  0.2684
  117MOL0     H15398   3.509   7.953   7.464 -0.5792 -1.2204  0.4820
  117MOL0     H15399   3.364   8.010   7.358 -1.6340 -2.2065 -0.4783
  117MOL0     H15400   3.326   7.784   7.368 -2.0184 -0.7525 -0.6922
  117MOL0     H15401   3.227   7.841   7.495  1.3290  0.1970  2.4270
  117MOL0     H15402   3.501   7.717   7.559  0.1109 -1.0280 -0.8661
  117MOL0     H15403   3.387   7.778   7.675  1.9234 -0.8846  0.4588
  117MOL0     H15404   3.389   7.535   7.618 -1.5129 -0.4319 -1.0779
  117MOL0     H15405   3.301   7.573   7.472 -1.6797 -1.0428  1.7385
  117MOL0     H15406   2.965   7.597   7.745 -1.9195 -2.3071  0.2445
  117MOL0     H15407   2.871   7.419   7.878  0.1598  0.1194 -0.0976
  117MOL0     H15408   3.203   7.097   8.296  1.0162 -1.0284  0.2947
  117MOL0     H15409   3.152   6.922   8.456  2.1023 -1.0996 -1.6182
  117MOL0     H15410   2.994   6.579   8.305 -4.4689 -0.8722 -3.4587
  117MOL0     H15411   2.831   6.592   8.362  0.1672  1.1936 -0.9182
  117MOL0     H15412   3.088   6.554   8.547 -0.6524  1.3441 -1.7780
  117MOL0     H15413   2.981   6.421   8.491  1.5886  0.0521 -0.7058
  117MOL0     H15414   2.793   6.521   8.640  0.2262  0.8205  1.1132
  117MOL0     H15415   2.905   6.647   8.681 -0.1295  0.7246  0.5443
  117MOL0     H15416   2.897   6.351   8.754  2.6910 -0.6145 -2.3448
  117MOL0     H15417   3.029   6.455   8.784  0.5037 -0.5156  2.7225
  117MOL0     H15418   2.752   6.541   8.867 -0.0672 -0.9311  1.3715
  117MOL0     H15419   2.900   6.622   8.906  3.3171 -1.7071  0.9697
  117MOL0     H15420   2.998   6.443   9.044  0.8480  2.9958 -0.7198
  117MOL0     H15421   2.865   6.346   9.013  3.6454 -0.1985 -4.8970
  117MOL0     H15422   2.893   6.600   9.181 -2.1782  1.9833 -0.1031
  117MOL0     H15423   2.735   6.583   9.107 -0.8006 -1.5474 -0.2159
  117MOL0     H15424   2.706   6.362   9.205  4.1901 -3.4938 -4.4436
  117MOL0     H15425   2.747   6.493   9.332  2.5085 -0.7513  1.4165
  117MOL0     H15426   2.845   6.766   8.201  1.5902 -1.2861  0.4948
  117MOL0     H15427   2.905   6.948   8.029  1.9258  1.3219 -1.4970
  117MOL0     H15428   3.257   7.238   7.923  0.8285 -0.5985 -1.1983
  117MOL0     H15429   3.350   7.410   7.776  1.0135 -1.7248 -3.0722
  117MOL0     H15430   3.689   9.184   7.909  0.4119 -0.5343  0.4606
  117MOL0     H15431   3.791   9.362   8.031  0.5947  1.3275 -1.0713
  117MOL0     H15432   3.933   9.763   8.230  0.4556  1.4807  2.9463
  117MOL0     H15433   4.126   9.846   8.381 -1.1552  0.0514  1.1354
  117MOL0     H15434   4.317   9.648   8.538 -0.8497  2.1670  4.2780
  117MOL0     H15435   4.308   9.827   8.541  1.7343 -0.1027  3.8100
  117MOL0     H15436   4.577   9.816   8.515  0.1231 -1.1194 -0.0583
  117MOL0     H15437   4.478   9.803   8.668 -3.2698 -2.2761  0.6805
  117MOL0     H15438   4.602   9.574   8.495  1.2921  0.4531 -0.1160
  117MOL0     H15439   4.488   9.540   8.628 -0.0405 -0.7985 -2.9401
  117MOL0     H15440   4.696   9.697   8.741 -0.2864  2.7609 -2.0274
  117MOL0     H15441   4.681   9.524   8.741 -1.0860  0.1159  1.9402
  117MOL0     H15442   4.986   9.562   8.466  0.8470  1.3264  0.6695
  117MOL0     H15443   4.388   9.588   8.169 -1.2499  0.6340 -4.6260
  117MOL0     H15444   4.196   9.483   8.033  0.6960 -1.9853 -0.0018
  118MOL0     O15445  10.989   0.649  10.776  0.6958  0.0302 -0.6074
  118MOL0     C15446  10.899   0.695  10.852  0.4860 -0.0641  0.4283
  118MOL0     O15447  10.874   0.644  10.979 -0.1363  0.0265 -0.7478
  118MOL0     C15448  10.981   0.584  11.046 -0.3259  0.9010  0.0787
  118MOL0     C15449  11.084   0.668  11.103  0.3459  0.2787 -0.0193
  118MOL0     C15450  11.196   0.610  11.158 -0.5808 -0.1237  0.3010
  118MOL0     C15451  11.214   0.468  11.159  1.2474  0.4410 -0.4960
  118MOL0     O15452  11.311   0.400  11.226 -0.4808  0.0432 -0.5045
  118MOL0     C15453  11.281   0.326  11.347 -0.5924  0.4601 -0.0179
  118MOL0     C15454  11.323   0.181  11.330  0.2573 -0.5779  0.5881
  118MOL0     C15455  11.205   0.078  11.334  0.2133  0.9807 -0.4089
  118MOL0     C15456  11.249  -0.057  11.405  0.0529 -0.7200 -0.3707
  118MOL0     C15457  11.143  -0.163  11.419 -0.9729  0.8455  0.3365
  118MOL0     C15458  11.192  -0.312  11.448 -0.0390  0.7711  0.4125
  118MOL0     C15459  11.093  -0.419  11.458 -0.6590 -0.1010 -0.3989
  118MOL0     C15460  10.986  -0.426  11.348 -0.0027  0.4550 -0.0865
  118MOL0     N15461  10.908  -0.550  11.354 -0.3668  0.8567  0.1538
  118MOL0     C15462  10.832  -0.599  11.458  0.4730  1.1641  0.4029
  118MOL0     C15463  10.754  -0.697  11.401 -0.9240 -0.2413 -0.0955
  118MOL0     C15464  10.657  -0.783  11.482 -0.6626 -0.1184 -0.2134
  118MOL0     C15465  10.728  -0.903  11.530  1.6696  0.7805 -0.0153
  118MOL0     C15466  10.747  -0.997  11.412  0.3651  0.9083 -0.2560
  118MOL0     C15467  10.839  -1.111  11.447  0.8660 -0.2783 -0.2242
  118MOL0     O15468  10.772  -1.210  11.524  0.1091  0.6423 -0.9555
  118MOL0     C15469  10.717  -1.323  11.477 -0.7707  0.1462  0.9015
  118MOL0     C15470  10.666  -1.335  11.345  0.7509 -0.1696 -0.0001
  118MOL0     C15471  10.628  -1.459  11.294 -0.2169 -0.0100 -0.6158
  118MOL0     C15472  10.615  -1.573  11.370  1.0976 -0.1147  0.1841
  118MOL0     C15473  10.560  -1.696  11.314  0.1122  0.5637 -0.3589
  118MOL0     O15474  10.533  -1.803  11.397  0.9257 -0.2116  0.3643
  118MOL0     C15475  10.453  -1.901  11.341 -0.3411  1.5884  0.7165
  118MOL0     C15476  10.495  -2.038  11.343  0.5579  0.3031  0.0666
  118MOL0     C15477  10.407  -2.135  11.296  1.1758 -0.7231  0.2944
  118MOL0     C15478  10.276  -2.113  11.257  0.5559  0.0227 -0.1244
  118MOL0     O15479  10.193  -2.220  11.221  0.3455  0.6532 -0.1368
  118MOL0     C15480  10.053  -2.192  11.228  0.0259  0.9079 -0.6085
  118MOL0     C15481   9.955  -2.310  11.214  0.0222  0.1116  0.3476
  118MOL0     C15482   9.974  -2.411  11.328 -0.4279 -0.0754  0.2791
  118MOL0     C15483   9.871  -2.521  11.311  0.1470  0.4624 -0.1121
  118MOL0     C15484   9.863  -2.610  11.441 -0.1843  0.9013 -0.6251
  118MOL0     C15485   9.800  -2.534  11.563 -0.7187 -0.3266  0.5799
  118MOL0     C15486   9.677  -2.597  11.621  0.5491 -1.1994 -0.0162
  118MOL0     C15487   9.619  -2.529  11.747 -0.0069 -0.4197 -0.3576
  118MOL0    Cl15488   9.443  -2.509  11.729  0.5547 -0.5317 -0.1311
  118MOL0     C15489  10.237  -1.972  11.261 -0.0298  0.2940  0.9686
  118MOL0     C15490  10.317  -1.866  11.300 -0.0299  0.9703 -0.4451
  118MOL0     O15491  10.536  -1.694  11.195 -0.2700 -0.8695  0.4726
  118MOL0     C15492  10.651  -1.563  11.514 -0.4914 -0.6481 -0.2718
  118MOL0     C15493  10.702  -1.444  11.558 -0.5410 -0.7923 -0.2964
  118MOL0     N15494  10.786  -0.700  11.268 -0.1011  0.2975 -0.4662
  118MOL0     N15495  10.891  -0.628  11.246 -0.3780 -0.5318  0.0084
  118MOL0     C15496  11.119   0.387  11.093 -0.5183  0.5363 -0.2636
  118MOL0     C15497  11.008   0.446  11.036  0.0601 -0.5812  0.6175
  118MOL0     C15498  10.834   0.817  10.810 -0.7936 -0.8496  0.4799
  118MOL0     C15499  10.819   0.857  10.676 -0.7275 -0.3450 -0.2915
  118MOL0     C15500  10.762   0.977  10.646 -1.0468  0.5476 -0.1213
  118MOL0     C15501  10.714   1.069  10.734  0.1099 -0.2331 -0.4718
  118MOL0     O15502  10.652   1.186  10.699 -0.1456  0.6595 -0.1756
  118MOL0     C15503  10.515   1.167  10.658  1.1290 -0.2582  0.3409
  118MOL0     C15504  10.474   1.295  10.592 -0.3956 -0.6453 -0.9007
  118MOL0     C15505  10.487   1.417  10.672  0.4923  0.0815  0.2362
  118MOL0     C15506  10.411   1.536  10.640  0.3898 -0.1896 -0.0712
  118MOL0     C15507  10.272   1.505  10.613  0.1378  0.6901  0.0894
  118MOL0     C15508  10.161   1.473  10.570  0.2929 -0.3269  0.0320
  118MOL0     C15509  10.727   1.034  10.861 -0.2172  0.1250 -0.8017
  118MOL0     C15510  10.783   0.912  10.904 -0.2057  0.8522 -0.0046
  118MOL0     H15511  11.087   0.775  11.084 -2.3731  0.1239 -1.8337
  118MOL0     H15512  11.254   0.680  11.217 -2.3903  0.4758  1.4484
  118MOL0     H15513  11.174   0.347  11.359 -0.4447  3.5254 -2.5615
  118MOL0     H15514  11.340   0.368  11.429 -0.2697 -1.7886  0.9757
  118MOL0     H15515  11.384   0.157  11.417  1.4226  1.6221  0.4553
  118MOL0     H15516  11.388   0.171  11.243  1.5301 -0.1822  1.4657
  118MOL0     H15517  11.155   0.069  11.237  2.3379 -2.3688 -1.3431
  118MOL0     H15518  11.133   0.126  11.401  2.7210 -0.7449  3.8612
  118MOL0     H15519  11.334  -0.084  11.342 -1.0748 -0.8215 -1.9127
  118MOL0     H15520  11.285  -0.030  11.504  2.5170 -0.2558 -1.3422
  118MOL0     H15521  11.094  -0.172  11.321  0.2028 -0.6799 -0.1547
  118MOL0     H15522  11.063  -0.128  11.485 -1.5095 -1.4007  0.9336
  118MOL0     H15523  11.239  -0.312  11.547  0.4263  1.3915  0.1936
  118MOL0     H15524  11.274  -0.340  11.381 -1.1390  1.8529 -1.4693
  118MOL0     H15525  11.153  -0.509  11.475  1.0410  1.3405  1.6852
  118MOL0     H15526  11.037  -0.425  11.552  0.4867 -6.2202  0.3563
  118MOL0     H15527  11.031  -0.419  11.248 -1.2975  0.5258 -0.6808
  118MOL0     H15528  10.930  -0.336  11.371  2.4933  1.6306  1.8492
  118MOL0     H15529  10.822  -0.559  11.558 -0.3201  0.7008  0.5208
  118MOL0     H15530  10.570  -0.803  11.419 -0.3482  1.1491 -1.0924
  118MOL0     H15531  10.612  -0.719  11.559 -2.0357 -0.7928 -0.4240
  118MOL0     H15532  10.668  -0.956  11.605 -0.7271 -0.3169 -2.5228
  118MOL0     H15533  10.827  -0.875  11.566  1.9667 -0.5928  0.2952
  118MOL0     H15534  10.653  -1.045  11.384  0.8726  1.1801 -2.6323
  118MOL0     H15535  10.782  -0.946  11.321  1.0387 -1.4735 -1.4000
  118MOL0     H15536  10.912  -1.073  11.519  1.8023  0.1982 -1.3949
  118MOL0     H15537  10.894  -1.150  11.361 -3.9974 -0.8765 -3.5195
  118MOL0     H15538  10.678  -1.249  11.279  2.3911  0.8863  1.5724
  118MOL0     H15539  10.596  -1.464  11.190  1.4619 -3.0184 -1.0938
  118MOL0     H15540  10.598  -2.066  11.363  0.9974  0.8895 -1.2561
  118MOL0     H15541  10.437  -2.239  11.294  2.5286 -0.3692 -2.5062
  118MOL0     H15542  10.017  -2.123  11.152  1.0481  3.4121  1.0745
  118MOL0     H15543  10.025  -2.144  11.323  4.4986 -0.0129  1.4119
  118MOL0     H15544   9.969  -2.347  11.112  3.6247  0.3726  0.6095
  118MOL0     H15545   9.851  -2.279  11.223  0.0312 -0.2386  2.0925
  118MOL0     H15546   9.954  -2.365  11.425 -1.4842  1.6016 -0.6805
  118MOL0     H15547  10.076  -2.447  11.320 -0.0502  1.2614 -1.7709
  118MOL0     H15548   9.772  -2.494  11.275  0.8453 -0.4243 -2.9452
  118MOL0     H15549   9.907  -2.576  11.223  0.6929  1.3620 -0.4749
  118MOL0     H15550   9.961  -2.651  11.464  0.0268  1.2955 -0.7990
  118MOL0     H15551   9.799  -2.696  11.418 -2.1559  1.0103  3.6347
  118MOL0     H15552   9.756  -2.441  11.527  0.4490  0.2804  0.6930
  118MOL0     H15553   9.877  -2.507  11.636  1.1038  1.3480 -1.8079
  118MOL0     H15554   9.599  -2.598  11.545  0.4143 -0.6887  0.1150
  118MOL0     H15555   9.703  -2.699  11.652  0.7836 -0.1486  3.7632
  118MOL0     H15556   9.671  -2.433  11.759 -3.3059  1.8159 -2.2164
  118MOL0     H15557   9.636  -2.603  11.825 -0.2891 -2.0481 -1.7657
  118MOL0     H15558  10.149  -1.923  11.222  1.0018  0.5075 -1.2951
  118MOL0     H15559  10.286  -1.762  11.297 -0.0882  0.9443 -0.7764
  118MOL0     H15560  10.644  -1.642  11.588  1.5886  0.6460  1.4196
  118MOL0     H15561  10.730  -1.449  11.662 -1.1141 -1.4175 -0.1656
  118MOL0     H15562  11.120   0.278  11.099  0.7460  0.6088  1.6381
  118MOL0     H15563  10.933   0.387  10.985  0.1373  0.1511 -0.3782
  118MOL0     H15564  10.836   0.790  10.592 -4.7295 -0.3366 -1.3083
  118MOL0     H15565  10.758   0.996  10.540 -0.9802  0.7800 -0.0825
  118MOL0     H15566  10.452   1.148  10.745  0.4143 -1.8216 -0.4752
  118MOL0     H15567  10.507   1.080  10.592  4.0077  0.5296 -1.2106
  118MOL0     H15568  10.538   1.306  10.504 -0.6170 -0.2492 -1.0204
  118MOL0     H15569  10.368   1.291  10.564 -0.8470  1.0257  0.3712
  118MOL0     H15570  10.593   1.440  10.687  0.6143 -0.1602 -0.2483
  118MOL0     H15571  10.454   1.398  10.774  2.3445 -1.0841  0.6709
  118MOL0     H15572  10.398   1.609  10.720 -4.2343 -0.0007 -0.7586
  118MOL0     H15573  10.449   1.590  10.553  0.6335 -0.3895 -0.0904
  118MOL0     H15574  10.062   1.458  10.532  0.9769 -1.4725 -1.4391
  118MOL0     H15575  10.709   1.102  10.943  0.8443  0.2615 -0.6652
  118MOL0     H15576  10.798   0.894  11.010  0.6410 -0.9254 -0.3985
  119MOL0     O15577   8.622   9.313   1.589 -0.4606  0.4942 -0.6313
  119MOL0     C15578   8.546   9.221   1.609  1.2546 -0.3352  0.2872
  119MOL0     O15579   8.547   9.108   1.545 -0.6463  0.0403  0.2863
  119MOL0     C15580   8.597   9.093   1.418 -0.7948 -0.7240 -0.0458
  119MOL0     C15581   8.621   9.207   1.322 -1.0783  0.3248 -0.7577
  119MOL0     C15582   8.677   9.178   1.196 -0.2070  0.2377 -0.3360
  119MOL0     C15583   8.717   9.049   1.159 -1.3807 -0.0094 -0.1932
  119MOL0     O15584   8.779   9.024   1.041 -0.0128 -0.4952 -0.2712
  119MOL0     C15585   8.835   9.131   0.956  0.2199  0.2407  0.4349
  119MOL0     C15586   8.727   9.161   0.850  0.1828  0.2430 -0.0625
  119MOL0     C15587   8.674   9.034   0.782 -0.7509  0.1034  0.1470
  119MOL0     C15588   8.560   9.076   0.686  0.4860  0.6434  0.2238
  119MOL0     C15589   8.528   8.963   0.586  0.3812 -0.1712 -0.3341
  119MOL0     C15590   8.405   8.992   0.497  0.1046  0.2320 -0.7770
  119MOL0     C15591   8.268   8.965   0.561 -0.4818 -0.5482 -0.5379
  119MOL0     C15592   8.148   9.002   0.462 -0.6731 -0.5652  0.4845
  119MOL0     N15593   8.154   9.147   0.415 -0.4219 -0.2030 -0.0669
  119MOL0     C15594   8.205   9.247   0.484 -0.0077  0.2240  0.1143
  119MOL0     C15595   8.163   9.353   0.410  0.6296 -0.3857 -0.1009
  119MOL0     C15596   8.177   9.497   0.441  0.3944 -0.4359 -1.3183
  119MOL0     C15597   8.263   9.582   0.350  0.4171  0.2202  0.0017
  119MOL0     C15598   8.256   9.726   0.408  0.0221  0.4019  0.0097
  119MOL0     C15599   8.367   9.818   0.345 -0.1987  0.0307 -0.2068
  119MOL0     O15600   8.337   9.824   0.202 -0.6258 -0.4552 -0.2951
  119MOL0     C15601   8.340   9.948   0.144  0.1267  1.2552  1.1742
  119MOL0     C15602   8.237  10.037   0.185 -0.0666 -0.6329 -0.2461
  119MOL0     C15603   8.228  10.157   0.110 -0.4770  0.2621  0.2385
  119MOL0     C15604   8.322  10.187   0.010 -0.1167  0.5231 -0.2455
  119MOL0     C15605   8.314  10.317  -0.066  0.1277 -0.3089 -0.5781
  119MOL0     O15606   8.420  10.363  -0.142  0.7938  0.4813  0.3464
  119MOL0     C15607   8.434  10.472  -0.235  0.7683 -0.4907  0.7073
  119MOL0     C15608   8.544  10.469  -0.313  0.6640  1.1184  0.2326
  119MOL0     C15609   8.554  10.564  -0.416 -0.1108 -0.2776 -0.3448
  119MOL0     C15610   8.457  10.658  -0.450  0.4777  0.8359  0.9149
  119MOL0     O15611   8.471  10.735  -0.555  0.5638  0.5078  1.2214
  119MOL0     C15612   8.349  10.777  -0.618  0.3818 -0.1500 -0.5156
  119MOL0     C15613   8.377  10.904  -0.713  0.5712  0.5608 -0.4072
  119MOL0     C15614   8.240  10.925  -0.798  0.7203  0.3357 -0.8105
  119MOL0     C15615   8.256  11.027  -0.911 -0.5764 -0.3747 -1.3390
  119MOL0     C15616   8.127  11.102  -0.950 -0.2106  0.3019 -0.8513
  119MOL0     C15617   8.160  11.231  -1.032 -0.4903 -0.2816  0.3084
  119MOL0     C15618   8.050  11.321  -1.099 -0.2443 -0.3579 -0.1032
  119MOL0     C15619   8.133  11.415  -1.194  0.2285 -0.2019 -0.2232
  119MOL0    Cl15620   8.216  11.319  -1.315  0.0262 -0.1137  0.5894
  119MOL0     C15621   8.349  10.658  -0.367  0.1676  0.1693 -0.2918
  119MOL0     C15622   8.327  10.566  -0.261 -0.2502  0.0346  0.0196
  119MOL0     O15623   8.216  10.378  -0.047  0.0287 -0.1024  0.6933
  119MOL0     C15624   8.428  10.101  -0.020 -0.1520 -0.8448  0.0614
  119MOL0     C15625   8.433   9.980   0.042 -0.4492 -0.5900  0.4817
  119MOL0     N15626   8.102   9.315   0.297  0.0364 -0.7525  0.8299
  119MOL0     N15627   8.100   9.185   0.303  0.5889 -0.3928  0.2732
  119MOL0     C15628   8.694   8.947   1.252 -0.8886 -0.0303 -0.6368
  119MOL0     C15629   8.630   8.968   1.375 -0.9208 -0.1325 -1.0870
  119MOL0     C15630   8.463   9.229   1.725 -0.2587  0.4849  0.3868
  119MOL0     C15631   8.460   9.340   1.813  0.4157  1.1733 -0.1560
  119MOL0     C15632   8.377   9.342   1.928  0.0702  0.5652  0.0279
  119MOL0     C15633   8.305   9.224   1.969 -0.1208 -0.7438 -0.2885
  119MOL0     O15634   8.230   9.224   2.077 -0.4582 -0.1437 -0.2137
  119MOL0     C15635   8.186   9.348   2.138  0.6903 -0.4103  0.5054
  119MOL0     C15636   8.088   9.338   2.247  0.1732 -0.2956 -0.4294
  119MOL0     C15637   8.127   9.232   2.361 -0.9760 -0.0103 -1.4019
  119MOL0     C15638   8.101   9.088   2.317  0.0064 -0.1335  1.0820
  119MOL0     C15639   8.098   8.991   2.424 -0.0281  0.4752  0.6124
  119MOL0     C15640   8.099   8.897   2.507  0.9768 -0.0303 -0.4661
  119MOL0     C15641   8.331   9.111   1.886  0.2345 -0.6688 -0.6116
  119MOL0     C15642   8.397   9.112   1.769 -0.3629  0.3867  0.5483
  119MOL0     H15643   8.593   9.307   1.354  0.1338  0.6344 -0.5852
  119MOL0     H15644   8.673   9.266   1.131 -2.5666 -0.3466 -1.0664
  119MOL0     H15645   8.920   9.085   0.904  2.4933  4.0569  0.3221
  119MOL0     H15646   8.874   9.217   1.012  4.8295  0.0795 -1.9966
  119MOL0     H15647   8.752   9.230   0.768 -1.0289  1.5561  0.6281
  119MOL0     H15648   8.652   9.214   0.909  2.4424  1.4220  1.8834
  119MOL0     H15649   8.630   8.964   0.853 -2.1732 -0.0692 -0.8582
  119MOL0     H15650   8.745   8.980   0.719  2.1109  2.8713  0.7381
  119MOL0     H15651   8.464   9.098   0.733 -1.1376 -2.2235 -1.4249
  119MOL0     H15652   8.597   9.156   0.622  0.1842  0.6531  0.0611
  119MOL0     H15653   8.506   8.872   0.643  3.5872 -0.6969  0.2403
  119MOL0     H15654   8.609   8.926   0.523  1.2859 -1.2767  1.4174
  119MOL0     H15655   8.403   8.927   0.409  0.5896  0.5221 -1.0049
  119MOL0     H15656   8.421   9.094   0.463 -0.6630  0.2878 -0.9825
  119MOL0     H15657   8.264   8.857   0.577 -0.4806 -0.7225 -1.6170
  119MOL0     H15658   8.264   9.026   0.652  0.7592 -0.4465 -0.5406
  119MOL0     H15659   8.057   8.978   0.518 -1.6660  0.1685 -0.7672
  119MOL0     H15660   8.151   8.934   0.376 -0.8464 -1.7588  1.3945
  119MOL0     H15661   8.260   9.259   0.577 -2.3945 -2.2057  1.9856
  119MOL0     H15662   8.228   9.501   0.538 -2.7368 -2.6454  0.6099
  119MOL0     H15663   8.077   9.538   0.456  1.0060  0.2602  1.4633
  119MOL0     H15664   8.229   9.575   0.246  1.5242  0.4143 -0.3864
  119MOL0     H15665   8.363   9.543   0.366 -0.2173 -0.4268  3.0862
  119MOL0     H15666   8.156   9.766   0.388 -0.7713 -1.2478  0.4736
  119MOL0     H15667   8.273   9.733   0.516 -0.1917 -0.2476  0.0923
  119MOL0     H15668   8.473   9.789   0.347 -0.1570 -0.6046 -4.1802
  119MOL0     H15669   8.351   9.915   0.392 -0.1279 -0.5541  1.0836
  119MOL0     H15670   8.155  10.010   0.250 -0.4935 -1.0919 -0.9609
  119MOL0     H15671   8.142  10.222   0.124 -0.1522  0.9167 -0.6923
  119MOL0     H15672   8.619  10.392  -0.300 -1.5555 -1.5862 -1.6382
  119MOL0     H15673   8.641  10.581  -0.479  0.3621  1.7473  0.7778
  119MOL0     H15674   8.248  10.779  -0.576 -0.1752  0.1859 -1.8082
  119MOL0     H15675   8.326  10.698  -0.691 -2.9996  1.8578 -1.8296
  119MOL0     H15676   8.461  10.878  -0.778  0.3333  2.5070 -1.5823
  119MOL0     H15677   8.386  10.988  -0.643 -2.7999  1.6392 -1.1118
  119MOL0     H15678   8.152  10.958  -0.742  0.9335  1.4993 -1.1390
  119MOL0     H15679   8.212  10.830  -0.844  0.7782 -1.1291  2.0022
  119MOL0     H15680   8.318  11.110  -0.876  0.4730  0.1226 -4.1181
  119MOL0     H15681   8.315  10.979  -0.990  0.1545  1.2731 -1.8297
  119MOL0     H15682   8.069  11.112  -0.858  3.1440 -2.7474  1.9360
  119MOL0     H15683   8.059  11.045  -1.014  1.0734 -2.1115 -0.1982
  119MOL0     H15684   8.220  11.179  -1.107 -1.6246  0.9016 -1.5073
  119MOL0     H15685   8.226  11.288  -0.966 -2.3284 -0.6279  2.6076
  119MOL0     H15686   7.971  11.270  -1.157  0.0402  0.4238 -1.2142
  119MOL0     H15687   8.011  11.371  -1.010  4.4071 -0.1526  2.0720
  119MOL0     H15688   8.207  11.473  -1.138  0.2936 -0.5667  0.0778
  119MOL0     H15689   8.078  11.494  -1.245 -3.3156 -0.7971  2.3405
  119MOL0     H15690   8.279  10.740  -0.377 -2.2408 -1.2266  3.2211
  119MOL0     H15691   8.231  10.554  -0.213 -0.3099 -1.4528 -0.4164
  119MOL0     H15692   8.507  10.131  -0.089  1.9856 -1.1072  2.2555
  119MOL0     H15693   8.504   9.903   0.013 -0.8217 -1.8664  2.6904
  119MOL0     H15694   8.717   8.847   1.218  0.3107 -0.6629  1.7790
  119MOL0     H15695   8.613   8.884   1.442 -0.1213  0.7549  0.2736
  119MOL0     H15696   8.519   9.424   1.778  1.8759  0.2670  0.0392
  119MOL0     H15697   8.378   9.441   1.973 -3.1628 -0.1149  1.8445
  119MOL0     H15698   8.132   9.403   2.060  0.0555 -0.1138  1.1403
  119MOL0     H15699   8.272   9.401   2.179 -1.2423  1.9960  1.7410
  119MOL0     H15700   8.090   9.438   2.292  1.6450 -1.2946  1.9520
  119MOL0     H15701   7.991   9.314   2.203  0.2931  0.1962 -0.9760
  119MOL0     H15702   8.052   9.252   2.438  1.2245  1.1235  0.5880
  119MOL0     H15703   8.219   9.258   2.415 -1.4609 -0.7240 -0.1827
  119MOL0     H15704   8.005   9.085   2.265  0.3964  0.1801  0.3252
  119MOL0     H15705   8.184   9.065   2.248  0.2211 -1.9241  1.8720
  119MOL0     H15706   8.090   8.831   2.591  4.3067  0.7757  0.7009
  119MOL0     H15707   8.298   9.015   1.926  1.5769 -1.4610 -1.3366
  119MOL0     H15708   8.407   9.022   1.710  3.6529  0.9365  0.0928
  120MOL0     O15709   2.885   2.492   9.725  0.7450 -0.3885  0.0022
  120MOL0     C15710   2.954   2.480   9.821 -0.7649 -0.0489  0.1706
  120MOL0     O15711   3.003   2.588   9.881 -0.1044 -0.8949 -0.4950
  120MOL0     C15712   2.921   2.702   9.885  0.2371 -0.0212 -1.1454
  120MOL0     C15713   2.790   2.700   9.934 -0.0951  0.1536 -0.9364
  120MOL0     C15714   2.720   2.821   9.957 -0.2414  0.3850 -0.3056
  120MOL0     C15715   2.776   2.941   9.934  0.2129 -0.2937 -0.1791
  120MOL0     O15716   2.697   3.052   9.952  0.4181  0.8229  0.4832
  120MOL0     C15717   2.752   3.175   9.957  0.1553  0.4359  0.1724
  120MOL0     C15718   2.644   3.294   9.955 -0.5143 -0.5664 -1.1255
  120MOL0     C15719   2.716   3.430   9.995  0.7940  0.3360  0.2842
  120MOL0     C15720   2.619   3.546   9.986  0.2125 -0.7846 -0.0364
  120MOL0     C15721   2.564   3.573   9.838 -0.0647  0.0960  0.5201
  120MOL0     C15722   2.462   3.693   9.827 -0.0036 -0.0946 -0.2257
  120MOL0     C15723   2.404   3.716   9.688  0.0061  0.3007  0.0783
  120MOL0     C15724   2.501   3.809   9.607 -0.3916 -0.2257 -0.1433
  120MOL0     N15725   2.442   3.941   9.626  0.0044 -0.5747  0.7715
  120MOL0     C15726   2.373   4.008   9.524 -0.7537 -0.5757  0.4109
  120MOL0     C15727   2.311   4.106   9.585 -0.1464 -0.4504  0.4522
  120MOL0     C15728   2.224   4.212   9.519  0.5436 -0.4536 -0.8927
  120MOL0     C15729   2.091   4.143   9.481 -0.6117 -0.9830  0.3228
  120MOL0     C15730   2.000   4.245   9.396 -1.4916  0.6371  0.3625
  120MOL0     C15731   2.029   4.223   9.245 -0.6871  0.4267 -0.3271
  120MOL0     O15732   2.159   4.274   9.231  0.2032  0.1428  0.7973
  120MOL0     C15733   2.255   4.197   9.168  0.6675 -0.4816 -0.1065
  120MOL0     C15734   2.376   4.265   9.146  0.9245 -0.3751  1.3669
  120MOL0     C15735   2.492   4.196   9.088  0.5058  0.6237 -0.2700
  120MOL0     C15736   2.480   4.058   9.065 -0.8617 -0.0819 -0.4683
  120MOL0     C15737   2.599   3.984   9.011 -0.3329 -0.7290 -0.1212
  120MOL0     O15738   2.577   3.849   8.998 -0.3931  0.2569 -0.8141
  120MOL0     C15739   2.678   3.757   9.017 -0.3833 -0.2066  0.2260
  120MOL0     C15740   2.673   3.670   9.125  0.6105 -0.1843  0.1038
  120MOL0     C15741   2.777   3.594   9.175 -1.0321  0.4284  1.1241
  120MOL0     C15742   2.896   3.582   9.097  0.4838  0.7270  0.4817
  120MOL0     O15743   2.994   3.487   9.116  0.3657 -0.6229  0.5439
  120MOL0     C15744   3.047   3.471   9.247 -0.0401 -0.1614  0.2023
  120MOL0     C15745   3.088   3.316   9.268 -0.6486 -0.5001 -0.3936
  120MOL0     C15746   2.963   3.241   9.226 -0.4570  0.7400  0.3892
  120MOL0     C15747   2.975   3.091   9.273 -0.4509 -0.4523 -0.5629
  120MOL0     C15748   2.939   3.066   9.425  0.2176 -0.1307 -0.1939
  120MOL0     C15749   2.919   2.917   9.453 -0.3492  0.1988  0.8096
  120MOL0     C15750   2.795   2.852   9.397 -0.2617  0.2519  0.2446
  120MOL0     C15751   2.769   2.716   9.455  1.1381 -0.0360 -0.4208
  120MOL0    Cl15752   2.592   2.677   9.457  0.4134  0.2314 -0.0335
  120MOL0     C15753   2.896   3.659   8.973 -0.3547  0.2587 -1.1124
  120MOL0     C15754   2.795   3.751   8.943  0.1831 -0.3403 -1.1206
  120MOL0     O15755   2.705   4.040   8.985 -0.0726 -0.4843 -0.2606
  120MOL0     C15756   2.364   3.996   9.096  0.1531 -0.7011  0.9803
  120MOL0     C15757   2.251   4.062   9.145  0.2519 -0.4037  0.6134
  120MOL0     N15758   2.330   4.101   9.717 -0.2818 -0.2099 -0.0715
  120MOL0     N15759   2.416   4.017   9.737  0.2991 -0.5344 -0.0257
  120MOL0     C15760   2.909   2.940   9.878  0.4116 -0.3457 -0.3513
  120MOL0     C15761   2.981   2.824   9.854 -0.4537 -0.6493 -0.1976
  120MOL0     C15762   3.032   2.352   9.846  0.8916 -1.5257 -0.0305
  120MOL0     C15763   3.165   2.351   9.897  0.3829  1.0877 -0.1892
  120MOL0     C15764   3.229   2.240   9.928 -0.5508 -0.1782  0.8010
  120MOL0     C15765   3.166   2.112   9.899 -0.1169 -0.6233  0.0418
  120MOL0     O15766   3.227   1.994   9.931 -0.7127 -0.3138 -0.3165
  120MOL0     C15767   3.347   1.947   9.876  0.0865 -0.5317  0.6584
  120MOL0     C15768   3.476   1.965   9.957  0.5837  0.9531  0.3976
  120MOL0     C15769   3.593   1.904   9.880  0.4204 -0.1079  0.0849
  120MOL0     C15770   3.728   1.935   9.955 -0.4681 -0.4509  0.4729
  120MOL0     C15771   3.840   1.888   9.863  0.3042 -0.0506 -0.0700
  120MOL0     C15772   3.943   1.852   9.807  0.7693 -0.5774 -0.6200
  120MOL0     C15773   3.034   2.111   9.845  1.0606 -0.6154 -0.2273
  120MOL0     C15774   2.966   2.236   9.812 -0.6013  0.7763 -0.4905
  120MOL0     H15775   2.750   2.604   9.964  4.7453 -2.4494 -1.8521
  120MOL0     H15776   2.615   2.825   9.985 -0.7221  2.1208 -2.1118
  120MOL0     H15777   2.821   3.204   9.877 -1.5092  0.0122 -1.4917
  120MOL0     H15778   2.806   3.177  10.052  1.4666 -0.3291 -0.5452
  120MOL0     H15779   2.569   3.281  10.033  1.1594 -0.9779  0.4696
  120MOL0     H15780   2.596   3.285   9.857  1.4403  2.6174 -2.5294
  120MOL0     H15781   2.802   3.443   9.929 -1.2247  2.2610 -2.2355
  120MOL0     H15782   2.742   3.424  10.101  1.0230 -0.0341  0.2078
  120MOL0     H15783   2.530   3.535  10.049  0.7304 -0.9843  0.6638
  120MOL0     H15784   2.672   3.634  10.021 -2.3298  0.7246  0.2887
  120MOL0     H15785   2.500   3.497   9.792  0.0706 -0.1199  0.6855
  120MOL0     H15786   2.644   3.592   9.765 -0.2404 -0.4753  0.1736
  120MOL0     H15787   2.493   3.783   9.880  2.8466 -0.1711 -1.5982
  120MOL0     H15788   2.373   3.659   9.881 -1.5576  0.5174 -2.2839
  120MOL0     H15789   2.393   3.621   9.635  1.5008  0.2632 -0.2095
  120MOL0     H15790   2.310   3.771   9.692  0.2057  0.8312 -1.7213
  120MOL0     H15791   2.490   3.792   9.499 -0.9102 -0.6114 -0.0340
  120MOL0     H15792   2.604   3.804   9.643  0.3248 -0.1137 -2.0396
  120MOL0     H15793   2.385   3.982   9.420  2.0747 -3.7702  1.3339
  120MOL0     H15794   2.282   4.258   9.438 -1.2003  2.4002 -0.6303
  120MOL0     H15795   2.210   4.300   9.581  1.0311 -0.0418 -1.3565
  120MOL0     H15796   2.042   4.117   9.575  3.6030 -0.8049  2.8593
  120MOL0     H15797   2.114   4.053   9.423 -0.1031 -0.2695 -0.6095
  120MOL0     H15798   1.895   4.224   9.416 -1.5383  2.1473  1.9838
  120MOL0     H15799   2.019   4.350   9.422  3.1360 -0.1079  0.9119
  120MOL0     H15800   1.969   4.295   9.188  1.0825  0.5792 -2.0984
  120MOL0     H15801   2.008   4.118   9.226 -1.9464  0.9539 -2.0972
  120MOL0     H15802   2.384   4.369   9.176 -0.6698  0.0774  0.3452
  120MOL0     H15803   2.588   4.247   9.080 -2.0615  6.4130  0.6786
  120MOL0     H15804   2.589   3.683   9.193 -1.3565 -1.0660 -2.0384
  120MOL0     H15805   2.764   3.550   9.273 -2.9353  1.6499  1.4874
  120MOL0     H15806   2.976   3.504   9.323  1.7747  3.0911  0.6650
  120MOL0     H15807   3.140   3.525   9.265 -1.5187  2.2437  1.1060
  120MOL0     H15808   3.101   3.307   9.376 -0.7757  1.8834 -0.1355
  120MOL0     H15809   3.168   3.267   9.213 -2.5447 -1.0395 -2.8446
  120MOL0     H15810   2.947   3.244   9.118  1.0010 -2.6966 -0.0498
  120MOL0     H15811   2.869   3.282   9.265  0.2866  2.9402 -0.0019
  120MOL0     H15812   2.893   3.043   9.219 -2.4037 -0.3815  2.1284
  120MOL0     H15813   3.075   3.056   9.245 -0.2710 -0.0370 -0.4405
  120MOL0     H15814   2.849   3.125   9.445  0.1065 -0.5870  0.6895
  120MOL0     H15815   3.020   3.109   9.485  1.6785 -0.9235 -1.5183
  120MOL0     H15816   2.895   2.913   9.560 -0.2844  0.0632  0.8197
  120MOL0     H15817   3.011   2.860   9.438 -1.3481 -1.6161  1.2415
  120MOL0     H15818   2.709   2.913   9.427 -0.9508 -1.1360  1.2188
  120MOL0     H15819   2.795   2.852   9.287 -1.0797  0.2914  0.2348
  120MOL0     H15820   2.802   2.720   9.559 -1.7391 -0.0927  0.5697
  120MOL0     H15821   2.824   2.645   9.392  0.0511 -1.3670  0.0870
  120MOL0     H15822   2.980   3.671   8.906 -2.0990  3.5866 -2.9348
  120MOL0     H15823   2.804   3.818   8.858  1.0086 -0.5963 -1.2461
  120MOL0     H15824   2.345   3.890   9.087  1.9966 -0.8954 -1.6576
  120MOL0     H15825   2.159   4.007   9.167 -2.0019  2.5964 -0.6548
  120MOL0     H15826   2.951   3.033   9.840 -1.5895  0.9224  0.3621
  120MOL0     H15827   3.075   2.818   9.799 -1.3411  2.9826 -2.4502
  120MOL0     H15828   3.217   2.440   9.932  2.3551 -0.4800  1.1354
  120MOL0     H15829   3.329   2.240   9.970 -0.5016 -0.7494  0.6928
  120MOL0     H15830   3.362   2.008   9.787 -1.2560  1.6245  1.8006
  120MOL0     H15831   3.330   1.842   9.850  1.7243 -1.0003  1.3340
  120MOL0     H15832   3.482   2.074   9.963 -0.8610  1.0442  0.6852
  120MOL0     H15833   3.467   1.929  10.060 -2.5394  0.9444  0.2110
  120MOL0     H15834   3.601   1.956   9.784 -1.0481  3.0232  1.5156
  120MOL0     H15835   3.563   1.800   9.865 -1.5076  0.0659  2.2092
  120MOL0     H15836   3.762   2.038   9.967  0.0486 -0.8165  2.5985
  120MOL0     H15837   3.732   1.882  10.051  1.0573 -0.5524  0.3725
  120MOL0     H15838   4.027   1.803   9.763  2.6664  0.6868  1.3680
  120MOL0     H15839   2.986   2.017   9.822 -0.8710  0.9623 -3.4696
  120MOL0     H15840   2.876   2.249   9.754  1.1915  2.8141 -3.0451
  121MOL0     O15841   1.047   8.717   1.214  0.8821 -0.4559 -0.2709
  121MOL0     C15842   1.077   8.795   1.120  0.1087  0.7755  0.3323
  121MOL0     O15843   1.190   8.801   1.057  0.0738 -0.2313  0.4110
  121MOL0     C15844   1.272   8.690   1.066 -0.2292  0.4127 -0.3077
  121MOL0     C15845   1.362   8.655   1.166  0.5851  0.9714 -0.0533
  121MOL0     C15846   1.433   8.536   1.166 -0.3602 -0.4146  0.0591
  121MOL0     C15847   1.412   8.444   1.067 -0.1284  0.8741  0.0323
  121MOL0     O15848   1.487   8.325   1.079  0.6033  0.4188 -0.0756
  121MOL0     C15849   1.425   8.207   1.014 -0.3338 -0.8515 -0.7603
  121MOL0     C15850   1.447   8.084   1.110  0.1675  0.1285  0.6157
  121MOL0     C15851   1.416   7.947   1.037  0.4619 -0.2365 -0.3406
  121MOL0     C15852   1.505   7.833   1.087  0.4953  0.3966 -0.4080
  121MOL0     C15853   1.507   7.699   1.012 -1.2324 -1.0189 -0.1895
  121MOL0     C15854   1.592   7.611   1.098 -0.0810  0.7415 -0.2753
  121MOL0     C15855   1.629   7.475   1.041  0.6212  0.5059 -0.1563
  121MOL0     C15856   1.523   7.407   0.947 -1.5004 -0.0125 -0.0412
  121MOL0     N15857   1.411   7.355   1.015 -0.5470  0.3041  0.9404
  121MOL0     C15858   1.330   7.427   1.094 -0.2860 -0.3466  0.4405
  121MOL0     C15859   1.269   7.330   1.165  0.3496  0.4835 -0.8923
  121MOL0     C15860   1.165   7.377   1.260 -0.7020 -0.1180  0.4127
  121MOL0     C15861   1.032   7.415   1.183  0.7066  0.5722 -0.5723
  121MOL0     C15862   0.950   7.295   1.123  0.2978  0.7646 -0.1166
  121MOL0     C15863   0.856   7.335   1.011 -0.7536 -0.5467  0.2371
  121MOL0     O15864   0.736   7.404   1.053 -0.2687  0.6792 -0.9454
  121MOL0     C15865   0.642   7.431   0.952  0.0185  0.1932 -0.5795
  121MOL0     C15866   0.505   7.426   0.983 -0.4306  0.2581  0.7911
  121MOL0     C15867   0.407   7.476   0.899  0.7213  0.2246  0.1598
  121MOL0     C15868   0.455   7.519   0.771  0.6684 -0.8471 -0.2788
  121MOL0     C15869   0.369   7.588   0.673 -0.1250 -0.1598  0.3554
  121MOL0     O15870   0.393   7.554   0.539  0.6074 -0.8075  0.1844
  121MOL0     C15871   0.300   7.579   0.441 -0.2519  1.1801  0.6378
  121MOL0     C15872   0.347   7.573   0.308 -0.0304  0.9745  0.2254
  121MOL0     C15873   0.268   7.612   0.206  0.2392  0.5348  0.4802
  121MOL0     C15874   0.133   7.647   0.228 -0.3555 -0.0061 -0.5098
  121MOL0     O15875   0.052   7.680   0.115  0.1118  0.2409  0.2081
  121MOL0     C15876  -0.087   7.651   0.128 -0.4415 -0.9724 -0.8394
  121MOL0     C15877  -0.163   7.682  -0.003  0.3189 -0.2231  0.2171
  121MOL0     C15878  -0.109   7.634  -0.136  0.9552  0.6416 -0.3560
  121MOL0     C15879  -0.194   7.687  -0.259 -0.0677 -0.3419 -1.7332
  121MOL0     C15880  -0.132   7.642  -0.396  0.8012  0.1635  0.1150
  121MOL0     C15881  -0.179   7.705  -0.527  0.5427 -0.5206 -0.0678
  121MOL0     C15882  -0.093   7.654  -0.647  0.5535 -0.6177  0.8389
  121MOL0     C15883  -0.132   7.722  -0.773 -0.9638  0.2467 -0.2104
  121MOL0    Cl15884  -0.056   7.888  -0.788 -0.1509  0.0425 -0.1489
  121MOL0     C15885   0.090   7.644   0.360  0.9936  0.2752 -0.5322
  121MOL0     C15886   0.166   7.606   0.463 -0.7432 -0.4055  0.2380
  121MOL0     O15887   0.272   7.652   0.717  0.6323  0.1192  0.0466
  121MOL0     C15888   0.586   7.503   0.733 -0.5023  0.0669  0.2815
  121MOL0     C15889   0.679   7.471   0.824 -0.2672  0.0049  0.8078
  121MOL0     N15890   1.319   7.205   1.139  1.1678  0.0266  0.4507
  121MOL0     N15891   1.401   7.216   1.038  0.0814  0.4967 -0.3906
  121MOL0     C15892   1.332   8.480   0.958  0.8415 -0.7089 -0.3593
  121MOL0     C15893   1.264   8.599   0.954  0.2631  0.4105 -1.3024
  121MOL0     C15894   0.963   8.879   1.066  1.0369  0.3712  0.3946
  121MOL0     C15895   0.835   8.880   1.126 -0.6417 -0.2549  0.0555
  121MOL0     C15896   0.742   8.966   1.084  0.4496 -0.3643  0.2258
  121MOL0     C15897   0.752   9.032   0.959  0.4553 -0.5811 -0.6854
  121MOL0     O15898   0.652   9.119   0.911  0.0590  0.6950 -0.1225
  121MOL0     C15899   0.532   9.150   0.989 -0.0504  0.6744 -0.0465
  121MOL0     C15900   0.441   9.259   0.926  0.0511 -0.4727  0.0556
  121MOL0     C15901   0.323   9.302   1.012 -0.0463 -0.1795  0.0435
  121MOL0     C15902   0.209   9.348   0.912  0.3015 -0.5278 -0.4910
  121MOL0     C15903   0.098   9.370   1.004  0.0623 -0.0940 -0.5343
  121MOL0     C15904  -0.000   9.403   1.073 -1.4465  0.4749 -0.4213
  121MOL0     C15905   0.878   9.014   0.891  0.6562  0.0832  0.6146
  121MOL0     C15906   0.974   8.937   0.944  0.3161 -0.5903  0.6975
  121MOL0     H15907   1.375   8.729   1.244 -3.0050  2.2598 -0.4530
  121MOL0     H15908   1.497   8.527   1.252  0.2227 -1.4412 -0.4570
  121MOL0     H15909   1.468   8.199   0.914  1.8792 -1.8011  0.2006
  121MOL0     H15910   1.317   8.223   1.007 -0.4119  0.3971  2.0531
  121MOL0     H15911   1.381   8.080   1.197  0.1117 -1.1109  0.5344
  121MOL0     H15912   1.553   8.080   1.135  0.3552  0.5670 -0.0586
  121MOL0     H15913   1.413   7.965   0.929 -0.9035  1.1401 -0.1079
  121MOL0     H15914   1.307   7.937   1.044  0.2165 -3.2133 -4.3638
  121MOL0     H15915   1.610   7.865   1.098  0.1414  1.5949 -0.3231
  121MOL0     H15916   1.471   7.809   1.188  1.1198 -5.8421 -1.2906
  121MOL0     H15917   1.553   7.692   0.913 -3.6743  0.9492 -1.5543
  121MOL0     H15918   1.403   7.665   1.010 -0.8402 -2.3204  0.0469
  121MOL0     H15919   1.535   7.599   1.191 -0.2279 -0.2761 -0.4823
  121MOL0     H15920   1.686   7.662   1.120  0.7789 -1.9464  3.3970
  121MOL0     H15921   1.725   7.477   0.988 -1.2515 -1.1923 -4.0394
  121MOL0     H15922   1.625   7.410   1.129 -3.8560 -0.2940 -0.7217
  121MOL0     H15923   1.580   7.328   0.897 -1.9461  1.4727 -3.1164
  121MOL0     H15924   1.490   7.481   0.873 -2.7829  0.5759  1.0717
  121MOL0     H15925   1.318   7.534   1.108 -0.1790 -0.4436  1.3623
  121MOL0     H15926   1.205   7.466   1.309  1.9247 -1.6566  1.2606
  121MOL0     H15927   1.142   7.306   1.340 -1.2244  1.9276  2.1727
  121MOL0     H15928   1.047   7.487   1.103 -2.5603  1.1108 -0.8181
  121MOL0     H15929   0.962   7.456   1.257 -2.3581 -2.2690 -1.6775
  121MOL0     H15930   1.004   7.213   1.075 -3.2024 -2.3504  0.7254
  121MOL0     H15931   0.889   7.242   1.197  2.1636 -1.5109 -0.0969
  121MOL0     H15932   0.812   7.246   0.964 -0.1810 -0.1972 -0.9961
  121MOL0     H15933   0.910   7.398   0.940  0.9203 -1.0385  1.0184
  121MOL0     H15934   0.484   7.380   1.079  3.3233  0.3718  1.8211
  121MOL0     H15935   0.305   7.501   0.927  0.9859  0.9116  0.5173
  121MOL0     H15936   0.451   7.553   0.287 -0.1390 -1.8470  1.9263
  121MOL0     H15937   0.301   7.590   0.105 -1.8069 -0.3992 -0.0384
  121MOL0     H15938  -0.135   7.711   0.207  1.3220  1.5956 -1.6022
  121MOL0     H15939  -0.112   7.545   0.142 -1.1092 -0.5097  2.3738
  121MOL0     H15940  -0.168   7.792  -0.004  0.1063 -0.2252  0.7948
  121MOL0     H15941  -0.265   7.647   0.009 -1.1147  1.8449 -4.0571
  121MOL0     H15942  -0.110   7.525  -0.124 -1.9471  0.2713 -2.7485
  121MOL0     H15943  -0.004   7.659  -0.156  0.9181  0.5329 -0.6912
  121MOL0     H15944  -0.296   7.649  -0.250  0.4545 -1.6104 -0.8872
  121MOL0     H15945  -0.188   7.795  -0.245  1.2542 -0.6028  0.0379
  121MOL0     H15946  -0.141   7.534  -0.411 -0.5807  0.6019 -2.9903
  121MOL0     H15947  -0.023   7.650  -0.382  1.0160 -1.8093 -0.1416
  121MOL0     H15948  -0.169   7.809  -0.495  0.2353 -1.1495  2.3035
  121MOL0     H15949  -0.281   7.672  -0.548  0.8190 -1.7161  0.3374
  121MOL0     H15950   0.013   7.664  -0.621  0.2763  0.8370  1.4976
  121MOL0     H15951  -0.097   7.546  -0.659  0.2992 -0.4926 -0.3381
  121MOL0     H15952  -0.241   7.735  -0.775 -1.3705 -2.5051 -0.1548
  121MOL0     H15953  -0.108   7.656  -0.857 -0.8209  1.6212 -1.2809
  121MOL0     H15954  -0.014   7.661   0.386  0.9331  0.4864 -0.9132
  121MOL0     H15955   0.107   7.615   0.554 -3.1388 -4.1089 -0.7094
  121MOL0     H15956   0.615   7.514   0.629  1.0944 -1.7670  0.4779
  121MOL0     H15957   0.780   7.470   0.785 -0.6627  0.1599 -0.2599
  121MOL0     H15958   1.319   8.407   0.879 -2.9721  1.1290 -1.6739
  121MOL0     H15959   1.185   8.608   0.880 -1.1715 -0.7958  0.0040
  121MOL0     H15960   0.812   8.821   1.215 -1.5491 -0.1523 -0.1009
  121MOL0     H15961   0.644   8.962   1.131  0.3699 -2.3569  0.0056
  121MOL0     H15962   0.560   9.176   1.091  3.0212 -3.1847  0.3415
  121MOL0     H15963   0.470   9.061   1.003 -0.0506  0.7091  0.1699
  121MOL0     H15964   0.501   9.350   0.911 -0.8898  0.3292  1.0236
  121MOL0     H15965   0.407   9.218   0.830 -1.1911  0.5598  0.0403
  121MOL0     H15966   0.346   9.382   1.083 -1.1355  1.5930 -1.5051
  121MOL0     H15967   0.284   9.221   1.074 -0.0579  0.3459  0.7417
  121MOL0     H15968   0.242   9.444   0.871  0.6703 -0.0972  0.7712
  121MOL0     H15969   0.203   9.265   0.841  4.7427 -1.6547  0.1386
  121MOL0     H15970  -0.082   9.438   1.134 -0.6071 -1.8352  2.2453
  121MOL0     H15971   0.890   9.059   0.793  0.2728 -2.5572 -0.7507
  121MOL0     H15972   1.071   8.929   0.897  0.5817  2.8675  0.3955
  122MOL0     O15973  10.305   2.150   6.033 -0.5460 -0.5625 -0.0138
  122MOL0     C15974  10.248   2.248   6.079  0.1050  0.3582 -0.6356
  122MOL0     O15975  10.289   2.334   6.175 -0.5985 -0.2587  1.6061
  122MOL0     C15976  10.412   2.318   6.223 -0.1238 -1.1777  0.7670
  122MOL0     C15977  10.468   2.444   6.267 -0.6244  0.6281 -0.0584
  122MOL0     C15978  10.582   2.442   6.354  0.9903 -0.6467  0.1640
  122MOL0     C15979  10.636   2.328   6.398 -1.4379  0.6145  1.2036
  122MOL0     O15980  10.720   2.325   6.500 -0.0545 -0.9164  0.1603
  122MOL0     C15981  10.842   2.250   6.491 -0.0811 -0.0446 -0.1071
  122MOL0     C15982  10.934   2.293   6.611  0.1585  0.6015 -0.3724
  122MOL0     C15983  10.866   2.241   6.741  0.1458 -0.6968  0.5476
  122MOL0     C15984  10.984   2.257   6.843 -0.2204  0.6140  0.0623
  122MOL0     C15985  10.944   2.265   6.989 -0.1643 -0.5664 -0.2525
  122MOL0     C15986  10.853   2.141   7.017 -0.4766  0.5500 -1.2740
  122MOL0     C15987  10.803   2.137   7.162 -0.8982  0.2084 -0.1210
  122MOL0     C15988  10.909   2.080   7.256 -0.7486 -0.1884  0.0614
  122MOL0     N15989  10.921   1.930   7.241 -0.6884 -1.1070 -0.2662
  122MOL0     C15990  10.990   1.862   7.142 -0.3895  0.8010  0.6252
  122MOL0     C15991  10.950   1.736   7.158 -0.5033  0.4478  0.3640
  122MOL0     C15992  11.002   1.610   7.091 -0.2207 -0.2044 -0.2868
  122MOL0     C15993  10.922   1.583   6.965 -0.7542 -0.5152 -0.1974
  122MOL0     C15994  10.975   1.478   6.878 -0.0123 -0.7301 -0.8242
  122MOL0     C15995  10.990   1.346   6.939  0.2106 -0.5790 -0.7750
  122MOL0     O15996  11.035   1.256   6.833  0.0035  0.1921  0.0357
  122MOL0     C15997  11.177   1.251   6.829 -0.7623  0.1129  0.4759
  122MOL0     C15998  11.232   1.322   6.729  0.3855 -0.4804 -0.2181
  122MOL0     C15999  11.370   1.356   6.723  0.9848 -0.3748 -0.1741
  122MOL0     C16000  11.453   1.313   6.828  0.2765  0.5235 -0.5434
  122MOL0     C16001  11.598   1.349   6.838 -0.1549  1.0306  0.2741
  122MOL0     O16002  11.664   1.311   6.957  0.4767  0.4041  0.1481
  122MOL0     C16003  11.776   1.376   7.002 -0.1514  0.0265 -0.0360
  122MOL0     C16004  11.862   1.453   6.919  1.0669  0.9985 -0.9716
  122MOL0     C16005  11.976   1.515   6.971  0.1352  0.7520  0.3120
  122MOL0     C16006  12.038   1.468   7.094  1.0540 -1.0197  0.6771
  122MOL0     O16007  12.157   1.521   7.131 -0.5958  0.4795 -0.2154
  122MOL0     C16008  12.149   1.622   7.226 -0.7332 -0.0880  1.1043
  122MOL0     C16009  12.264   1.716   7.196  0.3692  0.7527 -1.1903
  122MOL0     C16010  12.245   1.846   7.280  0.2879 -0.0597  0.3366
  122MOL0     C16011  12.380   1.925   7.266 -0.4342 -0.6773 -0.1067
  122MOL0     C16012  12.376   2.070   7.327 -0.9328 -1.7172  0.1555
  122MOL0     C16013  12.278   2.152   7.242 -0.0592 -0.6952 -0.0337
  122MOL0     C16014  12.271   2.307   7.270 -0.0927  0.7435 -0.5164
  122MOL0     C16015  12.269   2.349   7.416 -0.7433 -1.0850  0.1215
  122MOL0    Cl16016  12.155   2.284   7.532  0.7834 -0.1664  0.0291
  122MOL0     C16017  11.948   1.390   7.175 -0.7791 -0.0398 -0.2987
  122MOL0     C16018  11.824   1.355   7.128  0.6914 -0.4713  0.9404
  122MOL0     O16019  11.649   1.401   6.741 -0.2040  0.3433  0.4286
  122MOL0     C16020  11.396   1.227   6.930 -0.2409 -0.0590  0.0205
  122MOL0     C16021  11.253   1.202   6.933 -0.5443 -1.0037 -0.4075
  122MOL0     N16022  10.862   1.730   7.268  0.0729  0.0895  0.3325
  122MOL0     N16023  10.857   1.847   7.322 -0.2074  0.7861 -0.2735
  122MOL0     C16024  10.583   2.207   6.343  0.8697  0.7211 -0.6662
  122MOL0     C16025  10.476   2.201   6.258  0.2530 -0.1607  0.1764
  122MOL0     C16026  10.103   2.256   6.047  0.5699  0.6371 -0.1062
  122MOL0     C16027  10.013   2.329   6.130 -0.9554 -1.0990 -0.0816
  122MOL0     C16028   9.885   2.341   6.091  0.2580  0.6876 -0.2994
  122MOL0     C16029   9.834   2.284   5.966 -0.3782 -1.6626  0.4026
  122MOL0     O16030   9.710   2.310   5.921 -0.1848 -0.4280  0.7590
  122MOL0     C16031   9.626   2.422   5.977 -0.2954  1.3321  0.8631
  122MOL0     C16032   9.690   2.558   5.951  0.0073 -1.2512 -0.9678
  122MOL0     C16033   9.592   2.664   6.006  0.8230  0.1342 -0.3076
  122MOL0     C16034   9.676   2.798   6.018 -0.2155  0.8617  0.0289
  122MOL0     C16035   9.737   2.835   5.892  0.8181  0.1417 -0.5165
  122MOL0     C16036   9.786   2.873   5.789  0.6039 -0.5411  0.4830
  122MOL0     C16037   9.922   2.209   5.888 -0.1143 -0.6053  0.6027
  122MOL0     C16038  10.058   2.209   5.927 -0.7970 -0.2894 -0.4087
  122MOL0     H16039  10.407   2.529   6.241 -4.8191 -1.8663  0.6348
  122MOL0     H16040  10.631   2.532   6.389 -0.3594 -0.3631  1.4057
  122MOL0     H16041  10.898   2.253   6.397  0.0489  0.4943 -0.0167
  122MOL0     H16042  10.811   2.145   6.499 -1.1908  0.2277 -0.6336
  122MOL0     H16043  10.950   2.400   6.628  2.2272 -0.0536  2.4939
  122MOL0     H16044  11.029   2.248   6.585 -0.9986 -1.7825 -0.7013
  122MOL0     H16045  10.841   2.135   6.733 -1.4689 -0.2946 -0.2387
  122MOL0     H16046  10.781   2.303   6.771  3.9215  4.5982  1.8204
  122MOL0     H16047  11.054   2.174   6.831  1.9439  2.4394 -0.6552
  122MOL0     H16048  11.035   2.351   6.822 -0.5323  1.0217  1.0489
  122MOL0     H16049  10.897   2.358   7.021 -3.1968 -1.2274 -2.3515
  122MOL0     H16050  11.028   2.247   7.057  1.2067 -1.8850 -2.2035
  122MOL0     H16051  10.909   2.049   7.000  0.7620  0.7394  1.2154
  122MOL0     H16052  10.766   2.125   6.953 -0.6096 -3.2260 -0.3729
  122MOL0     H16053  10.780   2.236   7.203  4.0185  0.7458  2.0358
  122MOL0     H16054  10.712   2.077   7.162 -0.7519 -0.0220 -0.7179
  122MOL0     H16055  10.885   2.087   7.363  1.5207 -1.4768  0.7336
  122MOL0     H16056  11.013   2.114   7.246 -0.6513 -0.7322 -0.8766
  122MOL0     H16057  11.068   1.902   7.078  1.1314  1.3263  2.7065
  122MOL0     H16058  10.996   1.528   7.163 -0.7612 -0.2212 -0.3519
  122MOL0     H16059  11.107   1.624   7.062  0.1976  0.3594  1.3877
  122MOL0     H16060  10.925   1.679   6.913  3.1240 -0.9516 -1.0560
  122MOL0     H16061  10.821   1.552   6.994  0.2947 -2.9545  1.1317
  122MOL0     H16062  10.914   1.475   6.787 -1.8559 -2.4514  0.4061
  122MOL0     H16063  11.078   1.511   6.862 -0.8005  2.2601 -0.3629
  122MOL0     H16064  10.900   1.306   6.987  3.1945 -0.9430  5.5949
  122MOL0     H16065  11.055   1.353   7.027 -1.1662 -3.5829  0.6008
  122MOL0     H16066  11.171   1.361   6.648 -0.3107  0.2124  0.6265
  122MOL0     H16067  11.408   1.419   6.643 -2.3897  0.8767 -0.9418
  122MOL0     H16068  11.840   1.483   6.817  1.1793  1.3175 -0.9054
  122MOL0     H16069  12.043   1.566   6.904  0.7421 -0.1097  0.2461
  122MOL0     H16070  12.156   1.575   7.324 -5.5838  3.4921  3.6156
  122MOL0     H16071  12.059   1.685   7.224 -1.1993 -0.7623 -0.0430
  122MOL0     H16072  12.269   1.743   7.091 -3.5832  2.0408 -1.2138
  122MOL0     H16073  12.352   1.664   7.236  0.8780  3.6272  1.8997
  122MOL0     H16074  12.238   1.818   7.385 -0.6326  1.5436  0.7426
  122MOL0     H16075  12.155   1.903   7.257 -0.4425 -1.2393  0.1883
  122MOL0     H16076  12.461   1.871   7.316  0.3986  0.2175 -0.4551
  122MOL0     H16077  12.409   1.932   7.160 -0.1573  1.2531  0.0602
  122MOL0     H16078  12.476   2.112   7.316 -1.8368  0.4067 -0.4730
  122MOL0     H16079  12.343   2.066   7.432 -0.5290  3.4806  0.7269
  122MOL0     H16080  12.178   2.109   7.246 -0.1826 -0.6187 -1.5029
  122MOL0     H16081  12.301   2.133   7.136 -1.9408  1.4026 -0.8957
  122MOL0     H16082  12.350   2.358   7.215  2.2374 -0.9005  1.0636
  122MOL0     H16083  12.175   2.337   7.228  0.6593  1.1956 -1.9622
  122MOL0     H16084  12.266   2.458   7.416 -3.1624 -1.0263 -2.6553
  122MOL0     H16085  12.370   2.330   7.454 -1.4599  0.6983  3.3177
  122MOL0     H16086  11.978   1.377   7.279 -0.8436  1.4996 -0.0490
  122MOL0     H16087  11.751   1.311   7.195 -0.7814 -0.5181 -0.6292
  122MOL0     H16088  11.465   1.192   7.007  0.1557  2.3802  0.8525
  122MOL0     H16089  11.210   1.139   7.010 -0.7297 -0.4139 -0.0197
  122MOL0     H16090  10.611   2.112   6.387 -0.9110 -0.6358 -2.2585
  122MOL0     H16091  10.441   2.104   6.223  0.1425 -0.7266  1.7803
  122MOL0     H16092  10.041   2.365   6.229  0.2931  0.7098 -1.0142
  122MOL0     H16093   9.811   2.371   6.164 -2.5039 -2.8073 -1.3402
  122MOL0     H16094   9.610   2.402   6.083  1.4538  4.3185  1.8182
  122MOL0     H16095   9.529   2.416   5.927  0.2240 -1.2877  0.0393
  122MOL0     H16096   9.784   2.560   6.007  0.1631 -3.1836 -1.1011
  122MOL0     H16097   9.709   2.553   5.843 -1.3336 -2.1962 -1.1816
  122MOL0     H16098   9.574   2.651   6.113 -1.8031 -0.3226 -0.7174
  122MOL0     H16099   9.502   2.668   5.943  0.8634  0.3754 -0.3529
  122MOL0     H16100   9.621   2.883   6.060 -1.2288  0.3766 -0.2845
  122MOL0     H16101   9.754   2.774   6.090  0.5348  2.7844 -0.0810
  122MOL0     H16102   9.814   2.909   5.692  0.5279 -1.6031  0.0504
  122MOL0     H16103   9.902   2.143   5.805  1.6581 -0.1779 -0.2105
  122MOL0     H16104  10.118   2.145   5.863 -1.4669 -2.7571  1.2728
  123MOL0     O16105   5.495   7.732   6.286  1.1799  0.2240  0.3538
  123MOL0     C16106   5.394   7.687   6.236  0.6683 -0.4311 -0.1988
  123MOL0     O16107   5.281   7.753   6.218  0.2491 -0.5570  0.0247
  123MOL0     C16108   5.268   7.883   6.250  0.0240  0.1080  0.3592
  123MOL0     C16109   5.175   7.961   6.183 -0.3687 -0.1773  0.2236
  123MOL0     C16110   5.145   8.093   6.219  0.3959 -0.8259 -0.2214
  123MOL0     C16111   5.210   8.154   6.329 -0.3157  0.1523  0.1709
  123MOL0     O16112   5.172   8.276   6.383  0.4863 -0.3837  0.8184
  123MOL0     C16113   5.170   8.385   6.286  0.3222 -0.1962  1.0650
  123MOL0     C16114   5.180   8.510   6.374 -0.1609  0.1468  0.6879
  123MOL0     C16115   5.308   8.547   6.438 -0.2615 -0.3195 -0.6063
  123MOL0     C16116   5.410   8.601   6.334 -0.1703  0.4787  0.8317
  123MOL0     C16117   5.548   8.572   6.392  0.3530  0.1131 -0.1604
  123MOL0     C16118   5.671   8.600   6.296 -0.1568  0.0979 -0.2865
  123MOL0     C16119   5.800   8.604   6.381  0.2793 -0.2760 -1.2109
  123MOL0     C16120   5.914   8.616   6.275 -0.0552  0.4392  0.0089
  123MOL0     N16121   6.043   8.652   6.334  0.1776 -0.6511  0.0292
  123MOL0     C16122   6.096   8.621   6.456  0.8365  0.2737 -0.3673
  123MOL0     C16123   6.191   8.715   6.482 -0.3869  0.2718 -0.0946
  123MOL0     C16124   6.274   8.701   6.605 -0.0362  0.1684  1.0475
  123MOL0     C16125   6.424   8.676   6.577 -0.4495 -0.0606  0.2933
  123MOL0     C16126   6.460   8.543   6.515  0.6816  1.3817 -0.0636
  123MOL0     C16127   6.600   8.540   6.454  0.8066 -0.9513 -0.9881
  123MOL0     O16128   6.659   8.666   6.419 -0.4216 -0.8230  0.2090
  123MOL0     C16129   6.656   8.689   6.285  0.0881  0.1234  0.0001
  123MOL0     C16130   6.541   8.738   6.217 -1.1301  0.2053  0.1176
  123MOL0     C16131   6.541   8.773   6.078 -0.1756  0.6260 -0.2035
  123MOL0     C16132   6.664   8.748   6.010  0.0477 -0.6234 -0.4993
  123MOL0     C16133   6.664   8.755   5.861 -0.3231  0.4049  0.7482
  123MOL0     O16134   6.545   8.783   5.804 -0.0141 -0.3551  0.1112
  123MOL0     C16135   6.527   8.761   5.671 -0.4521 -0.8004 -0.2638
  123MOL0     C16136   6.569   8.850   5.572 -0.7371  0.7148 -0.1171
  123MOL0     C16137   6.550   8.808   5.437 -0.1169  0.7833 -0.4875
  123MOL0     C16138   6.495   8.678   5.398 -0.0026  0.3997 -0.0825
  123MOL0     O16139   6.468   8.660   5.267  0.3306 -0.0039  0.3780
  123MOL0     C16140   6.419   8.537   5.225  0.4606 -0.3112  0.1450
  123MOL0     C16141   6.369   8.567   5.081 -0.6916  0.0937  0.1233
  123MOL0     C16142   6.237   8.634   5.060 -0.5509 -0.4908 -0.4010
  123MOL0     C16143   6.200   8.653   4.914 -0.8400  0.5221  0.4808
  123MOL0     C16144   6.113   8.539   4.860 -0.5830 -0.0884  0.8227
  123MOL0     C16145   6.178   8.402   4.845 -0.2607  0.7788  0.3932
  123MOL0     C16146   6.119   8.311   4.739  0.4251  0.0006  0.9306
  123MOL0     C16147   6.130   8.359   4.596 -0.0980  0.0644  0.6044
  123MOL0    Cl16148   6.047   8.239   4.481 -0.4466  0.1852  0.0090
  123MOL0     C16149   6.450   8.594   5.509  0.1905 -0.2162  0.1472
  123MOL0     C16150   6.463   8.640   5.643  0.2646 -0.7676  0.5774
  123MOL0     O16151   6.767   8.726   5.795 -0.3188 -0.4944  0.3780
  123MOL0     C16152   6.771   8.690   6.078  0.1360 -0.9919  0.4263
  123MOL0     C16153   6.771   8.658   6.214 -0.5168 -0.0198  0.9838
  123MOL0     N16154   6.210   8.789   6.376  0.5341 -0.9869  0.2219
  123MOL0     N16155   6.111   8.760   6.294  0.1937  0.5875  0.6061
  123MOL0     C16156   5.298   8.079   6.404  0.1173 -0.2994 -0.2981
  123MOL0     C16157   5.328   7.947   6.368  0.9664 -0.2779 -0.6452
  123MOL0     C16158   5.398   7.546   6.194 -0.4210 -1.0381 -0.1813
  123MOL0     C16159   5.288   7.499   6.130 -0.0457 -0.5877  0.8104
  123MOL0     C16160   5.284   7.371   6.083 -0.0608  0.7806  0.8256
  123MOL0     C16161   5.376   7.280   6.128 -0.7991 -0.1517  0.1572
  123MOL0     O16162   5.359   7.150   6.086  0.0195 -0.5470  0.6034
  123MOL0     C16163   5.253   7.092   6.161  0.0811 -0.7528 -0.1489
  123MOL0     C16164   5.240   6.951   6.094  0.3586  0.4620  0.5012
  123MOL0     C16165   5.358   6.862   6.137  0.1653  0.2691 -0.9943
  123MOL0     C16166   5.328   6.713   6.133  1.3747 -0.1687  0.4596
  123MOL0     C16167   5.273   6.658   6.016  0.8085 -0.6417  0.1192
  123MOL0     C16168   5.189   6.626   5.927 -0.2281  0.6239  0.1631
  123MOL0     C16169   5.491   7.328   6.196  0.0463 -0.3038  1.2971
  123MOL0     C16170   5.509   7.464   6.228 -0.6296  0.0199  0.5243
  123MOL0     H16171   5.135   7.908   6.097 -1.1378  0.7894 -0.0276
  123MOL0     H16172   5.074   8.151   6.160  2.3155 -0.7529 -2.6506
  123MOL0     H16173   5.083   8.399   6.222  1.7204  2.0713 -0.4667
  123MOL0     H16174   5.256   8.380   6.219 -1.1073 -1.0315 -0.7879
  123MOL0     H16175   5.108   8.511   6.456 -1.8318  2.8198 -0.6267
  123MOL0     H16176   5.161   8.597   6.310 -0.9546  0.7975  1.7812
  123MOL0     H16177   5.339   8.455   6.489 -0.5263  0.0738  0.2903
  123MOL0     H16178   5.298   8.630   6.509 -0.1031  0.5389 -1.5518
  123MOL0     H16179   5.411   8.549   6.238 -3.5500  1.6802  0.0192
  123MOL0     H16180   5.399   8.704   6.299 -0.6978 -1.2346 -5.0187
  123MOL0     H16181   5.568   8.467   6.416  0.2172 -0.7714 -3.4409
  123MOL0     H16182   5.557   8.635   6.481  0.5460 -1.5610  1.0512
  123MOL0     H16183   5.652   8.693   6.243  0.6802 -0.1807 -1.1045
  123MOL0     H16184   5.677   8.524   6.217 -2.5605  0.5495 -1.0024
  123MOL0     H16185   5.798   8.687   6.452  1.7405  0.1159 -1.5902
  123MOL0     H16186   5.809   8.506   6.428  4.8157 -0.4402 -1.9573
  123MOL0     H16187   5.897   8.682   6.189  0.8898 -1.2835 -1.5584
  123MOL0     H16188   5.929   8.517   6.231  1.1855  2.2610 -4.1480
  123MOL0     H16189   6.062   8.532   6.507 -1.7862  0.6045 -1.3799
  123MOL0     H16190   6.233   8.615   6.659 -2.7470  2.6263  3.2907
  123MOL0     H16191   6.262   8.792   6.665  0.0624  0.2251  0.9813
  123MOL0     H16192   6.482   8.682   6.670  1.6709 -1.2251 -0.8897
  123MOL0     H16193   6.460   8.755   6.510 -0.2311 -0.5793 -0.2011
  123MOL0     H16194   6.435   8.462   6.584 -2.1047  2.3058  0.1586
  123MOL0     H16195   6.394   8.527   6.429  2.1401 -0.7717 -0.8881
  123MOL0     H16196   6.586   8.472   6.370  1.2477  1.8262 -3.4688
  123MOL0     H16197   6.663   8.475   6.516 -0.0435 -1.6972 -0.8904
  123MOL0     H16198   6.458   8.749   6.287 -0.7064 -1.9558  1.0697
  123MOL0     H16199   6.451   8.801   6.025 -0.9183 -0.5548  0.3973
  123MOL0     H16200   6.621   8.938   5.609  0.0790 -0.7685  2.5826
  123MOL0     H16201   6.574   8.870   5.351  1.1549  0.0588 -0.6779
  123MOL0     H16202   6.338   8.506   5.292  1.0743  1.1063  1.5897
  123MOL0     H16203   6.498   8.462   5.216  2.1652  1.4610 -0.4373
  123MOL0     H16204   6.358   8.478   5.018 -0.8944  0.3874 -0.2639
  123MOL0     H16205   6.453   8.625   5.042  2.0915 -1.9091  2.6363
  123MOL0     H16206   6.245   8.734   5.103 -3.5803 -0.3606  0.0389
  123MOL0     H16207   6.154   8.580   5.106  1.3482 -0.8721  2.8965
  123MOL0     H16208   6.141   8.744   4.904 -1.7148  0.0977  1.5220
  123MOL0     H16209   6.284   8.666   4.846 -2.7548  4.2331 -1.4882
  123MOL0     H16210   6.071   8.567   4.763 -1.5073 -1.1910  0.8831
  123MOL0     H16211   6.026   8.531   4.925 -1.1270  2.1216  0.4650
  123MOL0     H16212   6.198   8.357   4.943 -0.5270  1.6605  0.8686
  123MOL0     H16213   6.274   8.426   4.799 -0.2382 -1.3021 -0.7458
  123MOL0     H16214   6.172   8.216   4.734  4.7159  2.1634 -4.4705
  123MOL0     H16215   6.018   8.292   4.777  1.9091  0.4194  5.8397
  123MOL0     H16216   6.236   8.371   4.570  0.7883 -3.3475  2.0520
  123MOL0     H16217   6.083   8.456   4.578  0.6457  0.5961  1.4488
  123MOL0     H16218   6.400   8.501   5.483 -1.8428  0.8694  0.0625
  123MOL0     H16219   6.439   8.578   5.729  2.4689  0.1542  1.9479
  123MOL0     H16220   6.855   8.664   6.014  1.4039  0.5691  1.3657
  123MOL0     H16221   6.865   8.626   6.256 -0.1658  4.1151  3.8682
  123MOL0     H16222   5.341   8.120   6.495 -2.5233  1.0647  0.4311
  123MOL0     H16223   5.376   7.892   6.448  0.3047  2.5494  1.8841
  123MOL0     H16224   5.205   7.567   6.114  0.6130  0.0755  0.0995
  123MOL0     H16225   5.201   7.340   6.021 -0.3369  2.6634  0.1991
  123MOL0     H16226   5.159   7.144   6.142  0.3327 -0.7917 -1.5840
  123MOL0     H16227   5.273   7.087   6.269 -3.5833  2.7733  0.9163
  123MOL0     H16228   5.144   6.929   6.139  0.6707  0.2837  1.0840
  123MOL0     H16229   5.231   6.954   5.985 -0.8229 -0.2825  0.5741
  123MOL0     H16230   5.391   6.891   6.237  2.3553 -2.2791 -0.9016
  123MOL0     H16231   5.445   6.884   6.076 -0.0297 -1.3520 -1.8996
  123MOL0     H16232   5.417   6.654   6.156  0.6427 -0.5157  2.6753
  123MOL0     H16233   5.255   6.676   6.205 -1.2981  0.0277 -1.9748
  123MOL0     H16234   5.114   6.595   5.857  1.5747 -3.9364 -0.0668
  123MOL0     H16235   5.572   7.261   6.222 -1.0189 -2.7003 -0.9639
  123MOL0     H16236   5.594   7.489   6.289 -0.9234 -0.6538  1.2303
  124MOL0     O16237   5.380   8.251   9.887  0.3537  0.2152  0.5416
  124MOL0     C16238   5.314   8.164   9.826 -0.6584  0.9579  0.1590
  124MOL0     O16239   5.351   8.116   9.700 -0.0279 -0.6653 -0.2810
  124MOL0     C16240   5.468   8.154   9.643  1.0130  0.2998 -0.0960
  124MOL0     C16241   5.557   8.049   9.598 -1.1144  0.1342  0.0133
  124MOL0     C16242   5.670   8.078   9.520 -0.2729  0.2402 -0.3934
  124MOL0     C16243   5.706   8.214   9.486 -0.4775  0.1506 -1.3990
  124MOL0     O16244   5.802   8.258   9.408  0.4509  0.1969 -0.4954
  124MOL0     C16245   5.903   8.171   9.361  0.1236  0.2527  0.7534
  124MOL0     C16246   6.015   8.245   9.274  0.2971  1.1282 -0.7871
  124MOL0     C16247   6.098   8.334   9.375  0.3200  1.6408 -0.3504
  124MOL0     C16248   6.019   8.458   9.415  0.4880  0.0406 -1.1286
  124MOL0     C16249   6.119   8.585   9.453  0.1935 -0.0935 -0.3414
  124MOL0     C16250   6.184   8.579   9.597  0.8295  0.4482  0.2084
  124MOL0     C16251   6.097   8.634   9.711  0.3962 -0.1872 -0.2827
  124MOL0     C16252   6.151   8.602   9.846  0.9099 -1.6801 -0.2364
  124MOL0     N16253   6.114   8.465   9.888  0.1918  0.8361 -0.3811
  124MOL0     C16254   5.987   8.416   9.922  0.4535 -0.7840  0.0582
  124MOL0     C16255   6.008   8.284   9.939 -0.0184 -0.6443 -1.0847
  124MOL0     C16256   5.904   8.179   9.962  0.3275 -0.1853 -0.8203
  124MOL0     C16257   5.885   8.095   9.839 -0.5707 -1.3049 -0.3096
  124MOL0     C16258   5.768   7.990   9.863  0.2051  0.1265 -0.5754
  124MOL0     C16259   5.663   8.037   9.962  0.0157 -0.6933  0.2755
  124MOL0     O16260   5.546   7.957   9.983  0.5572 -0.8122  0.1716
  124MOL0     C16261   5.480   7.973  10.106 -0.2033  0.7381 -0.0726
  124MOL0     C16262   5.486   8.091  10.176  0.3432 -0.0238  0.1370
  124MOL0     C16263   5.419   8.104  10.293 -0.7155 -0.2981  0.0063
  124MOL0     C16264   5.346   7.999  10.349  0.0435 -0.2718 -0.5921
  124MOL0     C16265   5.285   8.008  10.482 -0.3841 -0.0222 -0.5351
  124MOL0     O16266   5.203   7.903  10.510  0.3134 -0.4389  0.9238
  124MOL0     C16267   5.151   7.884  10.635 -0.2878  0.0024 -0.0160
  124MOL0     C16268   5.018   7.825  10.644  0.2367  0.6419 -0.1364
  124MOL0     C16269   4.974   7.795  10.771  0.7006 -0.3532  0.2607
  124MOL0     C16270   5.049   7.808  10.885  0.9146 -0.4690  0.1117
  124MOL0     O16271   5.005   7.766  11.003 -0.3730 -0.1141  0.4160
  124MOL0     C16272   4.866   7.776  11.038  0.6939 -0.6763  0.2786
  124MOL0     C16273   4.824   7.911  11.105 -0.4894  0.1816 -0.1538
  124MOL0     C16274   4.696   7.884  11.178  0.2234 -0.3678 -0.2378
  124MOL0     C16275   4.574   7.822  11.102  0.0671 -0.6656 -0.8156
  124MOL0     C16276   4.450   7.879  11.173 -0.0289  0.1294  0.0676
  124MOL0     C16277   4.328   7.794  11.138  0.8992  0.2545 -0.4682
  124MOL0     C16278   4.189   7.838  11.183 -0.6100  0.4294  0.3334
  124MOL0     C16279   4.090   7.735  11.127 -0.0371 -0.1237  0.1439
  124MOL0    Cl16280   3.923   7.778  11.194 -0.1378  0.0890 -0.6180
  124MOL0     C16281   5.169   7.872  10.884 -0.2857 -0.7673 -0.0641
  124MOL0     C16282   5.219   7.909  10.756  0.2752  0.5429  1.3031
  124MOL0     O16283   5.314   8.110  10.549  0.0580  0.4482  0.3310
  124MOL0     C16284   5.333   7.880  10.271 -0.2075 -0.2550 -0.1579
  124MOL0     C16285   5.397   7.863  10.149  0.2669 -0.3428 -0.4279
  124MOL0     N16286   6.138   8.254   9.924  0.0533 -0.0300  0.4498
  124MOL0     N16287   6.200   8.363   9.894 -0.7437 -0.5225 -0.1292
  124MOL0     C16288   5.622   8.314   9.543  1.1977  0.0902  0.7424
  124MOL0     C16289   5.507   8.286   9.611 -0.9805 -0.2213  0.1920
  124MOL0     C16290   5.199   8.109   9.873 -0.7189 -0.3100 -0.7682
  124MOL0     C16291   5.177   7.966   9.848 -0.4963 -0.7680 -1.4084
  124MOL0     C16292   5.067   7.907   9.900 -0.5517  0.0354 -0.1141
  124MOL0     C16293   4.979   7.984   9.978 -0.3644  1.3676 -0.8233
  124MOL0     O16294   4.860   7.936  10.020 -0.5984  0.4683  0.4056
  124MOL0     C16295   4.862   7.806  10.072 -0.3725 -0.8288 -0.5065
  124MOL0     C16296   4.940   7.815  10.210 -0.1560  0.4963  1.2277
  124MOL0     C16297   4.897   7.935  10.293  0.0970  0.0015  0.6669
  124MOL0     C16298   4.751   7.942  10.342 -0.0987 -0.5759  0.0396
  124MOL0     C16299   4.714   7.830  10.417 -0.6294 -0.0960 -0.0651
  124MOL0     C16300   4.697   7.725  10.476 -0.0288 -0.2505 -0.7489
  124MOL0     C16301   4.998   8.118  10.008  0.5806  0.4296  0.4243
  124MOL0     C16302   5.111   8.184   9.953 -0.6496  0.7918 -1.5842
  124MOL0     H16303   5.531   7.944   9.597  0.5221 -0.3611 -3.5686
  124MOL0     H16304   5.736   7.999   9.488  2.1518  2.2204 -0.6088
  124MOL0     H16305   5.852   8.090   9.308 -1.4008  2.2708 -1.0434
  124MOL0     H16306   5.951   8.118   9.444  0.1285  0.3721  0.8262
  124MOL0     H16307   5.957   8.306   9.204 -5.5826  1.2695  3.4351
  124MOL0     H16308   6.078   8.171   9.225  2.1109  3.5326 -2.3015
  124MOL0     H16309   6.191   8.366   9.325 -1.0053  1.1146 -3.3855
  124MOL0     H16310   6.124   8.272   9.461 -2.0223  0.8490 -0.1723
  124MOL0     H16311   5.956   8.486   9.330 -1.5288 -2.2819 -0.5005
  124MOL0     H16312   5.958   8.431   9.502  0.7592 -3.4884 -1.8881
  124MOL0     H16313   6.051   8.669   9.434 -0.1064 -0.8626 -3.0400
  124MOL0     H16314   6.198   8.582   9.378  1.2358 -0.3282  0.7437
  124MOL0     H16315   6.275   8.639   9.603  0.3420  1.1087  1.2192
  124MOL0     H16316   6.213   8.476   9.620  3.3243  1.3244  1.3313
  124MOL0     H16317   6.089   8.742   9.697  0.9420  0.0052  0.8017
  124MOL0     H16318   5.994   8.601   9.696  0.5627 -0.7988 -0.0970
  124MOL0     H16319   6.120   8.682   9.914  3.7276  1.1716 -2.0330
  124MOL0     H16320   6.259   8.610   9.851  0.9096  0.3772 -1.9207
  124MOL0     H16321   5.890   8.464   9.924  0.7351 -0.0078 -2.1495
  124MOL0     H16322   5.819   8.238   9.997  0.7464  0.4959 -0.9319
  124MOL0     H16323   5.935   8.110  10.041 -1.1287  1.3720  1.2235
  124MOL0     H16324   5.977   8.041   9.814  0.4416  0.4259 -0.4811
  124MOL0     H16325   5.869   8.165   9.757  2.7114 -0.7463 -0.5969
  124MOL0     H16326   5.727   7.961   9.766  0.5997 -0.0056 -0.7042
  124MOL0     H16327   5.804   7.897   9.908  0.5486  1.9145  3.2433
  124MOL0     H16328   5.625   8.132   9.925  1.7375 -0.1686 -0.1937
  124MOL0     H16329   5.702   8.049  10.063 -1.9669 -0.7140  1.0874
  124MOL0     H16330   5.524   8.189  10.150 -0.9667 -0.3434 -3.7238
  124MOL0     H16331   5.430   8.199  10.345 -2.3282  0.4467 -0.9623
  124MOL0     H16332   4.962   7.812  10.552  1.2980  1.8127 -0.9804
  124MOL0     H16333   4.876   7.746  10.771  0.5031 -0.1375 -2.9737
  124MOL0     H16334   4.840   7.699  11.112 -1.6323 -0.4901 -0.2597
  124MOL0     H16335   4.788   7.767  10.962 -0.1129 -0.4197  1.0569
  124MOL0     H16336   4.816   7.981  11.021 -3.3365  0.7416  0.4758
  124MOL0     H16337   4.901   7.941  11.176  0.5508 -0.1848 -1.1010
  124MOL0     H16338   4.671   7.983  11.218  2.5582 -0.6197  2.0980
  124MOL0     H16339   4.723   7.815  11.258  2.7733  0.8004  0.0051
  124MOL0     H16340   4.576   7.851  10.996  1.1705 -2.1386 -1.2292
  124MOL0     H16341   4.579   7.713  11.105  0.2281 -0.6399  0.0149
  124MOL0     H16342   4.420   7.976  11.134 -0.2585 -0.5161 -1.4479
  124MOL0     H16343   4.466   7.872  11.281  1.8337 -1.4479 -0.2596
  124MOL0     H16344   4.359   7.698  11.181 -2.1710 -2.2994 -3.3724
  124MOL0     H16345   4.318   7.770  11.032 -1.9376 -0.5363 -0.1032
  124MOL0     H16346   4.187   7.834  11.292 -0.5188  0.6107  0.3423
  124MOL0     H16347   4.160   7.936  11.144  0.0011  0.9388  1.1192
  124MOL0     H16348   4.109   7.635  11.167 -2.2827  0.0356  1.8562
  124MOL0     H16349   4.095   7.720  11.018 -3.4742  0.6850 -0.2435
  124MOL0     H16350   5.230   7.908  10.966  0.9654  2.4842 -2.1954
  124MOL0     H16351   5.309   7.969  10.752  0.0346  0.9231  1.4677
  124MOL0     H16352   5.272   7.798  10.310  0.6128 -1.1827 -0.7686
  124MOL0     H16353   5.384   7.780  10.081 -0.4122 -0.3855 -0.2535
  124MOL0     H16354   5.654   8.414   9.516  1.1928  0.0532  0.6010
  124MOL0     H16355   5.447   8.366   9.652 -0.5587  0.6155 -0.7724
  124MOL0     H16356   5.244   7.902   9.791  1.1300 -0.3035 -0.0924
  124MOL0     H16357   5.051   7.801   9.883 -1.4299  0.1808 -0.2405
  124MOL0     H16358   4.898   7.723  10.011 -0.3262 -1.4470  0.3362
  124MOL0     H16359   4.758   7.778  10.092 -0.3696 -2.0389 -2.0241
  124MOL0     H16360   4.926   7.721  10.265 -0.7689  0.5159  1.1062
  124MOL0     H16361   5.047   7.838  10.205  0.2113 -1.3531 -1.4309
  124MOL0     H16362   4.913   8.030  10.240 -1.4899 -0.2783 -0.4096
  124MOL0     H16363   4.962   7.949  10.380  1.3927  2.5828 -0.5830
  124MOL0     H16364   4.727   8.029  10.404 -2.0492 -0.9310 -0.1346
  124MOL0     H16365   4.685   7.941  10.254 -0.0702 -1.4585  0.0192
  124MOL0     H16366   4.686   7.633  10.530 -1.3981  0.2007 -0.2033
  124MOL0     H16367   4.923   8.163  10.073  1.7394  1.3679  1.1583
  124MOL0     H16368   5.132   8.290   9.960 -1.4278  0.8755 -0.2202
  125MOL0     O16369   1.750   1.370   8.537  0.4670 -0.0983  0.5967
  125MOL0     C16370   1.841   1.299   8.579  0.3126 -0.6098  0.4413
  125MOL0     O16371   1.972   1.315   8.556  0.2356 -0.2316 -0.7101
  125MOL0     C16372   2.002   1.430   8.478 -0.6031  0.8639 -0.1764
  125MOL0     C16373   2.021   1.409   8.340 -1.0707  0.8509 -0.3820
  125MOL0     C16374   2.064   1.511   8.263 -0.1205  0.4832  0.6614
  125MOL0     C16375   2.093   1.634   8.323 -0.0950  0.5080  0.9873
  125MOL0     O16376   2.142   1.739   8.249 -0.6791 -0.7417 -0.2992
  125MOL0     C16377   2.090   1.753   8.116  0.9122 -0.2870  0.1362
  125MOL0     C16378   2.140   1.895   8.064 -0.9621 -0.4367 -0.8103
  125MOL0     C16379   2.093   1.931   7.915 -0.3261 -0.5849  0.4076
  125MOL0     C16380   1.942   1.917   7.901 -0.7406 -0.1490 -0.5182
  125MOL0     C16381   1.899   1.954   7.761  0.9553  0.2574  0.7861
  125MOL0     C16382   1.743   1.993   7.750 -0.8522 -0.6580 -0.5978
  125MOL0     C16383   1.642   1.886   7.766  0.0464  0.4040  0.4781
  125MOL0     C16384   1.591   1.835   7.628 -0.0073  0.1424 -0.0252
  125MOL0     N16385   1.480   1.746   7.626 -0.0754  0.0743  0.6683
  125MOL0     C16386   1.354   1.790   7.611 -0.3784  0.2504  0.3903
  125MOL0     C16387   1.275   1.677   7.627  0.9313 -0.5025  0.8877
  125MOL0     C16388   1.119   1.678   7.631  0.6201 -0.0750 -1.0127
  125MOL0     C16389   1.083   1.603   7.507  0.1095  0.0203  0.7681
  125MOL0     C16390   1.104   1.453   7.517 -0.4201  0.7904  0.2766
  125MOL0     C16391   1.016   1.363   7.417 -0.1246  0.0741  0.0460
  125MOL0     O16392   1.058   1.383   7.287  0.4351  0.0655 -0.0989
  125MOL0     C16393   0.977   1.334   7.189  0.9712 -0.8561  0.5291
  125MOL0     C16394   0.872   1.241   7.204 -0.8969  0.5373 -0.2599
  125MOL0     C16395   0.804   1.205   7.097  0.6404  0.0717  0.2946
  125MOL0     C16396   0.825   1.256   6.961  0.3291  0.0791  0.0694
  125MOL0     C16397   0.745   1.213   6.843  0.8882 -0.2460  0.1507
  125MOL0     O16398   0.666   1.099   6.866  0.5844  0.6968  0.0294
  125MOL0     C16399   0.589   1.060   6.761  0.4513  0.0422  0.8355
  125MOL0     C16400   0.489   1.143   6.719 -0.8164 -1.6597 -0.5012
  125MOL0     C16401   0.399   1.110   6.612 -1.3772 -0.0247 -0.2297
  125MOL0     C16402   0.428   0.990   6.546  0.7666 -0.4499  0.7047
  125MOL0     O16403   0.349   0.963   6.443  0.2844  0.8921  0.0858
  125MOL0     C16404   0.376   0.846   6.358 -0.0494  0.2376  0.3462
  125MOL0     C16405   0.293   0.855   6.233  0.4538  0.3818  0.8935
  125MOL0     C16406   0.141   0.856   6.257 -0.3472 -0.1387  0.6884
  125MOL0     C16407   0.097   0.715   6.283 -0.8453 -0.0335 -0.0073
  125MOL0     C16408  -0.058   0.693   6.279  0.0042  0.3105 -0.8723
  125MOL0     C16409  -0.098   0.540   6.271  0.3992 -0.2420 -0.4992
  125MOL0     C16410  -0.050   0.459   6.399 -0.4392  0.2579  0.0619
  125MOL0     C16411  -0.026   0.318   6.352  0.6899 -0.4469  0.6345
  125MOL0    Cl16412  -0.180   0.255   6.290  0.0233 -0.0370 -0.5572
  125MOL0     C16413   0.527   0.903   6.592 -0.0796  1.1705 -0.2921
  125MOL0     C16414   0.598   0.929   6.705  0.7616  0.3900  0.4331
  125MOL0     O16415   0.759   1.265   6.734  0.5133  0.2509  0.0971
  125MOL0     C16416   0.927   1.347   6.942 -0.2909 -0.2561  0.6089
  125MOL0     C16417   1.003   1.392   7.053  0.7808  0.4951  0.1601
  125MOL0     N16418   1.365   1.568   7.656 -0.0052  0.3881  1.3715
  125MOL0     N16419   1.489   1.610   7.641 -0.3823  0.1718 -0.6180
  125MOL0     C16420   2.072   1.650   8.455  0.2419 -0.7746 -0.7048
  125MOL0     C16421   2.022   1.551   8.539 -0.0982 -0.0008 -0.6728
  125MOL0     C16422   1.794   1.193   8.676  0.8838 -0.3802  1.0327
  125MOL0     C16423   1.888   1.122   8.753 -0.0732  0.4022  0.0786
  125MOL0     C16424   1.854   1.025   8.839 -0.9957  0.3717 -0.4129
  125MOL0     C16425   1.713   0.990   8.860 -0.5840  1.2496 -0.0307
  125MOL0     O16426   1.686   0.894   8.949 -0.1051  0.2506  0.6664
  125MOL0     C16427   1.710   0.930   9.086 -0.5824  0.2954  0.2410
  125MOL0     C16428   1.579   0.960   9.164  0.6211  1.0390 -0.2131
  125MOL0     C16429   1.491   0.849   9.216 -0.8424 -0.0845  0.5188
  125MOL0     C16430   1.464   0.714   9.133 -0.8760  0.3697 -0.3196
  125MOL0     C16431   1.408   0.735   9.005 -0.3066 -0.0834 -0.5574
  125MOL0     C16432   1.341   0.748   8.907  0.6891 -0.6869 -0.0332
  125MOL0     C16433   1.616   1.066   8.795 -0.9740 -0.8199  0.4406
  125MOL0     C16434   1.658   1.168   8.707  1.6045  0.5466  0.3805
  125MOL0     H16435   2.001   1.311   8.299  0.2448  0.1230  0.6097
  125MOL0     H16436   2.084   1.496   8.157  0.2091  5.4479 -0.2245
  125MOL0     H16437   1.982   1.744   8.104  0.9470  0.2497 -0.6235
  125MOL0     H16438   2.138   1.683   8.048 -3.2305 -1.0510 -2.3141
  125MOL0     H16439   2.249   1.903   8.054 -0.6322 -0.9499  1.5928
  125MOL0     H16440   2.100   1.965   8.139  1.2085 -2.6939  2.7548
  125MOL0     H16441   2.142   1.861   7.847 -1.2108  0.7806 -1.7522
  125MOL0     H16442   2.134   2.029   7.888 -0.9636 -0.6517 -0.8717
  125MOL0     H16443   1.908   1.814   7.912 -2.1086  0.2574 -0.6448
  125MOL0     H16444   1.896   1.987   7.972  0.5527 -2.2730  2.6393
  125MOL0     H16445   1.931   1.876   7.691 -0.2338 -0.2517  0.7817
  125MOL0     H16446   1.956   2.043   7.733  0.5171 -0.8396 -4.5527
  125MOL0     H16447   1.734   2.024   7.646  0.1507  2.3451  0.1036
  125MOL0     H16448   1.712   2.081   7.807 -1.9253 -2.8523  2.5302
  125MOL0     H16449   1.681   1.804   7.827 -1.2710 -1.0824 -0.5928
  125MOL0     H16450   1.558   1.916   7.830 -3.4439 -1.2591 -2.8948
  125MOL0     H16451   1.672   1.803   7.562 -1.0933  0.2953 -1.4625
  125MOL0     H16452   1.553   1.928   7.584 -0.2469  0.0329 -0.0461
  125MOL0     H16453   1.315   1.889   7.589 -0.8486  0.7365  3.0960
  125MOL0     H16454   1.078   1.779   7.620 -0.4444 -0.5914 -2.0732
  125MOL0     H16455   1.072   1.634   7.719 -3.8564 -2.8795 -4.3971
  125MOL0     H16456   1.148   1.632   7.423 -1.3782 -0.7527 -0.7110
  125MOL0     H16457   0.982   1.627   7.472 -0.0651 -0.2656  1.0787
  125MOL0     H16458   1.206   1.421   7.491  0.1122  1.3090  1.6175
  125MOL0     H16459   1.099   1.416   7.620 -0.5868 -1.6040 -0.5206
  125MOL0     H16460   0.909   1.386   7.424 -0.3425 -0.9127  0.1210
  125MOL0     H16461   1.011   1.257   7.443 -3.9814 -0.1411 -0.9590
  125MOL0     H16462   0.852   1.204   7.304  1.9778 -0.6246 -0.0184
  125MOL0     H16463   0.718   1.141   7.113  0.1859  0.0138 -2.0161
  125MOL0     H16464   0.471   1.244   6.754  2.5161 -1.9448  2.6149
  125MOL0     H16465   0.318   1.178   6.588 -1.2109  0.8682  1.5119
  125MOL0     H16466   0.353   0.752   6.408 -1.5904  0.6937  0.5591
  125MOL0     H16467   0.479   0.849   6.322 -0.0291 -2.0919  0.0535
  125MOL0     H16468   0.312   0.759   6.184 -0.9095 -1.4142  3.6737
  125MOL0     H16469   0.314   0.942   6.170 -0.4529 -0.2516 -0.3280
  125MOL0     H16470   0.094   0.895   6.166  1.9480 -3.1002 -1.9921
  125MOL0     H16471   0.106   0.911   6.345  1.5056  1.7056  0.3494
  125MOL0     H16472   0.146   0.636   6.225  2.4728  1.0571  1.0804
  125MOL0     H16473   0.125   0.691   6.386 -1.3753  0.9805  0.3901
  125MOL0     H16474  -0.107   0.748   6.198 -0.0957 -0.2097 -1.1674
  125MOL0     H16475  -0.093   0.736   6.374 -1.1592  1.8476 -1.9426
  125MOL0     H16476  -0.057   0.509   6.175 -0.6284  0.6485 -1.2576
  125MOL0     H16477  -0.208   0.535   6.266  0.3861 -2.0459  0.6315
  125MOL0     H16478   0.038   0.505   6.447 -0.8072  0.9386  0.0938
  125MOL0     H16479  -0.133   0.465   6.470 -2.2299  1.4026 -2.0088
  125MOL0     H16480   0.008   0.258   6.437  3.5555 -0.2373 -0.2279
  125MOL0     H16481   0.056   0.317   6.279 -1.8558  1.0704 -2.4790
  125MOL0     H16482   0.554   0.808   6.546 -2.0906  1.8290 -3.1540
  125MOL0     H16483   0.669   0.853   6.736 -0.4705 -0.8316  0.3580
  125MOL0     H16484   0.940   1.377   6.838 -2.7608 -3.9406 -0.9468
  125MOL0     H16485   1.076   1.473   7.060  0.0236  1.1205  0.9952
  125MOL0     H16486   2.098   1.749   8.493 -0.2170  1.5666 -5.7135
  125MOL0     H16487   2.026   1.558   8.647 -1.9982  1.9608 -0.6716
  125MOL0     H16488   1.993   1.137   8.733  0.1334 -0.7082  0.2451
  125MOL0     H16489   1.924   0.960   8.890 -2.8046 -0.1530  1.5399
  125MOL0     H16490   1.769   1.022   9.085 -0.8000  0.4493 -1.3418
  125MOL0     H16491   1.762   0.850   9.139 -2.4129 -1.3753 -0.3383
  125MOL0     H16492   1.606   1.022   9.250 -0.7258  2.0789 -0.4901
  125MOL0     H16493   1.513   1.015   9.095  0.6320 -0.5978 -1.5959
  125MOL0     H16494   1.396   0.903   9.222  0.0988  1.6892  0.2720
  125MOL0     H16495   1.520   0.825   9.319 -0.4029  2.4683  1.0722
  125MOL0     H16496   1.560   0.661   9.128 -0.2166  0.9222  3.6572
  125MOL0     H16497   1.408   0.641   9.192  0.6301 -0.6058 -0.0158
  125MOL0     H16498   1.271   0.758   8.826  1.1796  2.5047 -0.2232
  125MOL0     H16499   1.511   1.041   8.794 -1.8447  2.3724  0.9032
  125MOL0     H16500   1.574   1.232   8.682  0.7919 -0.0158  1.5450
  126MOL0     O16501   0.043   4.181   0.234  0.3414  0.1179 -0.4588
  126MOL0     C16502  -0.079   4.154   0.238 -0.7342  0.9452  0.2968
  126MOL0     O16503  -0.135   4.054   0.173  0.3866  0.0531  0.3755
  126MOL0     C16504  -0.081   3.995   0.062  0.0218  0.4783  0.6865
  126MOL0     C16505  -0.146   3.991  -0.065  0.5684  0.9848 -0.2574
  126MOL0     C16506  -0.078   3.948  -0.184  0.0676 -0.3755 -0.7361
  126MOL0     C16507   0.046   3.887  -0.168  0.4487  0.1964 -0.0081
  126MOL0     O16508   0.115   3.833  -0.279  0.3067 -0.2042  0.4138
  126MOL0     C16509   0.079   3.884  -0.413  0.4393  0.0162  0.0834
  126MOL0     C16510   0.120   3.805  -0.534 -0.4613  0.7427 -0.4939
  126MOL0     C16511   0.268   3.759  -0.508  0.1888  0.7182 -0.9130
  126MOL0     C16512   0.336   3.667  -0.608 -0.7364  0.3160  0.0711
  126MOL0     C16513   0.359   3.718  -0.746 -0.0109  0.8083  0.4531
  126MOL0     C16514   0.368   3.618  -0.869 -0.3033 -1.1488 -0.6769
  126MOL0     C16515   0.476   3.516  -0.853 -0.4598  0.7350 -0.0151
  126MOL0     C16516   0.507   3.423  -0.968  0.4019 -1.4244  0.3753
  126MOL0     N16517   0.383   3.348  -1.005 -0.6740  1.0205 -0.6725
  126MOL0     C16518   0.348   3.334  -1.136 -0.2148  0.2159  0.4741
  126MOL0     C16519   0.234   3.262  -1.134  0.8308  1.1167 -0.2092
  126MOL0     C16520   0.140   3.231  -1.251 -0.4093  0.0868  0.2451
  126MOL0     C16521   0.012   3.328  -1.250  0.4277 -0.8778 -0.1555
  126MOL0     C16522   0.036   3.483  -1.270 -1.0072  0.1707 -0.6080
  126MOL0     C16523   0.118   3.555  -1.151  0.4251  0.3954 -0.4166
  126MOL0     O16524   0.083   3.692  -1.165 -0.1727  0.5474 -0.1812
  126MOL0     C16525   0.001   3.760  -1.081 -0.3236  1.0629 -0.0213
  126MOL0     C16526  -0.084   3.692  -0.988  1.0242  0.3639 -0.0628
  126MOL0     C16527  -0.173   3.774  -0.914 -0.2885 -0.1405 -0.3681
  126MOL0     C16528  -0.171   3.916  -0.921 -0.3396  1.4268 -0.6807
  126MOL0     C16529  -0.265   3.992  -0.839  0.6179  0.1274  0.1090
  126MOL0     O16530  -0.344   3.935  -0.752  0.3475  0.2441  0.3330
  126MOL0     C16531  -0.429   3.999  -0.676 -0.4504  0.3819 -0.6340
  126MOL0     C16532  -0.397   4.050  -0.546 -0.1537  0.1062  0.8090
  126MOL0     C16533  -0.499   4.113  -0.466  0.1987 -0.0443  0.8259
  126MOL0     C16534  -0.629   4.135  -0.517 -1.1002 -0.8314  0.1481
  126MOL0     O16535  -0.712   4.199  -0.429 -0.1134 -0.4669  0.1402
  126MOL0     C16536  -0.827   4.266  -0.477  0.1733 -0.5917 -0.6031
  126MOL0     C16537  -0.898   4.320  -0.355  0.0326 -1.2723 -0.9525
  126MOL0     C16538  -0.992   4.221  -0.286  0.7538 -1.1326  0.5889
  126MOL0     C16539  -1.084   4.285  -0.186 -0.3977 -0.7611  0.9499
  126MOL0     C16540  -1.148   4.191  -0.082 -0.6998 -0.8724 -0.1472
  126MOL0     C16541  -1.227   4.287   0.010  0.6025 -1.0156 -0.2614
  126MOL0     C16542  -1.281   4.218   0.142  0.2218 -1.0287  0.5067
  126MOL0     C16543  -1.356   4.090   0.101  0.1304  0.0713 -0.5636
  126MOL0    Cl16544  -1.405   3.997   0.265 -0.0950  0.0045  0.4022
  126MOL0     C16545  -0.659   4.088  -0.648 -0.2819 -0.4657  0.6435
  126MOL0     C16546  -0.569   4.013  -0.722  0.0293  0.3317  0.5549
  126MOL0     O16547  -0.261   4.111  -0.852 -0.3161 -0.4797  0.2135
  126MOL0     C16548  -0.079   3.974  -1.002  1.3963 -0.0383  0.5432
  126MOL0     C16549   0.005   3.895  -1.077  1.0949  0.1689  0.3650
  126MOL0     N16550   0.210   3.219  -0.999  0.7801  0.5710  0.2870
  126MOL0     N16551   0.297   3.273  -0.920  0.2220  0.8509  0.4714
  126MOL0     C16552   0.108   3.878  -0.042 -0.2134  0.8579  0.6549
  126MOL0     C16553   0.044   3.938   0.061  0.2564 -0.0219 -1.3562
  126MOL0     C16554  -0.165   4.225   0.325  0.0466 -0.2949 -0.5664
  126MOL0     C16555  -0.151   4.366   0.351 -0.5988 -0.1741  0.1362
  126MOL0     C16556  -0.254   4.440   0.420  0.7048 -0.5147  0.1252
  126MOL0     C16557  -0.359   4.373   0.477  0.6811  0.1721 -0.7818
  126MOL0     O16558  -0.455   4.441   0.557 -0.7156  0.1700 -0.4469
  126MOL0     C16559  -0.485   4.378   0.688  0.1676 -0.6176 -0.1311
  126MOL0     C16560  -0.636   4.366   0.705  0.0671 -0.2474  0.1281
  126MOL0     C16561  -0.669   4.268   0.807  0.1019  0.5483 -0.2112
  126MOL0     C16562  -0.823   4.284   0.843 -0.2462 -0.5221 -0.0122
  126MOL0     C16563  -0.882   4.178   0.918 -0.2652  0.0355 -0.6062
  126MOL0     C16564  -0.949   4.094   0.987  0.5041 -0.3908 -0.3120
  126MOL0     C16565  -0.363   4.231   0.461 -0.6751  0.4472 -0.0703
  126MOL0     C16566  -0.277   4.162   0.378 -0.1790  1.0327 -0.0159
  126MOL0     H16567  -0.235   4.053  -0.075  1.6700  2.4537 -1.5176
  126MOL0     H16568  -0.133   3.958  -0.277  0.6231 -0.4384 -1.0773
  126MOL0     H16569   0.138   3.975  -0.427  1.1004 -0.3785  0.2671
  126MOL0     H16570  -0.027   3.900  -0.434 -0.3944 -4.0342  0.4656
  126MOL0     H16571   0.120   3.866  -0.624  0.0173  2.1375  0.4243
  126MOL0     H16572   0.049   3.722  -0.540  0.8791 -0.4440 -0.5467
  126MOL0     H16573   0.280   3.694  -0.421  1.6829  3.9906  1.5588
  126MOL0     H16574   0.330   3.847  -0.487  2.3187 -0.5974 -1.3954
  126MOL0     H16575   0.425   3.627  -0.560 -0.3423  0.6624 -0.3649
  126MOL0     H16576   0.272   3.579  -0.617  2.2175 -1.8111 -1.4864
  126MOL0     H16577   0.435   3.796  -0.749 -3.5148  4.6109 -3.3686
  126MOL0     H16578   0.272   3.779  -0.772 -1.0384  0.0534  2.0063
  126MOL0     H16579   0.391   3.683  -0.954 -2.4265  0.1795 -0.3152
  126MOL0     H16580   0.270   3.574  -0.891 -1.8664  2.4347 -1.5566
  126MOL0     H16581   0.571   3.570  -0.845  0.6022 -1.2290  1.6674
  126MOL0     H16582   0.464   3.460  -0.760  1.0159 -1.8731 -1.2969
  126MOL0     H16583   0.591   3.355  -0.950  0.0161 -2.2922 -0.9080
  126MOL0     H16584   0.535   3.483  -1.055  0.2988 -1.1348  0.5414
  126MOL0     H16585   0.382   3.398  -1.217 -1.1042  0.6723  0.4425
  126MOL0     H16586   0.104   3.128  -1.255  0.6346 -0.3177  0.8426
  126MOL0     H16587   0.186   3.252  -1.348  2.1161 -0.6121  1.2138
  126MOL0     H16588  -0.034   3.317  -1.151 -0.2769  0.0816 -0.3638
  126MOL0     H16589  -0.053   3.290  -1.329  1.2272  0.4700 -1.5081
  126MOL0     H16590   0.091   3.489  -1.364  2.1493  3.0168  1.1511
  126MOL0     H16591  -0.064   3.523  -1.289 -2.0623 -3.2547 -3.3682
  126MOL0     H16592   0.224   3.538  -1.172  1.1720  1.3280  2.1790
  126MOL0     H16593   0.095   3.518  -1.050  0.9219 -0.1104 -0.4795
  126MOL0     H16594  -0.093   3.585  -0.974  1.2410  0.5499  1.8196
  126MOL0     H16595  -0.244   3.718  -0.854 -0.6803  2.0204  1.3115
  126MOL0     H16596  -0.293   4.053  -0.516  0.3684 -1.3434 -0.6886
  126MOL0     H16597  -0.469   4.150  -0.369 -1.1041 -1.8136  1.9679
  126MOL0     H16598  -0.897   4.202  -0.531 -1.0768 -1.1570  1.5388
  126MOL0     H16599  -0.813   4.348  -0.548 -3.1180 -0.3845 -1.1634
  126MOL0     H16600  -0.962   4.401  -0.390 -2.4921 -1.4560  2.6651
  126MOL0     H16601  -0.830   4.367  -0.283 -0.8680  2.1731 -2.1629
  126MOL0     H16602  -0.931   4.145  -0.237 -0.7889 -3.3758 -0.7828
  126MOL0     H16603  -1.052   4.172  -0.364 -0.1251  1.1187 -0.2444
  126MOL0     H16604  -1.034   4.370  -0.139  2.1382 -1.7409  0.1933
  126MOL0     H16605  -1.170   4.318  -0.246  1.0518  2.0232  0.2408
  126MOL0     H16606  -1.070   4.141  -0.024  1.0050  1.9489  0.1781
  126MOL0     H16607  -1.219   4.118  -0.124  0.9649 -2.1341 -0.8990
  126MOL0     H16608  -1.315   4.315  -0.048  0.3788 -1.5448 -0.1816
  126MOL0     H16609  -1.167   4.372   0.044 -0.0684 -0.4781 -0.3883
  126MOL0     H16610  -1.205   4.190   0.214 -0.2992 -4.5066 -0.1062
  126MOL0     H16611  -1.349   4.285   0.195 -3.0056 -1.6197 -2.4716
  126MOL0     H16612  -1.301   4.026   0.032  1.3145  1.7023 -1.2081
  126MOL0     H16613  -1.448   4.123   0.052  0.4445  2.1138  0.1272
  126MOL0     H16614  -0.757   4.089  -0.694 -1.3023  0.4245  2.7290
  126MOL0     H16615  -0.609   3.964  -0.811 -0.1470 -1.1779  1.4250
  126MOL0     H16616  -0.079   4.078  -1.033  1.1916 -1.0751 -3.5851
  126MOL0     H16617   0.073   3.940  -1.149  3.4775 -3.4116  0.0889
  126MOL0     H16618   0.210   3.844  -0.025 -0.1321  1.2976  1.0583
  126MOL0     H16619   0.096   3.936   0.156  0.8098 -1.9012 -1.6627
  126MOL0     H16620  -0.066   4.418   0.307 -0.6973  0.8287  1.0951
  126MOL0     H16621  -0.242   4.544   0.446 -0.9512 -0.5731  1.2316
  126MOL0     H16622  -0.455   4.449   0.765  0.1425  0.0099 -0.6960
  126MOL0     H16623  -0.437   4.281   0.707  0.5233 -0.5920 -0.8381
  126MOL0     H16624  -0.684   4.462   0.727 -2.4678 -1.5183  0.4928
  126MOL0     H16625  -0.673   4.333   0.608  2.4103 -1.2900 -0.4898
  126MOL0     H16626  -0.607   4.284   0.895  0.4921 -1.4715 -0.0772
  126MOL0     H16627  -0.637   4.166   0.782  0.5767  0.7265 -0.3386
  126MOL0     H16628  -0.850   4.384   0.878 -1.4432 -0.5394 -0.8144
  126MOL0     H16629  -0.881   4.287   0.750 -0.3113  2.0304  0.0405
  126MOL0     H16630  -0.999   4.020   1.046  0.0309  0.0475 -0.1467
  126MOL0     H16631  -0.444   4.191   0.521  0.4381 -0.2644  1.0157
  126MOL0     H16632  -0.285   4.054   0.374 -3.8588  1.1396  0.6647
  127MOL0     O16633  11.218   6.123   1.885 -0.4317  0.2609 -0.1279
  127MOL0     C16634  11.272   6.109   1.776  0.5104  0.0336 -0.3853
  127MOL0     O16635  11.298   5.991   1.719  0.1141 -0.3049  0.3524
  127MOL0     C16636  11.254   5.878   1.776 -1.6452 -0.2811 -0.2142
  127MOL0     C16637  11.332   5.796   1.857  0.1653 -0.3590  0.0775
  127MOL0     C16638  11.285   5.680   1.910  0.3587  0.3032  0.0234
  127MOL0     C16639  11.159   5.629   1.876 -1.2952 -1.1439  0.4872
  127MOL0     O16640  11.142   5.509   1.933 -0.5454  0.1687 -0.2271
  127MOL0     C16641  11.010   5.445   1.906 -0.7806 -0.4551 -0.3024
  127MOL0     C16642  10.979   5.323   1.992  0.0569  0.3370  0.7014
  127MOL0     C16643  10.835   5.281   1.951 -0.5718 -0.0414 -0.6670
  127MOL0     C16644  10.787   5.170   2.040 -0.5411  0.3758 -0.6438
  127MOL0     C16645  10.641   5.170   2.001 -0.5409 -0.3855  0.6003
  127MOL0     C16646  10.581   5.043   2.071  0.2748  0.2084 -0.5111
  127MOL0     C16647  10.432   5.026   2.059  0.5813  0.3503  0.4920
  127MOL0     C16648  10.379   4.933   2.175 -0.3122 -0.3288  0.9454
  127MOL0     N16649  10.238   4.893   2.147 -1.3811  0.4230  0.3086
  127MOL0     C16650  10.213   4.789   2.064 -0.2643  0.2121  0.1006
  127MOL0     C16651  10.089   4.759   2.099 -1.2368 -0.4700  0.2606
  127MOL0     C16652  10.032   4.637   2.051  1.2890  0.1960 -0.7433
  127MOL0     C16653  10.007   4.544   2.169  0.5291  0.1935 -0.1360
  127MOL0     C16654   9.918   4.429   2.128  0.1444 -0.2111  0.4551
  127MOL0     C16655   9.886   4.341   2.247  0.0550  0.4984  0.1798
  127MOL0     O16656   9.825   4.229   2.182 -0.6115 -0.3251 -0.1526
  127MOL0     C16657   9.779   4.120   2.238 -0.0600  0.0553 -0.2208
  127MOL0     C16658   9.794   4.086   2.375 -0.0603  0.1194  0.4328
  127MOL0     C16659   9.737   3.971   2.417 -0.3317  0.0766 -0.3450
  127MOL0     C16660   9.659   3.884   2.339  0.3478  0.3063 -0.3195
  127MOL0     C16661   9.604   3.759   2.391  0.8613 -0.0579 -0.2299
  127MOL0     O16662   9.652   3.711   2.515  0.2207  0.6670 -0.7999
  127MOL0     C16663   9.589   3.611   2.581 -0.2902  0.4178 -1.3417
  127MOL0     C16664   9.559   3.494   2.516  0.5197 -0.4244 -0.1592
  127MOL0     C16665   9.482   3.393   2.585 -1.0554  1.0603  0.3374
  127MOL0     C16666   9.447   3.412   2.718  0.7220 -0.0422  1.0046
  127MOL0     O16667   9.375   3.307   2.780 -0.5096 -0.6103  0.8771
  127MOL0     C16668   9.297   3.321   2.894 -0.3782  0.6544 -0.0491
  127MOL0     C16669   9.231   3.188   2.919  0.2241  0.1534  0.4283
  127MOL0     C16670   9.126   3.145   2.816  0.4245 -0.2759 -0.9723
  127MOL0     C16671   9.083   3.006   2.850  0.8512  0.3890 -0.2558
  127MOL0     C16672   8.945   2.977   2.799  0.0205 -0.4468  1.0620
  127MOL0     C16673   8.895   2.831   2.808 -0.6261 -0.7703  0.5131
  127MOL0     C16674   8.879   2.769   2.945 -0.9549 -0.5574 -0.1316
  127MOL0     C16675   8.750   2.805   3.006  0.4427 -0.5907  0.9662
  127MOL0    Cl16676   8.607   2.737   2.929 -0.0650  0.5771  0.0629
  127MOL0     C16677   9.487   3.533   2.781  0.2420 -0.4536 -0.5076
  127MOL0     C16678   9.564   3.623   2.714  0.1542 -0.5537  0.6469
  127MOL0     O16679   9.512   3.712   2.323 -0.6058 -0.5376 -0.1203
  127MOL0     C16680   9.631   3.932   2.214 -0.6665  0.1732 -0.1262
  127MOL0     C16681   9.697   4.044   2.156 -0.5046  0.4899 -0.4422
  127MOL0     N16682  10.039   4.847   2.187  0.0165 -0.1100  0.4733
  127MOL0     N16683  10.136   4.921   2.218  0.0347 -0.1515 -0.3390
  127MOL0     C16684  11.079   5.705   1.793 -0.0837 -1.1583  0.0902
  127MOL0     C16685  11.120   5.836   1.743  0.0277 -0.5740 -0.6109
  127MOL0     C16686  11.342   6.236   1.717 -0.0052  0.0088 -1.3725
  127MOL0     C16687  11.421   6.237   1.606 -0.1724  0.1309 -0.7407
  127MOL0     C16688  11.484   6.351   1.569  0.6515  0.2815 -0.2770
  127MOL0     C16689  11.463   6.471   1.626  0.1328 -0.2370  0.7633
  127MOL0     O16690  11.506   6.591   1.579  0.6191 -0.5709  0.1651
  127MOL0     C16691  11.588   6.597   1.457  0.1613  1.6015 -1.9156
  127MOL0     C16692  11.635   6.742   1.447  0.0756 -0.7169  0.1467
  127MOL0     C16693  11.522   6.842   1.391  0.0421 -1.0812  0.2236
  127MOL0     C16694  11.409   6.881   1.487  0.7845  0.5972  0.5865
  127MOL0     C16695  11.331   6.997   1.440 -0.3362 -1.6714 -0.1259
  127MOL0     C16696  11.251   7.087   1.419  0.3641  0.1279 -0.1392
  127MOL0     C16697  11.382   6.478   1.741 -0.0568  0.4178  0.5297
  127MOL0     C16698  11.318   6.366   1.778 -0.9375  0.4741 -0.0980
  127MOL0     H16699  11.433   5.823   1.888 -0.3502 -0.1612  1.6922
  127MOL0     H16700  11.345   5.622   1.979  0.4258 -0.6628 -0.8293
  127MOL0     H16701  11.000   5.438   1.797  0.6262  5.3280 -1.1389
  127MOL0     H16702  10.941   5.526   1.935  1.3393  2.3155 -2.4081
  127MOL0     H16703  10.982   5.362   2.094  3.0646  1.3691  0.3346
  127MOL0     H16704  11.054   5.244   1.977  0.2376  0.6390 -0.0443
  127MOL0     H16705  10.841   5.250   1.846 -0.7335 -0.0544 -0.6730
  127MOL0     H16706  10.772   5.371   1.952 -2.7361 -1.4095 -2.7347
  127MOL0     H16707  10.834   5.073   2.022 -1.9633  0.0466 -2.9479
  127MOL0     H16708  10.805   5.178   2.148  1.7867 -2.2266 -0.7187
  127MOL0     H16709  10.637   5.161   1.892  1.4721 -1.7704  0.5828
  127MOL0     H16710  10.599   5.267   2.028  3.0033  0.9169  1.9782
  127MOL0     H16711  10.595   5.062   2.178  1.2870 -0.8842 -0.4280
  127MOL0     H16712  10.621   4.945   2.042  1.6408  0.4152  0.5543
  127MOL0     H16713  10.376   5.119   2.068 -1.3461 -0.4969 -1.5522
  127MOL0     H16714  10.409   4.993   1.958 -0.4663  2.2815  0.0647
  127MOL0     H16715  10.373   4.974   2.277 -1.7980  0.4299  0.5947
  127MOL0     H16716  10.435   4.840   2.168 -0.4116 -0.2655 -3.2983
  127MOL0     H16717  10.282   4.729   2.005  1.9078 -0.6441  3.2031
  127MOL0     H16718  10.096   4.586   1.978  0.9239 -2.2217  0.5603
  127MOL0     H16719   9.932   4.661   2.014  0.8233  0.7476  0.8112
  127MOL0     H16720   9.956   4.599   2.250  1.8057 -0.7456  1.3740
  127MOL0     H16721  10.096   4.505   2.219 -1.6997 -1.9215  2.5721
  127MOL0     H16722   9.833   4.470   2.072  0.3486  0.0024  0.2964
  127MOL0     H16723   9.971   4.373   2.049 -3.2688 -0.6803 -1.7212
  127MOL0     H16724   9.831   4.395   2.324  1.4486  1.4216  0.5620
  127MOL0     H16725   9.976   4.298   2.291  0.0972 -2.4235 -2.3628
  127MOL0     H16726   9.860   4.140   2.442  0.6849 -3.1507  2.6228
  127MOL0     H16727   9.775   3.933   2.512  3.0037  2.1005 -0.7292
  127MOL0     H16728   9.577   3.482   2.409 -5.7187  0.8067 -1.7406
  127MOL0     H16729   9.442   3.306   2.534  0.0522 -0.7937  2.4519
  127MOL0     H16730   9.219   3.396   2.881 -0.7271  0.5173  1.0951
  127MOL0     H16731   9.355   3.349   2.983  1.4732 -1.9281 -0.3236
  127MOL0     H16732   9.194   3.203   3.021  1.8531  0.3121  1.0342
  127MOL0     H16733   9.311   3.113   2.925  0.3108  0.3205  1.8933
  127MOL0     H16734   9.168   3.139   2.716 -0.6637  1.3179 -1.5801
  127MOL0     H16735   9.041   3.215   2.823 -0.0842 -1.0159  0.6935
  127MOL0     H16736   9.147   2.940   2.791 -3.5455 -3.5099 -1.3227
  127MOL0     H16737   9.079   2.999   2.959 -2.1699  2.6540 -0.0846
  127MOL0     H16738   8.934   3.016   2.698 -0.4342  0.5420  1.4828
  127MOL0     H16739   8.877   3.044   2.852  1.3755 -0.1552  2.5330
  127MOL0     H16740   8.961   2.786   2.733 -0.8270 -0.2749  0.0355
  127MOL0     H16741   8.799   2.811   2.761 -0.0274 -1.0866 -0.6073
  127MOL0     H16742   8.888   2.661   2.959  1.6792 -0.1930  1.7044
  127MOL0     H16743   8.952   2.817   3.010  0.1626 -0.0618 -1.6816
  127MOL0     H16744   8.747   2.913   3.026  0.8888 -0.6878  1.5754
  127MOL0     H16745   8.746   2.753   3.102  2.4673 -0.5605  1.0961
  127MOL0     H16746   9.460   3.564   2.882 -1.2723  2.1662 -1.6100
  127MOL0     H16747   9.586   3.709   2.777 -1.6299  1.5534 -1.3962
  127MOL0     H16748   9.576   3.856   2.159 -1.7891  0.5183  0.4846
  127MOL0     H16749   9.696   4.052   2.047 -2.4964 -1.1483 -0.6075
  127MOL0     H16750  10.976   5.678   1.774 -0.7059  0.9326  0.2252
  127MOL0     H16751  11.064   5.901   1.677  5.7562  2.7465 -2.9518
  127MOL0     H16752  11.461   6.150   1.555  0.3286  0.1548 -0.4010
  127MOL0     H16753  11.561   6.344   1.493  1.0716  0.0348  0.1693
  127MOL0     H16754  11.527   6.562   1.374 -0.1311  2.8621 -2.2464
  127MOL0     H16755  11.676   6.532   1.454  0.1198  1.2978  0.7999
  127MOL0     H16756  11.675   6.778   1.542  0.8925 -1.9348  0.2935
  127MOL0     H16757  11.714   6.752   1.371 -1.6407  1.5866 -1.4690
  127MOL0     H16758  11.469   6.802   1.304 -0.1722 -1.4151  0.5097
  127MOL0     H16759  11.568   6.937   1.361 -3.7527  0.7798 -0.4371
  127MOL0     H16760  11.344   6.797   1.514 -1.8379  2.5041  0.6321
  127MOL0     H16761  11.461   6.912   1.578  1.5602 -1.7049  0.9807
  127MOL0     H16762  11.195   7.178   1.413  0.4311  0.0926 -1.4848
  127MOL0     H16763  11.375   6.573   1.792  1.3960 -0.4219  2.4384
  127MOL0     H16764  11.258   6.373   1.868 -0.4542  1.6241  0.1546
  128MOL0     O16765   5.773   1.767  10.971  0.3600 -0.2003  0.8408
  128MOL0     C16766   5.697   1.750  11.061  0.4676  0.7682 -0.3897
  128MOL0     O16767   5.560   1.750  11.064  0.9584 -0.7221 -0.0847
  128MOL0     C16768   5.483   1.743  10.953  0.3129 -0.1254  0.3506
  128MOL0     C16769   5.368   1.658  10.953 -0.3676 -0.8279  1.0126
  128MOL0     C16770   5.289   1.653  10.837  0.1481  0.2900 -0.0869
  128MOL0     C16771   5.317   1.736  10.727  0.7392  0.0440 -0.2278
  128MOL0     O16772   5.251   1.733  10.605 -0.2749 -0.9809  0.3360
  128MOL0     C16773   5.169   1.618  10.578 -0.0480  0.1462  0.0791
  128MOL0     C16774   5.021   1.664  10.608  0.2738 -0.8478 -0.6179
  128MOL0     C16775   4.920   1.547  10.572 -0.1941 -0.2732  0.5105
  128MOL0     C16776   4.794   1.536  10.667  0.3677 -0.1459  0.4245
  128MOL0     C16777   4.699   1.426  10.609 -0.2877  0.1726 -1.0689
  128MOL0     C16778   4.621   1.480  10.490 -0.0824 -0.0369  0.5120
  128MOL0     C16779   4.495   1.556  10.541 -1.1817  0.1158 -0.0339
  128MOL0     C16780   4.427   1.606  10.417  0.5819 -0.7662 -0.3931
  128MOL0     N16781   4.300   1.669  10.446 -0.2121  0.1442 -0.3098
  128MOL0     C16782   4.276   1.798  10.470  0.2917  0.2401 -0.4051
  128MOL0     C16783   4.146   1.814  10.478  0.1542  0.1172 -0.6278
  128MOL0     C16784   4.071   1.945  10.482  0.4067 -0.1791  0.2875
  128MOL0     C16785   4.059   1.984  10.628 -0.6800 -0.3782 -0.2798
  128MOL0     C16786   3.983   2.112  10.641 -0.0758 -0.0721  0.1932
  128MOL0     C16787   3.916   2.137  10.782  0.3587 -0.5574 -0.1611
  128MOL0     O16788   3.838   2.260  10.801 -0.2073  0.5631 -0.2994
  128MOL0     C16789   3.700   2.243  10.794  0.3647  0.5568 -0.2500
  128MOL0     C16790   3.628   2.137  10.732  0.7676  0.4145 -0.9678
  128MOL0     C16791   3.488   2.141  10.729 -0.3564 -0.8393 -0.7772
  128MOL0     C16792   3.414   2.243  10.791  0.0637  1.0259  0.1186
  128MOL0     C16793   3.268   2.255  10.779  0.4656  0.0531 -1.3556
  128MOL0     O16794   3.211   2.346  10.857  0.3257 -0.1382 -0.1947
  128MOL0     C16795   3.093   2.412  10.819 -0.5543 -0.1950 -0.0380
  128MOL0     C16796   3.073   2.469  10.696  0.1794 -0.7090  1.3051
  128MOL0     C16797   2.953   2.534  10.655  0.5655  0.1139  0.8304
  128MOL0     C16798   2.849   2.545  10.753 -1.1023  0.8971 -0.3595
  128MOL0     O16799   2.727   2.592  10.721 -0.2667  0.1615 -0.0357
  128MOL0     C16800   2.704   2.689  10.614  0.6539  0.6102  0.2595
  128MOL0     C16801   2.554   2.727  10.626  0.7239 -0.6276  0.4980
  128MOL0     C16802   2.460   2.629  10.549 -0.2553  0.8572  0.1121
  128MOL0     C16803   2.319   2.631  10.610  0.2998  0.5743 -0.8378
  128MOL0     C16804   2.215   2.537  10.544  1.0025 -1.0877 -0.2616
  128MOL0     C16805   2.259   2.384  10.531  0.4591 -0.1596  0.0471
  128MOL0     C16806   2.290   2.335  10.665 -0.9219  0.3218  0.6833
  128MOL0     C16807   2.294   2.177  10.677 -0.0226  0.4414 -0.6753
  128MOL0    Cl16808   2.437   2.107  10.588  0.3167 -0.2146 -0.2769
  128MOL0     C16809   2.863   2.483  10.884  0.0176 -0.4281 -0.1375
  128MOL0     C16810   2.986   2.423  10.913  0.0597 -0.5977 -0.5182
  128MOL0     O16811   3.212   2.195  10.685  0.5185  0.1890  0.1670
  128MOL0     C16812   3.485   2.349  10.851  0.0002 -0.1346 -0.0182
  128MOL0     C16813   3.620   2.338  10.861  1.7409  0.3023  0.4676
  128MOL0     N16814   4.084   1.683  10.472  0.6486 -0.1704  0.8611
  128MOL0     N16815   4.180   1.600  10.456  0.4746 -0.6100 -0.0260
  128MOL0     C16816   5.409   1.836  10.750  0.6804 -1.1955 -0.2251
  128MOL0     C16817   5.495   1.842  10.856  0.3277  1.7879  0.6072
  128MOL0     C16818   5.763   1.705  11.187  0.3997 -0.3742 -0.2235
  128MOL0     C16819   5.702   1.720  11.312  0.1578 -1.3472  0.6607
  128MOL0     C16820   5.758   1.696  11.433 -0.1325 -0.4475  0.5778
  128MOL0     C16821   5.888   1.643  11.438  0.1335  0.3448 -1.0996
  128MOL0     O16822   5.954   1.607  11.555  0.2368 -0.3943 -0.4372
  128MOL0     C16823   5.870   1.597  11.670  0.7924 -0.3641  0.2693
  128MOL0     C16824   5.959   1.535  11.776  1.0139  0.9399  0.3392
  128MOL0     C16825   5.992   1.386  11.756 -0.5214 -0.5296  0.4672
  128MOL0     C16826   6.127   1.353  11.828 -0.4737 -1.4480 -0.0828
  128MOL0     C16827   6.249   1.429  11.777  0.5856 -0.3890 -0.2407
  128MOL0     C16828   6.340   1.490  11.725  0.3917  0.4274 -0.4006
  128MOL0     C16829   5.950   1.629  11.314 -1.2523 -0.5403  0.7989
  128MOL0     C16830   5.896   1.657  11.197 -0.6070 -0.3001 -0.2914
  128MOL0     H16831   5.355   1.610  11.049  2.2467 -2.2466  0.7354
  128MOL0     H16832   5.205   1.585  10.839  1.0230 -0.8736 -1.1475
  128MOL0     H16833   5.200   1.527  10.631 -1.2542 -0.2790  0.0870
  128MOL0     H16834   5.180   1.592  10.472  4.4598  0.9140  0.1450
  128MOL0     H16835   5.010   1.743  10.533  4.3458 -0.3790 -0.9515
  128MOL0     H16836   5.017   1.702  10.711  0.8675 -0.7300 -0.6334
  128MOL0     H16837   4.977   1.454  10.587  1.0663  0.0804 -1.5707
  128MOL0     H16838   4.885   1.557  10.469  1.3149  0.5080  0.0389
  128MOL0     H16839   4.818   1.520  10.772  2.9008  2.6036  0.3886
  128MOL0     H16840   4.736   1.628  10.670  0.1114 -0.1592 -1.7896
  128MOL0     H16841   4.619   1.399  10.680 -0.8490  0.1301 -1.7083
  128MOL0     H16842   4.747   1.328  10.598 -2.9062 -1.9866  3.5134
  128MOL0     H16843   4.594   1.407  10.413  1.0507 -3.1765  2.8912
  128MOL0     H16844   4.683   1.555  10.439  1.2016 -2.9309 -2.5199
  128MOL0     H16845   4.427   1.482  10.584  0.1632 -0.3116  1.4451
  128MOL0     H16846   4.504   1.629  10.622  0.0546  0.2269 -0.2591
  128MOL0     H16847   4.410   1.520  10.352  1.3064  0.3232 -2.0978
  128MOL0     H16848   4.482   1.679  10.355  1.5246  1.0709  2.4208
  128MOL0     H16849   4.356   1.872  10.465  1.8515 -1.2688  0.9886
  128MOL0     H16850   3.973   1.922  10.440  1.1836 -1.7806 -0.7242
  128MOL0     H16851   4.125   2.025  10.431  2.1036 -1.4784 -0.0232
  128MOL0     H16852   4.160   1.989  10.670 -0.5833  2.4958 -0.6769
  128MOL0     H16853   4.022   1.896  10.682  0.9256  0.2403  1.9619
  128MOL0     H16854   4.036   2.193  10.591 -1.7584  0.1284 -1.3710
  128MOL0     H16855   3.893   2.089  10.583 -0.3077  1.3726 -0.0690
  128MOL0     H16856   3.995   2.134  10.857  2.1193 -1.7886 -1.9374
  128MOL0     H16857   3.849   2.054  10.806 -0.1359 -0.2221 -0.3727
  128MOL0     H16858   3.676   2.047  10.694  1.2815 -0.4542  1.5282
  128MOL0     H16859   3.440   2.052  10.688 -0.3834 -0.2452 -2.0730
  128MOL0     H16860   3.143   2.458  10.613  0.1347 -2.1978  1.4350
  128MOL0     H16861   2.943   2.577  10.556  1.4142  1.4879  1.3070
  128MOL0     H16862   2.727   2.655  10.512 -3.9652 -0.0498 -0.7842
  128MOL0     H16863   2.771   2.776  10.617  4.3540 -1.8203 -2.7044
  128MOL0     H16864   2.533   2.829  10.593  1.4043  0.0368  2.0475
  128MOL0     H16865   2.527   2.728  10.732 -1.9876  0.5985 -0.1155
  128MOL0     H16866   2.492   2.525  10.541 -2.5956 -0.0194  1.3279
  128MOL0     H16867   2.453   2.669  10.447  0.7368  0.7357 -0.0142
  128MOL0     H16868   2.338   2.608  10.715  0.3833  2.6510 -0.3371
  128MOL0     H16869   2.275   2.732  10.610  2.2833  1.5772  2.2169
  128MOL0     H16870   2.191   2.582  10.448 -0.0312  2.3143  1.4499
  128MOL0     H16871   2.120   2.544  10.597  0.2424 -3.2530 -1.2189
  128MOL0     H16872   2.354   2.385  10.477 -1.5933  1.3991 -3.8334
  128MOL0     H16873   2.175   2.327  10.489 -2.9927  2.3944  2.8544
  128MOL0     H16874   2.393   2.368  10.682 -0.6722  0.2436 -0.6008
  128MOL0     H16875   2.232   2.382  10.745 -1.1495  0.5130  0.4067
  128MOL0     H16876   2.204   2.124  10.643 -0.1513 -0.8925  1.5554
  128MOL0     H16877   2.299   2.137  10.779  0.2243 -1.5738 -1.4330
  128MOL0     H16878   2.788   2.486  10.962 -1.3140 -1.6475 -1.3171
  128MOL0     H16879   3.007   2.375  11.008 -2.0026  1.3042  1.0220
  128MOL0     H16880   3.431   2.428  10.902 -3.2534 -1.9930 -0.3180
  128MOL0     H16881   3.678   2.413  10.914 -0.1877  2.1219  0.1317
  128MOL0     H16882   5.437   1.915  10.682  1.5644 -0.9579  0.3855
  128MOL0     H16883   5.567   1.922  10.866  2.1157  0.1537  1.2942
  128MOL0     H16884   5.600   1.755  11.311  0.9132  1.2441 -2.5847
  128MOL0     H16885   5.701   1.707  11.525  0.1231 -0.3137  0.7234
  128MOL0     H16886   5.780   1.538  11.647  1.4877 -0.8474 -1.3736
  128MOL0     H16887   5.839   1.696  11.704 -1.6294 -0.0598 -2.4072
  128MOL0     H16888   6.052   1.590  11.784 -0.3529  3.5676 -0.7713
  128MOL0     H16889   5.920   1.541  11.878 -1.4332  0.6428 -0.5139
  128MOL0     H16890   6.005   1.379  11.647  1.8754  5.2065 -0.0310
  128MOL0     H16891   5.902   1.336  11.791 -1.1109  0.7717  0.8919
  128MOL0     H16892   6.115   1.378  11.934 -2.2149 -2.3533 -0.0339
  128MOL0     H16893   6.148   1.246  11.829  1.0576 -1.1756  1.8073
  128MOL0     H16894   6.411   1.559  11.685 -0.7789  1.1182 -1.3595
  128MOL0     H16895   6.055   1.600  11.307 -0.6272  1.3179  1.7564
  128MOL0     H16896   5.958   1.647  11.108 -2.8087  0.7306 -2.0658
  129MOL0     O16897   0.664  10.467   5.254 -1.1843  0.5858 -0.0897
  129MOL0     C16898   0.746  10.367   5.258 -0.0942 -0.5019  0.3295
  129MOL0     O16899   0.705  10.247   5.293 -0.1458  0.6631  0.0227
  129MOL0     C16900   0.590  10.226   5.362  0.2308  0.6476  0.4607
  129MOL0     C16901   0.477  10.166   5.303 -0.5942  0.2719  0.6366
  129MOL0     C16902   0.349  10.166   5.359  0.0376 -0.0330  0.5869
  129MOL0     C16903   0.339  10.197   5.492  0.4869  0.2191  0.1807
  129MOL0     O16904   0.224  10.188   5.565  0.0657 -0.1244 -0.5384
  129MOL0     C16905   0.100  10.237   5.501 -0.7618 -0.0803 -0.1071
  129MOL0     C16906   0.013  10.268   5.618  0.5349  0.6049 -1.0681
  129MOL0     C16907  -0.132  10.286   5.566 -0.8276  0.3278 -0.8230
  129MOL0     C16908  -0.234  10.306   5.675  0.2269  0.1620  0.7272
  129MOL0     C16909  -0.246  10.447   5.732  0.5750 -0.6172 -0.1441
  129MOL0     C16910  -0.399  10.500   5.732  0.9470  0.5390 -0.7471
  129MOL0     C16911  -0.404  10.612   5.837  0.4780  1.0537  0.8431
  129MOL0     C16912  -0.370  10.756   5.797  1.4327  0.6647  0.3473
  129MOL0     N16913  -0.457  10.804   5.683  0.3505 -0.2936 -0.2472
  129MOL0     C16914  -0.591  10.840   5.691  0.3377 -0.9412  0.3612
  129MOL0     C16915  -0.629  10.833   5.554  0.2485 -0.0750 -0.0264
  129MOL0     C16916  -0.764  10.853   5.506 -0.2970 -0.0422  0.2188
  129MOL0     C16917  -0.854  10.727   5.527 -0.1121 -0.1194  0.6995
  129MOL0     C16918  -0.800  10.598   5.458  0.3704  0.0878  0.1036
  129MOL0     C16919  -0.917  10.493   5.447 -0.9334 -0.2737 -0.1640
  129MOL0     O16920  -0.866  10.392   5.354 -0.8376  0.0041  0.7426
  129MOL0     C16921  -0.752  10.319   5.388 -0.6963  0.1808 -0.2892
  129MOL0     C16922  -0.662  10.295   5.283  0.3318 -0.3105  0.3485
  129MOL0     C16923  -0.567  10.192   5.298 -0.3273 -0.4516 -0.2833
  129MOL0     C16924  -0.554  10.122   5.419  0.6999 -0.8860  0.1155
  129MOL0     C16925  -0.448  10.025   5.440  0.2569 -0.0138  0.2357
  129MOL0     O16926  -0.345  10.031   5.347  0.0852 -0.8399  0.1575
  129MOL0     C16927  -0.219   9.980   5.361 -0.3346 -0.4257  0.7133
  129MOL0     C16928  -0.150   9.933   5.479 -0.1575  0.2523 -0.0445
  129MOL0     C16929  -0.019   9.887   5.466  0.0161  0.5150 -0.3994
  129MOL0     C16930   0.054   9.880   5.349 -0.2133 -0.8610  0.3611
  129MOL0     O16931   0.187   9.846   5.329 -0.2719  0.7834 -0.1598
  129MOL0     C16932   0.263   9.810   5.447 -0.6758  1.2300 -0.2341
  129MOL0     C16933   0.412   9.787   5.409  0.2902  0.6645 -0.4380
  129MOL0     C16934   0.505   9.736   5.520  0.5987  0.2995 -1.3518
  129MOL0     C16935   0.639   9.685   5.475 -0.5434  0.3286 -0.2433
  129MOL0     C16936   0.733   9.797   5.433  0.4825 -0.2798  0.2864
  129MOL0     C16937   0.787   9.866   5.557  0.0939  0.4224  0.4293
  129MOL0     C16938   0.907   9.946   5.507  0.5608 -0.0386 -0.1124
  129MOL0     C16939   0.965  10.052   5.602  0.1155 -0.5684  0.6225
  129MOL0    Cl16940   1.083  10.146   5.514 -0.0765 -0.2510 -0.3092
  129MOL0     C16941  -0.012   9.926   5.239 -0.4789  0.0952  0.3004
  129MOL0     C16942  -0.139   9.978   5.248  0.2236 -0.9889  0.2778
  129MOL0     O16943  -0.443   9.950   5.539 -0.7997  0.1473 -0.1124
  129MOL0     C16944  -0.635  10.156   5.524  0.4826  0.2786 -0.8058
  129MOL0     C16945  -0.742  10.252   5.505 -1.1874  0.5617  0.1130
  129MOL0     N16946  -0.519  10.787   5.485 -0.7104  0.1542 -0.8243
  129MOL0     N16947  -0.414  10.784   5.557  0.2551 -0.3821  0.7019
  129MOL0     C16948   0.445  10.257   5.546  0.5238  0.6912  1.0870
  129MOL0     C16949   0.570  10.273   5.494 -0.0452 -0.1173  1.1644
  129MOL0     C16950   0.884  10.378   5.206  1.0623  1.0045 -0.8598
  129MOL0     C16951   0.918  10.496   5.148  0.1815 -0.2497  0.5779
  129MOL0     C16952   1.045  10.498   5.075  0.5144 -0.2737  0.4493
  129MOL0     C16953   1.132  10.389   5.092 -0.0578  1.5844  0.6004
  129MOL0     O16954   1.268  10.386   5.052 -0.2215 -0.4711 -0.8844
  129MOL0     C16955   1.290  10.427   4.917  0.0957  0.1780 -0.0562
  129MOL0     C16956   1.227  10.354   4.803  0.3385  0.6011 -0.0184
  129MOL0     C16957   1.228  10.440   4.677  0.1985 -0.1944  0.5201
  129MOL0     C16958   1.155  10.385   4.557 -0.5675  0.4741 -0.1119
  129MOL0     C16959   1.170  10.472   4.450  0.1430  0.3895  0.8450
  129MOL0     C16960   1.200  10.523   4.341 -0.6007  0.2753 -0.4546
  129MOL0     C16961   1.090  10.265   5.148  0.2855 -0.8917 -0.0426
  129MOL0     C16962   0.967  10.263   5.208 -0.4563  0.3091  0.0004
  129MOL0     H16963   0.478  10.128   5.201  0.5812  0.9498  0.3745
  129MOL0     H16964   0.259  10.129   5.310 -0.0230  0.9587 -0.0894
  129MOL0     H16965   0.057  10.165   5.430 -1.6954  0.9827 -0.6649
  129MOL0     H16966   0.118  10.323   5.435  0.0306 -0.7524 -0.7864
  129MOL0     H16967   0.046  10.356   5.673 -2.2672  1.8678 -1.2507
  129MOL0     H16968   0.019  10.181   5.684 -0.7193 -0.4524 -2.2973
  129MOL0     H16969  -0.148  10.186   5.524  1.0660 -1.6063  2.6308
  129MOL0     H16970  -0.133  10.368   5.494  0.2080  1.6467  0.6083
  129MOL0     H16971  -0.334  10.290   5.634 -1.3651  1.1991  3.9095
  129MOL0     H16972  -0.220  10.240   5.761  0.0144 -0.2801  0.4269
  129MOL0     H16973  -0.187  10.506   5.660  0.2394  0.7034  0.6356
  129MOL0     H16974  -0.199  10.435   5.830 -1.1932 -3.0536  0.5196
  129MOL0     H16975  -0.461  10.417   5.766 -0.1159  1.9522  0.9253
  129MOL0     H16976  -0.439  10.538   5.637 -0.6700  1.2905  0.1936
  129MOL0     H16977  -0.507  10.610   5.875  0.6184 -0.2770  1.2124
  129MOL0     H16978  -0.351  10.571   5.924  1.5465 -0.2329 -0.3558
  129MOL0     H16979  -0.264  10.770   5.775  1.4888  0.1940  0.3067
  129MOL0     H16980  -0.401  10.816   5.883  0.7909  0.0898  0.5270
  129MOL0     H16981  -0.657  10.867   5.773  1.0878  1.8797  0.1351
  129MOL0     H16982  -0.763  10.881   5.400 -1.7482 -1.2805 -0.1536
  129MOL0     H16983  -0.810  10.935   5.562 -1.2661 -1.1181  1.0498
  129MOL0     H16984  -0.943  10.753   5.470  0.6848  1.1432 -0.0368
  129MOL0     H16985  -0.870  10.728   5.635  0.4133  1.5899  0.7960
  129MOL0     H16986  -0.766  10.612   5.355 -0.1122  1.6887  0.1290
  129MOL0     H16987  -0.720  10.552   5.516  0.0593 -1.1479 -0.4132
  129MOL0     H16988  -1.013  10.535   5.416 -0.0140  2.1242 -0.0495
  129MOL0     H16989  -0.930  10.465   5.552 -1.7217  3.5146  0.9221
  129MOL0     H16990  -0.669  10.338   5.183 -2.8593  2.0526  1.4393
  129MOL0     H16991  -0.499  10.181   5.214 -1.4895  1.5837 -1.5932
  129MOL0     H16992  -0.196   9.945   5.576 -0.4325 -0.6515 -0.0522
  129MOL0     H16993   0.026   9.850   5.557 -0.8058  1.3498  0.3706
  129MOL0     H16994   0.225   9.714   5.484  0.8975  0.3740 -0.7374
  129MOL0     H16995   0.260   9.885   5.526 -0.6242  0.3810  0.5939
  129MOL0     H16996   0.459   9.875   5.364  1.6171  0.6363  0.8075
  129MOL0     H16997   0.420   9.701   5.342  3.0665  0.9154 -0.5609
  129MOL0     H16998   0.465   9.648   5.572 -0.6881  0.1184 -2.5829
  129MOL0     H16999   0.509   9.820   5.590 -1.5797 -1.6848  1.3916
  129MOL0     H17000   0.690   9.623   5.550  0.5130  0.5598 -0.7640
  129MOL0     H17001   0.621   9.611   5.396 -0.0574 -0.6560  0.5330
  129MOL0     H17002   0.680   9.865   5.366 -1.7413 -3.1497 -1.0812
  129MOL0     H17003   0.824   9.760   5.383  0.3302 -0.5798  0.2316
  129MOL0     H17004   0.822   9.796   5.633  3.4635  1.3679 -0.1072
  129MOL0     H17005   0.705   9.921   5.604 -1.7977 -1.9914  0.2069
  129MOL0     H17006   0.987   9.873   5.496  1.4499  0.4919  2.2718
  129MOL0     H17007   0.877   9.985   5.409 -4.0821 -1.9801  0.2604
  129MOL0     H17008   1.007  10.002   5.690  0.0443 -0.4122  0.7458
  129MOL0     H17009   0.880  10.114   5.631 -1.7853 -1.1142 -3.1202
  129MOL0     H17010   0.054   9.926   5.153  0.1041  1.0926  0.7190
  129MOL0     H17011  -0.162  10.042   5.163 -0.7517  0.0600  1.2924
  129MOL0     H17012  -0.631  10.104   5.619 -0.6544 -1.5888 -1.7143
  129MOL0     H17013  -0.816  10.281   5.578  0.7773  1.8382  1.7386
  129MOL0     H17014   0.424  10.301   5.643 -0.0268  0.4459  1.0791
  129MOL0     H17015   0.652  10.326   5.542  3.3517 -2.0122 -2.0262
  129MOL0     H17016   0.842  10.573   5.138 -2.6572 -2.2832  4.1228
  129MOL0     H17017   1.068  10.576   5.004  0.3693 -1.2701 -0.7155
  129MOL0     H17018   1.394  10.457   4.904  0.4450 -0.5090  1.0009
  129MOL0     H17019   1.241  10.524   4.902 -3.2788 -1.5231 -1.1574
  129MOL0     H17020   1.278  10.258   4.795 -2.6436 -1.5199  3.3965
  129MOL0     H17021   1.123  10.331   4.831  1.0231 -0.3079  1.9606
  129MOL0     H17022   1.331  10.464   4.647 -0.6995  2.3908 -0.7726
  129MOL0     H17023   1.174  10.534   4.696 -0.1829 -0.5659  1.3428
  129MOL0     H17024   1.185  10.281   4.540 -1.2893 -0.1823  2.2028
  129MOL0     H17025   1.050  10.376   4.588 -0.4097 -2.2506 -0.1513
  129MOL0     H17026   1.240  10.574   4.256  0.1576  2.8013  1.2888
  129MOL0     H17027   1.163  10.186   5.150 -1.0299 -2.2621 -1.9870
  129MOL0     H17028   0.930  10.173   5.256  0.8263  0.6154  1.6527
  130MOL0     O17029  10.207   2.712   8.019 -0.2402 -0.2754 -0.3610
  130MOL0     C17030  10.122   2.731   7.924 -0.4671 -0.4950  0.2257
  130MOL0     O17031   9.988   2.750   7.927 -0.6616 -0.7436 -0.3037
  130MOL0     C17032   9.939   2.774   8.048  0.0819  0.9406  0.6915
  130MOL0     C17033   9.923   2.899   8.097  0.9764  0.3609  0.3632
  130MOL0     C17034   9.857   2.928   8.221 -0.1913  0.2471 -0.4517
  130MOL0     C17035   9.810   2.824   8.290 -0.3386 -0.5378  0.3500
  130MOL0     O17036   9.746   2.852   8.407  0.1867 -0.0970  0.1775
  130MOL0     C17037   9.673   2.746   8.477 -0.1503 -0.0333 -0.2451
  130MOL0     C17038   9.607   2.813   8.601 -0.7553  0.2596 -0.7099
  130MOL0     C17039   9.711   2.847   8.701 -0.0038  0.3114  1.1272
  130MOL0     C17040   9.646   2.897   8.837 -0.6877 -0.1274 -0.0652
  130MOL0     C17041   9.737   2.885   8.953 -0.8445  1.0252  0.1034
  130MOL0     C17042   9.658   2.885   9.081 -0.2280 -0.2961  0.7826
  130MOL0     C17043   9.753   2.896   9.202  0.5384  0.4908  0.3711
  130MOL0     C17044   9.676   2.905   9.332 -0.1588  0.1986 -0.7150
  130MOL0     N17045   9.766   2.930   9.445  0.3330 -0.1891 -0.5585
  130MOL0     C17046   9.777   2.857   9.555 -0.1054 -0.3996 -0.6247
  130MOL0     C17047   9.857   2.921   9.633 -0.7915 -0.8243 -0.6240
  130MOL0     C17048   9.892   2.891   9.776 -0.6072 -0.8484 -0.1435
  130MOL0     C17049   9.779   2.929   9.870 -0.7428  0.0535 -0.2845
  130MOL0     C17050   9.808   2.893  10.016  0.0904  0.5240 -0.5735
  130MOL0     C17051   9.896   3.004  10.088  0.6655 -0.4454  0.0584
  130MOL0     O17052  10.038   2.988  10.055  0.1823 -0.0963  1.3548
  130MOL0     C17053  10.120   2.895  10.109  0.2373  0.0699 -0.4168
  130MOL0     C17054  10.076   2.808  10.206  0.4346  1.3176 -0.6332
  130MOL0     C17055  10.146   2.697  10.249  0.0739 -0.1606 -0.6187
  130MOL0     C17056  10.270   2.676  10.183 -0.2475  0.3505  0.3362
  130MOL0     C17057  10.360   2.573  10.220 -0.5361  0.8932 -0.0161
  130MOL0     O17058  10.309   2.465  10.290  0.4554  0.1585 -0.5982
  130MOL0     C17059  10.406   2.388  10.347  1.0940  0.3452  0.8079
  130MOL0     C17060  10.494   2.433  10.458 -0.0052  0.1234  0.1147
  130MOL0     C17061  10.588   2.333  10.500 -0.5706 -0.5961  0.6938
  130MOL0     C17062  10.592   2.202  10.448 -0.4883  0.0601 -0.2506
  130MOL0     O17063  10.697   2.112  10.457  0.5039 -0.7741  0.0489
  130MOL0     C17064  10.710   2.035  10.575 -0.1700  0.3853 -0.1254
  130MOL0     C17065  10.832   2.089  10.650 -1.0157  0.4226 -0.3761
  130MOL0     C17066  10.892   1.990  10.746 -0.6161 -0.2007 -0.5162
  130MOL0     C17067  11.004   2.055  10.824 -0.4768 -0.0473  0.1280
  130MOL0     C17068  11.022   1.985  10.960 -0.3026 -0.1985  0.1675
  130MOL0     C17069  11.146   2.045  11.024 -0.3263 -0.6510  0.0921
  130MOL0     C17070  11.162   1.990  11.175  0.2102  0.7174 -0.3019
  130MOL0     C17071  11.104   2.084  11.273  0.7582 -0.5184 -0.3883
  130MOL0    Cl17072  11.094   1.994  11.429  0.0394 -0.0671 -0.5291
  130MOL0     C17073  10.499   2.164  10.351 -0.2785 -0.4468  0.5442
  130MOL0     C17074  10.403   2.257  10.301 -0.0543  0.3902  0.0307
  130MOL0     O17075  10.486   2.582  10.203 -0.0370  0.4043 -0.5722
  130MOL0     C17076  10.320   2.766  10.085 -0.3207  0.5899 -0.8247
  130MOL0     C17077  10.242   2.875  10.048  0.0992  0.5117 -0.9596
  130MOL0     N17078   9.910   3.037   9.570  0.2700 -0.7573  0.1989
  130MOL0     N17079   9.844   3.048   9.460 -0.1916  1.2256  0.3352
  130MOL0     C17080   9.842   2.696   8.259  0.6518 -0.5467 -0.1623
  130MOL0     C17081   9.903   2.671   8.134 -0.4566  0.1172 -0.5964
  130MOL0     C17082  10.172   2.736   7.791  0.0797  0.1069 -0.4172
  130MOL0     C17083  10.100   2.672   7.687 -0.0966 -0.9025 -0.5851
  130MOL0     C17084  10.152   2.672   7.561 -0.9203  0.0761  0.0627
  130MOL0     C17085  10.272   2.745   7.533 -0.3796  1.3984 -0.3235
  130MOL0     O17086  10.312   2.744   7.397 -0.3378  0.1770 -0.2765
  130MOL0     C17087  10.445   2.805   7.368 -0.7495  0.9069 -0.7896
  130MOL0     C17088  10.478   2.784   7.215 -0.2682 -0.5902 -0.5058
  130MOL0     C17089  10.622   2.827   7.187 -0.5304 -0.4893  0.0303
  130MOL0     C17090  10.717   2.737   7.260  0.8422  0.2637  0.2847
  130MOL0     C17091  10.852   2.766   7.214 -0.0442 -0.3603  0.1743
  130MOL0     C17092  10.961   2.796   7.171 -0.2398  0.0914  0.5832
  130MOL0     C17093  10.343   2.802   7.638 -0.0348  0.2166 -0.1612
  130MOL0     C17094  10.301   2.792   7.772  0.3763  0.2509 -0.2918
  130MOL0     H17095   9.949   2.978   8.027  0.1961  0.6223  0.3552
  130MOL0     H17096   9.830   3.027   8.257  0.4143 -0.4849  2.2123
  130MOL0     H17097   9.735   2.662   8.511 -2.1609 -0.8651  1.6436
  130MOL0     H17098   9.597   2.710   8.407  2.7216 -2.3491 -2.4533
  130MOL0     H17099   9.532   2.739   8.632 -1.0753  0.8453 -0.0301
  130MOL0     H17100   9.551   2.907   8.593 -2.2951 -0.7461 -2.6184
  130MOL0     H17101   9.776   2.925   8.659  2.9852 -2.8173 -0.5318
  130MOL0     H17102   9.772   2.759   8.724 -3.0572 -2.4328 -0.4975
  130MOL0     H17103   9.609   2.999   8.832  1.1015  0.4955 -2.0680
  130MOL0     H17104   9.561   2.831   8.859  0.5174 -1.0251  2.1893
  130MOL0     H17105   9.822   2.954   8.950 -0.3180  0.3554 -0.7961
  130MOL0     H17106   9.793   2.791   8.945 -2.1245  0.2229  0.2919
  130MOL0     H17107   9.604   2.791   9.093  1.0344 -1.3505 -1.2253
  130MOL0     H17108   9.601   2.978   9.075  0.7989  0.2868 -3.5847
  130MOL0     H17109   9.822   2.811   9.192 -1.2703 -0.8883 -1.4599
  130MOL0     H17110   9.809   2.988   9.184  2.3012 -0.1059  2.4373
  130MOL0     H17111   9.616   2.817   9.357  0.1039  0.0961 -0.4472
  130MOL0     H17112   9.604   2.988   9.335 -2.6787 -1.8807 -0.7081
  130MOL0     H17113   9.716   2.769   9.578  3.0764 -2.0515  2.3041
  130MOL0     H17114   9.981   2.953   9.795 -3.0521  2.9097  0.2313
  130MOL0     H17115   9.907   2.783   9.783 -0.0841 -0.6497  2.8591
  130MOL0     H17116   9.688   2.877   9.839 -1.4390  2.1438 -1.9518
  130MOL0     H17117   9.765   3.037   9.854  0.3849 -0.2127 -3.8933
  130MOL0     H17118   9.712   2.880  10.067 -0.5664  0.2573 -1.8295
  130MOL0     H17119   9.847   2.792  10.028  0.1846  0.7965  1.8614
  130MOL0     H17120   9.880   2.999  10.196  1.6026  0.1889  0.2379
  130MOL0     H17121   9.887   3.106  10.050  0.6250 -1.4626 -2.9936
  130MOL0     H17122   9.980   2.825  10.254  0.2185 -1.4097  0.0438
  130MOL0     H17123  10.113   2.638  10.334 -0.1957  0.5851 -0.1995
  130MOL0     H17124  10.486   2.534  10.496  0.3128  0.8703 -1.6599
  130MOL0     H17125  10.663   2.357  10.575 -0.8403  2.2229  0.1525
  130MOL0     H17126  10.724   1.928  10.557  1.2863  0.1686  2.0246
  130MOL0     H17127  10.624   2.043  10.642  1.3984 -0.3085  2.0701
  130MOL0     H17128  10.805   2.178  10.708 -1.0582  0.5236 -0.5511
  130MOL0     H17129  10.908   2.113  10.574 -1.3354  2.1340 -0.2051
  130MOL0     H17130  10.930   1.905  10.687  4.0581  1.2550 -0.0411
  130MOL0     H17131  10.824   1.952  10.822 -2.4039  1.5777 -1.1399
  130MOL0     H17132  11.096   2.052  10.765 -1.5724 -1.5029 -1.6118
  130MOL0     H17133  10.984   2.162  10.833  1.1768  0.9970 -5.1004
  130MOL0     H17134  11.050   1.882  10.940  2.9951  0.7708 -0.8495
  130MOL0     H17135  10.936   2.003  11.026 -0.4527 -1.2736  0.2767
  130MOL0     H17136  11.150   2.154  11.025  1.5778 -0.6370 -2.1217
  130MOL0     H17137  11.224   2.016  10.952 -1.1027 -0.1298 -0.9837
  130MOL0     H17138  11.119   1.890  11.178 -0.4505  1.0150  0.6303
  130MOL0     H17139  11.269   1.982  11.193 -0.1797 -0.8907  1.6768
  130MOL0     H17140  11.001   2.099  11.238  1.9029  1.8799 -3.1219
  130MOL0     H17141  11.161   2.177  11.279 -2.4837  1.6825 -0.9895
  130MOL0     H17142  10.509   2.062  10.315  2.4512 -0.7736  1.9632
  130MOL0     H17143  10.327   2.234  10.227 -1.5842  3.0690  0.6449
  130MOL0     H17144  10.422   2.763  10.048  0.7595 -0.9469  1.9816
  130MOL0     H17145  10.287   2.941   9.974 -0.2104  0.8851 -0.8225
  130MOL0     H17146   9.806   2.617   8.324 -1.5215 -0.7914 -1.5596
  130MOL0     H17147   9.906   2.572   8.089 -2.9384  0.5228 -1.8070
  130MOL0     H17148  10.015   2.605   7.697 -0.1698 -1.0058 -1.8111
  130MOL0     H17149  10.105   2.611   7.485 -2.2327 -1.5456  2.0532
  130MOL0     H17150  10.518   2.752   7.430 -1.0663  1.9971  0.5721
  130MOL0     H17151  10.441   2.912   7.392  2.7318  0.8977  0.3489
  130MOL0     H17152  10.471   2.677   7.195 -0.1630 -0.8693  0.8211
  130MOL0     H17153  10.408   2.854   7.169  1.4483  2.4118  1.1588
  130MOL0     H17154  10.646   2.927   7.223 -0.5939 -1.2300  2.2866
  130MOL0     H17155  10.652   2.815   7.082  0.8501 -0.6820  0.4259
  130MOL0     H17156  10.714   2.729   7.369 -2.7397  0.2963  0.2878
  130MOL0     H17157  10.708   2.636   7.221 -0.6759  0.4241  0.1742
  130MOL0     H17158  11.060   2.829   7.148  1.2189 -3.6488  0.7853
  130MOL0     H17159  10.439   2.846   7.616  0.9845  0.9897  4.6719
  130MOL0     H17160  10.361   2.837   7.851 -1.3791  1.6209  0.3320
  131MOL0     O17161  10.653   7.295   4.328  0.3557  0.3894 -0.4213
  131MOL0     C17162  10.743   7.340   4.261 -0.2775 -1.0192  0.2848
  131MOL0     O17163  10.865   7.373   4.315 -0.5170 -0.2935 -0.3582
  131MOL0     C17164  10.876   7.361   4.458 -0.6289 -0.2952  1.0423
  131MOL0     C17165  10.951   7.265   4.519  0.6450  0.4494 -0.3552
  131MOL0     C17166  10.975   7.267   4.656  0.0274 -0.1808  0.7112
  131MOL0     C17167  10.904   7.361   4.738 -0.5542  0.5983  0.1919
  131MOL0     O17168  10.945   7.361   4.873 -0.0373  0.0961  0.1411
  131MOL0     C17169  10.885   7.435   4.977 -0.6454 -0.5488  0.5379
  131MOL0     C17170  10.909   7.373   5.112  0.0167 -0.1671  0.6626
  131MOL0     C17171  11.048   7.325   5.152 -0.6002  0.1381  0.1810
  131MOL0     C17172  11.024   7.256   5.289 -0.1547  0.7209 -0.6604
  131MOL0     C17173  11.164   7.200   5.327 -0.0774  0.0993  0.2903
  131MOL0     C17174  11.249   7.299   5.397 -0.0881 -0.6284  0.4580
  131MOL0     C17175  11.369   7.253   5.469  1.4569  0.4491 -0.9441
  131MOL0     C17176  11.436   7.379   5.512  0.5809  0.0124 -0.5074
  131MOL0     N17177  11.551   7.334   5.594  0.1183  0.3582  0.7396
  131MOL0     C17178  11.647   7.243   5.555 -0.2291  0.0193  0.3733
  131MOL0     C17179  11.737   7.245   5.641 -0.1902  1.0424 -0.4022
  131MOL0     C17180  11.842   7.136   5.655  0.8641 -0.3948 -0.4682
  131MOL0     C17181  11.955   7.135   5.546 -0.7011  0.3777 -0.5446
  131MOL0     C17182  12.057   7.024   5.588 -0.2073  0.3215  0.4729
  131MOL0     C17183  12.154   7.090   5.680  0.1800 -0.7719 -0.4250
  131MOL0     O17184  12.266   6.995   5.706  0.1285 -0.4529 -0.7080
  131MOL0     C17185  12.381   7.045   5.771  0.2123  0.2812  0.5315
  131MOL0     C17186  12.377   7.170   5.833  0.1074 -0.0274 -0.6315
  131MOL0     C17187  12.488   7.223   5.892 -0.6306 -0.2949 -0.2601
  131MOL0     C17188  12.613   7.166   5.886 -0.0666  0.6921  0.2018
  131MOL0     C17189  12.729   7.231   5.930  0.3068  0.2763  0.0082
  131MOL0     O17190  12.709   7.362   5.972  0.1785  0.0919 -0.1687
  131MOL0     C17191  12.796   7.430   6.046 -0.6959 -1.3307  0.3494
  131MOL0     C17192  12.898   7.379   6.127 -0.4613  0.2208  0.4552
  131MOL0     C17193  12.977   7.447   6.217 -0.5940  0.6181  1.2111
  131MOL0     C17194  12.959   7.584   6.234  0.3540  0.8680 -1.0899
  131MOL0     O17195  13.041   7.668   6.315 -0.1768  1.1275  0.7121
  131MOL0     C17196  13.031   7.653   6.463 -0.0304 -0.9597  0.1905
  131MOL0     C17197  13.167   7.608   6.530  0.1388 -0.1571 -0.3899
  131MOL0     C17198  13.212   7.464   6.508  0.0530  0.3616  0.0322
  131MOL0     C17199  13.340   7.434   6.596  0.7857  0.1737 -0.3088
  131MOL0     C17200  13.430   7.330   6.513 -0.5500 -0.4071 -0.4096
  131MOL0     C17201  13.498   7.408   6.394  1.2508  0.5215  0.2710
  131MOL0     C17202  13.530   7.309   6.280  0.6693 -0.7889  0.2868
  131MOL0     C17203  13.664   7.244   6.311  0.6296  0.2365  0.8010
  131MOL0    Cl17204  13.708   7.102   6.205 -0.1025 -0.2504 -0.3397
  131MOL0     C17205  12.843   7.640   6.166  0.4633  0.5906  0.8302
  131MOL0     C17206  12.768   7.567   6.076 -0.4592  0.1497 -0.2121
  131MOL0     O17207  12.839   7.183   5.901 -0.0328  0.1001  0.1506
  131MOL0     C17208  12.620   7.031   5.830 -0.0445 -0.3401 -0.4230
  131MOL0     C17209  12.506   6.972   5.769  0.5368 -0.5662  1.0049
  131MOL0     N17210  11.700   7.340   5.733  0.7579 -0.7102 -0.5183
  131MOL0     N17211  11.586   7.395   5.711 -0.8579 -0.1056 -0.1281
  131MOL0     C17212  10.826   7.459   4.682  1.0949 -0.0162 -0.1496
  131MOL0     C17213  10.823   7.465   4.537  0.3983 -0.5040  0.6098
  131MOL0     C17214  10.736   7.334   4.116  0.4694  0.5553  0.1198
  131MOL0     C17215  10.661   7.231   4.056  0.7570  0.0213  0.1014
  131MOL0     C17216  10.671   7.215   3.919 -1.1211 -0.7665 -0.1535
  131MOL0     C17217  10.738   7.309   3.840 -0.4953  0.0670 -0.7364
  131MOL0     O17218  10.764   7.307   3.706 -0.3872  0.0617 -0.3515
  131MOL0     C17219  10.694   7.216   3.626  0.7597 -0.6865 -0.4143
  131MOL0     C17220  10.701   7.281   3.487 -0.3913  0.6869  0.3066
  131MOL0     C17221  10.841   7.237   3.424  0.0548  0.5654  0.6946
  131MOL0     C17222  10.843   7.085   3.392 -0.1802 -0.5271  0.1094
  131MOL0     C17223  10.973   7.031   3.387 -0.5745 -0.5846  0.5030
  131MOL0     C17224  11.091   6.983   3.384  0.3879  0.1036  0.2732
  131MOL0     C17225  10.813   7.415   3.904  0.6858 -0.1193  0.8264
  131MOL0     C17226  10.818   7.413   4.042  0.0977 -0.3504  0.3694
  131MOL0     H17227  10.990   7.192   4.449 -0.1321 -2.1383  1.7693
  131MOL0     H17228  11.042   7.190   4.691  4.0948  2.5789 -0.2236
  131MOL0     H17229  10.778   7.438   4.954 -0.5758  1.0784  0.2766
  131MOL0     H17230  10.915   7.540   4.977  1.2969 -1.0440 -0.9024
  131MOL0     H17231  10.828   7.303   5.132  1.5917 -2.3304 -0.2081
  131MOL0     H17232  10.880   7.452   5.183  0.5348  1.2736 -0.6698
  131MOL0     H17233  11.122   7.404   5.168 -0.8195 -0.0722  2.6537
  131MOL0     H17234  11.102   7.256   5.086  0.7787 -0.8137  2.1751
  131MOL0     H17235  10.974   7.319   5.364  1.2909 -1.5231  2.4076
  131MOL0     H17236  10.948   7.181   5.266  0.0585  0.5112 -0.6846
  131MOL0     H17237  11.211   7.163   5.235 -1.6783  3.0634 -1.8926
  131MOL0     H17238  11.147   7.113   5.391 -3.0507  2.4594  3.0637
  131MOL0     H17239  11.181   7.348   5.467  1.3869 -0.8629  2.1031
  131MOL0     H17240  11.274   7.374   5.322 -0.3365  0.3570  1.3407
  131MOL0     H17241  11.336   7.187   5.550 -0.2335 -1.5251 -3.0976
  131MOL0     H17242  11.435   7.190   5.408  2.1592 -0.8894  1.0925
  131MOL0     H17243  11.382   7.435   5.589  2.1130  1.2452 -0.2965
  131MOL0     H17244  11.473   7.455   5.444  2.6292  1.6065  2.2121
  131MOL0     H17245  11.657   7.168   5.478  2.8640  0.4680  0.2061
  131MOL0     H17246  11.785   7.043   5.647  3.0318 -1.7339 -1.0769
  131MOL0     H17247  11.883   7.142   5.756 -3.7506 -0.7885  1.7147
  131MOL0     H17248  12.005   7.230   5.527 -0.4529 -0.2719 -3.7176
  131MOL0     H17249  11.900   7.111   5.454 -4.3315 -0.1514  1.5386
  131MOL0     H17250  12.003   6.944   5.639 -0.8073  0.4312  0.0166
  131MOL0     H17251  12.116   6.969   5.513 -0.5370 -0.8955  1.0719
  131MOL0     H17252  12.114   7.118   5.778  2.9956 -2.4089  1.3389
  131MOL0     H17253  12.189   7.183   5.634 -0.4177  0.6495  1.8440
  131MOL0     H17254  12.294   7.239   5.826  2.0191  2.5910  0.8711
  131MOL0     H17255  12.481   7.326   5.924  0.7530  0.1405 -1.2868
  131MOL0     H17256  12.916   7.272   6.124 -1.0055  0.1028  1.1120
  131MOL0     H17257  13.064   7.403   6.265  1.1068  3.0349  0.5434
  131MOL0     H17258  12.961   7.574   6.491  1.3276 -1.0129  3.9617
  131MOL0     H17259  13.009   7.746   6.516  1.1666  0.7987 -2.1947
  131MOL0     H17260  13.152   7.617   6.638  0.4711 -2.8596 -0.0500
  131MOL0     H17261  13.246   7.680   6.506 -0.5055  0.8395  0.3486
  131MOL0     H17262  13.222   7.452   6.400  2.2097  0.5867  0.1719
  131MOL0     H17263  13.133   7.396   6.542 -0.9619 -1.2370 -4.7271
  131MOL0     H17264  13.385   7.524   6.638 -0.0652 -0.4434  2.0846
  131MOL0     H17265  13.307   7.387   6.689  0.4617 -0.9754 -0.9809
  131MOL0     H17266  13.362   7.254   6.475  0.4146 -0.5111 -2.0333
  131MOL0     H17267  13.505   7.281   6.575  0.9944  0.9389 -1.1231
  131MOL0     H17268  13.587   7.461   6.429  1.3118  0.2221  0.5907
  131MOL0     H17269  13.431   7.485   6.356 -3.2928 -4.0356 -2.1758
  131MOL0     H17270  13.457   7.229   6.265  1.6000 -1.7863  0.8645
  131MOL0     H17271  13.553   7.359   6.186  1.7158 -1.3979  0.1998
  131MOL0     H17272  13.653   7.212   6.415  1.7881  0.9839  1.1788
  131MOL0     H17273  13.741   7.321   6.319  0.9059 -0.1356  1.8788
  131MOL0     H17274  12.833   7.748   6.177  4.9227  1.7942 -3.4467
  131MOL0     H17275  12.687   7.623   6.031 -0.8426  1.7454  2.2942
  131MOL0     H17276  12.710   6.971   5.838  1.1661  1.3255 -1.0050
  131MOL0     H17277  12.511   6.876   5.717 -1.3829  1.8765 -4.4734
  131MOL0     H17278  10.773   7.530   4.745  1.6216 -1.1116  1.5801
  131MOL0     H17279  10.764   7.536   4.481  2.6636 -0.0499 -1.3384
  131MOL0     H17280  10.603   7.172   4.127  1.2563 -2.2374 -1.2926
  131MOL0     H17281  10.628   7.126   3.874 -0.1199 -2.2693  1.6427
  131MOL0     H17282  10.587   7.214   3.648  0.0975 -1.4915 -3.3173
  131MOL0     H17283  10.736   7.118   3.651  0.2155 -0.3470  2.1530
  131MOL0     H17284  10.627   7.247   3.414  1.2826 -0.2535 -1.0022
  131MOL0     H17285  10.690   7.389   3.499 -2.9438  0.5043  0.2286
  131MOL0     H17286  10.920   7.279   3.487  0.7442  1.1282 -0.5202
  131MOL0     H17287  10.863   7.293   3.333  1.4077  0.8081  1.1443
  131MOL0     H17288  10.793   7.027   3.469 -0.8460 -2.2319 -1.5246
  131MOL0     H17289  10.784   7.069   3.302 -1.1439 -0.8043  0.7886
  131MOL0     H17290  11.187   6.937   3.373 -0.2003 -0.9663 -0.6072
  131MOL0     H17291  10.851   7.501   3.851 -1.3929  0.8442  0.8249
  131MOL0     H17292  10.863   7.501   4.088  0.0783  0.0901 -0.4361
  132MOL0     O17293   9.000   4.514   3.662  0.0978 -0.4355  0.1065
  132MOL0     C17294   8.909   4.601   3.677  0.4277  0.2204 -0.5432
  132MOL0     O17295   8.811   4.595   3.769  0.6998  0.3993 -0.6671
  132MOL0     C17296   8.822   4.500   3.865  0.0241  0.6386  0.5643
  132MOL0     C17297   8.889   4.526   3.979 -0.3430  0.0015  1.0677
  132MOL0     C17298   8.938   4.429   4.071  0.1599  0.5771  0.6342
  132MOL0     C17299   8.896   4.293   4.049  1.0488  0.7014 -0.2380
  132MOL0     O17300   8.942   4.181   4.118 -0.8440  0.1551 -0.0497
  132MOL0     C17301   9.082   4.186   4.150  0.5591 -0.2743 -0.7818
  132MOL0     C17302   9.113   4.049   4.165  0.3545  0.3399 -0.4063
  132MOL0     C17303   9.264   4.042   4.195 -0.1380  0.7352  0.4211
  132MOL0     C17304   9.307   4.125   4.325  0.1183 -0.2546 -0.0525
  132MOL0     C17305   9.461   4.122   4.339  0.6899  0.2391  0.0208
  132MOL0     C17306   9.501   3.981   4.403 -0.3921  0.2060  0.2689
  132MOL0     C17307   9.483   3.980   4.555  0.0907 -0.2886 -0.9685
  132MOL0     C17308   9.566   4.093   4.636  0.1081  0.2047 -0.7025
  132MOL0     N17309   9.564   4.065   4.776  0.5740 -0.5436  0.1740
  132MOL0     C17310   9.466   4.101   4.858  0.0538  0.1131 -0.4530
  132MOL0     C17311   9.508   4.066   4.987  0.3072  0.5097  0.6182
  132MOL0     C17312   9.427   4.089   5.119  0.2031  0.1484  1.2010
  132MOL0     C17313   9.280   4.113   5.098  1.2876  0.5770 -0.0535
  132MOL0     C17314   9.205   3.981   5.066 -0.0586 -1.1226  0.6108
  132MOL0     C17315   9.085   3.989   4.971 -0.5900 -0.4196  0.1639
  132MOL0     O17316   9.131   4.046   4.842 -0.6112 -0.1468  0.0107
  132MOL0     C17317   9.054   4.000   4.747 -0.0780  0.4541 -0.1498
  132MOL0     C17318   8.936   4.067   4.714  0.1037 -0.2905  0.5362
  132MOL0     C17319   8.861   4.016   4.611 -0.2568 -0.6042  0.1254
  132MOL0     C17320   8.897   3.900   4.533 -0.6929 -0.6089  1.1085
  132MOL0     C17321   8.818   3.855   4.429 -0.1588  0.3776 -0.7083
  132MOL0     O17322   8.706   3.918   4.395  0.3069  0.1146 -0.6022
  132MOL0     C17323   8.608   3.853   4.319 -0.5004  0.0886 -0.0405
  132MOL0     C17324   8.472   3.866   4.344  0.0796 -0.1080 -0.2541
  132MOL0     C17325   8.369   3.820   4.250 -0.4327  0.1857 -0.7402
  132MOL0     C17326   8.404   3.752   4.137 -0.7994  1.4920 -0.9602
  132MOL0     O17327   8.309   3.696   4.058  0.1302  0.0826  0.1643
  132MOL0     C17328   8.204   3.620   4.113  0.2108  0.0041 -0.0450
  132MOL0     C17329   8.065   3.705   4.117 -0.0334 -0.8106 -0.5908
  132MOL0     C17330   7.950   3.639   4.196 -0.2636  0.1684 -0.4465
  132MOL0     C17331   7.865   3.748   4.257 -0.0555  0.4314  0.5864
  132MOL0     C17332   7.743   3.702   4.335  1.1821  0.0163  0.4122
  132MOL0     C17333   7.771   3.604   4.450  0.1155  1.3708  0.6770
  132MOL0     C17334   7.648   3.567   4.526 -0.5312 -0.0357 -0.0249
  132MOL0     C17335   7.587   3.680   4.595 -0.1573  0.1463 -0.4868
  132MOL0    Cl17336   7.687   3.740   4.728  0.2863 -0.4024 -0.1329
  132MOL0     C17337   8.539   3.745   4.110  0.2976 -0.3058  0.7345
  132MOL0     C17338   8.638   3.799   4.197  0.4605 -0.8755  0.6378
  132MOL0     O17339   8.845   3.740   4.393  0.6118 -0.7534 -0.5185
  132MOL0     C17340   9.023   3.852   4.558 -0.5525  0.2772  0.1513
  132MOL0     C17341   9.092   3.891   4.675 -1.0596  1.2872  0.0579
  132MOL0     N17342   9.640   4.017   4.972  0.6453  0.5844  0.1420
  132MOL0     N17343   9.670   4.033   4.848 -0.0363  0.4314  0.1388
  132MOL0     C17344   8.804   4.269   3.943  0.4178  0.4859 -0.3475
  132MOL0     C17345   8.775   4.366   3.848  0.2386 -0.8295 -0.3927
  132MOL0     C17346   8.906   4.712   3.586 -1.5403  0.7080 -0.7888
  132MOL0     C17347   8.795   4.792   3.572  0.0064 -0.6465  0.6131
  132MOL0     C17348   8.775   4.881   3.454  0.5133 -0.0980  0.0351
  132MOL0     C17349   8.880   4.905   3.375  0.5010  0.8700  1.2954
  132MOL0     O17350   8.863   4.994   3.277  0.4299 -0.7195 -0.2670
  132MOL0     C17351   8.982   5.051   3.212  0.1064 -0.2661  0.1096
  132MOL0     C17352   8.930   5.171   3.120  0.2008  0.4560 -0.1740
  132MOL0     C17353   8.894   5.126   2.982  0.4965 -0.7335  0.6078
  132MOL0     C17354   8.842   5.251   2.898 -0.3702 -0.1201 -0.1317
  132MOL0     C17355   8.723   5.312   2.952 -0.7326 -0.1650  0.6500
  132MOL0     C17356   8.619   5.349   3.002 -0.1618 -0.3982 -0.2593
  132MOL0     C17357   8.998   4.833   3.395  0.0776  0.3999  0.6464
  132MOL0     C17358   9.008   4.737   3.496 -0.8251 -0.8162  0.6535
  132MOL0     H17359   8.927   4.627   3.991 -0.2004 -0.0344  0.9233
  132MOL0     H17360   9.015   4.461   4.140  0.4441  2.3406 -0.4551
  132MOL0     H17361   9.090   4.239   4.245 -2.0246  1.2654 -1.3489
  132MOL0     H17362   9.148   4.228   4.073 -0.1580  2.9536  0.2206
  132MOL0     H17363   9.089   3.997   4.072 -1.8726  0.9037 -0.2092
  132MOL0     H17364   9.049   3.998   4.239 -2.1004  0.7832 -2.0892
  132MOL0     H17365   9.323   4.071   4.108  1.0195  0.3880  1.0626
  132MOL0     H17366   9.290   3.939   4.223  2.0314  1.0575 -0.1895
  132MOL0     H17367   9.289   4.232   4.314  3.1034  0.2399 -1.0176
  132MOL0     H17368   9.257   4.077   4.410  1.0276 -0.7691  0.2120
  132MOL0     H17369   9.511   4.201   4.395  3.2264 -0.6271 -0.8520
  132MOL0     H17370   9.503   4.125   4.237 -3.7919 -1.0686 -2.1163
  132MOL0     H17371   9.601   3.952   4.370 -0.1051  1.1044  0.3347
  132MOL0     H17372   9.436   3.907   4.356 -2.3886  0.9367  1.7457
  132MOL0     H17373   9.378   3.977   4.588  1.4059 -2.0220  3.8649
  132MOL0     H17374   9.526   3.889   4.597 -0.7367 -0.5547 -0.6754
  132MOL0     H17375   9.534   4.196   4.621 -2.0876 -0.3503 -0.1832
  132MOL0     H17376   9.670   4.099   4.603  0.4397 -0.9519  0.0580
  132MOL0     H17377   9.377   4.152   4.823  0.0554  0.2030 -0.3268
  132MOL0     H17378   9.468   4.181   5.162  1.1540 -0.1911  1.0322
  132MOL0     H17379   9.425   4.001   5.184 -3.9236  0.4900  1.8319
  132MOL0     H17380   9.263   4.190   5.022  1.2626 -1.3290 -2.0962
  132MOL0     H17381   9.230   4.141   5.191 -0.7476  0.6408 -1.1058
  132MOL0     H17382   9.284   3.910   5.040  2.1383  1.7469 -1.0733
  132MOL0     H17383   9.173   3.940   5.163  0.7280 -2.8205  0.1978
  132MOL0     H17384   8.993   4.032   5.012  0.8254  3.0526  0.1216
  132MOL0     H17385   9.066   3.882   4.965  3.1492 -1.4589  2.9248
  132MOL0     H17386   8.902   4.140   4.786 -1.4036  3.6942 -3.6617
  132MOL0     H17387   8.765   4.065   4.601 -0.1193 -0.1909  0.7567
  132MOL0     H17388   8.446   3.912   4.440  0.1486  3.4118 -1.7633
  132MOL0     H17389   8.270   3.845   4.285  0.0253  1.5844 -0.3846
  132MOL0     H17390   8.221   3.585   4.215 -4.7385 -0.7909  0.7439
  132MOL0     H17391   8.167   3.541   4.047 -1.4387  2.4685 -2.2889
  132MOL0     H17392   8.013   3.721   4.022 -1.4098  1.1278  0.4269
  132MOL0     H17393   8.092   3.801   4.162  0.0465 -1.5899  1.0694
  132MOL0     H17394   7.994   3.584   4.280 -2.3818  0.4245  0.9081
  132MOL0     H17395   7.895   3.566   4.137  1.4345 -0.8683 -0.8216
  132MOL0     H17396   7.927   3.807   4.325  0.5780  1.3464 -0.7180
  132MOL0     H17397   7.830   3.819   4.181 -1.1431 -0.2790  0.4063
  132MOL0     H17398   7.678   3.644   4.269  0.2045 -2.5375  3.3939
  132MOL0     H17399   7.697   3.798   4.362 -1.6390 -0.7249 -1.3793
  132MOL0     H17400   7.847   3.635   4.523 -0.2706  1.5137  1.0263
  132MOL0     H17401   7.817   3.516   4.406 -0.4880  1.1118  0.5522
  132MOL0     H17402   7.579   3.508   4.465  1.6241 -2.5888 -0.1753
  132MOL0     H17403   7.668   3.498   4.608 -0.8847  0.5142  0.5270
  132MOL0     H17404   7.501   3.643   4.651  0.1786  0.0895 -0.0007
  132MOL0     H17405   7.550   3.747   4.517  4.3039  2.1947 -1.1704
  132MOL0     H17406   8.573   3.701   4.016 -1.8663 -1.0976  0.2644
  132MOL0     H17407   8.741   3.802   4.161  1.4018  7.3774  2.0881
  132MOL0     H17408   9.064   3.767   4.506 -2.0982 -1.3327  1.4386
  132MOL0     H17409   9.184   3.837   4.694 -1.2074  0.8305 -0.4984
  132MOL0     H17410   8.775   4.165   3.929  3.5647 -0.1956 -2.7424
  132MOL0     H17411   8.715   4.349   3.760 -3.4532  0.2200  1.6926
  132MOL0     H17412   8.705   4.777   3.631  1.1325  1.8939  3.2791
  132MOL0     H17413   8.686   4.942   3.441  0.0523 -0.6757  0.3892
  132MOL0     H17414   9.025   4.974   3.147  0.3542  0.0761 -0.1339
  132MOL0     H17415   9.059   5.079   3.284 -0.9277 -1.7064  1.8795
  132MOL0     H17416   8.838   5.220   3.153 -0.8386  1.5027 -4.1136
  132MOL0     H17417   9.012   5.244   3.122  0.7320 -0.1159 -0.7524
  132MOL0     H17418   8.808   5.060   2.999  0.6950 -1.0830  0.2637
  132MOL0     H17419   8.977   5.077   2.931  0.7845  0.0479  0.3163
  132MOL0     H17420   8.924   5.323   2.899 -0.7253  0.4007 -2.4231
  132MOL0     H17421   8.838   5.220   2.793 -0.1735  1.7300 -0.7297
  132MOL0     H17422   8.527   5.397   3.028  0.7227  0.7244  0.8541
  132MOL0     H17423   9.085   4.840   3.330 -0.9768 -1.7039 -1.1115
  132MOL0     H17424   9.100   4.679   3.501 -0.1043  0.3254  1.1154
  133MOL0     O17425   3.769   5.981   7.182  0.1080 -0.2971 -0.2632
  133MOL0     C17426   3.832   5.992   7.079 -0.3827  0.0052 -1.0025
  133MOL0     O17427   3.932   6.091   7.060 -0.4217 -0.4122  0.5322
  133MOL0     C17428   3.978   6.143   7.174 -0.0423  0.1756  0.2386
  133MOL0     C17429   4.096   6.094   7.228 -0.0499  0.4505  0.3539
  133MOL0     C17430   4.141   6.125   7.359 -0.3125 -0.5593 -0.2736
  133MOL0     C17431   4.083   6.240   7.431 -0.0722  0.4262 -0.6311
  133MOL0     O17432   4.133   6.302   7.537 -0.1647  0.2267  0.1477
  133MOL0     C17433   4.192   6.215   7.646 -0.6750 -0.3178 -1.2955
  133MOL0     C17434   4.216   6.301   7.765  1.1007 -0.6824 -1.0874
  133MOL0     C17435   4.334   6.388   7.733  0.3960 -0.5264  0.4540
  133MOL0     C17436   4.344   6.502   7.837  0.8200 -0.5414  0.3803
  133MOL0     C17437   4.474   6.589   7.848 -0.0832  1.1922  0.3973
  133MOL0     C17438   4.446   6.726   7.908  0.3892  0.4790  0.4541
  133MOL0     C17439   4.574   6.807   7.915  0.7422 -0.0664 -0.7769
  133MOL0     C17440   4.616   6.865   7.786 -0.2646  0.2740  0.3137
  133MOL0     N17441   4.537   6.965   7.723 -0.3728  0.0327  0.0341
  133MOL0     C17442   4.444   6.954   7.626  0.1199  1.2374  0.3953
  133MOL0     C17443   4.411   7.081   7.600  1.0333 -0.1164 -0.1914
  133MOL0     C17444   4.336   7.104   7.467 -0.5743  0.2889 -0.1671
  133MOL0     C17445   4.199   7.031   7.462 -0.0913 -0.1392 -0.1417
  133MOL0     C17446   4.108   7.091   7.351  0.5547 -0.2006 -0.2291
  133MOL0     C17447   4.148   7.067   7.213  0.6918 -0.3017  0.2714
  133MOL0     O17448   4.145   6.929   7.180  0.0668 -0.2675  0.3295
  133MOL0     C17449   4.029   6.856   7.174  0.7051 -0.0210 -0.1613
  133MOL0     C17450   3.904   6.915   7.148  0.4339 -0.3625 -0.1932
  133MOL0     C17451   3.784   6.836   7.148 -0.5534 -0.1109  0.0279
  133MOL0     C17452   3.793   6.690   7.136  0.8674 -0.0107  0.0611
  133MOL0     C17453   3.666   6.608   7.130 -0.6823  0.5609 -0.1938
  133MOL0     O17454   3.546   6.672   7.133 -0.1423 -0.3544  0.4624
  133MOL0     C17455   3.429   6.611   7.164 -0.7441 -0.5691  0.4868
  133MOL0     C17456   3.314   6.645   7.094 -1.2067 -1.0876 -0.5087
  133MOL0     C17457   3.191   6.602   7.156 -0.1635  0.4536  0.4984
  133MOL0     C17458   3.188   6.514   7.261  0.2416  0.1024  0.9492
  133MOL0     O17459   3.063   6.494   7.313  0.6078  0.5906  0.7633
  133MOL0     C17460   3.034   6.361   7.362  0.8460  0.5698 -0.5240
  133MOL0     C17461   2.885   6.329   7.348  0.1445  0.4266  0.2225
  133MOL0     C17462   2.807   6.356   7.477  0.4187  0.7702  0.1782
  133MOL0     C17463   2.786   6.503   7.505 -0.4695 -0.0163 -0.2167
  133MOL0     C17464   2.679   6.528   7.612  1.1735  1.4464 -0.7826
  133MOL0     C17465   2.707   6.436   7.743  0.2023 -0.7647 -0.6135
  133MOL0     C17466   2.640   6.511   7.864 -0.2083 -0.5068  1.8085
  133MOL0     C17467   2.671   6.430   7.984 -0.4222 -0.5582  0.4754
  133MOL0    Cl17468   2.574   6.501   8.102  0.1681  0.8187 -0.0585
  133MOL0     C17469   3.308   6.466   7.320 -0.1896 -1.3253  0.8377
  133MOL0     C17470   3.429   6.515   7.272  0.7711 -0.1525  0.7975
  133MOL0     O17471   3.686   6.486   7.113 -0.0432 -0.3296  0.3036
  133MOL0     C17472   3.911   6.633   7.157 -0.0569  0.1155  0.5607
  133MOL0     C17473   4.018   6.714   7.190 -0.0623 -0.0348  0.0850
  133MOL0     N17474   4.485   7.163   7.672  0.1371  0.1762  0.3056
  133MOL0     N17475   4.564   7.096   7.739  0.2978  0.4684 -0.5777
  133MOL0     C17476   3.958   6.278   7.374 -0.6333 -0.4798  0.1106
  133MOL0     C17477   3.911   6.236   7.247 -0.1759  0.1386 -1.1489
  133MOL0     C17478   3.793   5.901   6.968  0.8238 -0.1987  0.7588
  133MOL0     C17479   3.758   5.774   7.000  0.8159  0.7270  0.6582
  133MOL0     C17480   3.722   5.681   6.901 -0.3686  0.1242 -0.4996
  133MOL0     C17481   3.745   5.709   6.767 -0.2379 -0.2666  0.2263
  133MOL0     O17482   3.714   5.607   6.689  0.1995  0.0536 -0.1949
  133MOL0     C17483   3.738   5.623   6.541  0.6592  0.1612 -0.2992
  133MOL0     C17484   3.732   5.498   6.458 -0.1705  0.3562 -0.1679
  133MOL0     C17485   3.819   5.388   6.499  0.6597  0.2636 -1.4898
  133MOL0     C17486   3.882   5.306   6.382  0.1806 -0.4082 -0.3205
  133MOL0     C17487   3.782   5.241   6.302  0.4003  0.9156 -0.4816
  133MOL0     C17488   3.701   5.201   6.225  0.0136  1.2805 -0.5833
  133MOL0     C17489   3.788   5.843   6.734  0.6257  0.0926  0.1843
  133MOL0     C17490   3.810   5.937   6.833 -0.0360 -0.2051 -0.2561
  133MOL0     H17491   4.150   6.027   7.162 -0.2753  0.1494  0.4719
  133MOL0     H17492   4.224   6.076   7.408  1.3676  1.9640 -0.4241
  133MOL0     H17493   4.286   6.166   7.619 -0.3890 -2.2197  2.5649
  133MOL0     H17494   4.120   6.135   7.663  1.3296 -2.8060 -3.6013
  133MOL0     H17495   4.226   6.228   7.846 -1.6591  0.2578  0.2551
  133MOL0     H17496   4.119   6.347   7.790 -0.2726 -4.2751  0.9858
  133MOL0     H17497   4.331   6.441   7.637  0.9991  2.0328  1.7634
  133MOL0     H17498   4.432   6.341   7.727  1.2330  1.1941 -0.1334
  133MOL0     H17499   4.267   6.570   7.801 -0.3821 -2.1272 -0.1539
  133MOL0     H17500   4.322   6.455   7.934 -0.6395  0.8249  0.7550
  133MOL0     H17501   4.515   6.589   7.746 -1.1997  1.6780 -0.0687
  133MOL0     H17502   4.546   6.537   7.913 -0.9049 -1.2192 -0.4880
  133MOL0     H17503   4.402   6.711   8.007  2.6320  1.0350  1.5958
  133MOL0     H17504   4.378   6.766   7.832  0.9108 -1.5721 -1.1819
  133MOL0     H17505   4.548   6.886   7.986  0.2122 -0.3130 -0.6910
  133MOL0     H17506   4.653   6.745   7.958  0.6110  0.4490  0.2441
  133MOL0     H17507   4.629   6.774   7.726 -0.5631  0.9984 -0.8842
  133MOL0     H17508   4.714   6.907   7.808  0.7476 -1.1252 -1.2331
  133MOL0     H17509   4.420   6.860   7.576  4.1550  1.2072 -1.9374
  133MOL0     H17510   4.380   7.059   7.378  1.2485 -0.4676  1.0712
  133MOL0     H17511   4.314   7.210   7.449 -1.3267  0.7882  3.0966
  133MOL0     H17512   4.140   7.033   7.554  4.0180 -0.1637  2.8044
  133MOL0     H17513   4.205   6.922   7.459  0.7366 -0.0795 -1.4310
  133MOL0     H17514   4.016   7.033   7.369  2.3249 -3.4855 -0.9482
  133MOL0     H17515   4.091   7.199   7.353 -0.6771 -0.2332 -3.0946
  133MOL0     H17516   4.252   7.098   7.198  0.2333  1.0959 -0.2043
  133MOL0     H17517   4.075   7.111   7.144  0.1726 -1.4182  0.0821
  133MOL0     H17518   3.885   7.021   7.140 -0.6624 -0.4891  0.4947
  133MOL0     H17519   3.688   6.880   7.125 -2.8988 -3.9745  1.4960
  133MOL0     H17520   3.322   6.710   7.008 -0.1927 -0.8317 -0.2434
  133MOL0     H17521   3.091   6.626   7.121  0.3107  1.8815  0.0806
  133MOL0     H17522   3.066   6.356   7.467 -0.9911  0.1973  0.0658
  133MOL0     H17523   3.081   6.285   7.299 -0.2977 -0.3778 -0.2774
  133MOL0     H17524   2.883   6.223   7.321  3.3345  0.6734 -1.4843
  133MOL0     H17525   2.840   6.385   7.265  0.3328  1.6481  0.9117
  133MOL0     H17526   2.867   6.318   7.560  1.2630  3.7916  1.1063
  133MOL0     H17527   2.710   6.307   7.473  1.2381 -0.8318 -1.0374
  133MOL0     H17528   2.885   6.532   7.542 -0.6547  1.6584 -0.9303
  133MOL0     H17529   2.784   6.566   7.416 -1.9032 -0.4838 -0.5503
  133MOL0     H17530   2.574   6.509   7.588  1.5295 -2.0179 -0.0987
  133MOL0     H17531   2.690   6.633   7.643  0.2798  0.8964  1.5740
  133MOL0     H17532   2.815   6.435   7.762  0.4259  2.2203 -1.3091
  133MOL0     H17533   2.671   6.332   7.741 -0.5700 -0.7207  3.0041
  133MOL0     H17534   2.686   6.608   7.882  1.5790 -0.7517 -0.9120
  133MOL0     H17535   2.535   6.516   7.835  0.4811 -0.1988 -0.8588
  133MOL0     H17536   2.775   6.457   8.004 -1.2480  2.0404  1.6989
  133MOL0     H17537   2.638   6.326   7.987 -3.4081  0.3107  2.6126
  133MOL0     H17538   3.303   6.408   7.412  1.5253  0.1244  1.9145
  133MOL0     H17539   3.518   6.466   7.311  1.9350  3.2614  2.8302
  133MOL0     H17540   3.931   6.527   7.169  1.1916  0.5494  2.7097
  133MOL0     H17541   4.115   6.672   7.215 -0.8063 -3.1276 -1.6524
  133MOL0     H17542   3.904   6.353   7.432 -0.2185  0.1688 -0.3256
  133MOL0     H17543   3.813   6.267   7.213 -2.8134 -3.1046  2.5637
  133MOL0     H17544   3.764   5.742   7.104  1.2465  1.0124  0.7228
  133MOL0     H17545   3.691   5.580   6.924  1.4368 -0.0958  1.1773
  133MOL0     H17546   3.834   5.671   6.521  0.1176  1.5283  0.2299
  133MOL0     H17547   3.660   5.691   6.505 -0.0860 -0.4841  0.0811
  133MOL0     H17548   3.627   5.465   6.457 -1.3726  3.7671 -0.4774
  133MOL0     H17549   3.761   5.511   6.354  0.9990  0.4881  0.1619
  133MOL0     H17550   3.758   5.324   6.563  2.4782  0.1907  0.2579
  133MOL0     H17551   3.897   5.422   6.567 -1.2192  1.2320  0.2924
  133MOL0     H17552   3.923   5.383   6.316  3.1183 -1.5032  0.0238
  133MOL0     H17553   3.966   5.241   6.411  2.5082  0.6259 -3.9377
  133MOL0     H17554   3.632   5.166   6.150 -0.9262  1.7628  0.0437
  133MOL0     H17555   3.796   5.878   6.631 -2.9836 -1.1679 -0.6533
  133MOL0     H17556   3.845   6.033   6.798  0.3805 -0.3008 -0.1067
  134MOL0     O17557   5.525   5.520   9.797 -0.5328  0.0123 -0.3383
  134MOL0     C17558   5.512   5.625   9.738 -0.7722 -0.1366 -0.2153
  134MOL0     O17559   5.388   5.668   9.679 -0.4424  0.6235 -0.0501
  134MOL0     C17560   5.289   5.562   9.683 -0.4095  0.3814  0.5963
  134MOL0     C17561   5.184   5.563   9.778 -0.2964 -0.0178  0.3513
  134MOL0     C17562   5.082   5.470   9.764 -0.3741 -0.9156 -1.3575
  134MOL0     C17563   5.085   5.367   9.672  0.2238 -0.3898  0.1412
  134MOL0     O17564   4.984   5.270   9.658 -0.4990  0.1609  0.9644
  134MOL0     C17565   4.871   5.268   9.744  0.6396 -0.1191 -0.7816
  134MOL0     C17566   4.756   5.346   9.670  0.7705  0.1648  0.6423
  134MOL0     C17567   4.622   5.348   9.753 -0.3494  0.8265  0.7239
  134MOL0     C17568   4.614   5.448   9.875 -0.0883  0.6443  0.5163
  134MOL0     C17569   4.467   5.444   9.915  0.7296 -1.0441 -0.7271
  134MOL0     C17570   4.378   5.504   9.799  1.2217 -0.8071 -0.2765
  134MOL0     C17571   4.263   5.577   9.841  0.5403 -0.0559 -0.1255
  134MOL0     C17572   4.176   5.618   9.720  0.2784 -0.1144 -0.1596
  134MOL0     N17573   4.079   5.714   9.769  0.9643 -0.1716  0.3942
  134MOL0     C17574   3.950   5.697   9.808 -0.2601 -0.1908 -1.2004
  134MOL0     C17575   3.919   5.818   9.855  0.8488 -0.0971  0.2142
  134MOL0     C17576   3.793   5.859   9.916  1.5517  0.6807  0.1148
  134MOL0     C17577   3.795   5.794  10.052  1.1319  0.7008 -0.4786
  134MOL0     C17578   3.662   5.729  10.098 -0.2657  0.5964 -0.4082
  134MOL0     C17579   3.616   5.748  10.241  0.4499  0.1283  0.4317
  134MOL0     O17580   3.601   5.894  10.267 -0.1914  0.5366  0.4189
  134MOL0     C17581   3.490   5.940  10.207  0.0547  0.0901 -0.5412
  134MOL0     C17582   3.507   6.054  10.139 -0.0157 -0.4160 -0.6398
  134MOL0     C17583   3.404   6.114  10.080 -0.3421 -0.8086 -0.1294
  134MOL0     C17584   3.274   6.066  10.066 -0.2529  1.2138 -0.0866
  134MOL0     C17585   3.163   6.118   9.987  1.1165 -0.0977  0.4718
  134MOL0     O17586   3.046   6.038   9.982 -0.1448  0.2563 -0.2296
  134MOL0     C17587   2.941   6.094   9.913 -0.3269 -0.2508  0.2901
  134MOL0     C17588   2.863   6.187   9.982 -0.0990 -0.9894 -0.1327
  134MOL0     C17589   2.758   6.249   9.915 -0.7390 -1.1167  0.3601
  134MOL0     C17590   2.732   6.224   9.774  0.0230  1.2522 -0.3308
  134MOL0     O17591   2.622   6.277   9.720 -0.2332  0.3973  0.4610
  134MOL0     C17592   2.615   6.275   9.572 -0.7548 -0.8566  0.4671
  134MOL0     C17593   2.504   6.374   9.519  0.2624 -0.4247 -0.0448
  134MOL0     C17594   2.358   6.364   9.582 -0.1687 -0.4535 -0.2568
  134MOL0     C17595   2.263   6.474   9.538  0.1350  0.7492 -0.0207
  134MOL0     C17596   2.320   6.618   9.533 -1.0652  0.3773 -1.1741
  134MOL0     C17597   2.372   6.662   9.397 -0.5862 -0.0887  0.7005
  134MOL0     C17598   2.268   6.648   9.288 -0.3528  0.1628 -0.9777
  134MOL0     C17599   2.300   6.750   9.176 -1.1842 -0.4875 -0.3160
  134MOL0    Cl17600   2.455   6.700   9.099  0.2543  0.4377  0.1621
  134MOL0     C17601   2.802   6.118   9.717 -0.4999 -0.3763  0.7440
  134MOL0     C17602   2.900   6.054   9.785 -1.2661 -0.2020 -0.4972
  134MOL0     O17603   3.182   6.227   9.929  0.1286 -0.0929  0.1168
  134MOL0     C17604   3.258   5.946  10.146 -0.2598  0.0082  0.9674
  134MOL0     C17605   3.364   5.884  10.215  0.8322  0.3769 -0.8411
  134MOL0     N17606   4.014   5.912   9.816 -0.9575  0.0680 -0.1755
  134MOL0     N17607   4.114   5.848   9.771 -0.7640 -0.5547  0.1102
  134MOL0     C17608   5.200   5.356   9.590 -0.1306  0.0832 -0.4937
  134MOL0     C17609   5.294   5.455   9.589 -0.1003 -0.1333 -0.7569
  134MOL0     C17610   5.628   5.719   9.728  0.0051  0.3059 -0.6103
  134MOL0     C17611   5.607   5.850   9.700 -0.8709 -1.2579  0.2312
  134MOL0     C17612   5.713   5.938   9.684  0.3628 -0.2729  0.0267
  134MOL0     C17613   5.847   5.895   9.682  1.0545  0.5507 -0.8861
  134MOL0     O17614   5.947   5.981   9.657  0.4917 -0.2931  0.8747
  134MOL0     C17615   6.021   6.006   9.775 -1.1122 -0.0474  1.1483
  134MOL0     C17616   5.993   6.134   9.832 -0.3259 -1.0466 -0.3251
  134MOL0     C17617   6.110   6.229   9.819  0.0661  0.3509  0.0096
  134MOL0     C17618   6.063   6.374   9.848 -0.4837 -0.0406  1.1527
  134MOL0     C17619   6.171   6.466   9.808 -0.1777  0.0047 -0.3338
  134MOL0     C17620   6.259   6.547   9.788  0.5443 -0.8287 -0.0764
  134MOL0     C17621   5.866   5.757   9.719  0.1632  0.5079 -0.1513
  134MOL0     C17622   5.756   5.669   9.732  0.3126  0.7998  0.0488
  134MOL0     H17623   5.171   5.644   9.849 -0.4377  2.0256 -1.8851
  134MOL0     H17624   4.993   5.482   9.826  0.5222  0.9821 -0.3631
  134MOL0     H17625   4.888   5.307   9.845 -2.9887 -1.6072  0.5876
  134MOL0     H17626   4.850   5.160   9.745  0.7238 -0.1437  0.2869
  134MOL0     H17627   4.752   5.292   9.575  2.4097  1.2537 -0.0948
  134MOL0     H17628   4.782   5.447   9.637  0.0626  0.5369  1.1806
  134MOL0     H17629   4.603   5.249   9.795  2.7329 -0.0876  0.2266
  134MOL0     H17630   4.544   5.374   9.681  2.3615 -1.4975 -3.4714
  134MOL0     H17631   4.678   5.413   9.957 -1.7371 -1.7407  0.8762
  134MOL0     H17632   4.654   5.545   9.846 -0.6064  1.3040  1.9272
  134MOL0     H17633   4.473   5.510  10.001  0.1528  0.5294 -1.8433
  134MOL0     H17634   4.426   5.353   9.959 -1.0899  0.8367  1.7572
  134MOL0     H17635   4.344   5.419   9.738  1.7993 -1.0424 -0.2694
  134MOL0     H17636   4.434   5.576   9.740  2.5033  1.3393  3.2824
  134MOL0     H17637   4.207   5.508   9.905 -0.6984 -0.3564 -1.4734
  134MOL0     H17638   4.291   5.667   9.895 -0.7173  0.9602 -1.0982
  134MOL0     H17639   4.126   5.528   9.682  2.4489 -0.8381 -1.4892
  134MOL0     H17640   4.228   5.683   9.650  3.5471  0.5143  2.5658
  134MOL0     H17641   3.884   5.612   9.818 -1.1796  0.7228  0.9155
  134MOL0     H17642   3.699   5.829   9.869  0.3494  0.9176  2.2573
  134MOL0     H17643   3.794   5.965   9.943  0.1945  0.6705  0.2367
  134MOL0     H17644   3.821   5.875  10.121  0.3810  0.4275  0.1453
  134MOL0     H17645   3.882   5.730  10.068  1.1600  1.0978  1.2220
  134MOL0     H17646   3.584   5.767  10.031 -1.0943  0.4941  0.4757
  134MOL0     H17647   3.680   5.623  10.081  1.7364  0.2965  2.7129
  134MOL0     H17648   3.697   5.704  10.300  0.0313 -0.0670  0.8705
  134MOL0     H17649   3.520   5.701  10.263 -0.0095  0.9114  0.1549
  134MOL0     H17650   3.607   6.098  10.139  0.2902 -0.5104  4.1749
  134MOL0     H17651   3.428   6.208  10.031 -2.0543 -0.4719 -0.3767
  134MOL0     H17652   2.891   6.215  10.083 -1.1303  0.7257 -0.2941
  134MOL0     H17653   2.704   6.319   9.978 -1.0919 -2.1167  1.2058
  134MOL0     H17654   2.595   6.178   9.526 -1.0690 -1.0295  0.9520
  134MOL0     H17655   2.701   6.309   9.514 -2.0121 -2.8267 -2.7953
  134MOL0     H17656   2.484   6.364   9.412  1.1778  0.2162 -0.2844
  134MOL0     H17657   2.540   6.474   9.543 -0.6696  0.0015 -0.3868
  134MOL0     H17658   2.364   6.371   9.691 -2.6153 -1.9532  0.0435
  134MOL0     H17659   2.317   6.266   9.560 -0.5586 -0.7163  1.4544
  134MOL0     H17660   2.237   6.442   9.437 -0.9682  1.5476 -0.0039
  134MOL0     H17661   2.171   6.462   9.596  0.4748 -3.2916 -0.0464
  134MOL0     H17662   2.396   6.628   9.611 -1.4564 -1.1553 -0.5593
  134MOL0     H17663   2.233   6.678   9.562 -0.1283  0.6000  1.4002
  134MOL0     H17664   2.462   6.606   9.371 -0.9486 -1.3601  2.0674
  134MOL0     H17665   2.400   6.768   9.399  0.6883 -0.4104  0.6927
  134MOL0     H17666   2.275   6.547   9.247  1.0477  0.6090 -1.9227
  134MOL0     H17667   2.173   6.668   9.339 -0.4822 -2.4175 -0.0560
  134MOL0     H17668   2.323   6.849   9.217  1.5512 -0.7901 -0.9081
  134MOL0     H17669   2.219   6.770   9.105  1.5730  2.4847 -2.9755
  134MOL0     H17670   2.785   6.087   9.614 -3.0276  6.0977 -1.2597
  134MOL0     H17671   2.954   5.973   9.738  1.3161  2.3159 -2.1985
  134MOL0     H17672   3.161   5.898  10.139  0.5252 -1.6157  0.7965
  134MOL0     H17673   3.329   5.797  10.270  2.4819  0.0026 -0.3475
  134MOL0     H17674   5.194   5.275   9.517 -0.4732  1.0713 -1.5964
  134MOL0     H17675   5.388   5.443   9.537  0.3646  0.2424 -0.0151
  134MOL0     H17676   5.509   5.893   9.683 -1.0532  0.0439  3.6851
  134MOL0     H17677   5.705   6.044   9.661 -1.1942 -0.2025  0.7414
  134MOL0     H17678   6.123   5.990   9.739 -2.1670 -1.9768 -1.2559
  134MOL0     H17679   6.007   5.931   9.854  0.2474 -3.2123 -1.3801
  134MOL0     H17680   5.911   6.183   9.779 -0.1134  0.5541  0.7678
  134MOL0     H17681   5.965   6.126   9.937 -1.4808 -1.4807 -0.6527
  134MOL0     H17682   6.154   6.214   9.720 -3.4342  0.4068 -1.7268
  134MOL0     H17683   6.189   6.201   9.889 -1.7530 -1.4313  1.4899
  134MOL0     H17684   5.969   6.392   9.795 -0.9792  1.2844  2.4215
  134MOL0     H17685   6.057   6.380   9.957  0.0710 -3.4808  1.4921
  134MOL0     H17686   6.336   6.615   9.759 -1.9239  2.4742  0.5549
  134MOL0     H17687   5.967   5.718   9.728 -0.5092 -0.8909  1.8828
  134MOL0     H17688   5.786   5.567   9.756  2.5193  2.3653  5.3603
  135MOL0     O17689   0.298   1.103   8.935 -0.0501 -0.1208 -0.9310
  135MOL0     C17690   0.230   1.029   9.013  0.0199  0.5129  0.6563
  135MOL0     O17691   0.094   1.014   9.010 -0.0384  0.5422 -1.3188
  135MOL0     C17692   0.003   1.068   8.921 -0.6057  0.4501 -0.5132
  135MOL0     C17693   0.027   1.183   8.839  0.1678  0.1889 -0.2648
  135MOL0     C17694  -0.070   1.224   8.750 -0.3419  0.1990 -0.0507
  135MOL0     C17695  -0.195   1.158   8.746  0.0845 -0.3176 -0.0754
  135MOL0     O17696  -0.274   1.206   8.646 -0.3809 -0.4560  0.6342
  135MOL0     C17697  -0.412   1.156   8.656  0.2283  0.3067  0.9439
  135MOL0     C17698  -0.486   1.258   8.559 -0.5977  0.1142 -0.7656
  135MOL0     C17699  -0.494   1.407   8.617 -0.5889 -0.7955  0.3875
  135MOL0     C17700  -0.590   1.492   8.543 -0.4886  0.5982 -0.1025
  135MOL0     C17701  -0.569   1.642   8.562  0.0154  0.3466 -0.4148
  135MOL0     C17702  -0.437   1.689   8.497 -0.9860  0.1007  1.2571
  135MOL0     C17703  -0.441   1.842   8.502  0.8442 -0.9462  1.3335
  135MOL0     C17704  -0.318   1.902   8.436  0.7262 -0.0729  0.2283
  135MOL0     N17705  -0.314   2.046   8.426  0.2488  0.3135  0.0931
  135MOL0     C17706  -0.265   2.109   8.315  0.5699  0.0844  0.0471
  135MOL0     C17707  -0.237   2.230   8.354 -0.2785  0.0584  0.0212
  135MOL0     C17708  -0.216   2.342   8.258 -0.2908 -0.4698 -0.1155
  135MOL0     C17709  -0.075   2.395   8.287  0.0757 -0.6244  0.0031
  135MOL0     C17710  -0.057   2.489   8.173 -0.5203 -0.2294 -0.0887
  135MOL0     C17711   0.096   2.528   8.159 -0.6568 -0.3762 -0.9953
  135MOL0     O17712   0.154   2.549   8.292  0.1165 -0.5839 -0.5489
  135MOL0     C17713   0.149   2.669   8.348  0.2877  0.6511 -0.1990
  135MOL0     C17714   0.090   2.783   8.294  0.6770  0.4051  0.2626
  135MOL0     C17715   0.132   2.908   8.340 -0.7745 -0.1717  0.4068
  135MOL0     C17716   0.214   2.935   8.449  0.9100  0.5498  1.0055
  135MOL0     C17717   0.246   3.065   8.502 -0.5138  0.2411  0.3176
  135MOL0     O17718   0.295   3.080   8.629 -0.1369 -0.9249 -0.3218
  135MOL0     C17719   0.310   3.203   8.681 -0.4244 -0.1804  0.0735
  135MOL0     C17720   0.413   3.222   8.786 -0.6013  0.5720 -0.2143
  135MOL0     C17721   0.425   3.340   8.854 -0.2924  0.1997 -0.7334
  135MOL0     C17722   0.354   3.457   8.817  0.4523  1.2087 -1.0406
  135MOL0     O17723   0.368   3.578   8.876 -0.2148 -0.2186  0.3947
  135MOL0     C17724   0.485   3.652   8.827 -0.2587  0.2763  0.5002
  135MOL0     C17725   0.463   3.775   8.734 -0.0041  0.3593 -0.6015
  135MOL0     C17726   0.343   3.867   8.771  0.0376  0.1836  0.6018
  135MOL0     C17727   0.371   4.016   8.750 -0.6207  1.7541  0.1361
  135MOL0     C17728   0.236   4.087   8.753  0.7145 -0.5127  0.3832
  135MOL0     C17729   0.245   4.204   8.848 -0.5902  0.8471 -0.1497
  135MOL0     C17730   0.109   4.267   8.848  0.4445 -0.8204  0.9930
  135MOL0     C17731   0.115   4.411   8.907  0.3282  0.2832 -0.1859
  135MOL0    Cl17732  -0.030   4.518   8.874 -0.3564  0.1658 -0.0920
  135MOL0     C17733   0.270   3.449   8.713  0.7736 -0.1463 -0.3137
  135MOL0     C17734   0.243   3.327   8.649  0.2701 -0.2169 -0.6179
  135MOL0     O17735   0.224   3.155   8.417 -0.4347  0.0895 -0.1540
  135MOL0     C17736   0.246   2.813   8.508 -0.0239  0.1918 -0.7325
  135MOL0     C17737   0.223   2.684   8.462  0.1200 -0.3065 -0.6518
  135MOL0     N17738  -0.234   2.236   8.489  0.3827 -0.8192  0.3830
  135MOL0     N17739  -0.287   2.128   8.537  1.1387 -0.2368  0.7080
  135MOL0     C17740  -0.219   1.041   8.827  0.3615  0.9559 -0.8732
  135MOL0     C17741  -0.123   0.998   8.918 -0.2618 -0.4805 -0.0547
  135MOL0     C17742   0.301   0.946   9.115 -0.1275  0.5027  0.1394
  135MOL0     C17743   0.411   0.991   9.189  0.4582 -0.5144 -0.1096
  135MOL0     C17744   0.487   0.921   9.279  0.6846 -1.7909 -0.0962
  135MOL0     C17745   0.440   0.799   9.316  0.3442  0.4896 -0.4136
  135MOL0     O17746   0.510   0.740   9.421 -0.0999 -0.0618  0.2125
  135MOL0     C17747   0.443   0.669   9.522 -0.4062  0.3815 -0.4953
  135MOL0     C17748   0.532   0.622   9.636 -0.4847  0.7073 -0.2049
  135MOL0     C17749   0.662   0.545   9.592  0.5024  0.0950  0.5238
  135MOL0     C17750   0.777   0.594   9.676 -0.3089 -0.2604  0.2059
  135MOL0     C17751   0.897   0.509   9.653 -0.1866  0.5291 -0.2227
  135MOL0     C17752   0.997   0.439   9.632  0.2727 -0.1138 -0.3284
  135MOL0     C17753   0.324   0.744   9.256  0.0337 -0.3636  0.4996
  135MOL0     C17754   0.257   0.813   9.146  0.1795  0.7696 -0.0360
  135MOL0     H17755   0.120   1.239   8.841  0.1554  0.1981  2.0151
  135MOL0     H17756  -0.043   1.305   8.683 -0.6246  1.0102  0.7893
  135MOL0     H17757  -0.448   1.156   8.760  2.9941 -0.5557  1.9917
  135MOL0     H17758  -0.414   1.061   8.602 -1.1504 -0.8275  2.8558
  135MOL0     H17759  -0.588   1.221   8.568 -1.2950  2.0520 -0.2750
  135MOL0     H17760  -0.437   1.249   8.462  1.1850  1.1779 -0.0250
  135MOL0     H17761  -0.395   1.451   8.607 -0.7118 -0.3595  1.0139
  135MOL0     H17762  -0.517   1.405   8.724 -1.0106 -0.9115  0.2988
  135MOL0     H17763  -0.587   1.481   8.434  0.1343 -0.8501  0.0354
  135MOL0     H17764  -0.692   1.465   8.572  0.4955 -1.6878  1.5469
  135MOL0     H17765  -0.584   1.660   8.669  3.8024 -2.6017  0.8740
  135MOL0     H17766  -0.654   1.680   8.505 -2.4194 -1.6801  1.5929
  135MOL0     H17767  -0.421   1.648   8.397 -1.3065  1.8246  0.4612
  135MOL0     H17768  -0.350   1.654   8.554  0.1526 -1.4759 -1.2607
  135MOL0     H17769  -0.535   1.879   8.460  0.4684 -1.3676  1.7817
  135MOL0     H17770  -0.438   1.871   8.608  2.1197 -1.0226  1.3396
  135MOL0     H17771  -0.322   1.870   8.331 -1.5121  1.0471 -0.0806
  135MOL0     H17772  -0.222   1.866   8.475  2.8103  2.1627 -2.4311
  135MOL0     H17773  -0.271   2.062   8.217 -1.1122  0.5773 -0.1091
  135MOL0     H17774  -0.292   2.421   8.257 -2.2090 -2.2081 -1.5116
  135MOL0     H17775  -0.219   2.302   8.156  1.2696 -0.2278 -0.2852
  135MOL0     H17776  -0.007   2.309   8.291 -1.0542 -1.6471 -1.5243
  135MOL0     H17777  -0.066   2.449   8.382 -0.1266 -3.0036  1.4757
  135MOL0     H17778  -0.091   2.445   8.079  1.7284 -0.6181 -0.7861
  135MOL0     H17779  -0.117   2.577   8.198  0.8933  0.2121  2.1248
  135MOL0     H17780   0.111   2.615   8.095 -0.6906 -0.4281 -1.0744
  135MOL0     H17781   0.145   2.444   8.110  2.6970 -0.1693  1.6003
  135MOL0     H17782   0.027   2.773   8.206 -0.5794  1.2403  1.0355
  135MOL0     H17783   0.105   3.002   8.294 -2.9874 -0.6414  0.6097
  135MOL0     H17784   0.487   3.146   8.811 -3.5775 -1.7200  2.4514
  135MOL0     H17785   0.511   3.359   8.918  0.9709 -0.9660 -2.0288
  135MOL0     H17786   0.545   3.572   8.782  0.3842  0.1320  1.5833
  135MOL0     H17787   0.540   3.689   8.914 -0.6179  0.9524  0.4492
  135MOL0     H17788   0.465   3.754   8.626 -6.1562 -0.9601 -0.7942
  135MOL0     H17789   0.546   3.844   8.753  0.3940  0.3209 -2.0058
  135MOL0     H17790   0.308   3.847   8.872 -2.4512 -3.6912 -0.7668
  135MOL0     H17791   0.257   3.836   8.710  1.3183 -1.4725 -0.4841
  135MOL0     H17792   0.449   4.048   8.819  1.2669  1.0984 -1.6039
  135MOL0     H17793   0.415   4.048   8.656 -0.7632 -0.1435 -0.6130
  135MOL0     H17794   0.157   4.020   8.786 -1.0607  1.6694  0.8106
  135MOL0     H17795   0.210   4.119   8.652 -0.8041 -3.4500 -0.2584
  135MOL0     H17796   0.313   4.285   8.817  0.7536  1.1130  3.1636
  135MOL0     H17797   0.285   4.168   8.943 -0.0613  1.1126 -0.2647
  135MOL0     H17798   0.082   4.293   8.745  3.8806  0.6136  0.3322
  135MOL0     H17799   0.029   4.206   8.892 -2.8155  1.7663 -0.9263
  135MOL0     H17800   0.205   4.461   8.871 -0.3321  2.1433  0.6019
  135MOL0     H17801   0.121   4.389   9.014  1.0671  1.3088 -0.0114
  135MOL0     H17802   0.215   3.526   8.660  0.8965 -1.2615 -2.1325
  135MOL0     H17803   0.163   3.323   8.576  1.3276  0.1137 -1.8277
  135MOL0     H17804   0.302   2.804   8.601 -1.6556  0.8648  0.3548
  135MOL0     H17805   0.270   2.596   8.505 -0.9517 -1.0999 -1.0472
  135MOL0     H17806  -0.305   0.975   8.819  1.4670 -0.4643 -1.5203
  135MOL0     H17807  -0.134   0.910   8.981 -0.1676 -1.3215 -1.1908
  135MOL0     H17808   0.463   1.081   9.159  2.1808 -1.4439 -0.0378
  135MOL0     H17809   0.582   0.953   9.319  0.7720 -0.0324 -1.5339
  135MOL0     H17810   0.404   0.575   9.482  0.4113  0.4862 -1.5683
  135MOL0     H17811   0.362   0.727   9.568 -1.2686 -1.7399  0.8554
  135MOL0     H17812   0.558   0.703   9.704  0.6888  0.2707 -0.1050
  135MOL0     H17813   0.475   0.560   9.706 -1.1566  2.9055  1.3005
  135MOL0     H17814   0.686   0.573   9.489 -0.2033  2.2124  0.8797
  135MOL0     H17815   0.649   0.436   9.596 -0.6453  0.2179  0.3989
  135MOL0     H17816   0.803   0.695   9.644  1.0654 -1.9734 -5.0903
  135MOL0     H17817   0.751   0.581   9.782 -2.1616 -2.6793 -0.4290
  135MOL0     H17818   1.077   0.369   9.622  0.2722 -0.4044  1.4657
  135MOL0     H17819   0.311   0.639   9.280 -0.4531 -0.5920 -0.6804
  135MOL0     H17820   0.166   0.763   9.117  1.1802 -0.3600 -1.3422
  136MOL0     O17821   1.325  10.509  10.987  0.2553  0.0973  0.0859
  136MOL0     C17822   1.306  10.593  10.900  0.3768 -0.2109 -1.2464
  136MOL0     O17823   1.198  10.672  10.895  0.0787 -0.5433  0.7770
  136MOL0     C17824   1.127  10.712  11.010  0.6893  0.7905  0.6996
  136MOL0     C17825   1.165  10.686  11.140  0.7941  0.0049 -0.4446
  136MOL0     C17826   1.084  10.705  11.256  0.1395  0.1915  0.3595
  136MOL0     C17827   0.959  10.755  11.238  0.1170  0.1819 -0.2870
  136MOL0     O17828   0.876  10.779  11.345 -0.2305  0.8372 -0.0192
  136MOL0     C17829   0.742  10.824  11.328  0.1391  0.0691  0.2717
  136MOL0     C17830   0.674  10.821  11.472 -0.3595 -1.2861 -0.1592
  136MOL0     C17831   0.723  10.917  11.569 -0.4542  0.0579 -0.8806
  136MOL0     C17832   0.616  10.950  11.684 -0.8202 -0.3435 -0.3723
  136MOL0     C17833   0.670  11.067  11.783  0.5412 -0.3175  0.5326
  136MOL0     C17834   0.576  11.099  11.900 -0.7585 -0.0795  0.1579
  136MOL0     C17835   0.430  11.122  11.855  0.0473 -0.6792  0.1917
  136MOL0     C17836   0.340  11.200  11.958  0.4143  0.4543 -0.3028
  136MOL0     N17837   0.321  11.106  12.064 -1.2837 -0.2229  0.3285
  136MOL0     C17838   0.222  11.010  12.069  0.2934 -0.0702  0.4426
  136MOL0     C17839   0.246  10.954  12.193 -0.2182 -0.8448 -0.4872
  136MOL0     C17840   0.170  10.844  12.252  0.6353  0.2640 -0.1425
  136MOL0     C17841   0.239  10.707  12.255  0.7320  0.4642 -0.3222
  136MOL0     C17842   0.144  10.583  12.251 -0.2484  0.1858 -0.5596
  136MOL0     C17843   0.222  10.458  12.310 -0.7777  0.4847 -0.0073
  136MOL0     O17844   0.211  10.356  12.209  0.0458 -0.3663  0.3310
  136MOL0     C17845   0.267  10.233  12.237  0.5211 -0.1784 -0.2368
  136MOL0     C17846   0.349  10.175  12.137  0.3132  0.4772 -0.2206
  136MOL0     C17847   0.418  10.047  12.154  0.2198 -1.0010  0.1303
  136MOL0     C17848   0.387   9.984  12.275  0.2011  0.3910  0.1328
  136MOL0     C17849   0.433   9.843  12.303  1.2354  0.2372  0.9463
  136MOL0     O17850   0.556   9.828  12.256  0.3748 -0.6775  0.0050
  136MOL0     C17851   0.649   9.723  12.269  0.1533 -0.2481 -0.2726
  136MOL0     C17852   0.773   9.738  12.210  0.7107  0.3980 -0.2527
  136MOL0     C17853   0.881   9.648  12.229  0.2836  0.5376  0.8453
  136MOL0     C17854   0.869   9.551  12.327  0.4793 -1.0823  0.4073
  136MOL0     O17855   0.977   9.487  12.374 -0.4717 -0.1680  0.5912
  136MOL0     C17856   0.994   9.420  12.497 -0.0067 -0.7293  0.5164
  136MOL0     C17857   1.136   9.358  12.504 -0.1810  0.2163  0.1103
  136MOL0     C17858   1.118   9.209  12.478 -0.1106 -0.3877  0.3511
  136MOL0     C17859   1.256   9.144  12.471 -0.8043  0.3731 -0.3657
  136MOL0     C17860   1.334   9.173  12.345  0.7413 -0.1834  0.4491
  136MOL0     C17861   1.476   9.114  12.350  0.6398  1.0834  0.3548
  136MOL0     C17862   1.467   8.954  12.345  0.0919  0.0530 -0.2663
  136MOL0     C17863   1.377   8.900  12.240 -0.8212 -0.1978 -0.1202
  136MOL0    Cl17864   1.418   8.982  12.080 -0.1406  0.0195 -0.0284
  136MOL0     C17865   0.746   9.526  12.381  0.6890 -0.1878  0.1792
  136MOL0     C17866   0.642   9.618  12.358 -0.1507 -0.1794 -0.6216
  136MOL0     O17867   0.375   9.764  12.365  0.5969  0.8887 -0.1025
  136MOL0     C17868   0.300  10.037  12.375  0.6158  0.1387  0.2983
  136MOL0     C17869   0.247  10.163  12.350 -0.2025 -0.4370 -0.3487
  136MOL0     N17870   0.351  11.017  12.258 -0.4058 -0.3928 -0.0079
  136MOL0     N17871   0.409  11.091  12.166 -0.6714 -0.4452 -0.3408
  136MOL0     C17872   0.920  10.779  11.099  0.3396 -0.2064 -0.0474
  136MOL0     C17873   1.009  10.771  10.992  0.3595 -0.1932 -0.1636
  136MOL0     C17874   1.394  10.615  10.788  0.1042 -0.0847 -0.8853
  136MOL0     C17875   1.347  10.643  10.660 -0.8237 -0.1361 -0.6206
  136MOL0     C17876   1.440  10.638  10.552  0.2784 -0.0388 -0.8248
  136MOL0     C17877   1.576  10.623  10.563  0.5585  0.5492  0.6348
  136MOL0     O17878   1.657  10.615  10.448  0.0839  0.4121 -0.1107
  136MOL0     C17879   1.799  10.643  10.473 -0.0242 -0.0699  0.4961
  136MOL0     C17880   1.884  10.680  10.343  0.5788 -0.6016 -0.7166
  136MOL0     C17881   1.837  10.822  10.297 -0.5202 -1.1344  1.3910
  136MOL0     C17882   1.922  10.888  10.188  0.1579 -0.5266 -0.2341
  136MOL0     C17883   1.898  11.039  10.186 -0.7490  0.7123  0.2209
  136MOL0     C17884   1.833  11.141  10.189  0.3039  0.6827 -0.1096
  136MOL0     C17885   1.622  10.584  10.688 -0.2230 -0.3838 -0.4680
  136MOL0     C17886   1.531  10.574  10.797 -0.0131 -0.3052 -0.5243
  136MOL0     H17887   1.259  10.635  11.162  0.3058 -0.6803  0.1061
  136MOL0     H17888   1.126  10.667  11.349 -0.8095  0.0299  0.7298
  136MOL0     H17889   0.687  10.755  11.262  2.1758 -3.2015  1.7296
  136MOL0     H17890   0.731  10.925  11.289 -2.7213 -0.0069  0.6595
  136MOL0     H17891   0.677  10.718  11.511  1.1710 -0.5620  1.8436
  136MOL0     H17892   0.569  10.850  11.472 -0.4221 -1.5057  0.2072
  136MOL0     H17893   0.760  11.007  11.520  0.8864 -1.6850 -3.2545
  136MOL0     H17894   0.812  10.869  11.610 -1.7978  0.4927  2.9488
  136MOL0     H17895   0.528  10.974  11.625  0.6060  0.5564 -2.2484
  136MOL0     H17896   0.602  10.859  11.743  1.3759 -0.7788 -0.4241
  136MOL0     H17897   0.675  11.161  11.727  0.5035 -0.7998 -0.2979
  136MOL0     H17898   0.771  11.040  11.813  0.7695 -2.6561 -1.8998
  136MOL0     H17899   0.608  11.188  11.955 -2.9849  0.3861  0.8249
  136MOL0     H17900   0.596  11.009  11.960  1.8547 -0.2128 -0.7903
  136MOL0     H17901   0.439  11.184  11.765 -2.1237  0.4348  0.6997
  136MOL0     H17902   0.377  11.031  11.825  2.0605 -1.3642 -1.5389
  136MOL0     H17903   0.242  11.226  11.916  1.1608  1.3404 -1.5688
  136MOL0     H17904   0.384  11.291  12.000  0.6595 -0.3839  1.3090
  136MOL0     H17905   0.153  10.975  11.993 -0.3903 -3.4896  2.3965
  136MOL0     H17906   0.083  10.829  12.188  0.5265 -0.3287  0.1443
  136MOL0     H17907   0.136  10.877  12.350 -1.7098 -2.2019  0.0033
  136MOL0     H17908   0.307  10.706  12.341 -0.2386  3.5805  0.6338
  136MOL0     H17909   0.297  10.697  12.163 -0.1219 -1.6841 -0.6971
  136MOL0     H17910   0.057  10.593  12.316 -0.1180  1.3826 -0.5383
  136MOL0     H17911   0.110  10.575  12.147 -1.2956  1.2649 -0.3300
  136MOL0     H17912   0.191  10.419  12.408 -0.5938 -0.3699 -0.2859
  136MOL0     H17913   0.326  10.488  12.322 -0.1914 -2.0164  2.0624
  136MOL0     H17914   0.362  10.227  12.042 -1.6359  3.4370  0.9826
  136MOL0     H17915   0.470  10.013  12.065 -3.3417 -0.3461 -2.4113
  136MOL0     H17916   0.770   9.820  12.139 -0.4439  0.4021 -0.2192
  136MOL0     H17917   0.973   9.664  12.173 -0.0629 -1.0672 -0.2317
  136MOL0     H17918   0.926   9.336  12.514 -0.6496 -0.1638  0.7885
  136MOL0     H17919   0.967   9.494  12.573  3.3501  2.7567 -1.2912
  136MOL0     H17920   1.176   9.376  12.604  1.2872 -1.5736 -0.1075
  136MOL0     H17921   1.211   9.393  12.432  1.9449 -2.3607  0.9221
  136MOL0     H17922   1.073   9.194  12.379 -4.2753  0.6093  1.8676
  136MOL0     H17923   1.047   9.159  12.545 -0.1539 -1.1017 -0.2174
  136MOL0     H17924   1.316   9.160  12.561 -2.2354 -0.8889  0.8629
  136MOL0     H17925   1.238   9.036  12.479  1.0147  0.1876  2.8812
  136MOL0     H17926   1.349   9.276  12.313 -0.7175 -0.7360 -2.3384
  136MOL0     H17927   1.280   9.145  12.254  1.8047  0.4947 -0.4176
  136MOL0     H17928   1.523   9.153  12.441 -1.5526  5.7797 -0.2288
  136MOL0     H17929   1.523   9.158  12.262  2.9622  1.4456  1.7069
  136MOL0     H17930   1.568   8.916  12.326 -0.0650 -1.4540  1.5628
  136MOL0     H17931   1.430   8.924  12.444  0.4205 -0.7693 -0.3903
  136MOL0     H17932   1.270   8.921  12.243 -1.1911 -2.0165  0.2477
  136MOL0     H17933   1.393   8.793  12.227  3.5249  0.4927 -2.1117
  136MOL0     H17934   0.734   9.436  12.441 -2.2006  0.0400  0.0402
  136MOL0     H17935   0.551   9.590  12.410 -1.0132  0.9857 -1.4630
  136MOL0     H17936   0.273   9.967  12.453  0.3031 -1.9161 -1.5625
  136MOL0     H17937   0.193  10.201  12.436 -1.1417 -1.5441 -0.4223
  136MOL0     H17938   0.826  10.831  11.086  1.0254  3.2166  5.3352
  136MOL0     H17939   0.974  10.802  10.895 -1.8654  1.5429  1.1059
  136MOL0     H17940   1.242  10.652  10.632 -1.3882 -0.0835  1.3485
  136MOL0     H17941   1.403  10.646  10.450 -0.3736 -3.1756 -0.9371
  136MOL0     H17942   1.847  10.553  10.513  2.3252  0.5758 -0.6714
  136MOL0     H17943   1.812  10.724  10.545 -3.6218  1.5293 -0.4488
  136MOL0     H17944   1.985  10.683  10.384 -0.1433 -1.6651  1.2569
  136MOL0     H17945   1.884  10.613  10.256 -1.3823  0.2080 -1.3948
  136MOL0     H17946   1.842  10.892  10.381  1.3500  2.4093 -1.3946
  136MOL0     H17947   1.734  10.813  10.261 -0.5888  0.5113  1.0963
  136MOL0     H17948   2.026  10.867  10.212  0.2423 -1.3367 -1.2152
  136MOL0     H17949   1.897  10.849  10.089  2.1105  0.5379 -1.1981
  136MOL0     H17950   1.766  11.224  10.178 -0.7234  0.0872  1.3292
  136MOL0     H17951   1.719  10.545  10.715 -0.9887 -1.9128  0.2335
  136MOL0     H17952   1.563  10.545  10.897 -0.0185  0.7171 -0.2105
  137MOL0     O17953  10.472   6.516   6.813  0.6321  0.3808  0.3144
  137MOL0     C17954  10.456   6.511   6.691 -0.4456  0.5312  0.0973
  137MOL0     O17955  10.345   6.549   6.618 -0.3752 -0.0878 -0.2305
  137MOL0     C17956  10.233   6.578   6.691  0.4616  0.4775  0.0008
  137MOL0     C17957  10.142   6.483   6.742 -0.0644  0.0277 -0.6209
  137MOL0     C17958  10.037   6.522   6.822 -0.5122  0.1805 -0.4199
  137MOL0     C17959  10.004   6.650   6.853  0.8620  0.0485  0.7833
  137MOL0     O17960   9.885   6.681   6.922  0.1375  0.5935 -0.3757
  137MOL0     C17961   9.792   6.583   6.985  0.1163 -0.7852  1.2483
  137MOL0     C17962   9.692   6.534   6.882  0.5446  0.1997 -0.0020
  137MOL0     C17963   9.575   6.625   6.839 -0.3841  0.4889  0.1498
  137MOL0     C17964   9.466   6.578   6.743 -0.6293 -0.6969  1.1033
  137MOL0     C17965   9.360   6.679   6.731  0.5939 -0.6476  1.0287
  137MOL0     C17966   9.234   6.641   6.654  0.9322 -0.2975 -0.1691
  137MOL0     C17967   9.143   6.770   6.651 -0.0275 -0.0082 -0.1922
  137MOL0     C17968   9.020   6.752   6.567  0.6932  0.1255 -0.2322
  137MOL0     N17969   8.950   6.629   6.616 -0.0096  0.2277 -0.3405
  137MOL0     C17970   8.868   6.627   6.725 -0.0616 -1.2188  0.4084
  137MOL0     C17971   8.810   6.511   6.722  0.1035 -0.5176  0.3089
  137MOL0     C17972   8.700   6.472   6.808  0.4815 -0.1033  0.2510
  137MOL0     C17973   8.732   6.359   6.905 -0.6169  0.4362  0.6369
  137MOL0     C17974   8.623   6.351   7.017  1.0422 -0.2247  0.1663
  137MOL0     C17975   8.665   6.247   7.119  0.3535  0.1727  0.5787
  137MOL0     O17976   8.562   6.217   7.220 -0.4326  0.3074 -0.7906
  137MOL0     C17977   8.454   6.129   7.211  0.4645  0.2049  1.1100
  137MOL0     C17978   8.374   6.102   7.327  0.3662 -1.3587  0.5239
  137MOL0     C17979   8.255   6.030   7.309 -0.2620 -0.6266 -0.6693
  137MOL0     C17980   8.225   5.961   7.191  0.5341  1.2834  0.1688
  137MOL0     C17981   8.100   5.888   7.174  0.3456 -0.6136 -0.0639
  137MOL0     O17982   8.046   5.834   7.290 -0.6397  0.8112 -0.5620
  137MOL0     C17983   7.954   5.738   7.269  0.4002  0.9659 -0.6512
  137MOL0     C17984   7.816   5.763   7.295 -0.0319  0.5451  0.5076
  137MOL0     C17985   7.728   5.660   7.268  0.4782  0.0828 -0.5123
  137MOL0     C17986   7.765   5.533   7.227  0.3188  0.2554 -0.2455
  137MOL0     O17987   7.684   5.427   7.218 -0.0656 -0.4863 -0.0645
  137MOL0     C17988   7.544   5.436   7.247 -0.6650  0.6020  0.1423
  137MOL0     C17989   7.449   5.319   7.208  0.2138 -0.3806  0.2690
  137MOL0     C17990   7.514   5.248   7.084 -0.3841 -0.1278  0.6464
  137MOL0     C17991   7.427   5.133   7.034  0.2046  0.6182 -0.4716
  137MOL0     C17992   7.478   5.071   6.904  0.1195 -0.4910  0.8350
  137MOL0     C17993   7.433   5.166   6.788  0.8248 -0.6424 -0.8439
  137MOL0     C17994   7.420   5.107   6.655 -0.5770  0.2149 -0.2117
  137MOL0     C17995   7.428   5.211   6.547 -0.1960 -0.1276  0.0972
  137MOL0    Cl17996   7.295   5.331   6.547 -0.0782  0.2759 -0.3297
  137MOL0     C17997   7.902   5.509   7.202 -0.6554 -0.5359  0.2833
  137MOL0     C17998   7.996   5.610   7.220 -0.5365 -0.7442  0.2570
  137MOL0     O17999   8.057   5.876   7.058 -0.9837 -0.6122 -0.6276
  137MOL0     C18000   8.320   5.969   7.084 -0.6848  0.6572  0.5544
  137MOL0     C18001   8.421   6.063   7.095 -0.1744  0.8757 -0.6883
  137MOL0     N18002   8.854   6.442   6.612 -0.0808 -0.2511  0.5867
  137MOL0     N18003   8.939   6.513   6.545  0.2085 -0.0680 -0.6886
  137MOL0     C18004  10.074   6.752   6.795 -0.5700  1.1783 -0.2374
  137MOL0     C18005  10.191   6.718   6.713 -0.0229  0.4144  0.4234
  137MOL0     C18006  10.573   6.464   6.611 -0.4216 -0.0059 -0.3260
  137MOL0     C18007  10.691   6.412   6.676  0.1134  0.5392  0.0216
  137MOL0     C18008  10.789   6.359   6.600  0.0056 -1.0365  0.3605
  137MOL0     C18009  10.793   6.374   6.456 -0.1037  0.7180 -1.2026
  137MOL0     O18010  10.899   6.332   6.386  0.5059 -0.4031 -0.7735
  137MOL0     C18011  10.960   6.427   6.301 -0.4341 -0.2282 -0.3705
  137MOL0     C18012  11.101   6.374   6.287  0.2051 -0.4438 -0.3027
  137MOL0     C18013  11.191   6.346   6.409 -0.1177  0.0012 -0.2252
  137MOL0     C18014  11.324   6.294   6.359  0.1142  0.8739 -0.9583
  137MOL0     C18015  11.422   6.310   6.465  0.1423 -0.1191 -0.3895
  137MOL0     C18016  11.507   6.333   6.545 -0.5789 -0.8057 -0.2220
  137MOL0     C18017  10.673   6.412   6.395  0.2003  0.3381 -0.2911
  137MOL0     C18018  10.571   6.467   6.471  0.0419  0.3750 -0.2337
  137MOL0     H18019  10.154   6.375   6.741  1.9346  0.2032 -0.2661
  137MOL0     H18020   9.975   6.442   6.862  3.1665 -3.1285 -0.6391
  137MOL0     H18021   9.733   6.622   7.069  0.2304 -2.4755  2.1653
  137MOL0     H18022   9.831   6.490   7.029 -3.3506 -1.9267  2.2490
  137MOL0     H18023   9.661   6.436   6.920  1.5612 -0.3171 -0.4595
  137MOL0     H18024   9.757   6.507   6.798  0.1773 -0.3687 -0.1069
  137MOL0     H18025   9.609   6.720   6.799  2.3284 -0.6962 -0.6202
  137MOL0     H18026   9.526   6.653   6.933  2.3580 -0.5141  2.0170
  137MOL0     H18027   9.519   6.570   6.648 -0.2567  1.5796  1.0694
  137MOL0     H18028   9.427   6.480   6.771  1.5563 -1.9066  0.1516
  137MOL0     H18029   9.406   6.762   6.677 -0.5222 -0.6157  0.0828
  137MOL0     H18030   9.335   6.700   6.835 -0.3526  2.6307  0.2464
  137MOL0     H18031   9.185   6.560   6.710  0.7760 -0.1880 -0.1484
  137MOL0     H18032   9.251   6.613   6.550  1.1363  0.2043 -0.2703
  137MOL0     H18033   9.110   6.805   6.750  1.2741 -0.2107  0.3366
  137MOL0     H18034   9.208   6.844   6.603  0.9637 -1.2387 -0.8061
  137MOL0     H18035   9.042   6.736   6.462  1.2242 -1.2031  0.0579
  137MOL0     H18036   8.959   6.843   6.571  2.5879  1.4792 -1.0121
  137MOL0     H18037   8.841   6.698   6.802  0.3122  0.1055 -0.6373
  137MOL0     H18038   8.616   6.440   6.746  1.7940  0.3902 -1.8981
  137MOL0     H18039   8.662   6.562   6.859 -1.3220  0.8206 -2.5038
  137MOL0     H18040   8.836   6.376   6.938 -0.3926 -0.2977  0.3212
  137MOL0     H18041   8.730   6.270   6.842 -1.8966  1.4840 -0.8648
  137MOL0     H18042   8.601   6.439   7.078 -1.0788 -0.0911 -0.7160
  137MOL0     H18043   8.526   6.319   6.978  1.1333 -2.2583  1.4401
  137MOL0     H18044   8.766   6.273   7.154 -0.0334  0.5442  1.4516
  137MOL0     H18045   8.673   6.156   7.059 -1.4955  0.9854 -0.9985
  137MOL0     H18046   8.402   6.159   7.415  0.6766  2.0601 -1.6111
  137MOL0     H18047   8.190   6.033   7.396  1.2977  3.2994  0.5976
  137MOL0     H18048   7.777   5.860   7.323 -1.4563  0.3608 -0.7471
  137MOL0     H18049   7.623   5.658   7.293  0.6624  2.3469  0.7655
  137MOL0     H18050   7.507   5.508   7.174 -0.3186  0.8266  0.1837
  137MOL0     H18051   7.526   5.470   7.349  0.9749 -0.4885  0.8480
  137MOL0     H18052   7.345   5.344   7.184 -0.3493 -3.5325 -1.0861
  137MOL0     H18053   7.441   5.247   7.290 -0.4580 -0.3960  0.1949
  137MOL0     H18054   7.607   5.207   7.125 -0.1800 -2.0043 -1.5330
  137MOL0     H18055   7.531   5.325   7.008 -2.5084 -0.4046 -0.1842
  137MOL0     H18056   7.421   5.049   7.103 -1.8606  0.7467 -0.4241
  137MOL0     H18057   7.324   5.170   7.024 -0.4420 -1.4765 -2.7058
  137MOL0     H18058   7.419   4.981   6.883 -0.5572 -0.0014  0.5858
  137MOL0     H18059   7.585   5.050   6.904 -0.0445 -1.7231 -1.4677
  137MOL0     H18060   7.496   5.255   6.801  0.1634 -0.3103  0.1871
  137MOL0     H18061   7.331   5.200   6.808  0.7311 -2.8464  3.7389
  137MOL0     H18062   7.494   5.028   6.637 -1.4082 -0.3231 -1.3783
  137MOL0     H18063   7.325   5.060   6.628 -0.5835  0.6913 -1.0361
  137MOL0     H18064   7.447   5.165   6.450 -1.2568  5.2355 -3.0140
  137MOL0     H18065   7.520   5.267   6.563 -0.3247  0.9143 -2.4592
  137MOL0     H18066   7.941   5.410   7.180  0.5218 -0.1094  0.3913
  137MOL0     H18067   8.103   5.604   7.200 -0.2663  0.4168  1.1986
  137MOL0     H18068   8.306   5.916   6.991 -0.9182  2.0378 -0.2153
  137MOL0     H18069   8.484   6.075   7.008 -0.2449  2.1119 -0.5853
  137MOL0     H18070  10.050   6.858   6.797 -1.2819  1.0639  3.0206
  137MOL0     H18071  10.245   6.802   6.672  0.3892  0.0221  0.1503
  137MOL0     H18072  10.707   6.411   6.783  1.6540  0.9562 -0.1846
  137MOL0     H18073  10.882   6.336   6.652  0.7584  0.6860 -0.1377
  137MOL0     H18074  10.970   6.524   6.350  1.6742  0.1856 -1.5030
  137MOL0     H18075  10.923   6.435   6.198  1.4862  1.7317 -0.9812
  137MOL0     H18076  11.076   6.274   6.251 -0.9486 -1.3705  2.7779
  137MOL0     H18077  11.148   6.428   6.205 -1.6156 -3.0279 -3.2693
  137MOL0     H18078  11.138   6.270   6.465  2.8584 -5.4193 -3.8806
  137MOL0     H18079  11.200   6.439   6.465 -0.9516 -0.1713  0.2076
  137MOL0     H18080  11.312   6.190   6.325  0.9486 -0.2947  2.0027
  137MOL0     H18081  11.351   6.354   6.271  0.6531  0.5437 -1.0224
  137MOL0     H18082  11.577   6.361   6.622 -1.2238  0.0220  0.0727
  137MOL0     H18083  10.665   6.426   6.288  2.3344  1.6118 -0.3484
  137MOL0     H18084  10.484   6.511   6.423  0.6024  0.7519 -0.9224
  138MOL0     O18085   2.198   3.919   8.719  0.5648 -0.5665  0.3602
  138MOL0     C18086   2.110   3.841   8.714  0.2045 -0.3051 -0.0745
  138MOL0     O18087   2.123   3.713   8.686 -0.1195  0.6220 -0.5066
  138MOL0     C18088   2.242   3.639   8.691  0.1375 -0.2499  0.2505
  138MOL0     C18089   2.361   3.676   8.761 -0.2754 -1.0216 -0.4958
  138MOL0     C18090   2.462   3.587   8.740  0.3328 -0.1159 -0.3117
  138MOL0     C18091   2.452   3.464   8.673  0.3488 -0.2585  0.2939
  138MOL0     O18092   2.554   3.379   8.666 -0.2586  0.1081  0.5755
  138MOL0     C18093   2.685   3.423   8.705 -0.0445 -0.2407  0.9101
  138MOL0     C18094   2.788   3.304   8.730  1.3538 -0.6467  0.0742
  138MOL0     C18095   2.847   3.233   8.616  0.1206 -1.7082  0.1289
  138MOL0     C18096   2.923   3.118   8.683  0.7185  0.1833 -0.8984
  138MOL0     C18097   2.981   3.018   8.576  0.6807 -0.5256  0.6392
  138MOL0     C18098   3.047   2.886   8.626  0.1859  0.4803 -0.6415
  138MOL0     C18099   3.184   2.913   8.687  0.4782 -0.5780  0.1223
  138MOL0     C18100   3.262   2.782   8.665  0.7517 -0.3010 -0.6167
  138MOL0     N18101   3.402   2.796   8.700 -0.3689  0.2098 -0.1785
  138MOL0     C18102   3.433   2.776   8.837 -0.3833 -0.0845 -0.4850
  138MOL0     C18103   3.569   2.783   8.841 -0.8170  0.8478  0.9511
  138MOL0     C18104   3.664   2.752   8.969  1.0598  0.3009 -0.2044
  138MOL0     C18105   3.816   2.799   8.958  0.0413  0.4473 -0.8990
  138MOL0     C18106   3.892   2.673   8.894 -0.4202 -0.4867 -0.0676
  138MOL0     C18107   3.996   2.730   8.803  0.1283  0.2027 -0.4410
  138MOL0     O18108   4.103   2.635   8.797 -0.0662  0.1700 -0.3917
  138MOL0     C18109   4.197   2.655   8.696 -0.8138 -0.3322 -0.3776
  138MOL0     C18110   4.305   2.564   8.726  0.0760 -0.2629  0.7555
  138MOL0     C18111   4.415   2.554   8.640 -0.2889 -0.1845  0.6412
  138MOL0     C18112   4.429   2.642   8.524 -0.4212 -1.4462 -0.2239
  138MOL0     C18113   4.543   2.646   8.437 -0.1940 -0.4893 -0.3730
  138MOL0     O18114   4.583   2.760   8.374  0.7808 -0.6502  0.9963
  138MOL0     C18115   4.686   2.753   8.285 -0.0117  0.6239 -0.6084
  138MOL0     C18116   4.680   2.803   8.158  0.6167  0.1767 -0.0313
  138MOL0     C18117   4.790   2.802   8.079 -0.4051 -0.1967 -0.5332
  138MOL0     C18118   4.918   2.768   8.130  0.5284 -0.5218 -0.3534
  138MOL0     O18119   5.018   2.813   8.046 -0.3470  0.4712  0.0346
  138MOL0     C18120   5.156   2.804   8.080  0.2287 -0.3312 -0.1719
  138MOL0     C18121   5.239   2.814   7.957  0.4945 -0.2797 -0.0258
  138MOL0     C18122   5.251   2.956   7.913 -0.5703 -0.2090  0.5163
  138MOL0     C18123   5.336   2.963   7.781 -0.0505 -0.1150  0.0764
  138MOL0     C18124   5.380   3.111   7.769  0.1165  0.8292 -0.5219
  138MOL0     C18125   5.475   3.116   7.652 -0.0597  0.2526  0.5909
  138MOL0     C18126   5.525   3.254   7.605  0.1157  0.3548 -0.1404
  138MOL0     C18127   5.626   3.240   7.487 -0.0390  0.3017 -0.7939
  138MOL0    Cl18128   5.742   3.382   7.464  0.1145  0.1670  0.3277
  138MOL0     C18129   4.925   2.734   8.269  0.1554  0.4027  0.6791
  138MOL0     C18130   4.805   2.721   8.337 -0.8636 -0.5368  0.1738
  138MOL0     O18131   4.597   2.539   8.434 -0.1171 -0.2758  0.6297
  138MOL0     C18132   4.322   2.731   8.503  0.2584 -0.3793  0.4737
  138MOL0     C18133   4.213   2.744   8.594  0.4844 -1.1425  0.8081
  138MOL0     N18134   3.606   2.795   8.703 -0.7008 -0.0170 -0.0322
  138MOL0     N18135   3.509   2.787   8.624 -0.8730 -0.6114 -0.8525
  138MOL0     C18136   2.332   3.429   8.616 -0.1560  0.4389 -0.2920
  138MOL0     C18137   2.228   3.522   8.617 -1.2563 -0.2752  0.8932
  138MOL0     C18138   1.972   3.894   8.740 -0.0029  0.2006  0.1436
  138MOL0     C18139   1.856   3.831   8.697  0.2573 -0.1635  0.3429
  138MOL0     C18140   1.730   3.856   8.749  0.2164 -0.1059  0.0941
  138MOL0     C18141   1.708   3.966   8.835  0.4934  0.2533 -1.2221
  138MOL0     O18142   1.584   3.998   8.890 -0.0625  0.2111 -0.3583
  138MOL0     C18143   1.475   3.914   8.853  0.8581 -0.8129  0.3231
  138MOL0     C18144   1.337   3.959   8.906 -0.3749 -0.1501  0.1638
  138MOL0     C18145   1.311   4.102   8.849 -0.1588  0.2089  0.2013
  138MOL0     C18146   1.158   4.150   8.860  0.6518  0.4556  0.7587
  138MOL0     C18147   1.113   4.156   8.996  0.2169  0.2512  0.8241
  138MOL0     C18148   1.067   4.180   9.105 -0.8334  0.2374 -0.3440
  138MOL0     C18149   1.824   4.034   8.870 -0.1921  0.2484  0.1476
  138MOL0     C18150   1.953   3.992   8.829  0.2595 -0.8488  0.6461
  138MOL0     H18151   2.367   3.750   8.841 -0.2774 -0.3798 -1.0846
  138MOL0     H18152   2.548   3.612   8.801  0.0583  0.8124 -0.2847
  138MOL0     H18153   2.688   3.477   8.800 -2.7841  5.6703 -1.8672
  138MOL0     H18154   2.727   3.491   8.630 -2.2306 -1.8607 -2.0212
  138MOL0     H18155   2.747   3.234   8.804  0.2218 -0.5699 -0.4554
  138MOL0     H18156   2.870   3.345   8.789 -0.4048  1.4304  1.2177
  138MOL0     H18157   2.918   3.295   8.561 -1.2216 -0.9442 -0.8016
  138MOL0     H18158   2.758   3.205   8.560  0.7418  0.5661 -2.1990
  138MOL0     H18159   3.007   3.155   8.744  0.1380  3.3965 -1.8458
  138MOL0     H18160   2.853   3.068   8.750 -1.3077  4.7531  0.8289
  138MOL0     H18161   3.053   3.064   8.508  0.3070  0.9113  1.1824
  138MOL0     H18162   2.895   3.003   8.510  0.6067  2.3105 -0.0635
  138MOL0     H18163   3.050   2.804   8.554  3.6211 -1.5076  1.5324
  138MOL0     H18164   2.983   2.858   8.710  1.7578  0.0625  0.4451
  138MOL0     H18165   3.242   2.996   8.643  2.2257 -0.8498  1.7618
  138MOL0     H18166   3.173   2.947   8.791 -0.6970  1.4811 -0.6028
  138MOL0     H18167   3.257   2.744   8.562  3.0077 -2.5467 -0.0076
  138MOL0     H18168   3.217   2.711   8.735  1.0152  1.6961  1.7311
  138MOL0     H18169   3.372   2.776   8.926  2.1136 -0.4954  1.3261
  138MOL0     H18170   3.672   2.644   8.988 -0.7392 -0.5312 -3.4318
  138MOL0     H18171   3.622   2.789   9.063  3.2854  1.9693  0.2168
  138MOL0     H18172   3.861   2.820   9.055  3.1626 -0.6792 -1.9770
  138MOL0     H18173   3.813   2.894   8.904  0.3156  2.7227  2.7859
  138MOL0     H18174   3.940   2.623   8.979  1.9655 -0.3577 -1.2780
  138MOL0     H18175   3.836   2.597   8.840  4.1771 -3.8823 -0.6689
  138MOL0     H18176   4.043   2.822   8.839 -2.6234  1.6091 -0.1553
  138MOL0     H18177   3.942   2.757   8.712  1.5663  0.6314 -1.1988
  138MOL0     H18178   4.291   2.491   8.805  1.3326 -2.2858 -0.8201
  138MOL0     H18179   4.490   2.477   8.655  0.6977  0.9921  2.0482
  138MOL0     H18180   4.587   2.856   8.141  0.2519  0.1926  1.8323
  138MOL0     H18181   4.772   2.839   7.979 -0.9699  2.5857  0.5241
  138MOL0     H18182   5.173   2.717   8.143 -0.7864  1.1204  2.2548
  138MOL0     H18183   5.168   2.888   8.149 -1.9016 -1.8804  2.2702
  138MOL0     H18184   5.190   2.763   7.874 -0.1956  2.6630 -1.5861
  138MOL0     H18185   5.341   2.778   7.969  0.1041 -0.8607  1.9630
  138MOL0     H18186   5.309   3.001   7.993  0.5206 -1.9934  0.7738
  138MOL0     H18187   5.150   2.995   7.895  0.1366  0.3430 -2.8299
  138MOL0     H18188   5.425   2.905   7.805 -0.6399 -0.9481  0.2752
  138MOL0     H18189   5.277   2.929   7.695 -3.1624  2.9821  0.7363
  138MOL0     H18190   5.424   3.146   7.862 -0.3936  0.7652 -0.2541
  138MOL0     H18191   5.295   3.171   7.735 -0.9050  0.4140  1.1642
  138MOL0     H18192   5.444   3.054   7.567 -1.7437  0.9644  0.6443
  138MOL0     H18193   5.562   3.057   7.681 -0.0624 -0.5391 -0.8916
  138MOL0     H18194   5.443   3.321   7.581  1.6956  1.9812 -1.3000
  138MOL0     H18195   5.582   3.298   7.688  1.1482  0.3261 -0.8187
  138MOL0     H18196   5.565   3.226   7.398 -1.1076  0.0750 -0.0499
  138MOL0     H18197   5.682   3.149   7.510  1.6566  2.2063  3.8017
  138MOL0     H18198   5.016   2.718   8.326 -0.1517  0.0190  1.0674
  138MOL0     H18199   4.820   2.690   8.440 -1.1374  0.8819  0.6607
  138MOL0     H18200   4.333   2.809   8.428  0.4735  1.8586  2.6932
  138MOL0     H18201   4.139   2.823   8.597  0.1836 -1.4462  1.6327
  138MOL0     H18202   2.320   3.334   8.565  2.4661  0.6509 -1.4447
  138MOL0     H18203   2.128   3.508   8.577 -1.8287  0.9391  1.8112
  138MOL0     H18204   1.878   3.756   8.622  1.1876  0.1273  0.3160
  138MOL0     H18205   1.643   3.796   8.724  1.4348 -1.1621 -1.8230
  138MOL0     H18206   1.495   3.814   8.892  1.1105  0.8076  4.9581
  138MOL0     H18207   1.463   3.932   8.746 -0.9614  3.8904  1.1011
  138MOL0     H18208   1.257   3.892   8.874  0.2141  0.9001 -4.2254
  138MOL0     H18209   1.361   3.966   9.013  2.2145 -2.7055 -0.0875
  138MOL0     H18210   1.327   4.105   8.741 -0.4898  0.2605  0.1523
  138MOL0     H18211   1.379   4.179   8.887 -0.2144  1.5399 -2.1977
  138MOL0     H18212   1.144   4.248   8.813 -2.0400 -0.6902 -1.0824
  138MOL0     H18213   1.098   4.081   8.799 -1.1854  1.5915  1.2040
  138MOL0     H18214   1.032   4.195   9.205 -0.3229  1.2563 -0.3022
  138MOL0     H18215   1.803   4.116   8.938 -2.1993  0.7248 -0.9724
  138MOL0     H18216   2.038   4.052   8.862 -1.7016  0.8499  3.0802
  139MOL0     O18217   0.594   7.489   9.498 -1.1107 -0.2607 -0.3591
  139MOL0     C18218   0.571   7.564   9.591  0.2980  0.6132  0.3690
  139MOL0     O18219   0.447   7.601   9.630  1.1574  0.3943  0.4431
  139MOL0     C18220   0.341   7.567   9.546 -0.9225  0.0111 -0.2988
  139MOL0     C18221   0.232   7.522   9.610  0.3890  0.1846 -1.3842
  139MOL0     C18222   0.109   7.492   9.547 -0.0319 -0.8375 -0.7981
  139MOL0     C18223   0.091   7.523   9.407 -0.2592  0.2521  0.0809
  139MOL0     O18224  -0.034   7.510   9.362 -0.2667 -0.3258 -0.0244
  139MOL0     C18225  -0.054   7.448   9.243  0.3304  0.4411  0.9120
  139MOL0     C18226  -0.181   7.473   9.181  0.2904 -0.1917 -0.2526
  139MOL0     C18227  -0.190   7.460   9.017  0.0981  0.1292  0.0845
  139MOL0     C18228  -0.320   7.508   8.968  0.6022 -0.7480 -0.1982
  139MOL0     C18229  -0.325   7.474   8.815 -0.0597  0.2825  0.0743
  139MOL0     C18230  -0.392   7.340   8.798  0.5531  0.5045 -0.4569
  139MOL0     C18231  -0.431   7.341   8.653 -0.5042  1.5255 -0.3598
  139MOL0     C18232  -0.460   7.192   8.594  0.0866 -0.3602  0.0915
  139MOL0     N18233  -0.565   7.123   8.677  0.1660  0.1551  0.1610
  139MOL0     C18234  -0.680   7.077   8.619 -0.3086  0.2229  0.2023
  139MOL0     C18235  -0.731   7.003   8.717  1.1792  0.5027 -0.3629
  139MOL0     C18236  -0.867   6.926   8.702 -0.0380 -0.1207 -0.2295
  139MOL0     C18237  -0.837   6.782   8.662  0.7334  0.6850  0.2863
  139MOL0     C18238  -0.970   6.708   8.651 -0.1826 -0.9971  1.2693
  139MOL0     C18239  -0.970   6.558   8.617 -0.3493 -0.6713 -0.5342
  139MOL0     O18240  -0.933   6.549   8.483 -0.5422 -0.4795  0.1919
  139MOL0     C18241  -0.940   6.433   8.414  0.2074 -1.0432 -0.2253
  139MOL0     C18242  -1.012   6.319   8.460 -0.3570  0.3379  0.3269
  139MOL0     C18243  -1.026   6.204   8.376 -0.5703 -0.8779 -0.0069
  139MOL0     C18244  -0.977   6.218   8.235  0.4899  0.3909 -0.1858
  139MOL0     C18245  -0.997   6.120   8.139 -0.1597  0.4305 -0.4062
  139MOL0     O18246  -0.899   6.093   8.049 -0.5028  1.0815 -0.0839
  139MOL0     C18247  -0.913   5.997   7.951 -0.6757 -0.1578  0.1486
  139MOL0     C18248  -1.032   5.960   7.884 -1.1587  0.2163 -0.8908
  139MOL0     C18249  -1.027   5.865   7.777  0.6367 -0.2573 -0.3830
  139MOL0     C18250  -0.906   5.802   7.744  1.0863  0.3343 -0.0240
  139MOL0     O18251  -0.886   5.724   7.636 -0.5870 -0.0161  0.1818
  139MOL0     C18252  -0.814   5.598   7.628 -0.3459 -0.0983 -0.9175
  139MOL0     C18253  -0.841   5.542   7.485  0.3609 -0.1754  0.2942
  139MOL0     C18254  -0.768   5.636   7.382  0.1660  0.1176  0.4662
  139MOL0     C18255  -0.785   5.573   7.240  0.4669  0.4600 -0.4840
  139MOL0     C18256  -0.708   5.643   7.127  0.5925 -0.8273  0.6743
  139MOL0     C18257  -0.703   5.543   7.016  0.2102  0.3613  1.1380
  139MOL0     C18258  -0.634   5.610   6.890  0.3221  0.9594 -0.6652
  139MOL0     C18259  -0.568   5.502   6.796  0.0862 -0.1132  0.2357
  139MOL0    Cl18260  -0.437   5.550   6.686  0.1048 -0.3131 -0.5481
  139MOL0     C18261  -0.789   5.842   7.807 -0.1186 -1.3970  0.0178
  139MOL0     C18262  -0.798   5.940   7.912  0.0204 -0.7655 -0.3703
  139MOL0     O18263  -1.110   6.074   8.136 -0.2630  0.2734 -0.4878
  139MOL0     C18264  -0.896   6.332   8.204  0.0263 -1.0596  0.5612
  139MOL0     C18265  -0.886   6.434   8.292  0.0755  0.1556  0.0758
  139MOL0     N18266  -0.641   6.992   8.819  0.2702  0.5086 -0.8014
  139MOL0     N18267  -0.543   7.065   8.798  0.2263  0.7347 -0.2803
  139MOL0     C18268   0.202   7.568   9.337 -0.4466 -0.8861 -0.5592
  139MOL0     C18269   0.325   7.587   9.407 -0.1793 -0.1374  0.3357
  139MOL0     C18270   0.682   7.639   9.637 -1.0389  0.8725  0.4218
  139MOL0     C18271   0.667   7.741   9.720  0.0089 -0.1626 -0.3967
  139MOL0     C18272   0.780   7.801   9.774  0.2589 -0.9946 -1.5922
  139MOL0     C18273   0.910   7.760   9.747 -0.2989 -0.2103 -0.2384
  139MOL0     O18274   1.007   7.824   9.815  0.3333 -0.3031 -0.2096
  139MOL0     C18275   1.136   7.833   9.763 -0.4720  0.0771 -0.0761
  139MOL0     C18276   1.165   7.985   9.754 -0.0791  0.4689  0.0439
  139MOL0     C18277   1.293   8.022   9.685 -0.1065 -0.1591  0.2430
  139MOL0     C18278   1.416   7.979   9.767  0.6153 -0.0168  0.1069
  139MOL0     C18279   1.547   8.011   9.724 -0.3348  0.9832  0.3527
  139MOL0     C18280   1.657   8.032   9.671 -1.4812 -0.7218 -0.7456
  139MOL0     C18281   0.933   7.658   9.658 -0.0327  0.5200  1.7310
  139MOL0     C18282   0.813   7.595   9.609  0.7512  0.0447  0.5415
  139MOL0     H18283   0.243   7.491   9.713 -0.4515  3.2634 -0.2710
  139MOL0     H18284   0.032   7.443   9.604  0.5069 -1.3715 -0.5151
  139MOL0     H18285  -0.047   7.343   9.273 -2.0886  0.3728  1.4491
  139MOL0     H18286   0.031   7.473   9.179 -0.2881 -2.1198 -1.0802
  139MOL0     H18287  -0.216   7.573   9.210  1.8706 -0.5228  3.4246
  139MOL0     H18288  -0.240   7.391   9.222  1.7391 -0.9967  0.2950
  139MOL0     H18289  -0.172   7.355   8.992 -1.3595  0.2204 -1.5953
  139MOL0     H18290  -0.110   7.511   8.964  1.1693  0.1825  1.6843
  139MOL0     H18291  -0.401   7.455   9.017 -0.2535  1.1616  0.5454
  139MOL0     H18292  -0.342   7.614   8.980  3.6277 -0.1034  0.6069
  139MOL0     H18293  -0.225   7.474   8.772  0.0959  1.3811  0.4014
  139MOL0     H18294  -0.383   7.551   8.763  1.0207 -0.5423 -2.5115
  139MOL0     H18295  -0.479   7.333   8.864  0.1112 -0.3626 -1.1210
  139MOL0     H18296  -0.331   7.250   8.806 -0.0089 -0.1151 -2.4884
  139MOL0     H18297  -0.525   7.395   8.639 -2.7655 -2.5067 -2.6559
  139MOL0     H18298  -0.348   7.378   8.592 -0.0396  1.3342  0.1529
  139MOL0     H18299  -0.375   7.123   8.596  0.0317 -0.4255  1.5296
  139MOL0     H18300  -0.495   7.190   8.490  2.7722 -5.5934 -1.0724
  139MOL0     H18301  -0.716   7.109   8.521  4.0943 -0.3864 -1.8601
  139MOL0     H18302  -0.922   6.970   8.619 -0.3792  1.0803  0.5954
  139MOL0     H18303  -0.933   6.931   8.790 -1.7826  0.0037 -1.5014
  139MOL0     H18304  -0.789   6.738   8.750 -1.3972 -0.0027  1.1520
  139MOL0     H18305  -0.775   6.775   8.572  0.8405  2.0185  0.2457
  139MOL0     H18306  -1.034   6.728   8.738 -3.0104 -1.1705 -0.6192
  139MOL0     H18307  -1.016   6.762   8.567  1.1655 -0.0544  1.1045
  139MOL0     H18308  -1.074   6.528   8.631 -1.6956  3.3937 -0.6742
  139MOL0     H18309  -0.909   6.501   8.689  0.1763  0.7058  0.1589
  139MOL0     H18310  -1.052   6.307   8.560 -1.0224 -1.5488 -0.1208
  139MOL0     H18311  -1.077   6.116   8.413  0.0674 -1.4601 -0.5086
  139MOL0     H18312  -1.131   5.996   7.909  0.2794  3.6433  0.5854
  139MOL0     H18313  -1.109   5.832   7.714  0.0189 -1.2826  0.9125
  139MOL0     H18314  -0.846   5.524   7.702 -0.3113 -0.7037 -1.4999
  139MOL0     H18315  -0.707   5.605   7.648 -0.3729 -4.1258  1.7775
  139MOL0     H18316  -0.947   5.525   7.466  0.4960  0.8629 -1.6241
  139MOL0     H18317  -0.796   5.443   7.476 -1.3460 -1.1023  1.3528
  139MOL0     H18318  -0.660   5.626   7.396  0.0097  1.3470  3.2016
  139MOL0     H18319  -0.797   5.741   7.396  2.1748  0.7339  0.2782
  139MOL0     H18320  -0.759   5.467   7.248  1.4197  0.5263 -2.2135
  139MOL0     H18321  -0.892   5.562   7.218  0.2322 -3.4663  1.6306
  139MOL0     H18322  -0.607   5.664   7.163  1.0464 -3.1092  0.8870
  139MOL0     H18323  -0.757   5.736   7.096  1.6873  0.2169  1.9293
  139MOL0     H18324  -0.802   5.517   6.979  0.9680 -0.0672 -0.7214
  139MOL0     H18325  -0.647   5.456   7.051  0.1905 -1.0453 -2.0009
  139MOL0     H18326  -0.689   5.675   6.821  0.5383  0.6123 -1.1752
  139MOL0     H18327  -0.555   5.674   6.931 -1.0575  2.6387 -0.4728
  139MOL0     H18328  -0.647   5.457   6.735 -1.2928 -0.3707  2.1336
  139MOL0     H18329  -0.525   5.425   6.860 -0.5275 -1.8811 -1.3799
  139MOL0     H18330  -0.695   5.802   7.771  0.6075  2.0610 -2.4844
  139MOL0     H18331  -0.699   5.970   7.946  0.3343 -1.6967 -0.4268
  139MOL0     H18332  -0.849   6.352   8.109 -0.2084  3.9475  1.2150
  139MOL0     H18333  -0.854   6.532   8.259 -0.9535  0.6184  0.3902
  139MOL0     H18334   0.196   7.605   9.235 -1.6933  0.0212 -0.1771
  139MOL0     H18335   0.406   7.633   9.351 -1.2008  0.0875 -0.9977
  139MOL0     H18336   0.569   7.777   9.747 -0.7979 -2.5021 -0.0339
  139MOL0     H18337   0.771   7.897   9.823  2.1787 -0.0219 -3.0209
  139MOL0     H18338   1.145   7.790   9.663  3.0904  2.2805 -0.8738
  139MOL0     H18339   1.202   7.775   9.827  0.2212 -1.2025 -1.8679
  139MOL0     H18340   1.092   8.044   9.697  0.0164  2.7497  2.1440
  139MOL0     H18341   1.155   8.022   9.856  3.1381  1.1510  0.2115
  139MOL0     H18342   1.291   8.131   9.680 -1.6859 -0.0625  1.7621
  139MOL0     H18343   1.305   7.974   9.588  0.4005 -1.2084  0.8076
  139MOL0     H18344   1.413   8.000   9.874 -0.3142 -0.9154  0.2767
  139MOL0     H18345   1.427   7.870   9.776  3.5362  0.4014  4.1557
  139MOL0     H18346   1.744   8.050   9.611 -0.2031  0.8563  1.4293
  139MOL0     H18347   1.032   7.621   9.636 -0.6017  0.5419 -1.3151
  139MOL0     H18348   0.812   7.508   9.544 -2.2077  0.5060 -0.1562
  140MOL0     O18349   8.569   6.927   7.156  0.4621 -1.1108  0.4034
  140MOL0     C18350   8.572   6.918   7.033  0.3413 -1.2182 -0.5755
  140MOL0     O18351   8.677   6.930   6.946  1.0067 -0.1796 -0.3611
  140MOL0     C18352   8.797   6.960   6.988  0.5469 -0.0469  0.0152
  140MOL0     C18353   8.866   6.861   7.055  0.3778 -0.0614  0.0487
  140MOL0     C18354   9.000   6.876   7.080  0.1525 -0.8516 -0.5196
  140MOL0     C18355   9.075   6.973   7.014 -0.2511 -0.6423  0.4093
  140MOL0     O18356   9.211   6.988   7.017 -0.3117  0.2175  0.4287
  140MOL0     C18357   9.282   6.916   7.117 -0.0240 -0.1720  0.0910
  140MOL0     C18358   9.253   6.974   7.258 -0.4478  0.3048 -0.4702
  140MOL0     C18359   9.274   7.117   7.276  0.4633  0.2112 -0.5615
  140MOL0     C18360   9.249   7.156   7.420 -0.4071  0.8693 -1.1276
  140MOL0     C18361   9.325   7.283   7.469 -1.0677 -0.4163 -0.5327
  140MOL0     C18362   9.331   7.399   7.360 -0.2142 -0.8097 -0.0588
  140MOL0     C18363   9.399   7.529   7.423 -0.1617 -0.5419  0.3860
  140MOL0     C18364   9.326   7.584   7.553 -0.4494 -0.7074 -0.2464
  140MOL0     N18365   9.176   7.607   7.541 -0.2462  0.3915 -0.2725
  140MOL0     C18366   9.073   7.511   7.552  0.0549 -0.7418 -0.0042
  140MOL0     C18367   8.951   7.586   7.549 -0.7439 -0.1880  0.1421
  140MOL0     C18368   8.809   7.528   7.550 -0.1537 -0.1278 -0.8683
  140MOL0     C18369   8.742   7.499   7.412 -0.2076 -0.4981 -0.3309
  140MOL0     C18370   8.832   7.429   7.304 -0.4264  0.1286 -0.1940
  140MOL0     C18371   8.751   7.365   7.196  1.0124 -0.5834  0.2010
  140MOL0     O18372   8.690   7.473   7.127 -0.0640  0.4997  0.2992
  140MOL0     C18373   8.634   7.445   7.009  0.7396 -1.1960  1.0639
  140MOL0     C18374   8.569   7.323   6.992 -0.1613  0.0635  0.3250
  140MOL0     C18375   8.526   7.282   6.858  0.3014 -1.5755  0.2051
  140MOL0     C18376   8.529   7.367   6.751 -0.5424 -0.1603 -0.0986
  140MOL0     C18377   8.507   7.321   6.619 -0.2100  0.5958  0.1673
  140MOL0     O18378   8.498   7.419   6.527  0.6560 -0.2099  0.7170
  140MOL0     C18379   8.507   7.394   6.388  0.7496  0.1042 -0.2189
  140MOL0     C18380   8.394   7.407   6.305 -0.6199  0.3974 -1.1601
  140MOL0     C18381   8.409   7.371   6.170  0.2938 -0.5499  0.0668
  140MOL0     C18382   8.529   7.336   6.122 -0.7559 -0.0961 -0.4652
  140MOL0     O18383   8.548   7.297   5.993  0.7144  0.7883  0.6441
  140MOL0     C18384   8.680   7.291   5.925 -0.1365  1.2404 -0.4817
  140MOL0     C18385   8.647   7.266   5.780  0.5298 -0.6764 -0.0300
  140MOL0     C18386   8.768   7.242   5.694 -0.3948  0.3231  0.7035
  140MOL0     C18387   8.822   7.101   5.715  0.0403 -0.2793  0.1332
  140MOL0     C18388   8.958   7.066   5.643  0.1854 -0.4974  1.2219
  140MOL0     C18389   8.990   6.916   5.654 -0.3846 -0.0561  0.4335
  140MOL0     C18390   9.133   6.915   5.583  0.6015 -1.1583 -0.0448
  140MOL0     C18391   9.188   6.777   5.565  0.2912 -0.3760 -0.0872
  140MOL0    Cl18392   9.348   6.754   5.485 -0.4172 -0.3279  0.4831
  140MOL0     C18393   8.642   7.320   6.216  0.1006 -0.1727  1.1795
  140MOL0     C18394   8.624   7.339   6.349  0.2260 -0.1367 -0.2800
  140MOL0     O18395   8.499   7.201   6.600 -0.6270  0.5357  0.1354
  140MOL0     C18396   8.577   7.498   6.773  0.2664  0.5524  0.0369
  140MOL0     C18397   8.633   7.529   6.897 -0.7833 -0.0515 -0.7300
  140MOL0     N18398   8.986   7.720   7.553  0.9447  0.3375  0.0514
  140MOL0     N18399   9.116   7.733   7.557 -0.1946 -0.0718 -0.1050
  140MOL0     C18400   9.007   7.071   6.933  0.6761 -0.1951  0.2110
  140MOL0     C18401   8.866   7.067   6.918 -0.1929  0.1397 -0.8462
  140MOL0     C18402   8.431   6.913   6.973 -0.3932  0.0478  0.2168
  140MOL0     C18403   8.321   6.968   7.035 -1.2798 -0.1536  0.7631
  140MOL0     C18404   8.193   6.958   6.982  0.4365  0.6587  0.0178
  140MOL0     C18405   8.178   6.886   6.866  0.2325  0.0303 -0.0298
  140MOL0     O18406   8.050   6.862   6.825  0.8867 -0.1754  0.0706
  140MOL0     C18407   8.026   6.778   6.710 -0.2093 -0.9179 -0.0408
  140MOL0     C18408   7.873   6.774   6.681  0.4909  1.3137  0.1820
  140MOL0     C18409   7.810   6.646   6.747 -0.1356 -0.2682  0.6465
  140MOL0     C18410   7.662   6.666   6.716 -0.6739 -1.1113  1.0119
  140MOL0     C18411   7.596   6.553   6.779 -0.0930 -0.0768 -0.0147
  140MOL0     C18412   7.528   6.465   6.829  0.0574  0.6740 -0.0984
  140MOL0     C18413   8.289   6.832   6.797 -0.2389  1.0948 -0.4140
  140MOL0     C18414   8.421   6.853   6.853  0.0294 -0.1577  0.5030
  140MOL0     H18415   8.811   6.774   7.090 -0.8484  0.8989  0.5900
  140MOL0     H18416   9.049   6.796   7.135 -0.6851 -1.3022 -0.4138
  140MOL0     H18417   9.389   6.928   7.097 -0.3274 -1.0352 -2.5597
  140MOL0     H18418   9.265   6.809   7.103 -1.5415  0.0405  0.1302
  140MOL0     H18419   9.327   6.927   7.323 -4.5467 -3.0784  2.2086
  140MOL0     H18420   9.148   6.957   7.284 -0.2297 -2.1098 -0.9489
  140MOL0     H18421   9.207   7.170   7.208  0.8597  1.3913 -0.0509
  140MOL0     H18422   9.380   7.131   7.252  1.2448 -3.0995  0.4085
  140MOL0     H18423   9.143   7.178   7.433 -1.1406 -0.8437 -3.5279
  140MOL0     H18424   9.266   7.070   7.486  2.2446  2.1659  0.0356
  140MOL0     H18425   9.422   7.240   7.494 -0.6888  0.0910 -1.0990
  140MOL0     H18426   9.274   7.303   7.564  0.7769 -0.8037  0.5830
  140MOL0     H18427   9.228   7.419   7.330 -0.6951  0.6489  2.3316
  140MOL0     H18428   9.393   7.364   7.276 -0.7628 -0.3601 -0.6593
  140MOL0     H18429   9.501   7.508   7.456  0.4979  4.0625  2.0377
  140MOL0     H18430   9.411   7.603   7.343 -3.3303 -0.1307  0.1705
  140MOL0     H18431   9.377   7.677   7.580 -0.5262  0.0764 -2.5489
  140MOL0     H18432   9.349   7.515   7.634  1.1880  0.6200  0.4794
  140MOL0     H18433   9.087   7.403   7.548 -0.4296 -0.7976 -0.3459
  140MOL0     H18434   8.746   7.606   7.593  0.1773 -1.4749  2.3968
  140MOL0     H18435   8.805   7.444   7.620 -0.1761  1.7603  1.5603
  140MOL0     H18436   8.718   7.596   7.369  2.7502  0.9925  1.0516
  140MOL0     H18437   8.664   7.429   7.442 -0.9683 -0.6400 -2.4981
  140MOL0     H18438   8.908   7.497   7.265  1.8401  0.1311  3.7032
  140MOL0     H18439   8.890   7.346   7.346 -0.5391 -1.2658 -2.6042
  140MOL0     H18440   8.677   7.303   7.247  0.5376  1.5336  2.2882
  140MOL0     H18441   8.806   7.300   7.128 -0.8922 -1.9289 -0.1253
  140MOL0     H18442   8.537   7.248   7.063 -0.4207  0.5839  0.7646
  140MOL0     H18443   8.484   7.182   6.850 -2.4404 -0.3654 -1.9644
  140MOL0     H18444   8.297   7.433   6.345 -1.0825  0.1320 -2.0638
  140MOL0     H18445   8.322   7.377   6.106  1.2111  1.7941 -1.0939
  140MOL0     H18446   8.725   7.203   5.972 -1.1529  0.4514 -0.9464
  140MOL0     H18447   8.741   7.381   5.937  4.9634 -1.8691 -0.3345
  140MOL0     H18448   8.609   7.361   5.742 -1.8465 -0.7443  1.9450
  140MOL0     H18449   8.577   7.182   5.776 -0.8494  0.4310 -0.0944
  140MOL0     H18450   8.841   7.316   5.728  1.7516 -1.3343 -0.0451
  140MOL0     H18451   8.751   7.247   5.586  3.7569  1.5941 -0.0763
  140MOL0     H18452   8.835   7.080   5.821  2.6360  1.2184  0.1942
  140MOL0     H18453   8.739   7.038   5.680 -0.0788  0.5297 -1.1095
  140MOL0     H18454   9.033   7.127   5.696  0.3562 -1.0422  1.6113
  140MOL0     H18455   8.939   7.091   5.538 -4.4361 -0.9891  1.7354
  140MOL0     H18456   8.940   6.852   5.581 -0.3645  2.6565 -2.1431
  140MOL0     H18457   8.985   6.887   5.759  1.9509  2.5604  1.4122
  140MOL0     H18458   9.143   6.964   5.486  3.0573  1.0577  1.1801
  140MOL0     H18459   9.201   6.970   5.649 -1.5523 -2.4502  3.5124
  140MOL0     H18460   9.112   6.710   5.522  0.6266 -1.6111  1.1611
  140MOL0     H18461   9.214   6.728   5.659  5.3003 -2.9510 -2.4190
  140MOL0     H18462   8.739   7.275   6.198  0.6663  0.8278  1.6146
  140MOL0     H18463   8.688   7.325   6.436 -2.8397 -2.5112  1.7759
  140MOL0     H18464   8.573   7.572   6.694 -2.1137 -1.0115 -1.4719
  140MOL0     H18465   8.685   7.624   6.900 -0.9257  0.3562 -4.9523
  140MOL0     H18466   9.061   7.150   6.883 -0.2573 -1.0704 -2.3432
  140MOL0     H18467   8.828   7.144   6.852 -0.1144  0.9583  0.0426
  140MOL0     H18468   8.331   7.015   7.132  1.5303  0.4059  0.2747
  140MOL0     H18469   8.104   6.991   7.034  2.2248  3.4368  1.5624
  140MOL0     H18470   8.063   6.676   6.717 -0.4440 -0.8939  2.4022
  140MOL0     H18471   8.074   6.836   6.630 -0.6123  1.2378  1.1800
  140MOL0     H18472   7.823   6.866   6.713  0.3197  1.0275  0.7521
  140MOL0     H18473   7.869   6.758   6.573  1.1637  2.2184  0.0108
  140MOL0     H18474   7.811   6.657   6.856  1.6381  2.0425  0.4722
  140MOL0     H18475   7.848   6.549   6.714  2.8096  1.6996 -2.4402
  140MOL0     H18476   7.614   6.750   6.766  1.0974 -0.9596  2.5857
  140MOL0     H18477   7.644   6.673   6.608  1.5190  0.2767  0.6664
  140MOL0     H18478   7.473   6.387   6.879 -0.8483  2.4903  1.8923
  140MOL0     H18479   8.282   6.772   6.706 -0.2889 -1.2774  1.0572
  140MOL0     H18480   8.507   6.815   6.800  0.8676  0.6874  1.2095
  141MOL0     O18481   4.606   2.767   6.414 -0.2040 -0.1652 -0.4338
  141MOL0     C18482   4.622   2.805   6.530  0.1696  0.9302 -0.1481
  141MOL0     O18483   4.710   2.899   6.577  0.2587 -0.2494 -0.4990
  141MOL0     C18484   4.755   2.991   6.484 -0.0089  0.1443  0.7240
  141MOL0     C18485   4.891   3.004   6.447  0.0267  0.3745  0.0102
  141MOL0     C18486   4.933   3.093   6.349 -0.2300  0.0914  0.0133
  141MOL0     C18487   4.846   3.164   6.279  1.4009  0.2892  1.0257
  141MOL0     O18488   4.896   3.248   6.183  0.0511  0.3979 -0.6766
  141MOL0     C18489   4.826   3.260   6.068 -0.9405  0.4048  0.1588
  141MOL0     C18490   4.793   3.406   6.041  0.1385  0.3995 -0.4438
  141MOL0     C18491   4.706   3.426   5.907 -0.1656 -0.8171 -0.7308
  141MOL0     C18492   4.637   3.551   5.894  0.2834 -0.8362 -0.2702
  141MOL0     C18493   4.531   3.539   5.781 -0.2043  0.0439 -0.2207
  141MOL0     C18494   4.580   3.474   5.649 -0.4546  0.1721 -0.8036
  141MOL0     C18495   4.471   3.512   5.551 -0.7104  0.2088 -0.5044
  141MOL0     C18496   4.496   3.428   5.431  0.0084 -0.8865  0.9273
  141MOL0     N18497   4.402   3.472   5.329  0.0236 -0.9437 -0.3677
  141MOL0     C18498   4.283   3.416   5.309 -0.2117  0.2198 -0.3700
  141MOL0     C18499   4.224   3.498   5.214  0.3857  1.1396 -0.7534
  141MOL0     C18500   4.097   3.474   5.139 -0.1062 -0.6369  1.1057
  141MOL0     C18501   3.983   3.561   5.163  1.0631  0.0761  1.1356
  141MOL0     C18502   3.865   3.512   5.070 -0.1340 -0.5140  0.4377
  141MOL0     C18503   3.751   3.608   5.095  1.0728  0.5124  0.9356
  141MOL0     O18504   3.690   3.583   5.217 -0.2094  1.0117 -0.8213
  141MOL0     C18505   3.572   3.633   5.259 -0.2359 -0.7895  0.9528
  141MOL0     C18506   3.497   3.729   5.191  0.1699  0.0050  0.6415
  141MOL0     C18507   3.364   3.766   5.222  0.4359 -1.0179 -0.1792
  141MOL0     C18508   3.299   3.705   5.331 -0.2487 -0.3226  0.2245
  141MOL0     C18509   3.156   3.726   5.368  0.5394  0.0297  0.9010
  141MOL0     O18510   3.102   3.845   5.335 -0.4035  0.1832 -0.4451
  141MOL0     C18511   2.975   3.873   5.384  0.7138  0.3235  1.0701
  141MOL0     C18512   2.934   3.955   5.486  0.2239 -0.2593 -0.7142
  141MOL0     C18513   2.801   3.983   5.514 -0.0405 -0.1989 -0.5255
  141MOL0     C18514   2.694   3.912   5.455 -0.5298  0.0807 -0.2206
  141MOL0     O18515   2.572   3.941   5.505  0.3217 -0.0818  1.1193
  141MOL0     C18516   2.448   3.858   5.474 -0.8152  0.2926  0.1562
  141MOL0     C18517   2.349   3.893   5.586  0.2749 -0.4665 -0.0551
  141MOL0     C18518   2.215   3.871   5.526  0.0804  0.4353 -1.3315
  141MOL0     C18519   2.124   3.864   5.654 -0.1133  0.2075 -0.5775
  141MOL0     C18520   1.975   3.896   5.632 -0.1390  0.6690 -0.2914
  141MOL0     C18521   1.920   3.821   5.512  0.8565  0.4063 -0.4032
  141MOL0     C18522   1.888   3.675   5.525  1.1030 -0.0943 -0.1180
  141MOL0     C18523   1.896   3.597   5.401 -0.0188 -0.4341  0.3393
  141MOL0    Cl18524   1.749   3.645   5.304  0.3575 -0.0957 -0.6487
  141MOL0     C18525   2.726   3.836   5.349  0.6335  0.3365 -0.0819
  141MOL0     C18526   2.857   3.816   5.323 -0.1958 -0.6200 -0.6412
  141MOL0     O18527   3.099   3.632   5.423 -0.2973  0.1959  0.0594
  141MOL0     C18528   3.378   3.610   5.408  0.5745 -0.3458  0.1581
  141MOL0     C18529   3.509   3.570   5.370 -0.6659  0.3104  0.3284
  141MOL0     N18530   4.303   3.604   5.186  0.2262 -0.0590 -0.3031
  141MOL0     N18531   4.412   3.587   5.259 -0.0803  0.0981 -0.3241
  141MOL0     C18532   4.712   3.156   6.304  0.7068 -0.6552 -0.5237
  141MOL0     C18533   4.665   3.074   6.410  0.5297 -0.2069  0.6106
  141MOL0     C18534   4.532   2.738   6.630  0.7580 -0.7406  1.3463
  141MOL0     C18535   4.474   2.816   6.728 -0.2456  0.6487  0.2275
  141MOL0     C18536   4.398   2.750   6.835  0.1515 -0.2117  0.6744
  141MOL0     C18537   4.397   2.611   6.852 -0.0548 -0.6256 -0.0345
  141MOL0     O18538   4.326   2.564   6.960  0.3631  0.2160  0.4802
  141MOL0     C18539   4.346   2.424   6.991  0.7484  0.4092  0.5534
  141MOL0     C18540   4.486   2.394   7.054  0.7706 -0.0119 -0.2698
  141MOL0     C18541   4.528   2.497   7.159  0.4248  0.4788  1.1487
  141MOL0     C18542   4.632   2.453   7.252 -0.2732  0.2484 -0.3081
  141MOL0     C18543   4.575   2.359   7.343 -0.5025  0.5179 -0.9952
  141MOL0     C18544   4.554   2.271   7.432 -0.6607  0.5277 -0.0231
  141MOL0     C18545   4.441   2.542   6.739  0.4083  0.3204 -0.4479
  141MOL0     C18546   4.507   2.603   6.638 -0.5041  0.6637 -0.1821
  141MOL0     H18547   4.967   2.946   6.499  0.8811  0.7030 -0.8350
  141MOL0     H18548   5.036   3.095   6.314 -0.9356  0.3057 -2.1920
  141MOL0     H18549   4.732   3.206   6.051 -1.2730  0.7209  0.9067
  141MOL0     H18550   4.890   3.228   5.986 -1.9440  4.6836 -2.6311
  141MOL0     H18551   4.885   3.465   6.035  0.8419 -0.2654  2.2670
  141MOL0     H18552   4.734   3.445   6.124 -0.7883  0.6422 -1.2022
  141MOL0     H18553   4.623   3.355   5.914 -0.3049 -0.4951  3.0712
  141MOL0     H18554   4.765   3.409   5.816  1.3834 -0.6428  0.2133
  141MOL0     H18555   4.585   3.579   5.986 -1.7530 -3.3296 -0.5412
  141MOL0     H18556   4.714   3.622   5.864  0.0447 -0.6555 -0.4640
  141MOL0     H18557   4.494   3.641   5.767  0.6288  0.4886  0.7098
  141MOL0     H18558   4.456   3.469   5.819  3.7050 -2.8049  3.1173
  141MOL0     H18559   4.577   3.367   5.668  0.1846  0.5975  2.0915
  141MOL0     H18560   4.684   3.503   5.637  0.7941 -2.7399  1.7641
  141MOL0     H18561   4.371   3.483   5.584  0.3505  0.5469  3.5613
  141MOL0     H18562   4.497   3.615   5.526  0.8792 -0.4202 -1.6204
  141MOL0     H18563   4.475   3.321   5.444 -0.7313 -0.6618  1.6398
  141MOL0     H18564   4.600   3.450   5.402 -0.5909  0.6223 -0.2204
  141MOL0     H18565   4.256   3.314   5.335  1.5882  0.0043  0.8713
  141MOL0     H18566   4.065   3.369   5.146 -0.6097 -0.5163  0.6526
  141MOL0     H18567   4.127   3.480   5.034  2.4468  2.0038  1.8587
  141MOL0     H18568   3.995   3.667   5.140 -1.0650 -0.0647 -1.1106
  141MOL0     H18569   3.955   3.551   5.268 -1.4603 -2.0090  0.3912
  141MOL0     H18570   3.910   3.515   4.970 -1.6990  2.9314 -0.3151
  141MOL0     H18571   3.836   3.408   5.086 -0.7820 -0.9660 -2.8855
  141MOL0     H18572   3.674   3.596   5.019 -0.6295  3.8972  1.9323
  141MOL0     H18573   3.781   3.713   5.090 -0.9675  1.0627 -1.3848
  141MOL0     H18574   3.551   3.770   5.106 -1.6952  1.6095  0.1701
  141MOL0     H18575   3.322   3.837   5.152  2.9150  1.5807  0.7917
  141MOL0     H18576   3.010   4.001   5.549  1.3401  0.5911 -2.6051
  141MOL0     H18577   2.780   4.052   5.595 -1.7575 -2.8035  1.4450
  141MOL0     H18578   2.480   3.754   5.480 -0.2515  0.4670  0.3428
  141MOL0     H18579   2.420   3.893   5.374 -1.8757  0.3385  0.4600
  141MOL0     H18580   2.349   3.999   5.611 -3.5208 -0.2913 -0.2883
  141MOL0     H18581   2.361   3.837   5.679 -0.3457 -2.5771 -1.1724
  141MOL0     H18582   2.223   3.772   5.479 -0.1255 -1.0113  1.4983
  141MOL0     H18583   2.178   3.945   5.454 -1.6112 -0.5429 -1.5193
  141MOL0     H18584   2.138   3.769   5.707  0.3659  0.3859 -0.3807
  141MOL0     H18585   2.151   3.938   5.731  1.3850 -0.2320 -0.6495
  141MOL0     H18586   1.965   4.002   5.604  0.2224  0.6714 -0.4208
  141MOL0     H18587   1.908   3.879   5.716  0.0554 -3.0769 -0.7398
  141MOL0     H18588   1.973   3.847   5.420  0.5217 -1.2920 -1.1140
  141MOL0     H18589   1.822   3.868   5.499  0.8784 -0.1773 -3.1740
  141MOL0     H18590   1.945   3.633   5.608 -0.4380 -0.7397  0.6544
  141MOL0     H18591   1.784   3.676   5.560  0.8221 -0.6555 -0.9232
  141MOL0     H18592   1.907   3.489   5.416 -1.3760 -0.5378  0.7254
  141MOL0     H18593   1.987   3.633   5.353  0.3071  1.1271  2.0322
  141MOL0     H18594   2.643   3.781   5.307 -0.3498 -0.4332  2.6645
  141MOL0     H18595   2.873   3.754   5.235  2.1921 -2.4405  0.9689
  141MOL0     H18596   3.346   3.555   5.496  2.2031  0.8784  1.5976
  141MOL0     H18597   3.573   3.496   5.417  2.9774 -0.8907 -5.4262
  141MOL0     H18598   4.644   3.221   6.249 -0.3922 -0.6116  0.8289
  141MOL0     H18599   4.557   3.087   6.421  0.5268  0.5468 -0.2612
  141MOL0     H18600   4.464   2.923   6.720  0.7516  0.6087 -2.3337
  141MOL0     H18601   4.339   2.811   6.901  2.5857  0.1462  2.6664
  141MOL0     H18602   4.324   2.368   6.900  1.1684  1.3469 -0.1477
  141MOL0     H18603   4.273   2.392   7.066  3.3806 -1.3831  2.5049
  141MOL0     H18604   4.481   2.293   7.097  1.5383 -0.4078 -1.0722
  141MOL0     H18605   4.563   2.380   6.978  2.2336  2.6984  0.6121
  141MOL0     H18606   4.440   2.521   7.219 -0.7680  0.4991 -0.5463
  141MOL0     H18607   4.557   2.591   7.111  1.4532  0.8138  2.3818
  141MOL0     H18608   4.713   2.410   7.193  0.4489  0.0452  0.7981
  141MOL0     H18609   4.663   2.548   7.298  0.9293  0.4898 -1.5698
  141MOL0     H18610   4.542   2.206   7.516  2.3383 -0.1353 -0.0072
  141MOL0     H18611   4.412   2.441   6.711  2.1918 -0.1573 -0.6522
  141MOL0     H18612   4.537   2.542   6.553 -1.8014  1.0974 -0.9929
  142MOL0     O18613   0.651   4.855   6.593 -0.7453 -1.1100 -0.3256
  142MOL0     C18614   0.612   4.923   6.493 -1.0881  0.0359 -0.2603
  142MOL0     O18615   0.678   5.042   6.453  0.4610  0.7651  0.1549
  142MOL0     C18616   0.785   5.082   6.532  1.2992  0.7008 -0.6879
  142MOL0     C18617   0.906   5.002   6.529  0.3002  0.9578 -0.0174
  142MOL0     C18618   1.016   5.042   6.613 -0.1206  0.0496 -0.5702
  142MOL0     C18619   0.997   5.155   6.699  0.0970 -1.3535 -0.7835
  142MOL0     O18620   1.100   5.219   6.759 -0.0071  0.6162  0.6661
  142MOL0     C18621   1.152   5.137   6.868 -0.0241  0.3189  0.7240
  142MOL0     C18622   1.239   5.214   6.963 -0.0115 -0.3225  0.1086
  142MOL0     C18623   1.166   5.289   7.070 -0.1999  0.6097 -0.2388
  142MOL0     C18624   1.054   5.372   7.020 -0.1260  0.7063  0.2528
  142MOL0     C18625   1.003   5.453   7.139  0.4758  0.6725 -0.1081
  142MOL0     C18626   0.925   5.571   7.079  0.9510 -0.0168  0.9480
  142MOL0     C18627   0.849   5.645   7.185  0.0183  0.5619 -0.5072
  142MOL0     C18628   0.801   5.784   7.125  0.1695  0.0724 -0.3204
  142MOL0     N18629   0.711   5.752   7.016  0.8885 -0.2848  0.2819
  142MOL0     C18630   0.732   5.811   6.889  0.3998 -0.6220 -0.9430
  142MOL0     C18631   0.625   5.765   6.816  0.2532 -0.5461  0.5817
  142MOL0     C18632   0.590   5.808   6.672  0.3476  0.3431  0.4379
  142MOL0     C18633   0.443   5.856   6.653  1.0616  0.3578 -0.1849
  142MOL0     C18634   0.402   5.901   6.526 -0.5559 -0.9004  0.0635
  142MOL0     C18635   0.254   5.948   6.508 -1.0172 -0.0280  0.8528
  142MOL0     O18636   0.167   5.833   6.527  0.3650  0.1815 -0.0245
  142MOL0     C18637   0.041   5.824   6.474  0.6428 -1.2658 -0.1656
  142MOL0     C18638  -0.035   5.712   6.496 -0.0162 -0.6224 -0.1121
  142MOL0     C18639  -0.156   5.696   6.437  0.5533 -0.7350 -0.5100
  142MOL0     C18640  -0.224   5.803   6.373  1.2831  0.0409  0.3760
  142MOL0     C18641  -0.363   5.782   6.333  0.0164  0.2652  0.0007
  142MOL0     O18642  -0.419   5.661   6.333 -0.0463 -0.0379 -0.4200
  142MOL0     C18643  -0.523   5.641   6.246 -0.5951 -0.1577 -0.5209
  142MOL0     C18644  -0.523   5.655   6.106 -0.8773 -0.0301 -0.4743
  142MOL0     C18645  -0.642   5.623   6.041  0.3302  0.4583 -0.4200
  142MOL0     C18646  -0.756   5.589   6.114  0.5394 -0.1480 -0.1243
  142MOL0     O18647  -0.864   5.570   6.034 -0.0914 -0.9444  0.5494
  142MOL0     C18648  -0.988   5.638   6.067 -0.1867  1.0688  0.9107
  142MOL0     C18649  -1.108   5.557   6.135  1.1223 -0.1355 -0.6091
  142MOL0     C18650  -1.118   5.424   6.066  0.3760 -0.3030 -0.0170
  142MOL0     C18651  -1.246   5.361   6.099 -0.1612 -0.0911 -0.1715
  142MOL0     C18652  -1.247   5.221   6.031 -0.2215  0.7976 -0.6350
  142MOL0     C18653  -1.318   5.229   5.896  0.3806  0.0623 -0.4123
  142MOL0     C18654  -1.370   5.100   5.843  0.1103 -0.4659 -0.1051
  142MOL0     C18655  -1.473   5.028   5.926  0.5036 -0.3608 -0.6618
  142MOL0    Cl18656  -1.610   5.139   5.927 -0.0288 -0.4582 -0.4742
  142MOL0     C18657  -0.748   5.564   6.239  0.5465  0.0139  0.0792
  142MOL0     C18658  -0.631   5.590   6.304  0.0340 -0.6508 -0.9195
  142MOL0     O18659  -0.422   5.884   6.300  0.5377  0.0187 -0.6915
  142MOL0     C18660  -0.152   5.928   6.360  0.3600 -0.0368 -0.2217
  142MOL0     C18661  -0.020   5.936   6.413  0.0520  0.2377 -0.0340
  142MOL0     N18662   0.551   5.674   6.893  0.3707 -0.6478 -0.0914
  142MOL0     N18663   0.602   5.676   7.020  0.2916  0.2760 -0.6179
  142MOL0     C18664   0.883   5.232   6.688 -0.1944  0.1517  0.3295
  142MOL0     C18665   0.770   5.190   6.614 -0.6286  0.1562 -0.4402
  142MOL0     C18666   0.499   4.864   6.417 -0.3839  0.3026 -0.9665
  142MOL0     C18667   0.456   4.931   6.299  0.3742  0.2715  0.3853
  142MOL0     C18668   0.334   4.897   6.236  0.9319 -0.2387  0.7021
  142MOL0     C18669   0.264   4.801   6.290 -0.1129  0.7415 -0.2589
  142MOL0     O18670   0.143   4.757   6.245 -0.2353  0.1651  0.4582
  142MOL0     C18671   0.077   4.808   6.127 -0.1205 -0.2581  0.2284
  142MOL0     C18672  -0.055   4.728   6.123 -0.5672 -0.1823  0.4747
  142MOL0     C18673  -0.159   4.789   6.020  0.5890  0.1545 -0.7034
  142MOL0     C18674  -0.127   4.750   5.876 -0.4715 -0.8462 -0.3411
  142MOL0     C18675  -0.146   4.610   5.839  0.1178  0.6238  0.6468
  142MOL0     C18676  -0.165   4.489   5.839 -0.2486  0.1657  0.1333
  142MOL0     C18677   0.303   4.723   6.406 -0.5795 -0.4893 -0.3191
  142MOL0     C18678   0.425   4.755   6.467 -0.0394 -0.6818 -0.0264
  142MOL0     H18679   0.917   4.922   6.456  2.2372 -0.6212  1.8650
  142MOL0     H18680   1.117   5.003   6.608  0.3825  1.1767  0.1572
  142MOL0     H18681   1.216   5.057   6.829  1.5462  2.2470 -0.9184
  142MOL0     H18682   1.079   5.092   6.935  0.2947 -2.2867 -0.5514
  142MOL0     H18683   1.307   5.269   6.897 -1.1922  2.3745  1.0062
  142MOL0     H18684   1.301   5.156   7.032 -1.1998  0.6167  2.0496
  142MOL0     H18685   1.232   5.347   7.135 -2.3820  0.9057  1.8398
  142MOL0     H18686   1.123   5.222   7.145  1.4001  0.5940  0.7011
  142MOL0     H18687   1.100   5.429   6.939  0.2231 -1.1586 -0.9086
  142MOL0     H18688   0.972   5.310   6.982 -0.0290  2.1024 -2.4737
  142MOL0     H18689   1.084   5.498   7.196 -1.6986  0.8906  3.0998
  142MOL0     H18690   0.936   5.403   7.210  1.1914  2.8145  2.2256
  142MOL0     H18691   0.861   5.533   6.998  1.3645 -0.6606  0.9178
  142MOL0     H18692   0.992   5.645   7.035 -0.0413  1.0394  1.1511
  142MOL0     H18693   0.764   5.583   7.214 -0.6842  1.2594 -1.0553
  142MOL0     H18694   0.916   5.658   7.271  1.1033 -1.3091 -1.0132
  142MOL0     H18695   0.881   5.852   7.093  1.7217  0.3515  3.6324
  142MOL0     H18696   0.758   5.843   7.206  3.0861  0.8214  0.8411
  142MOL0     H18697   0.809   5.884   6.869  0.6573 -1.4512 -3.3273
  142MOL0     H18698   0.608   5.726   6.602 -1.3964  1.0089 -0.8605
  142MOL0     H18699   0.655   5.892   6.647  0.4368  1.1094  3.0118
  142MOL0     H18700   0.429   5.942   6.720  1.3343 -0.5925  1.1351
  142MOL0     H18701   0.375   5.774   6.678  1.5001 -0.2362 -0.8959
  142MOL0     H18702   0.478   5.971   6.489  2.7776 -2.7309  2.8315
  142MOL0     H18703   0.410   5.814   6.460  0.2865 -2.9465  2.6646
  142MOL0     H18704   0.240   5.997   6.411  0.6234 -0.4716  0.3630
  142MOL0     H18705   0.235   6.034   6.573 -2.1056  0.9343 -0.6470
  142MOL0     H18706   0.016   5.626   6.538  2.7383 -1.4910 -4.5529
  142MOL0     H18707  -0.204   5.598   6.439 -1.2797 -0.0474 -3.9034
  142MOL0     H18708  -0.429   5.682   6.058  1.5920 -2.2665  2.7092
  142MOL0     H18709  -0.642   5.651   5.937  0.3263 -0.2316 -0.6111
  142MOL0     H18710  -1.034   5.673   5.975 -1.4565 -1.2498  0.5916
  142MOL0     H18711  -0.958   5.726   6.125  1.9803 -1.1422  3.4471
  142MOL0     H18712  -1.199   5.616   6.121  2.3349  1.5251 -1.9823
  142MOL0     H18713  -1.102   5.542   6.243  0.9550  0.2048 -0.5519
  142MOL0     H18714  -1.043   5.349   6.091 -1.8702 -3.3100 -1.6803
  142MOL0     H18715  -1.105   5.434   5.958 -0.5677 -2.4398 -0.3722
  142MOL0     H18716  -1.247   5.341   6.207  0.7555 -1.0951 -0.3414
  142MOL0     H18717  -1.332   5.427   6.086 -0.4804 -0.3872  0.4081
  142MOL0     H18718  -1.293   5.146   6.096 -0.4931  2.1093  0.7708
  142MOL0     H18719  -1.148   5.174   6.022  0.2059  1.6391 -0.4685
  142MOL0     H18720  -1.243   5.272   5.829  0.2324  0.3589 -0.3916
  142MOL0     H18721  -1.395   5.307   5.898 -0.6213 -0.9323  0.8434
  142MOL0     H18722  -1.416   5.122   5.746 -1.1711  2.0981  0.9946
  142MOL0     H18723  -1.290   5.030   5.816  0.4541  0.1067 -0.5854
  142MOL0     H18724  -1.432   5.018   6.027 -0.7367  2.5243  0.2260
  142MOL0     H18725  -1.500   4.928   5.890  0.0083 -1.9595  3.6229
  142MOL0     H18726  -0.837   5.526   6.288 -0.1383  2.5604  0.9357
  142MOL0     H18727  -0.635   5.574   6.411 -1.6091 -1.1258 -1.0186
  142MOL0     H18728  -0.208   6.005   6.306 -0.8571 -2.9058 -3.3874
  142MOL0     H18729   0.020   6.036   6.426  0.2702 -0.0521  1.7307
  142MOL0     H18730   0.883   5.332   6.730 -1.2472  0.4114 -0.2316
  142MOL0     H18731   0.681   5.252   6.611 -0.3008  0.5940 -1.2907
  142MOL0     H18732   0.510   5.021   6.270  0.4211  0.8477  2.1277
  142MOL0     H18733   0.294   4.959   6.156  1.8100 -1.2417 -0.5544
  142MOL0     H18734   0.143   4.793   6.041  0.3272 -2.5307  0.9234
  142MOL0     H18735   0.058   4.914   6.146 -0.2291 -0.5954  2.1521
  142MOL0     H18736  -0.026   4.631   6.080  1.0942  0.7341 -0.5572
  142MOL0     H18737  -0.091   4.713   6.225  0.7017 -1.4102  0.7799
  142MOL0     H18738  -0.157   4.897   6.039  1.5674 -0.3037  2.3005
  142MOL0     H18739  -0.260   4.752   6.036  0.4182  0.8809 -0.0715
  142MOL0     H18740  -0.186   4.815   5.810  1.2926  1.2511  0.0501
  142MOL0     H18741  -0.026   4.772   5.842 -1.4199  1.6779 -1.8406
  142MOL0     H18742  -0.179   4.386   5.813 -0.2784 -0.1876  1.5014
  142MOL0     H18743   0.238   4.647   6.450 -1.1513  1.3106  2.1860
  142MOL0     H18744   0.447   4.711   6.564  0.6978 -0.2407  0.0141
  143MOL0     O18745   5.975   9.067  10.867  0.0291  0.8089 -0.8072
  143MOL0     C18746   5.895   9.002  10.931 -0.6518 -0.5342 -0.4943
  143MOL0     O18747   5.812   9.057  11.026  0.7754 -0.3389  0.5831
  143MOL0     C18748   5.787   9.190  11.023 -0.0802  0.0656  0.0802
  143MOL0     C18749   5.660   9.241  11.003  0.0695  0.2379  0.2542
  143MOL0     C18750   5.642   9.378  11.011 -0.9191 -0.6583  0.5253
  143MOL0     C18751   5.743   9.473  11.024 -0.0679 -0.1242  0.0383
  143MOL0     O18752   5.723   9.602  11.008 -1.1047 -0.0409 -0.5323
  143MOL0     C18753   5.737   9.638  10.865 -0.0042  0.2285  0.0671
  143MOL0     C18754   5.833   9.761  10.854 -0.0354 -0.6858 -0.4124
  143MOL0     C18755   5.795   9.870  10.954  0.3118  0.1919  0.1238
  143MOL0     C18756   5.676   9.949  10.911 -0.4828  0.0218  0.3702
  143MOL0     C18757   5.662  10.085  10.984 -0.0519 -0.2423 -0.1012
  143MOL0     C18758   5.768  10.200  10.960  0.3543  0.4269  0.4517
  143MOL0     C18759   5.759  10.324  11.056  0.1690  0.1834 -1.2575
  143MOL0     C18760   5.881  10.420  11.024 -0.3556 -0.3006 -0.7365
  143MOL0     N18761   5.830  10.524  10.935 -1.1279  0.4182 -0.6331
  143MOL0     C18762   5.799  10.509  10.802 -0.4867  0.1671  0.2558
  143MOL0     C18763   5.794  10.633  10.747 -0.2412 -0.4559  0.8701
  143MOL0     C18764   5.771  10.658  10.594  0.8760  0.1134  0.1789
  143MOL0     C18765   5.696  10.799  10.581 -0.7170 -0.1711  0.6685
  143MOL0     C18766   5.548  10.788  10.613  0.0502  0.2264 -0.8740
  143MOL0     C18767   5.482  10.919  10.566  1.0832  0.1131  1.2451
  143MOL0     O18768   5.338  10.909  10.607  0.2862 -0.3341 -0.3633
  143MOL0     C18769   5.262  11.012  10.552  0.3139  0.4963 -0.5977
  143MOL0     C18770   5.265  11.137  10.611 -0.0326 -0.6050  0.7641
  143MOL0     C18771   5.183  11.236  10.551 -0.1466  1.0375  0.4456
  143MOL0     C18772   5.100  11.213  10.440 -0.2743  0.2380 -0.8999
  143MOL0     C18773   5.015  11.312  10.383 -0.7661 -0.4558 -0.1130
  143MOL0     O18774   4.886  11.289  10.381 -1.2800 -1.0667 -0.3529
  143MOL0     C18775   4.809  11.379  10.315 -0.4041 -0.3195  0.7386
  143MOL0     C18776   4.794  11.515  10.347  0.3009  0.8768  0.8298
  143MOL0     C18777   4.700  11.595  10.280 -0.0311  0.3241 -0.1082
  143MOL0     C18778   4.627  11.539  10.176  0.2242 -0.5875  1.1976
  143MOL0     O18779   4.526  11.596  10.098 -0.3633 -0.4038  0.1413
  143MOL0     C18780   4.468  11.728  10.138 -0.7255 -0.2568  0.0236
  143MOL0     C18781   4.363  11.772  10.031 -0.3670  1.0487  0.2722
  143MOL0     C18782   4.245  11.683  10.017  0.9924 -0.4203  0.1570
  143MOL0     C18783   4.131  11.757   9.942  0.4227  0.6976  0.1126
  143MOL0     C18784   4.004  11.668   9.949 -0.0459  0.1398  0.1164
  143MOL0     C18785   3.917  11.739  10.053 -0.0317 -0.2523 -0.2523
  143MOL0     C18786   3.789  11.665  10.071  0.4769  0.0875 -0.7705
  143MOL0     C18787   3.713  11.701  10.197  0.6063 -0.0657 -0.6714
  143MOL0    Cl18788   3.696  11.880  10.207  0.1364 -0.4348 -0.0484
  143MOL0     C18789   4.644  11.404  10.141 -0.1806 -0.3513 -0.0545
  143MOL0     C18790   4.726  11.328  10.216  1.0465  0.4871 -0.8655
  143MOL0     O18791   5.067  11.408  10.330 -0.7993  0.5637  0.1420
  143MOL0     C18792   5.095  11.082  10.388 -0.4138  0.2097  0.9882
  143MOL0     C18793   5.178  10.983  10.447  0.4022 -0.1303 -0.3462
  143MOL0     N18794   5.821  10.730  10.848  0.6246  0.2129 -0.6980
  143MOL0     N18795   5.829  10.658  10.957 -0.0647  0.3353  0.9226
  143MOL0     C18796   5.869   9.415  11.053  0.3415  0.2790 -0.8372
  143MOL0     C18797   5.891   9.277  11.048 -0.2210 -0.1861 -1.6798
  143MOL0     C18798   5.891   8.854  10.917  0.3758  0.4356  0.6119
  143MOL0     C18799   5.808   8.778  10.994  0.1149  0.1061  0.0955
  143MOL0     C18800   5.793   8.637  10.982  0.3949 -0.0088  0.1419
  143MOL0     C18801   5.867   8.563  10.902  0.4836 -0.8828  0.1125
  143MOL0     O18802   5.845   8.427  10.916 -0.5472  0.1898  0.7271
  143MOL0     C18803   5.914   8.372  11.030 -0.1245 -0.3122 -0.8468
  143MOL0     C18804   5.795   8.323  11.111  0.2816  0.6139 -0.3992
  143MOL0     C18805   5.832   8.236  11.231 -0.8042 -0.1899 -0.3235
  143MOL0     C18806   5.839   8.085  11.207  1.2695  0.7243 -0.5417
  143MOL0     C18807   5.918   8.064  11.088  1.1305  0.6081  0.1500
  143MOL0     C18808   5.985   8.040  10.991  0.8693 -0.6831 -0.1781
  143MOL0     C18809   5.954   8.633  10.814 -0.1226  0.7484  0.3292
  143MOL0     C18810   5.968   8.779  10.827 -0.7041 -0.0798  0.6270
  143MOL0     H18811   5.572   9.178  11.001 -0.1807  0.5988 -0.3751
  143MOL0     H18812   5.542   9.411  10.985 -1.1618  0.2351  2.4060
  143MOL0     H18813   5.640   9.655  10.816  1.5452  0.7207 -3.0627
  143MOL0     H18814   5.780   9.552  10.812  1.2109  0.4538  0.6611
  143MOL0     H18815   5.842   9.800  10.752 -2.9356  0.9023 -0.1967
  143MOL0     H18816   5.936   9.731  10.870  0.1062  0.7627  2.0308
  143MOL0     H18817   5.884   9.935  10.963  1.3955 -0.8437 -2.3015
  143MOL0     H18818   5.776   9.829  11.054 -0.5715  1.1288  0.3556
  143MOL0     H18819   5.665   9.965  10.803  1.1724  0.4796  0.2456
  143MOL0     H18820   5.588   9.889  10.939 -0.7684  0.6710  0.9112
  143MOL0     H18821   5.674  10.060  11.090 -0.8942 -0.5787 -0.0745
  143MOL0     H18822   5.559  10.110  10.957  0.1236 -0.1859 -0.7245
  143MOL0     H18823   5.755  10.238  10.858 -0.2836 -2.5527 -0.6642
  143MOL0     H18824   5.867  10.155  10.959  0.6187  0.9021 -2.0123
  143MOL0     H18825   5.670  10.388  11.050  2.4275  4.5679  3.6637
  143MOL0     H18826   5.754  10.287  11.159 -1.3170  0.8715 -1.0606
  143MOL0     H18827   5.964  10.376  10.968 -2.2538 -2.2820 -2.1692
  143MOL0     H18828   5.929  10.454  11.116 -0.8882 -0.8969 -0.2307
  143MOL0     H18829   5.785  10.413  10.753 -0.5409  0.4916 -0.3674
  143MOL0     H18830   5.709  10.584  10.543 -0.9542  0.5896  1.6144
  143MOL0     H18831   5.862  10.669  10.535 -0.9503  0.3503 -2.7811
  143MOL0     H18832   5.707  10.826  10.476  0.0106  1.8965  1.2371
  143MOL0     H18833   5.749  10.869  10.646 -3.2276  1.6404  0.8911
  143MOL0     H18834   5.498  10.702  10.568 -0.3719  1.0797 -2.0718
  143MOL0     H18835   5.545  10.777  10.722 -0.5069  0.3767 -0.8735
  143MOL0     H18836   5.494  10.915  10.458  1.3064 -3.6300  1.2818
  143MOL0     H18837   5.542  11.000  10.608  2.4567 -0.1643 -0.0952
  143MOL0     H18838   5.334  11.158  10.692  0.6541  0.8524 -0.1685
  143MOL0     H18839   5.186  11.341  10.579  0.8913  1.2449 -0.3590
  143MOL0     H18840   4.862  11.544  10.427  2.0399 -1.4717  0.3026
  143MOL0     H18841   4.679  11.700  10.300 -0.8617  0.2946 -0.7918
  143MOL0     H18842   4.541  11.808  10.152 -1.3047 -0.1596  3.3309
  143MOL0     H18843   4.421  11.719  10.236  1.6276 -0.9258  1.1809
  143MOL0     H18844   4.412  11.784   9.934  0.7736 -1.2570  0.4804
  143MOL0     H18845   4.335  11.871  10.067  2.8181  1.4101  2.1680
  143MOL0     H18846   4.218  11.658  10.120  2.1588 -3.5140 -0.1857
  143MOL0     H18847   4.266  11.586   9.971 -1.4557  0.1777 -2.5260
  143MOL0     H18848   4.117  11.859   9.977 -3.1902  0.4677 -0.3189
  143MOL0     H18849   4.159  11.770   9.837 -0.7734  1.9076 -0.0741
  143MOL0     H18850   4.023  11.565   9.979  2.3948  1.2981  3.1634
  143MOL0     H18851   3.956  11.665   9.851  2.3718  0.0788 -1.1384
  143MOL0     H18852   3.886  11.836  10.015 -3.0745 -0.7796  0.6223
  143MOL0     H18853   3.969  11.742  10.150  3.5579 -2.2282 -1.9149
  143MOL0     H18854   3.736  11.683   9.977  0.9173  1.1239 -0.8272
  143MOL0     H18855   3.820  11.560  10.079 -1.0249 -0.4862 -1.8885
  143MOL0     H18856   3.754  11.674  10.294  0.3894  0.9431 -0.2817
  143MOL0     H18857   3.609  11.665  10.201 -0.3201  2.4266 -0.5937
  143MOL0     H18858   4.577  11.367  10.064  0.6122  2.7992 -2.4709
  143MOL0     H18859   4.721  11.222  10.194  0.1953 -0.1580  1.9792
  143MOL0     H18860   5.034  11.060  10.301  2.3283  2.6480 -1.8206
  143MOL0     H18861   5.171  10.890  10.390 -0.6142 -0.0212 -0.4102
  143MOL0     H18862   5.957   9.474  11.075 -0.0065  0.2985  0.5471
  143MOL0     H18863   5.988   9.234  11.073 -0.4634  0.4490  0.5784
  143MOL0     H18864   5.743   8.820  11.070 -0.4050 -2.7534  1.3612
  143MOL0     H18865   5.718   8.588  11.045  0.8470 -1.0987 -0.1435
  143MOL0     H18866   5.963   8.457  11.078 -1.9899  3.3780 -4.8120
  143MOL0     H18867   5.991   8.299  11.004  0.3542  0.0974 -0.6031
  143MOL0     H18868   5.742   8.411  11.149 -1.1187 -0.4614  0.2175
  143MOL0     H18869   5.736   8.270  11.036 -0.8921  0.7527  0.3960
  143MOL0     H18870   5.758   8.253  11.310 -1.7575 -0.3537 -1.1569
  143MOL0     H18871   5.930   8.261  11.272 -1.0696 -1.2862  1.0274
  143MOL0     H18872   5.885   8.034  11.292 -1.7005  1.1649  1.5062
  143MOL0     H18873   5.736   8.048  11.198  1.5102  0.1560 -1.0509
  143MOL0     H18874   6.048   8.023  10.905  0.7424  2.3351 -0.9895
  143MOL0     H18875   5.999   8.572  10.737  0.8126  1.9988 -0.1491
  143MOL0     H18876   6.018   8.836  10.749 -0.7160  0.2022  0.8248
  144MOL0     O18877   8.911  10.826   7.048 -0.1772  0.8002 -1.1318
  144MOL0     C18878   8.927  10.926   6.973 -0.7457 -0.2665 -1.2412
  144MOL0     O18879   8.891  11.049   7.013  0.0992 -0.3332 -0.0476
  144MOL0     C18880   8.824  11.059   7.136  1.2627 -1.1224  0.3398
  144MOL0     C18881   8.883  11.042   7.257 -0.2370  0.0392  0.1493
  144MOL0     C18882   8.807  11.018   7.372  0.6165  0.5153  0.0749
  144MOL0     C18883   8.672  11.025   7.377  1.1184  0.3603 -0.1497
  144MOL0     O18884   8.607  11.016   7.497 -0.4348  0.4134 -0.1877
  144MOL0     C18885   8.597  10.875   7.536  0.3299 -0.8603  0.9033
  144MOL0     C18886   8.461  10.818   7.483  0.0478  0.7602 -0.6029
  144MOL0     C18887   8.339  10.868   7.559 -0.3955  0.2258  0.5340
  144MOL0     C18888   8.282  10.758   7.662 -0.1214 -0.2334  0.2858
  144MOL0     C18889   8.149  10.814   7.717  0.2341  0.2912 -0.3549
  144MOL0     C18890   8.067  10.712   7.790 -0.2864 -0.5826  1.0903
  144MOL0     C18891   8.145  10.658   7.917 -0.0439  0.3915 -0.2784
  144MOL0     C18892   8.063  10.536   7.962  0.3573  0.6032  0.3334
  144MOL0     N18893   7.916  10.561   7.993  0.0824  0.1647  0.1125
  144MOL0     C18894   7.877  10.634   8.100 -0.9522 -0.2554  0.3157
  144MOL0     C18895   7.742  10.628   8.103 -1.6013 -0.6603  0.6658
  144MOL0     C18896   7.644  10.709   8.183 -0.0201  0.1012 -0.3775
  144MOL0     C18897   7.664  10.646   8.319 -0.9468  0.4051  0.2773
  144MOL0     C18898   7.569  10.698   8.420 -0.4073  0.3113 -0.2592
  144MOL0     C18899   7.569  10.626   8.549  0.4115 -0.1121  0.3037
  144MOL0     O18900   7.570  10.483   8.534  0.8048 -0.2107  0.0325
  144MOL0     C18901   7.479  10.409   8.610 -0.5881  0.6968  0.1885
  144MOL0     C18902   7.534  10.311   8.690  0.7416 -0.8832 -0.3454
  144MOL0     C18903   7.442  10.238   8.764  0.0912 -0.0127 -1.2604
  144MOL0     C18904   7.304  10.272   8.769 -0.2087  0.1832 -0.4912
  144MOL0     C18905   7.218  10.207   8.862 -0.2002 -0.5557  0.0218
  144MOL0     O18906   7.088  10.242   8.852  0.5841  0.0536 -0.2186
  144MOL0     C18907   7.001  10.178   8.929  1.1159 -0.1794  0.9259
  144MOL0     C18908   6.999  10.202   9.065  0.3465 -0.3675 -0.2739
  144MOL0     C18909   6.893  10.148   9.144 -1.2057  0.0818  0.0300
  144MOL0     C18910   6.787  10.079   9.084 -0.7382  0.6238  0.2195
  144MOL0     O18911   6.670  10.031   9.146  0.3085  0.3607  0.8271
  144MOL0     C18912   6.624  10.121   9.253  0.3433 -1.1770  0.3086
  144MOL0     C18913   6.475  10.138   9.228 -0.4603 -0.6923  0.2897
  144MOL0     C18914   6.404  10.221   9.333 -0.0840 -0.7070 -0.2675
  144MOL0     C18915   6.261  10.172   9.345 -0.4967 -0.3868  0.9812
  144MOL0     C18916   6.177  10.230   9.459 -0.6894  0.0234  0.0255
  144MOL0     C18917   6.148  10.383   9.439  0.0991 -1.8307 -1.1274
  144MOL0     C18918   6.041  10.431   9.542  0.3429  0.9807  0.3021
  144MOL0     C18919   5.915  10.484   9.475 -1.6217  0.6873 -0.3884
  144MOL0    Cl18920   5.969  10.626   9.389 -0.0692 -0.0887 -0.8355
  144MOL0     C18921   6.791  10.062   8.940  0.7456  0.2102 -1.4140
  144MOL0     C18922   6.898  10.109   8.867  0.0908 -0.5739  0.0537
  144MOL0     O18923   7.266  10.139   8.949 -0.3641 -0.0496 -0.5762
  144MOL0     C18924   7.254  10.378   8.686  0.7446 -0.0508  0.1895
  144MOL0     C18925   7.349  10.442   8.594 -0.0671 -0.5036  0.0496
  144MOL0     N18926   7.711  10.562   7.985 -0.7665  0.3009  0.2501
  144MOL0     N18927   7.809  10.512   7.920  0.0342  0.7091  0.5734
  144MOL0     C18928   8.600  11.056   7.249 -0.0165  0.2948 -0.6459
  144MOL0     C18929   8.682  11.074   7.131  0.6901  0.2683  0.1388
  144MOL0     C18930   8.991  10.902   6.840 -0.2200 -0.5795  0.9995
  144MOL0     C18931   9.007  10.778   6.776 -0.1265 -0.5374 -0.7631
  144MOL0     C18932   9.083  10.769   6.666  0.3079  0.7285  1.5896
  144MOL0     C18933   9.145  10.881   6.602 -0.5971 -0.7581  0.4092
  144MOL0     O18934   9.232  10.880   6.499  0.3063  0.2088 -0.0668
  144MOL0     C18935   9.254  10.752   6.433 -0.5374 -0.1391  0.1806
  144MOL0     C18936   9.324  10.776   6.296  0.2019  0.4647 -0.2135
  144MOL0     C18937   9.392  10.637   6.253  0.4857 -0.7363  0.2796
  144MOL0     C18938   9.298  10.512   6.225 -0.0894 -0.4959  0.3667
  144MOL0     C18939   9.267  10.447   6.354  0.8679  0.5119 -0.7502
  144MOL0     C18940   9.233  10.393   6.457 -1.1704  0.0072  0.5564
  144MOL0     C18941   9.113  11.018   6.657  0.7078 -0.7278 -0.6922
  144MOL0     C18942   9.039  11.021   6.781  0.5730 -0.1265  0.5780
  144MOL0     H18943   8.989  11.025   7.264 -0.4492 -0.5488  3.4334
  144MOL0     H18944   8.859  10.996   7.465  0.3383  2.0108  0.6094
  144MOL0     H18945   8.596  10.875   7.646  2.9641 -2.2523  0.9997
  144MOL0     H18946   8.679  10.813   7.499  0.8207 -0.7424  1.7644
  144MOL0     H18947   8.455  10.709   7.491 -3.2524  0.9280  1.1660
  144MOL0     H18948   8.443  10.856   7.382 -1.4243 -0.9580 -1.0495
  144MOL0     H18949   8.265  10.910   7.489  1.6597 -1.7141 -3.1418
  144MOL0     H18950   8.382  10.946   7.622 -1.7597 -0.2855  2.1760
  144MOL0     H18951   8.261  10.676   7.593  2.2167  0.1754 -0.9834
  144MOL0     H18952   8.357  10.726   7.735  0.5168  1.1868  0.2938
  144MOL0     H18953   8.090  10.850   7.632 -0.0887  0.0908 -0.2155
  144MOL0     H18954   8.162  10.902   7.780  0.7208 -2.7164  4.1644
  144MOL0     H18955   8.066  10.625   7.724  5.4787 -0.7943  0.7801
  144MOL0     H18956   7.967  10.752   7.806 -0.8118 -1.0400 -0.8337
  144MOL0     H18957   8.249  10.625   7.908 -0.4979 -1.1942 -0.1225
  144MOL0     H18958   8.148  10.719   8.007  1.6157 -2.4093  1.7235
  144MOL0     H18959   8.107  10.503   8.057 -2.8372 -1.1402  1.3263
  144MOL0     H18960   8.056  10.466   7.879 -1.3395  2.1943 -0.9689
  144MOL0     H18961   7.930  10.693   8.174  2.2240 -0.1168 -1.9018
  144MOL0     H18962   7.538  10.706   8.156 -1.4854 -0.8545  4.4238
  144MOL0     H18963   7.683  10.811   8.180 -0.1038  0.2043  1.0852
  144MOL0     H18964   7.768  10.665   8.346 -1.1419 -1.4243  2.6339
  144MOL0     H18965   7.634  10.542   8.301  0.1999  0.1884 -0.4227
  144MOL0     H18966   7.587  10.806   8.425 -0.4969  0.2493  2.1233
  144MOL0     H18967   7.470  10.666   8.386 -0.7168 -0.8629  1.6081
  144MOL0     H18968   7.481  10.652   8.609 -0.6554 -0.4771 -1.0460
  144MOL0     H18969   7.659  10.660   8.601  0.6112  3.1537 -1.8865
  144MOL0     H18970   7.637  10.283   8.671  0.6341 -0.2998 -2.0253
  144MOL0     H18971   7.480  10.148   8.811  0.6001  0.3336 -1.0004
  144MOL0     H18972   7.077  10.263   9.111  1.3485 -0.9240 -1.1790
  144MOL0     H18973   6.908  10.160   9.251  2.9512  1.1907 -0.5116
  144MOL0     H18974   6.672  10.220   9.252 -1.3229 -0.3392  0.0717
  144MOL0     H18975   6.646  10.065   9.344 -1.0980  1.3628  2.3656
  144MOL0     H18976   6.430  10.040   9.207 -1.4660 -0.3104  0.5607
  144MOL0     H18977   6.466  10.195   9.136  3.1962 -2.0192 -1.0660
  144MOL0     H18978   6.419  10.328   9.322 -1.6153 -0.5876 -1.5519
  144MOL0     H18979   6.450  10.202   9.431 -0.6039 -1.4728 -0.1577
  144MOL0     H18980   6.207  10.208   9.257 -2.3748 -0.2003  2.1778
  144MOL0     H18981   6.248  10.064   9.343  2.1400 -0.8192 -1.5311
  144MOL0     H18982   6.230  10.221   9.555 -2.5224  0.6408  1.1399
  144MOL0     H18983   6.078  10.185   9.461 -1.1897  1.0260  2.8981
  144MOL0     H18984   6.125  10.406   9.334  4.0694  1.0497 -1.6069
  144MOL0     H18985   6.233  10.441   9.478  1.2785 -3.5729 -0.9917
  144MOL0     H18986   6.005  10.347   9.603 -0.3288  0.4100 -0.8460
  144MOL0     H18987   6.089  10.505   9.607  1.2068  3.3028 -2.7787
  144MOL0     H18988   5.849  10.508   9.559 -3.8693 -3.8223 -0.5286
  144MOL0     H18989   5.871  10.420   9.398 -0.0394 -2.8671  1.3897
  144MOL0     H18990   6.711  10.003   8.897 -1.3016 -0.7043  3.0740
  144MOL0     H18991   6.911  10.095   8.760  1.6521 -1.0651  0.2887
  144MOL0     H18992   7.153  10.417   8.689  0.6428 -0.3099  0.1473
  144MOL0     H18993   7.312  10.531   8.544  1.3456  1.7250  2.7211
  144MOL0     H18994   8.492  11.065   7.250 -0.1143 -0.3862  2.2193
  144MOL0     H18995   8.635  11.103   7.037 -1.7208 -3.9070 -0.2011
  144MOL0     H18996   8.966  10.703   6.843 -0.7041  2.8048  3.0383
  144MOL0     H18997   9.088  10.670   6.621 -1.6249  1.4553 -0.4074
  144MOL0     H18998   9.172  10.680   6.421  2.9022 -4.1640 -2.5477
  144MOL0     H18999   9.322  10.698   6.500  0.0378 -0.7267 -0.8359
  144MOL0     H19000   9.256  10.820   6.222 -1.1636 -0.5628  0.3680
  144MOL0     H19001   9.405  10.846   6.314  2.7714 -2.0453 -1.2822
  144MOL0     H19002   9.476  10.604   6.315  2.1544  0.1465 -1.3994
  144MOL0     H19003   9.435  10.668   6.157 -0.3787 -0.1490  0.0702
  144MOL0     H19004   9.207  10.536   6.170  0.4079 -2.4528 -1.4057
  144MOL0     H19005   9.351  10.450   6.153 -0.0529  0.9338 -0.8914
  144MOL0     H19006   9.221  10.353   6.556 -1.3186 -0.6391  0.2833
  144MOL0     H19007   9.125  11.117   6.613 -1.1631 -0.1882 -0.0549
  144MOL0     H19008   9.010  11.121   6.813 -3.6511 -0.6269 -1.1363
  145MOL0     O19009   8.710   1.947   5.589  0.2543 -0.4510 -0.9678
  145MOL0     C19010   8.729   1.879   5.687 -0.0068  0.3508 -0.3119
  145MOL0     O19011   8.627   1.854   5.783  0.3521 -0.3543  0.0938
  145MOL0     C19012   8.512   1.923   5.756  1.2051  1.1535  0.4700
  145MOL0     C19013   8.398   1.860   5.706 -0.2309 -0.5983  0.1099
  145MOL0     C19014   8.286   1.939   5.686  0.3834  0.6818 -0.5247
  145MOL0     C19015   8.278   2.072   5.741 -0.5840 -0.3418 -0.0010
  145MOL0     O19016   8.154   2.124   5.719 -0.1209  0.4780 -0.1387
  145MOL0     C19017   8.137   2.262   5.748  0.5838 -0.2881  0.2763
  145MOL0     C19018   8.008   2.313   5.697  0.6748 -0.0485 -0.7861
  145MOL0     C19019   7.957   2.436   5.783  0.0744 -0.7087 -0.0735
  145MOL0     C19020   7.836   2.506   5.734 -0.0954 -0.1820 -0.2506
  145MOL0     C19021   7.805   2.636   5.811 -0.2809  0.2106  0.2487
  145MOL0     C19022   7.695   2.721   5.756 -0.0329  0.3727 -0.7320
  145MOL0     C19023   7.723   2.769   5.613  0.4599  0.0077  0.0357
  145MOL0     C19024   7.638   2.898   5.578 -0.4522 -0.0467  0.8427
  145MOL0     N19025   7.491   2.869   5.594 -0.7128 -0.3361 -0.2102
  145MOL0     C19026   7.424   2.769   5.529  0.4001  0.3700  0.5294
  145MOL0     C19027   7.299   2.798   5.575  0.1355 -0.2211 -0.1516
  145MOL0     C19028   7.174   2.712   5.536 -0.5876 -0.2045 -0.8299
  145MOL0     C19029   7.160   2.583   5.624  1.0768  0.0442  0.5625
  145MOL0     C19030   7.131   2.606   5.771 -0.0432 -0.0153  0.6383
  145MOL0     C19031   7.130   2.466   5.843  0.4282  0.3005  0.2722
  145MOL0     O19032   6.998   2.419   5.839  0.1782  0.1511 -0.1311
  145MOL0     C19033   6.974   2.296   5.887  0.4598 -0.6507 -0.0971
  145MOL0     C19034   6.842   2.251   5.874 -0.2896 -0.3049 -0.2320
  145MOL0     C19035   6.792   2.130   5.911  0.4843 -0.2936 -1.0139
  145MOL0     C19036   6.888   2.036   5.948  0.7836  0.0334  0.0680
  145MOL0     C19037   6.858   1.897   5.992 -0.2722  0.1341 -0.6623
  145MOL0     O19038   6.734   1.883   6.057 -0.4255  0.1785  0.8361
  145MOL0     C19039   6.683   1.766   6.113 -0.1027  0.4098 -1.1482
  145MOL0     C19040   6.762   1.669   6.175  0.7722 -0.4136  0.4634
  145MOL0     C19041   6.710   1.541   6.211  1.1042 -0.7476 -1.2127
  145MOL0     C19042   6.564   1.521   6.193 -0.5466  1.0721 -0.6456
  145MOL0     O19043   6.536   1.399   6.235  0.5986  0.2956  0.2293
  145MOL0     C19044   6.406   1.339   6.200 -0.2440  0.9560 -0.4209
  145MOL0     C19045   6.401   1.194   6.257  0.0109  0.1301 -0.0912
  145MOL0     C19046   6.272   1.118   6.221  0.2288 -0.3929 -1.0901
  145MOL0     C19047   6.284   0.973   6.281  0.1315  0.3667  0.4110
  145MOL0     C19048   6.166   0.884   6.300 -0.0570  0.4744 -0.3552
  145MOL0     C19049   6.215   0.739   6.317  1.5621  0.3426 -0.3540
  145MOL0     C19050   6.108   0.638   6.358 -0.1802 -1.3185 -0.8601
  145MOL0     C19051   6.039   0.590   6.231  0.8491  0.4970 -0.1086
  145MOL0    Cl19052   5.904   0.491   6.296  1.5150  0.1290 -0.3592
  145MOL0     C19053   6.483   1.631   6.154 -0.1243 -1.3318  0.5297
  145MOL0     C19054   6.545   1.747   6.119 -0.4067 -0.4145  0.8184
  145MOL0     O19055   6.939   1.805   5.974 -0.8512 -0.8486  0.2987
  145MOL0     C19056   7.018   2.079   5.980 -0.8844  0.0230 -0.3304
  145MOL0     C19057   7.061   2.203   5.942  0.3859 -0.2655  0.4932
  145MOL0     N19058   7.289   2.917   5.654  0.3243  0.6329  0.0240
  145MOL0     N19059   7.409   2.941   5.680  0.6193  0.3741 -0.5550
  145MOL0     C19060   8.391   2.138   5.801 -0.5958 -0.4920  1.3226
  145MOL0     C19061   8.495   2.051   5.814 -0.3361  0.0719  0.2682
  145MOL0     C19062   8.866   1.821   5.711  0.6821  0.1179 -0.4338
  145MOL0     C19063   8.970   1.851   5.626 -0.2038  0.1826 -0.6261
  145MOL0     C19064   9.105   1.816   5.655  0.9647  0.1968  0.3615
  145MOL0     C19065   9.135   1.738   5.767 -0.0279 -0.6887 -1.0080
  145MOL0     O19066   9.260   1.689   5.803  0.6510  0.6793  0.2335
  145MOL0     C19067   9.381   1.739   5.736 -0.1173 -0.5541  0.1615
  145MOL0     C19068   9.509   1.707   5.817  0.2635  0.5760  1.0765
  145MOL0     C19069   9.552   1.565   5.820 -0.4594 -1.2636 -0.0600
  145MOL0     C19070   9.461   1.494   5.906 -0.0832 -0.6319 -0.7621
  145MOL0     C19071   9.494   1.353   5.939 -0.1665  0.4872  0.4641
  145MOL0     C19072   9.510   1.241   5.971 -0.5102 -0.6801 -0.4819
  145MOL0     C19073   9.025   1.709   5.859  0.8679 -0.6933  0.3165
  145MOL0     C19074   8.892   1.751   5.835 -0.3305  0.0558  0.3537
  145MOL0     H19075   8.402   1.763   5.659  1.0347 -0.2757 -0.4753
  145MOL0     H19076   8.202   1.897   5.631 -1.8924  1.0782  2.3607
  145MOL0     H19077   8.219   2.317   5.700  1.4663 -4.1714 -3.2514
  145MOL0     H19078   8.135   2.276   5.856  1.5265  1.6066  0.1086
  145MOL0     H19079   7.924   2.243   5.698  0.3015  0.2503  2.9395
  145MOL0     H19080   8.018   2.342   5.592  2.0814  2.2291 -0.1008
  145MOL0     H19081   8.047   2.497   5.789  1.5035 -2.5492 -1.6280
  145MOL0     H19082   7.947   2.409   5.888  0.9221  2.5259  0.9342
  145MOL0     H19083   7.850   2.524   5.627  0.0902  1.2878 -0.0073
  145MOL0     H19084   7.747   2.443   5.743  1.6827 -2.4910  2.9165
  145MOL0     H19085   7.892   2.701   5.819  1.5960 -2.1088 -0.4691
  145MOL0     H19086   7.788   2.615   5.917 -2.3197  2.2025  0.3981
  145MOL0     H19087   7.687   2.812   5.816  1.1395  0.5576 -0.8356
  145MOL0     H19088   7.599   2.674   5.778 -0.0501  1.2921  1.3803
  145MOL0     H19089   7.826   2.802   5.603  0.6369 -0.0048  1.5920
  145MOL0     H19090   7.683   2.692   5.546 -5.6542  1.0736  1.8013
  145MOL0     H19091   7.678   2.938   5.485  3.3453  1.6650  2.9527
  145MOL0     H19092   7.666   2.968   5.658 -4.3942  0.6989  1.8054
  145MOL0     H19093   7.459   2.692   5.462 -1.4900  2.1504 -2.7652
  145MOL0     H19094   7.183   2.679   5.433 -2.7338  0.4245 -1.2670
  145MOL0     H19095   7.083   2.773   5.541  0.8916  2.0622  0.9797
  145MOL0     H19096   7.254   2.529   5.637  1.7275  1.4156  1.9419
  145MOL0     H19097   7.080   2.517   5.590 -3.0839  4.2358  1.1728
  145MOL0     H19098   7.212   2.666   5.814 -1.1106  2.9048 -1.1327
  145MOL0     H19099   7.035   2.657   5.785 -0.3599 -0.2054 -0.7366
  145MOL0     H19100   7.154   2.480   5.948 -2.9188  0.0291  1.1777
  145MOL0     H19101   7.186   2.388   5.790 -2.7039 -0.0678 -2.9124
  145MOL0     H19102   6.776   2.324   5.827  1.7313  2.6198  1.1442
  145MOL0     H19103   6.689   2.094   5.912  0.5070 -0.3585 -0.2864
  145MOL0     H19104   6.865   1.703   6.181  0.2807  1.2196  0.0681
  145MOL0     H19105   6.779   1.474   6.262 -0.3269 -0.7758  0.8007
  145MOL0     H19106   6.395   1.331   6.091 -3.0922 -0.0773 -0.1287
  145MOL0     H19107   6.314   1.390   6.230 -1.3993 -1.9158  1.3011
  145MOL0     H19108   6.419   1.198   6.365 -2.2892  0.7443  0.3223
  145MOL0     H19109   6.484   1.136   6.217  0.3026  0.7043 -0.3313
  145MOL0     H19110   6.274   1.123   6.112 -0.1055  2.7233 -1.0466
  145MOL0     H19111   6.183   1.165   6.264  2.1630  1.9332  0.6396
  145MOL0     H19112   6.351   0.923   6.210 -1.6780 -2.3111  0.4714
  145MOL0     H19113   6.336   0.978   6.378  1.8201  2.0092 -0.4966
  145MOL0     H19114   6.096   0.880   6.216  1.3940  1.3759 -1.6575
  145MOL0     H19115   6.110   0.906   6.391 -0.5075  0.9043 -0.7351
  145MOL0     H19116   6.286   0.730   6.401 -0.8717 -1.2388  1.6642
  145MOL0     H19117   6.251   0.705   6.220 -0.8305 -3.4497 -0.0954
  145MOL0     H19118   6.149   0.549   6.406  1.5521  0.1969  0.6662
  145MOL0     H19119   6.036   0.680   6.429  0.9106 -0.0939 -0.4350
  145MOL0     H19120   6.114   0.531   6.177 -0.3071 -1.7138  0.6100
  145MOL0     H19121   6.000   0.674   6.172  0.2227 -0.8632 -1.7130
  145MOL0     H19122   6.375   1.627   6.143 -0.2381 -0.5559  1.2764
  145MOL0     H19123   6.482   1.819   6.068 -2.5634 -2.9021 -0.3264
  145MOL0     H19124   7.090   2.014   6.029 -0.6589  2.1197  2.3381
  145MOL0     H19125   7.166   2.223   5.960 -0.4327  4.1561  1.5994
  145MOL0     H19126   8.386   2.230   5.859  0.8002 -2.6764  5.3119
  145MOL0     H19127   8.579   2.080   5.877 -2.6360  2.3247  2.5464
  145MOL0     H19128   8.946   1.903   5.533  3.3077 -0.6529 -2.1711
  145MOL0     H19129   9.183   1.841   5.584  0.7962  0.3543  0.2310
  145MOL0     H19130   9.377   1.846   5.713 -1.2553 -0.6637 -0.2207
  145MOL0     H19131   9.376   1.677   5.645  2.5198 -0.8929  0.1724
  145MOL0     H19132   9.590   1.755   5.762 -1.5576  0.5623 -1.7992
  145MOL0     H19133   9.511   1.749   5.918  1.1700  1.0315  0.8751
  145MOL0     H19134   9.655   1.581   5.853 -1.6177  2.1379  2.4647
  145MOL0     H19135   9.559   1.512   5.724  3.2539 -0.7698 -0.1999
  145MOL0     H19136   9.440   1.543   6.001 -6.6714  1.6156 -2.8695
  145MOL0     H19137   9.364   1.495   5.856  0.4802  1.3611 -1.9446
  145MOL0     H19138   9.528   1.139   6.001  2.3198 -0.5069 -1.3191
  145MOL0     H19139   9.056   1.651   5.946 -2.9880 -2.1893  0.8764
  145MOL0     H19140   8.812   1.736   5.907 -1.4151  1.5079 -0.4952
  146MOL0     O19141   0.963   2.304   5.306  0.1923 -0.6889  0.0194
  146MOL0     C19142   1.033   2.214   5.337 -0.0835 -0.1048  0.2759
  146MOL0     O19143   1.024   2.082   5.294  0.4364 -0.4933  0.3863
  146MOL0     C19144   0.924   2.042   5.203 -0.5547  0.4341 -0.6625
  146MOL0     C19145   0.790   2.077   5.219  0.4082 -0.3943  0.0246
  146MOL0     C19146   0.680   2.034   5.142  0.1135  0.5179  0.3812
  146MOL0     C19147   0.710   1.937   5.037 -0.4223 -0.4081 -0.4649
  146MOL0     O19148   0.614   1.878   4.962 -0.0625  0.2941 -0.1017
  146MOL0     C19149   0.536   1.979   4.887  0.7567  0.0904 -0.3649
  146MOL0     C19150   0.396   1.996   4.930  0.6379  0.3574 -0.0613
  146MOL0     C19151   0.312   1.864   4.950 -1.1138  1.3816 -0.2228
  146MOL0     C19152   0.166   1.900   4.954  0.1494 -0.1450 -1.4771
  146MOL0     C19153   0.136   1.938   5.102  1.3148  0.1946  0.3728
  146MOL0     C19154  -0.005   1.926   5.138  1.7039 -0.9673  0.2051
  146MOL0     C19155  -0.120   2.014   5.068  0.2254  0.7154  0.1344
  146MOL0     C19156  -0.097   2.166   5.072  0.4958 -0.1136  0.2445
  146MOL0     N19157  -0.156   2.214   5.193 -0.2779 -0.8285 -0.3664
  146MOL0     C19158  -0.278   2.180   5.248  0.6000  0.4149 -0.6101
  146MOL0     C19159  -0.287   2.259   5.358  0.3544  0.6648 -0.8269
  146MOL0     C19160  -0.409   2.253   5.454 -0.4380  0.5321 -0.4346
  146MOL0     C19161  -0.387   2.244   5.604  0.0374  0.0909  0.8597
  146MOL0     C19162  -0.515   2.250   5.694 -1.0425  0.1966  0.0549
  146MOL0     C19163  -0.462   2.252   5.831  0.8813  0.0126  0.1950
  146MOL0     O19164  -0.417   2.383   5.854  0.1999 -0.2117  0.0391
  146MOL0     C19165  -0.387   2.412   5.987 -0.1610  0.1094  0.1783
  146MOL0     C19166  -0.255   2.416   6.035  0.1259 -1.2038 -0.1116
  146MOL0     C19167  -0.236   2.475   6.163  0.7108  0.6462  0.2359
  146MOL0     C19168  -0.339   2.517   6.246 -0.7902  0.3273  0.9259
  146MOL0     C19169  -0.309   2.585   6.375  0.2241  1.1313  0.2848
  146MOL0     O19170  -0.191   2.561   6.433 -0.2315  0.6029 -0.2028
  146MOL0     C19171  -0.190   2.601   6.563 -0.7201 -0.4893 -0.7554
  146MOL0     C19172  -0.216   2.518   6.673 -0.5366 -0.3926  0.2562
  146MOL0     C19173  -0.203   2.573   6.802  0.1347  0.3647 -0.4918
  146MOL0     C19174  -0.157   2.709   6.827  0.1272  0.2157 -0.2783
  146MOL0     O19175  -0.173   2.748   6.955 -0.2387 -0.8463 -0.5042
  146MOL0     C19176  -0.127   2.879   6.987 -1.2036 -0.4759 -0.2740
  146MOL0     C19177   0.026   2.880   6.966 -0.0110  0.3325  0.4946
  146MOL0     C19178   0.096   2.759   7.024  0.5832 -0.8508 -0.1981
  146MOL0     C19179   0.073   2.745   7.180 -0.6486  0.1181 -0.8816
  146MOL0     C19180   0.100   2.598   7.216 -0.3145 -0.3401 -1.1235
  146MOL0     C19181   0.051   2.552   7.349 -0.6358 -0.1001 -1.0334
  146MOL0     C19182   0.125   2.419   7.380  0.2990  0.0931 -0.4865
  146MOL0     C19183   0.117   2.376   7.533  0.0500 -0.8691 -0.1211
  146MOL0    Cl19184   0.193   2.219   7.532  0.4739 -0.0149  0.3458
  146MOL0     C19185  -0.127   2.782   6.709 -0.1450  0.4326 -0.4914
  146MOL0     C19186  -0.147   2.729   6.587  0.8119  0.4553 -0.8114
  146MOL0     O19187  -0.396   2.664   6.409  1.0230 -0.8509  0.2145
  146MOL0     C19188  -0.472   2.509   6.197  0.4258 -0.2362 -1.3365
  146MOL0     C19189  -0.496   2.456   6.068  0.3273 -0.1254 -0.0014
  146MOL0     N19190  -0.174   2.329   5.375  1.1499  0.1304  0.3144
  146MOL0     N19191  -0.095   2.296   5.281 -0.1276 -0.2257  0.5450
  146MOL0     C19192   0.848   1.902   5.018  0.3108  0.0535 -0.6378
  146MOL0     C19193   0.951   1.942   5.103 -0.6725 -0.6980 -0.0381
  146MOL0     C19194   1.153   2.259   5.413 -0.0961  0.2372 -0.6878
  146MOL0     C19195   1.254   2.164   5.443  0.1684  0.8030  0.7529
  146MOL0     C19196   1.358   2.192   5.525 -0.0268  0.3534 -0.2738
  146MOL0     C19197   1.357   2.320   5.584  0.3208  0.5783  0.3868
  146MOL0     O19198   1.445   2.344   5.678 -1.2334 -0.2494  0.5561
  146MOL0     C19199   1.587   2.372   5.639 -0.3369  0.3473 -1.3267
  146MOL0     C19200   1.608   2.527   5.602  0.3509  0.2994 -0.1617
  146MOL0     C19201   1.549   2.621   5.708  0.3582  0.0196 -0.2010
  146MOL0     C19202   1.597   2.626   5.853 -0.0644  0.6584 -1.0014
  146MOL0     C19203   1.725   2.689   5.863 -0.1667  0.6735  0.2214
  146MOL0     C19204   1.832   2.740   5.871  0.2768  0.5049 -0.2907
  146MOL0     C19205   1.265   2.419   5.542  0.3824  0.0383 -0.3460
  146MOL0     C19206   1.160   2.393   5.460  1.2493 -0.1207 -0.7521
  146MOL0     H19207   0.768   2.148   5.299 -0.4161 -2.3923  1.6620
  146MOL0     H19208   0.575   2.056   5.161  0.1397  0.5880  0.4446
  146MOL0     H19209   0.533   1.940   4.785 -0.3501  1.8924 -1.0661
  146MOL0     H19210   0.586   2.076   4.873  0.9796 -0.4026 -3.8165
  146MOL0     H19211   0.344   2.066   4.863  0.3061 -0.2239 -0.4247
  146MOL0     H19212   0.397   2.054   5.023 -0.1817 -1.8287  1.3804
  146MOL0     H19213   0.350   1.802   5.032  2.2069  0.6860 -2.1178
  146MOL0     H19214   0.326   1.799   4.864  2.0201 -2.2031  2.6591
  146MOL0     H19215   0.143   1.977   4.880 -0.2233  0.4140 -0.7803
  146MOL0     H19216   0.106   1.812   4.929  1.1529 -1.0248 -0.8830
  146MOL0     H19217   0.170   2.040   5.121 -1.4687  0.7814  3.1009
  146MOL0     H19218   0.192   1.874   5.171  1.2751  2.2694  2.4797
  146MOL0     H19219  -0.002   1.954   5.244  0.5418 -1.2157  0.3211
  146MOL0     H19220  -0.039   1.825   5.114 -2.5921 -0.0766  1.5388
  146MOL0     H19221  -0.118   1.984   4.963  1.3693  1.4446 -0.0763
  146MOL0     H19222  -0.216   1.981   5.107  1.3660 -0.8286  1.7586
  146MOL0     H19223  -0.159   2.211   4.994 -2.2040  2.8126  3.7248
  146MOL0     H19224   0.006   2.201   5.072  0.4013  0.2004 -0.7141
  146MOL0     H19225  -0.354   2.118   5.201  0.7376  0.3430 -0.7411
  146MOL0     H19226  -0.477   2.167   5.442  0.8212 -0.6174  0.4144
  146MOL0     H19227  -0.462   2.347   5.433 -0.7483 -0.0577 -2.4603
  146MOL0     H19228  -0.316   2.323   5.630 -0.5493 -0.2521  3.7813
  146MOL0     H19229  -0.339   2.147   5.619 -0.3932 -0.3579 -0.4790
  146MOL0     H19230  -0.566   2.345   5.679  1.8651  1.9610  0.7304
  146MOL0     H19231  -0.576   2.159   5.689  0.3846 -0.7584 -0.5780
  146MOL0     H19232  -0.390   2.170   5.836 -0.1094 -0.9875 -1.1234
  146MOL0     H19233  -0.540   2.238   5.907 -0.1568  1.7801 -0.4820
  146MOL0     H19234  -0.168   2.373   5.988  0.8753 -0.1932  0.3128
  146MOL0     H19235  -0.137   2.476   6.207  1.3997  1.2127 -1.2691
  146MOL0     H19236  -0.238   2.413   6.660 -2.1033 -0.0229 -0.2886
  146MOL0     H19237  -0.237   2.500   6.875  2.8612  0.1839  0.7086
  146MOL0     H19238  -0.153   2.909   7.089  0.6173 -2.9771  1.0348
  146MOL0     H19239  -0.177   2.944   6.915  0.3249 -0.5147 -1.4336
  146MOL0     H19240   0.072   2.974   7.001  2.3200  0.4048 -2.3549
  146MOL0     H19241   0.053   2.891   6.861  0.0907  0.2136  0.5075
  146MOL0     H19242   0.204   2.763   7.006  0.2789 -1.7894 -2.5753
  146MOL0     H19243   0.069   2.669   6.970 -0.6575 -0.1680 -0.7460
  146MOL0     H19244   0.146   2.809   7.229  1.6408  0.8435 -4.8351
  146MOL0     H19245  -0.028   2.774   7.210  0.2131  0.0083  2.4916
  146MOL0     H19246   0.208   2.584   7.226  0.0744  1.8146 -1.7440
  146MOL0     H19247   0.055   2.530   7.143 -0.2499  0.5544 -2.0248
  146MOL0     H19248  -0.058   2.549   7.342 -0.7364 -3.5180  0.3981
  146MOL0     H19249   0.090   2.629   7.417 -2.1484 -0.7156  0.6044
  146MOL0     H19250   0.078   2.337   7.325  0.7454  0.1921 -1.0162
  146MOL0     H19251   0.232   2.426   7.361  0.7250  1.8648  2.0740
  146MOL0     H19252   0.011   2.370   7.558 -0.1494 -0.8799 -0.9397
  146MOL0     H19253   0.158   2.447   7.605  2.5212 -1.8208 -0.4965
  146MOL0     H19254  -0.082   2.880   6.720  1.8423 -0.6776  2.6264
  146MOL0     H19255  -0.123   2.789   6.500  1.3691  3.2431  1.1303
  146MOL0     H19256  -0.559   2.525   6.261  0.8140  0.4919 -0.9721
  146MOL0     H19257  -0.587   2.458   6.008  3.0889 -0.8191 -4.7499
  146MOL0     H19258   0.869   1.823   4.947 -1.7297 -1.2513  0.1072
  146MOL0     H19259   1.049   1.895   5.097 -1.5858 -2.6633 -0.5198
  146MOL0     H19260   1.251   2.063   5.403  1.5149  0.2939  1.8571
  146MOL0     H19261   1.431   2.115   5.549  1.8394  2.3284  0.6960
  146MOL0     H19262   1.619   2.313   5.552  2.1860  1.5621 -1.2975
  146MOL0     H19263   1.654   2.343   5.720  2.9398  1.9088 -3.2694
  146MOL0     H19264   1.712   2.548   5.575  0.6824 -0.3636  0.5710
  146MOL0     H19265   1.551   2.547   5.511  1.1875  0.3846 -0.6785
  146MOL0     H19266   1.440   2.613   5.710  0.2611  0.5536 -1.9258
  146MOL0     H19267   1.580   2.718   5.667 -0.4652  0.4317  0.1476
  146MOL0     H19268   1.523   2.678   5.914  0.8845  0.6515  0.2034
  146MOL0     H19269   1.594   2.523   5.890  0.5886  0.2469 -2.0327
  146MOL0     H19270   1.932   2.774   5.886  0.3436 -0.8434  3.6956
  146MOL0     H19271   1.276   2.518   5.585 -2.8809  0.0070  0.8771
  146MOL0     H19272   1.092   2.467   5.420  1.3965 -0.3830 -1.5208
  147MOL0     O19273   5.487   9.509   4.680  0.0105 -1.0596 -0.0288
  147MOL0     C19274   5.419   9.413   4.649 -1.1957  0.8233  1.7695
  147MOL0     O19275   5.452   9.331   4.553  0.1186 -0.0921  0.2393
  147MOL0     C19276   5.575   9.324   4.490  0.3862  0.8738  1.1574
  147MOL0     C19277   5.691   9.355   4.560  0.3004  0.3920 -0.7408
  147MOL0     C19278   5.812   9.356   4.489 -0.3840 -1.3268 -0.5407
  147MOL0     C19279   5.810   9.321   4.350 -0.1982 -0.4104  0.2667
  147MOL0     O19280   5.927   9.312   4.274  0.8640  0.3211  0.1374
  147MOL0     C19281   6.052   9.376   4.323 -0.6739  0.0611  0.1478
  147MOL0     C19282   6.154   9.359   4.213  0.6669  0.0239 -0.8761
  147MOL0     C19283   6.157   9.219   4.163 -0.9871  0.3571 -0.0029
  147MOL0     C19284   6.253   9.202   4.049  0.0971 -0.0177 -0.3187
  147MOL0     C19285   6.279   9.060   3.991 -0.2594  0.3608 -0.3293
  147MOL0     C19286   6.286   8.938   4.082  0.8154  0.0069  0.7834
  147MOL0     C19287   6.399   8.961   4.182  0.1754 -0.0871 -0.8943
  147MOL0     C19288   6.542   8.984   4.122  0.8799 -0.1960 -0.4144
  147MOL0     N19289   6.650   8.958   4.218 -0.2827  0.1844 -0.4816
  147MOL0     C19290   6.742   8.859   4.211 -0.3126  0.6092  0.0234
  147MOL0     C19291   6.826   8.882   4.313 -0.4038 -0.3168 -0.5179
  147MOL0     C19292   6.939   8.797   4.362  0.1218  0.3181  0.1325
  147MOL0     C19293   7.075   8.870   4.396  0.3805  1.4644 -0.5287
  147MOL0     C19294   7.177   8.780   4.462  0.0964  0.4108 -0.5791
  147MOL0     C19295   7.316   8.841   4.493  0.0767 -0.5946  0.1894
  147MOL0     O19296   7.415   8.738   4.509  0.6474 -0.6838 -0.3997
  147MOL0     C19297   7.537   8.781   4.500  0.4310  1.0656 -0.3950
  147MOL0     C19298   7.625   8.679   4.462  0.0712  0.3887  0.7141
  147MOL0     C19299   7.759   8.708   4.453 -0.7349  0.0357 -0.0537
  147MOL0     C19300   7.811   8.835   4.489  0.0012  0.5581  0.6834
  147MOL0     C19301   7.957   8.865   4.484  0.3748  0.0421 -0.0717
  147MOL0     O19302   7.992   8.993   4.530  0.6968  0.1346  0.4639
  147MOL0     C19303   8.125   9.028   4.511 -0.0218  0.3564  0.8678
  147MOL0     C19304   8.153   9.154   4.442  0.4300  0.5575 -0.2692
  147MOL0     C19305   8.280   9.203   4.454 -0.4746 -0.1973 -0.2617
  147MOL0     C19306   8.384   9.139   4.523  1.2628 -0.9939 -0.4395
  147MOL0     O19307   8.503   9.198   4.505  0.0747 -0.8044  0.1599
  147MOL0     C19308   8.625   9.126   4.537  0.2923 -0.3229 -0.0005
  147MOL0     C19309   8.760   9.203   4.516  0.1403  0.4340 -0.3009
  147MOL0     C19310   8.773   9.262   4.373 -0.0993  1.2747 -0.0952
  147MOL0     C19311   8.813   9.164   4.255  0.6832 -0.7414 -0.2288
  147MOL0     C19312   8.729   9.208   4.135 -0.3169  1.0540 -0.4217
  147MOL0     C19313   8.771   9.345   4.080 -0.2432  0.2834  1.3276
  147MOL0     C19314   8.885   9.332   3.973 -0.5353 -0.9222 -0.6891
  147MOL0     C19315   8.939   9.474   3.946  0.1308  0.6415 -1.2795
  147MOL0    Cl19316   9.073   9.515   4.059 -0.4299  0.2087  0.1807
  147MOL0     C19317   8.351   9.021   4.590 -0.0314 -0.8245 -0.2448
  147MOL0     C19318   8.225   8.965   4.586 -0.6277 -0.2838  0.8384
  147MOL0     O19319   8.037   8.780   4.436  0.1302 -0.4579  0.4766
  147MOL0     C19320   7.725   8.929   4.543  0.6530  0.1769  0.1660
  147MOL0     C19321   7.588   8.906   4.550 -0.0834 -0.4516  0.0295
  147MOL0     N19322   6.782   8.990   4.381 -0.3432  0.6387  0.5855
  147MOL0     N19323   6.681   9.041   4.320 -0.3502  0.0776  0.1461
  147MOL0     C19324   5.693   9.294   4.276 -0.2754  0.8019 -0.0795
  147MOL0     C19325   5.571   9.306   4.352 -0.9255  0.6414 -0.2565
  147MOL0     C19326   5.299   9.388   4.712 -0.7049 -0.4554 -0.2954
  147MOL0     C19327   5.268   9.460   4.827 -0.1069 -1.1119 -0.8258
  147MOL0     C19328   5.149   9.458   4.899  0.1344 -0.6895 -0.2868
  147MOL0     C19329   5.047   9.383   4.851 -0.3315 -0.3043  0.6047
  147MOL0     O19330   4.926   9.377   4.920 -0.0436  0.9585  0.9242
  147MOL0     C19331   4.878   9.506   4.938 -0.1386  0.5920  1.0075
  147MOL0     C19332   4.723   9.509   4.943 -0.5130  0.2363 -0.4595
  147MOL0     C19333   4.680   9.644   4.982 -0.0284 -0.7137  0.0098
  147MOL0     C19334   4.547   9.650   5.037  0.7489  0.2927  0.4831
  147MOL0     C19335   4.511   9.783   5.077 -0.3914 -1.1951  0.3644
  147MOL0     C19336   4.506   9.899   5.119  0.0741  0.2331 -0.4183
  147MOL0     C19337   5.074   9.311   4.732  0.6108  0.4473  0.6828
  147MOL0     C19338   5.196   9.316   4.661  0.2004  0.4313 -0.3752
  147MOL0     H19339   5.688   9.375   4.666  1.1675 -0.4572 -0.5422
  147MOL0     H19340   5.907   9.372   4.540 -1.4277 -0.0990  1.1052
  147MOL0     H19341   6.083   9.318   4.410  0.0092  0.5071  0.2082
  147MOL0     H19342   6.034   9.483   4.336 -2.8397 -0.1911 -0.3616
  147MOL0     H19343   6.245   9.403   4.254  0.3319  1.1185 -1.2741
  147MOL0     H19344   6.125   9.428   4.133  0.0871 -0.2990 -0.9488
  147MOL0     H19345   6.056   9.205   4.124  0.4804 -1.4804 -3.5567
  147MOL0     H19346   6.187   9.150   4.243 -0.7534 -1.7668 -1.8425
  147MOL0     H19347   6.220   9.258   3.960  0.7470 -0.1551 -0.6487
  147MOL0     H19348   6.352   9.236   4.078  0.5886 -2.1518  0.6652
  147MOL0     H19349   6.367   9.081   3.929 -1.8188  0.3109 -2.6803
  147MOL0     H19350   6.193   9.046   3.925  0.9924 -0.1504 -1.9247
  147MOL0     H19351   6.294   8.843   4.028 -1.5220 -0.5418  1.2959
  147MOL0     H19352   6.191   8.936   4.136 -1.6348  4.3833 -2.6877
  147MOL0     H19353   6.383   9.039   4.257  2.1226  0.0399 -0.5587
  147MOL0     H19354   6.402   8.869   4.241 -0.2451  0.7353  0.4714
  147MOL0     H19355   6.555   9.089   4.093 -0.5905  0.8220  2.2838
  147MOL0     H19356   6.542   8.915   4.037 -3.9992  0.8452 -1.5394
  147MOL0     H19357   6.742   8.781   4.136  0.2047 -1.5891  2.1871
  147MOL0     H19358   6.959   8.729   4.278 -0.6620 -0.4077  0.5172
  147MOL0     H19359   6.897   8.735   4.443 -2.3181  1.2670 -0.3276
  147MOL0     H19360   7.040   8.953   4.458 -1.2428  1.8015 -1.8308
  147MOL0     H19361   7.130   8.900   4.307 -1.4298 -1.2442 -2.7215
  147MOL0     H19362   7.127   8.752   4.555 -2.4569 -3.7644 -2.8701
  147MOL0     H19363   7.203   8.696   4.397  1.8504  1.8530 -1.8284
  147MOL0     H19364   7.317   8.913   4.575 -0.1278  0.5708 -0.8021
  147MOL0     H19365   7.348   8.898   4.405  1.0190 -0.9886  0.2627
  147MOL0     H19366   7.580   8.581   4.458 -0.9336  0.8853 -1.6129
  147MOL0     H19367   7.834   8.639   4.418 -0.3815  0.7948 -0.8179
  147MOL0     H19368   8.066   9.200   4.397  1.0877  1.3938 -0.6984
  147MOL0     H19369   8.303   9.284   4.385  0.0557 -0.9500 -0.9827
  147MOL0     H19370   8.628   9.042   4.467  0.7143 -0.5353  0.2684
  147MOL0     H19371   8.619   9.077   4.635 -1.5690  1.8147  1.0624
  147MOL0     H19372   8.840   9.129   4.528 -1.8069 -1.7090  0.3566
  147MOL0     H19373   8.767   9.277   4.597  2.3347  1.9585 -1.7641
  147MOL0     H19374   8.850   9.338   4.381  0.4104  0.8313 -0.6804
  147MOL0     H19375   8.685   9.315   4.336  0.2537  0.1950 -2.6493
  147MOL0     H19376   8.917   9.179   4.225 -0.2838  1.3884 -3.0559
  147MOL0     H19377   8.784   9.062   4.280  0.3233 -0.1277  2.0848
  147MOL0     H19378   8.623   9.204   4.162 -0.5009 -1.8862 -1.2501
  147MOL0     H19379   8.742   9.145   4.046  1.9935  0.6864  0.1092
  147MOL0     H19380   8.790   9.416   4.161 -0.5989  0.3669  1.3399
  147MOL0     H19381   8.689   9.383   4.018  0.7248 -2.0605 -1.6077
  147MOL0     H19382   8.963   9.259   3.998  3.3229  2.5992 -1.2863
  147MOL0     H19383   8.842   9.287   3.883  1.5259 -1.9174 -1.2350
  147MOL0     H19384   8.852   9.539   3.952 -1.1862 -1.1253 -0.0145
  147MOL0     H19385   8.969   9.469   3.841 -1.6818 -2.1682 -1.7898
  147MOL0     H19386   8.418   8.963   4.653 -3.1230 -4.4380  0.0586
  147MOL0     H19387   8.220   8.871   4.640  1.2797  0.5983  2.6779
  147MOL0     H19388   7.748   9.028   4.582 -4.5007  1.4115  0.8388
  147MOL0     H19389   7.517   8.979   4.589 -0.9219 -1.0911 -0.2701
  147MOL0     H19390   5.709   9.258   4.175  0.6144  0.1059  0.2934
  147MOL0     H19391   5.478   9.283   4.302 -0.3464  0.9419 -1.4959
  147MOL0     H19392   5.351   9.518   4.865 -0.8678 -0.9167  0.6240
  147MOL0     H19393   5.132   9.530   4.979 -2.9364  1.1629 -2.3626
  147MOL0     H19394   4.916   9.576   4.863  0.8686  0.4721  1.3988
  147MOL0     H19395   4.915   9.536   5.037  2.4099 -0.4423  0.4393
  147MOL0     H19396   4.684   9.469   4.849  2.8051 -0.4326 -1.6696
  147MOL0     H19397   4.683   9.442   5.020  0.0461 -0.2079 -0.5508
  147MOL0     H19398   4.704   9.723   4.911  0.0762  0.3124  1.1403
  147MOL0     H19399   4.750   9.687   5.056  1.7953  1.6522 -2.8514
  147MOL0     H19400   4.475   9.611   4.964 -1.2700 -0.8705  2.9250
  147MOL0     H19401   4.553   9.581   5.121  2.5104 -0.8150 -0.4994
  147MOL0     H19402   4.507   9.998   5.159 -1.4036 -0.7830  2.4381
  147MOL0     H19403   4.996   9.250   4.687 -1.5018  0.0864  4.4145
  147MOL0     H19404   5.214   9.248   4.578  1.0169 -3.3347  2.6322
  148MOL0     O19405  10.475   8.951   2.505  0.9834  0.0667 -0.4007
  148MOL0     C19406  10.398   8.909   2.414  1.6809  0.6394 -0.2460
  148MOL0     O19407  10.283   8.967   2.373  0.5077 -0.2108 -0.1345
  148MOL0     C19408  10.237   9.078   2.437  0.6093  1.1302 -0.1119
  148MOL0     C19409  10.221   9.085   2.573 -0.3117 -0.5712 -0.4982
  148MOL0     C19410  10.157   9.206   2.624 -0.0372 -0.8203  0.3259
  148MOL0     C19411  10.110   9.309   2.543 -0.3576 -0.4370  0.1409
  148MOL0     O19412  10.032   9.412   2.592  0.0613 -0.2828 -0.0242
  148MOL0     C19413  10.058   9.546   2.549 -0.1737  0.9299  0.1436
  148MOL0     C19414  10.193   9.594   2.601 -0.8202  0.2334  0.0205
  148MOL0     C19415  10.201   9.746   2.614  0.3179 -0.5330 -1.7022
  148MOL0     C19416  10.247   9.818   2.491 -0.2397  0.5837  1.3568
  148MOL0     C19417  10.298   9.959   2.524 -0.2506 -0.2663 -0.3421
  148MOL0     C19418  10.315  10.052   2.401 -0.0986  0.1782  0.5756
  148MOL0     C19419  10.204  10.166   2.405 -0.7777 -0.2983  0.3880
  148MOL0     C19420  10.190  10.246   2.281  0.3365 -1.2383  0.1505
  148MOL0     N19421  10.106  10.366   2.306  1.3789  0.0959 -0.1399
  148MOL0     C19422  10.148  10.481   2.364  0.1641  0.0471  0.0999
  148MOL0     C19423  10.058  10.572   2.347 -0.3744  0.4164 -0.6089
  148MOL0     C19424  10.069  10.711   2.398 -0.3087  0.4639  0.7433
  148MOL0     C19425  10.148  10.810   2.315 -0.6665 -0.1596 -0.5315
  148MOL0     C19426  10.073  10.858   2.190  0.4039  0.1814 -0.8072
  148MOL0     C19427  10.050  10.754   2.073  0.0602 -0.1843 -0.7379
  148MOL0     O19428  10.149  10.655   2.061  0.2709  0.3270 -0.5028
  148MOL0     C19429  10.276  10.679   2.025 -0.6438 -0.9122  0.4770
  148MOL0     C19430  10.347  10.564   2.009 -0.5315 -0.4045  0.6593
  148MOL0     C19431  10.469  10.567   1.947  0.2809  0.1132  0.1665
  148MOL0     C19432  10.527  10.685   1.910 -0.0315  0.0969  0.2085
  148MOL0     C19433  10.670  10.691   1.868  0.6163  0.5145  0.4012
  148MOL0     O19434  10.731  10.810   1.861 -0.0381  0.3828 -0.3699
  148MOL0     C19435  10.817  10.820   1.968 -0.0859 -0.1924  0.0866
  148MOL0     C19436  10.788  10.890   2.088 -0.5325 -0.5677 -0.2784
  148MOL0     C19437  10.899  10.895   2.178  0.2977 -0.1559 -0.2681
  148MOL0     C19438  11.020  10.825   2.160 -0.0712  0.0969  0.3815
  148MOL0     O19439  11.110  10.809   2.261  0.3502  0.1210 -0.0846
  148MOL0     C19440  11.041  10.775   2.382 -0.4853 -0.5171  0.0134
  148MOL0     C19441  11.122  10.685   2.468  0.5593  0.1585 -0.2814
  148MOL0     C19442  11.151  10.545   2.423 -0.3327  0.5696 -0.4671
  148MOL0     C19443  11.301  10.532   2.398  0.4216  0.1023 -0.2641
  148MOL0     C19444  11.335  10.391   2.329 -0.8498 -0.1972 -0.0085
  148MOL0     C19445  11.381  10.278   2.431 -0.2917 -0.4878  0.7791
  148MOL0     C19446  11.470  10.176   2.363  0.7088 -0.4062 -0.3281
  148MOL0     C19447  11.603  10.223   2.318 -0.3647  0.0620  0.4833
  148MOL0    Cl19448  11.726  10.094   2.327 -0.1012  0.2517 -0.3855
  148MOL0     C19449  11.041  10.759   2.038  0.2323 -0.4387 -1.0639
  148MOL0     C19450  10.940  10.753   1.948  0.5154 -0.2343 -0.2768
  148MOL0     O19451  10.722  10.580   1.838  0.0215 -0.2162  0.0821
  148MOL0     C19452  10.457  10.808   1.931  0.4246  1.0885  0.3671
  148MOL0     C19453  10.333  10.804   1.995 -0.5858 -0.5867  0.2194
  148MOL0     N19454   9.949  10.514   2.283 -0.1932  0.5281 -0.7179
  148MOL0     N19455   9.976  10.389   2.271 -0.0193 -0.1927 -0.5386
  148MOL0     C19456  10.119   9.297   2.404  0.9326 -0.4452  0.7881
  148MOL0     C19457  10.186   9.181   2.354  0.0372  0.3145  0.2098
  148MOL0     C19458  10.415   8.763   2.378  0.7027 -1.5289 -0.0812
  148MOL0     C19459  10.540   8.714   2.377 -0.5731 -0.2115 -0.1507
  148MOL0     C19460  10.575   8.586   2.324 -0.0062 -0.5841  0.1205
  148MOL0     C19461  10.466   8.500   2.299 -0.3117  1.0131 -0.0231
  148MOL0     O19462  10.472   8.367   2.267 -0.2012 -0.1100 -1.0691
  148MOL0     C19463  10.600   8.292   2.295 -0.1201  0.5967 -0.6101
  148MOL0     C19464  10.612   8.260   2.439 -0.5081 -0.2870 -0.3905
  148MOL0     C19465  10.760   8.203   2.456  0.1122 -0.1951  0.8259
  148MOL0     C19466  10.798   8.078   2.378  0.7615  0.3005 -0.1579
  148MOL0     C19467  10.860   8.114   2.252  0.1903 -0.4769 -0.1001
  148MOL0     C19468  10.937   8.141   2.163  0.7476 -0.4110  0.2635
  148MOL0     C19469  10.333   8.545   2.309 -0.3556 -0.0947  0.8350
  148MOL0     C19470  10.310   8.677   2.341  0.4770  0.6168 -1.7482
  148MOL0     H19471  10.255   9.005   2.638 -0.7250 -1.5334 -1.4222
  148MOL0     H19472  10.139   9.212   2.731 -1.6480 -3.0763  0.2687
  148MOL0     H19473   9.984   9.621   2.579  0.1614  0.7381  1.5565
  148MOL0     H19474  10.057   9.550   2.440 -0.3478 -4.4918 -0.3123
  148MOL0     H19475  10.265   9.575   2.522 -0.8903  1.4318 -0.3391
  148MOL0     H19476  10.213   9.543   2.696  2.0062  1.8699  0.3955
  148MOL0     H19477  10.270   9.773   2.694 -2.2525  1.3210  0.0751
  148MOL0     H19478  10.111   9.798   2.649 -0.8715 -2.4854 -1.6590
  148MOL0     H19479  10.313   9.759   2.428 -1.2794  0.0429  0.7623
  148MOL0     H19480  10.156   9.813   2.431  0.2018 -1.2704  0.7800
  148MOL0     H19481  10.397   9.939   2.566  0.3004  0.8519 -1.0866
  148MOL0     H19482  10.224  10.002   2.592  1.9289  4.0200 -0.3218
  148MOL0     H19483  10.318   9.994   2.308  3.6190  0.7802  0.1511
  148MOL0     H19484  10.406  10.107   2.425  0.0903  0.4528 -0.7003
  148MOL0     H19485  10.110  10.112   2.419  0.8278 -2.9920  1.6489
  148MOL0     H19486  10.217  10.240   2.485  3.9312  1.8613 -1.9900
  148MOL0     H19487  10.151  10.178   2.204 -1.1372 -3.2561  2.5515
  148MOL0     H19488  10.292  10.273   2.249 -0.6796 -1.3740 -3.6511
  148MOL0     H19489  10.237  10.500   2.424  1.3114  2.3820 -2.1663
  148MOL0     H19490  10.108  10.697   2.499  4.7294 -1.1609 -1.1001
  148MOL0     H19491   9.964  10.739   2.404 -1.1580 -1.9864 -0.9983
  148MOL0     H19492  10.239  10.757   2.285 -1.2883 -0.6917 -1.5380
  148MOL0     H19493  10.181  10.890   2.382  2.1191 -0.8304 -0.9652
  148MOL0     H19494   9.975  10.898   2.220  1.5731  1.5976  1.4499
  148MOL0     H19495  10.122  10.945   2.146 -0.3397  0.2995 -1.4099
  148MOL0     H19496  10.046  10.804   1.976  1.4300 -1.8528 -1.7104
  148MOL0     H19497   9.953  10.705   2.083 -0.0787  0.2287  0.0371
  148MOL0     H19498  10.324  10.461   2.036 -0.7031  0.0704  2.5009
  148MOL0     H19499  10.513  10.469   1.932  1.4051  0.3075  1.9000
  148MOL0     H19500  10.697  10.946   2.104  0.8272  1.0547  2.4962
  148MOL0     H19501  10.882  10.948   2.272  2.6604  0.8308 -0.3184
  148MOL0     H19502  10.945  10.723   2.373  0.0136 -1.1650 -1.9457
  148MOL0     H19503  11.029  10.874   2.428  0.1996  0.0867 -1.0588
  148MOL0     H19504  11.080  10.675   2.568  1.0219 -0.9666 -0.1829
  148MOL0     H19505  11.216  10.739   2.483  0.2422  0.9414 -1.0612
  148MOL0     H19506  11.104  10.512   2.330  2.0993 -1.1680 -1.2014
  148MOL0     H19507  11.111  10.473   2.494 -0.6015  1.3640  0.1945
  148MOL0     H19508  11.329  10.611   2.328  2.4708 -2.1708 -2.1523
  148MOL0     H19509  11.357  10.541   2.492  0.4660  2.7540 -0.4685
  148MOL0     H19510  11.418  10.420   2.264 -0.4575 -0.1596  0.5059
  148MOL0     H19511  11.259  10.357   2.257 -1.0781  1.5942 -0.6710
  148MOL0     H19512  11.292  10.226   2.467 -0.4698 -0.9897 -0.3500
  148MOL0     H19513  11.435  10.335   2.508  0.3517  1.5971 -1.1080
  148MOL0     H19514  11.489  10.104   2.442 -0.7993  1.4718  1.8742
  148MOL0     H19515  11.423  10.135   2.273  1.6265  1.2326 -1.6029
  148MOL0     H19516  11.641  10.291   2.395  1.4256 -0.2578 -0.0686
  148MOL0     H19517  11.593  10.283   2.227 -1.5184  0.8463  1.1008
  148MOL0     H19518  11.121  10.688   2.022 -2.3327 -3.9444  0.1899
  148MOL0     H19519  10.959  10.687   1.865 -0.6872  0.8792 -1.4881
  148MOL0     H19520  10.503  10.903   1.910  0.3627  1.3455  1.3182
  148MOL0     H19521  10.288  10.902   2.007  0.6893  0.0777 -0.2604
  148MOL0     H19522  10.072   9.363   2.332  2.5754 -1.1678 -1.0454
  148MOL0     H19523  10.189   9.177   2.246 -1.2550  1.1993  0.1275
  148MOL0     H19524  10.630   8.769   2.405  1.3530 -1.6985 -2.8908
  148MOL0     H19525  10.678   8.557   2.308  0.6794  2.3912 -1.7172
  148MOL0     H19526  10.691   8.341   2.257  2.4204 -3.0935  0.2020
  148MOL0     H19527  10.578   8.207   2.230 -1.8074  1.6632 -1.5229
  148MOL0     H19528  10.603   8.346   2.505  0.8974 -0.4846  0.0838
  148MOL0     H19529  10.539   8.185   2.473  0.1220 -0.9427 -0.4550
  148MOL0     H19530  10.772   8.175   2.561  1.2417  3.9603  1.9601
  148MOL0     H19531  10.837   8.276   2.429  1.8651 -2.4189 -0.6705
  148MOL0     H19532  10.872   8.020   2.434  1.1242  0.2577 -0.6672
  148MOL0     H19533  10.715   8.007   2.366 -2.0418  2.5258  3.8985
  148MOL0     H19534  11.002   8.165   2.081 -2.3576 -3.0944 -3.3472
  148MOL0     H19535  10.255   8.474   2.284  0.6776 -0.9296 -0.1468
  148MOL0     H19536  10.212   8.724   2.347  0.5023  0.6340 -1.4493
  149MOL0     O19537   5.886  11.376   8.936 -0.1311 -0.1301  0.7933
  149MOL0     C19538   5.893  11.358   9.054  0.7199  0.5728  0.3141
  149MOL0     O19539   5.985  11.287   9.127 -0.4203 -1.2375 -0.0779
  149MOL0     C19540   6.075  11.205   9.077  0.3978  0.5072  0.1429
  149MOL0     C19541   6.126  11.206   8.944 -0.4273 -0.5657  0.3715
  149MOL0     C19542   6.212  11.109   8.901 -0.2284  0.7671  0.7272
  149MOL0     C19543   6.245  10.999   8.988  0.3714 -0.0969 -0.2344
  149MOL0     O19544   6.313  10.887   8.948 -0.1898  0.5432 -0.7422
  149MOL0     C19545   6.287  10.836   8.820  1.1970  0.3855 -0.2718
  149MOL0     C19546   6.343  10.697   8.829  0.8746 -0.2899 -0.2002
  149MOL0     C19547   6.340  10.635   8.697 -0.6656 -0.5283  0.2922
  149MOL0     C19548   6.378  10.482   8.698 -0.2085 -0.5789  0.0553
  149MOL0     C19549   6.390  10.410   8.565 -0.2372 -1.2562 -0.6878
  149MOL0     C19550   6.477  10.479   8.463 -0.9435 -0.2841  0.0218
  149MOL0     C19551   6.631  10.485   8.522  1.1812  0.6737 -0.0619
  149MOL0     C19552   6.723  10.529   8.410  0.5121  0.6025 -0.0114
  149MOL0     N19553   6.708  10.666   8.363 -0.4184 -0.3043 -0.7610
  149MOL0     C19554   6.742  10.781   8.434 -0.3567 -0.6824 -0.6096
  149MOL0     C19555   6.716  10.878   8.348 -0.5956 -0.0588 -0.7819
  149MOL0     C19556   6.738  11.025   8.366  0.0467 -0.0709 -0.0508
  149MOL0     C19557   6.603  11.103   8.356 -0.1125  0.6447  0.1616
  149MOL0     C19558   6.508  11.043   8.448  1.3438  0.6322 -0.6484
  149MOL0     C19559   6.375  11.105   8.469  0.8768  0.4746  0.5341
  149MOL0     O19560   6.278  11.001   8.513  0.3096 -0.4220  0.3693
  149MOL0     C19561   6.156  11.060   8.543  0.6145 -0.5504  0.1933
  149MOL0     C19562   6.098  11.193   8.532 -0.9730 -0.3250 -0.2521
  149MOL0     C19563   5.978  11.228   8.601 -0.4670  1.3475 -0.3707
  149MOL0     C19564   5.894  11.124   8.637  1.4621 -0.3816 -0.4962
  149MOL0     C19565   5.757  11.147   8.684 -0.1136 -0.0187 -0.4895
  149MOL0     O19566   5.698  11.259   8.628 -0.4118  0.2494 -0.5969
  149MOL0     C19567   5.576  11.298   8.679 -0.0505 -0.5222 -0.0352
  149MOL0     C19568   5.468  11.308   8.596  0.2784  0.9775 -0.4112
  149MOL0     C19569   5.345  11.349   8.647 -0.2207 -0.5254  0.2891
  149MOL0     C19570   5.337  11.384   8.784  0.1035 -0.1701 -0.3708
  149MOL0     O19571   5.221  11.433   8.851 -0.5856 -0.1713  0.6440
  149MOL0     C19572   5.101  11.426   8.771  0.3338 -0.3822 -0.0636
  149MOL0     C19573   5.000  11.441   8.885  0.8996 -0.1140  1.0426
  149MOL0     C19574   4.856  11.437   8.824 -0.8920  0.4455 -0.3934
  149MOL0     C19575   4.749  11.515   8.902  0.1293  0.6307 -0.8452
  149MOL0     C19576   4.616  11.540   8.822 -0.7395  0.7346 -0.1720
  149MOL0     C19577   4.513  11.621   8.920 -1.1629 -0.4206  0.6200
  149MOL0     C19578   4.396  11.676   8.835  0.1251 -0.5731 -0.3876
  149MOL0     C19579   4.299  11.773   8.908  0.7344 -0.2290 -0.9271
  149MOL0    Cl19580   4.233  11.698   9.060 -0.2540  0.3022 -0.0702
  149MOL0     C19581   5.446  11.366   8.871  0.3805  0.2795 -0.1992
  149MOL0     C19582   5.568  11.332   8.816  0.7034 -0.2631 -0.7943
  149MOL0     O19583   5.703  11.069   8.762  0.3969  0.3090  0.1007
  149MOL0     C19584   5.953  10.997   8.659  0.1960  0.2955  0.1190
  149MOL0     C19585   6.068  10.968   8.603 -0.6042  0.8760 -0.0437
  149MOL0     N19586   6.677  10.831   8.224  0.1383  0.4362  0.2161
  149MOL0     N19587   6.684  10.703   8.233  0.4701 -0.0718 -1.3206
  149MOL0     C19588   6.216  11.003   9.119  0.1076  0.2960 -0.1314
  149MOL0     C19589   6.126  11.098   9.168  0.2946  0.6592  0.0120
  149MOL0     C19590   5.782  11.436   9.120 -0.1161  0.0171 -0.1601
  149MOL0     C19591   5.779  11.570   9.113  0.0738 -0.3364 -0.2082
  149MOL0     C19592   5.671  11.648   9.169 -0.2578  1.0685 -0.6627
  149MOL0     C19593   5.557  11.571   9.213  0.9014 -1.3319  0.0615
  149MOL0     O19594   5.441  11.646   9.235 -0.3686 -0.4194 -0.1810
  149MOL0     C19595   5.335  11.641   9.131  0.1840  0.0864 -1.3926
  149MOL0     C19596   5.354  11.751   9.032 -0.2718  0.5836  0.2849
  149MOL0     C19597   5.345  11.895   9.085  0.1948 -0.2685 -0.0918
  149MOL0     C19598   5.396  12.002   8.993  1.0575  0.2696 -0.1501
  149MOL0     C19599   5.543  12.014   9.014  0.1808  0.9457  0.6442
  149MOL0     C19600   5.663  12.030   9.038  0.0208  0.8056  0.5545
  149MOL0     C19601   5.565  11.433   9.224  0.6295  0.2287  0.6721
  149MOL0     C19602   5.681  11.361   9.183  0.0303  0.0463  0.8676
  149MOL0     H19603   6.114  11.284   8.869  0.5362 -0.6292  0.1317
  149MOL0     H19604   6.256  11.112   8.802 -1.5318 -0.9644  0.0356
  149MOL0     H19605   6.328  10.898   8.740 -3.1904 -0.8661 -3.8928
  149MOL0     H19606   6.181  10.813   8.806  1.6444 -2.6427  0.4921
  149MOL0     H19607   6.286  10.636   8.901  4.2636  0.3105  3.3463
  149MOL0     H19608   6.448  10.699   8.859  1.0263 -0.7543 -0.6910
  149MOL0     H19609   6.405  10.687   8.625 -1.2595  0.0027  0.1330
  149MOL0     H19610   6.242  10.654   8.654  1.0746  0.5453 -3.6828
  149MOL0     H19611   6.474  10.467   8.749 -1.2097  1.5798  2.8038
  149MOL0     H19612   6.299  10.428   8.750  0.1303 -1.5706 -0.4289
  149MOL0     H19613   6.290  10.410   8.520 -0.7229  2.5575  0.0651
  149MOL0     H19614   6.422  10.307   8.584 -1.7022 -1.8120 -1.0757
  149MOL0     H19615   6.446  10.580   8.433  0.3787 -0.0321 -0.5681
  149MOL0     H19616   6.485  10.414   8.376 -0.9036 -1.0729  0.6059
  149MOL0     H19617   6.633  10.555   8.606  0.8678 -0.4656  0.9165
  149MOL0     H19618   6.659  10.384   8.552  0.8425  1.2154  2.2693
  149MOL0     H19619   6.712  10.455   8.330  0.9471 -0.1682  0.6305
  149MOL0     H19620   6.821  10.518   8.457 -0.6597  1.0472  2.7141
  149MOL0     H19621   6.783  10.795   8.533 -0.7607 -0.0784 -0.5211
  149MOL0     H19622   6.795  11.047   8.275 -2.1495  0.7370 -1.3096
  149MOL0     H19623   6.794  11.044   8.458  0.1669  0.0793 -0.1543
  149MOL0     H19624   6.550  11.101   8.261  1.4274  1.2123 -0.7483
  149MOL0     H19625   6.618  11.208   8.384  1.4699  0.7338 -0.9007
  149MOL0     H19626   6.478  10.949   8.401  2.8413 -0.0282 -0.3305
  149MOL0     H19627   6.549  11.005   8.542  0.5861  0.5194 -0.3514
  149MOL0     H19628   6.342  11.145   8.373  2.7561  1.3912  0.2204
  149MOL0     H19629   6.385  11.189   8.538  3.1314  1.7203 -1.1788
  149MOL0     H19630   6.146  11.274   8.478 -1.3986 -1.7204 -2.8863
  149MOL0     H19631   5.944  11.331   8.595 -3.3248  0.4045 -2.4117
  149MOL0     H19632   5.475  11.295   8.488 -0.4264 -0.8567 -0.2680
  149MOL0     H19633   5.266  11.361   8.574  1.3353 -0.8479 -1.5114
  149MOL0     H19634   5.087  11.329   8.723 -2.8877 -0.3813  0.6436
  149MOL0     H19635   5.102  11.502   8.692  4.8245 -0.4971 -0.3922
  149MOL0     H19636   5.010  11.541   8.927 -0.1280  0.1097  0.7704
  149MOL0     H19637   5.016  11.377   8.972  2.2251 -1.2578  0.0033
  149MOL0     H19638   4.833  11.333   8.798  2.0237 -0.3384 -0.1613
  149MOL0     H19639   4.867  11.495   8.732 -2.8335  0.4611 -0.6630
  149MOL0     H19640   4.730  11.458   8.993  3.9658  0.4846  0.0295
  149MOL0     H19641   4.787  11.613   8.930  2.3421 -0.1723 -0.8722
  149MOL0     H19642   4.572  11.447   8.784 -0.5356 -0.0276  1.3557
  149MOL0     H19643   4.646  11.594   8.732 -0.6100  0.0482 -0.5471
  149MOL0     H19644   4.560  11.702   8.977  0.3853 -1.2275  0.5360
  149MOL0     H19645   4.472  11.541   8.982 -1.9076 -1.5232 -1.2145
  149MOL0     H19646   4.435  11.724   8.744  0.7529 -0.9730 -0.3304
  149MOL0     H19647   4.340  11.591   8.795 -0.8273  0.4183 -1.2371
  149MOL0     H19648   4.216  11.788   8.839 -0.1337 -0.0586  0.1288
  149MOL0     H19649   4.335  11.871   8.941 -2.2934 -0.0837  2.6123
  149MOL0     H19650   5.431  11.392   8.976 -0.2276  0.5994 -0.3609
  149MOL0     H19651   5.661  11.341   8.871 -0.7671  4.7548  1.5931
  149MOL0     H19652   5.897  10.920   8.710 -1.9115  1.3173 -0.5239
  149MOL0     H19653   6.094  10.863   8.598 -0.4504  0.9857 -2.6273
  149MOL0     H19654   6.247  10.921   9.183 -2.8749 -0.1759  0.8389
  149MOL0     H19655   6.087  11.088   9.268 -0.7163 -0.3153 -0.4609
  149MOL0     H19656   5.874  11.613   9.085  0.5622  0.0275  1.8437
  149MOL0     H19657   5.664  11.755   9.152 -2.4853  0.7798 -2.0048
  149MOL0     H19658   5.234  11.640   9.174  0.9880  1.0608  0.6426
  149MOL0     H19659   5.330  11.542   9.086  0.2449 -2.2039  3.0655
  149MOL0     H19660   5.453  11.732   8.990  0.8010  2.6587  1.6623
  149MOL0     H19661   5.282  11.740   8.950 -0.0434  1.0798  0.0060
  149MOL0     H19662   5.397  11.902   9.181 -1.0230 -4.3943  1.0899
  149MOL0     H19663   5.237  11.906   9.100  0.1688  0.1647 -0.5791
  149MOL0     H19664   5.380  11.970   8.889 -0.1663  2.8330 -0.8315
  149MOL0     H19665   5.346  12.099   9.003 -0.1006 -0.1758 -1.2959
  149MOL0     H19666   5.768  12.046   9.051  0.1287 -1.4035  3.8663
  149MOL0     H19667   5.488  11.375   9.273 -0.3643  3.0294  2.7232
  149MOL0     H19668   5.683  11.253   9.189  0.6636  0.0739  1.2821
  150MOL0     O19669   1.268   8.928   5.458  0.4545 -0.0304  0.1853
  150MOL0     C19670   1.186   8.834   5.450 -0.8075 -0.1503  0.0367
  150MOL0     O19671   1.201   8.714   5.506 -0.3934  0.7993  0.9325
  150MOL0     C19672   1.313   8.700   5.589  0.9519 -0.2427  0.6254
  150MOL0     C19673   1.314   8.761   5.711  0.0970 -1.2283  0.3298
  150MOL0     C19674   1.434   8.765   5.786  0.4210 -0.1776 -0.4807
  150MOL0     C19675   1.541   8.705   5.739  0.1797  0.0611  0.5867
  150MOL0     O19676   1.645   8.701   5.823 -0.0968 -0.1867 -1.1748
  150MOL0     C19677   1.760   8.786   5.792  0.6805  0.3061 -0.8851
  150MOL0     C19678   1.729   8.934   5.778 -0.3409  0.6509 -0.2907
  150MOL0     C19679   1.680   9.000   5.905 -0.7069 -0.3773 -0.2250
  150MOL0     C19680   1.622   9.137   5.885 -1.0227 -0.7062  0.9653
  150MOL0     C19681   1.633   9.260   5.980 -0.1747 -0.3113  0.1033
  150MOL0     C19682   1.753   9.257   6.072  0.5227 -0.1851 -1.3331
  150MOL0     C19683   1.890   9.278   6.006 -0.3816  0.7708 -0.3609
  150MOL0     C19684   1.965   9.404   6.051  0.4923  0.3595  0.5718
  150MOL0     N19685   2.036   9.395   6.183 -0.2906 -0.7553 -0.0680
  150MOL0     C19686   2.011   9.481   6.285 -0.2925 -0.2764 -0.1170
  150MOL0     C19687   2.076   9.431   6.388  0.5303  0.1406 -0.5622
  150MOL0     C19688   2.080   9.493   6.528  0.8737  0.2929 -0.3810
  150MOL0     C19689   2.218   9.474   6.601 -0.1263 -0.6433  0.3011
  150MOL0     C19690   2.224   9.486   6.750  0.2853 -1.4721  0.3332
  150MOL0     C19691   2.363   9.523   6.807 -1.3831  0.3767 -0.4694
  150MOL0     O19692   2.479   9.453   6.751  0.1830  0.2637  0.2401
  150MOL0     C19693   2.479   9.314   6.768  0.4044 -0.8705 -0.0233
  150MOL0     C19694   2.406   9.244   6.860 -1.1433  0.3868  0.0347
  150MOL0     C19695   2.421   9.102   6.870  0.4183 -1.0325 -0.6253
  150MOL0     C19696   2.516   9.034   6.802  0.2667 -0.3854 -0.1211
  150MOL0     C19697   2.535   8.890   6.807 -0.0346 -0.1978  0.2400
  150MOL0     O19698   2.584   8.827   6.702 -0.5561 -0.0221  0.0977
  150MOL0     C19699   2.604   8.687   6.720  0.0367  0.1119  0.2681
  150MOL0     C19700   2.492   8.601   6.732 -0.4242 -0.1832  0.6271
  150MOL0     C19701   2.513   8.466   6.717  0.7409  0.2421 -0.5595
  150MOL0     C19702   2.644   8.414   6.698  0.5817 -0.2717  0.3465
  150MOL0     O19703   2.652   8.277   6.669  0.6219 -0.4311  0.5250
  150MOL0     C19704   2.768   8.208   6.719  0.6056 -0.6800  0.9617
  150MOL0     C19705   2.722   8.062   6.742  0.8473 -0.1309  0.0199
  150MOL0     C19706   2.832   7.960   6.760 -0.2555  0.1076  0.0873
  150MOL0     C19707   2.774   7.828   6.732  0.0493 -0.0940  0.0792
  150MOL0     C19708   2.881   7.719   6.752 -0.4857 -0.2457  0.0270
  150MOL0     C19709   2.838   7.572   6.764  0.8317 -0.1003  0.2494
  150MOL0     C19710   2.955   7.477   6.745 -0.0017  0.2656 -0.6422
  150MOL0     C19711   2.914   7.342   6.786  0.1265 -0.3152 -0.8289
  150MOL0    Cl19712   2.897   7.233   6.646 -0.3314  0.0178  0.0637
  150MOL0     C19713   2.747   8.503   6.696  0.0347 -0.2435 -0.2321
  150MOL0     C19714   2.736   8.640   6.707  0.1952  0.8398  1.9883
  150MOL0     O19715   2.516   8.837   6.919  0.4285  0.0276  0.2172
  150MOL0     C19716   2.590   9.105   6.705 -0.1390  0.4131 -0.0525
  150MOL0     C19717   2.578   9.242   6.695 -0.2593  0.0638  0.3846
  150MOL0     N19718   2.128   9.307   6.352 -0.3665 -1.6584 -0.1822
  150MOL0     N19719   2.097   9.292   6.233 -0.2908  0.2541 -0.5881
  150MOL0     C19720   1.542   8.635   5.619 -0.7370  0.4768 -0.4579
  150MOL0     C19721   1.427   8.632   5.547 -0.7328 -0.1707  0.3420
  150MOL0     C19722   1.072   8.852   5.359  0.1106 -0.9628 -0.1086
  150MOL0     C19723   1.004   8.746   5.293 -0.4117  0.5752 -0.0067
  150MOL0     C19724   0.889   8.781   5.215  0.0520 -0.0079  0.7427
  150MOL0     C19725   0.842   8.908   5.195 -0.0449  0.0752  0.2708
  150MOL0     O19726   0.729   8.945   5.134  1.2366 -0.6891  0.4943
  150MOL0     C19727   0.632   8.854   5.070 -0.1379 -0.4093 -0.2771
  150MOL0     C19728   0.527   8.793   5.162  0.4372  0.0798 -0.5601
  150MOL0     C19729   0.431   8.702   5.087  0.0795 -0.7821 -0.2880
  150MOL0     C19730   0.346   8.621   5.194 -0.7564 -0.4797  0.0440
  150MOL0     C19731   0.238   8.572   5.111 -0.5090 -0.2488  0.0860
  150MOL0     C19732   0.140   8.554   5.036 -0.5904  0.7724 -0.8313
  150MOL0     C19733   0.924   9.008   5.253  0.7035 -0.2338 -0.0743
  150MOL0     C19734   1.044   8.982   5.326  0.4606 -0.9055  0.2278
  150MOL0     H19735   1.228   8.818   5.744  0.0574 -3.2830  4.4025
  150MOL0     H19736   1.443   8.811   5.884 -1.5802 -1.2294  0.2755
  150MOL0     H19737   1.801   8.748   5.698  0.0760  0.1661 -1.0994
  150MOL0     H19738   1.841   8.784   5.864  0.2136  2.3615 -0.2353
  150MOL0     H19739   1.650   8.940   5.703 -1.8920  2.5239  1.3513
  150MOL0     H19740   1.806   9.001   5.739  0.6242 -0.2261  0.0465
  150MOL0     H19741   1.764   9.005   5.975 -1.7231  1.0372  0.9483
  150MOL0     H19742   1.610   8.932   5.955  1.5058 -2.8424 -0.2769
  150MOL0     H19743   1.667   9.169   5.790 -2.8987  1.8782  0.8403
  150MOL0     H19744   1.516   9.133   5.856 -1.3901  2.9168  1.3404
  150MOL0     H19745   1.532   9.266   6.021 -1.4133 -0.7377 -2.6970
  150MOL0     H19746   1.627   9.359   5.935 -3.9132 -0.4668 -0.0328
  150MOL0     H19747   1.755   9.168   6.136 -1.0724  2.1364  2.2441
  150MOL0     H19748   1.736   9.329   6.152 -1.8861 -3.7918  1.7803
  150MOL0     H19749   1.953   9.191   6.024 -1.3086  0.1746  0.0993
  150MOL0     H19750   1.869   9.301   5.901 -1.1969  0.3227 -0.3041
  150MOL0     H19751   1.898   9.489   6.038  2.3134  1.4875 -2.5611
  150MOL0     H19752   2.048   9.418   5.982 -0.2565 -1.5736 -0.7914
  150MOL0     H19753   1.950   9.570   6.282 -0.8542 -0.2719  4.4677
  150MOL0     H19754   2.005   9.445   6.592  1.2149  0.7167  0.3533
  150MOL0     H19755   2.059   9.601   6.526 -0.0723  0.2614  2.6038
  150MOL0     H19756   2.279   9.558   6.567 -0.9876  0.7253  2.0362
  150MOL0     H19757   2.270   9.384   6.564  0.0598  1.3501 -5.1526
  150MOL0     H19758   2.170   9.569   6.796  0.3067 -0.5835 -1.1751
  150MOL0     H19759   2.196   9.388   6.788 -2.0168 -1.5674 -1.4288
  150MOL0     H19760   2.353   9.512   6.915 -0.5343 -1.0236 -0.5100
  150MOL0     H19761   2.389   9.627   6.783  0.7714 -0.1009 -0.4277
  150MOL0     H19762   2.340   9.293   6.931 -0.4007 -2.5900  3.0315
  150MOL0     H19763   2.360   9.041   6.935  1.2217 -2.1463 -0.8944
  150MOL0     H19764   2.400   8.642   6.773 -1.2455  1.3483 -2.3950
  150MOL0     H19765   2.429   8.398   6.719  0.3684  0.6977 -0.6214
  150MOL0     H19766   2.795   8.255   6.814 -1.1031 -1.6542  2.0045
  150MOL0     H19767   2.842   8.217   6.640  0.0871  2.2232  0.7079
  150MOL0     H19768   2.672   8.031   6.649 -0.9269 -1.1744  1.2495
  150MOL0     H19769   2.649   8.060   6.823  0.1964  2.3716 -0.4236
  150MOL0     H19770   2.877   7.971   6.859  0.7280  1.7962 -0.4963
  150MOL0     H19771   2.894   8.001   6.679  0.3415 -0.3901  0.2821
  150MOL0     H19772   2.688   7.814   6.799 -0.6281 -0.7523 -0.8890
  150MOL0     H19773   2.743   7.827   6.627  0.2101  0.9980  0.0079
  150MOL0     H19774   2.948   7.730   6.838  1.2825 -1.1778 -1.1603
  150MOL0     H19775   2.950   7.732   6.668  0.0616 -2.1413  0.1292
  150MOL0     H19776   2.770   7.549   6.681 -0.7534 -1.2496  1.7719
  150MOL0     H19777   2.770   7.554   6.848  2.5351  1.4613  2.0798
  150MOL0     H19778   2.992   7.485   6.642 -2.0717 -1.5382 -1.6158
  150MOL0     H19779   3.038   7.511   6.806  0.9945 -2.4854 -0.3128
  150MOL0     H19780   2.819   7.335   6.839  1.5254 -1.2194  1.7211
  150MOL0     H19781   2.990   7.308   6.856  0.0372 -2.5310 -1.7497
  150MOL0     H19782   2.844   8.462   6.669 -1.2240 -2.7921 -1.1668
  150MOL0     H19783   2.820   8.709   6.697  0.6533  0.0728 -5.6529
  150MOL0     H19784   2.658   9.053   6.638 -0.1021 -0.4195  0.6116
  150MOL0     H19785   2.644   9.287   6.621  1.4158 -0.5731  1.4316
  150MOL0     H19786   1.632   8.579   5.595 -1.3609 -0.5101 -0.5923
  150MOL0     H19787   1.412   8.587   5.449 -2.4050 -0.9008  0.8922
  150MOL0     H19788   1.032   8.642   5.308 -1.2177  0.6109  1.9849
  150MOL0     H19789   0.846   8.688   5.179  1.2161  0.6783 -2.7354
  150MOL0     H19790   0.686   8.771   5.022  2.3508  1.0566 -0.2057
  150MOL0     H19791   0.580   8.907   4.990  2.8173 -0.6737 -2.5551
  150MOL0     H19792   0.579   8.744   5.246  0.3425  0.6434 -0.1690
  150MOL0     H19793   0.456   8.867   5.199 -2.2921 -1.1089 -3.0848
  150MOL0     H19794   0.492   8.638   5.023 -0.1884  0.7630 -2.1850
  150MOL0     H19795   0.358   8.754   5.024  2.5981 -1.0034 -3.6306
  150MOL0     H19796   0.416   8.550   5.241 -0.7531  0.2149  1.1354
  150MOL0     H19797   0.307   8.695   5.265 -0.0841 -0.7751  0.7362
  150MOL0     H19798   0.047   8.532   4.989 -0.7602  3.5750 -1.9680
  150MOL0     H19799   0.884   9.107   5.237 -2.4811 -1.4268 -0.2027
  150MOL0     H19800   1.082   9.076   5.364 -3.3312  0.3258  1.3816
  151MOL0     O19801   7.797   8.355   1.920 -0.6695  1.1014  0.7675
  151MOL0     C19802   7.688   8.413   1.918  0.6866  1.1299 -0.4682
  151MOL0     O19803   7.575   8.356   1.973  0.0599  0.0221 -0.8583
  151MOL0     C19804   7.577   8.226   2.007  0.5958  0.6180 -0.3892
  151MOL0     C19805   7.534   8.195   2.131 -0.3469  0.4199 -0.5387
  151MOL0     C19806   7.519   8.067   2.177 -0.3570 -0.4818  0.0221
  151MOL0     C19807   7.537   7.960   2.090 -0.5474  0.5020  0.1173
  151MOL0     O19808   7.513   7.835   2.144 -0.8496  0.3650  0.3403
  151MOL0     C19809   7.490   7.717   2.063 -0.5793  0.6458  0.5522
  151MOL0     C19810   7.606   7.647   2.004 -0.0167  0.0522 -0.1346
  151MOL0     C19811   7.658   7.545   2.113 -0.0185 -0.1904  1.2703
  151MOL0     C19812   7.776   7.470   2.056  0.4763 -0.1909 -0.4303
  151MOL0     C19813   7.833   7.350   2.139 -0.1262 -0.1695 -0.1276
  151MOL0     C19814   7.738   7.227   2.165 -0.2738  0.1401  0.1107
  151MOL0     C19815   7.802   7.099   2.219 -0.3421 -0.0598 -0.6189
  151MOL0     C19816   7.702   6.980   2.216  0.5816 -0.1665 -0.7020
  151MOL0     N19817   7.591   6.988   2.318  0.1154 -0.0134 -0.9857
  151MOL0     C19818   7.597   7.050   2.439 -0.5730  0.4401 -0.1306
  151MOL0     C19819   7.477   7.001   2.501  0.5574 -0.6950 -0.1006
  151MOL0     C19820   7.439   7.036   2.639  1.0582 -0.2968 -0.5091
  151MOL0     C19821   7.315   6.953   2.693  0.6582  0.4185  0.2419
  151MOL0     C19822   7.266   6.975   2.834 -0.5566 -0.2790 -0.6955
  151MOL0     C19823   7.122   6.949   2.856  0.6644 -0.0029  0.0091
  151MOL0     O19824   7.111   6.905   2.995 -0.8541  0.0084  0.1705
  151MOL0     C19825   7.114   6.997   3.104 -0.5899 -0.4208 -0.2927
  151MOL0     C19826   7.114   7.132   3.088 -0.4927 -0.8548  0.8255
  151MOL0     C19827   7.110   7.218   3.199  0.4778  0.4760  0.2809
  151MOL0     C19828   7.128   7.167   3.325  0.2146  0.0141 -0.4714
  151MOL0     C19829   7.140   7.267   3.438  0.2052  0.3686  0.5573
  151MOL0     O19830   7.130   7.214   3.559  0.9268 -0.0943 -0.4233
  151MOL0     C19831   7.076   7.295   3.664  0.5233  0.3237 -0.0279
  151MOL0     C19832   7.013   7.424   3.651  0.2060 -0.5356 -0.1545
  151MOL0     C19833   6.948   7.485   3.760  0.1360  0.0351  0.8646
  151MOL0     C19834   6.958   7.433   3.891  0.1816 -0.7546 -0.7556
  151MOL0     O19835   6.876   7.485   3.998 -0.8120 -0.7260 -0.0319
  151MOL0     C19836   6.796   7.604   3.966  0.1748  0.3968 -0.9910
  151MOL0     C19837   6.728   7.644   4.097  0.7819 -0.0118 -0.3503
  151MOL0     C19838   6.633   7.756   4.073 -0.5230 -0.4862 -0.4950
  151MOL0     C19839   6.500   7.725   4.129  0.5295  0.3957  0.3784
  151MOL0     C19840   6.390   7.819   4.088  0.5378  0.0355  0.6671
  151MOL0     C19841   6.376   7.850   3.941  0.2732 -0.6622 -0.2560
  151MOL0     C19842   6.233   7.887   3.905 -0.3695  0.4538  0.0217
  151MOL0     C19843   6.190   8.012   3.974 -0.5483  0.2610  0.5149
  151MOL0    Cl19844   6.038   8.069   3.899 -0.3793  0.0496 -0.2363
  151MOL0     C19845   7.054   7.333   3.904 -0.3437  0.4261  0.1821
  151MOL0     C19846   7.099   7.262   3.798  0.7892 -0.4998  0.3777
  151MOL0     O19847   7.169   7.381   3.397  1.0693 -0.2235 -0.4935
  151MOL0     C19848   7.128   7.026   3.342 -1.1973  0.2579  0.2106
  151MOL0     C19849   7.119   6.941   3.233 -0.4791  0.4112 -1.6558
  151MOL0     N19850   7.399   6.944   2.409 -0.3523 -0.2717 -0.2842
  151MOL0     N19851   7.467   6.934   2.300  0.1513 -0.2841  0.1838
  151MOL0     C19852   7.579   7.984   1.952  0.0871 -0.1593  1.1592
  151MOL0     C19853   7.604   8.124   1.919 -0.3079  0.1010  0.8256
  151MOL0     C19854   7.685   8.545   1.851  0.6678 -0.1755 -0.5774
  151MOL0     C19855   7.552   8.585   1.817  0.0389 -0.6026  0.0287
  151MOL0     C19856   7.543   8.714   1.746  0.6170 -0.0986  0.0090
  151MOL0     C19857   7.656   8.791   1.730 -0.2078 -0.1511 -0.5231
  151MOL0     O19858   7.670   8.911   1.663  0.3571 -0.0884  1.0158
  151MOL0     C19859   7.558   8.999   1.650 -0.6281  0.5109 -0.0738
  151MOL0     C19860   7.606   9.107   1.550 -0.3019 -0.1065 -0.8179
  151MOL0     C19861   7.627   9.050   1.413  0.3387 -0.3018  0.5723
  151MOL0     C19862   7.707   9.145   1.315 -0.1373  0.3842 -0.2393
  151MOL0     C19863   7.636   9.278   1.302  1.0564  0.5910 -0.2721
  151MOL0     C19864   7.569   9.376   1.311  0.8910  0.9293  0.7253
  151MOL0     C19865   7.779   8.735   1.766 -0.4013  0.0338 -0.3737
  151MOL0     C19866   7.798   8.616   1.819 -0.6975  0.4419 -0.3840
  151MOL0     H19867   7.543   8.267   2.212  0.7990 -1.8860  1.5398
  151MOL0     H19868   7.493   8.062   2.282  2.8649 -2.9003  0.9016
  151MOL0     H19869   7.427   7.752   1.980 -2.8345 -0.9266  1.4792
  151MOL0     H19870   7.422   7.654   2.122  2.8629  0.1852  4.4981
  151MOL0     H19871   7.681   7.723   1.981 -0.3518  1.1417  2.0291
  151MOL0     H19872   7.572   7.596   1.913  1.7887 -1.5659  0.0285
  151MOL0     H19873   7.586   7.465   2.130  1.6084 -2.6431 -2.1721
  151MOL0     H19874   7.677   7.606   2.202 -0.7385 -1.4204  2.2917
  151MOL0     H19875   7.753   7.423   1.960  1.1724  0.0004 -0.6984
  151MOL0     H19876   7.848   7.545   2.021 -0.6399  0.1146 -2.2291
  151MOL0     H19877   7.876   7.385   2.233 -1.6292  1.4773 -0.0064
  151MOL0     H19878   7.910   7.313   2.070  0.4045 -0.1060  0.4224
  151MOL0     H19879   7.694   7.190   2.072 -0.3873 -0.6075  0.4502
  151MOL0     H19880   7.663   7.253   2.240  0.3763 -0.0621  0.8548
  151MOL0     H19881   7.885   7.077   2.151 -1.0912 -0.2547 -1.4767
  151MOL0     H19882   7.841   7.119   2.319 -0.1515  2.0232 -1.0723
  151MOL0     H19883   7.749   6.885   2.242 -0.2767  0.2335  2.8709
  151MOL0     H19884   7.653   6.971   2.118 -1.2587 -0.6630  0.2110
  151MOL0     H19885   7.672   7.113   2.486 -3.2339  1.3246  3.3378
  151MOL0     H19886   7.425   7.145   2.646 -0.6617 -0.5808  2.3320
  151MOL0     H19887   7.528   7.022   2.701  0.6066 -1.3574 -0.0829
  151MOL0     H19888   7.337   6.846   2.686  1.1796  0.3902  1.9527
  151MOL0     H19889   7.238   6.964   2.617  1.5702  0.1197 -0.7548
  151MOL0     H19890   7.315   6.897   2.893  1.1827  1.2587  0.0030
  151MOL0     H19891   7.300   7.077   2.857  0.3584 -0.1542 -2.4291
  151MOL0     H19892   7.106   6.856   2.801  1.1700  1.2195 -2.3281
  151MOL0     H19893   7.057   7.034   2.833 -0.1150  0.3727  3.1435
  151MOL0     H19894   7.108   7.168   2.986  0.6979 -0.0780  1.0107
  151MOL0     H19895   7.106   7.326   3.189  3.7248  0.6965  0.2092
  151MOL0     H19896   6.994   7.470   3.555  3.0500 -1.0548 -1.0625
  151MOL0     H19897   6.891   7.575   3.735 -1.8171 -1.7683 -1.7701
  151MOL0     H19898   6.720   7.597   3.887  0.8757 -1.3850 -1.5335
  151MOL0     H19899   6.864   7.689   3.955  1.5957 -0.3971  1.1337
  151MOL0     H19900   6.800   7.678   4.171  0.6871 -0.9889  0.2066
  151MOL0     H19901   6.676   7.553   4.130  0.5954 -0.0611 -0.7656
  151MOL0     H19902   6.609   7.771   3.967  0.7533 -1.2987 -0.9214
  151MOL0     H19903   6.671   7.848   4.118  0.6975 -1.0216 -0.3872
  151MOL0     H19904   6.457   7.628   4.101  1.4619  0.8024 -2.8418
  151MOL0     H19905   6.509   7.709   4.237  2.0508 -2.7657 -0.0675
  151MOL0     H19906   6.403   7.911   4.146  0.1879  1.4655 -1.4320
  151MOL0     H19907   6.300   7.766   4.121  0.3419 -0.3015 -0.3750
  151MOL0     H19908   6.425   7.785   3.869  2.5121  1.1241 -0.4671
  151MOL0     H19909   6.433   7.939   3.915 -4.3012  2.9344  0.6236
  151MOL0     H19910   6.230   7.906   3.798  0.2901 -0.9346 -0.2681
  151MOL0     H19911   6.166   7.802   3.923 -1.7586  1.6367  0.6075
  151MOL0     H19912   6.266   8.090   3.964 -0.1787  0.1405  2.0473
  151MOL0     H19913   6.182   7.992   4.081  0.5524 -1.8202  0.2635
  151MOL0     H19914   7.072   7.317   4.010  1.6052  4.7880  0.7039
  151MOL0     H19915   7.156   7.171   3.814  0.8178 -0.8282 -1.4471
  151MOL0     H19916   7.128   6.991   3.445 -0.5326  0.2030  0.1924
  151MOL0     H19917   7.128   6.833   3.233  0.3966  0.4740 -2.2966
  151MOL0     H19918   7.603   7.904   1.883 -0.0834  2.0628 -1.6584
  151MOL0     H19919   7.644   8.147   1.821 -1.2152 -2.1048 -0.1283
  151MOL0     H19920   7.470   8.515   1.807 -1.0672  0.9093 -2.6845
  151MOL0     H19921   7.452   8.756   1.706  0.8038  3.1241  2.5377
  151MOL0     H19922   7.545   9.052   1.744  0.7401  1.5457 -0.4380
  151MOL0     H19923   7.464   8.952   1.619 -1.3237  0.8235  1.4765
  151MOL0     H19924   7.528   9.184   1.547  1.2388  1.6308  0.7939
  151MOL0     H19925   7.697   9.156   1.587 -1.9205  2.4616  0.0927
  151MOL0     H19926   7.529   9.039   1.366  0.9404 -1.1668 -0.5253
  151MOL0     H19927   7.678   8.953   1.421  0.4398 -0.2991 -0.0023
  151MOL0     H19928   7.810   9.156   1.350  0.3161  2.0051 -1.9167
  151MOL0     H19929   7.705   9.094   1.219  1.4460 -0.7157  0.2553
  151MOL0     H19930   7.504   9.461   1.300 -2.0163 -0.7057  3.6917
  151MOL0     H19931   7.859   8.798   1.728  0.2852 -1.4997 -1.5777
  151MOL0     H19932   7.894   8.570   1.842 -1.0249  0.1846  0.4850
  152MOL0     O19933   9.124   1.598   3.566 -0.1311 -0.3620 -0.5093
  152MOL0     C19934   9.093   1.699   3.634  0.5011  0.2500 -0.1513
  152MOL0     O19935   9.134   1.820   3.623  0.4700  0.5789 -0.0229
  152MOL0     C19936   9.247   1.859   3.556 -0.0512  0.1264  0.2561
  152MOL0     C19937   9.329   1.781   3.475 -0.2599  0.8854  0.1035
  152MOL0     C19938   9.442   1.840   3.409  0.0835 -0.1215  0.7110
  152MOL0     C19939   9.463   1.985   3.430  0.0155  0.7274 -0.7888
  152MOL0     O19940   9.561   2.056   3.362  0.5882 -0.4804 -1.1613
  152MOL0     C19941   9.542   2.068   3.217 -0.9872 -0.2243 -0.0083
  152MOL0     C19942   9.447   2.192   3.176 -0.4515  0.9372  0.3012
  152MOL0     C19943   9.506   2.331   3.169 -0.0512  0.2862 -0.3857
  152MOL0     C19944   9.512   2.390   3.308 -0.4036 -0.1267 -0.6508
  152MOL0     C19945   9.621   2.493   3.335  0.2172 -0.7564  0.3088
  152MOL0     C19946   9.634   2.599   3.219  0.2404 -0.9618 -1.2542
  152MOL0     C19947   9.715   2.728   3.260 -0.3104  0.3921  0.4883
  152MOL0     C19948   9.837   2.696   3.339 -0.4795 -0.2142  0.2603
  152MOL0     N19949   9.904   2.824   3.382 -0.2345  0.9957 -0.4406
  152MOL0     C19950   9.974   2.904   3.300 -0.8080 -1.2700 -0.1350
  152MOL0     C19951  10.014   3.014   3.363 -0.1086 -0.2956 -0.3437
  152MOL0     C19952  10.093   3.135   3.332  0.1189 -0.5500 -0.7521
  152MOL0     C19953  10.250   3.094   3.299  0.2892 -0.0717  0.1045
  152MOL0     C19954  10.275   3.124   3.135  0.5592  0.4095 -1.1123
  152MOL0     C19955  10.312   3.267   3.100 -0.6244  0.2134  0.1125
  152MOL0     O19956  10.227   3.370   3.144  0.2201 -0.3057 -0.4111
  152MOL0     C19957  10.268   3.499   3.134 -1.1868 -0.8902 -1.1296
  152MOL0     C19958  10.293   3.576   3.019  0.0492 -0.0176  0.1393
  152MOL0     C19959  10.330   3.709   3.029 -0.1916 -0.0740 -0.8305
  152MOL0     C19960  10.339   3.774   3.157 -0.2439 -0.1663  0.3186
  152MOL0     C19961  10.366   3.919   3.151  0.3865 -1.1479 -0.0728
  152MOL0     O19962  10.431   3.966   3.036  0.8139 -0.0796  0.2933
  152MOL0     C19963  10.422   4.103   3.006  0.2464 -0.7393 -1.0621
  152MOL0     C19964  10.356   4.133   2.889  0.7906  1.0095  0.1307
  152MOL0     C19965  10.341   4.271   2.856 -0.2278 -0.7749 -0.2535
  152MOL0     C19966  10.372   4.369   2.955  0.0063 -0.7757  0.3626
  152MOL0     O19967  10.348   4.496   2.919  0.0462  0.3259  0.1840
  152MOL0     C19968  10.351   4.597   3.016 -0.3095 -0.7960 -0.1821
  152MOL0     C19969  10.297   4.724   2.962  0.0414  0.1795  0.6311
  152MOL0     C19970  10.166   4.695   2.891  0.4363  0.8930 -0.6255
  152MOL0     C19971  10.063   4.643   2.991  0.5534  0.7345  1.2439
  152MOL0     C19972   9.921   4.687   2.948 -0.6279  0.5532  0.9141
  152MOL0     C19973   9.814   4.615   3.026  0.7010  0.0664 -0.7775
  152MOL0     C19974   9.835   4.646   3.175 -0.4663  0.0915 -0.4725
  152MOL0     C19975   9.826   4.798   3.221  0.3632  0.1905  0.4879
  152MOL0    Cl19976   9.794   4.804   3.393 -0.2922  0.1266 -0.0161
  152MOL0     C19977  10.422   4.325   3.077 -0.7152 -0.8573 -0.6821
  152MOL0     C19978  10.463   4.195   3.106 -0.1842  0.4881  1.2231
  152MOL0     O19979  10.308   3.990   3.239 -0.8838  0.0579 -0.4407
  152MOL0     C19980  10.300   3.697   3.278  0.4202  0.3606  0.7349
  152MOL0     C19981  10.276   3.558   3.261 -0.7092 -0.2386  0.2959
  152MOL0     N19982   9.942   3.014   3.485  0.3674  0.6119  0.3298
  152MOL0     N19983   9.880   2.897   3.494 -0.7583 -0.6839 -0.1501
  152MOL0     C19984   9.390   2.048   3.537 -0.3900 -0.8075 -0.4187
  152MOL0     C19985   9.275   1.997   3.591 -0.6666  0.4929  0.5349
  152MOL0     C19986   9.017   1.656   3.757 -0.4477 -0.1881  0.2042
  152MOL0     C19987   8.924   1.737   3.823  0.1715 -0.0671 -0.3396
  152MOL0     C19988   8.841   1.694   3.928  0.0377 -0.6329  0.0620
  152MOL0     C19989   8.849   1.563   3.971 -0.5641 -0.0315  0.8327
  152MOL0     O19990   8.761   1.497   4.055  0.6865 -0.2737  0.1970
  152MOL0     C19991   8.640   1.562   4.090  0.5892 -0.1865 -0.0902
  152MOL0     C19992   8.558   1.452   4.162  0.1979 -0.6983  0.4910
  152MOL0     C19993   8.408   1.465   4.138 -1.2873  0.1011  0.0422
  152MOL0     C19994   8.356   1.580   4.223 -0.7027  0.4903  0.2657
  152MOL0     C19995   8.212   1.592   4.206  0.8320  0.2590 -0.4329
  152MOL0     C19996   8.096   1.590   4.207 -0.6378  0.0305 -0.2646
  152MOL0     C19997   8.954   1.480   3.915 -0.0250  0.2376  0.8423
  152MOL0     C19998   9.033   1.523   3.804  0.9148  0.9179  0.1343
  152MOL0     H19999   9.306   1.679   3.447 -1.1998  1.1937 -0.3014
  152MOL0     H20000   9.495   1.783   3.333 -4.2923 -1.5528 -1.5607
  152MOL0     H20001   9.506   1.972   3.179  1.5315 -1.0785 -0.3722
  152MOL0     H20002   9.643   2.086   3.181 -0.6727 -1.1178  0.4005
  152MOL0     H20003   9.354   2.190   3.233  1.7405 -0.2172  4.2670
  152MOL0     H20004   9.439   2.167   3.070  6.0349  0.2390 -0.4642
  152MOL0     H20005   9.435   2.385   3.106 -1.3983 -1.3811 -0.3807
  152MOL0     H20006   9.604   2.327   3.122 -0.1842 -0.4810 -0.6094
  152MOL0     H20007   9.420   2.439   3.341  0.7792  1.7664  0.0020
  152MOL0     H20008   9.529   2.316   3.387  2.0159  0.8413 -0.1743
  152MOL0     H20009   9.721   2.449   3.341  0.4187 -0.8796 -2.4863
  152MOL0     H20010   9.587   2.530   3.432 -0.9613  1.5160 -0.9020
  152MOL0     H20011   9.540   2.623   3.170  0.2905 -2.6106 -2.2366
  152MOL0     H20012   9.696   2.560   3.137  1.0535  2.4625 -2.4401
  152MOL0     H20013   9.738   2.787   3.171  1.6525 -2.5912 -1.1836
  152MOL0     H20014   9.642   2.775   3.326 -2.6815 -2.6778  0.2739
  152MOL0     H20015   9.895   2.640   3.266 -2.7079  0.9946 -2.6773
  152MOL0     H20016   9.811   2.628   3.420  2.6110 -2.5452 -0.5629
  152MOL0     H20017  10.002   2.883   3.197 -0.1274  3.1357 -1.0734
  152MOL0     H20018  10.085   3.205   3.415 -4.7626 -1.0959 -0.5060
  152MOL0     H20019  10.038   3.184   3.251 -1.5898 -1.6158 -0.2841
  152MOL0     H20020  10.264   2.992   3.334  0.3731 -0.3239 -0.6459
  152MOL0     H20021  10.325   3.157   3.349  2.1012 -1.4740 -0.7222
  152MOL0     H20022  10.336   3.045   3.091  2.3221 -0.9347  3.2207
  152MOL0     H20023  10.177   3.115   3.087  0.7563 -0.7407 -1.3157
  152MOL0     H20024  10.318   3.276   2.991  1.5919  0.5247  0.2247
  152MOL0     H20025  10.410   3.291   3.142  0.0821 -0.7199 -0.9385
  152MOL0     H20026  10.281   3.531   2.921  1.9127 -0.7230  0.1869
  152MOL0     H20027  10.357   3.765   2.940  0.5413 -0.7305 -1.0300
  152MOL0     H20028  10.332   4.052   2.820  3.2521  0.9350 -0.7600
  152MOL0     H20029  10.298   4.312   2.765 -1.1487  3.9978  2.0273
  152MOL0     H20030  10.451   4.610   3.058 -0.2849 -0.1463 -0.4264
  152MOL0     H20031  10.291   4.570   3.104 -0.0108  1.2869  0.7415
  152MOL0     H20032  10.369   4.756   2.886  1.6468  0.6699  2.3146
  152MOL0     H20033  10.288   4.807   3.032  0.0220 -0.3797  1.3007
  152MOL0     H20034  10.180   4.623   2.810  4.1278  1.1224 -0.3600
  152MOL0     H20035  10.132   4.789   2.848 -2.8135  0.2611  0.2901
  152MOL0     H20036  10.088   4.537   3.004  4.1826  1.4384  1.1264
  152MOL0     H20037  10.086   4.692   3.086 -1.8245  2.8246  0.8425
  152MOL0     H20038   9.908   4.665   2.841  3.1152 -1.5395  0.7252
  152MOL0     H20039   9.914   4.796   2.945  1.5968  0.7203  0.4643
  152MOL0     H20040   9.813   4.508   3.004  0.3586 -0.4348  1.4286
  152MOL0     H20041   9.720   4.655   2.988  1.6052  0.2107 -2.9773
  152MOL0     H20042   9.756   4.595   3.231  0.0557 -0.8808 -0.6011
  152MOL0     H20043   9.928   4.599   3.209 -0.0154 -1.0058 -2.9516
  152MOL0     H20044   9.743   4.850   3.171  1.4930  0.8060 -0.8250
  152MOL0     H20045   9.915   4.856   3.194  0.6696 -0.0880  0.8852
  152MOL0     H20046  10.439   4.396   3.158 -2.8005 -2.0388  0.8901
  152MOL0     H20047  10.512   4.166   3.199  0.7596  1.9560  1.2254
  152MOL0     H20048  10.298   3.758   3.368  2.1956  2.2417 -0.3994
  152MOL0     H20049  10.265   3.499   3.352  1.5876  1.1218  1.5271
  152MOL0     H20050   9.432   2.142   3.569  0.6964 -1.3615 -0.1906
  152MOL0     H20051   9.220   2.042   3.674 -0.9164 -1.8235  1.6920
  152MOL0     H20052   8.908   1.837   3.783 -3.6256 -0.2036  0.4021
  152MOL0     H20053   8.772   1.759   3.981  0.7183 -2.5881  3.6682
  152MOL0     H20054   8.586   1.588   3.998  2.8394  1.5492 -0.9960
  152MOL0     H20055   8.646   1.659   4.140 -3.0386 -0.6569  1.5923
  152MOL0     H20056   8.589   1.351   4.135  0.2943 -1.0249  1.7498
  152MOL0     H20057   8.580   1.445   4.269 -2.8038 -2.3879  1.1126
  152MOL0     H20058   8.360   1.373   4.172  2.0914 -1.0423  2.2373
  152MOL0     H20059   8.386   1.480   4.032  1.7223  1.2810 -0.5244
  152MOL0     H20060   8.377   1.569   4.330 -0.3998  5.7493  1.0514
  152MOL0     H20061   8.405   1.676   4.202  3.0016 -1.3223 -0.0222
  152MOL0     H20062   7.991   1.573   4.208 -1.1462  2.3801 -2.7082
  152MOL0     H20063   8.954   1.382   3.960  0.5655  1.3654  3.4851
  152MOL0     H20064   9.081   1.448   3.742 -3.2125 -0.7028 -1.4734
  153MOL0     O20065   5.942   5.377   9.545 -0.1284  1.0122  0.4574
  153MOL0     C20066   5.992   5.351   9.432 -0.2144  0.4836 -0.0714
  153MOL0     O20067   6.124   5.308   9.417 -0.3293  0.1804 -0.8649
  153MOL0     C20068   6.216   5.359   9.506  0.6356 -0.1008 -0.8210
  153MOL0     C20069   6.326   5.274   9.529  1.1851  1.1722 -0.1774
  153MOL0     C20070   6.438   5.321   9.597  0.1373  0.2849  0.1127
  153MOL0     C20071   6.439   5.451   9.661  0.2510  0.2152  0.7688
  153MOL0     O20072   6.542   5.492   9.744  0.4786  0.0468 -0.6645
  153MOL0     C20073   6.511   5.597   9.834  1.1109  0.3496 -0.5809
  153MOL0     C20074   6.639   5.591   9.927  0.3735 -0.1257 -0.2377
  153MOL0     C20075   6.661   5.717  10.013 -0.0818 -0.1198  1.0791
  153MOL0     C20076   6.772   5.720  10.122 -0.0309 -0.3784  0.3903
  153MOL0     C20077   6.910   5.737  10.060 -0.3363 -0.3488  0.3244
  153MOL0     C20078   7.023   5.733  10.169 -0.2999  0.1128 -0.3157
  153MOL0     C20079   7.161   5.752  10.117  0.0081 -0.0562  0.1186
  153MOL0     C20080   7.268   5.725  10.221 -0.9405  0.4117 -0.3755
  153MOL0     N20081   7.369   5.830  10.244  0.2651  0.7445  0.1421
  153MOL0     C20082   7.437   5.830  10.361 -0.2526 -0.3008 -0.0552
  153MOL0     C20083   7.545   5.909  10.338 -0.6513 -0.6183 -0.1989
  153MOL0     C20084   7.648   5.925  10.434  0.3968  0.1406  0.2167
  153MOL0     C20085   7.757   5.832  10.408 -1.0165  0.5171 -0.2685
  153MOL0     C20086   7.883   5.888  10.475 -0.0169  0.6204 -0.0748
  153MOL0     C20087   7.888   5.885  10.630 -0.8069  0.3016  1.0877
  153MOL0     O20088   7.830   5.761  10.674 -0.0736 -0.1230  0.2799
  153MOL0     C20089   7.761   5.752  10.789  0.1208  0.3212  0.1485
  153MOL0     C20090   7.665   5.654  10.787 -0.4128  1.3870 -0.5144
  153MOL0     C20091   7.596   5.618  10.905 -0.6823 -1.0547 -0.0788
  153MOL0     C20092   7.622   5.696  11.028  0.3848 -0.1087  0.4038
  153MOL0     C20093   7.542   5.663  11.155 -0.5638 -0.1975  0.2398
  153MOL0     O20094   7.583   5.734  11.266 -0.2188  0.0093  0.0548
  153MOL0     C20095   7.496   5.722  11.372 -0.3168  0.1589 -0.9433
  153MOL0     C20096   7.455   5.611  11.433  0.6278 -1.0762  0.3212
  153MOL0     C20097   7.379   5.602  11.554  0.7769 -1.0089  0.5491
  153MOL0     C20098   7.357   5.724  11.620 -0.3607  0.2180  0.3445
  153MOL0     O20099   7.281   5.693  11.729  0.6471 -0.3216  0.2998
  153MOL0     C20100   7.211   5.800  11.789 -0.6137 -0.5892 -0.2508
  153MOL0     C20101   7.071   5.816  11.734 -0.3790 -0.4637 -0.8948
  153MOL0     C20102   7.059   5.947  11.656  0.2229  0.2216 -0.4108
  153MOL0     C20103   6.919   6.001  11.683  1.2668 -0.3605  0.8129
  153MOL0     C20104   6.864   6.061  11.549  0.1980  0.0186 -0.2454
  153MOL0     C20105   6.947   6.177  11.505  0.6674  0.1610 -0.9785
  153MOL0     C20106   6.887   6.226  11.374  0.3081 -0.6889 -0.3358
  153MOL0     C20107   6.959   6.355  11.319 -0.1180  0.7075  0.2170
  153MOL0    Cl20108   6.844   6.432  11.214 -0.3479  0.0410  0.2873
  153MOL0     C20109   7.391   5.849  11.564 -0.5638  0.1899 -0.4781
  153MOL0     C20110   7.456   5.849  11.437  0.2526 -0.6891 -0.1265
  153MOL0     O20111   7.440   5.603  11.138  0.7349 -0.1117 -0.6356
  153MOL0     C20112   7.711   5.798  11.026  0.1095 -0.7889  0.0158
  153MOL0     C20113   7.793   5.821  10.908 -0.1600  1.3119 -0.2100
  153MOL0     N20114   7.550   5.939  10.203  0.8141 -0.1061 -0.2992
  153MOL0     N20115   7.441   5.895  10.149  0.4877  0.3989  0.8984
  153MOL0     C20116   6.320   5.529   9.639 -0.7819 -0.4040  0.6591
  153MOL0     C20117   6.213   5.480   9.563 -0.1040 -0.2720  0.4446
  153MOL0     C20118   5.906   5.345   9.311 -0.4343  0.0461  0.3772
  153MOL0     C20119   5.764   5.355   9.335  0.2322  0.7943  0.5236
  153MOL0     C20120   5.678   5.354   9.227 -0.4981  0.6963  0.2595
  153MOL0     C20121   5.724   5.355   9.096  0.0599 -0.2508  0.3515
  153MOL0     O20122   5.638   5.369   8.993  0.1804  0.2661  0.6163
  153MOL0     C20123   5.688   5.370   8.855  0.2612 -0.4606  0.1904
  153MOL0     C20124   5.688   5.224   8.795  0.6272  0.0188  0.6001
  153MOL0     C20125   5.640   5.219   8.644  0.6170  0.2385  0.3227
  153MOL0     C20126   5.489   5.241   8.624 -0.0962  0.0809 -1.8894
  153MOL0     C20127   5.460   5.230   8.481 -0.6541  0.4058  0.1988
  153MOL0     C20128   5.451   5.219   8.362  0.7816  0.4278  0.1834
  153MOL0     C20129   5.866   5.351   9.082 -0.7628  0.2269  0.7419
  153MOL0     C20130   5.957   5.346   9.180 -0.4380 -0.3048 -0.1635
  153MOL0     H20131   6.325   5.172   9.489 -0.2826  0.8912  0.5172
  153MOL0     H20132   6.533   5.273   9.616 -0.0164  0.5152  1.5336
  153MOL0     H20133   6.421   5.580   9.894  1.5059 -0.3768 -0.1871
  153MOL0     H20134   6.503   5.696   9.789 -2.9320  2.1273  3.2835
  153MOL0     H20135   6.733   5.586   9.870  2.1320  2.0123  2.2621
  153MOL0     H20136   6.636   5.502   9.990  2.3663  0.2950  0.5284
  153MOL0     H20137   6.565   5.736  10.062 -0.9274 -0.6331 -0.3167
  153MOL0     H20138   6.690   5.798   9.945  0.1302  0.4616  1.8531
  153MOL0     H20139   6.763   5.793  10.203  2.1132 -0.4121  0.7142
  153MOL0     H20140   6.775   5.622  10.169 -1.8462  1.1937  4.1763
  153MOL0     H20141   6.906   5.837  10.017 -1.8072  0.3467  1.9430
  153MOL0     H20142   6.929   5.667   9.977  1.2713  2.0121 -1.4166
  153MOL0     H20143   7.017   5.635  10.218 -3.7179 -0.7053 -2.0673
  153MOL0     H20144   7.018   5.814  10.242  1.3092  0.2581 -0.3238
  153MOL0     H20145   7.173   5.691  10.027 -2.6521  2.0795 -1.8435
  153MOL0     H20146   7.166   5.859  10.097 -0.5484 -0.2706 -1.2864
  153MOL0     H20147   7.319   5.630  10.201  3.2922  1.4393  3.8030
  153MOL0     H20148   7.220   5.711  10.318  0.0074  2.4273  0.4381
  153MOL0     H20149   7.414   5.790  10.459  0.3792  1.7348  0.9743
  153MOL0     H20150   7.613   5.914  10.537  3.5590  2.1715  1.6543
  153MOL0     H20151   7.680   6.029  10.424  0.9182 -0.0468 -0.1382
  153MOL0     H20152   7.767   5.803  10.302  2.8088 -1.7618  0.5203
  153MOL0     H20153   7.734   5.736  10.455 -0.0368  0.1423 -0.5111
  153MOL0     H20154   7.971   5.833  10.439 -0.8368 -1.1028  0.4471
  153MOL0     H20155   7.911   5.989  10.443  4.0147 -0.4796 -0.5382
  153MOL0     H20156   7.824   5.966  10.665 -1.4004  0.2036  0.2617
  153MOL0     H20157   7.992   5.902  10.663 -0.3420  1.8035 -0.9666
  153MOL0     H20158   7.633   5.607  10.695 -3.7333 -1.3343  1.7505
  153MOL0     H20159   7.517   5.545  10.889 -3.5423  1.5793  0.8995
  153MOL0     H20160   7.454   5.519  11.375  1.8970  0.5624 -2.5247
  153MOL0     H20161   7.326   5.516  11.592 -2.8876 -0.0856 -1.9588
  153MOL0     H20162   7.253   5.901  11.788 -0.9311 -0.4532 -1.3732
  153MOL0     H20163   7.205   5.783  11.897  1.3040 -2.6958 -0.4064
  153MOL0     H20164   7.003   5.826  11.819  1.2614  2.3427  0.2283
  153MOL0     H20165   7.062   5.736  11.661 -0.6728 -0.8155 -0.4755
  153MOL0     H20166   7.076   5.924  11.550  0.3279  0.9564 -0.5611
  153MOL0     H20167   7.119   6.034  11.683 -1.9886  0.8706  3.0452
  153MOL0     H20168   6.847   5.929  11.725  0.3137  1.1957  1.9736
  153MOL0     H20169   6.929   6.079  11.758 -0.9057  0.8797 -0.0910
  153MOL0     H20170   6.762   6.096  11.568 -0.1391 -1.1082  0.0890
  153MOL0     H20171   6.862   5.985  11.471 -2.3728 -0.4751  0.2281
  153MOL0     H20172   7.050   6.142  11.501 -0.2073 -3.2852  1.8706
  153MOL0     H20173   6.948   6.253  11.583  2.6915 -0.8138  0.0119
  153MOL0     H20174   6.906   6.155  11.293  3.4574  0.7405 -1.0044
  153MOL0     H20175   6.779   6.238  11.387  0.3297 -2.7150  2.7398
  153MOL0     H20176   7.042   6.325  11.255 -2.2636 -1.9628 -1.5109
  153MOL0     H20177   6.999   6.417  11.401  0.3037 -0.7827  1.1672
  153MOL0     H20178   7.364   5.933  11.628  0.3298 -2.6102  4.0322
  153MOL0     H20179   7.479   5.944  11.389  0.1000 -0.4606  0.2449
  153MOL0     H20180   7.735   5.852  11.117  0.9823 -0.0893 -0.6139
  153MOL0     H20181   7.879   5.886  10.915 -1.0982  2.5080  0.5197
  153MOL0     H20182   6.295   5.628   9.676 -3.4654 -0.6397 -0.2749
  153MOL0     H20183   6.133   5.552   9.551  1.5989  1.3628 -1.9477
  153MOL0     H20184   5.710   5.366   9.429 -0.9902 -0.1869 -0.0251
  153MOL0     H20185   5.572   5.355   9.248 -0.6012  1.8386 -0.2370
  153MOL0     H20186   5.782   5.424   8.840 -0.7389  0.5308 -3.6626
  153MOL0     H20187   5.625   5.431   8.790 -0.0977  1.8088  2.5158
  153MOL0     H20188   5.793   5.191   8.796  0.6526  0.0948  0.4447
  153MOL0     H20189   5.637   5.151   8.858 -0.7572  0.3938 -0.0518
  153MOL0     H20190   5.665   5.120   8.605 -0.1622  0.1010  0.1524
  153MOL0     H20191   5.702   5.291   8.589 -0.8668  0.5362 -1.0012
  153MOL0     H20192   5.439   5.162   8.681  0.6767 -0.6506 -2.2140
  153MOL0     H20193   5.456   5.337   8.665  4.3087 -0.0001  2.8818
  153MOL0     H20194   5.439   5.207   8.257 -1.2351 -1.4863  0.5621
  153MOL0     H20195   5.907   5.363   8.983  0.2656 -1.7914  0.8775
  153MOL0     H20196   6.065   5.340   9.166 -0.3000  0.1394  0.6629
  154MOL0     O20197   3.211   1.211   7.410  0.1002  0.1489 -0.6521
  154MOL0     C20198   3.235   1.168   7.526 -0.2270  0.0300  0.7191
  154MOL0     O20199   3.171   1.072   7.597  0.1007  0.0943  0.2307
  154MOL0     C20200   3.088   0.991   7.524 -0.0181  0.0202  0.5429
  154MOL0     C20201   3.107   0.855   7.495  0.5131 -0.1605 -0.5868
  154MOL0     C20202   3.000   0.792   7.429 -0.2955 -0.6709  0.6259
  154MOL0     C20203   2.887   0.854   7.381 -0.2162  0.3024  1.1072
  154MOL0     O20204   2.796   0.768   7.317 -0.8534 -0.7133  0.0949
  154MOL0     C20205   2.687   0.834   7.249  1.1314 -0.2897  0.6190
  154MOL0     C20206   2.581   0.729   7.222  0.0783  0.0756  0.1242
  154MOL0     C20207   2.473   0.792   7.128 -0.1444 -0.4832  0.5506
  154MOL0     C20208   2.373   0.878   7.213  0.9057 -0.7876  0.9930
  154MOL0     C20209   2.283   0.957   7.125  0.4628 -0.1507  0.3651
  154MOL0     C20210   2.176   0.873   7.050 -0.0423  1.0292 -1.0254
  154MOL0     C20211   2.061   0.818   7.141  0.5447 -0.1410 -0.2214
  154MOL0     C20212   1.959   0.729   7.080  0.9864 -0.5884  0.4232
  154MOL0     N20213   1.998   0.662   6.954 -0.0319 -0.0621 -0.1474
  154MOL0     C20214   1.993   0.708   6.823  1.0954  0.2477  0.2074
  154MOL0     C20215   2.027   0.600   6.749  0.3469 -0.4894 -0.2013
  154MOL0     C20216   2.059   0.604   6.596  0.4779  0.4938 -0.4432
  154MOL0     C20217   1.941   0.657   6.511  1.4321  0.0976 -0.0528
  154MOL0     C20218   1.978   0.636   6.366 -0.1621  0.9258  1.2266
  154MOL0     C20219   1.875   0.698   6.277  0.4162 -1.1520 -0.4663
  154MOL0     O20220   1.916   0.744   6.145 -0.0293  0.3894 -0.4424
  154MOL0     C20221   1.891   0.669   6.032  0.4706  0.0513 -0.0706
  154MOL0     C20222   1.898   0.735   5.913 -0.5584 -0.0961  0.7106
  154MOL0     C20223   1.873   0.669   5.792  0.1237  0.0953  0.3094
  154MOL0     C20224   1.830   0.533   5.785 -0.6132 -0.9422 -0.8220
  154MOL0     C20225   1.815   0.453   5.652  0.1523 -0.2207  0.2636
  154MOL0     O20226   1.799   0.524   5.540  0.5158  0.7784  0.4181
  154MOL0     C20227   1.783   0.457   5.416 -0.1592 -0.3906  0.3355
  154MOL0     C20228   1.716   0.525   5.315 -0.6024 -0.5020 -0.2510
  154MOL0     C20229   1.715   0.475   5.184  0.1494  0.2273 -0.2699
  154MOL0     C20230   1.771   0.353   5.151 -0.0560 -0.1416  0.0478
  154MOL0     O20231   1.764   0.317   5.014  0.1386 -0.1592  0.3720
  154MOL0     C20232   1.822   0.193   4.981  0.7896 -0.6209  0.5258
  154MOL0     C20233   1.775   0.162   4.846 -0.5049  0.1289  0.0570
  154MOL0     C20234   1.622   0.144   4.818 -0.0331 -0.6408  0.4725
  154MOL0     C20235   1.589   0.116   4.670 -0.5775 -0.6160 -0.0982
  154MOL0     C20236   1.442   0.086   4.644  0.2653 -0.4591  0.9096
  154MOL0     C20237   1.413  -0.062   4.682 -0.3216 -0.3045  0.2805
  154MOL0     C20238   1.269  -0.088   4.664 -0.4862 -0.3769 -0.4260
  154MOL0     C20239   1.255  -0.127   4.510  1.0848  0.8473  0.6941
  154MOL0    Cl20240   1.075  -0.149   4.482 -0.5979 -0.1195  0.0885
  154MOL0     C20241   1.836   0.278   5.246  0.9646 -0.1185 -0.4257
  154MOL0     C20242   1.837   0.329   5.381  0.4638  0.3841  0.1855
  154MOL0     O20243   1.789   0.336   5.668  0.4497  0.1661 -0.2299
  154MOL0     C20244   1.822   0.471   5.913 -1.1748 -0.4705  0.7992
  154MOL0     C20245   1.862   0.532   6.027  0.3441 -0.4950 -0.9324
  154MOL0     N20246   2.034   0.488   6.824  0.2152  0.2097 -0.9340
  154MOL0     N20247   2.023   0.529   6.951  0.1582  0.3457  0.1511
  154MOL0     C20248   2.872   0.989   7.412 -0.2598  0.0820 -0.7346
  154MOL0     C20249   2.966   1.050   7.492 -0.7769  0.8425 -0.3693
  154MOL0     C20250   3.346   1.243   7.593  0.0697  0.6910  0.2793
  154MOL0     C20251   3.426   1.344   7.530  0.2627  1.1060 -0.0496
  154MOL0     C20252   3.501   1.433   7.610 -0.7677  0.3426  0.9615
  154MOL0     C20253   3.516   1.422   7.751 -0.6371 -0.1374 -1.3175
  154MOL0     O20254   3.602   1.514   7.806 -0.2297  0.2514 -0.0067
  154MOL0     C20255   3.609   1.515   7.953  0.1696  0.1772 -0.4127
  154MOL0     C20256   3.519   1.635   8.017 -0.8314  0.1554 -1.0047
  154MOL0     C20257   3.367   1.607   8.021  0.3696  0.1172  0.0104
  154MOL0     C20258   3.324   1.523   8.140  1.1166  0.4421  1.0500
  154MOL0     C20259   3.174   1.507   8.150  0.1413 -0.8815  0.0200
  154MOL0     C20260   3.049   1.490   8.155 -0.4719 -0.5327  0.3239
  154MOL0     C20261   3.439   1.314   7.812 -0.5841 -0.1902 -0.3811
  154MOL0     C20262   3.360   1.226   7.736 -0.6742 -0.0931 -0.1119
  154MOL0     H20263   3.199   0.801   7.515  0.7437 -0.8578 -3.2129
  154MOL0     H20264   3.010   0.689   7.396 -0.6154 -0.3836 -0.4262
  154MOL0     H20265   2.722   0.878   7.155 -0.7813 -2.2016 -1.1072
  154MOL0     H20266   2.652   0.916   7.313  0.4646 -0.3056  0.2855
  154MOL0     H20267   2.529   0.693   7.311 -0.7041  3.1932  1.0222
  154MOL0     H20268   2.626   0.639   7.179  1.8633  0.3126  1.3727
  154MOL0     H20269   2.413   0.709   7.091 -0.4259 -0.1560  0.2602
  154MOL0     H20270   2.515   0.849   7.045  2.8580 -1.9406  0.9520
  154MOL0     H20271   2.309   0.824   7.283  0.7227 -0.3712  1.1483
  154MOL0     H20272   2.436   0.946   7.270 -0.1736  0.7101  0.4701
  154MOL0     H20273   2.350   1.008   7.055  0.0194 -2.5732 -2.0275
  154MOL0     H20274   2.233   1.042   7.172  0.4169  1.9322 -3.1389
  154MOL0     H20275   2.219   0.789   6.995  0.5405  3.3852 -4.4831
  154MOL0     H20276   2.128   0.933   6.972 -0.9348  1.0282 -0.4926
  154MOL0     H20277   2.103   0.767   7.228 -0.7184 -0.2439  0.3375
  154MOL0     H20278   2.005   0.903   7.180  0.9954  0.2510 -0.4097
  154MOL0     H20279   1.870   0.789   7.058  1.8600  1.5162  2.1736
  154MOL0     H20280   1.940   0.644   7.146  1.2867 -1.9800 -1.2310
  154MOL0     H20281   1.970   0.811   6.798 -2.8094 -0.4965  0.2175
  154MOL0     H20282   2.087   0.500   6.582  2.7907  0.8452  0.9809
  154MOL0     H20283   2.151   0.662   6.588  0.8817  0.7320  3.5225
  154MOL0     H20284   1.932   0.765   6.527  1.9682  0.4371 -1.7801
  154MOL0     H20285   1.844   0.613   6.535 -0.0349  2.4843 -1.2274
  154MOL0     H20286   2.070   0.694   6.352 -0.5410  1.1133 -0.8145
  154MOL0     H20287   1.995   0.530   6.345 -0.2560  1.0278  0.6039
  154MOL0     H20288   1.838   0.793   6.318 -1.2697 -1.7221 -0.5931
  154MOL0     H20289   1.786   0.634   6.271  1.4925 -2.6845 -0.4264
  154MOL0     H20290   1.931   0.838   5.907 -0.1614 -0.2284  0.5852
  154MOL0     H20291   1.883   0.719   5.696  1.5716 -2.1382 -0.7847
  154MOL0     H20292   1.681   0.626   5.328 -0.5721 -0.2755 -1.7299
  154MOL0     H20293   1.672   0.526   5.098  1.1542  0.0348 -0.8998
  154MOL0     H20294   1.796   0.109   5.046  2.4030 -0.3113  1.6260
  154MOL0     H20295   1.931   0.204   4.988  1.0006 -0.6379 -1.7352
  154MOL0     H20296   1.814   0.063   4.820 -1.2534 -0.4770  1.1513
  154MOL0     H20297   1.820   0.228   4.771 -0.4945 -2.6666 -2.5936
  154MOL0     H20298   1.570   0.236   4.848 -0.1882 -0.2303 -0.9901
  154MOL0     H20299   1.593   0.064   4.887  0.7879 -3.6342 -2.3998
  154MOL0     H20300   1.612   0.213   4.624  1.1858 -0.3531  1.2316
  154MOL0     H20301   1.645   0.041   4.613 -2.0528 -0.3323 -2.0326
  154MOL0     H20302   1.425   0.108   4.539  0.6383  2.7804  1.4211
  154MOL0     H20303   1.377   0.155   4.700 -0.8003 -0.8249  0.1575
  154MOL0     H20304   1.436  -0.064   4.789 -1.6467  1.7920  0.6698
  154MOL0     H20305   1.480  -0.125   4.622  1.1457 -1.3641  2.8404
  154MOL0     H20306   1.248  -0.177   4.724  2.6852 -1.3834 -0.6029
  154MOL0     H20307   1.211   0.001   4.690  2.7551  2.4129 -1.9307
  154MOL0     H20308   1.311  -0.220   4.497  0.2612  0.4587 -0.2494
  154MOL0     H20309   1.297  -0.060   4.434  0.6409 -0.0366 -0.3496
  154MOL0     H20310   1.889   0.185   5.224 -2.5767 -2.2810 -0.5497
  154MOL0     H20311   1.890   0.282   5.463 -0.3092  1.9005  1.6082
  154MOL0     H20312   1.803   0.364   5.911 -1.9101 -0.3914  2.3834
  154MOL0     H20313   1.882   0.466   6.112 -2.5330  0.7232  0.8299
  154MOL0     H20314   2.784   1.043   7.378 -0.3996  0.8521  0.7607
  154MOL0     H20315   2.956   1.157   7.510 -0.2622  0.9114 -0.4890
  154MOL0     H20316   3.398   1.355   7.425 -1.2481 -5.4418 -0.7844
  154MOL0     H20317   3.565   1.506   7.561  0.4260 -1.4300 -0.2545
  154MOL0     H20318   3.717   1.519   7.971  0.9387 -0.2707 -4.0895
  154MOL0     H20319   3.597   1.418   8.003  3.7792 -0.0268  0.3669
  154MOL0     H20320   3.570   1.642   8.114 -3.4120 -3.1413  0.7726
  154MOL0     H20321   3.550   1.724   7.962  1.6227 -0.2429 -0.3835
  154MOL0     H20322   3.337   1.553   7.931  0.3537 -2.3721  1.4402
  154MOL0     H20323   3.314   1.702   8.035  1.3535  1.0586 -2.1700
  154MOL0     H20324   3.363   1.421   8.136  0.5652  0.2643 -0.0335
  154MOL0     H20325   3.364   1.564   8.233 -0.5114  0.0494  1.9811
  154MOL0     H20326   2.949   1.463   8.182 -0.2466 -0.6857  1.0277
  154MOL0     H20327   3.445   1.295   7.919  0.9579 -2.1008 -0.7474
  154MOL0     H20328   3.296   1.157   7.790 -1.3502  1.2820  0.8883
  155MOL0     O20329   6.295   4.397   1.438  0.1816 -0.1899  0.5868
  155MOL0     C20330   6.211   4.302   1.436 -0.4462 -1.2638 -0.4981
  155MOL0     O20331   6.074   4.325   1.425  0.7376  1.1408 -0.7502
  155MOL0     C20332   6.005   4.440   1.431 -0.0017 -0.8318  0.4611
  155MOL0     C20333   6.039   4.556   1.504 -0.0984  0.3336  0.7794
  155MOL0     C20334   5.957   4.670   1.513  0.0368 -0.1211  0.2559
  155MOL0     C20335   5.842   4.671   1.441 -0.0516 -0.5714  0.1262
  155MOL0     O20336   5.743   4.767   1.468  0.1401 -0.3975 -0.6491
  155MOL0     C20337   5.767   4.902   1.426 -0.6157  0.8657 -0.7617
  155MOL0     C20338   5.709   4.937   1.288  0.0672  0.6877  0.4618
  155MOL0     C20339   5.561   4.923   1.277  0.0739 -0.0597 -0.9852
  155MOL0     C20340   5.528   4.866   1.146  0.8403  0.2076 -1.4802
  155MOL0     C20341   5.373   4.867   1.133 -0.2596 -0.3531 -0.6115
  155MOL0     C20342   5.329   4.768   1.024 -0.6535  0.1366  0.2227
  155MOL0     C20343   5.370   4.791   0.882 -0.7841  0.2604 -0.4717
  155MOL0     C20344   5.287   4.898   0.816 -0.4881 -0.4363 -0.2073
  155MOL0     N20345   5.276   4.894   0.660  0.4614  0.4090  0.3206
  155MOL0     C20346   5.340   4.985   0.576 -1.2447  0.3860  1.6988
  155MOL0     C20347   5.314   4.934   0.452  0.4066  0.5487  0.6562
  155MOL0     C20348   5.357   4.972   0.309  0.2145 -0.1026 -0.2200
  155MOL0     C20349   5.512   4.967   0.283  0.0289  0.0358  0.8188
  155MOL0     C20350   5.555   4.833   0.231 -0.2481 -0.0327  0.6626
  155MOL0     C20351   5.560   4.743   0.347 -0.4052  0.3307  0.9801
  155MOL0     O20352   5.618   4.797   0.465  0.7216  0.7733 -0.7732
  155MOL0     C20353   5.606   4.728   0.583 -0.5395  0.3282  0.4403
  155MOL0     C20354   5.700   4.765   0.683 -0.3878  0.4796 -0.1354
  155MOL0     C20355   5.717   4.676   0.795  0.1489 -1.2811  0.1227
  155MOL0     C20356   5.640   4.564   0.815  0.1158 -0.1313 -0.5400
  155MOL0     C20357   5.638   4.491   0.945 -0.0906  0.9892 -0.0345
  155MOL0     O20358   5.563   4.372   0.947 -0.3127  0.6849 -0.2778
  155MOL0     C20359   5.549   4.299   1.060 -0.2080  0.6468 -0.2909
  155MOL0     C20360   5.535   4.354   1.187  0.0870 -0.5146 -0.2408
  155MOL0     C20361   5.525   4.276   1.303 -0.1737 -0.7676 -0.2216
  155MOL0     C20362   5.498   4.140   1.292 -0.1779  0.4501 -0.2190
  155MOL0     O20363   5.461   4.070   1.405  0.6124  0.2696  0.3056
  155MOL0     C20364   5.331   4.021   1.390 -0.6718  0.0967 -0.3209
  155MOL0     C20365   5.298   3.926   1.500 -0.4647  0.4927 -0.0891
  155MOL0     C20366   5.306   3.996   1.633 -0.0574  0.6782 -0.6722
  155MOL0     C20367   5.269   3.894   1.746 -0.3530 -1.0623 -0.3643
  155MOL0     C20368   5.267   3.956   1.881 -0.9673 -1.0326 -0.6556
  155MOL0     C20369   5.186   3.851   1.965  0.3335  0.6433 -0.4887
  155MOL0     C20370   5.143   3.927   2.089  0.6073 -0.4380 -0.3234
  155MOL0     C20371   5.066   3.842   2.189  0.1189  0.0302 -0.2540
  155MOL0    Cl20372   4.894   3.854   2.158 -0.1103 -0.2316 -0.0539
  155MOL0     C20373   5.511   4.078   1.167  0.4935 -0.6983  0.0785
  155MOL0     C20374   5.530   4.158   1.047  1.0430  0.2186  0.3023
  155MOL0     O20375   5.706   4.533   1.040 -0.5639  1.0785 -0.2691
  155MOL0     C20376   5.547   4.533   0.712  0.7869  0.5042 -0.4161
  155MOL0     C20377   5.537   4.605   0.603  0.2814 -0.3835 -0.4942
  155MOL0     N20378   5.228   4.825   0.469 -0.4649  0.7963  0.0918
  155MOL0     N20379   5.223   4.795   0.588 -0.4049  0.1556 -0.1559
  155MOL0     C20380   5.820   4.564   1.357  0.0051 -0.5791  0.4005
  155MOL0     C20381   5.899   4.456   1.350 -0.2085  0.6365 -0.1019
  155MOL0     C20382   6.264   4.158   1.428  0.3723  0.2705 -0.3443
  155MOL0     C20383   6.388   4.116   1.382  0.5063 -0.0540  0.4466
  155MOL0     C20384   6.430   3.982   1.364 -0.5499  0.3375 -0.5354
  155MOL0     C20385   6.349   3.879   1.413  0.4997  0.5794  0.3221
  155MOL0     O20386   6.389   3.744   1.426  0.1949 -0.1041  0.1373
  155MOL0     C20387   6.509   3.700   1.355  0.1574  0.5626  0.3916
  155MOL0     C20388   6.488   3.548   1.355  0.1396  0.0221 -0.3184
  155MOL0     C20389   6.406   3.504   1.232  0.3392  0.2553  0.3581
  155MOL0     C20390   6.281   3.431   1.282  0.6831  0.6133  0.9412
  155MOL0     C20391   6.188   3.526   1.345 -0.3882 -0.2132  0.3205
  155MOL0     C20392   6.127   3.593   1.423 -1.1472 -0.4236 -0.0108
  155MOL0     C20393   6.222   3.915   1.460  0.6630 -0.8229 -0.1255
  155MOL0     C20394   6.181   4.049   1.471 -0.2089  0.1185 -0.4508
  155MOL0     H20395   6.132   4.559   1.560 -2.2689  2.2307  4.7028
  155MOL0     H20396   5.970   4.742   1.593 -0.1909  0.1025  0.0926
  155MOL0     H20397   5.873   4.928   1.426  0.3341 -2.3779  1.1931
  155MOL0     H20398   5.717   4.960   1.506  1.1237 -1.1019  1.9233
  155MOL0     H20399   5.752   4.863   1.219 -1.4276 -0.1015  0.3468
  155MOL0     H20400   5.748   5.035   1.259  1.0796 -0.3167 -1.8084
  155MOL0     H20401   5.516   5.021   1.290 -0.5408 -0.4478 -0.0665
  155MOL0     H20402   5.525   4.861   1.360  1.3715 -1.1002 -1.1572
  155MOL0     H20403   5.562   4.935   1.069 -0.5433 -1.0553 -3.3207
  155MOL0     H20404   5.576   4.770   1.125  1.7399  0.3297 -0.0955
  155MOL0     H20405   5.323   4.962   1.115 -0.3098 -0.9272 -4.5748
  155MOL0     H20406   5.328   4.821   1.221 -3.6698  1.2333 -1.3995
  155MOL0     H20407   5.220   4.768   1.021 -0.6633  1.6199 -0.4902
  155MOL0     H20408   5.354   4.665   1.049 -0.3941 -0.5221 -2.4587
  155MOL0     H20409   5.476   4.810   0.867 -1.1096  2.4868 -0.2484
  155MOL0     H20410   5.352   4.694   0.833  2.3128 -0.3513 -0.5506
  155MOL0     H20411   5.321   4.995   0.853 -0.3206 -0.4953 -0.2099
  155MOL0     H20412   5.188   4.883   0.860 -0.3755 -3.0945 -0.7373
  155MOL0     H20413   5.406   5.068   0.598  1.5836 -1.4012  0.4501
  155MOL0     H20414   5.334   5.078   0.296 -2.9642 -0.7773 -1.0556
  155MOL0     H20415   5.305   4.917   0.229 -1.8595  1.7692 -0.2435
  155MOL0     H20416   5.572   5.009   0.364  1.0680 -0.8139  0.5156
  155MOL0     H20417   5.529   5.043   0.206 -0.3370 -0.0425  0.6569
  155MOL0     H20418   5.490   4.788   0.155  0.1343 -0.9596  0.8742
  155MOL0     H20419   5.659   4.846   0.201 -0.2968  1.5808  1.0866
  155MOL0     H20420   5.621   4.658   0.316 -0.6593  0.4544  0.0966
  155MOL0     H20421   5.457   4.712   0.369  0.1253  1.1870  5.4656
  155MOL0     H20422   5.755   4.858   0.677  0.9991 -0.3944 -3.2165
  155MOL0     H20423   5.796   4.694   0.868 -1.4723 -2.1223  2.1827
  155MOL0     H20424   5.519   4.461   1.190 -0.6836 -0.5410 -2.2720
  155MOL0     H20425   5.526   4.323   1.401 -1.7842 -0.1722 -0.4641
  155MOL0     H20426   5.323   3.958   1.301  0.5785 -1.0615  0.3545
  155MOL0     H20427   5.259   4.103   1.394 -0.3459  0.3939  3.2415
  155MOL0     H20428   5.365   3.839   1.504 -0.5552  0.3958 -0.6316
  155MOL0     H20429   5.197   3.888   1.483  0.3875 -1.0095 -2.2167
  155MOL0     H20430   5.236   4.079   1.649 -1.1437 -0.5119  1.0588
  155MOL0     H20431   5.408   4.035   1.643 -0.6966  3.1524 -2.6482
  155MOL0     H20432   5.169   3.856   1.722 -0.2579 -1.2981 -0.3956
  155MOL0     H20433   5.332   3.805   1.735  1.2076 -0.0667  0.1883
  155MOL0     H20434   5.216   4.051   1.861  1.2009 -0.2460 -2.8867
  155MOL0     H20435   5.364   3.964   1.931 -1.1078 -1.1288 -0.3662
  155MOL0     H20436   5.249   3.764   1.990 -0.5649  0.4551  1.3237
  155MOL0     H20437   5.094   3.829   1.911 -0.5947  2.9923  0.0345
  155MOL0     H20438   5.231   3.964   2.143  0.5146 -2.9465  1.7756
  155MOL0     H20439   5.089   4.017   2.056  2.2197  0.2253 -1.2402
  155MOL0     H20440   5.081   3.873   2.293  0.4495  2.5591 -0.9797
  155MOL0     H20441   5.101   3.739   2.193 -1.2435 -0.4358  0.7599
  155MOL0     H20442   5.500   3.970   1.155 -1.7919 -0.2750 -2.5972
  155MOL0     H20443   5.548   4.109   0.952  0.8622  1.8123 -0.5933
  155MOL0     H20444   5.474   4.453   0.719  3.3800 -1.8662  1.4588
  155MOL0     H20445   5.465   4.562   0.534  0.3738  1.9678 -2.1544
  155MOL0     H20446   5.726   4.576   1.305  1.3297 -2.0372 -2.5218
  155MOL0     H20447   5.877   4.376   1.280 -1.1894  0.7961 -0.0012
  155MOL0     H20448   6.467   4.188   1.363  3.1542 -2.9387 -0.3654
  155MOL0     H20449   6.520   3.952   1.310  0.1992 -0.8490  1.2650
  155MOL0     H20450   6.608   3.721   1.398 -0.6601 -1.2613  3.4656
  155MOL0     H20451   6.508   3.742   1.254  0.1190 -0.0377  0.1392
  155MOL0     H20452   6.585   3.497   1.358 -0.0603 -0.4023 -0.8243
  155MOL0     H20453   6.437   3.523   1.448  0.3404  0.4682 -0.0900
  155MOL0     H20454   6.462   3.443   1.161  1.1367  2.1851 -0.7714
  155MOL0     H20455   6.374   3.592   1.175  0.2730 -0.8410 -1.3624
  155MOL0     H20456   6.221   3.382   1.204 -0.4149  2.7472  0.3853
  155MOL0     H20457   6.324   3.357   1.351 -0.6433 -1.6109 -0.4885
  155MOL0     H20458   6.082   3.637   1.510  0.3901  0.7028  0.2591
  155MOL0     H20459   6.157   3.838   1.500 -1.1571  0.9074  0.4066
  155MOL0     H20460   6.089   4.082   1.519  0.2621 -0.1746  0.6932
  156MOL0     O20461   4.054   3.845   6.059 -0.7473 -0.0992 -0.1837
  156MOL0     C20462   3.984   3.754   6.092 -0.2564  0.7016 -0.6066
  156MOL0     O20463   3.860   3.724   6.041  0.0771  0.2347 -0.0064
  156MOL0     C20464   3.815   3.774   5.926 -0.2012 -0.0185 -0.4321
  156MOL0     C20465   3.885   3.871   5.837  1.1168  0.1511  0.3301
  156MOL0     C20466   3.813   3.920   5.730 -0.2887 -0.1099 -0.3208
  156MOL0     C20467   3.673   3.891   5.708 -0.3286 -0.2630  0.0581
  156MOL0     O20468   3.604   3.938   5.601  0.1083  0.5505 -0.9240
  156MOL0     C20469   3.632   4.078   5.567 -0.5648 -0.2346 -0.3482
  156MOL0     C20470   3.491   4.147   5.543 -0.5330 -0.3754 -0.4826
  156MOL0     C20471   3.476   4.193   5.402 -0.0763  0.3023  0.2735
  156MOL0     C20472   3.579   4.302   5.363 -0.8262  0.8920  0.2642
  156MOL0     C20473   3.554   4.341   5.213 -0.0009 -0.1198  0.0120
  156MOL0     C20474   3.583   4.225   5.110  0.1212  0.6300  1.0035
  156MOL0     C20475   3.722   4.163   5.103  0.8232 -0.1806 -0.3464
  156MOL0     C20476   3.787   4.136   4.969  0.2456  0.1078 -0.4159
  156MOL0     N20477   3.682   4.054   4.901  0.3389 -0.3769 -0.4916
  156MOL0     C20478   3.569   4.097   4.829 -0.7174  0.0163 -0.2320
  156MOL0     C20479   3.510   3.982   4.800 -0.7323  0.2930  0.4889
  156MOL0     C20480   3.388   3.966   4.717  0.3991 -0.6284  0.9602
  156MOL0     C20481   3.403   3.854   4.605 -0.6919 -0.4377 -0.1632
  156MOL0     C20482   3.294   3.857   4.507 -0.6651 -0.8657  0.4154
  156MOL0     C20483   3.286   3.985   4.420  0.2198 -0.3925  1.7485
  156MOL0     O20484   3.207   3.961   4.305  0.0664 -0.8971  0.1821
  156MOL0     C20485   3.088   4.028   4.285 -0.6013  0.5241  0.5316
  156MOL0     C20486   3.026   4.011   4.157 -0.7408  0.1302 -1.0153
  156MOL0     C20487   2.909   4.069   4.127  0.2781 -0.9559 -0.3363
  156MOL0     C20488   2.847   4.166   4.207 -0.1544  0.5096 -1.1842
  156MOL0     C20489   2.714   4.221   4.172  0.4441 -0.0581  0.2876
  156MOL0     O20490   2.681   4.209   4.040  0.4087 -0.2589 -0.1746
  156MOL0     C20491   2.561   4.264   4.005 -0.2046  0.9184  0.1858
  156MOL0     C20492   2.442   4.194   4.022 -0.2866 -0.1624 -0.4691
  156MOL0     C20493   2.318   4.245   3.977  0.2635 -0.0168  0.0394
  156MOL0     C20494   2.309   4.373   3.915 -0.4274 -0.2296  0.1747
  156MOL0     O20495   2.191   4.443   3.877 -0.4133 -0.1804  0.5729
  156MOL0     C20496   2.058   4.384   3.876  0.1799  0.5130 -0.1922
  156MOL0     C20497   2.000   4.361   4.024 -0.2500 -0.3144 -1.2531
  156MOL0     C20498   1.893   4.260   4.027  0.2396  0.6637 -0.2795
  156MOL0     C20499   1.852   4.209   4.170  0.0539 -1.1981  0.3762
  156MOL0     C20500   1.697   4.165   4.154 -0.3208 -0.7294  0.2249
  156MOL0     C20501   1.643   4.097   4.281 -0.1595  0.6261  0.2723
  156MOL0     C20502   1.665   4.188   4.402  0.4600 -0.1020  0.3816
  156MOL0     C20503   1.562   4.298   4.420 -0.6206  0.0458 -1.1461
  156MOL0    Cl20504   1.625   4.460   4.474  0.4613 -0.4420 -0.4458
  156MOL0     C20505   2.434   4.441   3.908  0.5925 -0.1300  0.1254
  156MOL0     C20506   2.558   4.385   3.945  0.4070  0.2176 -0.1262
  156MOL0     O20507   2.647   4.273   4.264 -0.5724 -0.2936  0.0957
  156MOL0     C20508   2.900   4.179   4.339  0.4588  0.0864 -0.1821
  156MOL0     C20509   3.011   4.114   4.377 -0.2027 -0.1749 -0.5208
  156MOL0     N20510   3.573   3.880   4.868  0.7210 -0.1199 -0.2088
  156MOL0     N20511   3.683   3.916   4.905 -0.6795 -0.1299 -0.6704
  156MOL0     C20512   3.614   3.803   5.788  0.3791  0.8487  0.0843
  156MOL0     C20513   3.680   3.745   5.901 -1.3258 -0.3646 -0.2006
  156MOL0     C20514   4.039   3.656   6.191  0.0095  0.3256 -1.1497
  156MOL0     C20515   3.944   3.588   6.267 -0.5728 -0.1815 -1.7484
  156MOL0     C20516   3.991   3.483   6.352 -0.6662 -0.3246 -0.5226
  156MOL0     C20517   4.126   3.455   6.357 -0.3016 -0.7599 -0.3046
  156MOL0     O20518   4.164   3.349   6.442  0.0848 -0.6728 -0.3745
  156MOL0     C20519   4.301   3.318   6.472  0.6462  0.4166 -1.0128
  156MOL0     C20520   4.367   3.419   6.557  0.1590  0.5704  0.4630
  156MOL0     C20521   4.502   3.364   6.608  0.3081 -0.6432 -0.5175
  156MOL0     C20522   4.549   3.435   6.740 -0.9322 -0.6908 -0.1965
  156MOL0     C20523   4.617   3.562   6.711 -0.3645  0.1411  0.1578
  156MOL0     C20524   4.674   3.665   6.681  0.1009 -0.1998 -0.5791
  156MOL0     C20525   4.223   3.539   6.301  0.5152 -0.0116  1.0198
  156MOL0     C20526   4.176   3.628   6.202 -0.4943  0.7286 -0.1903
  156MOL0     H20527   3.982   3.911   5.862  0.4332  0.0425  3.7516
  156MOL0     H20528   3.853   3.996   5.663 -1.3764  0.6143 -0.1638
  156MOL0     H20529   3.685   4.076   5.472  2.2197  0.4548  1.1078
  156MOL0     H20530   3.699   4.134   5.633 -1.4161  3.1899 -2.1693
  156MOL0     H20531   3.485   4.236   5.607  1.0292  0.5504 -1.5425
  156MOL0     H20532   3.410   4.078   5.567  0.1960 -0.8814  0.5729
  156MOL0     H20533   3.379   4.243   5.394 -0.5198 -0.5986 -0.0262
  156MOL0     H20534   3.482   4.110   5.332  0.4236  0.3334  0.2783
  156MOL0     H20535   3.564   4.394   5.419  2.2220  2.5071 -1.3005
  156MOL0     H20536   3.678   4.268   5.395 -0.5859  3.2773  2.3446
  156MOL0     H20537   3.609   4.433   5.192  0.7964 -1.0686 -2.4138
  156MOL0     H20538   3.447   4.361   5.199  0.2841  1.9405  0.4719
  156MOL0     H20539   3.572   4.266   5.009  1.8379 -0.5130  0.3151
  156MOL0     H20540   3.499   4.156   5.122 -0.5511  1.3670  0.6318
  156MOL0     H20541   3.784   4.232   5.162  0.2674  0.3677 -0.4012
  156MOL0     H20542   3.709   4.074   5.165  1.1049  3.8504  6.6198
  156MOL0     H20543   3.884   4.092   4.991 -0.1470  0.7154  3.1852
  156MOL0     H20544   3.812   4.225   4.910  0.5138 -0.3653 -1.0202
  156MOL0     H20545   3.544   4.196   4.793 -0.7246 -0.8432 -2.7287
  156MOL0     H20546   3.347   4.058   4.676 -1.1757 -1.1444  1.3041
  156MOL0     H20547   3.317   3.931   4.792  0.9704 -0.8816  1.3900
  156MOL0     H20548   3.404   3.763   4.665  0.6752  0.6208  1.5148
  156MOL0     H20549   3.497   3.877   4.554  0.3744  0.4578  2.0636
  156MOL0     H20550   3.303   3.772   4.438  0.3146 -1.1267  0.8423
  156MOL0     H20551   3.209   3.841   4.573  0.0711  1.3408  1.9921
  156MOL0     H20552   3.385   4.009   4.380 -1.2484  2.4665 -0.5132
  156MOL0     H20553   3.257   4.081   4.463  1.0734  1.8012 -2.0724
  156MOL0     H20554   3.066   3.941   4.085 -2.8320 -3.4203  0.9812
  156MOL0     H20555   2.863   4.051   4.030 -2.3432  0.5676  0.5262
  156MOL0     H20556   2.439   4.094   4.064  0.5646 -1.2074 -2.7637
  156MOL0     H20557   2.230   4.182   3.992 -0.1047  0.2160 -1.0241
  156MOL0     H20558   2.078   4.291   3.821 -3.5104  0.9150 -2.6030
  156MOL0     H20559   1.981   4.440   3.823 -0.0346 -0.8480 -1.3987
  156MOL0     H20560   1.971   4.459   4.065  3.0299 -0.2476  1.3457
  156MOL0     H20561   2.081   4.323   4.087 -2.7782  0.9162  3.1624
  156MOL0     H20562   1.909   4.169   3.968  0.8984 -0.4305  1.5094
  156MOL0     H20563   1.813   4.309   3.970 -0.3285  1.0056  0.7740
  156MOL0     H20564   1.911   4.126   4.208 -1.6430 -1.4556  2.6405
  156MOL0     H20565   1.853   4.300   4.231 -1.0801 -0.6453 -0.3744
  156MOL0     H20566   1.711   4.092   4.074  2.4541  0.3351 -0.3955
  156MOL0     H20567   1.648   4.255   4.118  1.3143  0.5784  1.0973
  156MOL0     H20568   1.683   4.001   4.316 -1.8515 -0.7754 -1.3732
  156MOL0     H20569   1.535   4.083   4.269 -0.0543 -0.0535  0.0551
  156MOL0     H20570   1.665   4.127   4.493 -2.3363 -2.1659 -0.8652
  156MOL0     H20571   1.770   4.216   4.411 -0.0524  1.9143  0.7091
  156MOL0     H20572   1.493   4.258   4.494 -0.3596  0.9793 -0.3823
  156MOL0     H20573   1.519   4.298   4.319  0.1302  0.0687 -1.4717
  156MOL0     H20574   2.436   4.540   3.865  0.1158  0.0838  0.5797
  156MOL0     H20575   2.648   4.422   3.897 -0.3793  4.5933  1.3688
  156MOL0     H20576   2.842   4.230   4.415 -1.8402 -1.2177 -0.9486
  156MOL0     H20577   3.055   4.120   4.476  1.8052  0.9616 -1.4296
  156MOL0     H20578   3.517   3.771   5.752  0.0617  3.7106 -1.8988
  156MOL0     H20579   3.639   3.671   5.969  1.9602 -2.9667 -0.8126
  156MOL0     H20580   3.837   3.603   6.260 -0.7690 -1.4996 -1.9735
  156MOL0     H20581   3.921   3.421   6.407 -1.5338 -1.2960 -2.5909
  156MOL0     H20582   4.354   3.279   6.384 -0.2302 -1.4781 -0.7636
  156MOL0     H20583   4.292   3.227   6.533 -0.0437  0.9589 -0.2856
  156MOL0     H20584   4.388   3.508   6.496  0.9401  0.2806  0.2969
  156MOL0     H20585   4.315   3.455   6.646  1.1966  2.5699  0.3363
  156MOL0     H20586   4.593   3.372   6.548  1.4118  0.2047  1.1864
  156MOL0     H20587   4.483   3.258   6.628  0.4054 -0.8416 -1.4424
  156MOL0     H20588   4.465   3.449   6.808  0.2226 -0.3833  1.1977
  156MOL0     H20589   4.619   3.363   6.783 -2.3269 -1.3378  1.0600
  156MOL0     H20590   4.734   3.752   6.662  1.6359 -1.3003 -0.9437
  156MOL0     H20591   4.328   3.513   6.292 -0.1889 -2.4550 -3.1384
  156MOL0     H20592   4.243   3.671   6.128 -0.5921  1.9320  0.3869
  157MOL0     O20593   6.503   1.816   3.956 -0.0652  0.3589  0.3615
  157MOL0     C20594   6.593   1.840   4.040  0.9560 -0.5804  0.4243
  157MOL0     O20595   6.630   1.966   4.075 -0.0465  0.3257  0.0064
  157MOL0     C20596   6.588   2.073   4.000  0.7319 -0.5470 -0.6019
  157MOL0     C20597   6.685   2.145   3.943 -0.5492 -0.4783 -0.0156
  157MOL0     C20598   6.650   2.256   3.866 -0.1559 -0.0801  1.1536
  157MOL0     C20599   6.518   2.299   3.849 -0.0932 -0.8154  0.0812
  157MOL0     O20600   6.471   2.408   3.783 -0.0388 -0.4961 -0.3402
  157MOL0     C20601   6.550   2.464   3.678 -0.8042  0.5738  0.6776
  157MOL0     C20602   6.659   2.556   3.732  0.2949  0.9065 -0.5637
  157MOL0     C20603   6.597   2.694   3.783  0.5232 -0.1889  0.1810
  157MOL0     C20604   6.691   2.784   3.868  0.5709  0.3708  0.3467
  157MOL0     C20605   6.781   2.868   3.771 -0.1778 -0.0323  0.5193
  157MOL0     C20606   6.718   2.991   3.712  0.4812 -0.3290  0.8648
  157MOL0     C20607   6.675   3.108   3.795  0.1921 -0.5629 -0.9985
  157MOL0     C20608   6.634   3.228   3.704  0.7780  0.6112  0.6326
  157MOL0     N20609   6.514   3.188   3.620 -0.5659  0.0794 -0.2208
  157MOL0     C20610   6.382   3.184   3.671 -0.0415 -0.2449  0.3949
  157MOL0     C20611   6.308   3.138   3.562 -0.2960 -0.8438  1.0115
  157MOL0     C20612   6.151   3.106   3.565  0.1209  0.3123 -0.3293
  157MOL0     C20613   6.114   2.984   3.653  0.6231 -0.7705  1.1479
  157MOL0     C20614   6.188   2.854   3.642  0.8941  0.2083  0.9258
  157MOL0     C20615   6.240   2.809   3.503 -0.2573 -0.2701 -0.3513
  157MOL0     O20616   6.263   2.668   3.478  0.1229 -1.1405  0.6924
  157MOL0     C20617   6.149   2.587   3.498 -0.5525 -0.1502 -0.7472
  157MOL0     C20618   6.171   2.466   3.561 -0.4191 -0.4279  0.8200
  157MOL0     C20619   6.063   2.377   3.577 -0.1637 -0.2132 -0.7557
  157MOL0     C20620   5.936   2.397   3.519  0.4417 -0.1748  0.3703
  157MOL0     C20621   5.816   2.316   3.552 -0.0056 -0.8433  0.7792
  157MOL0     O20622   5.842   2.189   3.591 -0.6170  0.3378 -0.9044
  157MOL0     C20623   5.733   2.133   3.667  0.3737  0.4631 -0.7446
  157MOL0     C20624   5.752   2.112   3.807  0.1949  0.1750 -0.2170
  157MOL0     C20625   5.641   2.077   3.888 -0.6930 -0.6778 -0.2013
  157MOL0     C20626   5.517   2.029   3.829 -0.5189  0.0474  0.3937
  157MOL0     O20627   5.416   1.972   3.899  0.6033  0.5002 -0.1141
  157MOL0     C20628   5.367   1.852   3.833 -0.0529  0.5376 -0.6785
  157MOL0     C20629   5.272   1.770   3.934  0.3724 -1.0008  0.7753
  157MOL0     C20630   5.357   1.676   4.027 -1.0081  0.1479  0.0828
  157MOL0     C20631   5.274   1.631   4.144 -0.1123 -0.7354 -0.4917
  157MOL0     C20632   5.168   1.521   4.131  0.3963 -0.6275  0.1603
  157MOL0     C20633   5.076   1.507   4.265 -0.0925 -0.3812 -0.1208
  157MOL0     C20634   5.012   1.369   4.274  0.5858 -0.0957  0.2531
  157MOL0     C20635   4.934   1.348   4.403 -0.2296  0.3054 -0.3617
  157MOL0    Cl20636   4.809   1.478   4.416 -0.2634 -0.1163  0.0144
  157MOL0     C20637   5.507   2.038   3.691 -0.3954  0.7809 -0.1488
  157MOL0     C20638   5.609   2.093   3.612 -1.0698  0.4847 -0.8935
  157MOL0     O20639   5.701   2.371   3.549 -0.7714  0.4086 -0.1498
  157MOL0     C20640   5.921   2.520   3.448  0.0604  0.3466 -0.1749
  157MOL0     C20641   6.024   2.615   3.435  0.6329 -0.7374  0.2770
  157MOL0     N20642   6.402   3.124   3.460  0.4863 -0.8113 -0.4099
  157MOL0     N20643   6.518   3.146   3.493 -0.2389 -0.1243  0.3091
  157MOL0     C20644   6.420   2.228   3.913 -0.5095 -0.6583 -0.3481
  157MOL0     C20645   6.459   2.115   3.981  0.2080  0.6766  0.9632
  157MOL0     C20646   6.664   1.730   4.105  0.2235  1.3775 -0.5915
  157MOL0     C20647   6.755   1.754   4.216 -0.4993  0.9269  0.3156
  157MOL0     C20648   6.813   1.640   4.289  0.4577  0.3393 -0.2191
  157MOL0     C20649   6.783   1.506   4.254 -0.2648  0.2763 -0.6428
  157MOL0     O20650   6.825   1.396   4.328 -1.5843 -1.2581 -0.5072
  157MOL0     C20651   6.959   1.411   4.392 -0.0970  0.8361 -0.0096
  157MOL0     C20652   7.015   1.266   4.365  0.9770  0.8112  0.5535
  157MOL0     C20653   7.047   1.261   4.215  0.0512  0.1284 -0.1440
  157MOL0     C20654   7.162   1.176   4.197 -1.1151  0.0321 -0.3900
  157MOL0     C20655   7.161   1.124   4.058 -0.6941 -1.0310  1.0061
  157MOL0     C20656   7.156   1.077   3.945  0.2206 -0.1284 -0.0379
  157MOL0     C20657   6.687   1.492   4.156 -0.8006 -0.0835  0.3174
  157MOL0     C20658   6.635   1.594   4.076  0.3024  0.8010  0.5520
  157MOL0     H20659   6.788   2.110   3.948  0.7215  2.9563  1.5863
  157MOL0     H20660   6.736   2.301   3.817 -2.2906  4.6966  1.2209
  157MOL0     H20661   6.499   2.529   3.606  3.0414  3.5621  0.2604
  157MOL0     H20662   6.596   2.379   3.627  3.8027  1.9445  2.0632
  157MOL0     H20663   6.727   2.577   3.649  0.0540 -1.6214 -1.4909
  157MOL0     H20664   6.711   2.503   3.812 -1.8125 -0.2470  0.1319
  157MOL0     H20665   6.515   2.656   3.846  0.7358 -3.0352 -1.0928
  157MOL0     H20666   6.550   2.732   3.692  0.2673 -0.0813  0.3564
  157MOL0     H20667   6.625   2.859   3.911 -1.3425  0.7958 -2.9440
  157MOL0     H20668   6.737   2.714   3.939 -2.5551 -1.8210  0.4394
  157MOL0     H20669   6.806   2.804   3.686  1.4774  0.8003  0.3587
  157MOL0     H20670   6.868   2.903   3.826  0.4048 -1.7033  0.7178
  157MOL0     H20671   6.634   2.941   3.663  1.7819 -3.9882  2.0708
  157MOL0     H20672   6.796   3.017   3.639  3.3162 -3.7172  2.4336
  157MOL0     H20673   6.583   3.090   3.852 -1.5136  0.6727 -3.1935
  157MOL0     H20674   6.751   3.157   3.857 -1.8655  2.8427 -0.9313
  157MOL0     H20675   6.714   3.259   3.636  0.4556  0.5065  0.2038
  157MOL0     H20676   6.607   3.315   3.764  0.6991  3.4768 -3.1661
  157MOL0     H20677   6.349   3.188   3.774 -0.3859 -0.0413  0.2804
  157MOL0     H20678   6.113   3.096   3.463  0.0167 -0.5466 -0.2108
  157MOL0     H20679   6.096   3.190   3.609  1.4020 -0.9491  4.2451
  157MOL0     H20680   6.014   2.949   3.625  1.1686 -1.3422 -0.1288
  157MOL0     H20681   6.117   3.022   3.756  2.7386  1.6129  0.2784
  157MOL0     H20682   6.277   2.865   3.705 -0.0140  0.6928  2.1580
  157MOL0     H20683   6.118   2.785   3.691 -1.1129  1.3506 -0.1954
  157MOL0     H20684   6.332   2.865   3.482  1.5927 -3.3659 -1.0625
  157MOL0     H20685   6.177   2.844   3.420  1.3301 -1.8303 -2.3216
  157MOL0     H20686   6.261   2.440   3.616 -0.6493 -0.2854  1.2649
  157MOL0     H20687   6.079   2.296   3.647  2.6284  1.5208  0.8441
  157MOL0     H20688   5.845   2.147   3.850  2.2643 -0.1667 -4.0182
  157MOL0     H20689   5.647   2.060   3.995 -1.5602  0.8246  0.1143
  157MOL0     H20690   5.450   1.791   3.798  1.0022  2.0568 -0.9021
  157MOL0     H20691   5.302   1.871   3.747 -1.1697 -2.4951 -0.6376
  157MOL0     H20692   5.195   1.710   3.885 -2.0988 -0.5410  3.7222
  157MOL0     H20693   5.220   1.848   3.990  3.8073  4.7636 -3.0924
  157MOL0     H20694   5.449   1.724   4.060 -1.0331 -0.6815  1.4203
  157MOL0     H20695   5.400   1.594   3.968  1.3872  0.2047  1.6151
  157MOL0     H20696   5.339   1.609   4.229 -0.1672  2.0335  0.3617
  157MOL0     H20697   5.219   1.721   4.176  2.0026  0.4526 -0.0185
  157MOL0     H20698   5.215   1.429   4.092  0.8697 -0.6849  0.8514
  157MOL0     H20699   5.106   1.557   4.049  2.3826  2.8196 -0.0110
  157MOL0     H20700   5.012   1.593   4.285  0.2209 -0.4933  1.4845
  157MOL0     H20701   5.147   1.512   4.348 -2.4716  2.3882  1.9197
  157MOL0     H20702   4.945   1.351   4.189 -0.1190 -0.0370  0.7853
  157MOL0     H20703   5.082   1.286   4.262 -1.5210 -1.4831 -5.1645
  157MOL0     H20704   5.004   1.351   4.487 -0.6370  0.3287 -0.0190
  157MOL0     H20705   4.896   1.245   4.402 -1.7394  0.8285 -0.1091
  157MOL0     H20706   5.425   2.002   3.628 -0.4603 -1.0756  0.9074
  157MOL0     H20707   5.606   2.103   3.504 -0.1557 -1.7247 -1.1772
  157MOL0     H20708   5.826   2.528   3.396  0.4967  0.8792 -0.9013
  157MOL0     H20709   6.009   2.706   3.377  4.1677 -0.6283 -0.6839
  157MOL0     H20710   6.313   2.250   3.912 -0.5285 -0.7372 -0.2012
  157MOL0     H20711   6.383   2.051   4.024  1.2433 -0.8239  0.6708
  157MOL0     H20712   6.782   1.853   4.251 -3.0132  1.9661 -0.4841
  157MOL0     H20713   6.862   1.651   4.385 -1.1103 -0.0081  0.6647
  157MOL0     H20714   6.954   1.428   4.500 -1.4296 -0.9708  0.2612
  157MOL0     H20715   7.014   1.492   4.344  4.7046 -0.6038  2.4006
  157MOL0     H20716   7.100   1.231   4.423  0.8799 -2.5276 -1.0324
  157MOL0     H20717   6.939   1.189   4.384  3.0008 -1.4041  0.2477
  157MOL0     H20718   7.052   1.360   4.169 -2.2909 -0.0991 -0.9860
  157MOL0     H20719   6.957   1.222   4.167  0.8511  0.8877 -2.4259
  157MOL0     H20720   7.256   1.231   4.210 -2.0359  2.1524 -2.0013
  157MOL0     H20721   7.149   1.093   4.266  1.9385  0.8329  1.3645
  157MOL0     H20722   7.138   1.042   3.845 -1.1755 -2.1504  0.8636
  157MOL0     H20723   6.660   1.390   4.131  1.8055 -1.5647  2.8183
  157MOL0     H20724   6.566   1.573   3.995  0.5115 -1.6633  0.9292
  158MOL0     O20725   8.800   3.728   1.438  0.0498 -0.5220  0.2412
  158MOL0     C20726   8.722   3.633   1.453 -0.3915 -0.0151 -0.1417
  158MOL0     O20727   8.717   3.526   1.377 -0.6071  0.1899  0.2969
  158MOL0     C20728   8.802   3.508   1.270  0.8769 -0.4041 -0.0080
  158MOL0     C20729   8.785   3.587   1.156  0.9482  0.5675 -0.3160
  158MOL0     C20730   8.867   3.563   1.049 -0.0591 -0.3027 -0.6571
  158MOL0     C20731   8.966   3.472   1.040 -0.3078 -0.2444 -0.2886
  158MOL0     O20732   9.045   3.433   0.925  0.7144 -0.0225 -0.2725
  158MOL0     C20733   9.025   3.524   0.811 -0.5095  0.5225  0.7493
  158MOL0     C20734   9.083   3.456   0.689  0.5903 -0.4855  0.9537
  158MOL0     C20735   9.234   3.474   0.652 -0.7238  0.1493  0.4411
  158MOL0     C20736   9.260   3.384   0.530 -0.0604  0.0663  1.1640
  158MOL0     C20737   9.350   3.454   0.434 -0.0576 -0.9666  0.4036
  158MOL0     C20738   9.393   3.350   0.332  0.4925 -0.0228  0.1644
  158MOL0     C20739   9.464   3.424   0.215 -0.0084 -0.4092 -0.1291
  158MOL0     C20740   9.546   3.334   0.117  0.1985 -0.7891  0.1675
  158MOL0     N20741   9.616   3.411   0.016 -0.0631  0.1851  0.2126
  158MOL0     C20742   9.755   3.403  -0.009  1.3914  1.1833  0.3301
  158MOL0     C20743   9.779   3.508  -0.099 -0.2375  0.4695  1.0018
  158MOL0     C20744   9.917   3.552  -0.167  0.2532 -0.5079  0.3022
  158MOL0     C20745   9.988   3.429  -0.207 -0.4215  0.4587  0.9961
  158MOL0     C20746  10.117   3.450  -0.297  0.0363  0.2903  0.2940
  158MOL0     C20747  10.152   3.331  -0.375 -1.3721  0.5547  0.5416
  158MOL0     O20748  10.289   3.335  -0.431  0.1586  0.3529 -0.3951
  158MOL0     C20749  10.323   3.441  -0.501  0.3964 -0.8217 -0.4916
  158MOL0     C20750  10.303   3.446  -0.633  0.6599 -0.2656 -0.0678
  158MOL0     C20751  10.349   3.548  -0.715  0.7017 -0.8638  0.1101
  158MOL0     C20752  10.412   3.656  -0.655 -1.1316  0.1945  0.8773
  158MOL0     C20753  10.462   3.775  -0.737 -0.8566  0.7676 -0.6891
  158MOL0     O20754  10.440   3.765  -0.870  0.7202 -0.3479 -0.7323
  158MOL0     C20755  10.488   3.873  -0.944  0.8248  0.0369  0.5780
  158MOL0     C20756  10.604   3.866  -1.016  0.2100 -0.3020  0.0047
  158MOL0     C20757  10.658   3.966  -1.102 -0.4013  0.1990 -0.7596
  158MOL0     C20758  10.589   4.080  -1.111  1.3280  0.7242 -0.1919
  158MOL0     O20759  10.633   4.188  -1.182  0.0516 -0.1806 -0.0395
  158MOL0     C20760  10.537   4.238  -1.281  0.6501  0.5141 -0.1511
  158MOL0     C20761  10.592   4.364  -1.354 -0.6132 -0.2230 -0.1294
  158MOL0     C20762  10.718   4.334  -1.438  0.0111  0.1840 -0.1005
  158MOL0     C20763  10.692   4.229  -1.538  0.4471  0.4486  0.0979
  158MOL0     C20764  10.796   4.240  -1.651 -0.0458  0.8225 -1.0951
  158MOL0     C20765  10.770   4.128  -1.756  0.1671 -0.5025 -0.0133
  158MOL0     C20766  10.812   4.183  -1.892 -0.4520 -0.6350 -0.2343
  158MOL0     C20767  10.703   4.268  -1.960 -0.1119 -0.5262  0.5439
  158MOL0    Cl20768  10.729   4.295  -2.140  0.0394  0.0297 -0.1099
  158MOL0     C20769  10.470   4.092  -1.040  0.2135 -0.6626 -0.3906
  158MOL0     C20770  10.417   3.996  -0.949  0.2470 -0.0485  0.0243
  158MOL0     O20771  10.528   3.860  -0.675  0.8913  0.2641 -0.3175
  158MOL0     C20772  10.438   3.655  -0.515  0.3654  0.3887  0.4869
  158MOL0     C20773  10.396   3.544  -0.441 -0.0316  0.1843  1.1316
  158MOL0     N20774   9.654   3.565  -0.133  0.1254  0.2071  0.1053
  158MOL0     N20775   9.558   3.504  -0.068  1.0488 -1.1991 -0.6351
  158MOL0     C20776   8.984   3.390   1.153 -0.1398 -0.6051 -0.4389
  158MOL0     C20777   8.902   3.411   1.266  0.3141 -0.3416  0.2776
  158MOL0     C20778   8.628   3.653   1.563  0.4688 -0.6227 -1.2861
  158MOL0     C20779   8.544   3.547   1.609 -0.0496 -0.0075  0.5286
  158MOL0     C20780   8.444   3.556   1.711 -0.0185 -0.4540 -0.8284
  158MOL0     C20781   8.447   3.678   1.793 -0.1546  0.6086  1.3853
  158MOL0     O20782   8.365   3.678   1.901  1.2293  0.3789  0.5197
  158MOL0     C20783   8.416   3.731   2.021 -0.4355 -0.7939 -0.1779
  158MOL0     C20784   8.356   3.641   2.143 -0.3335 -0.5038 -0.6970
  158MOL0     C20785   8.421   3.679   2.276  0.7620 -0.2354 -1.0228
  158MOL0     C20786   8.437   3.549   2.362 -0.5848  0.0977 -0.4748
  158MOL0     C20787   8.559   3.481   2.324  0.7775 -0.3260 -0.2976
  158MOL0     C20788   8.660   3.430   2.294  0.2037  0.6528 -0.5729
  158MOL0     C20789   8.527   3.777   1.746  0.5077 -0.1892  0.9681
  158MOL0     C20790   8.631   3.762   1.645  0.1836 -0.8527 -0.2545
  158MOL0     H20791   8.708   3.662   1.164  3.0688  2.8829 -0.5453
  158MOL0     H20792   8.841   3.607   0.953  1.2317 -3.2714 -2.4884
  158MOL0     H20793   9.064   3.625   0.830 -0.3880  0.7141 -0.4640
  158MOL0     H20794   8.921   3.526   0.777 -0.4609 -0.9363  0.4751
  158MOL0     H20795   9.028   3.487   0.600  2.6681  2.3843  0.5418
  158MOL0     H20796   9.063   3.349   0.699 -1.1507 -0.1490  1.3818
  158MOL0     H20797   9.313   3.456   0.725 -0.6286  0.5370  0.4370
  158MOL0     H20798   9.244   3.578   0.619 -0.9879  0.7684  2.1948
  158MOL0     H20799   9.284   3.280   0.552 -1.2314 -0.3647  0.5075
  158MOL0     H20800   9.160   3.383   0.485  0.0442 -0.0355  0.9356
  158MOL0     H20801   9.443   3.492   0.478  1.3585 -1.2690 -2.1724
  158MOL0     H20802   9.291   3.531   0.384  1.6434 -1.1164 -1.9872
  158MOL0     H20803   9.305   3.295   0.297  1.6779 -1.0033 -1.3707
  158MOL0     H20804   9.463   3.277   0.373 -1.7650 -1.1914  2.1727
  158MOL0     H20805   9.392   3.481   0.156  0.7357 -0.3800 -1.0367
  158MOL0     H20806   9.535   3.492   0.260 -1.6961  0.2810  1.6216
  158MOL0     H20807   9.486   3.256   0.070  1.8590 -0.6223 -2.4173
  158MOL0     H20808   9.622   3.282   0.177  1.1005  2.0431  1.6455
  158MOL0     H20809   9.832   3.337   0.029 -0.1725 -0.8146  0.1736
  158MOL0     H20810   9.988   3.615  -0.113 -0.2049 -1.1081  1.6587
  158MOL0     H20811   9.881   3.606  -0.255 -0.8792 -0.3566  0.8389
  158MOL0     H20812   9.916   3.356  -0.245  1.4928 -1.4016  0.7362
  158MOL0     H20813  10.025   3.391  -0.111  2.4521  0.3476 -0.0397
  158MOL0     H20814  10.103   3.526  -0.375  1.0909 -1.5625 -1.8435
  158MOL0     H20815  10.200   3.483  -0.233  3.7808 -4.0238 -1.7375
  158MOL0     H20816  10.075   3.302  -0.448  1.2406 -3.2964 -1.0209
  158MOL0     H20817  10.142   3.249  -0.304 -3.1922  0.2246 -0.0435
  158MOL0     H20818  10.263   3.356  -0.678 -1.3594  1.3099 -1.6331
  158MOL0     H20819  10.322   3.549  -0.820 -2.0195 -0.4593  0.7426
  158MOL0     H20820  10.667   3.778  -1.004  0.2514  0.0153  3.0226
  158MOL0     H20821  10.757   3.958  -1.147 -0.3328 -1.5879 -0.3580
  158MOL0     H20822  10.442   4.266  -1.233 -0.7820  0.2092 -2.6106
  158MOL0     H20823  10.513   4.165  -1.359 -1.3445 -0.8374  1.6172
  158MOL0     H20824  10.611   4.445  -1.283 -1.3589  1.1604 -1.4702
  158MOL0     H20825  10.512   4.394  -1.422 -1.9447 -0.7732  1.1430
  158MOL0     H20826  10.785   4.284  -1.368 -4.2267 -0.8883  3.6176
  158MOL0     H20827  10.748   4.431  -1.479 -2.0362  0.9535  0.0717
  158MOL0     H20828  10.673   4.131  -1.492 -1.5018  0.1232 -1.2487
  158MOL0     H20829  10.594   4.242  -1.586  1.0841  1.4594 -0.9929
  158MOL0     H20830  10.884   4.218  -1.591 -1.3742  0.0581  0.6676
  158MOL0     H20831  10.801   4.343  -1.689 -2.5962  1.2616 -0.4552
  158MOL0     H20832  10.668   4.087  -1.752 -0.1862  0.3388  3.1491
  158MOL0     H20833  10.840   4.047  -1.735  0.3237 -0.8977 -1.9369
  158MOL0     H20834  10.904   4.243  -1.887 -0.7902  0.0619 -1.6640
  158MOL0     H20835  10.827   4.095  -1.955  1.9372 -0.6371  0.2462
  158MOL0     H20836  10.689   4.369  -1.919 -1.7981 -0.8585  0.8515
  158MOL0     H20837  10.603   4.225  -1.958 -1.9993  2.9933 -3.1009
  158MOL0     H20838  10.407   4.179  -1.050  0.5406 -0.4671 -0.8104
  158MOL0     H20839  10.327   4.015  -0.893 -0.2032  0.0992 -0.7289
  158MOL0     H20840  10.483   3.733  -0.454  0.0371 -0.3631  1.7096
  158MOL0     H20841  10.424   3.532  -0.336 -3.1141  1.4857  2.2389
  158MOL0     H20842   9.064   3.318   1.165  0.9387  0.8377  1.6361
  158MOL0     H20843   8.918   3.354   1.357 -3.0065  0.5062  1.5283
  158MOL0     H20844   8.549   3.452   1.556 -1.9144 -1.1667  2.3019
  158MOL0     H20845   8.382   3.471   1.740 -0.5536  0.1860 -0.0300
  158MOL0     H20846   8.398   3.838   2.030 -0.2948 -0.9281  4.5728
  158MOL0     H20847   8.524   3.715   2.025 -0.6994 -2.6624  1.9022
  158MOL0     H20848   8.247   3.653   2.134 -0.5162 -2.7939 -3.0730
  158MOL0     H20849   8.391   3.541   2.115 -0.5743 -1.2712  1.5413
  158MOL0     H20850   8.348   3.752   2.311 -0.7214 -0.8784 -2.5954
  158MOL0     H20851   8.511   3.736   2.253  1.3461  0.1735  1.9292
  158MOL0     H20852   8.445   3.575   2.468 -0.9650 -2.1955  0.1790
  158MOL0     H20853   8.348   3.485   2.359 -0.6591 -0.0363  1.9281
  158MOL0     H20854   8.753   3.381   2.275  1.2883  1.4725  2.0981
  158MOL0     H20855   8.505   3.873   1.791  1.6863  0.5256  0.0790
  158MOL0     H20856   8.693   3.847   1.615 -0.1555 -0.2735  0.6358
  159MOL0     O20857   6.906   6.438   5.925  0.1433  0.1286  0.1374
  159MOL0     C20858   6.942   6.484   6.030  0.4083  0.2155 -0.3944
  159MOL0     O20859   7.041   6.567   6.043 -0.3373  0.1902  1.1437
  159MOL0     C20860   7.114   6.610   5.934 -0.4919  1.0579 -1.3978
  159MOL0     C20861   7.073   6.640   5.808  0.8394 -0.3665  0.3679
  159MOL0     C20862   7.158   6.720   5.724 -0.1782 -0.7806 -0.3816
  159MOL0     C20863   7.275   6.772   5.776 -0.3009 -0.0668  0.3865
  159MOL0     O20864   7.359   6.826   5.681  0.2821  0.1011  0.4755
  159MOL0     C20865   7.498   6.807   5.696  0.2244 -0.0680 -0.4782
  159MOL0     C20866   7.573   6.884   5.584 -1.2357  0.7416  0.6450
  159MOL0     C20867   7.710   6.809   5.565 -0.3347 -0.2209 -0.3629
  159MOL0     C20868   7.769   6.872   5.440  0.6734 -0.0990  0.7505
  159MOL0     C20869   7.907   6.814   5.429  0.9871 -0.4187 -0.0645
  159MOL0     C20870   7.975   6.818   5.288  0.4827 -0.3840  0.1381
  159MOL0     C20871   8.019   6.954   5.237  0.0486  0.6281 -0.5615
  159MOL0     C20872   8.146   6.994   5.317  0.2448  0.4373 -0.7150
  159MOL0     N20873   8.236   7.083   5.242 -0.3011  0.8520 -0.2869
  159MOL0     C20874   8.231   7.206   5.194 -0.1429 -0.5349 -0.3873
  159MOL0     C20875   8.330   7.240   5.114  0.2778 -0.4912 -0.4518
  159MOL0     C20876   8.360   7.364   5.040  0.6112  0.2253  0.0541
  159MOL0     C20877   8.357   7.336   4.894 -0.2385 -0.1856  0.0574
  159MOL0     C20878   8.221   7.274   4.848 -0.2006  0.4629 -0.1547
  159MOL0     C20879   8.220   7.251   4.701 -0.7337 -0.5736 -0.3077
  159MOL0     O20880   8.153   7.356   4.630  0.3256  0.5031 -0.4112
  159MOL0     C20881   8.137   7.340   4.497  0.0685  0.4902  0.7696
  159MOL0     C20882   8.069   7.441   4.419 -0.3952  0.3073 -0.5839
  159MOL0     C20883   8.067   7.431   4.278 -0.5992 -0.9867  0.3739
  159MOL0     C20884   8.123   7.314   4.209 -0.8978  0.3124  0.2854
  159MOL0     C20885   8.122   7.292   4.066  0.1404 -0.5741  0.6140
  159MOL0     O20886   8.172   7.177   4.024 -0.4091 -0.0978  0.2908
  159MOL0     C20887   8.151   7.139   3.893  0.1740  0.3592  0.1114
  159MOL0     C20888   8.031   7.159   3.813  0.2733 -0.0811 -1.3602
  159MOL0     C20889   8.037   7.132   3.680  0.5819  0.3893  0.3309
  159MOL0     C20890   8.149   7.073   3.607  1.1204 -0.3872 -0.5588
  159MOL0     O20891   8.157   7.032   3.466  0.4122  0.4835 -0.9944
  159MOL0     C20892   8.031   7.034   3.390 -1.3305  0.6887 -0.0084
  159MOL0     C20893   8.057   7.025   3.236 -0.3258  0.6575 -0.1167
  159MOL0     C20894   8.112   6.885   3.198  0.9693 -0.0163  0.1836
  159MOL0     C20895   8.018   6.776   3.254 -0.2575  0.0677 -0.2290
  159MOL0     C20896   8.042   6.637   3.185 -0.1726  0.1120 -0.1288
  159MOL0     C20897   7.957   6.534   3.252 -0.8857 -0.2978  0.2521
  159MOL0     C20898   7.928   6.408   3.178 -0.3753  0.3519  1.4844
  159MOL0     C20899   7.826   6.305   3.236  0.0208 -0.1332  0.0417
  159MOL0    Cl20900   7.785   6.211   3.094  0.1511  0.0163  0.3235
  159MOL0     C20901   8.264   7.055   3.685  0.6887  0.7050 -0.4669
  159MOL0     C20902   8.262   7.084   3.823  0.7474 -0.9516 -1.2288
  159MOL0     O20903   8.085   7.389   3.997  0.2936 -0.2497 -0.2605
  159MOL0     C20904   8.161   7.210   4.293  0.6724  0.5441 -0.5871
  159MOL0     C20905   8.166   7.226   4.426  0.8548  0.6984  0.0631
  159MOL0     N20906   8.414   7.131   5.128 -0.7911  0.4108  0.7434
  159MOL0     N20907   8.363   7.045   5.206 -0.7436  1.3866  0.6442
  159MOL0     C20908   7.315   6.747   5.913 -1.0000  0.9048  0.0634
  159MOL0     C20909   7.228   6.668   5.990 -0.8482  0.4550 -0.3860
  159MOL0     C20910   6.865   6.458   6.156 -0.2108  0.4399 -0.0040
  159MOL0     C20911   6.758   6.363   6.160 -0.1689 -0.2557  0.3370
  159MOL0     C20912   6.706   6.318   6.279  0.1665 -0.4262  0.0888
  159MOL0     C20913   6.761   6.369   6.408  0.4910  0.0808 -0.3315
  159MOL0     O20914   6.717   6.304   6.518  0.5000 -0.4001 -0.1080
  159MOL0     C20915   6.767   6.330   6.647 -0.8120 -0.0073 -0.3655
  159MOL0     C20916   6.703   6.461   6.686  0.1807  0.3123 -0.4293
  159MOL0     C20917   6.785   6.534   6.799 -0.0840 -0.0159 -0.2476
  159MOL0     C20918   6.822   6.439   6.918 -0.3620 -0.1772  0.2396
  159MOL0     C20919   6.697   6.391   6.984 -0.1439 -0.4589  0.4580
  159MOL0     C20920   6.600   6.337   7.028  0.4822  0.1239 -0.0406
  159MOL0     C20921   6.858   6.469   6.407  0.3981  0.7146 -1.1613
  159MOL0     C20922   6.922   6.503   6.279 -0.3085  0.6157  0.7325
  159MOL0     H20923   6.973   6.611   5.776  1.6614 -1.3731 -1.4452
  159MOL0     H20924   7.131   6.731   5.619 -0.7137 -0.9251 -0.2611
  159MOL0     H20925   7.522   6.701   5.702  1.9987  0.0817 -3.3020
  159MOL0     H20926   7.540   6.845   5.790  0.4990  1.4054 -1.1610
  159MOL0     H20927   7.577   6.989   5.616  3.1188  1.7658 -2.2979
  159MOL0     H20928   7.520   6.883   5.489 -2.4531 -0.8120  1.2920
  159MOL0     H20929   7.681   6.703   5.561 -2.5082  0.1840  2.2136
  159MOL0     H20930   7.780   6.819   5.649  0.6081 -0.1856 -1.1310
  159MOL0     H20931   7.696   6.854   5.361 -1.3430  0.9564  2.2811
  159MOL0     H20932   7.773   6.980   5.453  2.6229 -0.0290 -0.0626
  159MOL0     H20933   7.904   6.710   5.462 -0.4522  0.4516  2.9914
  159MOL0     H20934   7.963   6.872   5.503  0.5625 -1.5133  1.1655
  159MOL0     H20935   7.902   6.782   5.215 -1.0019 -1.6832  2.1587
  159MOL0     H20936   8.056   6.744   5.287  0.7701 -0.1109  1.4539
  159MOL0     H20937   8.042   6.957   5.130 -1.6420  1.9798 -0.9282
  159MOL0     H20938   7.935   7.022   5.249  0.6568  1.5787 -1.5583
  159MOL0     H20939   8.204   6.913   5.361 -0.5779  0.8379  1.1988
  159MOL0     H20940   8.116   7.043   5.410 -0.9067 -1.7151  0.1260
  159MOL0     H20941   8.138   7.261   5.206  1.9079  3.2270 -0.0600
  159MOL0     H20942   8.452   7.418   5.062  0.0861  3.0415 -3.5757
  159MOL0     H20943   8.274   7.425   5.070 -1.3527 -1.5344 -1.5753
  159MOL0     H20944   8.437   7.269   4.861  0.3096  0.6957 -0.4287
  159MOL0     H20945   8.362   7.429   4.837 -0.7433 -0.6358 -0.7390
  159MOL0     H20946   8.192   7.182   4.899 -0.1115  0.5411  0.0397
  159MOL0     H20947   8.137   7.338   4.875  0.1802 -0.3410  3.4457
  159MOL0     H20948   8.171   7.155   4.687  0.9804 -1.1913 -2.6843
  159MOL0     H20949   8.320   7.225   4.665 -0.0324  1.0818  0.3159
  159MOL0     H20950   8.032   7.529   4.473 -2.4059 -1.5435  1.2689
  159MOL0     H20951   8.022   7.511   4.220  1.4957 -0.1807 -0.2219
  159MOL0     H20952   7.946   7.186   3.875  2.3408 -0.8580  2.0792
  159MOL0     H20953   7.945   7.133   3.623  1.9372  0.3794 -1.9705
  159MOL0     H20954   7.988   7.132   3.412  0.2756  1.0953  1.6004
  159MOL0     H20955   7.955   6.968   3.433 -1.5045  0.2497 -0.9672
  159MOL0     H20956   8.133   7.096   3.204 -1.0181  0.0234 -3.5023
  159MOL0     H20957   7.960   7.044   3.190 -2.9049 -3.3273  2.9271
  159MOL0     H20958   8.207   6.876   3.252  1.0116  0.2998  0.1616
  159MOL0     H20959   8.121   6.868   3.091 -2.2940 -3.5927  0.2420
  159MOL0     H20960   8.038   6.765   3.361 -4.1764  1.4909  0.8190
  159MOL0     H20961   7.914   6.806   3.244  0.3599  3.6671  2.2373
  159MOL0     H20962   8.145   6.600   3.190 -0.4037 -1.2308 -3.1789
  159MOL0     H20963   8.011   6.645   3.081 -0.8499 -0.3036  0.0337
  159MOL0     H20964   7.862   6.579   3.281 -0.7165 -0.2160  0.6913
  159MOL0     H20965   8.008   6.504   3.344 -0.4762  2.5849  1.0627
  159MOL0     H20966   7.895   6.434   3.077  1.3704 -2.2621  0.1416
  159MOL0     H20967   8.027   6.366   3.159 -0.4712  0.3511  0.9507
  159MOL0     H20968   7.732   6.349   3.272 -1.5474 -3.1675 -0.0631
  159MOL0     H20969   7.866   6.238   3.312 -2.8083 -0.5157  1.3295
  159MOL0     H20970   8.350   7.039   3.621  0.6972 -0.7696 -0.1393
  159MOL0     H20971   8.348   7.073   3.887 -0.6066  0.6688  1.0235
  159MOL0     H20972   8.209   7.118   4.260  1.7181  0.8559  0.0164
  159MOL0     H20973   8.186   7.136   4.482 -4.0464 -1.0415 -0.5485
  159MOL0     H20974   7.405   6.796   5.950  2.1325 -2.3231 -2.5974
  159MOL0     H20975   7.243   6.648   6.095 -1.5209  3.8961  0.4711
  159MOL0     H20976   6.738   6.317   6.064  0.1686 -0.7117  0.4805
  159MOL0     H20977   6.618   6.255   6.268  0.0246  0.1760 -3.1084
  159MOL0     H20978   6.873   6.315   6.666 -1.3078 -0.0632  2.8776
  159MOL0     H20979   6.718   6.251   6.704 -0.8936  0.7752  0.6892
  159MOL0     H20980   6.695   6.529   6.601 -1.7432 -1.5931 -1.8694
  159MOL0     H20981   6.600   6.442   6.716 -1.3939  1.4733 -4.5233
  159MOL0     H20982   6.735   6.624   6.836 -0.9718  0.1369 -1.7175
  159MOL0     H20983   6.876   6.572   6.753 -0.5625 -0.4302 -1.5779
  159MOL0     H20984   6.882   6.351   6.894 -1.7279 -0.9839 -0.3783
  159MOL0     H20985   6.894   6.503   6.969 -0.4695  1.8478 -1.9889
  159MOL0     H20986   6.520   6.273   7.058  1.3219 -0.8414  0.2097
  159MOL0     H20987   6.898   6.505   6.501  0.8429 -3.2011  0.3071
  159MOL0     H20988   7.007   6.569   6.265 -0.1594  0.2538 -0.1437
  160MOL0     O20989   4.137   7.230   1.834 -0.4712 -0.2782  0.3858
  160MOL0     C20990   4.048   7.313   1.862 -0.8820  0.4448 -0.2506
  160MOL0     O20991   3.947   7.340   1.767 -0.3466  0.3068 -0.2462
  160MOL0     C20992   3.950   7.272   1.649  0.0656  0.4841 -0.1666
  160MOL0     C20993   4.039   7.306   1.557 -0.3064 -0.4476  0.6505
  160MOL0     C20994   4.034   7.252   1.421 -0.6139 -0.4532 -0.3858
  160MOL0     C20995   3.949   7.153   1.392 -0.2549 -0.3509  0.4158
  160MOL0     O20996   3.928   7.095   1.269 -0.6183 -0.1949 -0.6254
  160MOL0     C20997   3.983   6.960   1.257  0.0026 -1.1157 -0.6306
  160MOL0     C20998   4.128   6.949   1.258  0.3323  0.0092  0.0435
  160MOL0     C20999   4.197   6.812   1.247  0.1096  0.0030  1.0815
  160MOL0     C21000   4.350   6.833   1.233  0.3297  0.8058 -0.3655
  160MOL0     C21001   4.422   6.702   1.225 -0.4836  0.6669  0.5880
  160MOL0     C21002   4.566   6.729   1.183 -0.9591  0.0796  0.2033
  160MOL0     C21003   4.626   6.621   1.090  0.3090  0.4702  1.0912
  160MOL0     C21004   4.562   6.637   0.947  0.0484  0.2666  0.7029
  160MOL0     N21005   4.570   6.771   0.900  0.5513  0.4233  0.4596
  160MOL0     C21006   4.685   6.826   0.853 -0.0279 -0.4996 -0.0684
  160MOL0     C21007   4.657   6.952   0.809 -1.1625  0.2066  0.6058
  160MOL0     C21008   4.759   7.039   0.744 -0.0530 -0.4855 -0.4211
  160MOL0     C21009   4.878   7.092   0.836  0.0641 -0.1800  1.2178
  160MOL0     C21010   4.935   7.215   0.791  0.5353 -0.4561 -0.1218
  160MOL0     C21011   5.003   7.209   0.652  0.3282  0.1798  0.7954
  160MOL0     O21012   5.099   7.102   0.639  0.2962 -0.4907 -0.2676
  160MOL0     C21013   5.232   7.129   0.658  0.3499 -0.0568  0.6423
  160MOL0     C21014   5.291   7.251   0.702  0.0059 -0.6032 -0.1320
  160MOL0     C21015   5.420   7.241   0.736 -0.5535  0.3181 -0.0579
  160MOL0     C21016   5.502   7.132   0.696 -0.2329  0.8915  1.2953
  160MOL0     C21017   5.638   7.124   0.727  0.4959  0.1384  0.1979
  160MOL0     O21018   5.690   7.188   0.836  0.4956 -0.2332  0.5460
  160MOL0     C21019   5.814   7.177   0.865 -0.2692 -0.0811 -0.6869
  160MOL0     C21020   5.865   7.058   0.915 -0.0576 -0.0716 -0.4293
  160MOL0     C21021   5.999   7.059   0.971  0.7501 -0.4875  0.0451
  160MOL0     C21022   6.083   7.172   0.976 -0.0391 -0.6783 -0.0063
  160MOL0     O21023   6.201   7.166   1.039 -0.2780  0.7403 -0.4958
  160MOL0     C21024   6.289   7.272   0.996 -1.2502 -0.6397  0.6286
  160MOL0     C21025   6.437   7.242   1.037 -0.3112  0.8931 -0.1611
  160MOL0     C21026   6.490   7.208   1.182 -0.2688 -0.3809  0.1823
  160MOL0     C21027   6.426   7.295   1.281 -0.5978  0.1808  0.3749
  160MOL0     C21028   6.439   7.238   1.423 -0.1210  0.0408 -0.4489
  160MOL0     C21029   6.328   7.135   1.455 -0.3363  0.0651  0.8174
  160MOL0     C21030   6.379   7.066   1.581  0.1972  1.0199 -0.5453
  160MOL0     C21031   6.273   6.984   1.650 -0.6287 -0.8483  0.1898
  160MOL0    Cl21032   6.264   6.828   1.556  0.0770 -0.3221  0.3862
  160MOL0     C21033   6.019   7.288   0.927 -0.3838 -0.9198 -1.0659
  160MOL0     C21034   5.898   7.285   0.873 -0.1138  0.5403 -1.4692
  160MOL0     O21035   5.704   7.052   0.651 -0.6705 -0.1803  0.0892
  160MOL0     C21036   5.444   7.015   0.641 -0.0443 -0.3187  0.3937
  160MOL0     C21037   5.311   7.021   0.631  0.9927 -0.1086  0.1297
  160MOL0     N21038   4.517   6.970   0.835  0.5763  0.3439 -0.1201
  160MOL0     N21039   4.474   6.861   0.882  0.8556 -0.3378 -0.3782
  160MOL0     C21040   3.868   7.105   1.497  0.8574  0.9424  0.8860
  160MOL0     C21041   3.862   7.172   1.616 -0.6620  0.2663 -0.9537
  160MOL0     C21042   4.032   7.394   1.985  0.4104  0.6154  0.4939
  160MOL0     C21043   3.968   7.514   1.984 -0.5938  0.1283 -0.3704
  160MOL0     C21044   3.950   7.588   2.100 -0.7439  0.6140 -0.7539
  160MOL0     C21045   3.992   7.527   2.225 -0.1547 -0.0432  0.0928
  160MOL0     O21046   3.963   7.585   2.345  0.0868 -0.1894  0.1629
  160MOL0     C21047   4.001   7.544   2.476 -0.1120  0.5530  0.0605
  160MOL0     C21048   3.924   7.625   2.581 -0.4028  0.5902  0.7816
  160MOL0     C21049   3.770   7.607   2.561 -0.3838  0.0019 -0.7272
  160MOL0     C21050   3.690   7.662   2.675  0.2005  0.4453 -1.0104
  160MOL0     C21051   3.545   7.648   2.670  0.2836  0.1531 -0.0843
  160MOL0     C21052   3.428   7.642   2.659  0.3702  0.2294 -0.6568
  160MOL0     C21053   4.066   7.407   2.216  1.1916 -0.6289 -1.0345
  160MOL0     C21054   4.092   7.344   2.097  1.0634 -0.9868  0.3695
  160MOL0     H21055   4.110   7.386   1.578 -0.6735  0.4615 -1.3679
  160MOL0     H21056   4.099   7.286   1.341 -1.1194 -0.0170 -0.6249
  160MOL0     H21057   3.938   6.931   1.162 -1.5542  0.7157 -0.5144
  160MOL0     H21058   3.946   6.892   1.334 -3.4938 -0.8381 -1.8688
  160MOL0     H21059   4.160   6.995   1.352 -0.8656  3.5645 -1.1105
  160MOL0     H21060   4.167   7.018   1.183  1.5244  0.4412  1.0168
  160MOL0     H21061   4.161   6.768   1.153 -0.5787  2.6339  0.0078
  160MOL0     H21062   4.171   6.753   1.335  0.6618  0.1857  1.3674
  160MOL0     H21063   4.358   6.886   1.138  1.5176 -4.1781 -3.4229
  160MOL0     H21064   4.376   6.892   1.321 -1.3331  0.5116  0.3610
  160MOL0     H21065   4.369   6.639   1.153  3.7133  1.0506 -3.3052
  160MOL0     H21066   4.412   6.647   1.319 -0.8094 -0.7015 -0.2122
  160MOL0     H21067   4.624   6.732   1.275  1.4259 -1.3195 -1.1522
  160MOL0     H21068   4.575   6.828   1.138 -1.1991 -0.3620 -0.8500
  160MOL0     H21069   4.734   6.637   1.085  0.5504 -0.1738  3.3454
  160MOL0     H21070   4.593   6.524   1.128 -1.5502  0.0056 -1.4464
  160MOL0     H21071   4.458   6.603   0.945 -0.1798  0.9867 -0.5995
  160MOL0     H21072   4.610   6.563   0.883  2.7704 -1.9172  4.8283
  160MOL0     H21073   4.784   6.782   0.852  0.7973  1.1843  1.2824
  160MOL0     H21074   4.716   7.120   0.684  2.2443 -0.9271 -2.8526
  160MOL0     H21075   4.804   6.990   0.657 -1.6526 -3.7289  0.4008
  160MOL0     H21076   4.960   7.019   0.836 -2.1154 -2.7905  2.3326
  160MOL0     H21077   4.848   7.090   0.941 -0.4073 -0.2313  1.0836
  160MOL0     H21078   4.869   7.301   0.805  2.0926  0.6547  0.7437
  160MOL0     H21079   5.010   7.240   0.866 -0.5218 -1.3500  1.2748
  160MOL0     H21080   5.025   7.310   0.618 -2.5074  0.2269 -1.2317
  160MOL0     H21081   4.925   7.171   0.586  0.6691  0.1043  0.4291
  160MOL0     H21082   5.233   7.341   0.715  1.0367 -0.3399  3.6184
  160MOL0     H21083   5.466   7.330   0.778  0.7424 -1.5818  2.9486
  160MOL0     H21084   5.795   6.976   0.904  2.0315 -1.9282 -0.2691
  160MOL0     H21085   6.043   6.968   1.010  1.4663 -0.0764  0.2051
  160MOL0     H21086   6.250   7.363   1.041 -1.6017 -0.5662  0.1805
  160MOL0     H21087   6.281   7.294   0.889 -0.5288 -0.2941  0.6407
  160MOL0     H21088   6.495   7.331   1.010 -2.4628  1.8438 -1.9816
  160MOL0     H21089   6.468   7.162   0.968  0.7067  1.7525 -0.7349
  160MOL0     H21090   6.598   7.219   1.176 -0.1577 -1.5787 -0.3095
  160MOL0     H21091   6.473   7.103   1.209  1.0539 -0.4449  0.8545
  160MOL0     H21092   6.486   7.387   1.291  0.8163 -0.6576 -0.0391
  160MOL0     H21093   6.320   7.312   1.263 -0.3619 -1.6236 -3.8131
  160MOL0     H21094   6.433   7.308   1.507  0.6800 -0.2797 -0.1197
  160MOL0     H21095   6.532   7.181   1.433 -1.4813 -2.5310 -1.3215
  160MOL0     H21096   6.310   7.070   1.369 -1.3929  1.6632 -0.2267
  160MOL0     H21097   6.232   7.183   1.478  0.3507  0.6894  2.6235
  160MOL0     H21098   6.463   7.000   1.557 -1.6844 -1.0353 -1.8860
  160MOL0     H21099   6.405   7.144   1.653 -2.2414  1.1877  0.2552
  160MOL0     H21100   6.184   7.047   1.658  0.4171  0.6376  0.5659
  160MOL0     H21101   6.306   6.950   1.749 -1.1552 -1.5296  0.1370
  160MOL0     H21102   6.059   7.389   0.924  2.2216 -1.8031  0.6167
  160MOL0     H21103   5.867   7.383   0.839  3.0500  1.2961 -2.4840
  160MOL0     H21104   5.484   6.916   0.623 -0.7731 -0.6748  0.7005
  160MOL0     H21105   5.247   6.940   0.599 -0.2789  2.4932 -5.0636
  160MOL0     H21106   3.810   7.017   1.471  3.0154  0.5351 -3.5760
  160MOL0     H21107   3.789   7.141   1.691  2.2601 -1.0887  1.5235
  160MOL0     H21108   3.917   7.549   1.894 -1.1515  0.9022  0.2332
  160MOL0     H21109   3.889   7.678   2.101 -2.9425 -0.7737 -2.4751
  160MOL0     H21110   4.109   7.565   2.477  0.6137 -0.6292 -6.9947
  160MOL0     H21111   3.987   7.437   2.493  1.2283  0.6719  2.3692
  160MOL0     H21112   3.960   7.591   2.678  3.2067 -1.4897 -1.0819
  160MOL0     H21113   3.957   7.728   2.565  2.6755 -0.4969 -0.6723
  160MOL0     H21114   3.738   7.503   2.552  0.4462 -0.6626  2.6793
  160MOL0     H21115   3.753   7.658   2.466 -3.8237  1.7028  0.6348
  160MOL0     H21116   3.726   7.607   2.763 -1.8974 -1.6952 -1.4049
  160MOL0     H21117   3.710   7.766   2.703 -1.2125  0.1718  1.2508
  160MOL0     H21118   3.323   7.628   2.643  0.9384 -2.2123 -3.0879
  160MOL0     H21119   4.106   7.359   2.305  2.4481  1.9046 -0.1298
  160MOL0     H21120   4.143   7.249   2.092  1.7841 -0.5529 -3.4292
  161MOL0     O21121   6.807   1.652   3.344 -0.1133 -0.2696  0.4081
  161MOL0     C21122   6.733   1.672   3.242 -1.2671  0.2521  0.2094
  161MOL0     O21123   6.752   1.619   3.114  0.8311  0.1418 -1.4785
  161MOL0     C21124   6.822   1.503   3.109  0.5793  1.6352  0.3169
  161MOL0     C21125   6.880   1.479   2.986 -0.1037  0.1424  0.8984
  161MOL0     C21126   6.963   1.376   2.955 -0.1234 -0.6246  0.2668
  161MOL0     C21127   6.994   1.279   3.058 -0.6033 -0.2017  0.0644
  161MOL0     O21128   7.073   1.169   3.039 -0.3534  0.3552 -0.0219
  161MOL0     C21129   7.207   1.198   2.987  0.0326 -0.2423 -0.3772
  161MOL0     C21130   7.297   1.067   2.982  0.4371  0.8467 -0.3326
  161MOL0     C21131   7.227   0.949   2.911 -0.3963  0.3924  0.3178
  161MOL0     C21132   7.223   0.970   2.759  0.5333 -0.0002  1.1631
  161MOL0     C21133   7.157   0.851   2.674 -0.4270 -1.3753 -0.3591
  161MOL0     C21134   7.234   0.721   2.680  0.2176  0.1935 -0.3376
  161MOL0     C21135   7.177   0.630   2.572  0.8566  1.3744  0.9576
  161MOL0     C21136   7.246   0.489   2.580 -0.3362  0.4169 -0.7353
  161MOL0     N21137   7.220   0.412   2.463  1.3072 -0.1575 -0.3375
  161MOL0     C21138   7.086   0.363   2.452 -0.6450  0.3590  0.7003
  161MOL0     C21139   7.078   0.340   2.305 -0.1302 -0.2438 -0.4117
  161MOL0     C21140   6.968   0.289   2.222 -0.1170  0.1741  0.7002
  161MOL0     C21141   6.852   0.388   2.206  0.5584  0.4017  0.1554
  161MOL0     C21142   6.774   0.393   2.336  0.7731  0.1032 -1.0073
  161MOL0     C21143   6.692   0.526   2.341 -0.4095  0.5882 -0.1494
  161MOL0     O21144   6.782   0.638   2.383  0.6180  0.4004  0.3340
  161MOL0     C21145   6.734   0.767   2.379  0.1227 -0.4538 -0.0739
  161MOL0     C21146   6.618   0.810   2.314 -0.0143  0.4872 -0.7229
  161MOL0     C21147   6.582   0.951   2.320  0.2989 -0.5373  0.1159
  161MOL0     C21148   6.651   1.039   2.395  0.6642 -0.2165 -0.5755
  161MOL0     C21149   6.593   1.171   2.421 -0.5680 -1.2196  0.1578
  161MOL0     O21150   6.643   1.237   2.525 -0.1900  0.0998 -0.3728
  161MOL0     C21151   6.645   1.373   2.551  0.9857  1.3519  0.2412
  161MOL0     C21152   6.654   1.415   2.685  0.3526  0.3757 -0.4193
  161MOL0     C21153   6.658   1.553   2.708  0.3197  0.4129 -0.1613
  161MOL0     C21154   6.646   1.654   2.610  0.8554 -0.5035  1.4445
  161MOL0     O21155   6.644   1.788   2.649  0.7077 -0.2786  0.3461
  161MOL0     C21156   6.557   1.874   2.568  0.1413  0.4350  0.2896
  161MOL0     C21157   6.553   2.011   2.633  0.9735  0.1796  0.0931
  161MOL0     C21158   6.465   2.018   2.754  0.7863 -1.5696 -0.0357
  161MOL0     C21159   6.494   2.139   2.839 -0.0682  0.4278  0.4447
  161MOL0     C21160   6.419   2.124   2.979 -0.1585 -0.7377  0.0688
  161MOL0     C21161   6.375   2.268   3.033  0.0578  0.2038 -0.9560
  161MOL0     C21162   6.360   2.251   3.186  0.2033  0.0904 -0.5881
  161MOL0     C21163   6.301   2.376   3.253 -0.9799  0.0158 -0.0686
  161MOL0    Cl21164   6.411   2.520   3.210  0.3027 -0.0642 -0.6132
  161MOL0     C21165   6.620   1.603   2.483  0.4117  0.3498  1.0868
  161MOL0     C21166   6.634   1.464   2.451  0.2212 -0.7074  0.0317
  161MOL0     O21167   6.514   1.224   2.340  0.2341 -0.1220  0.3379
  161MOL0     C21168   6.762   0.991   2.469  0.6703  0.3662  0.0714
  161MOL0     C21169   6.810   0.859   2.456  0.0461 -0.2625  0.8331
  161MOL0     N21170   7.202   0.377   2.250  0.7521 -0.2339 -0.1361
  161MOL0     N21171   7.279   0.429   2.342 -1.2423  0.6884 -0.1478
  161MOL0     C21172   6.931   1.295   3.184  0.3921 -0.1794  0.3510
  161MOL0     C21173   6.834   1.399   3.204 -0.4960 -0.0982 -0.3203
  161MOL0     C21174   6.608   1.752   3.262 -0.1614  0.0133 -0.3915
  161MOL0     C21175   6.521   1.803   3.165 -0.7867  0.2960 -0.1411
  161MOL0     C21176   6.401   1.864   3.196 -0.2527 -1.0002 -1.4199
  161MOL0     C21177   6.351   1.881   3.327 -0.1570  0.0853  0.7047
  161MOL0     O21178   6.227   1.944   3.342 -0.2071  0.5365  1.0478
  161MOL0     C21179   6.176   1.941   3.469  0.7308 -0.5772 -0.9562
  161MOL0     C21180   6.025   1.937   3.460 -0.1845  0.4210 -0.6131
  161MOL0     C21181   5.973   1.824   3.366  0.2205 -0.4041  0.5755
  161MOL0     C21182   5.823   1.814   3.339 -1.1171  1.2148 -0.4304
  161MOL0     C21183   5.793   1.936   3.257  0.1305  0.6833 -0.1999
  161MOL0     C21184   5.767   2.038   3.191 -0.0719 -0.1481 -0.2511
  161MOL0     C21185   6.433   1.823   3.429 -0.2865  1.1864  0.0659
  161MOL0     C21186   6.563   1.774   3.400 -0.4840  0.0728  0.1749
  161MOL0     H21187   6.884   1.558   2.912 -1.4259 -0.8080 -0.2379
  161MOL0     H21188   7.003   1.371   2.854 -3.0675 -1.4380 -0.9666
  161MOL0     H21189   7.247   1.282   3.045  0.1046 -1.0690  0.7939
  161MOL0     H21190   7.194   1.235   2.885 -1.4044 -0.8489 -0.4325
  161MOL0     H21191   7.320   1.038   3.085  2.1305  0.9317 -0.6513
  161MOL0     H21192   7.392   1.093   2.934 -0.4175  1.7549 -1.6009
  161MOL0     H21193   7.129   0.929   2.956 -1.2469  0.8328 -1.2659
  161MOL0     H21194   7.290   0.861   2.924 -0.5539  0.2938  0.4087
  161MOL0     H21195   7.162   1.054   2.725  2.2854  0.5873 -0.6808
  161MOL0     H21196   7.323   0.991   2.722 -0.4856  2.1950 -0.5671
  161MOL0     H21197   7.163   0.877   2.568 -0.0472 -1.4607 -0.3609
  161MOL0     H21198   7.053   0.831   2.702 -0.4259  1.1756  1.8582
  161MOL0     H21199   7.213   0.674   2.776 -1.4900 -0.1895 -0.8485
  161MOL0     H21200   7.341   0.738   2.664  0.5990  0.7248  2.3773
  161MOL0     H21201   7.071   0.623   2.595  0.5828  1.1930 -0.3199
  161MOL0     H21202   7.186   0.659   2.467 -3.1934 -0.3454 -0.0487
  161MOL0     H21203   7.230   0.436   2.674 -0.3239  0.4157 -0.7334
  161MOL0     H21204   7.356   0.496   2.582 -0.1237 -2.1335  1.0341
  161MOL0     H21205   7.015   0.360   2.533  0.2020 -3.5976  1.5043
  161MOL0     H21206   6.933   0.193   2.259  2.7373 -1.1266  0.2658
  161MOL0     H21207   7.012   0.270   2.124  0.8442 -0.3605  1.2215
  161MOL0     H21208   6.797   0.362   2.116  1.0895  1.5310 -0.5121
  161MOL0     H21209   6.886   0.487   2.174 -0.2276  0.2796 -1.1078
  161MOL0     H21210   6.704   0.310   2.323  1.0182 -0.2045 -0.3753
  161MOL0     H21211   6.841   0.391   2.423  0.2167  3.3193 -0.3962
  161MOL0     H21212   6.603   0.524   2.404 -2.7472  1.3803 -3.1825
  161MOL0     H21213   6.639   0.538   2.246 -0.9337 -0.2109  0.0284
  161MOL0     H21214   6.548   0.747   2.261  1.7825 -0.6394 -1.8689
  161MOL0     H21215   6.494   0.989   2.270  1.3934 -1.0964 -2.3663
  161MOL0     H21216   6.653   1.344   2.767 -3.5764  1.1052  0.3626
  161MOL0     H21217   6.675   1.594   2.807  1.1467  0.5178 -0.3447
  161MOL0     H21218   6.465   1.818   2.585  1.5943 -1.4136  2.7642
  161MOL0     H21219   6.607   1.879   2.471  0.4304  3.6956  0.5130
  161MOL0     H21220   6.512   2.087   2.567  0.2098 -0.9634 -0.7854
  161MOL0     H21221   6.650   2.047   2.669 -0.2076  0.1760  3.7741
  161MOL0     H21222   6.464   1.918   2.799  0.5231 -0.9533  1.3787
  161MOL0     H21223   6.361   2.019   2.719  0.1368  2.6813  1.4524
  161MOL0     H21224   6.601   2.150   2.860  0.1121  0.1092 -0.2518
  161MOL0     H21225   6.461   2.235   2.798  1.9121  0.9395 -0.0598
  161MOL0     H21226   6.493   2.081   3.047 -0.2644 -2.5331 -0.9109
  161MOL0     H21227   6.339   2.050   2.976 -0.4408 -0.4048 -1.5013
  161MOL0     H21228   6.290   2.310   2.979 -0.7802 -0.4205 -0.1705
  161MOL0     H21229   6.461   2.334   3.020  2.8599 -2.4455  2.1291
  161MOL0     H21230   6.297   2.162   3.195  0.1353  0.3852  3.1764
  161MOL0     H21231   6.459   2.236   3.231 -0.2836  1.2141  0.9266
  161MOL0     H21232   6.301   2.370   3.362  0.2260 -0.4230 -0.0727
  161MOL0     H21233   6.195   2.388   3.231 -1.4452  1.2235  2.4584
  161MOL0     H21234   6.620   1.667   2.396  0.9282  0.0046  0.8209
  161MOL0     H21235   6.633   1.426   2.349 -3.0374 -0.5618 -0.0930
  161MOL0     H21236   6.824   1.053   2.534  1.0154  0.7369 -0.6006
  161MOL0     H21237   6.904   0.816   2.487 -0.0939 -1.3504 -0.1883
  161MOL0     H21238   6.961   1.233   3.268  0.6675  1.4323  1.4932
  161MOL0     H21239   6.783   1.411   3.299  1.6266  0.9256  0.7514
  161MOL0     H21240   6.549   1.778   3.063  2.2079  2.4904  0.0040
  161MOL0     H21241   6.338   1.893   3.113 -1.8970  0.8965  0.3480
  161MOL0     H21242   6.194   2.034   3.524  3.2664 -2.1114  1.0129
  161MOL0     H21243   6.200   1.851   3.525  0.9682 -2.5378 -3.9729
  161MOL0     H21244   5.988   1.922   3.562 -0.8587 -0.1404 -0.9353
  161MOL0     H21245   5.991   2.036   3.429 -0.8219  0.8615  1.3086
  161MOL0     H21246   6.013   1.737   3.420 -1.5123 -0.3457  2.0446
  161MOL0     H21247   6.018   1.827   3.266  0.7069 -1.9361  0.7227
  161MOL0     H21248   5.804   1.722   3.282  3.1849  0.1865 -0.5353
  161MOL0     H21249   5.761   1.807   3.429 -2.3039  2.1552 -1.1425
  161MOL0     H21250   5.735   2.123   3.133  0.3253 -0.6862 -1.2844
  161MOL0     H21251   6.401   1.820   3.532 -1.0496  5.9825  0.1597
  161MOL0     H21252   6.615   1.738   3.488 -0.3546  3.5291  1.6644
  162MOL0     O21253   5.408   3.196   5.389 -0.6204 -0.3376 -0.3020
  162MOL0     C21254   5.369   3.263   5.298  0.0966 -0.3528 -0.0039
  162MOL0     O21255   5.311   3.208   5.188 -0.1897 -0.1613 -0.2020
  162MOL0     C21256   5.309   3.076   5.148  0.0807 -0.6387  0.4044
  162MOL0     C21257   5.207   3.025   5.077  0.4077  0.4086  0.1949
  162MOL0     C21258   5.201   2.892   5.034  0.8461  0.6565 -0.5546
  162MOL0     C21259   5.297   2.799   5.080  0.1684  0.7724  0.2727
  162MOL0     O21260   5.280   2.667   5.056 -0.0537  1.4099 -0.6412
  162MOL0     C21261   5.284   2.581   5.170 -0.6297 -0.1379 -0.8294
  162MOL0     C21262   5.155   2.533   5.237 -0.1319 -0.4518 -1.1607
  162MOL0     C21263   5.065   2.648   5.280 -0.3345 -1.2571  0.5106
  162MOL0     C21264   4.942   2.594   5.344  0.2278  0.6624  0.2821
  162MOL0     C21265   4.952   2.518   5.473  0.7392  0.1810 -0.0391
  162MOL0     C21266   4.819   2.449   5.513 -0.7528 -0.0991  0.7885
  162MOL0     C21267   4.816   2.396   5.654  0.8150  0.2646  0.2170
  162MOL0     C21268   4.679   2.340   5.682  0.7407  0.5453  0.0111
  162MOL0     N21269   4.676   2.292   5.821 -0.7697  1.0798  0.2420
  162MOL0     C21270   4.783   2.263   5.902 -0.9783  0.3076  0.0325
  162MOL0     C21271   4.731   2.230   6.025  0.3892  0.8962  0.5851
  162MOL0     C21272   4.804   2.199   6.149 -0.1775 -0.3054  0.6469
  162MOL0     C21273   4.811   2.326   6.239  0.5601  0.3474 -0.4562
  162MOL0     C21274   4.880   2.451   6.183  0.1703  0.6212 -0.0535
  162MOL0     C21275   4.870   2.568   6.289  0.0872 -0.0965  0.5801
  162MOL0     O21276   4.989   2.552   6.362  0.2801 -0.1307  0.7840
  162MOL0     C21277   5.101   2.616   6.323 -0.7721 -0.2185 -0.1406
  162MOL0     C21278   5.111   2.688   6.199 -1.1078 -0.2198 -1.1620
  162MOL0     C21279   5.232   2.759   6.155  0.6012  0.3924 -0.5728
  162MOL0     C21280   5.339   2.765   6.249  0.0120 -0.2917 -0.0781
  162MOL0     C21281   5.458   2.834   6.211 -0.4027 -0.7629 -0.3105
  162MOL0     O21282   5.453   2.938   6.119 -0.7527  0.1782 -0.3854
  162MOL0     C21283   5.563   2.984   6.055  1.2843  0.1208  0.2116
  162MOL0     C21284   5.665   2.910   5.996  0.5972  0.7250  0.0859
  162MOL0     C21285   5.769   2.965   5.929 -0.4409  0.5345  0.9424
  162MOL0     C21286   5.776   3.112   5.914  0.1707 -0.1817  0.8178
  162MOL0     O21287   5.884   3.187   5.872 -0.6642  0.8916 -0.6632
  162MOL0     C21288   5.958   3.116   5.773 -0.4637  0.3354  0.2321
  162MOL0     C21289   6.061   3.214   5.707  0.1593 -0.3482  0.2724
  162MOL0     C21290   5.978   3.304   5.612  0.0521 -0.7045 -0.0474
  162MOL0     C21291   6.056   3.406   5.525  0.5015  0.0477  0.7597
  162MOL0     C21292   5.963   3.467   5.413  0.2271 -0.3455 -1.1676
  162MOL0     C21293   6.049   3.532   5.313 -0.3547  0.2190  0.7294
  162MOL0     C21294   5.968   3.567   5.184  0.3227 -0.4124  0.2416
  162MOL0     C21295   5.863   3.681   5.193 -0.0233 -0.6227  0.1101
  162MOL0    Cl21296   5.785   3.703   5.039 -0.3434 -0.8320 -0.0658
  162MOL0     C21297   5.671   3.183   5.968 -0.8921  0.3539 -0.1061
  162MOL0     C21298   5.569   3.120   6.032 -0.3885 -0.1702 -0.0725
  162MOL0     O21299   5.559   2.788   6.259 -0.5602  0.2222 -0.1694
  162MOL0     C21300   5.325   2.690   6.374  1.2095 -0.3118  0.6908
  162MOL0     C21301   5.207   2.619   6.409 -1.0530 -0.7328 -0.2566
  162MOL0     N21302   4.594   2.224   6.014  0.3267 -0.1749 -0.3480
  162MOL0     N21303   4.563   2.264   5.897 -0.1732 -0.9741  0.3596
  162MOL0     C21304   5.397   2.848   5.160  0.5612  1.0509 -0.1400
  162MOL0     C21305   5.404   2.986   5.190 -0.5226  0.0807  0.1622
  162MOL0     C21306   5.391   3.417   5.309 -1.0918  0.3324 -0.3734
  162MOL0     C21307   5.312   3.502   5.234  0.1395 -0.3682  0.0460
  162MOL0     C21308   5.332   3.646   5.250  0.7362 -0.2590  0.7787
  162MOL0     C21309   5.437   3.694   5.330  0.9569 -0.0354  0.9392
  162MOL0     O21310   5.472   3.826   5.346  0.0148 -0.3778 -1.0016
  162MOL0     C21311   5.364   3.915   5.373 -1.0416  0.8267  1.0664
  162MOL0     C21312   5.303   3.903   5.508 -0.6911  0.3417  1.0587
  162MOL0     C21313   5.406   3.931   5.619 -0.6617 -0.3606  0.2639
  162MOL0     C21314   5.383   3.855   5.752 -0.2576  0.1138  0.5913
  162MOL0     C21315   5.245   3.872   5.804 -0.0629 -0.6615  0.1701
  162MOL0     C21316   5.132   3.884   5.857 -0.0613  0.0864  0.7535
  162MOL0     C21317   5.524   3.600   5.388  0.4076 -0.1572  0.4315
  162MOL0     C21318   5.493   3.466   5.386 -0.5391  0.5140  0.0528
  162MOL0     H21319   5.128   3.098   5.059 -1.0422 -1.1845 -0.2054
  162MOL0     H21320   5.117   2.845   4.985  2.3337 -1.0810 -1.5833
  162MOL0     H21321   5.335   2.627   5.255 -1.5437 -0.5084 -0.0779
  162MOL0     H21322   5.331   2.485   5.146  1.6384  0.5796  0.4590
  162MOL0     H21323   5.185   2.475   5.325 -0.9369  2.2406  1.0422
  162MOL0     H21324   5.107   2.474   5.159 -0.0455  0.6037 -2.0311
  162MOL0     H21325   5.049   2.713   5.194  5.6365  1.1482  0.7531
  162MOL0     H21326   5.118   2.712   5.351  0.7946 -1.5958 -0.0166
  162MOL0     H21327   4.882   2.682   5.369  0.3760  0.2171  2.3393
  162MOL0     H21328   4.884   2.533   5.274 -3.0454 -0.1489  3.3843
  162MOL0     H21329   4.982   2.584   5.554  1.1506  0.7918 -0.6728
  162MOL0     H21330   5.016   2.430   5.457  1.2075  0.1029  2.0810
  162MOL0     H21331   4.792   2.384   5.430 -2.0577  0.6475  0.5909
  162MOL0     H21332   4.743   2.527   5.503  2.2405  2.8854 -0.6866
  162MOL0     H21333   4.893   2.320   5.667 -0.0945 -0.6073  0.7171
  162MOL0     H21334   4.851   2.479   5.716  3.8838 -0.0710 -0.9133
  162MOL0     H21335   4.660   2.260   5.609  0.7275  2.5351 -2.3018
  162MOL0     H21336   4.607   2.422   5.678 -0.3916 -0.2929  2.0493
  162MOL0     H21337   4.888   2.260   5.875 -0.3364  0.2109  2.3471
  162MOL0     H21338   4.902   2.161   6.120 -0.0977  2.5862 -4.0367
  162MOL0     H21339   4.747   2.127   6.208  0.4801 -1.9591 -0.6473
  162MOL0     H21340   4.871   2.306   6.328  2.2065  1.4314 -1.2874
  162MOL0     H21341   4.711   2.339   6.283  0.0961 -0.2293 -1.3149
  162MOL0     H21342   4.983   2.423   6.160  0.1285 -1.2769  1.7434
  162MOL0     H21343   4.838   2.481   6.086 -1.5143  0.6078  0.6298
  162MOL0     H21344   4.770   2.577   6.334 -0.8885  1.4859 -1.7241
  162MOL0     H21345   4.868   2.665   6.238 -1.6126  0.6652  1.9874
  162MOL0     H21346   5.033   2.716   6.129 -1.9617  2.7473  0.7900
  162MOL0     H21347   5.244   2.807   6.058  3.4355 -0.3373 -0.6493
  162MOL0     H21348   5.643   2.804   5.995 -3.4267  1.2539  3.0185
  162MOL0     H21349   5.844   2.901   5.884  2.1050  3.6034  0.4458
  162MOL0     H21350   5.898   3.060   5.700 -0.6918  1.5716 -0.5664
  162MOL0     H21351   6.020   3.041   5.822  2.0126  0.3539 -2.6301
  162MOL0     H21352   6.139   3.166   5.648 -0.0861 -2.2964  1.4297
  162MOL0     H21353   6.103   3.266   5.794  1.9187  0.7319 -1.1529
  162MOL0     H21354   5.904   3.363   5.667 -0.8645 -2.2199  0.4043
  162MOL0     H21355   5.931   3.239   5.539 -2.1190  0.2285  0.4521
  162MOL0     H21356   6.089   3.483   5.596 -0.4064  0.5445  0.6494
  162MOL0     H21357   6.138   3.345   5.485  0.3095 -0.0296  0.4881
  162MOL0     H21358   5.890   3.540   5.449  0.3953 -0.6150 -0.2709
  162MOL0     H21359   5.896   3.390   5.375 -0.7583  1.0277 -2.3710
  162MOL0     H21360   6.127   3.461   5.282 -1.2354  0.2319 -1.7851
  162MOL0     H21361   6.094   3.617   5.363  2.1828 -0.8802  0.4602
  162MOL0     H21362   6.041   3.573   5.103  1.6838 -4.6012  0.9150
  162MOL0     H21363   5.914   3.475   5.161 -0.5303  0.3829 -1.0502
  162MOL0     H21364   5.924   3.764   5.229  0.9195 -2.5383  3.4660
  162MOL0     H21365   5.797   3.668   5.279  1.3537 -0.5462  1.2139
  162MOL0     H21366   5.670   3.291   5.955 -0.3887  0.1340 -2.4207
  162MOL0     H21367   5.481   3.173   6.067 -1.9359 -1.1744 -2.2365
  162MOL0     H21368   5.400   2.677   6.452  0.5783  1.0498  1.5630
  162MOL0     H21369   5.198   2.571   6.506 -0.6237 -0.0485  0.1213
  162MOL0     H21370   5.481   2.787   5.193 -1.2027 -1.0535  0.7129
  162MOL0     H21371   5.491   3.031   5.237 -0.2025  3.7557 -3.3731
  162MOL0     H21372   5.230   3.458   5.178 -2.7767 -0.2891  3.8001
  162MOL0     H21373   5.268   3.711   5.191  3.1222  1.2009 -0.3462
  162MOL0     H21374   5.300   3.894   5.287  0.7134 -1.1173  0.1301
  162MOL0     H21375   5.396   4.019   5.358  1.3723  0.0092  0.0315
  162MOL0     H21376   5.227   3.981   5.511  0.2861  1.4029 -0.5488
  162MOL0     H21377   5.247   3.810   5.527  0.1768 -0.2622  0.7031
  162MOL0     H21378   5.409   4.039   5.639 -1.6382 -0.1348 -0.7073
  162MOL0     H21379   5.509   3.918   5.583 -0.8411  0.3110 -0.5099
  162MOL0     H21380   5.419   3.752   5.743  1.8412  0.9113 -1.0600
  162MOL0     H21381   5.447   3.894   5.831  2.0960 -0.1819 -1.0838
  162MOL0     H21382   5.039   3.889   5.910 -0.2763  0.3412  0.3556
  162MOL0     H21383   5.604   3.629   5.456  0.4053  0.9885 -0.0344
  162MOL0     H21384   5.548   3.391   5.442 -0.1950  0.1902 -0.7123
  163MOL0     O21385   1.479   1.964   5.312 -0.2203  0.6551 -0.4212
  163MOL0     C21386   1.508   1.855   5.358  0.8877 -1.0635  0.3428
  163MOL0     O21387   1.610   1.833   5.441 -0.7795  0.3074 -0.2245
  163MOL0     C21388   1.704   1.931   5.462  0.4549 -0.4083 -0.2099
  163MOL0     C21389   1.782   1.992   5.357  0.5852  0.4346 -0.4174
  163MOL0     C21390   1.857   2.103   5.394 -1.5910 -0.0168 -0.2758
  163MOL0     C21391   1.857   2.159   5.517  0.2620  1.1707 -0.5914
  163MOL0     O21392   1.937   2.264   5.528 -0.0684 -0.4081 -0.1230
  163MOL0     C21393   1.998   2.271   5.659 -1.0414 -0.3321  0.2191
  163MOL0     C21394   2.141   2.323   5.637 -0.3644 -0.6650  0.6543
  163MOL0     C21395   2.157   2.455   5.561 -0.0295  0.0211 -0.2196
  163MOL0     C21396   2.056   2.559   5.614 -0.1840 -0.6462 -0.8595
  163MOL0     C21397   2.073   2.705   5.568 -0.0559  1.2131 -0.2287
  163MOL0     C21398   2.076   2.734   5.419 -0.0070 -0.0615  1.3283
  163MOL0     C21399   1.956   2.659   5.344 -0.7962  0.1480  0.4166
  163MOL0     C21400   1.896   2.743   5.227 -0.9608  0.3797  0.3491
  163MOL0     N21401   1.773   2.697   5.172 -0.1083  0.0732 -0.5338
  163MOL0     C21402   1.678   2.635   5.251 -0.1178  0.4432  0.0411
  163MOL0     C21403   1.576   2.620   5.167 -0.0900  0.4556  0.1391
  163MOL0     C21404   1.440   2.553   5.200  0.5051  0.4350  0.8053
  163MOL0     C21405   1.335   2.655   5.206  0.9880  0.1829 -0.0612
  163MOL0     C21406   1.266   2.662   5.071 -0.0683 -0.6655 -0.7224
  163MOL0     C21407   1.159   2.553   5.046 -0.8021 -0.8855 -1.0928
  163MOL0     O21408   1.076   2.605   4.940  0.5909  0.6734 -0.2879
  163MOL0     C21409   0.983   2.706   4.951  0.5361  0.1721 -1.0965
  163MOL0     C21410   0.913   2.749   4.839  0.2876  0.2313 -0.4818
  163MOL0     C21411   0.797   2.824   4.845  0.3265  0.5651 -0.2304
  163MOL0     C21412   0.753   2.872   4.965  0.0114 -0.5308 -0.0434
  163MOL0     C21413   0.641   2.966   4.972 -0.2136 -0.5839 -0.1634
  163MOL0     O21414   0.648   3.071   4.887 -0.3930 -0.2693 -0.4347
  163MOL0     C21415   0.549   3.168   4.885  0.0521 -0.5812 -1.1470
  163MOL0     C21416   0.434   3.173   4.971  0.9288 -0.4764 -0.7818
  163MOL0     C21417   0.344   3.281   4.974 -0.5789 -0.3462  1.1358
  163MOL0     C21418   0.363   3.387   4.885 -0.2317  0.3028  0.3927
  163MOL0     O21419   0.274   3.488   4.875 -0.7494 -0.2447  0.2198
  163MOL0     C21420   0.176   3.508   4.984  0.0318  0.2510  0.2680
  163MOL0     C21421   0.088   3.630   4.970 -0.2306  0.1018 -0.1483
  163MOL0     C21422   0.163   3.762   4.992  0.3832 -0.5521  0.1896
  163MOL0     C21423   0.061   3.877   5.022 -0.5397  0.7754 -0.2667
  163MOL0     C21424   0.144   3.992   5.094 -0.2832 -0.1042 -0.0434
  163MOL0     C21425   0.108   4.007   5.237 -0.6052  0.5904  0.5812
  163MOL0     C21426   0.226   4.068   5.327  1.1808 -1.2162  0.8107
  163MOL0     C21427   0.250   4.222   5.318  0.6431 -0.6615 -0.0753
  163MOL0    Cl21428   0.290   4.265   5.155  0.5823 -0.4485  0.3229
  163MOL0     C21429   0.473   3.382   4.799  0.2698 -0.2909  0.2185
  163MOL0     C21430   0.558   3.275   4.796 -0.1741  0.1787 -0.9058
  163MOL0     O21431   0.565   2.946   5.067  0.8856 -0.1667 -0.1234
  163MOL0     C21432   0.821   2.839   5.078  0.6142 -0.3270  0.5101
  163MOL0     C21433   0.937   2.758   5.073 -0.0072  0.5674 -0.4444
  163MOL0     N21434   1.608   2.670   5.042  0.4875  0.4520  0.2195
  163MOL0     N21435   1.722   2.729   5.047 -0.0107 -0.0201  0.4720
  163MOL0     C21436   1.780   2.101   5.618  0.7824 -0.7823 -0.2983
  163MOL0     C21437   1.704   1.988   5.591  0.2926 -0.3618  0.2792
  163MOL0     C21438   1.452   1.735   5.287  0.2822  0.6843  0.4295
  163MOL0     C21439   1.393   1.746   5.159 -0.2527 -0.1789 -0.3975
  163MOL0     C21440   1.313   1.638   5.114  0.0188 -1.8551  0.1177
  163MOL0     C21441   1.302   1.522   5.190 -0.2689 -0.2275  0.2502
  163MOL0     O21442   1.212   1.426   5.150 -0.7011 -0.4862 -0.4097
  163MOL0     C21443   1.072   1.444   5.177  0.9133 -0.8031 -1.2775
  163MOL0     C21444   1.011   1.317   5.242  0.6889  0.2401  0.1636
  163MOL0     C21445   1.030   1.191   5.156 -0.9827 -0.3620 -0.8689
  163MOL0     C21446   0.920   1.089   5.183  0.3750  0.8436 -0.8573
  163MOL0     C21447   0.974   0.998   5.291 -0.4700  0.0153 -0.2362
  163MOL0     C21448   1.021   0.932   5.385 -0.1569  0.5358 -0.6143
  163MOL0     C21449   1.368   1.503   5.310  0.1145 -0.0483 -0.7588
  163MOL0     C21450   1.444   1.616   5.358  1.1486 -0.6934 -0.0857
  163MOL0     H21451   1.755   1.947   5.262 -1.8459  1.5347 -0.3476
  163MOL0     H21452   1.920   2.156   5.323 -0.1971 -0.8515  0.2931
  163MOL0     H21453   2.021   2.172   5.700  2.1679  1.2560  2.6443
  163MOL0     H21454   1.935   2.329   5.727 -0.5767  2.8007 -1.7944
  163MOL0     H21455   2.183   2.245   5.572 -0.0687  0.1332 -0.1357
  163MOL0     H21456   2.196   2.329   5.731  0.5266 -2.8572  0.3424
  163MOL0     H21457   2.139   2.453   5.453 -2.5328  1.7123  0.0706
  163MOL0     H21458   2.257   2.499   5.572  0.0494 -0.0905 -0.4799
  163MOL0     H21459   1.956   2.515   5.608  0.1121 -1.4251 -0.3283
  163MOL0     H21460   2.086   2.575   5.718 -0.3746  0.9122 -1.0241
  163MOL0     H21461   2.162   2.745   5.618  1.0759 -3.1542  1.7740
  163MOL0     H21462   1.987   2.765   5.599 -2.3534 -1.2283 -1.4955
  163MOL0     H21463   2.175   2.719   5.375 -0.7894  0.8054 -0.8709
  163MOL0     H21464   2.058   2.841   5.410 -4.3585 -0.7969 -1.5929
  163MOL0     H21465   1.985   2.557   5.319 -1.9229 -0.0239 -0.2775
  163MOL0     H21466   1.883   2.651   5.426  1.6963  0.7754  2.8474
  163MOL0     H21467   1.971   2.753   5.147 -0.1067 -0.1032  1.0745
  163MOL0     H21468   1.879   2.841   5.272  4.1629  1.1188  1.2314
  163MOL0     H21469   1.698   2.595   5.349 -1.7960 -2.0883 -0.5571
  163MOL0     H21470   1.434   2.508   5.299 -1.8418  0.3688  0.6736
  163MOL0     H21471   1.414   2.473   5.130  1.6603  1.1545 -0.4933
  163MOL0     H21472   1.365   2.752   5.246  0.3806  0.7582 -0.9876
  163MOL0     H21473   1.267   2.618   5.284 -0.2948  0.7917 -0.8567
  163MOL0     H21474   1.210   2.756   5.070  2.5482  1.0285  0.3629
  163MOL0     H21475   1.333   2.679   4.986  1.2761  1.1805  0.6394
  163MOL0     H21476   1.104   2.529   5.138  1.1841 -2.5360 -0.2369
  163MOL0     H21477   1.216   2.465   5.014  1.5423  0.9679 -2.2839
  163MOL0     H21478   0.943   2.708   4.743 -0.6426  1.4696 -1.3256
  163MOL0     H21479   0.735   2.847   4.759 -2.7436 -4.3334  0.3263
  163MOL0     H21480   0.405   3.093   5.039 -1.0282  1.4374  0.8063
  163MOL0     H21481   0.261   3.276   5.044  0.4894 -1.0470  2.4211
  163MOL0     H21482   0.237   3.519   5.074  1.5497  1.5246 -0.8598
  163MOL0     H21483   0.113   3.418   4.992 -1.4858  1.2129 -0.3935
  163MOL0     H21484   0.009   3.621   5.046 -1.6217 -1.4484 -1.6861
  163MOL0     H21485   0.034   3.632   4.875 -0.6530  1.3434  0.1031
  163MOL0     H21486   0.227   3.788   4.907  2.1594 -1.9775  1.0078
  163MOL0     H21487   0.235   3.752   5.074  0.4584  2.1271  0.5460
  163MOL0     H21488   0.025   3.907   4.924 -0.1604  1.1189 -0.3021
  163MOL0     H21489  -0.022   3.841   5.084 -0.6020  0.9541 -0.2453
  163MOL0     H21490   0.125   4.090   5.049  1.1189  0.4307  0.4697
  163MOL0     H21491   0.250   3.972   5.078 -0.0827  1.0215 -0.2346
  163MOL0     H21492   0.101   3.906   5.279  0.7174  1.6789  3.7438
  163MOL0     H21493   0.023   4.075   5.252 -0.4543  0.9714 -0.2710
  163MOL0     H21494   0.205   4.035   5.429 -2.3451  0.3859  0.7374
  163MOL0     H21495   0.316   4.023   5.284 -1.0813 -1.9488 -3.6803
  163MOL0     H21496   0.332   4.250   5.386 -1.6395  5.5380  0.7848
  163MOL0     H21497   0.165   4.284   5.349 -0.4180 -1.4676 -1.2881
  163MOL0     H21498   0.481   3.467   4.732 -1.2175  0.5101  1.0018
  163MOL0     H21499   0.646   3.268   4.732 -0.2031  0.7850 -1.0262
  163MOL0     H21500   0.796   2.876   5.177  4.9945  1.0984  1.3113
  163MOL0     H21501   0.966   2.722   5.172  0.1319 -3.3717 -1.7441
  163MOL0     H21502   1.762   2.142   5.717 -0.3470  1.8669 -1.4780
  163MOL0     H21503   1.625   1.957   5.659 -0.5716  1.6421  0.2424
  163MOL0     H21504   1.399   1.846   5.117  0.6706  0.9473  2.1678
  163MOL0     H21505   1.263   1.642   5.018 -0.6994 -0.0619  0.5273
  163MOL0     H21506   1.012   1.460   5.087 -0.1700 -1.3986 -0.6827
  163MOL0     H21507   1.050   1.521   5.252 -1.9161 -1.3564 -1.4523
  163MOL0     H21508   1.061   1.299   5.337 -0.3763 -0.3057  0.6414
  163MOL0     H21509   0.911   1.352   5.268  0.5086  1.8849 -2.4187
  163MOL0     H21510   1.130   1.153   5.177  0.2772  3.6019  1.4787
  163MOL0     H21511   1.016   1.218   5.051 -0.2109  0.9135 -0.6730
  163MOL0     H21512   0.825   1.137   5.211  1.2063  1.7211  0.5861
  163MOL0     H21513   0.904   1.014   5.105  0.9365 -2.4594  1.9386
  163MOL0     H21514   1.049   0.866   5.464  3.3578 -0.5752 -2.5653
  163MOL0     H21515   1.340   1.409   5.357  2.5833 -0.4442  0.0933
  163MOL0     H21516   1.492   1.613   5.456  1.1373 -0.6684 -0.0797
  164MOL0     O21517   1.735   6.076   0.938 -0.4939 -0.0792  0.8027
  164MOL0     C21518   1.673   6.130   0.840  0.0993  0.7644 -0.5490
  164MOL0     O21519   1.694   6.107   0.712 -0.7488 -0.0146  0.6602
  164MOL0     C21520   1.808   6.034   0.668  0.6173  0.7444  0.3205
  164MOL0     C21521   1.821   6.017   0.526  0.3923  0.3916 -0.4201
  164MOL0     C21522   1.936   5.958   0.463  0.4438  0.6712  0.1255
  164MOL0     C21523   2.035   5.912   0.536 -0.1513  0.1998 -0.7389
  164MOL0     O21524   2.138   5.856   0.467  0.2446 -0.2833 -0.9120
  164MOL0     C21525   2.244   5.791   0.545 -0.4006  0.0730 -0.0658
  164MOL0     C21526   2.337   5.733   0.432 -0.1285 -0.1869  0.9990
  164MOL0     C21527   2.463   5.668   0.477 -0.2155 -1.0418 -0.2017
  164MOL0     C21528   2.551   5.633   0.358 -0.3706  0.1882 -0.0905
  164MOL0     C21529   2.687   5.593   0.412 -0.2901 -0.3933  0.1646
  164MOL0     C21530   2.781   5.610   0.288 -0.5324 -0.8066  0.4087
  164MOL0     C21531   2.927   5.584   0.331 -0.9164  0.7853 -0.4496
  164MOL0     C21532   2.956   5.437   0.358 -0.7006  0.4602  0.2153
  164MOL0     N21533   2.999   5.374   0.236 -0.1921 -0.3676  0.1147
  164MOL0     C21534   3.121   5.388   0.188  0.1105  0.5050  0.5998
  164MOL0     C21535   3.119   5.318   0.068 -0.2086 -0.9304 -0.5573
  164MOL0     C21536   3.239   5.302  -0.022 -0.2484  0.0337 -0.5935
  164MOL0     C21537   3.227   5.372  -0.159 -0.8166  0.1757  0.8010
  164MOL0     C21538   3.135   5.299  -0.260  0.3601 -0.5621 -0.5132
  164MOL0     C21539   3.177   5.157  -0.279  0.9662 -0.5837 -0.2332
  164MOL0     O21540   3.106   5.083  -0.386 -1.0207 -0.0288 -0.7227
  164MOL0     C21541   2.996   5.008  -0.357 -0.5566  0.7449 -0.5460
  164MOL0     C21542   2.936   5.025  -0.234 -0.0764  0.2292 -0.5844
  164MOL0     C21543   2.822   4.962  -0.200  0.0414  0.4509  0.4773
  164MOL0     C21544   2.760   4.866  -0.296 -0.7142 -0.4065 -1.3499
  164MOL0     C21545   2.648   4.781  -0.260  0.0359  0.0207  0.0194
  164MOL0     O21546   2.586   4.692  -0.348 -1.1092  0.5246  0.2909
  164MOL0     C21547   2.518   4.590  -0.282  0.1870  0.7722  0.3372
  164MOL0     C21548   2.396   4.548  -0.334  0.0025  0.4394  0.7184
  164MOL0     C21549   2.322   4.441  -0.271  0.3555 -0.4464 -0.1211
  164MOL0     C21550   2.366   4.375  -0.155 -0.9935  0.3421 -0.7797
  164MOL0     O21551   2.275   4.290  -0.093 -0.2393  0.4362  0.8013
  164MOL0     C21552   2.157   4.357  -0.034  0.0491 -0.9407 -0.0350
  164MOL0     C21553   2.038   4.262  -0.032 -0.7217  0.5239 -0.0947
  164MOL0     C21554   1.963   4.227  -0.164 -0.5190  0.2814  0.9847
  164MOL0     C21555   1.852   4.122  -0.150  0.1527 -0.2416  1.1830
  164MOL0     C21556   1.813   4.065  -0.289  0.4753  0.5200 -1.2210
  164MOL0     C21557   1.709   3.952  -0.275 -0.2520  0.2060 -0.5698
  164MOL0     C21558   1.586   3.986  -0.191 -0.5378 -0.1908 -0.0908
  164MOL0     C21559   1.503   3.849  -0.179 -0.1739  0.2795 -0.2407
  164MOL0    Cl21560   1.603   3.743  -0.088  0.0276  0.8307 -0.0007
  164MOL0     C21561   2.497   4.398  -0.112  0.7214 -0.5399 -0.1149
  164MOL0     C21562   2.563   4.519  -0.172  0.1857  0.4133  0.0940
  164MOL0     O21563   2.602   4.818  -0.150  0.3589  0.1440 -0.8800
  164MOL0     C21564   2.828   4.849  -0.417 -0.2028  0.6536 -0.0256
  164MOL0     C21565   2.944   4.915  -0.446  0.9036 -0.9877 -0.4335
  164MOL0     N21566   3.000   5.262   0.047  0.7409  0.7818 -0.2299
  164MOL0     N21567   2.925   5.300   0.148  0.8365  0.0231 -0.4330
  164MOL0     C21568   2.018   5.915   0.671 -0.6384  0.1655  0.2714
  164MOL0     C21569   1.917   5.981   0.738  0.1242  0.3657 -0.4743
  164MOL0     C21570   1.563   6.225   0.866 -0.7436 -0.1446 -0.5103
  164MOL0     C21571   1.483   6.263   0.760  0.2955  0.6632 -0.1781
  164MOL0     C21572   1.393   6.369   0.772  0.2645  0.8830  0.4009
  164MOL0     C21573   1.372   6.439   0.893 -0.1648 -0.2471  0.0687
  164MOL0     O21574   1.281   6.546   0.884  0.3209 -0.6364  0.0567
  164MOL0     C21575   1.266   6.631   0.997  0.1664 -0.4698  0.1778
  164MOL0     C21576   1.209   6.761   0.942  0.3328  0.9276 -0.2117
  164MOL0     C21577   1.143   6.858   1.038 -0.4839  0.2803 -0.3420
  164MOL0     C21578   0.986   6.849   1.023  0.4596  0.1854 -0.0825
  164MOL0     C21579   0.935   6.910   0.898  0.0152  0.2998  0.2267
  164MOL0     C21580   0.905   6.964   0.796 -0.6610 -0.6536 -0.2638
  164MOL0     C21581   1.467   6.414   0.999  0.4783  0.0198  0.4015
  164MOL0     C21582   1.552   6.308   0.980 -0.0325 -0.4233 -0.7930
  164MOL0     H21583   1.746   6.063   0.463  4.2038  4.2073 -2.7159
  164MOL0     H21584   1.928   5.967   0.355 -2.2979 -2.9250 -0.1522
  164MOL0     H21585   2.211   5.707   0.607  0.5116 -0.5604 -0.4180
  164MOL0     H21586   2.302   5.863   0.603  1.2275 -3.0856  2.5479
  164MOL0     H21587   2.363   5.820   0.371 -1.8637  0.1074  0.6190
  164MOL0     H21588   2.284   5.653   0.379  0.2279 -2.4857  3.8676
  164MOL0     H21589   2.447   5.572   0.527  2.5957 -2.0984 -1.1269
  164MOL0     H21590   2.510   5.722   0.560 -1.5832 -0.2475  0.0906
  164MOL0     H21591   2.512   5.553   0.295 -0.2762  1.5168 -1.8968
  164MOL0     H21592   2.571   5.719   0.295  0.9601  0.4900  0.7100
  164MOL0     H21593   2.681   5.492   0.452  1.2013  1.2836  5.6514
  164MOL0     H21594   2.720   5.659   0.494 -1.0146  1.3936 -0.9205
  164MOL0     H21595   2.771   5.712   0.250 -0.5327 -1.4652 -1.4662
  164MOL0     H21596   2.745   5.547   0.205 -2.8922  0.8302  0.1101
  164MOL0     H21597   2.993   5.623   0.253  1.2104  0.1424  0.9706
  164MOL0     H21598   2.957   5.640   0.420  0.0549  0.5891 -0.6497
  164MOL0     H21599   2.871   5.381   0.398  0.5798 -1.5009  0.3344
  164MOL0     H21600   3.035   5.429   0.434 -0.8445  1.8783  0.5281
  164MOL0     H21601   3.209   5.435   0.229  0.7619 -1.2177  1.2505
  164MOL0     H21602   3.272   5.198  -0.037 -1.6709 -0.6489  0.7961
  164MOL0     H21603   3.311   5.363   0.033  1.6623 -1.5653 -1.2002
  164MOL0     H21604   3.319   5.381  -0.217 -2.0364 -1.2028 -1.5083
  164MOL0     H21605   3.184   5.472  -0.145 -0.2879  0.6058 -0.4919
  164MOL0     H21606   3.031   5.302  -0.225  0.2830  0.2078 -0.7777
  164MOL0     H21607   3.133   5.337  -0.362 -1.1149 -0.0243 -0.3103
  164MOL0     H21608   3.186   5.087  -0.195  1.1498  0.5522  0.7157
  164MOL0     H21609   3.280   5.156  -0.315  0.9184 -0.9895 -0.3698
  164MOL0     H21610   2.977   5.097  -0.164 -1.1186  0.4708 -0.1960
  164MOL0     H21611   2.787   4.966  -0.097 -2.6022  2.5566 -0.3855
  164MOL0     H21612   2.356   4.593  -0.425 -0.7113 -1.9205 -0.1954
  164MOL0     H21613   2.235   4.406  -0.324  0.2908 -1.4740  0.6449
  164MOL0     H21614   2.131   4.451  -0.082 -3.2280 -0.5720  2.1271
  164MOL0     H21615   2.173   4.382   0.071 -2.1299 -0.7243  0.2954
  164MOL0     H21616   1.959   4.313   0.024  0.4600  0.8407  1.3446
  164MOL0     H21617   2.059   4.166   0.018 -1.1694 -0.2830 -1.4016
  164MOL0     H21618   2.037   4.195  -0.237 -0.7175 -0.1882  0.9835
  164MOL0     H21619   1.937   4.326  -0.201  2.3269  0.2696 -1.3223
  164MOL0     H21620   1.895   4.031  -0.106  0.6472 -1.1681 -1.0305
  164MOL0     H21621   1.765   4.165  -0.101 -1.4512  1.3462 -2.6256
  164MOL0     H21622   1.894   4.016  -0.344 -0.6989 -2.6816 -0.2711
  164MOL0     H21623   1.771   4.142  -0.354 -2.6436 -1.4014 -1.6817
  164MOL0     H21624   1.760   3.871  -0.222 -1.4689  0.5963  1.3008
  164MOL0     H21625   1.669   3.934  -0.375  2.9016  0.4736 -2.0069
  164MOL0     H21626   1.620   4.030  -0.097  3.1295  0.3816 -1.4877
  164MOL0     H21627   1.533   4.065  -0.245 -0.5411  0.3200  0.6452
  164MOL0     H21628   1.483   3.805  -0.278  3.5979  1.1221 -1.5650
  164MOL0     H21629   1.408   3.876  -0.133  0.0780  1.7668 -0.5158
  164MOL0     H21630   2.526   4.334  -0.030  1.3080 -0.1820 -0.0394
  164MOL0     H21631   2.663   4.542  -0.136  0.5651 -2.3965  1.0417
  164MOL0     H21632   2.795   4.782  -0.496  1.9179 -1.4136  0.7088
  164MOL0     H21633   3.001   4.903  -0.537  0.8703  1.5556 -0.8713
  164MOL0     H21634   2.103   5.882   0.730 -0.4695  2.2401  1.2950
  164MOL0     H21635   1.924   5.997   0.845  0.6527 -0.2038 -0.4194
  164MOL0     H21636   1.483   6.212   0.665 -0.6414 -0.7305  0.5297
  164MOL0     H21637   1.339   6.398   0.682  1.0080 -0.1831 -0.4201
  164MOL0     H21638   1.356   6.662   1.051 -0.9035  1.9383  0.7204
  164MOL0     H21639   1.186   6.596   1.064  2.1135 -3.4614  1.1395
  164MOL0     H21640   1.287   6.817   0.889  1.7036  0.1752  0.9303
  164MOL0     H21641   1.136   6.755   0.861  1.0428 -0.4484 -0.7834
  164MOL0     H21642   1.180   6.958   1.016  3.9689 -1.1964 -0.5184
  164MOL0     H21643   1.165   6.844   1.144  1.9402 -0.9600 -0.9354
  164MOL0     H21644   0.968   6.741   1.026  1.6996 -0.0220  0.6389
  164MOL0     H21645   0.948   6.893   1.116 -0.1675 -1.0908  0.2995
  164MOL0     H21646   0.883   7.023   0.710  1.1668  0.7833  0.2072
  164MOL0     H21647   1.475   6.479   1.085 -0.7879  0.6412  0.0692
  164MOL0     H21648   1.629   6.289   1.055 -0.4350  1.3017  0.1204
  165MOL0     O21649   2.488   8.435   9.965 -0.2324 -0.2657  0.3717
  165MOL0     C21650   2.545   8.341   9.937  0.5294 -0.0013  0.1940
  165MOL0     O21651   2.520   8.253   9.826 -0.6179 -0.7259 -0.3274
  165MOL0     C21652   2.424   8.278   9.736 -0.1430  1.2396  0.6458
  165MOL0     C21653   2.443   8.381   9.649 -0.6936 -0.2468  0.4106
  165MOL0     C21654   2.342   8.421   9.563  0.8458 -0.0620  0.7310
  165MOL0     C21655   2.223   8.345   9.547  0.9273  0.2113 -1.1823
  165MOL0     O21656   2.121   8.377   9.463 -0.2561  0.3463  0.0988
  165MOL0     C21657   2.151   8.327   9.324 -0.4190 -0.6700  0.8878
  165MOL0     C21658   2.028   8.365   9.234 -0.4818 -0.7533 -0.5977
  165MOL0     C21659   2.029   8.519   9.206  0.0228  0.4219 -0.2932
  165MOL0     C21660   2.146   8.567   9.117 -0.3727  0.7519 -0.8654
  165MOL0     C21661   2.135   8.722   9.142 -0.6958 -0.6932  0.0641
  165MOL0     C21662   2.244   8.794   9.056 -0.5017 -0.3760  0.9790
  165MOL0     C21663   2.264   8.933   9.113 -0.0892 -0.7097  0.5353
  165MOL0     C21664   2.421   8.982   9.102  0.1990  0.2989 -0.5557
  165MOL0     N21665   2.477   8.965   8.967  0.0056 -0.5317 -0.4711
  165MOL0     C21666   2.552   8.867   8.905  0.2539 -0.1387 -0.8173
  165MOL0     C21667   2.571   8.893   8.776 -0.7039 -0.4515 -0.3251
  165MOL0     C21668   2.653   8.807   8.690  0.8857  0.0839 -0.5987
  165MOL0     C21669   2.804   8.826   8.707 -0.8457  0.7301  0.3009
  165MOL0     C21670   2.851   8.974   8.670  0.1026 -0.4191 -0.2836
  165MOL0     C21671   2.934   9.027   8.793  0.4048 -0.5262  0.8541
  165MOL0     O21672   2.838   9.061   8.893 -0.2258 -0.3035 -0.5278
  165MOL0     C21673   2.874   9.045   9.022  0.0947  0.2698  0.5682
  165MOL0     C21674   2.922   8.925   9.063  0.6361 -0.1382  0.0547
  165MOL0     C21675   2.945   8.904   9.195  0.1268  0.5612  0.0285
  165MOL0     C21676   2.912   8.997   9.297  0.6913 -0.0507  0.2310
  165MOL0     C21677   2.921   8.954   9.430 -1.0993  0.7447 -0.3243
  165MOL0     O21678   2.897   9.057   9.523  0.4223  0.1696  0.1090
  165MOL0     C21679   2.928   9.047   9.658  0.3433 -0.3259 -0.3188
  165MOL0     C21680   2.982   9.165   9.716 -0.2293 -0.1363 -0.0067
  165MOL0     C21681   3.036   9.156   9.845 -0.4940 -1.0102  1.0620
  165MOL0     C21682   3.044   9.041   9.920  0.1992  0.3161 -0.3828
  165MOL0     O21683   3.083   9.010  10.049 -0.7967 -0.3994  0.4300
  165MOL0     C21684   3.168   9.105  10.122  0.6210 -0.2900 -1.4856
  165MOL0     C21685   3.132   9.092  10.280 -0.2421 -0.0843  0.3737
  165MOL0     C21686   2.987   9.145  10.312 -1.0468  0.4078 -0.4015
  165MOL0     C21687   2.962   9.097  10.450 -0.1527 -0.2493 -0.1572
  165MOL0     C21688   2.812   9.116  10.484  0.8686  0.0834  0.2676
  165MOL0     C21689   2.765   9.077  10.630  0.7780  1.0465  0.1760
  165MOL0     C21690   2.608   9.078  10.631  0.5733  0.2071 -0.4563
  165MOL0     C21691   2.551   8.998  10.524 -0.9539  1.3339 -0.5277
  165MOL0    Cl21692   2.398   8.931  10.591 -0.1966  0.4124 -0.4174
  165MOL0     C21693   2.975   8.930   9.855 -0.9258  0.2013 -0.2176
  165MOL0     C21694   2.932   8.927   9.724  0.1211 -0.1722 -0.5630
  165MOL0     O21695   2.972   8.846   9.455  0.2043  0.5192  0.0434
  165MOL0     C21696   2.867   9.124   9.258  0.0759  0.0525 -0.4814
  165MOL0     C21697   2.843   9.144   9.116 -0.6514  0.0695  0.3759
  165MOL0     N21698   2.525   9.021   8.757  0.9541 -0.4996  0.4929
  165MOL0     N21699   2.457   9.054   8.866  0.8949 -0.5839  0.0044
  165MOL0     C21700   2.208   8.232   9.633  0.2103 -0.4724 -0.1451
  165MOL0     C21701   2.304   8.202   9.725 -0.1851 -0.1170 -0.3761
  165MOL0     C21702   2.638   8.280  10.039  0.5743  0.2445 -0.5958
  165MOL0     C21703   2.640   8.317  10.176  0.0945 -0.5396  0.2977
  165MOL0     C21704   2.721   8.249  10.272  0.7474 -1.5227  0.3752
  165MOL0     C21705   2.796   8.141  10.234  0.4984 -0.0050 -0.3036
  165MOL0     O21706   2.872   8.059  10.322  0.9372 -0.0961 -0.8749
  165MOL0     C21707   2.865   8.090  10.463 -0.1876 -0.3307 -0.6123
  165MOL0     C21708   2.741   8.021  10.510  0.2408 -0.0563  0.2227
  165MOL0     C21709   2.710   8.052  10.657 -0.3072  0.6181 -0.9006
  165MOL0     C21710   2.601   7.964  10.709  0.9360 -0.1329  0.2226
  165MOL0     C21711   2.469   7.987  10.659 -0.0602  0.2413  0.6176
  165MOL0     C21712   2.367   7.991  10.592  0.0487 -0.5000 -0.6639
  165MOL0     C21713   2.805   8.111  10.093 -0.4261 -0.1120 -0.0392
  165MOL0     C21714   2.731   8.187  10.002 -0.1729  0.3971  0.3641
  165MOL0     H21715   2.532   8.442   9.653 -1.5209  1.3643 -2.6155
  165MOL0     H21716   2.367   8.505   9.499  2.9689 -1.3077 -0.1729
  165MOL0     H21717   2.148   8.219   9.337  0.3714 -0.4061  4.0611
  165MOL0     H21718   2.253   8.354   9.295  0.5489 -1.7252  3.0972
  165MOL0     H21719   1.936   8.324   9.277  0.4629 -3.7744 -1.2709
  165MOL0     H21720   2.042   8.300   9.147 -0.9988 -1.2762 -0.2961
  165MOL0     H21721   2.039   8.566   9.304  0.3675 -4.8584  2.5474
  165MOL0     H21722   1.934   8.540   9.156 -0.2399  1.2079  0.5076
  165MOL0     H21723   2.245   8.539   9.153 -2.1063 -1.7531  2.5161
  165MOL0     H21724   2.130   8.539   9.013  1.6242  2.8236 -1.8228
  165MOL0     H21725   2.152   8.739   9.249 -4.2745  1.4007  0.4611
  165MOL0     H21726   2.032   8.757   9.126 -0.4711 -0.6677 -1.5210
  165MOL0     H21727   2.203   8.811   8.956 -1.0803 -1.1565  1.0673
  165MOL0     H21728   2.333   8.732   9.067  1.5352  2.2229  0.1502
  165MOL0     H21729   2.211   9.014   9.062 -0.5487 -0.3004  1.6317
  165MOL0     H21730   2.233   8.945   9.217 -2.1919  2.2992 -0.3204
  165MOL0     H21731   2.476   8.914   9.168 -0.8834  1.3897  1.6125
  165MOL0     H21732   2.426   9.087   9.132 -1.2458 -0.4856  3.1099
  165MOL0     H21733   2.572   8.779   8.965 -2.0308  0.8780  1.6560
  165MOL0     H21734   2.626   8.832   8.587 -0.6951 -2.3113 -0.8287
  165MOL0     H21735   2.623   8.703   8.705 -2.0306  0.9069 -0.0607
  165MOL0     H21736   2.866   8.755   8.653  0.5578  1.8304  0.4099
  165MOL0     H21737   2.824   8.809   8.813 -0.3275  0.3755  0.1495
  165MOL0     H21738   2.907   8.971   8.575  2.3267 -0.8502  0.9731
  165MOL0     H21739   2.777   9.051   8.650  0.0422  0.0274  1.5062
  165MOL0     H21740   2.989   9.116   8.763 -2.7014  1.5617  0.8390
  165MOL0     H21741   3.006   8.953   8.828  2.5616  1.0152 -0.1548
  165MOL0     H21742   2.928   8.839   8.997 -2.5622 -2.0760  1.9733
  165MOL0     H21743   2.998   8.812   9.221  0.9276  1.5071  1.9950
  165MOL0     H21744   2.964   9.260   9.667 -5.4010 -1.5901 -1.5805
  165MOL0     H21745   3.086   9.243   9.888  0.8672 -0.6081 -1.2052
  165MOL0     H21746   3.158   9.212  10.099  0.4480  0.0159 -0.0803
  165MOL0     H21747   3.276   9.090  10.111  0.9607  1.9588 -1.7961
  165MOL0     H21748   3.212   9.151  10.325  0.6133 -0.0751 -1.0933
  165MOL0     H21749   3.140   8.988  10.312 -1.3574  0.1416  1.4758
  165MOL0     H21750   2.921   9.096  10.239 -2.7634 -5.0330  4.0790
  165MOL0     H21751   2.973   9.254  10.311  0.1663  0.7036  2.7727
  165MOL0     H21752   3.012   9.009  10.491 -1.7370 -0.8261  0.6509
  165MOL0     H21753   3.011   9.175  10.509 -0.2869 -0.3672  0.1136
  165MOL0     H21754   2.770   9.056  10.403 -0.1396  1.0852  0.0201
  165MOL0     H21755   2.777   9.218  10.464 -0.2810 -0.6833 -2.0160
  165MOL0     H21756   2.795   9.158  10.696 -0.3884  1.7534 -0.1299
  165MOL0     H21757   2.802   8.981  10.666 -0.0079  1.5854  2.6256
  165MOL0     H21758   2.588   9.028  10.727  3.5625 -3.8307 -1.6475
  165MOL0     H21759   2.571   9.181  10.628  1.4997  0.5531 -0.2177
  165MOL0     H21760   2.620   8.919  10.494  0.8017  3.0222 -1.1513
  165MOL0     H21761   2.542   9.067  10.439  0.2824  2.9717  0.6227
  165MOL0     H21762   2.972   8.839   9.913 -2.1667 -0.0750 -0.6869
  165MOL0     H21763   2.891   8.838   9.678 -1.6564 -1.3316  2.8413
  165MOL0     H21764   2.831   9.200   9.327 -0.6830 -0.0040 -0.8057
  165MOL0     H21765   2.790   9.230   9.076 -1.1983 -0.1592  0.5903
  165MOL0     H21766   2.112   8.185   9.647 -3.1162  5.7987  2.1060
  165MOL0     H21767   2.280   8.140   9.811  0.4442  1.2355  0.8176
  165MOL0     H21768   2.585   8.403  10.214  0.0485 -1.5919  2.8036
  165MOL0     H21769   2.710   8.278  10.377  0.6526  1.4141 -0.3496
  165MOL0     H21770   2.859   8.195  10.494  2.2545 -0.4072  0.3794
  165MOL0     H21771   2.953   8.048  10.513  1.7219  1.2657 -2.3956
  165MOL0     H21772   2.651   8.042  10.452  0.1188 -3.1075 -0.8867
  165MOL0     H21773   2.758   7.913  10.498 -0.9518 -0.2661  0.2324
  165MOL0     H21774   2.680   8.155  10.673 -1.3703  0.0194  1.3340
  165MOL0     H21775   2.795   8.021  10.718 -0.6871  2.4768  0.6330
  165MOL0     H21776   2.624   7.859  10.691  1.2184  0.0252 -0.3839
  165MOL0     H21777   2.588   7.974  10.817  1.0545 -0.2128  0.2434
  165MOL0     H21778   2.276   7.984  10.536 -1.6272 -2.6668  2.0621
  165MOL0     H21779   2.870   8.030  10.063  2.5430  3.1573 -3.3144
  165MOL0     H21780   2.740   8.173   9.895  0.0399 -1.2547  0.5786
  166MOL0     O21781   4.427   0.789  10.293  1.2830 -0.0543  0.1509
  166MOL0     C21782   4.355   0.713  10.224 -0.3195 -0.4504  0.2512
  166MOL0     O21783   4.398   0.657  10.109 -0.4635  0.3718 -0.6168
  166MOL0     C21784   4.529   0.682  10.075  0.1023 -0.0457 -1.1177
  166MOL0     C21785   4.562   0.751   9.955 -0.6058 -0.0653  0.0022
  166MOL0     C21786   4.700   0.783   9.929 -0.3385  0.3653  0.0098
  166MOL0     C21787   4.801   0.742  10.008  0.0860  0.2453  0.2110
  166MOL0     O21788   4.941   0.752   9.992  0.1786 -0.0406  0.1731
  166MOL0     C21789   4.991   0.854   9.899 -0.0882 -0.3171 -0.1434
  166MOL0     C21790   4.965   0.992   9.971 -0.1851  1.3372 -0.1937
  166MOL0     C21791   4.993   1.108   9.876 -0.1733  0.5957  0.2014
  166MOL0     C21792   4.904   1.218   9.927  0.6436  0.4292 -0.4096
  166MOL0     C21793   4.748   1.196   9.896 -0.0544  0.5270  1.0072
  166MOL0     C21794   4.728   1.154   9.754 -0.9397 -0.3287  0.8686
  166MOL0     C21795   4.580   1.160   9.705  1.4021  1.1774 -0.3407
  166MOL0     C21796   4.507   1.043   9.767 -0.0492  0.7284  1.1135
  166MOL0     N21797   4.367   1.053   9.739 -0.0575  0.6835 -0.6055
  166MOL0     C21798   4.309   1.081   9.622 -0.7472  0.1157  0.4858
  166MOL0     C21799   4.183   1.077   9.664  0.3050  0.1728 -0.4106
  166MOL0     C21800   4.071   1.114   9.579 -0.4969 -1.1414 -0.5394
  166MOL0     C21801   3.957   1.020   9.600 -0.2518  0.3430 -0.4006
  166MOL0     C21802   3.830   1.062   9.527  0.2661 -0.5074  0.0520
  166MOL0     C21803   3.771   1.188   9.603  0.3321 -0.1946 -0.1309
  166MOL0     O21804   3.639   1.221   9.559 -0.2244 -0.8442 -0.1503
  166MOL0     C21805   3.535   1.166   9.627  0.8429  0.0800 -0.2953
  166MOL0     C21806   3.405   1.211   9.578  1.3926 -0.5832 -0.2789
  166MOL0     C21807   3.289   1.152   9.621  0.1250  0.5673  0.6922
  166MOL0     C21808   3.287   1.049   9.723  0.7922  0.4962  0.7417
  166MOL0     C21809   3.163   0.985   9.783 -0.6409  0.8123  0.1318
  166MOL0     O21810   3.036   1.017   9.729  0.1947 -1.2181 -0.1628
  166MOL0     C21811   2.926   0.940   9.747 -0.8992 -0.1709 -0.4634
  166MOL0     C21812   2.922   0.806   9.798  0.3825  0.9230  0.8088
  166MOL0     C21813   2.802   0.734   9.805  0.6822  0.7635  0.3966
  166MOL0     C21814   2.682   0.792   9.759  0.3213  0.8267 -0.0454
  166MOL0     O21815   2.556   0.728   9.752 -0.2060  0.8608 -0.0911
  166MOL0     C21816   2.543   0.639   9.644  0.3442  0.5512  0.0719
  166MOL0     C21817   2.393   0.581   9.638  0.1376  0.3214  0.1973
  166MOL0     C21818   2.371   0.479   9.514 -0.4742  0.8071 -0.1346
  166MOL0     C21819   2.381   0.544   9.377  0.2025  0.0807  0.3983
  166MOL0     C21820   2.242   0.601   9.324 -1.0283  0.2997  0.7465
  166MOL0     C21821   2.248   0.595   9.170  0.6498 -0.8357  0.4894
  166MOL0     C21822   2.117   0.622   9.103  0.4366  0.0487  0.3429
  166MOL0     C21823   2.080   0.772   9.105  0.7219 -0.4638 -0.5677
  166MOL0    Cl21824   2.205   0.882   9.020 -0.6750 -0.1605 -0.7672
  166MOL0     C21825   2.688   0.918   9.713 -0.1317 -0.3797  0.2257
  166MOL0     C21826   2.803   0.994   9.712  0.9662  0.0402 -0.3432
  166MOL0     O21827   3.183   0.895   9.866 -0.4665  0.6087  0.5724
  166MOL0     C21828   3.418   1.018   9.779  0.6362 -0.2509  0.1886
  166MOL0     C21829   3.538   1.065   9.725  0.3116  0.7836  0.1498
  166MOL0     N21830   4.165   1.049   9.795 -0.3283 -0.0974 -0.2707
  166MOL0     N21831   4.282   1.042   9.845 -0.3040  0.8619 -0.5534
  166MOL0     C21832   4.773   0.662  10.116 -0.7992  0.2412  0.0614
  166MOL0     C21833   4.643   0.636  10.155  0.7382 -0.7865 -0.1904
  166MOL0     C21834   4.210   0.714  10.263  0.3006  0.7095 -0.2379
  166MOL0     C21835   4.145   0.795  10.362 -0.1091  0.0665  0.8440
  166MOL0     C21836   4.008   0.786  10.385 -0.3632 -1.2907 -0.0915
  166MOL0     C21837   3.917   0.696  10.324 -1.1573 -0.2136  1.2918
  166MOL0     O21838   3.779   0.696  10.335 -1.0564 -0.5403  0.6079
  166MOL0     C21839   3.732   0.714  10.466  0.0018  0.5569  0.0260
  166MOL0     C21840   3.596   0.640  10.493 -0.0027 -1.0584  0.5657
  166MOL0     C21841   3.488   0.665  10.390 -0.6355 -0.8668  0.0848
  166MOL0     C21842   3.477   0.806  10.336 -0.5160  0.1543  0.6717
  166MOL0     C21843   3.432   0.882  10.448  0.5530 -0.7449 -0.2818
  166MOL0     C21844   3.383   0.957  10.532  0.2547  0.1760  1.0134
  166MOL0     C21845   3.979   0.617  10.228 -0.5964 -0.7850 -0.5914
  166MOL0     C21846   4.115   0.635  10.190 -0.0639 -0.1694 -0.4344
  166MOL0     H21847   4.485   0.788   9.888  0.1148 -0.0530 -0.8405
  166MOL0     H21848   4.727   0.834   9.837  3.5533 -4.3835 -1.9737
  166MOL0     H21849   4.934   0.839   9.807  0.7169 -3.0270 -0.3049
  166MOL0     H21850   5.096   0.841   9.873  0.4164  0.9391  1.1642
  166MOL0     H21851   5.035   0.989  10.055 -1.4746 -0.4358  0.8770
  166MOL0     H21852   4.861   0.990  10.005 -0.0668  2.9173  0.3724
  166MOL0     H21853   4.972   1.070   9.775  0.3824 -1.3603  0.7737
  166MOL0     H21854   5.097   1.137   9.857  0.1228  0.7657  1.9281
  166MOL0     H21855   4.909   1.242  10.034 -3.6623  2.6881 -0.4874
  166MOL0     H21856   4.937   1.305   9.871  1.7001 -0.7301 -1.6415
  166MOL0     H21857   4.694   1.285   9.928 -1.1330 -0.5818  2.4419
  166MOL0     H21858   4.715   1.112   9.958 -1.4701 -1.0395 -1.6716
  166MOL0     H21859   4.757   1.049   9.743 -2.7642 -0.9551  1.6466
  166MOL0     H21860   4.783   1.229   9.696  0.3982 -1.8420  0.0905
  166MOL0     H21861   4.523   1.251   9.723  0.2255  0.3529  0.2097
  166MOL0     H21862   4.592   1.146   9.597  1.2246 -1.5335 -0.0770
  166MOL0     H21863   4.537   1.055   9.872  3.5964  2.8561  0.0182
  166MOL0     H21864   4.544   0.948   9.728  2.4511  0.1410  4.4088
  166MOL0     H21865   4.354   1.108   9.527 -1.4908  2.6305  0.7783
  166MOL0     H21866   4.109   1.108   9.477 -2.7312  0.0444 -1.5071
  166MOL0     H21867   4.053   1.219   9.601  2.5117 -0.5639 -0.4687
  166MOL0     H21868   3.943   1.000   9.706  1.0857  0.1361 -0.2521
  166MOL0     H21869   3.994   0.922   9.567  0.8872  0.9781 -1.0762
  166MOL0     H21870   3.844   1.096   9.424 -1.3958  0.5268  0.1247
  166MOL0     H21871   3.750   0.989   9.544  1.6249 -1.4599  3.0739
  166MOL0     H21872   3.832   1.278   9.592 -1.5013  1.3658  1.7155
  166MOL0     H21873   3.771   1.155   9.707 -1.5627 -1.4983 -0.4919
  166MOL0     H21874   3.412   1.305   9.525 -3.1300  1.3554  1.9820
  166MOL0     H21875   3.195   1.184   9.577 -1.3959 -0.2673  3.1555
  166MOL0     H21876   3.013   0.751   9.819  1.1276  2.3385  1.3986
  166MOL0     H21877   2.792   0.631   9.838 -1.4053  1.0858  0.8744
  166MOL0     H21878   2.613   0.557   9.665 -1.6383 -1.0227  0.9623
  166MOL0     H21879   2.565   0.685   9.547 -0.7785 -1.0359 -1.0021
  166MOL0     H21880   2.324   0.663   9.615  0.9464  0.5115 -1.7567
  166MOL0     H21881   2.359   0.548   9.736 -1.0937 -0.0937 -0.3539
  166MOL0     H21882   2.272   0.437   9.531 -0.0772 -1.8968 -3.4026
  166MOL0     H21883   2.447   0.401   9.514 -0.6718  0.6142  0.1334
  166MOL0     H21884   2.456   0.623   9.369 -0.7297  0.9069 -0.4266
  166MOL0     H21885   2.405   0.467   9.303 -2.0741 -2.3318  2.0000
  166MOL0     H21886   2.223   0.699   9.369 -1.0396 -1.1932  4.3052
  166MOL0     H21887   2.162   0.531   9.348  0.2935 -1.8397 -0.6729
  166MOL0     H21888   2.277   0.491   9.151 -0.0470 -0.8570 -0.5140
  166MOL0     H21889   2.321   0.672   9.141 -0.9521  0.1887 -1.0889
  166MOL0     H21890   2.118   0.595   8.997 -1.4023  0.1313  0.2743
  166MOL0     H21891   2.030   0.569   9.142 -0.8358  0.0572 -2.2665
  166MOL0     H21892   2.083   0.801   9.210  0.7953  0.3965 -0.8040
  166MOL0     H21893   1.976   0.783   9.074  0.7052 -0.6740 -0.5919
  166MOL0     H21894   2.598   0.967   9.676  0.7589  1.8383  0.8363
  166MOL0     H21895   2.823   1.093   9.671 -1.0228 -0.6992 -3.3998
  166MOL0     H21896   3.423   0.954   9.866 -2.8000 -0.4163  0.4300
  166MOL0     H21897   3.631   1.017   9.754  0.4331 -0.2717 -1.8334
  166MOL0     H21898   4.839   0.607  10.183 -2.3159 -1.0081  0.6025
  166MOL0     H21899   4.640   0.571  10.242  2.0761  1.3364  1.5583
  166MOL0     H21900   4.206   0.857  10.426  1.7247 -0.1509 -0.5966
  166MOL0     H21901   3.965   0.846  10.464 -1.6877  1.2005 -2.5081
  166MOL0     H21902   3.727   0.823  10.477 -0.8474  0.8851 -2.8405
  166MOL0     H21903   3.809   0.662  10.524  0.7496  0.0016 -1.4074
  166MOL0     H21904   3.616   0.533  10.504  5.3117 -0.5224 -0.7081
  166MOL0     H21905   3.564   0.678  10.590  0.8766 -3.6368  1.9797
  166MOL0     H21906   3.394   0.636  10.438  0.5173  0.1924  3.1970
  166MOL0     H21907   3.514   0.599  10.306 -1.8566 -2.1242  0.6414
  166MOL0     H21908   3.560   0.862  10.293 -0.2433 -1.2408 -0.6963
  166MOL0     H21909   3.410   0.808  10.250  0.2404  0.5368  0.0844
  166MOL0     H21910   3.360   1.027  10.609 -0.5037  0.2374  0.7420
  166MOL0     H21911   3.915   0.549  10.173 -0.5274 -3.0428  1.9293
  166MOL0     H21912   4.151   0.571  10.110 -1.4692 -0.6573 -0.7038
  167MOL0     O21913   4.317  10.409   6.863  0.2737 -0.3025 -0.0560
  167MOL0     C21914   4.347  10.352   6.764  1.0788  0.6511 -0.4479
  167MOL0     O21915   4.468  10.314   6.721 -0.3483  0.7271 -0.3272
  167MOL0     C21916   4.584  10.372   6.779  1.0640  0.9792  0.7012
  167MOL0     C21917   4.700  10.308   6.783  0.1688  0.2484 -0.1228
  167MOL0     C21918   4.819  10.372   6.811  0.8055 -0.9149 -0.3291
  167MOL0     C21919   4.818  10.506   6.860  0.2720  0.4748 -0.0328
  167MOL0     O21920   4.939  10.567   6.888  0.9286 -0.3387  0.0879
  167MOL0     C21921   4.935  10.667   6.992 -0.1711 -0.1720 -1.0017
  167MOL0     C21922   5.073  10.682   7.054 -0.0761  0.4786 -1.0006
  167MOL0     C21923   5.177  10.719   6.940  0.1837  0.2912  1.0960
  167MOL0     C21924   5.316  10.775   6.980  0.6077  0.8933 -0.2219
  167MOL0     C21925   5.402  10.666   7.056 -0.2178 -0.8210  0.1168
  167MOL0     C21926   5.467  10.562   6.964  0.1801 -0.1362  0.1065
  167MOL0     C21927   5.554  10.611   6.845  0.3781 -0.6320 -0.0281
  167MOL0     C21928   5.627  10.487   6.781 -0.4714  0.1115  1.0806
  167MOL0     N21929   5.761  10.468   6.828  0.2162 -0.8341 -0.7887
  167MOL0     C21930   5.869  10.439   6.748 -0.5600 -0.1867 -0.0456
  167MOL0     C21931   5.980  10.407   6.825  0.0100  0.1886  0.3703
  167MOL0     C21932   6.107  10.357   6.775 -0.6660 -0.9456 -0.5219
  167MOL0     C21933   6.223  10.433   6.844  0.5217  0.4249  0.6072
  167MOL0     C21934   6.364  10.378   6.799  0.2490  0.5646 -0.2776
  167MOL0     C21935   6.477  10.451   6.880 -0.2108  0.1111 -0.7507
  167MOL0     O21936   6.454  10.416   7.017  0.0579 -0.2775 -0.7735
  167MOL0     C21937   6.554  10.410   7.106  0.0043  0.1999  0.5896
  167MOL0     C21938   6.681  10.468   7.084 -0.2993 -0.1842 -0.4461
  167MOL0     C21939   6.788  10.440   7.172  0.2129  0.1053  0.0032
  167MOL0     C21940   6.779  10.356   7.283  0.6375  0.3283 -0.2001
  167MOL0     C21941   6.896  10.346   7.373 -0.1166 -0.2747  0.4749
  167MOL0     O21942   7.013  10.414   7.334 -0.3765  0.0527 -0.4450
  167MOL0     C21943   7.121  10.429   7.414  0.1499  1.1200  0.3931
  167MOL0     C21944   7.237  10.377   7.356  0.7908  0.3794 -0.3558
  167MOL0     C21945   7.365  10.371   7.426 -0.2759  0.0580 -0.5614
  167MOL0     C21946   7.368  10.426   7.556 -0.2838  0.8639 -0.0104
  167MOL0     O21947   7.476  10.403   7.630  0.3233  0.1031 -0.2035
  167MOL0     C21948   7.591  10.497   7.611 -0.5339 -0.1482  0.2155
  167MOL0     C21949   7.706  10.429   7.534 -1.1412 -0.0682 -0.4381
  167MOL0     C21950   7.825  10.515   7.546 -0.7870  0.8346  0.1312
  167MOL0     C21951   7.946  10.457   7.464 -0.7048  0.1000 -0.3754
  167MOL0     C21952   7.983  10.313   7.506 -0.4839 -0.4914  0.5602
  167MOL0     C21953   8.121  10.278   7.442  0.5172  0.5399 -0.4399
  167MOL0     C21954   8.146  10.128   7.475 -0.3541  0.4435  0.1366
  167MOL0     C21955   8.227  10.058   7.361 -0.4039  0.8787  0.4495
  167MOL0    Cl21956   8.391  10.103   7.354 -1.0741 -0.1334 -0.3095
  167MOL0     C21957   7.255  10.484   7.612 -1.0886 -0.5555 -0.3519
  167MOL0     C21958   7.129  10.482   7.545  0.0577 -0.2938 -0.3805
  167MOL0     O21959   6.889  10.262   7.463  0.8404  0.5266  0.5098
  167MOL0     C21960   6.653  10.294   7.305 -0.3138  0.5330 -0.2819
  167MOL0     C21961   6.554  10.322   7.215  0.4762  0.5877  0.6239
  167MOL0     N21962   5.921  10.401   6.950 -0.3589 -0.9848  1.1897
  167MOL0     N21963   5.807  10.457   6.955 -0.7873  0.1511  0.8492
  167MOL0     C21964   4.694  10.577   6.862 -0.2234  0.1664 -0.1423
  167MOL0     C21965   4.579  10.507   6.814  0.2552  0.0303  1.0364
  167MOL0     C21966   4.238  10.273   6.697  0.2657  0.2799 -0.8027
  167MOL0     C21967   4.107  10.269   6.755 -0.1772  0.1525  1.1294
  167MOL0     C21968   4.014  10.199   6.682  0.4868  0.0752  0.4573
  167MOL0     C21969   4.040  10.118   6.572  0.6041  0.6700 -0.0020
  167MOL0     O21970   3.935  10.051   6.524 -0.0855  0.7078  0.3980
  167MOL0     C21971   3.955   9.923   6.460  0.2021 -0.1537  0.2848
  167MOL0     C21972   3.818   9.847   6.465 -0.5474 -0.0298 -0.0650
  167MOL0     C21973   3.734   9.889   6.346  0.2052 -0.9792 -0.2212
  167MOL0     C21974   3.629   9.781   6.310  0.4497 -0.4732 -0.1235
  167MOL0     C21975   3.692   9.655   6.269 -0.4426 -0.6378  0.0140
  167MOL0     C21976   3.730   9.541   6.250  0.1336  0.5754  0.0258
  167MOL0     C21977   4.168  10.104   6.534  0.1037  0.1746  0.7883
  167MOL0     C21978   4.265  10.188   6.585 -0.3006 -0.4773  0.0799
  167MOL0     H21979   4.710  10.205   6.749 -0.1632  0.2619 -0.2619
  167MOL0     H21980   4.912  10.324   6.785  1.0309 -0.2709 -0.7485
  167MOL0     H21981   4.863  10.629   7.065 -0.4790 -0.2591 -1.3451
  167MOL0     H21982   4.914  10.765   6.948 -2.8091  0.2778  0.9512
  167MOL0     H21983   5.106  10.585   7.092  1.6446  1.2580 -0.4047
  167MOL0     H21984   5.065  10.760   7.131  1.6020  0.1481 -0.4450
  167MOL0     H21985   5.126  10.794   6.878 -1.0437 -2.4347 -1.4470
  167MOL0     H21986   5.195  10.636   6.872 -1.2125 -0.3321  1.4583
  167MOL0     H21987   5.359  10.812   6.886  1.9874 -1.0072 -0.3978
  167MOL0     H21988   5.301  10.857   7.051 -3.1105 -1.4330  2.0451
  167MOL0     H21989   5.359  10.611   7.140  1.7385 -2.3006  0.2219
  167MOL0     H21990   5.491  10.717   7.096 -0.4297  0.6727 -1.1952
  167MOL0     H21991   5.383  10.497   6.934 -0.4049  0.6850 -0.0672
  167MOL0     H21992   5.535  10.501   7.024 -0.0242 -2.8134 -2.1456
  167MOL0     H21993   5.489  10.659   6.770 -0.8749 -1.7613  0.3018
  167MOL0     H21994   5.626  10.685   6.881  0.1561 -1.1009  1.4263
  167MOL0     H21995   5.641  10.502   6.673  1.3017  0.4340  1.3153
  167MOL0     H21996   5.572  10.395   6.800 -1.7311  0.7261  0.5183
  167MOL0     H21997   5.875  10.437   6.640 -2.3766  1.7597 -0.2464
  167MOL0     H21998   6.103  10.376   6.668 -0.8197  4.6898  0.1891
  167MOL0     H21999   6.112  10.249   6.792  0.2188 -0.7554  0.5728
  167MOL0     H22000   6.219  10.408   6.950  1.0653 -3.2984 -0.0937
  167MOL0     H22001   6.206  10.536   6.812  1.5383  0.2089 -0.7165
  167MOL0     H22002   6.369  10.269   6.810  1.4001  0.8014  2.2160
  167MOL0     H22003   6.379  10.404   6.694 -3.2044  0.4330 -0.9411
  167MOL0     H22004   6.477  10.560   6.871  2.6445  0.5590  2.7542
  167MOL0     H22005   6.575  10.419   6.843 -0.4765 -0.3749 -1.0489
  167MOL0     H22006   6.693  10.535   7.000 -1.8912  0.0010 -0.5613
  167MOL0     H22007   6.878  10.501   7.163  2.1981 -2.4176  1.3246
  167MOL0     H22008   7.232  10.335   7.256 -1.2328 -1.1031  0.3152
  167MOL0     H22009   7.453  10.338   7.372 -0.7900 -2.2434 -0.0823
  167MOL0     H22010   7.630  10.518   7.711 -0.2939 -0.3458  0.1649
  167MOL0     H22011   7.576  10.584   7.546  0.2695  0.4357  0.7922
  167MOL0     H22012   7.677  10.416   7.429  0.1157  4.3622 -1.5558
  167MOL0     H22013   7.731  10.329   7.570  0.7043 -0.0978 -1.6871
  167MOL0     H22014   7.852  10.544   7.648 -0.1515 -1.6676  0.7264
  167MOL0     H22015   7.797  10.611   7.501  0.8582  1.7149  0.8908
  167MOL0     H22016   7.916  10.458   7.359 -1.6253  0.2506 -0.1132
  167MOL0     H22017   8.045  10.501   7.482  0.5525 -1.8439 -2.1019
  167MOL0     H22018   7.910  10.249   7.457 -0.6208 -1.8369  2.4065
  167MOL0     H22019   7.959  10.291   7.611 -0.8430 -3.8989 -0.1262
  167MOL0     H22020   8.194  10.348   7.484  0.0798  0.9478 -0.3593
  167MOL0     H22021   8.102  10.299   7.337 -4.2668  2.7164  0.5707
  167MOL0     H22022   8.206  10.121   7.566 -1.2989  2.5905  0.9988
  167MOL0     H22023   8.051  10.086   7.510 -0.1341  1.5177  2.1629
  167MOL0     H22024   8.180  10.105   7.275 -0.7001 -0.5215 -0.1787
  167MOL0     H22025   8.216   9.949   7.372  0.8417  0.7812  0.9127
  167MOL0     H22026   7.274  10.528   7.710 -1.5031  1.3555 -1.0824
  167MOL0     H22027   7.039  10.532   7.581  1.1584  1.1495  0.5016
  167MOL0     H22028   6.642  10.202   7.361  1.5542 -1.1238 -2.4281
  167MOL0     H22029   6.464  10.261   7.219  0.2313  0.7807 -1.1316
  167MOL0     H22030   4.688  10.682   6.890 -1.0037 -0.4303  2.1479
  167MOL0     H22031   4.492  10.569   6.794  1.2793  0.3249 -3.5619
  167MOL0     H22032   4.074  10.337   6.833 -3.6776  1.9508 -1.6519
  167MOL0     H22033   3.909  10.198   6.709 -0.4330 -4.6918 -2.0874
  167MOL0     H22034   4.021   9.863   6.524  1.2139  0.5637 -0.0707
  167MOL0     H22035   4.007   9.928   6.364  3.8464 -0.1255  2.0714
  167MOL0     H22036   3.845   9.741   6.466  0.9095  0.2933  2.1151
  167MOL0     H22037   3.783   9.862   6.567  2.8733  0.7917  1.1177
  167MOL0     H22038   3.796   9.910   6.259  0.0295  2.3348  0.3206
  167MOL0     H22039   3.686   9.984   6.372  1.1980 -0.1995 -1.1415
  167MOL0     H22040   3.560   9.768   6.394 -0.9003  1.6427 -0.7958
  167MOL0     H22041   3.566   9.810   6.225  1.2061  1.8109  0.0136
  167MOL0     H22042   3.773   9.445   6.232  0.1419  0.9053 -1.9309
  167MOL0     H22043   4.199  10.036   6.456  0.0613  0.2758  0.6824
  167MOL0     H22044   4.370  10.190   6.556 -0.4645  0.2898 -0.5185
  168MOL0     O22045  10.334   6.988   1.739  0.0105  0.4404  0.0086
  168MOL0     C22046  10.330   7.023   1.624  0.3724 -0.0420  0.7470
  168MOL0     O22047  10.394   7.125   1.578  0.1969 -0.4968  0.5426
  168MOL0     C22048  10.476   7.198   1.657 -1.7555  0.5659 -0.3270
  168MOL0     C22049  10.418   7.298   1.748 -0.6674  0.7158  0.3759
  168MOL0     C22050  10.493   7.390   1.820 -0.1309 -0.0193  0.3470
  168MOL0     C22051  10.632   7.375   1.811  0.7864  0.6018  0.2401
  168MOL0     O22052  10.714   7.438   1.893  0.2203 -0.7370 -0.5100
  168MOL0     C22053  10.709   7.581   1.876 -0.3165 -1.4207 -0.4200
  168MOL0     C22054  10.827   7.648   1.950 -0.2070  0.2139  0.4705
  168MOL0     C22055  10.815   7.650   2.108 -0.1685  0.1572 -0.1655
  168MOL0     C22056  10.671   7.687   2.158 -0.3270 -0.5385  0.2680
  168MOL0     C22057  10.657   7.707   2.315  0.0222  0.3585  0.2327
  168MOL0     C22058  10.509   7.751   2.334  0.8071 -0.0090  0.0808
  168MOL0     C22059  10.477   7.780   2.481 -0.2768  0.0313 -0.4337
  168MOL0     C22060  10.332   7.816   2.501 -0.3132 -0.7936  0.5006
  168MOL0     N22061  10.240   7.706   2.487 -0.5503 -0.1557 -0.1662
  168MOL0     C22062  10.190   7.637   2.586  0.3998  1.2689  0.2707
  168MOL0     C22063  10.074   7.582   2.540  0.2317  0.7175  0.2137
  168MOL0     C22064   9.988   7.491   2.621  0.6801 -0.0142 -0.2766
  168MOL0     C22065   9.860   7.564   2.671  0.2164 -0.3169  0.4794
  168MOL0     C22066   9.906   7.672   2.775 -0.3232  0.6901 -0.0540
  168MOL0     C22067   9.952   7.618   2.909 -0.6360 -0.0855 -0.4882
  168MOL0     O22068   9.949   7.728   2.997 -0.6926  0.4434 -0.1486
  168MOL0     C22069   9.960   7.697   3.129 -0.1102 -0.4289  0.3120
  168MOL0     C22070  10.036   7.590   3.161 -0.4294  0.6037 -0.9612
  168MOL0     C22071  10.043   7.551   3.299 -0.4447  0.9067  0.1470
  168MOL0     C22072   9.970   7.611   3.400  0.6380 -0.5681  0.0421
  168MOL0     C22073   9.970   7.562   3.539  0.8075 -0.1509 -0.2092
  168MOL0     O22074   9.890   7.632   3.633 -0.2337 -0.3079  0.7317
  168MOL0     C22075   9.887   7.571   3.758  0.5370 -0.6828 -0.0337
  168MOL0     C22076   9.803   7.470   3.790 -1.2822  0.2271 -0.2669
  168MOL0     C22077   9.790   7.427   3.925  0.2736 -0.2157  0.2336
  168MOL0     C22078   9.877   7.485   4.026  1.0571 -0.8783 -0.6466
  168MOL0     O22079   9.863   7.455   4.153 -0.2662 -0.1115  0.0668
  168MOL0     C22080   9.940   7.351   4.203 -0.3659 -0.1347 -0.4112
  168MOL0     C22081   9.873   7.266   4.312 -0.0216 -0.0767  0.0856
  168MOL0     C22082   9.749   7.194   4.246 -0.7493 -0.0114 -1.0953
  168MOL0     C22083   9.779   7.078   4.150  1.3578 -0.6690 -0.5675
  168MOL0     C22084   9.703   6.938   4.188 -0.3733  0.6049 -0.6444
  168MOL0     C22085   9.801   6.848   4.261 -0.1713 -0.1207 -0.4049
  168MOL0     C22086   9.738   6.732   4.333 -0.2795  0.4236  0.1253
  168MOL0     C22087   9.619   6.668   4.278  0.7383 -0.2325  0.3010
  168MOL0    Cl22088   9.673   6.570   4.143 -0.2281 -0.2754  0.3236
  168MOL0     C22089   9.968   7.578   3.991  0.0956 -0.1812 -0.2167
  168MOL0     C22090   9.970   7.627   3.858  0.6870  1.1579 -0.2449
  168MOL0     O22091  10.028   7.461   3.575  0.4632  0.1849  0.2825
  168MOL0     C22092   9.898   7.724   3.357 -0.4253 -0.8991  0.0888
  168MOL0     C22093   9.899   7.777   3.220 -0.3603  0.3770  0.1827
  168MOL0     N22094  10.064   7.626   2.412 -1.1063  0.2943  0.1344
  168MOL0     N22095  10.161   7.702   2.387 -0.5083 -0.1241 -0.0448
  168MOL0     C22096  10.691   7.272   1.736 -0.1686 -0.1083  0.1420
  168MOL0     C22097  10.614   7.183   1.656  0.0096  0.5810  0.6218
  168MOL0     C22098  10.243   6.950   1.530  0.7979 -0.2020  0.0089
  168MOL0     C22099  10.224   6.982   1.391 -0.3000 -0.4971  0.2184
  168MOL0     C22100  10.123   6.923   1.323  0.3606 -0.5862  0.1106
  168MOL0     C22101  10.043   6.814   1.380  0.4994  0.9456  0.2736
  168MOL0     O22102   9.955   6.759   1.290  0.0690 -0.4316 -0.0279
  168MOL0     C22103   9.890   6.635   1.330  0.1347 -0.5448 -0.3323
  168MOL0     C22104   9.759   6.670   1.392 -0.8232  0.6832  0.1310
  168MOL0     C22105   9.668   6.692   1.276  0.3643  1.0138  0.2580
  168MOL0     C22106   9.531   6.739   1.333  0.3298 -0.7052  0.0850
  168MOL0     C22107   9.423   6.728   1.235  0.9029 -0.4961 -1.2290
  168MOL0     C22108   9.327   6.719   1.165  0.0536  0.2787 -0.2159
  168MOL0     C22109  10.070   6.783   1.516  1.0850  0.3158  0.0512
  168MOL0     C22110  10.158   6.856   1.593 -0.1882  0.4590  0.2999
  168MOL0     H22111  10.313   7.327   1.747 -1.2155 -1.1340 -1.0204
  168MOL0     H22112  10.438   7.459   1.883 -0.2127  0.9180 -0.7332
  168MOL0     H22113  10.609   7.618   1.900  0.9068  2.7198 -1.0206
  168MOL0     H22114  10.740   7.604   1.774  1.2742 -2.7434 -0.2900
  168MOL0     H22115  10.833   7.748   1.907  0.3144 -0.2200 -0.4812
  168MOL0     H22116  10.923   7.602   1.926 -0.2763  0.8935 -1.1880
  168MOL0     H22117  10.888   7.708   2.165  0.4523 -1.4434  0.7231
  168MOL0     H22118  10.828   7.546   2.142  1.2001  0.6411  0.8997
  168MOL0     H22119  10.627   7.769   2.101  0.0652 -0.3826  0.1874
  168MOL0     H22120  10.601   7.606   2.134 -3.6086  2.5387 -1.3412
  168MOL0     H22121  10.729   7.781   2.349  2.3977 -0.4655 -2.5451
  168MOL0     H22122  10.688   7.616   2.367  5.2100  2.0655  0.6209
  168MOL0     H22123  10.447   7.671   2.293 -3.0666  1.3069  2.6816
  168MOL0     H22124  10.486   7.842   2.277 -2.3005 -0.9442 -0.3746
  168MOL0     H22125  10.508   7.694   2.542  2.2116  0.0576 -1.5052
  168MOL0     H22126  10.531   7.868   2.516 -1.4381  0.1499  1.1361
  168MOL0     H22127  10.306   7.902   2.438  0.6285  0.0446  1.2085
  168MOL0     H22128  10.312   7.860   2.600 -0.4786  2.5726 -0.8860
  168MOL0     H22129  10.234   7.620   2.684 -2.7964 -4.2063  1.1773
  168MOL0     H22130  10.030   7.441   2.709 -1.1258 -0.6073  0.2954
  168MOL0     H22131   9.950   7.408   2.561  1.5312 -2.5580  2.4299
  168MOL0     H22132   9.788   7.493   2.714 -0.4544 -1.2792 -2.0793
  168MOL0     H22133   9.806   7.610   2.588 -1.0080  1.4078  2.1307
  168MOL0     H22134   9.971   7.748   2.732 -0.8896 -0.1262 -2.5007
  168MOL0     H22135   9.811   7.721   2.795 -0.9803 -0.9482  1.0277
  168MOL0     H22136  10.056   7.589   2.897  0.0690  2.0055  0.0669
  168MOL0     H22137   9.888   7.541   2.954  0.0964  0.1299  0.9966
  168MOL0     H22138  10.051   7.508   3.091 -1.8202  0.7278 -1.4210
  168MOL0     H22139  10.088   7.454   3.320 -0.5266  1.4262  3.2482
  168MOL0     H22140   9.731   7.438   3.716 -0.7627  0.7884 -1.0194
  168MOL0     H22141   9.707   7.365   3.959  1.1034 -3.0567 -2.4558
  168MOL0     H22142  10.019   7.412   4.249 -0.4235 -0.9729  0.8496
  168MOL0     H22143   9.979   7.274   4.136 -0.0131 -1.5463  1.3295
  168MOL0     H22144   9.839   7.324   4.399  1.8326 -0.7452  1.3282
  168MOL0     H22145   9.952   7.200   4.348 -0.1830  0.7822  2.2125
  168MOL0     H22146   9.684   7.272   4.205 -2.8705 -0.3983  1.2408
  168MOL0     H22147   9.704   7.150   4.336 -0.0771  0.4303 -0.5428
  168MOL0     H22148   9.736   7.095   4.050  1.8872 -2.7733 -1.2071
  168MOL0     H22149   9.886   7.056   4.139  1.8684  0.3336  1.8285
  168MOL0     H22150   9.667   6.875   4.106 -3.5801 -1.7489  2.2731
  168MOL0     H22151   9.620   6.958   4.256  0.6798  1.6519  0.3799
  168MOL0     H22152   9.846   6.913   4.336  0.2642  1.3726 -1.9088
  168MOL0     H22153   9.888   6.820   4.201 -0.4921 -0.5993 -0.6600
  168MOL0     H22154   9.818   6.658   4.328  0.8031  1.4185  1.5912
  168MOL0     H22155   9.715   6.762   4.436  0.5859  1.9724 -0.1093
  168MOL0     H22156   9.539   6.736   4.249 -0.2704 -1.1008  0.9651
  168MOL0     H22157   9.570   6.599   4.348 -1.8802 -3.0604 -3.8482
  168MOL0     H22158  10.041   7.615   4.062 -0.5246 -0.4749  0.5822
  168MOL0     H22159  10.033   7.714   3.838 -1.0354  2.1816 -1.4286
  168MOL0     H22160   9.828   7.762   3.430  0.5170  0.5902  0.2487
  168MOL0     H22161   9.834   7.862   3.201  1.1887  1.6222  0.2565
  168MOL0     H22162  10.799   7.263   1.735 -0.0165 -0.2905  3.8039
  168MOL0     H22163  10.662   7.112   1.589  0.9512  1.9870 -0.2309
  168MOL0     H22164  10.293   7.048   1.339 -2.4616 -0.3954 -2.7845
  168MOL0     H22165  10.107   6.954   1.220 -1.2794  2.6318  1.1853
  168MOL0     H22166   9.944   6.585   1.411  0.1415 -3.3118 -1.9205
  168MOL0     H22167   9.891   6.565   1.246 -1.1825  0.8282 -1.5710
  168MOL0     H22168   9.721   6.585   1.449  1.8129 -0.2622  0.6503
  168MOL0     H22169   9.772   6.768   1.440 -0.5955  0.4717  0.5065
  168MOL0     H22170   9.661   6.597   1.223 -0.4855  0.5448  1.1937
  168MOL0     H22171   9.702   6.767   1.204 -1.5598  0.4901 -1.2838
  168MOL0     H22172   9.511   6.693   1.430 -0.7492  1.0396  0.7211
  168MOL0     H22173   9.542   6.847   1.347 -0.4351 -0.9864  3.4932
  168MOL0     H22174   9.242   6.713   1.100 -0.2902  1.3774  0.1155
  168MOL0     H22175  10.023   6.705   1.575  2.2949  0.7435  1.6431
  168MOL0     H22176  10.173   6.808   1.689 -1.2711 -1.3907 -0.3993
  169MOL0     O22177   4.394   3.009   0.271 -0.3082 -0.0303  0.2687
  169MOL0     C22178   4.495   3.012   0.345 -1.2229  0.5854  0.6463
  169MOL0     O22179   4.623   3.066   0.316  0.1223  0.0001  0.9494
  169MOL0     C22180   4.654   3.144   0.207  0.1900  0.9131  0.1462
  169MOL0     C22181   4.755   3.235   0.235 -0.3013 -1.1276  0.7799
  169MOL0     C22182   4.784   3.331   0.143 -0.7388  0.3182 -0.2612
  169MOL0     C22183   4.738   3.346   0.022  0.8936 -0.3572 -0.2470
  169MOL0     O22184   4.792   3.447  -0.050 -0.1306  0.1195  0.2860
  169MOL0     C22185   4.699   3.516  -0.125  0.0488  0.7345  0.1552
  169MOL0     C22186   4.770   3.613  -0.209  1.2043 -0.4368 -0.5210
  169MOL0     C22187   4.678   3.673  -0.315 -0.2336  0.0044 -0.0096
  169MOL0     C22188   4.767   3.760  -0.404  0.2272  0.0743  0.5107
  169MOL0     C22189   4.682   3.873  -0.465 -0.0270 -0.9752  0.9814
  169MOL0     C22190   4.761   3.991  -0.523 -0.2499 -0.4202  0.2872
  169MOL0     C22191   4.864   3.957  -0.630 -0.2117 -0.6250 -0.0563
  169MOL0     C22192   4.796   3.869  -0.751 -0.1575  0.1241  0.6791
  169MOL0     N22193   4.717   3.956  -0.833 -0.6234 -0.1652 -0.6600
  169MOL0     C22194   4.617   3.902  -0.909 -0.3057 -0.3869 -0.2982
  169MOL0     C22195   4.577   4.008  -0.991  0.4865  0.7525 -0.9343
  169MOL0     C22196   4.463   4.002  -1.085 -0.3781  0.0732  0.2371
  169MOL0     C22197   4.404   3.863  -1.107 -0.2574 -0.2220  0.4038
  169MOL0     C22198   4.320   3.848  -1.228 -0.3678  1.4248  1.0163
  169MOL0     C22199   4.215   3.955  -1.254  0.3067  0.1520 -0.0416
  169MOL0     O22200   4.098   3.936  -1.165 -0.0608  0.8651 -0.4984
  169MOL0     C22201   4.022   4.045  -1.150  0.1592  0.7369 -0.1865
  169MOL0     C22202   3.965   4.079  -1.025 -0.6574 -0.2954  0.0504
  169MOL0     C22203   3.890   4.200  -1.005 -1.3856  0.3915  0.3281
  169MOL0     C22204   3.849   4.264  -1.121  0.7336 -0.7178  0.7759
  169MOL0     C22205   3.773   4.389  -1.109 -0.4292  0.1108  0.5614
  169MOL0     O22206   3.728   4.414  -0.975 -1.0361 -0.3873  0.1260
  169MOL0     C22207   3.679   4.539  -0.948  0.3581  0.2725  0.3622
  169MOL0     C22208   3.550   4.583  -0.992 -0.4653  0.1837 -0.3441
  169MOL0     C22209   3.494   4.706  -0.954 -0.1599 -0.0299  0.7334
  169MOL0     C22210   3.574   4.791  -0.868 -0.5157  0.2713  0.8543
  169MOL0     O22211   3.529   4.907  -0.814  0.7676  0.6923 -0.0588
  169MOL0     C22212   3.393   4.908  -0.768 -0.3887 -0.2343 -0.9195
  169MOL0     C22213   3.289   4.974  -0.851 -0.3458  0.1977 -1.1866
  169MOL0     C22214   3.151   4.962  -0.784  0.1933 -0.1066 -0.2364
  169MOL0     C22215   3.055   4.864  -0.844 -0.3199 -0.2657  0.5242
  169MOL0     C22216   3.025   4.895  -0.988  0.1385 -1.2608 -0.0644
  169MOL0     C22217   3.020   4.767  -1.063 -1.2981  1.3778  0.6538
  169MOL0     C22218   2.906   4.674  -1.027 -0.2836 -0.5508 -0.8221
  169MOL0     C22219   2.823   4.634  -1.152  0.1923 -0.0507  0.5522
  169MOL0    Cl22220   2.723   4.781  -1.202  0.0404 -0.2613 -0.1356
  169MOL0     C22221   3.697   4.748  -0.825 -0.3950  0.2872  0.2880
  169MOL0     C22222   3.751   4.621  -0.861 -0.0203  0.0646  0.8912
  169MOL0     O22223   3.747   4.458  -1.204 -0.0020 -0.2482  0.6095
  169MOL0     C22224   3.901   4.229  -1.249 -0.1138  0.7002  0.0485
  169MOL0     C22225   3.986   4.121  -1.261 -0.4143  0.6757  0.1719
  169MOL0     N22226   4.643   4.123  -0.956 -0.1436 -0.0514 -1.6201
  169MOL0     N22227   4.728   4.091  -0.855  1.1669 -0.3672  0.8127
  169MOL0     C22228   4.639   3.248  -0.015  0.8736 -1.1159 -0.6899
  169MOL0     C22229   4.592   3.148   0.079 -0.6838 -0.3482  0.5788
  169MOL0     C22230   4.497   2.945   0.476 -0.5331 -0.3263  0.6203
  169MOL0     C22231   4.389   2.894   0.539 -0.4787  0.7451 -0.1426
  169MOL0     C22232   4.400   2.812   0.652 -0.1788  0.1440 -0.4106
  169MOL0     C22233   4.520   2.799   0.724  0.2693 -1.3010  0.0431
  169MOL0     O22234   4.519   2.734   0.846  0.7882 -0.6053  0.4938
  169MOL0     C22235   4.645   2.678   0.883  0.1570  0.1625  0.6495
  169MOL0     C22236   4.609   2.557   0.970  0.2233 -1.0328 -1.3690
  169MOL0     C22237   4.534   2.601   1.104 -0.8611 -0.3759  0.8887
  169MOL0     C22238   4.446   2.490   1.158 -0.4026  0.2421 -0.0389
  169MOL0     C22239   4.530   2.398   1.234  0.8020  0.0565 -0.3742
  169MOL0     C22240   4.599   2.310   1.279  0.7140 -0.8248  0.4022
  169MOL0     C22241   4.631   2.869   0.676 -0.1742  0.7132 -0.1327
  169MOL0     C22242   4.618   2.926   0.549 -0.7149 -0.0132  0.1897
  169MOL0     H22243   4.803   3.250   0.332 -0.1977  1.2277  0.4157
  169MOL0     H22244   4.857   3.408   0.166  0.8896 -1.6182  1.4543
  169MOL0     H22245   4.620   3.554  -0.060 -1.8093 -3.6808  0.8963
  169MOL0     H22246   4.651   3.446  -0.195  1.4460  1.6956 -1.8451
  169MOL0     H22247   4.851   3.564  -0.264  0.6393  1.8402 -3.6330
  169MOL0     H22248   4.808   3.692  -0.144  2.2256  0.1838 -1.8315
  169MOL0     H22249   4.593   3.734  -0.282 -0.8989  0.4368 -2.3537
  169MOL0     H22250   4.630   3.594  -0.373  0.8302  0.8910 -2.2036
  169MOL0     H22251   4.850   3.805  -0.349  0.7434  3.1001 -2.3491
  169MOL0     H22252   4.805   3.711  -0.494 -0.3666  1.1632 -0.3560
  169MOL0     H22253   4.620   3.920  -0.388 -0.8807  0.5995 -0.5910
  169MOL0     H22254   4.619   3.827  -0.541  0.7359 -0.4347 -0.0017
  169MOL0     H22255   4.819   4.045  -0.448  1.0445 -1.1405 -0.1763
  169MOL0     H22256   4.695   4.070  -0.562 -1.2244 -1.6411 -0.5947
  169MOL0     H22257   4.909   4.050  -0.665 -1.6130  0.5397  1.1239
  169MOL0     H22258   4.938   3.885  -0.592 -1.1938 -1.4893  0.2982
  169MOL0     H22259   4.740   3.780  -0.721  0.3677 -2.2437 -4.2523
  169MOL0     H22260   4.877   3.817  -0.803 -1.3728 -2.8490  1.4950
  169MOL0     H22261   4.581   3.801  -0.894 -1.2438  0.1398  1.2992
  169MOL0     H22262   4.508   4.038  -1.179 -0.2074  2.0390  1.0218
  169MOL0     H22263   4.381   4.069  -1.056  0.2306  1.0380 -0.2070
  169MOL0     H22264   4.348   3.850  -1.014  2.3718  1.3950  2.3273
  169MOL0     H22265   4.488   3.794  -1.122  1.1631  1.8654 -2.2151
  169MOL0     H22266   4.383   3.851  -1.317  0.4475 -1.2527  1.4179
  169MOL0     H22267   4.274   3.749  -1.223 -1.3435  1.8418  0.7030
  169MOL0     H22268   4.174   3.945  -1.355 -3.0285  3.2369  0.7859
  169MOL0     H22269   4.257   4.057  -1.249 -1.5272  0.9093  0.7743
  169MOL0     H22270   4.014   4.022  -0.947  2.9949  2.4704  0.0240
  169MOL0     H22271   3.869   4.221  -0.900  1.6549 -1.6238  1.4848
  169MOL0     H22272   3.494   4.526  -1.066  0.3669  0.4401 -1.1880
  169MOL0     H22273   3.396   4.723  -0.995 -1.4354 -1.1238  3.1192
  169MOL0     H22274   3.394   4.964  -0.674  1.0377  0.0278 -1.0635
  169MOL0     H22275   3.362   4.806  -0.745 -0.2714 -0.2837 -0.9785
  169MOL0     H22276   3.295   4.912  -0.941 -3.5691 -3.4431  0.7523
  169MOL0     H22277   3.315   5.079  -0.867  3.0815 -0.1819  0.9800
  169MOL0     H22278   3.109   5.063  -0.792  2.7253  1.1019  0.5976
  169MOL0     H22279   3.159   4.952  -0.675  1.7783  4.5903  0.2770
  169MOL0     H22280   3.101   4.765  -0.835 -0.0906 -0.2367 -0.2610
  169MOL0     H22281   2.963   4.842  -0.790 -1.5919 -0.2851 -1.5463
  169MOL0     H22282   3.095   4.969  -1.030 -1.8633  3.2244  3.6206
  169MOL0     H22283   2.935   4.955  -0.997  2.1754  1.7225 -3.1619
  169MOL0     H22284   3.111   4.708  -1.050 -1.0767  2.0005  2.1373
  169MOL0     H22285   3.006   4.795  -1.168 -0.1886  0.2931  0.1872
  169MOL0     H22286   2.940   4.585  -0.972  2.1002  1.9100  1.9965
  169MOL0     H22287   2.845   4.724  -0.951  3.9194  0.2376  2.4548
  169MOL0     H22288   2.761   4.545  -1.137  0.8545 -0.3451  1.6304
  169MOL0     H22289   2.879   4.595  -1.237  1.0423 -0.5054  1.3025
  169MOL0     H22290   3.746   4.803  -0.745 -0.1003  1.6453 -0.8006
  169MOL0     H22291   3.837   4.579  -0.809  0.4584 -1.5559 -1.0739
  169MOL0     H22292   3.861   4.282  -1.334  1.6670  2.1671  0.0783
  169MOL0     H22293   4.004   4.103  -1.367 -1.8707  1.5569 -0.2437
  169MOL0     H22294   4.602   3.254  -0.116 -1.0153  1.3733  0.0671
  169MOL0     H22295   4.504   3.091   0.050 -0.0553  0.6137 -3.9647
  169MOL0     H22296   4.295   2.893   0.485  1.3418  1.1902 -3.6111
  169MOL0     H22297   4.321   2.750   0.693  1.4211  0.3593  3.3858
  169MOL0     H22298   4.693   2.745   0.955  0.6561  3.1099 -2.2066
  169MOL0     H22299   4.718   2.670   0.802 -1.0198  3.0264 -0.8297
  169MOL0     H22300   4.544   2.489   0.916 -0.7346  1.5334 -3.7123
  169MOL0     H22301   4.704   2.504   0.985  0.8731  0.0851 -1.4034
  169MOL0     H22302   4.461   2.679   1.080  0.3868  0.9954  1.4233
  169MOL0     H22303   4.605   2.639   1.177  1.7077  0.2514 -1.7418
  169MOL0     H22304   4.390   2.538   1.239  2.8364  1.8897  1.4135
  169MOL0     H22305   4.390   2.434   1.083 -1.6575 -0.2887  1.2583
  169MOL0     H22306   4.645   2.223   1.323  1.7073 -0.6472 -0.2717
  169MOL0     H22307   4.728   2.871   0.725 -1.5538 -0.4229  2.8423
  169MOL0     H22308   4.697   2.991   0.512  2.0633 -1.3346  3.2732
  170MOL0     O22309   7.644   2.548   4.973  0.4933 -0.5272 -0.6558
  170MOL0     C22310   7.572   2.609   5.051  0.6518 -0.7378  2.1064
  170MOL0     O22311   7.458   2.564   5.107  0.5310 -1.0146 -0.6182
  170MOL0     C22312   7.416   2.436   5.099 -0.0510  0.0188  0.0857
  170MOL0     C22313   7.312   2.399   5.188  0.3156 -0.4624  0.2519
  170MOL0     C22314   7.251   2.277   5.177 -0.0177 -0.1832  0.1086
  170MOL0     C22315   7.283   2.183   5.074  0.1310 -0.4731  0.3860
  170MOL0     O22316   7.230   2.057   5.064 -0.7342  0.7266  0.0301
  170MOL0     C22317   7.179   2.002   5.184  0.4533 -0.1792  1.0267
  170MOL0     C22318   7.164   1.845   5.157 -0.0427 -0.4139 -0.1703
  170MOL0     C22319   7.297   1.774   5.195  1.2626 -0.6022 -0.0774
  170MOL0     C22320   7.271   1.627   5.200  0.4642 -0.5208  0.3030
  170MOL0     C22321   7.389   1.545   5.237  0.2131 -0.2760  0.2542
  170MOL0     C22322   7.363   1.393   5.225  0.0617  0.1133  0.7996
  170MOL0     C22323   7.456   1.298   5.302  0.3066 -0.0575  0.0535
  170MOL0     C22324   7.606   1.301   5.251  0.2849 -0.2763  0.0156
  170MOL0     N22325   7.607   1.263   5.108  0.1266 -0.0926  0.0667
  170MOL0     C22326   7.682   1.313   5.008  0.3607  0.3812  0.0878
  170MOL0     C22327   7.642   1.272   4.888 -0.6466  0.5213 -0.5714
  170MOL0     C22328   7.677   1.309   4.742  0.0378  0.6189 -0.3274
  170MOL0     C22329   7.697   1.454   4.713  0.1090 -0.4796 -0.2038
  170MOL0     C22330   7.568   1.536   4.700  0.9462  0.5008 -0.9103
  170MOL0     C22331   7.474   1.534   4.818  0.8060  1.2159 -0.0272
  170MOL0     O22332   7.407   1.662   4.846  0.6192 -0.5580 -0.3098
  170MOL0     C22333   7.324   1.718   4.754  0.9025  0.2328 -1.0884
  170MOL0     C22334   7.276   1.661   4.637  0.1959  0.0796 -0.0463
  170MOL0     C22335   7.171   1.732   4.559  0.0429 -1.1423 -0.5212
  170MOL0     C22336   7.118   1.849   4.612  1.0519 -0.5021 -0.1748
  170MOL0     C22337   7.002   1.925   4.553  0.0728  0.2184  0.4028
  170MOL0     O22338   6.939   2.019   4.633 -1.0368  0.0121  0.1039
  170MOL0     C22339   6.834   2.087   4.572  0.1595 -0.0220  0.7109
  170MOL0     C22340   6.739   2.138   4.654  0.2734 -0.0109  0.3630
  170MOL0     C22341   6.627   2.223   4.605  0.1199  0.3659  0.2702
  170MOL0     C22342   6.624   2.257   4.467  0.6418 -0.9532 -0.2231
  170MOL0     O22343   6.535   2.355   4.422 -0.0425  0.5631  0.3567
  170MOL0     C22344   6.539   2.405   4.289 -0.5076  0.1372 -0.4200
  170MOL0     C22345   6.427   2.514   4.286  0.4718 -0.4964 -0.1213
  170MOL0     C22346   6.406   2.588   4.160  0.4264  0.4316 -0.5801
  170MOL0     C22347   6.272   2.675   4.143 -0.1615 -0.5945 -0.3198
  170MOL0     C22348   6.141   2.598   4.126  1.6481  0.3642  0.2297
  170MOL0     C22349   6.018   2.685   4.136  0.4209 -0.3663 -0.9053
  170MOL0     C22350   6.007   2.814   4.047  0.2481  0.7798 -0.1909
  170MOL0     C22351   5.858   2.854   4.020  0.9366  0.7189 -0.7476
  170MOL0    Cl22352   5.807   2.773   3.875 -0.3225 -0.3075  0.3587
  170MOL0     C22353   6.723   2.199   4.388  0.2813 -0.1230  0.4455
  170MOL0     C22354   6.827   2.124   4.437  0.2847  0.5711 -0.6849
  170MOL0     O22355   6.965   1.882   4.440 -0.1886  0.2153 -0.0146
  170MOL0     C22356   7.170   1.903   4.727  0.0173 -0.3506  0.7735
  170MOL0     C22357   7.273   1.845   4.797  0.7859  0.7703 -0.9968
  170MOL0     N22358   7.539   1.182   4.918 -0.9262 -0.7753  0.1246
  170MOL0     N22359   7.513   1.190   5.050 -0.5013 -0.4751  0.1737
  170MOL0     C22360   7.368   2.232   4.977  0.2306  0.6345 -0.4078
  170MOL0     C22361   7.433   2.357   4.984 -0.5307  0.3060  0.0008
  170MOL0     C22362   7.613   2.749   5.090  0.1734 -0.4873  0.5404
  170MOL0     C22363   7.735   2.797   5.040 -0.9000  0.8000 -0.2791
  170MOL0     C22364   7.767   2.927   5.047  0.2305 -0.3431  0.4336
  170MOL0     C22365   7.684   3.017   5.119  0.3055 -0.4276 -0.0949
  170MOL0     O22366   7.713   3.153   5.121  0.5504 -0.1958  0.2360
  170MOL0     C22367   7.841   3.205   5.100 -0.7797 -0.2809  0.2158
  170MOL0     C22368   7.937   3.170   5.215 -0.2575 -0.2485 -0.0278
  170MOL0     C22369   8.077   3.236   5.212  0.0891 -0.3744 -1.0877
  170MOL0     C22370   8.100   3.343   5.327  0.2192 -0.6001  0.0048
  170MOL0     C22371   8.016   3.456   5.303  0.5425 -0.4864  0.4938
  170MOL0     C22372   7.938   3.550   5.290 -0.8049 -0.0523  0.3963
  170MOL0     C22373   7.577   2.973   5.189  0.5194 -0.4813 -0.0965
  170MOL0     C22374   7.540   2.836   5.166 -0.0061  0.3651 -1.4772
  170MOL0     H22375   7.272   2.460   5.269 -2.5634 -2.1335  0.2357
  170MOL0     H22376   7.174   2.269   5.254 -0.0184  0.0102  0.1298
  170MOL0     H22377   7.084   2.054   5.202  0.3018 -1.1896  3.5163
  170MOL0     H22378   7.249   2.011   5.267  1.2118 -2.5664  0.7308
  170MOL0     H22379   7.128   1.811   5.059 -0.0567  1.9313 -1.0528
  170MOL0     H22380   7.083   1.820   5.225  0.3463  1.8886  1.2331
  170MOL0     H22381   7.327   1.781   5.300  3.3871 -0.1760 -0.6618
  170MOL0     H22382   7.386   1.804   5.140  2.1166 -1.2346  0.9178
  170MOL0     H22383   7.198   1.611   5.281  1.3192 -1.5374  0.8960
  170MOL0     H22384   7.234   1.608   5.099  3.1449  5.1520 -2.1915
  170MOL0     H22385   7.425   1.570   5.337  0.8594 -1.9759  0.4721
  170MOL0     H22386   7.462   1.582   5.165 -1.4306  3.1915  0.1454
  170MOL0     H22387   7.363   1.368   5.118 -2.4749  1.8050  0.2922
  170MOL0     H22388   7.262   1.376   5.264 -1.0320  0.3122 -1.7411
  170MOL0     H22389   7.452   1.331   5.406  3.1424  1.1659 -0.1096
  170MOL0     H22390   7.415   1.197   5.307 -1.2122  0.4741 -1.1858
  170MOL0     H22391   7.678   1.230   5.295 -0.8962 -3.3756 -2.6717
  170MOL0     H22392   7.655   1.398   5.265  2.3458 -1.3140  0.4948
  170MOL0     H22393   7.757   1.388   5.029  1.4820 -1.0702  1.4498
  170MOL0     H22394   7.599   1.281   4.671  0.4205  1.4002 -1.0804
  170MOL0     H22395   7.768   1.259   4.708 -0.7506  0.4866 -2.3804
  170MOL0     H22396   7.747   1.457   4.616  1.0972  3.2796  0.2550
  170MOL0     H22397   7.762   1.506   4.784  1.2769  0.1131 -1.6536
  170MOL0     H22398   7.584   1.642   4.680 -3.7948  1.6199 -0.0772
  170MOL0     H22399   7.519   1.496   4.611 -1.6061 -1.9488  1.4080
  170MOL0     H22400   7.531   1.498   4.905  0.4925  0.2854 -0.2087
  170MOL0     H22401   7.399   1.463   4.783  0.2251  2.8910 -2.4382
  170MOL0     H22402   7.325   1.575   4.593  0.7633  0.7101 -0.6789
  170MOL0     H22403   7.152   1.689   4.462  2.4286  1.0235 -2.0668
  170MOL0     H22404   6.743   2.116   4.760  0.5595  2.0847  0.8209
  170MOL0     H22405   6.565   2.282   4.672  2.5577  3.3111  0.1488
  170MOL0     H22406   6.529   2.323   4.218  3.1201 -0.5802 -0.3045
  170MOL0     H22407   6.637   2.444   4.258  0.8347 -2.8995 -0.3350
  170MOL0     H22408   6.443   2.572   4.377 -1.8826 -2.4541  1.6840
  170MOL0     H22409   6.334   2.465   4.317  0.0883  1.8733  2.9145
  170MOL0     H22410   6.400   2.509   4.085 -0.4696  0.8000 -0.9061
  170MOL0     H22411   6.494   2.647   4.131  0.1794  0.4292 -1.3531
  170MOL0     H22412   6.263   2.736   4.234 -0.6809  0.9190 -1.3329
  170MOL0     H22413   6.281   2.749   4.062 -3.2475  0.3018  0.0355
  170MOL0     H22414   6.131   2.517   4.199  3.3560  0.3115  0.4547
  170MOL0     H22415   6.146   2.553   4.027 -0.6189 -0.9345  0.6440
  170MOL0     H22416   6.006   2.711   4.242  0.0247 -1.4930 -0.6581
  170MOL0     H22417   5.932   2.624   4.108 -0.4431  1.1259 -1.6583
  170MOL0     H22418   6.068   2.892   4.094  3.1741 -1.3059 -0.2111
  170MOL0     H22419   6.043   2.779   3.950 -0.3919  1.8468 -0.8197
  170MOL0     H22420   5.848   2.963   4.009  0.2020  0.8142  0.6804
  170MOL0     H22421   5.784   2.824   4.094  1.3559  4.1085  1.2586
  170MOL0     H22422   6.731   2.222   4.282  1.3821  0.3799  0.6207
  170MOL0     H22423   6.895   2.092   4.359  0.5738  0.6450 -0.4607
  170MOL0     H22424   7.122   1.991   4.767 -1.4400 -1.2506  1.0760
  170MOL0     H22425   7.299   1.889   4.893 -1.1544 -1.8524  0.9092
  170MOL0     H22426   7.388   2.168   4.891 -0.6807 -0.7986  0.4061
  170MOL0     H22427   7.482   2.386   4.891 -0.8355 -1.4154 -0.7327
  170MOL0     H22428   7.790   2.738   4.967 -1.4681  1.3561 -1.1749
  170MOL0     H22429   7.850   2.960   4.984  0.2183 -4.1301 -1.8611
  170MOL0     H22430   7.850   3.313   5.089  2.7923 -0.6311 -1.6856
  170MOL0     H22431   7.869   3.165   5.002  0.1230 -0.7728  0.6628
  170MOL0     H22432   7.885   3.192   5.309  0.9461  0.9028  0.3980
  170MOL0     H22433   7.955   3.062   5.208  1.2788 -0.2445  2.4209
  170MOL0     H22434   8.094   3.288   5.118 -1.2085  0.0924 -1.0908
  170MOL0     H22435   8.148   3.153   5.219 -2.8455 -2.9643  1.2061
  170MOL0     H22436   8.090   3.305   5.429  1.6498  1.0664  0.8286
  170MOL0     H22437   8.199   3.388   5.321  1.9996 -4.0471  1.0693
  170MOL0     H22438   7.877   3.632   5.255 -2.0667 -0.8350  0.6952
  170MOL0     H22439   7.513   3.039   5.247  0.5971  0.0007 -0.5616
  170MOL0     H22440   7.466   2.793   5.232  1.7279  1.3168  1.2874
  171MOL0     O22441   1.852   2.746   3.355 -0.0709 -0.0121  0.2535
  171MOL0     C22442   1.777   2.760   3.447  0.2458  0.5160  0.4683
  171MOL0     O22443   1.793   2.734   3.577  0.6330  0.7599  0.1037
  171MOL0     C22444   1.911   2.681   3.618  0.2321  0.4519  0.8566
  171MOL0     C22445   1.997   2.764   3.677 -0.3403  0.0034 -0.0624
  171MOL0     C22446   2.134   2.731   3.681 -0.3728  0.2119 -0.1960
  171MOL0     C22447   2.180   2.603   3.647  1.0574 -0.2873 -0.3085
  171MOL0     O22448   2.316   2.579   3.682 -0.5670 -0.2264 -0.0073
  171MOL0     C22449   2.378   2.456   3.649  0.7670  0.2009  0.1543
  171MOL0     C22450   2.351   2.354   3.760 -0.4719  0.9780 -0.4167
  171MOL0     C22451   2.426   2.213   3.736  1.0224 -0.1099 -0.8842
  171MOL0     C22452   2.441   2.142   3.876 -0.1751  0.7181 -0.0461
  171MOL0     C22453   2.532   2.015   3.863 -0.5389 -0.5382 -0.3878
  171MOL0     C22454   2.475   1.890   3.791 -0.0815 -0.5068 -0.5395
  171MOL0     C22455   2.563   1.770   3.778 -0.1258  0.4243  0.2739
  171MOL0     C22456   2.696   1.791   3.698 -0.1215  0.0676  0.1731
  171MOL0     N22457   2.785   1.676   3.720  0.0988  0.0256 -0.8593
  171MOL0     C22458   2.834   1.634   3.841  1.2134 -0.2689  0.8872
  171MOL0     C22459   2.879   1.509   3.815  0.3393  0.7047  0.1926
  171MOL0     C22460   2.951   1.413   3.900  0.8355 -0.7833  0.1939
  171MOL0     C22461   3.077   1.350   3.837  0.5993  0.1142 -0.4684
  171MOL0     C22462   3.177   1.446   3.764 -1.3616 -0.2107  0.2613
  171MOL0     C22463   3.282   1.515   3.873 -0.2782 -0.2083  0.5766
  171MOL0     O22464   3.214   1.571   3.985 -0.0537  0.5587 -0.9432
  171MOL0     C22465   3.146   1.684   3.978  0.2087  0.0570  0.3833
  171MOL0     C22466   3.080   1.716   4.100  0.2007  0.4403 -0.2702
  171MOL0     C22467   3.011   1.831   4.116 -0.3031 -1.4924  0.2131
  171MOL0     C22468   3.006   1.922   4.011 -0.3380 -0.5793  0.9526
  171MOL0     C22469   2.937   2.046   4.029  0.0324  0.0458  0.1702
  171MOL0     O22470   2.918   2.124   3.915 -0.7550  0.0325 -0.4428
  171MOL0     C22471   2.854   2.243   3.935 -0.1396  0.2129 -0.4103
  171MOL0     C22472   2.773   2.289   3.831 -0.1238  0.0974  0.3893
  171MOL0     C22473   2.737   2.423   3.820 -0.0450 -0.1354 -0.0601
  171MOL0     C22474   2.757   2.501   3.937 -0.6248 -0.7668 -0.4970
  171MOL0     O22475   2.725   2.636   3.913  0.4063  0.5992  0.1701
  171MOL0     C22476   2.657   2.701   4.018 -0.0349 -0.9148 -0.2182
  171MOL0     C22477   2.617   2.847   3.972 -0.3997 -0.7613 -1.1103
  171MOL0     C22478   2.493   2.840   3.879  0.2307 -0.7802 -0.7855
  171MOL0     C22479   2.444   2.974   3.837  0.3334  0.1123 -0.0032
  171MOL0     C22480   2.416   3.076   3.946 -0.4160  0.4778 -0.5387
  171MOL0     C22481   2.343   3.205   3.900 -0.1211 -0.4620 -0.6596
  171MOL0     C22482   2.337   3.303   4.018 -0.3216  0.1224  0.8785
  171MOL0     C22483   2.220   3.412   3.989  0.0846  1.0344 -0.0062
  171MOL0    Cl22484   2.053   3.344   3.972 -0.1780  0.1957  0.2664
  171MOL0     C22485   2.826   2.457   4.047  0.3117  0.5111  0.4972
  171MOL0     C22486   2.887   2.330   4.044  0.6195  0.5047  0.5896
  171MOL0     O22487   2.896   2.070   4.141  0.2512  0.9257 -0.0685
  171MOL0     C22488   3.066   1.884   3.883  0.2946 -0.0511  0.3260
  171MOL0     C22489   3.141   1.766   3.868  0.5581  0.5114 -0.3702
  171MOL0     N22490   2.859   1.484   3.675  0.7436 -0.1614 -0.5120
  171MOL0     N22491   2.803   1.590   3.623  0.4118 -0.4572 -0.6642
  171MOL0     C22492   2.084   2.506   3.610  0.3750  0.7061  0.1638
  171MOL0     C22493   1.954   2.547   3.583  1.3071 -0.8239 -0.6027
  171MOL0     C22494   1.667   2.847   3.414  0.5236 -0.3395  0.4793
  171MOL0     C22495   1.602   2.844   3.288  0.2198 -0.1420  0.6272
  171MOL0     C22496   1.503   2.940   3.266 -0.2388  0.2604 -0.2116
  171MOL0     C22497   1.470   3.037   3.362 -0.5809 -0.0342  0.8225
  171MOL0     O22498   1.382   3.128   3.312  0.3342 -0.4065  0.4699
  171MOL0     C22499   1.347   3.234   3.400 -0.4050 -0.3109  0.5827
  171MOL0     C22500   1.262   3.322   3.319  0.2138 -0.3152  0.1658
  171MOL0     C22501   1.143   3.251   3.244 -0.3683 -0.0612 -0.9579
  171MOL0     C22502   1.030   3.341   3.180  0.4859  0.1355 -0.9133
  171MOL0     C22503   0.921   3.276   3.113  0.8072 -0.2559 -0.0258
  171MOL0     C22504   0.807   3.238   3.079  0.8989 -1.0386 -0.5118
  171MOL0     C22505   1.527   3.031   3.492  0.0607 -0.5626  0.7634
  171MOL0     C22506   1.618   2.931   3.512 -0.2404  0.2112 -0.3661
  171MOL0     H22507   1.961   2.859   3.714  1.1217 -0.6537  3.4146
  171MOL0     H22508   2.220   2.797   3.690 -0.5977  1.1965 -3.7106
  171MOL0     H22509   2.487   2.458   3.646  1.0625 -4.1855  0.8086
  171MOL0     H22510   2.333   2.434   3.551  1.5868  0.2097 -0.2292
  171MOL0     H22511   2.245   2.332   3.777 -0.5567  1.3163 -0.5026
  171MOL0     H22512   2.397   2.392   3.852 -1.0130 -1.8427  1.1244
  171MOL0     H22513   2.523   2.233   3.690  1.3057  0.8823  0.1049
  171MOL0     H22514   2.368   2.162   3.658  1.4909 -0.9228 -0.7043
  171MOL0     H22515   2.489   2.204   3.952  5.1640 -0.1431 -2.3005
  171MOL0     H22516   2.339   2.118   3.908  0.6099 -4.1898 -0.4070
  171MOL0     H22517   2.550   1.985   3.967  0.3941  1.8414  0.1993
  171MOL0     H22518   2.627   2.052   3.824 -0.3871 -1.6947 -1.1493
  171MOL0     H22519   2.445   1.916   3.689 -3.0869  0.1950  0.4451
  171MOL0     H22520   2.388   1.846   3.840  0.6941 -3.3294 -1.5099
  171MOL0     H22521   2.589   1.728   3.876  3.0444  0.5715 -0.3921
  171MOL0     H22522   2.499   1.696   3.730 -0.3567 -0.0251  1.2426
  171MOL0     H22523   2.749   1.882   3.726  1.2570  0.4567 -3.2701
  171MOL0     H22524   2.680   1.804   3.591  3.1245 -2.2264 -0.7483
  171MOL0     H22525   2.819   1.673   3.942 -3.7757  1.4599 -0.2650
  171MOL0     H22526   2.874   1.339   3.925  0.1878  0.2722  1.4005
  171MOL0     H22527   2.987   1.455   3.995 -4.0800  2.3772  1.0130
  171MOL0     H22528   3.043   1.285   3.756  1.4535 -0.7607 -0.1468
  171MOL0     H22529   3.117   1.274   3.906 -2.5221 -1.8191 -0.6165
  171MOL0     H22530   3.241   1.405   3.685  1.7302  1.5247  1.6852
  171MOL0     H22531   3.122   1.531   3.722 -3.9639 -1.5394  0.7609
  171MOL0     H22532   3.354   1.583   3.825  1.5084 -1.2565  1.6431
  171MOL0     H22533   3.336   1.429   3.914  3.7246  1.9914  0.4878
  171MOL0     H22534   3.099   1.653   4.187  1.1870 -0.5399 -1.1612
  171MOL0     H22535   2.953   1.860   4.203 -1.5504  5.9064 -2.3563
  171MOL0     H22536   2.757   2.227   3.743  1.0512 -1.9139  1.5102
  171MOL0     H22537   2.685   2.474   3.740  0.6647  0.3329 -0.2364
  171MOL0     H22538   2.719   2.703   4.108  1.8779  2.2733 -1.4213
  171MOL0     H22539   2.570   2.638   4.040  1.0425 -1.9011  1.3446
  171MOL0     H22540   2.698   2.906   3.929 -0.6505  3.7123  3.6033
  171MOL0     H22541   2.600   2.892   4.070  5.1391 -2.5327  1.0582
  171MOL0     H22542   2.418   2.778   3.928  0.9477 -0.6428  0.5285
  171MOL0     H22543   2.520   2.793   3.784 -0.8526  1.1985 -2.1573
  171MOL0     H22544   2.523   3.007   3.768 -1.0478  0.1337 -1.6339
  171MOL0     H22545   2.355   2.970   3.775  1.2675  0.8729 -1.4493
  171MOL0     H22546   2.511   3.105   3.991 -0.6763  1.8016 -0.8021
  171MOL0     H22547   2.364   3.023   4.027  0.7226 -0.6709 -0.5255
  171MOL0     H22548   2.245   3.166   3.873 -0.2822 -1.0085  0.6369
  171MOL0     H22549   2.405   3.250   3.822  0.9323  0.0386  0.4289
  171MOL0     H22550   2.326   3.252   4.114  0.4431 -1.5350  0.1315
  171MOL0     H22551   2.426   3.365   4.033  0.3429 -0.9897  1.6883
  171MOL0     H22552   2.236   3.482   3.907 -2.7841  2.5411  0.5914
  171MOL0     H22553   2.224   3.472   4.081  1.8180 -0.6820  1.1258
  171MOL0     H22554   2.842   2.515   4.137 -0.2317 -0.1498  1.0291
  171MOL0     H22555   2.958   2.305   4.123  0.2116 -2.3490  0.1303
  171MOL0     H22556   3.066   1.949   3.796 -0.5904 -1.3096 -0.6385
  171MOL0     H22557   3.187   1.754   3.770 -1.0313  0.4704 -1.1404
  171MOL0     H22558   2.118   2.404   3.595 -0.1317  0.4064  1.0455
  171MOL0     H22559   1.873   2.491   3.536 -0.8049  0.4041  1.3337
  171MOL0     H22560   1.642   2.786   3.206 -1.4233  0.2355 -0.5026
  171MOL0     H22561   1.455   2.958   3.170 -3.3714 -1.3396  0.9320
  171MOL0     H22562   1.437   3.285   3.435 -0.0950 -0.5880  0.2070
  171MOL0     H22563   1.281   3.196   3.478 -1.9346 -2.2906 -1.5050
  171MOL0     H22564   1.226   3.382   3.403 -0.5307  1.5762 -1.4369
  171MOL0     H22565   1.323   3.377   3.248  0.4525 -0.5044  0.2240
  171MOL0     H22566   1.103   3.183   3.320  3.5463 -1.3382  0.2049
  171MOL0     H22567   1.194   3.191   3.168  1.4879  0.6229 -0.2989
  171MOL0     H22568   0.984   3.389   3.268  1.2782  0.6754 -0.7781
  171MOL0     H22569   1.079   3.412   3.113  0.6407 -0.4874 -1.4602
  171MOL0     H22570   0.703   3.214   3.067 -0.3398  2.0601  2.2659
  171MOL0     H22571   1.477   3.092   3.566 -3.0128 -2.5783  0.5488
  171MOL0     H22572   1.659   2.924   3.613 -0.4518  0.5898 -0.2473
  172MOL0     O22573   4.926   6.283   7.209 -0.3506  0.2100 -0.3894
  172MOL0     C22574   4.998   6.304   7.307 -0.1367  0.5529 -1.6740
  172MOL0     O22575   4.977   6.254   7.435  0.2063 -0.4580 -0.0499
  172MOL0     C22576   4.879   6.153   7.444 -0.2698  0.1570 -0.8997
  172MOL0     C22577   4.752   6.181   7.498 -0.1732 -0.6800 -0.0552
  172MOL0     C22578   4.659   6.079   7.499  0.1326 -0.0812  0.6772
  172MOL0     C22579   4.691   5.946   7.453  0.4623  1.4785 -1.5449
  172MOL0     O22580   4.585   5.859   7.459  0.1993  0.7341 -0.7021
  172MOL0     C22581   4.608   5.715   7.431  0.2388 -0.7483  0.1022
  172MOL0     C22582   4.477   5.636   7.431 -0.8706 -0.4400  0.2955
  172MOL0     C22583   4.403   5.613   7.297 -0.0733  0.3141 -0.5079
  172MOL0     C22584   4.279   5.715   7.276  0.3598 -0.6821  0.2650
  172MOL0     C22585   4.240   5.704   7.130  0.1597 -0.1322  0.9559
  172MOL0     C22586   4.143   5.595   7.105  1.2461  0.4475  0.9037
  172MOL0     C22587   4.136   5.568   6.955 -0.0980  0.2369 -1.2480
  172MOL0     C22588   4.257   5.491   6.912 -0.1241 -0.2365  0.0956
  172MOL0     N22589   4.246   5.471   6.764 -0.4666 -0.1767  0.6725
  172MOL0     C22590   4.255   5.578   6.673 -0.3406 -0.1870  0.2070
  172MOL0     C22591   4.241   5.513   6.545 -0.0516 -0.3634 -0.2239
  172MOL0     C22592   4.239   5.591   6.409  0.2162  0.8181  0.7591
  172MOL0     C22593   4.357   5.690   6.385 -0.9164 -0.4618 -0.2809
  172MOL0     C22594   4.359   5.744   6.240 -0.0613 -0.2565 -0.5865
  172MOL0     C22595   4.472   5.836   6.211  0.2242 -0.7300 -0.5852
  172MOL0     O22596   4.603   5.772   6.227  0.3857 -0.3393 -0.6399
  172MOL0     C22597   4.712   5.820   6.139  1.1824 -0.3619 -1.6045
  172MOL0     C22598   4.733   5.952   6.100  0.6201 -1.3130 -0.4659
  172MOL0     C22599   4.841   5.990   6.027  0.2905 -0.3602  0.4222
  172MOL0     C22600   4.939   5.912   5.977  1.0918 -0.4867  0.4742
  172MOL0     C22601   5.061   5.954   5.902  0.4998  0.0074  0.6896
  172MOL0     O22602   5.143   5.853   5.872 -0.0848  0.5608  0.4392
  172MOL0     C22603   5.277   5.869   5.853 -0.1347  0.3156 -0.0526
  172MOL0     C22604   5.320   5.795   5.737 -0.0001 -1.1989 -0.1025
  172MOL0     C22605   5.445   5.824   5.681 -0.2952  0.5914 -0.4707
  172MOL0     C22606   5.542   5.895   5.764  0.1077  0.5001 -0.5072
  172MOL0     O22607   5.660   5.905   5.707 -0.5205 -0.2890  0.9610
  172MOL0     C22608   5.742   6.020   5.722  0.4491 -0.4439  0.3062
  172MOL0     C22609   5.873   5.996   5.648  0.5808 -0.3293  0.3805
  172MOL0     C22610   5.960   6.116   5.675  0.8086  0.8427 -0.5090
  172MOL0     C22611   5.919   6.238   5.599 -0.3763  0.2493 -0.6993
  172MOL0     C22612   6.032   6.338   5.582  0.1366  0.3331 -1.2151
  172MOL0     C22613   6.058   6.431   5.696  0.2771 -0.9737 -0.5296
  172MOL0     C22614   6.194   6.495   5.674 -0.0413 -0.0788 -0.0594
  172MOL0     C22615   6.255   6.529   5.816  0.7973  0.1097  0.7851
  172MOL0    Cl22616   6.218   6.687   5.883 -0.1562 -0.6728 -0.1452
  172MOL0     C22617   5.499   5.947   5.885  0.1022 -0.0389  0.1006
  172MOL0     C22618   5.374   5.927   5.929  0.8483 -0.0539 -0.6267
  172MOL0     O22619   5.080   6.072   5.891 -0.5657 -0.4724 -0.2563
  172MOL0     C22620   4.923   5.780   6.021 -0.8279 -0.0722  0.3173
  172MOL0     C22621   4.815   5.730   6.100 -0.0037 -0.3010  1.1802
  172MOL0     N22622   4.214   5.376   6.572  0.0603 -0.3964 -0.3983
  172MOL0     N22623   4.215   5.353   6.703  0.4695 -0.4941 -0.2980
  172MOL0     C22624   4.830   5.925   7.413  0.4082 -0.2634 -0.7371
  172MOL0     C22625   4.912   6.037   7.396 -1.3469  0.4465 -0.9446
  172MOL0     C22626   5.113   6.400   7.295  1.0485  0.2594  0.2178
  172MOL0     C22627   5.176   6.452   7.401  0.3873 -0.3216  0.6694
  172MOL0     C22628   5.280   6.542   7.388  0.2713  0.6367 -0.2231
  172MOL0     C22629   5.332   6.581   7.268  0.3485  0.6824 -0.6815
  172MOL0     O22630   5.436   6.657   7.239 -0.3710  0.9561 -0.2955
  172MOL0     C22631   5.490   6.747   7.337  0.0815 -0.7636 -0.1501
  172MOL0     C22632   5.596   6.682   7.440  0.4978 -0.8670 -0.3474
  172MOL0     C22633   5.599   6.773   7.572  0.2720  0.7279  0.2341
  172MOL0     C22634   5.730   6.867   7.566  0.5120 -0.8139 -0.4725
  172MOL0     C22635   5.740   6.944   7.433  0.0242  0.9227 -0.6735
  172MOL0     C22636   5.772   7.011   7.336 -0.0957 -0.0667 -0.6499
  172MOL0     C22637   5.275   6.517   7.161  0.1874 -0.2260  0.1591
  172MOL0     C22638   5.170   6.427   7.164  0.7035  0.0524  0.4873
  172MOL0     H22639   4.734   6.281   7.536  2.5256 -0.6385  1.3505
  172MOL0     H22640   4.555   6.096   7.528 -0.2740 -1.7788  0.2960
  172MOL0     H22641   4.665   5.680   7.518  1.2840 -1.4308 -0.8337
  172MOL0     H22642   4.676   5.703   7.346  2.3972 -0.6695  1.7284
  172MOL0     H22643   4.415   5.672   7.513 -0.0715 -0.4323  0.9160
  172MOL0     H22644   4.503   5.536   7.467  3.6997  0.3967 -0.0154
  172MOL0     H22645   4.370   5.509   7.288 -1.1409  0.5695  0.2140
  172MOL0     H22646   4.492   5.638   7.238  3.0672  0.7267  3.9550
  172MOL0     H22647   4.192   5.691   7.339  0.1205 -1.9049 -0.5022
  172MOL0     H22648   4.311   5.815   7.308  2.4833 -1.3266  0.2485
  172MOL0     H22649   4.333   5.708   7.073 -1.1479 -2.3510 -1.5264
  172MOL0     H22650   4.177   5.790   7.104 -0.8309 -0.1990  2.9202
  172MOL0     H22651   4.048   5.631   7.144  0.5421 -0.3115 -0.0646
  172MOL0     H22652   4.166   5.507   7.166 -0.4669  0.9049  2.2793
  172MOL0     H22653   4.046   5.512   6.931  0.4239 -0.6309 -1.2308
  172MOL0     H22654   4.140   5.664   6.903  3.4205 -0.0602 -1.8368
  172MOL0     H22655   4.257   5.392   6.959 -1.2036  0.2182  1.0852
  172MOL0     H22656   4.352   5.544   6.923  1.6637 -3.2631  0.3226
  172MOL0     H22657   4.287   5.681   6.690  1.7080 -0.3881 -1.8753
  172MOL0     H22658   4.156   5.661   6.419 -1.0609 -0.8960  3.2085
  172MOL0     H22659   4.234   5.525   6.323 -0.3975  0.9026  0.7289
  172MOL0     H22660   4.459   5.652   6.400  0.0138  2.8598  3.5042
  172MOL0     H22661   4.347   5.769   6.460 -2.1771  3.6970 -4.3501
  172MOL0     H22662   4.377   5.656   6.177  0.1176  0.9317 -2.2632
  172MOL0     H22663   4.264   5.772   6.196  1.3258  0.6279 -3.2291
  172MOL0     H22664   4.479   5.922   6.278  2.1146  0.4218 -2.1631
  172MOL0     H22665   4.457   5.876   6.111  2.4635 -3.1107 -2.0127
  172MOL0     H22666   4.652   6.019   6.128 -0.9386 -2.4297 -2.1172
  172MOL0     H22667   4.854   6.098   6.021  1.1547 -0.3127  2.2122
  172MOL0     H22668   5.241   5.748   5.680 -0.3628 -0.6447 -0.0715
  172MOL0     H22669   5.480   5.775   5.591  0.1512  0.4284 -0.2126
  172MOL0     H22670   5.759   6.035   5.829  3.1134 -3.8514  0.5337
  172MOL0     H22671   5.694   6.109   5.681  3.1604  0.4719 -1.1666
  172MOL0     H22672   5.864   5.977   5.540  0.3707 -1.5527  0.5985
  172MOL0     H22673   5.913   5.909   5.701 -0.3717 -2.1490 -1.7403
  172MOL0     H22674   6.061   6.079   5.652  0.8010  0.1360  0.5640
  172MOL0     H22675   5.957   6.136   5.782 -2.0450  2.4972 -0.7932
  172MOL0     H22676   5.876   6.209   5.503  1.1960  0.1963 -1.4187
  172MOL0     H22677   5.844   6.291   5.659 -0.4134  0.6329 -1.0783
  172MOL0     H22678   6.009   6.380   5.484  0.2116 -0.6423 -1.6616
  172MOL0     H22679   6.121   6.275   5.583 -0.3357 -0.3630  0.3919
  172MOL0     H22680   6.068   6.373   5.789 -3.0129 -2.3755 -0.8830
  172MOL0     H22681   5.978   6.505   5.703  1.0473 -0.2642  2.3361
  172MOL0     H22682   6.263   6.424   5.627  0.6541 -0.4701  1.4633
  172MOL0     H22683   6.183   6.588   5.618 -1.1035  1.4308  2.4820
  172MOL0     H22684   6.364   6.533   5.802  0.9182 -1.3797  1.1730
  172MOL0     H22685   6.234   6.447   5.885  0.8702 -0.9714 -0.4587
  172MOL0     H22686   5.568   6.005   5.945 -1.4640  2.1689 -0.0758
  172MOL0     H22687   5.367   5.965   6.031  2.8828 -2.4175  0.4982
  172MOL0     H22688   5.000   5.708   5.995 -1.4295 -0.3007 -0.9094
  172MOL0     H22689   4.821   5.629   6.138 -1.7736 -0.5499  0.8515
  172MOL0     H22690   4.858   5.840   7.352  1.8608 -2.3142  2.4977
  172MOL0     H22691   4.995   6.015   7.329 -1.5683 -0.7178 -0.8691
  172MOL0     H22692   5.145   6.412   7.497  0.1994 -0.3615  0.5934
  172MOL0     H22693   5.315   6.596   7.475 -1.5927  0.6226  0.5798
  172MOL0     H22694   5.408   6.797   7.389  0.6775  2.4519 -2.0285
  172MOL0     H22695   5.532   6.837   7.293 -2.5442 -0.5365 -2.4598
  172MOL0     H22696   5.564   6.584   7.476 -1.9320  0.3356  0.9704
  172MOL0     H22697   5.695   6.671   7.394  1.3514 -3.2638  1.8328
  172MOL0     H22698   5.619   6.697   7.648 -1.2653  0.0950  0.0291
  172MOL0     H22699   5.507   6.830   7.588 -0.6597 -0.2200 -1.4510
  172MOL0     H22700   5.720   6.947   7.640 -1.3347 -2.7705  1.5416
  172MOL0     H22701   5.823   6.821   7.600  1.5334  2.1345  1.0640
  172MOL0     H22702   5.784   7.092   7.267 -0.1067 -0.3483 -0.9807
  172MOL0     H22703   5.314   6.545   7.063 -0.3914  0.6535  0.1643
  172MOL0     H22704   5.146   6.379   7.070  3.3116 -0.9503  0.2515
  173MOL0     O22705   4.209   0.261   0.851  0.2936 -0.3539  0.4962
  173MOL0     C22706   4.276   0.165   0.904 -1.3112 -0.1276 -0.2005
  173MOL0     O22707   4.337   0.166   1.025 -0.1052  0.8554 -0.3973
  173MOL0     C22708   4.360   0.290   1.085  0.0353  0.6095  0.5629
  173MOL0     C22709   4.257   0.371   1.122  0.1293  0.3539 -0.2597
  173MOL0     C22710   4.288   0.493   1.176  0.1427 -0.4478 -0.4841
  173MOL0     C22711   4.416   0.537   1.202 -0.3811  1.6136 -0.4275
  173MOL0     O22712   4.441   0.665   1.256  0.1090  0.0162 -0.0069
  173MOL0     C22713   4.569   0.716   1.236  0.6803  0.0283  0.7879
  173MOL0     C22714   4.563   0.864   1.279 -0.6041  0.4415 -0.6608
  173MOL0     C22715   4.451   0.930   1.212  1.0229  0.5971  0.4865
  173MOL0     C22716   4.467   1.082   1.197  0.4402 -0.0980 -0.2229
  173MOL0     C22717   4.341   1.143   1.115  0.5744  0.5788  0.6411
  173MOL0     C22718   4.373   1.284   1.080  0.2060  0.0211 -0.5107
  173MOL0     C22719   4.268   1.368   0.996  0.0524  0.1287 -0.2782
  173MOL0     C22720   4.139   1.366   1.073 -0.3657  0.4548 -0.0367
  173MOL0     N22721   4.052   1.470   1.013  0.4738 -0.4015 -0.8581
  173MOL0     C22722   3.972   1.451   0.895  0.4114 -0.4058  0.2185
  173MOL0     C22723   3.925   1.583   0.869  0.8586  0.4029 -0.8063
  173MOL0     C22724   3.838   1.625   0.755 -0.2292 -0.0289 -0.1680
  173MOL0     C22725   3.895   1.614   0.609  0.3771 -0.4868 -0.1247
  173MOL0     C22726   3.943   1.476   0.575 -0.8304  0.8956 -0.8875
  173MOL0     C22727   3.949   1.465   0.424  0.6937 -0.1727  0.4958
  173MOL0     O22728   3.823   1.474   0.358  0.2361  0.4185  0.3470
  173MOL0     C22729   3.725   1.379   0.376 -0.8359  0.4266  0.0570
  173MOL0     C22730   3.593   1.418   0.385 -0.6516 -0.9414 -0.3592
  173MOL0     C22731   3.489   1.323   0.401  0.5230  1.2323  0.1022
  173MOL0     C22732   3.520   1.187   0.405 -0.1455 -0.4218 -0.1566
  173MOL0     C22733   3.406   1.099   0.414  0.3689  0.4383 -0.2233
  173MOL0     O22734   3.277   1.163   0.422 -0.0333 -0.4431 -0.1204
  173MOL0     C22735   3.173   1.087   0.442  0.0879 -0.1209  0.7561
  173MOL0     C22736   3.123   1.053   0.568  1.1606  1.1749  0.1079
  173MOL0     C22737   2.998   0.990   0.585  1.3391  0.6754  0.6071
  173MOL0     C22738   2.925   0.970   0.469 -0.2671 -0.8141  0.2072
  173MOL0     O22739   2.797   0.929   0.463 -0.5750 -0.5824 -0.5460
  173MOL0     C22740   2.694   0.992   0.543  0.8637  0.5686 -0.7827
  173MOL0     C22741   2.606   1.096   0.467 -0.4637 -0.6458 -0.6800
  173MOL0     C22742   2.481   1.156   0.527  1.2105  0.5513  0.2726
  173MOL0     C22743   2.523   1.250   0.640  0.0706 -0.1490 -0.1510
  173MOL0     C22744   2.409   1.338   0.684 -0.3342  0.4561  0.2217
  173MOL0     C22745   2.432   1.470   0.761  0.1573  0.3426 -0.7858
  173MOL0     C22746   2.415   1.441   0.907  0.1245 -0.7305  0.1452
  173MOL0     C22747   2.275   1.429   0.953 -0.1013 -0.0826 -1.3027
  173MOL0    Cl22748   2.287   1.461   1.128 -0.1724  0.3011  0.2771
  173MOL0     C22749   2.972   1.003   0.337 -1.0184 -0.5218  0.0811
  173MOL0     C22750   3.098   1.065   0.322 -0.1649  0.7309  0.5972
  173MOL0     O22751   3.430   0.982   0.399  0.1300  0.6343  0.2760
  173MOL0     C22752   3.651   1.145   0.396  0.4341  0.2936 -0.0745
  173MOL0     C22753   3.749   1.242   0.385 -1.4748  0.1704  0.0558
  173MOL0     N22754   3.984   1.675   0.957 -0.5059 -0.2813  0.5408
  173MOL0     N22755   4.061   1.608   1.044  0.9634 -0.8319 -0.4603
  173MOL0     C22756   4.520   0.444   1.181 -0.2543 -0.0277  0.5473
  173MOL0     C22757   4.495   0.319   1.129  0.7509  0.3508 -0.4755
  173MOL0     C22758   4.282   0.031   0.825  0.4019  0.4205 -0.1800
  173MOL0     C22759   4.344  -0.080   0.885  0.8916 -0.0664  0.7037
  173MOL0     C22760   4.345  -0.204   0.812  0.5189  0.4204  0.1404
  173MOL0     C22761   4.296  -0.212   0.683  0.4122 -0.5084 -0.8311
  173MOL0     O22762   4.288  -0.334   0.628 -0.3197 -0.2914  0.1180
  173MOL0     C22763   4.408  -0.381   0.574 -0.6657  0.7316  1.1138
  173MOL0     C22764   4.421  -0.319   0.441  0.4454  0.4829  0.7764
  173MOL0     C22765   4.293  -0.368   0.357  0.2261  0.3584  0.7561
  173MOL0     C22766   4.314  -0.291   0.227  0.7809 -0.2900  0.1893
  173MOL0     C22767   4.213  -0.327   0.120 -0.9270  0.2667  0.5256
  173MOL0     C22768   4.130  -0.341   0.038  0.1715 -0.5824 -0.4090
  173MOL0     C22769   4.246  -0.100   0.622  0.2411  0.3409  0.2596
  173MOL0     C22770   4.238   0.019   0.693 -0.2540  0.1574  0.8450
  173MOL0     H22771   4.155   0.335   1.114 -0.8169  2.7824 -0.0968
  173MOL0     H22772   4.211   0.563   1.207 -0.6881 -1.2458 -0.6998
  173MOL0     H22773   4.608   0.712   1.134 -0.3659 -1.6589  0.4158
  173MOL0     H22774   4.638   0.669   1.307  1.3184 -0.0802  0.1095
  173MOL0     H22775   4.660   0.914   1.276  0.2141 -0.7227  2.4915
  173MOL0     H22776   4.541   0.874   1.386  0.6369 -0.1550 -0.3240
  173MOL0     H22777   4.356   0.904   1.261  2.1930 -0.4136  2.3217
  173MOL0     H22778   4.443   0.889   1.110  1.3790  0.6107  0.4513
  173MOL0     H22779   4.473   1.124   1.297 -0.2812  0.1513 -0.2794
  173MOL0     H22780   4.563   1.088   1.144 -0.7225  0.9343 -2.3505
  173MOL0     H22781   4.251   1.141   1.178  0.0014  2.5421 -0.0523
  173MOL0     H22782   4.305   1.083   1.031  0.1638  2.4558 -0.5833
  173MOL0     H22783   4.472   1.286   1.034 -0.0793 -1.3829 -1.2240
  173MOL0     H22784   4.393   1.328   1.178  1.0245 -3.4439  1.0222
  173MOL0     H22785   4.315   1.462   0.966  3.0678 -0.9209  0.8662
  173MOL0     H22786   4.258   1.307   0.906 -3.2863 -4.2076  2.6377
  173MOL0     H22787   4.153   1.393   1.178  0.8932  1.8472 -0.5236
  173MOL0     H22788   4.077   1.276   1.071 -3.1036  2.2291 -0.0551
  173MOL0     H22789   3.948   1.355   0.851 -3.0585 -0.6896  2.3586
  173MOL0     H22790   3.815   1.727   0.787 -2.9528 -0.9116  0.9269
  173MOL0     H22791   3.739   1.580   0.757 -1.2843  2.1569  0.3674
  173MOL0     H22792   3.972   1.688   0.587 -0.4167  0.1032 -1.0094
  173MOL0     H22793   3.813   1.637   0.540  0.3372  0.1396  0.1258
  173MOL0     H22794   4.044   1.462   0.614 -0.5505 -1.4893 -2.3055
  173MOL0     H22795   3.875   1.402   0.619  2.4064 -2.6351 -1.3392
  173MOL0     H22796   3.995   1.371   0.391  1.1313  1.0174 -2.6541
  173MOL0     H22797   4.004   1.551   0.385 -1.7647  1.4724  0.4740
  173MOL0     H22798   3.569   1.523   0.373  3.0143 -0.0564 -1.2438
  173MOL0     H22799   3.384   1.350   0.399 -0.2168 -1.4264 -0.1828
  173MOL0     H22800   3.180   1.058   0.660 -0.9702  1.1471  1.4883
  173MOL0     H22801   2.936   0.962   0.669 -0.8750  1.2860 -0.7502
  173MOL0     H22802   2.729   1.035   0.637  1.3203 -3.5147  1.1602
  173MOL0     H22803   2.631   0.910   0.579  2.2425 -0.8399 -1.4202
  173MOL0     H22804   2.579   1.054   0.369 -1.5701 -2.9089  0.5313
  173MOL0     H22805   2.670   1.180   0.436  1.5285 -1.6261  0.5593
  173MOL0     H22806   2.407   1.077   0.542  1.9391 -0.2620 -0.2689
  173MOL0     H22807   2.443   1.216   0.443 -0.8551 -0.7388  0.2130
  173MOL0     H22808   2.569   1.191   0.720 -1.0958  0.9327  1.3499
  173MOL0     H22809   2.600   1.319   0.604  0.5394 -1.1866 -1.2306
  173MOL0     H22810   2.336   1.269   0.728  1.8079 -3.4757 -1.8729
  173MOL0     H22811   2.356   1.373   0.595  1.8074  3.0281 -0.1592
  173MOL0     H22812   2.364   1.550   0.731 -0.5516 -0.0500 -0.2655
  173MOL0     H22813   2.532   1.509   0.739 -0.6065  1.6613 -2.0607
  173MOL0     H22814   2.472   1.353   0.940  0.1231 -0.7399  0.1225
  173MOL0     H22815   2.457   1.526   0.962 -1.3542  0.2124 -0.1562
  173MOL0     H22816   2.236   1.327   0.943 -0.7178  0.0459 -0.3562
  173MOL0     H22817   2.209   1.501   0.904 -1.9122 -2.0010 -1.8387
  173MOL0     H22818   2.917   1.000   0.244 -0.6326  3.8583 -0.5233
  173MOL0     H22819   3.132   1.092   0.223 -0.7079 -2.6407 -0.6383
  173MOL0     H22820   3.669   1.038   0.401 -2.2857 -0.1917  1.1149
  173MOL0     H22821   3.851   1.207   0.376 -2.2495 -1.7093 -2.6839
  173MOL0     H22822   4.626   0.467   1.189 -0.5413  2.2591 -1.2888
  173MOL0     H22823   4.564   0.238   1.109 -1.1966 -1.4441 -0.3009
  173MOL0     H22824   4.377  -0.073   0.988  2.6876  0.6714  0.1161
  173MOL0     H22825   4.372  -0.298   0.859 -3.6224  0.3339  2.9146
  173MOL0     H22826   4.405  -0.489   0.558 -3.0572  0.9632 -0.5537
  173MOL0     H22827   4.492  -0.353   0.639 -1.2498  1.3418  1.6257
  173MOL0     H22828   4.433  -0.211   0.434 -1.8297  0.8520  1.7461
  173MOL0     H22829   4.515  -0.365   0.408  2.0574  2.7494  1.9732
  173MOL0     H22830   4.193  -0.345   0.395 -0.2798  1.3232 -1.0087
  173MOL0     H22831   4.285  -0.477   0.343 -0.4020  0.5812 -0.8403
  173MOL0     H22832   4.300  -0.182   0.230 -3.6349 -0.6400 -0.2454
  173MOL0     H22833   4.415  -0.311   0.190  2.1100 -0.3249  3.5059
  173MOL0     H22834   4.056  -0.357  -0.037  0.6482 -3.5918 -0.3770
  173MOL0     H22835   4.217  -0.098   0.517 -0.0843 -1.4994  0.2736
  173MOL0     H22836   4.193   0.103   0.641 -1.7194  0.7127  2.8782
  174MOL0     O22837   4.570   8.112   5.425 -0.1286 -0.5496 -0.2324
  174MOL0     C22838   4.480   8.102   5.339  0.8731  0.2080  0.0031
  174MOL0     O22839   4.392   8.201   5.306  0.5319  0.4144 -0.1221
  174MOL0     C22840   4.346   8.288   5.398  0.0900 -0.6767  0.1119
  174MOL0     C22841   4.280   8.396   5.336 -0.4328  0.0461  0.3362
  174MOL0     C22842   4.220   8.493   5.421  0.2328  0.1416  0.1781
  174MOL0     C22843   4.208   8.470   5.557  0.6242 -0.3523  0.3012
  174MOL0     O22844   4.139   8.562   5.632  0.7222  0.3022 -0.3288
  174MOL0     C22845   4.227   8.659   5.677 -0.1226  0.4542  0.3333
  174MOL0     C22846   4.180   8.707   5.803 -0.4140  0.2422  0.0586
  174MOL0     C22847   4.193   8.599   5.910 -0.9330 -0.1719  0.0379
  174MOL0     C22848   4.319   8.612   5.992 -0.3141 -0.8143  0.5236
  174MOL0     C22849   4.304   8.578   6.134  0.3033  0.2880 -0.8147
  174MOL0     C22850   4.239   8.436   6.158  0.1466  0.6055  0.5540
  174MOL0     C22851   4.214   8.426   6.310 -0.4182  0.4046  0.3765
  174MOL0     C22852   4.107   8.327   6.348  0.1425 -0.1686  0.1931
  174MOL0     N22853   4.153   8.196   6.290 -0.3901  0.5873  0.1771
  174MOL0     C22854   4.074   8.118   6.221 -0.1371 -0.8689 -0.6900
  174MOL0     C22855   4.147   8.008   6.171 -0.3343 -0.1097 -0.5202
  174MOL0     C22856   4.103   7.887   6.095  0.3736  0.3825 -0.5369
  174MOL0     C22857   4.122   7.912   5.949  0.7296 -0.4296 -0.4167
  174MOL0     C22858   4.271   7.925   5.914  0.3879  0.3182 -0.2570
  174MOL0     C22859   4.291   7.956   5.771 -0.6671  0.0653 -0.1992
  174MOL0     O22860   4.430   7.963   5.749 -0.3469 -0.9708  0.1707
  174MOL0     C22861   4.502   7.855   5.708 -0.1977  0.5769  0.0064
  174MOL0     C22862   4.632   7.884   5.688 -0.1294  0.1553  0.1808
  174MOL0     C22863   4.719   7.777   5.662 -0.4325  0.5849  0.0077
  174MOL0     C22864   4.672   7.652   5.618 -0.8851 -0.6258 -0.2232
  174MOL0     C22865   4.763   7.550   5.557  0.5729  0.4170  0.8413
  174MOL0     O22866   4.887   7.579   5.506  0.4864  0.2380 -0.0118
  174MOL0     C22867   4.934   7.482   5.416  0.8537  0.4903 -0.4403
  174MOL0     C22868   5.027   7.389   5.469 -1.0738  0.9216 -0.0512
  174MOL0     C22869   5.093   7.290   5.385 -0.5725  1.1570 -1.1506
  174MOL0     C22870   5.043   7.276   5.250  0.3138 -0.2108 -0.7408
  174MOL0     O22871   5.087   7.177   5.169 -0.6763  0.3932  0.0888
  174MOL0     C22872   5.220   7.113   5.189  0.3164 -1.0400 -0.4441
  174MOL0     C22873   5.256   7.038   5.063 -0.4536  0.7443 -0.3685
  174MOL0     C22874   5.395   6.959   5.092 -0.6753  0.1008  1.2497
  174MOL0     C22875   5.423   6.852   4.984 -0.0471 -0.9266 -0.5891
  174MOL0     C22876   5.561   6.788   4.993 -0.1297 -0.1561 -0.3031
  174MOL0     C22877   5.580   6.664   4.901  0.0545 -1.0690  0.2959
  174MOL0     C22878   5.732   6.633   4.880 -0.3877  0.5532 -0.4384
  174MOL0     C22879   5.759   6.491   4.831 -0.3880  0.0363 -0.0224
  174MOL0    Cl22880   5.740   6.393   4.976 -0.7747  0.4597  0.5123
  174MOL0     C22881   4.951   7.367   5.201 -0.6743 -1.1662 -0.4440
  174MOL0     C22882   4.889   7.472   5.283  0.3376  1.2352 -0.4243
  174MOL0     O22883   4.714   7.433   5.561 -0.6341 -0.1495  0.7641
  174MOL0     C22884   4.531   7.624   5.633  0.0104  0.2067 -0.5657
  174MOL0     C22885   4.447   7.726   5.681  1.3719  0.3523  0.0616
  174MOL0     N22886   4.268   8.033   6.216 -0.8172  0.2248  0.2944
  174MOL0     N22887   4.275   8.136   6.290  0.3798 -0.1361 -1.4094
  174MOL0     C22888   4.287   8.368   5.616  0.2419  0.3430 -0.2303
  174MOL0     C22889   4.342   8.273   5.538 -1.0998  0.9849 -0.2270
  174MOL0     C22890   4.506   7.995   5.238 -0.6416  0.3020  0.8114
  174MOL0     C22891   4.548   7.866   5.276 -0.2023 -0.2121 -0.0776
  174MOL0     C22892   4.579   7.766   5.182 -0.4250 -0.4620 -0.5783
  174MOL0     C22893   4.554   7.793   5.046 -0.4167 -0.7651 -1.1536
  174MOL0     O22894   4.565   7.697   4.944 -0.1430 -0.3071  0.2849
  174MOL0     C22895   4.681   7.709   4.863  0.0773 -0.3109  0.2406
  174MOL0     C22896   4.807   7.646   4.933 -0.0451 -0.0399  0.4234
  174MOL0     C22897   4.922   7.632   4.834 -0.6760  0.3144 -0.4018
  174MOL0     C22898   5.002   7.762   4.837 -0.5769  0.7565  0.3694
  174MOL0     C22899   5.092   7.764   4.719 -0.1460 -0.1826 -0.8686
  174MOL0     C22900   5.174   7.772   4.630 -0.2012 -0.3675 -0.8442
  174MOL0     C22901   4.486   7.912   5.014  0.1747 -0.0608 -0.4537
  174MOL0     C22902   4.468   8.019   5.105  0.4869  0.3988 -0.0310
  174MOL0     H22903   4.259   8.406   5.230 -1.7124 -1.2989  0.4414
  174MOL0     H22904   4.176   8.585   5.383  1.6336  0.1644 -1.5390
  174MOL0     H22905   4.219   8.737   5.601 -3.0653  1.4213  1.4976
  174MOL0     H22906   4.329   8.630   5.705  0.1246 -1.0722 -1.8995
  174MOL0     H22907   4.074   8.732   5.793  0.0205  1.8922 -0.7062
  174MOL0     H22908   4.232   8.799   5.828 -2.6170  1.8280 -0.8622
  174MOL0     H22909   4.188   8.494   5.878 -2.0747 -0.0247 -0.2932
  174MOL0     H22910   4.114   8.626   5.980  1.0456  0.9304  1.9964
  174MOL0     H22911   4.404   8.558   5.949  1.3898  1.7863  0.4070
  174MOL0     H22912   4.343   8.719   5.987  2.5328 -1.4330 -3.2482
  174MOL0     H22913   4.231   8.643   6.183 -0.9626  0.5098 -2.8523
  174MOL0     H22914   4.399   8.571   6.189 -0.0513 -0.4134 -0.2783
  174MOL0     H22915   4.298   8.351   6.124  0.8991  1.2086  0.3219
  174MOL0     H22916   4.140   8.447   6.111  0.1791  3.2202  0.9202
  174MOL0     H22917   4.306   8.404   6.366 -1.0856  1.3047  1.8964
  174MOL0     H22918   4.165   8.516   6.349 -1.3375 -0.3978  1.1135
  174MOL0     H22919   4.008   8.358   6.311  0.0448 -0.9287 -0.2095
  174MOL0     H22920   4.110   8.310   6.456 -0.0807  0.5316  0.3194
  174MOL0     H22921   3.969   8.139   6.201 -0.1826  0.5997  0.8676
  174MOL0     H22922   3.997   7.871   6.115  0.4285 -1.0007 -1.2304
  174MOL0     H22923   4.150   7.799   6.140  2.1004  1.5227  0.0170
  174MOL0     H22924   4.070   8.005   5.926 -1.5307 -0.7837  2.6557
  174MOL0     H22925   4.083   7.823   5.899  0.2518 -0.9399  0.8271
  174MOL0     H22926   4.319   8.013   5.958  1.4254 -0.4414  0.1701
  174MOL0     H22927   4.328   7.842   5.956 -1.5305 -0.1075  1.6576
  174MOL0     H22928   4.245   8.047   5.734  0.9607 -0.4699 -3.9953
  174MOL0     H22929   4.232   7.885   5.713 -1.1023  1.0178 -0.9315
  174MOL0     H22930   4.681   7.980   5.676  1.7453 -0.6436  1.0100
  174MOL0     H22931   4.825   7.804   5.658 -1.0512  3.2029 -1.0946
  174MOL0     H22932   5.041   7.384   5.577 -0.2536  1.4093 -0.1285
  174MOL0     H22933   5.161   7.214   5.423 -3.6493 -0.6872  1.1361
  174MOL0     H22934   5.212   7.054   5.280 -1.0212 -1.7757 -1.0160
  174MOL0     H22935   5.295   7.191   5.205  0.0063 -0.6947 -0.6511
  174MOL0     H22936   5.257   7.107   4.978 -0.1061 -1.5668 -2.3403
  174MOL0     H22937   5.181   6.961   5.044  1.3644 -1.4957  0.8972
  174MOL0     H22938   5.377   6.923   5.194  5.2269  0.8954  2.9668
  174MOL0     H22939   5.479   7.029   5.093  0.3619 -1.1216  1.6823
  174MOL0     H22940   5.342   6.779   4.989 -2.2982  1.4295 -0.2871
  174MOL0     H22941   5.415   6.904   4.888 -2.9403  2.0086  1.0323
  174MOL0     H22942   5.574   6.747   5.094 -0.1304  0.3058 -0.1118
  174MOL0     H22943   5.641   6.862   4.984  0.2020 -0.6818 -1.8766
  174MOL0     H22944   5.541   6.687   4.802  1.3917 -0.0905 -0.0389
  174MOL0     H22945   5.529   6.572   4.932 -2.8861 -0.5291 -2.4641
  174MOL0     H22946   5.767   6.699   4.800 -0.2978  0.3485 -0.5676
  174MOL0     H22947   5.786   6.661   4.971  0.7801 -1.3819 -0.4882
  174MOL0     H22948   5.864   6.481   4.802 -1.2604 -2.7967 -2.8792
  174MOL0     H22949   5.681   6.457   4.762  1.1099 -0.5768 -1.4813
  174MOL0     H22950   4.927   7.350   5.096  1.3073 -0.8401 -0.9840
  174MOL0     H22951   4.827   7.552   5.244 -1.4145 -1.6410 -4.1112
  174MOL0     H22952   4.496   7.527   5.600 -2.4699 -0.8457  4.2642
  174MOL0     H22953   4.342   7.700   5.686  1.3706  0.0108 -1.3651
  174MOL0     H22954   4.287   8.360   5.724  1.9190  1.1514 -0.1408
  174MOL0     H22955   4.384   8.179   5.570 -0.3808  1.1557 -0.6484
  174MOL0     H22956   4.562   7.843   5.382 -1.7544  0.3002  0.2710
  174MOL0     H22957   4.645   7.691   5.224  3.2208  1.8376 -1.6464
  174MOL0     H22958   4.703   7.816   4.854  0.7675 -0.2071  2.5520
  174MOL0     H22959   4.658   7.659   4.768 -1.1385  0.1985  0.2464
  174MOL0     H22960   4.833   7.704   5.022  3.7895 -1.6432  0.5486
  174MOL0     H22961   4.779   7.552   4.981 -1.1573 -0.4338 -0.9279
  174MOL0     H22962   4.876   7.635   4.735  3.2077 -0.5846 -2.4498
  174MOL0     H22963   4.983   7.542   4.848 -1.3972  0.1576  2.5906
  174MOL0     H22964   4.940   7.852   4.854  2.0226  2.4017  1.7317
  174MOL0     H22965   5.073   7.767   4.920  0.0590 -2.0266  0.0811
  174MOL0     H22966   5.242   7.791   4.549 -0.9469  4.4175 -0.6253
  174MOL0     H22967   4.475   7.935   4.909  1.1598 -0.5271 -0.6672
  174MOL0     H22968   4.417   8.107   5.068 -0.1865 -0.5428 -1.4087
  175MOL0     O22969   1.163   2.805   9.578  0.7012  0.0877 -0.0791
  175MOL0     C22970   1.192   2.759   9.472  0.8706 -0.9380 -0.5410
  175MOL0     O22971   1.311   2.709   9.442 -0.8100  0.0530  0.5688
  175MOL0     C22972   1.404   2.709   9.542 -0.8932  0.2954 -0.4031
  175MOL0     C22973   1.438   2.834   9.602 -0.6241 -0.0301 -0.1837
  175MOL0     C22974   1.560   2.836   9.667 -0.4889 -0.1794 -0.7435
  175MOL0     C22975   1.650   2.721   9.675 -0.4441 -0.2869 -0.2241
  175MOL0     O22976   1.767   2.716   9.745  0.0117 -0.7174  0.3598
  175MOL0     C22977   1.838   2.839   9.748  0.7495 -0.6206 -0.3184
  175MOL0     C22978   1.833   2.921   9.880  0.8146  0.1578 -0.9782
  175MOL0     C22979   1.916   3.054   9.867  0.4881  1.5948 -0.3551
  175MOL0     C22980   1.914   3.126   9.999  0.4412 -1.4407 -0.2057
  175MOL0     C22981   1.907   3.275   9.967 -0.2890 -0.5153  1.1497
  175MOL0     C22982   2.037   3.316   9.896 -0.4367  0.3509 -0.3514
  175MOL0     C22983   2.153   3.321  10.005 -0.4075 -0.7442 -0.5247
  175MOL0     C22984   2.271   3.383   9.926  0.0005  0.1636 -0.5962
  175MOL0     N22985   2.314   3.289   9.824 -0.4463 -0.2344 -0.2160
  175MOL0     C22986   2.347   3.156   9.840 -0.1370 -0.1349  0.0496
  175MOL0     C22987   2.387   3.106   9.722  1.1639  1.2777  0.7467
  175MOL0     C22988   2.451   2.973   9.690 -0.3727  0.4769 -0.1055
  175MOL0     C22989   2.403   2.843   9.750  0.1423  0.3257  0.2783
  175MOL0     C22990   2.251   2.823   9.721  0.2876 -0.4904 -0.2578
  175MOL0     C22991   2.236   2.741   9.590 -0.1937  0.5530 -0.6594
  175MOL0     O22992   2.105   2.737   9.543  0.2105  0.2208  0.0066
  175MOL0     C22993   2.060   2.642   9.453 -0.5289 -1.0219  0.4499
  175MOL0     C22994   1.927   2.638   9.426 -0.7043 -0.2126  0.0907
  175MOL0     C22995   1.881   2.546   9.331 -0.1312  1.0334  0.6653
  175MOL0     C22996   1.964   2.448   9.272  1.2959 -0.4079 -0.2282
  175MOL0     C22997   1.914   2.340   9.183 -0.9545 -0.0568  0.4906
  175MOL0     O22998   2.008   2.296   9.089  0.0050 -0.6209 -0.9379
  175MOL0     C22999   1.986   2.167   9.041  0.4573 -0.4606  0.2916
  175MOL0     C23000   1.884   2.151   8.936 -0.6004  0.0383 -0.9383
  175MOL0     C23001   1.852   2.023   8.896 -0.5640 -0.3643  0.1464
  175MOL0     C23002   1.914   1.906   8.934 -0.7001 -0.1700  0.4376
  175MOL0     O23003   1.868   1.794   8.873 -0.4866  0.3110 -0.5473
  175MOL0     C23004   1.932   1.671   8.913 -0.4580 -0.1428  1.0354
  175MOL0     C23005   1.835   1.564   8.865  0.5730  0.1194 -0.0946
  175MOL0     C23006   1.698   1.573   8.942 -0.0737  0.6706 -0.4499
  175MOL0     C23007   1.590   1.481   8.883 -0.6564  0.0898 -0.5479
  175MOL0     C23008   1.528   1.541   8.750 -0.5416 -0.3750 -1.1311
  175MOL0     C23009   1.406   1.472   8.683 -0.3914 -0.1242 -0.5290
  175MOL0     C23010   1.364   1.552   8.555 -1.2015 -0.3517  0.9904
  175MOL0     C23011   1.231   1.487   8.506 -0.2120  0.6852  0.7101
  175MOL0    Cl23012   1.277   1.320   8.438  0.2922  0.5279 -0.0087
  175MOL0     C23013   2.017   1.922   9.026 -0.0499 -1.3271 -1.0975
  175MOL0     C23014   2.050   2.050   9.081 -0.6674 -0.4428 -1.0246
  175MOL0     O23015   1.805   2.298   9.206 -0.0353  0.7697 -0.2610
  175MOL0     C23016   2.097   2.459   9.296 -0.0641  0.5020  0.2099
  175MOL0     C23017   2.150   2.563   9.377  0.2225  1.4714  1.2367
  175MOL0     N23018   2.373   3.207   9.631 -0.7230  0.6458 -0.9448
  175MOL0     N23019   2.334   3.316   9.694 -0.0258 -0.9567  0.4166
  175MOL0     C23020   1.609   2.609   9.614  0.9375 -0.1188  0.1715
  175MOL0     C23021   1.487   2.600   9.537 -0.9476 -0.3062 -0.6298
  175MOL0     C23022   1.079   2.761   9.370  0.0350 -0.9373 -0.1284
  175MOL0     C23023   1.124   2.798   9.242  0.4323  0.8538 -0.3253
  175MOL0     C23024   1.020   2.816   9.149 -0.0565 -0.4983  1.0432
  175MOL0     C23025   0.884   2.801   9.175  0.2961 -0.0892 -0.1157
  175MOL0     O23026   0.808   2.828   9.058 -0.9465 -0.2114 -0.5735
  175MOL0     C23027   0.669   2.794   9.078  0.7659 -1.0346  0.5751
  175MOL0     C23028   0.598   2.892   8.964  0.2312  1.0411 -0.2644
  175MOL0     C23029   0.442   2.872   8.952 -0.4462  1.0677 -0.6439
  175MOL0     C23030   0.360   2.905   9.083  0.0144 -0.2274  0.0563
  175MOL0     C23031   0.383   3.052   9.104  0.7644 -0.1230 -0.6086
  175MOL0     C23032   0.415   3.171   9.113 -0.5487  0.4849 -0.7511
  175MOL0     C23033   0.848   2.743   9.295 -0.1610 -0.5682  0.4845
  175MOL0     C23034   0.949   2.733   9.397  0.1135  0.1805  0.1849
  175MOL0     H23035   1.368   2.917   9.607  0.3378  0.7397  2.4217
  175MOL0     H23036   1.588   2.925   9.723 -0.2529 -1.3109  1.0437
  175MOL0     H23037   1.809   2.897   9.660  0.0174  2.3600  1.7185
  175MOL0     H23038   1.941   2.808   9.727  1.6262  1.3302  0.7353
  175MOL0     H23039   1.862   2.863   9.968  1.5788  0.2282 -1.1712
  175MOL0     H23040   1.730   2.956   9.883  0.6102 -0.4890  1.1230
  175MOL0     H23041   1.893   3.122   9.785  1.6287  3.8171  1.0650
  175MOL0     H23042   2.014   3.010   9.847 -0.3379 -1.3160  1.4236
  175MOL0     H23043   1.825   3.098  10.056  0.2754  3.9961  2.8776
  175MOL0     H23044   2.006   3.116  10.058  0.4203 -1.4201 -0.1715
  175MOL0     H23045   1.883   3.339  10.051 -3.0521  0.4117 -0.2387
  175MOL0     H23046   1.830   3.293   9.892  0.4068  3.8892  1.2415
  175MOL0     H23047   2.026   3.420   9.863  1.6284  1.8276  3.0253
  175MOL0     H23048   2.067   3.272   9.800 -0.8687  0.7336 -0.6684
  175MOL0     H23049   2.131   3.390  10.088 -0.6464 -0.3484 -0.9111
  175MOL0     H23050   2.169   3.230  10.063  1.7508  0.3925  0.7859
  175MOL0     H23051   2.360   3.401   9.987  0.2398 -2.1133 -0.1902
  175MOL0     H23052   2.231   3.478   9.890 -2.6484 -0.4009  0.6675
  175MOL0     H23053   2.334   3.104   9.935 -0.7976  0.2547  0.1787
  175MOL0     H23054   2.556   2.973   9.720 -0.3490 -2.5832  0.0839
  175MOL0     H23055   2.437   2.962   9.582  0.5045 -1.3533 -0.0791
  175MOL0     H23056   2.418   2.858   9.858  3.4234 -0.5403  0.0647
  175MOL0     H23057   2.461   2.757   9.715  1.8459  0.4789  2.5145
  175MOL0     H23058   2.208   2.753   9.793  1.3420 -3.0141 -1.9166
  175MOL0     H23059   2.195   2.917   9.714  2.4303  1.1800  2.7554
  175MOL0     H23060   2.260   2.640   9.623  0.7661  0.5804 -1.2547
  175MOL0     H23061   2.298   2.769   9.505 -1.8432  0.7634 -1.8438
  175MOL0     H23062   1.859   2.716   9.460 -0.3295 -0.1728  0.7635
  175MOL0     H23063   1.778   2.531   9.301  0.1767  0.6847 -0.2508
  175MOL0     H23064   1.824   2.240   8.922  2.9719  2.4359 -2.4208
  175MOL0     H23065   1.764   2.015   8.834 -0.2941  2.0570 -0.6401
  175MOL0     H23066   1.952   1.669   9.021  0.0905  2.9706  1.0989
  175MOL0     H23067   2.026   1.641   8.865 -1.6650 -1.4148 -0.6450
  175MOL0     H23068   1.887   1.471   8.890  1.5640  0.4950 -0.7392
  175MOL0     H23069   1.812   1.563   8.758 -3.1555 -0.6645  0.5514
  175MOL0     H23070   1.657   1.674   8.945  3.5334  2.2472  0.7591
  175MOL0     H23071   1.710   1.543   9.046  0.5251 -0.1439 -0.7451
  175MOL0     H23072   1.633   1.383   8.860  1.6500  1.0924 -0.7527
  175MOL0     H23073   1.512   1.469   8.959  1.9355 -3.8020  1.9058
  175MOL0     H23074   1.612   1.541   8.679  2.4611 -1.5761  2.1026
  175MOL0     H23075   1.501   1.645   8.773 -2.7161 -1.7940  4.1939
  175MOL0     H23076   1.311   1.467   8.737  0.3335  0.3247  0.8378
  175MOL0     H23077   1.431   1.371   8.650  2.8316  0.8151 -1.3438
  175MOL0     H23078   1.334   1.656   8.570 -4.4550 -1.0987  0.3972
  175MOL0     H23079   1.435   1.527   8.477 -0.5827  2.0944  0.6957
  175MOL0     H23080   1.194   1.551   8.425  3.4184  2.7252  0.4556
  175MOL0     H23081   1.156   1.486   8.586  1.1800  0.2852  2.0497
  175MOL0     H23082   2.058   1.836   9.078  0.4512 -0.1532  0.5168
  175MOL0     H23083   2.125   2.060   9.159 -1.8809 -1.6163  0.3579
  175MOL0     H23084   2.177   2.400   9.252  0.0576 -0.8805  2.1975
  175MOL0     H23085   2.258   2.568   9.384  0.4624  1.6563 -1.6461
  175MOL0     H23086   1.683   2.531   9.610  1.0560 -0.0638  1.0580
  175MOL0     H23087   1.444   2.508   9.498  1.3822 -1.1166 -1.4984
  175MOL0     H23088   1.227   2.816   9.213  0.0815  1.1142 -1.4636
  175MOL0     H23089   1.059   2.843   9.052  1.9042 -2.0958  1.3306
  175MOL0     H23090   0.629   2.840   9.169  1.5088  0.0192  0.3892
  175MOL0     H23091   0.645   2.687   9.083 -0.0197 -0.8114  2.1370
  175MOL0     H23092   0.602   2.993   9.006 -2.2737  0.5414  1.4314
  175MOL0     H23093   0.648   2.897   8.867 -1.0256  4.3192 -0.8686
  175MOL0     H23094   0.432   2.764   8.939 -0.2260  0.8836  0.5921
  175MOL0     H23095   0.409   2.930   8.865 -0.5587 -1.0812 -2.1037
  175MOL0     H23096   0.252   2.892   9.076 -0.1557  0.0701  1.7239
  175MOL0     H23097   0.397   2.853   9.172 -1.3622  1.6812  1.8354
  175MOL0     H23098   0.451   3.271   9.102 -0.3126  0.2519 -2.4674
  175MOL0     H23099   0.751   2.702   9.320  1.1452 -4.3620 -0.0675
  175MOL0     H23100   0.912   2.695   9.491  1.5840  0.7076  1.0072
  176MOL0     O23101   6.979   7.053   6.003 -0.3920  0.0269  0.2174
  176MOL0     C23102   6.903   6.972   5.948  0.6156 -0.1125  0.4230
  176MOL0     O23103   6.894   6.953   5.811  1.3087 -0.1128 -0.3590
  176MOL0     C23104   6.949   7.059   5.730  0.4252  0.5707 -0.4933
  176MOL0     C23105   7.081   7.093   5.730 -0.8130  0.2006  0.1878
  176MOL0     C23106   7.133   7.187   5.634  0.3677  0.2405  0.7889
  176MOL0     C23107   7.043   7.251   5.546  1.3043  0.2409  0.2888
  176MOL0     O23108   7.086   7.336   5.448 -0.7313  0.1799 -0.4254
  176MOL0     C23109   7.073   7.475   5.499  0.8207  0.9556 -0.0027
  176MOL0     C23110   7.148   7.508   5.627 -1.2174 -0.5899 -0.4099
  176MOL0     C23111   7.303   7.504   5.596 -0.0819 -0.1721 -0.5084
  176MOL0     C23112   7.367   7.595   5.692  0.2985  0.0853  0.4301
  176MOL0     C23113   7.520   7.633   5.666  0.0308 -0.4703  0.9639
  176MOL0     C23114   7.540   7.713   5.543  0.2967  0.2006  0.8202
  176MOL0     C23115   7.600   7.628   5.417 -0.4915 -0.6468  0.6708
  176MOL0     C23116   7.619   7.727   5.299 -0.5297 -0.4382 -0.4729
  176MOL0     N23117   7.661   7.663   5.172  0.4716  0.1685 -0.9066
  176MOL0     C23118   7.585   7.604   5.076  0.9210 -0.2570  0.1625
  176MOL0     C23119   7.658   7.595   4.964 -0.1979 -0.7728 -0.3456
  176MOL0     C23120   7.624   7.547   4.827 -0.2531 -0.7667  0.0048
  176MOL0     C23121   7.514   7.631   4.771 -0.3879  0.8721  0.8099
  176MOL0     C23122   7.549   7.766   4.724 -0.6227 -0.3128 -1.0274
  176MOL0     C23123   7.441   7.858   4.722  0.7635  1.4009  0.4976
  176MOL0     O23124   7.474   7.992   4.692 -0.4968 -0.1278 -0.1810
  176MOL0     C23125   7.377   8.077   4.657 -0.5174 -0.3423 -1.1679
  176MOL0     C23126   7.232   8.046   4.674 -0.6859  0.3009  1.4620
  176MOL0     C23127   7.138   8.124   4.616  0.5166  0.7688 -0.4446
  176MOL0     C23128   7.174   8.249   4.564 -0.0698 -0.2814  0.7219
  176MOL0     C23129   7.061   8.337   4.516 -0.1304  0.6114 -0.5418
  176MOL0     O23130   6.942   8.301   4.569  0.4220 -0.3039 -0.6539
  176MOL0     C23131   6.815   8.342   4.522  0.4835  0.2833 -0.2286
  176MOL0     C23132   6.701   8.273   4.567 -0.7330  0.0920 -0.1180
  176MOL0     C23133   6.577   8.290   4.515 -0.3995  0.3597  0.1706
  176MOL0     C23134   6.549   8.393   4.420  1.0690  0.5665  0.4728
  176MOL0     O23135   6.424   8.408   4.371 -0.7453  0.3103 -0.6237
  176MOL0     C23136   6.393   8.523   4.281 -0.3775  0.2055  0.7715
  176MOL0     C23137   6.253   8.497   4.227 -0.0199  0.0834  0.1991
  176MOL0     C23138   6.149   8.607   4.258  0.4808  0.5433  0.0307
  176MOL0     C23139   6.034   8.583   4.157  0.0525  0.1222 -0.1504
  176MOL0     C23140   5.935   8.695   4.180  0.6363  0.0029  0.8763
  176MOL0     C23141   5.848   8.712   4.060  0.3698 -0.8101  0.1281
  176MOL0     C23142   5.756   8.831   4.077  0.1261  0.8180  0.9991
  176MOL0     C23143   5.662   8.865   3.963 -0.3782 -0.0085  0.2784
  176MOL0    Cl23144   5.552   8.992   4.011 -0.1045 -0.0008  0.6020
  176MOL0     C23145   6.663   8.470   4.378  0.4271  0.1151 -0.8330
  176MOL0     C23146   6.792   8.439   4.431 -0.2916 -0.0366  0.9489
  176MOL0     O23147   7.080   8.398   4.410  0.7956  0.9575  0.0020
  176MOL0     C23148   7.314   8.282   4.558  0.0950 -1.1502 -0.3457
  176MOL0     C23149   7.412   8.201   4.612 -0.3566 -0.3458 -0.1484
  176MOL0     N23150   7.789   7.633   5.002  0.3885  0.4765 -0.7156
  176MOL0     N23151   7.788   7.674   5.126  0.0873 -0.2747 -0.6498
  176MOL0     C23152   6.910   7.222   5.555 -0.5933 -0.1631  0.8113
  176MOL0     C23153   6.871   7.124   5.638  0.4648 -0.2743 -0.3169
  176MOL0     C23154   6.803   6.902   6.031 -0.2681 -1.0134  0.2504
  176MOL0     C23155   6.797   6.931   6.172  0.4376 -0.3593  0.6019
  176MOL0     C23156   6.712   6.858   6.254  0.3843  0.1459 -0.3251
  176MOL0     C23157   6.638   6.748   6.207  0.3369  0.6471  0.7390
  176MOL0     O23158   6.564   6.674   6.307 -0.7453  0.2253  0.6728
  176MOL0     C23159   6.457   6.594   6.264  1.4909  0.8320 -0.0592
  176MOL0     C23160   6.342   6.565   6.374  0.4325 -0.5146  0.7917
  176MOL0     C23161   6.261   6.446   6.346  0.2136  0.1971 -0.1702
  176MOL0     C23162   6.182   6.459   6.216  0.9322  1.0124 -0.3792
  176MOL0     C23163   6.119   6.331   6.180 -0.9516  1.1185 -0.0678
  176MOL0     C23164   6.053   6.237   6.135 -0.7856 -0.2421  0.1788
  176MOL0     C23165   6.639   6.724   6.063  0.8584  0.8805 -0.3464
  176MOL0     C23166   6.721   6.800   5.980  0.5494  0.6017 -0.0247
  176MOL0     H23167   7.143   7.032   5.794 -1.3564 -1.0170 -0.4172
  176MOL0     H23168   7.240   7.205   5.634  0.7658 -1.8357  0.0979
  176MOL0     H23169   6.969   7.500   5.519  1.2914  2.5247  0.6238
  176MOL0     H23170   7.112   7.549   5.429  1.1878  2.5832  1.8492
  176MOL0     H23171   7.112   7.456   5.716  0.2316 -2.2444 -0.7107
  176MOL0     H23172   7.115   7.610   5.648 -0.5810 -0.7841  1.7844
  176MOL0     H23173   7.320   7.539   5.493  0.1067 -3.0984 -1.5750
  176MOL0     H23174   7.348   7.404   5.603  3.2914  1.2834  0.5099
  176MOL0     H23175   7.309   7.687   5.681 -1.8230 -1.4964 -3.4569
  176MOL0     H23176   7.364   7.568   5.798  0.9838 -1.1657  0.1429
  176MOL0     H23177   7.584   7.545   5.679  1.4551 -0.1509 -2.7562
  176MOL0     H23178   7.547   7.702   5.747 -0.5473  0.8269  0.0750
  176MOL0     H23179   7.611   7.793   5.566  1.7065  0.6189 -3.7981
  176MOL0     H23180   7.444   7.754   5.511  0.0501 -0.8482  0.1519
  176MOL0     H23181   7.701   7.597   5.446 -0.2443 -0.4237  0.0684
  176MOL0     H23182   7.537   7.540   5.398 -0.5024 -0.2523 -1.3879
  176MOL0     H23183   7.688   7.807   5.325 -1.5835  0.5148 -0.5139
  176MOL0     H23184   7.521   7.774   5.282 -1.3094 -1.1582  1.7086
  176MOL0     H23185   7.481   7.576   5.089 -1.2872  3.6113 -5.0456
  176MOL0     H23186   7.609   7.439   4.842 -0.6497 -0.9291 -1.3863
  176MOL0     H23187   7.710   7.555   4.759 -1.1757 -0.0792 -1.1216
  176MOL0     H23188   7.430   7.636   4.841 -3.0895 -0.4662 -2.1082
  176MOL0     H23189   7.480   7.577   4.682  1.0315  1.0436  0.1287
  176MOL0     H23190   7.630   7.801   4.788 -2.7326  0.7141  1.2856
  176MOL0     H23191   7.590   7.762   4.622  0.4996 -1.1753 -0.5585
  176MOL0     H23192   7.401   7.858   4.824  1.0254 -0.0616  0.6079
  176MOL0     H23193   7.369   7.816   4.652  0.3312  0.1888  1.6327
  176MOL0     H23194   7.210   7.944   4.704 -0.3087 -0.8398 -1.7538
  176MOL0     H23195   7.036   8.087   4.616  1.6713 -2.7998 -1.6404
  176MOL0     H23196   6.712   8.196   4.642 -0.4863  0.5780  0.3511
  176MOL0     H23197   6.501   8.222   4.552  0.9518 -2.3276 -1.6363
  176MOL0     H23198   6.464   8.533   4.198 -1.5601 -2.6356 -0.7222
  176MOL0     H23199   6.370   8.613   4.339  2.1614  0.5108  1.3861
  176MOL0     H23200   6.217   8.410   4.283  1.2045 -0.2389  0.5236
  176MOL0     H23201   6.268   8.476   4.121 -0.6050  0.5446  0.0169
  176MOL0     H23202   6.198   8.703   4.240 -2.2108  1.8079 -1.1637
  176MOL0     H23203   6.109   8.615   4.360 -0.3367  2.3692 -0.3860
  176MOL0     H23204   6.079   8.584   4.058 -1.2088 -3.3997 -0.9168
  176MOL0     H23205   5.994   8.481   4.159  3.9381 -1.5404  0.5111
  176MOL0     H23206   5.988   8.787   4.206  3.5764 -0.8172 -1.6366
  176MOL0     H23207   5.877   8.663   4.268  3.1815 -2.0904  1.9207
  176MOL0     H23208   5.782   8.625   4.050  0.3970 -0.7243 -0.8870
  176MOL0     H23209   5.902   8.731   3.967  0.4575  0.9482  0.4988
  176MOL0     H23210   5.704   8.838   4.173 -1.2114  0.0661  0.3620
  176MOL0     H23211   5.834   8.908   4.083  0.3980  0.5591  0.8262
  176MOL0     H23212   5.605   8.776   3.935 -0.2872  0.0628 -0.1491
  176MOL0     H23213   5.713   8.900   3.872 -0.8279  2.7782  1.0268
  176MOL0     H23214   6.661   8.554   4.311 -3.0979  0.2405 -0.7364
  176MOL0     H23215   6.868   8.504   4.389  0.5529 -1.2783  0.5082
  176MOL0     H23216   7.345   8.375   4.512  1.0713 -1.3735 -0.1657
  176MOL0     H23217   7.515   8.234   4.603 -1.3333  2.5161 -2.8283
  176MOL0     H23218   6.830   7.274   5.504 -1.0902 -2.2238 -0.6224
  176MOL0     H23219   6.765   7.104   5.632  0.5652 -1.6896  1.5420
  176MOL0     H23220   6.863   6.995   6.230  0.9617 -1.6388  1.4700
  176MOL0     H23221   6.707   6.871   6.362 -0.2952 -2.1083 -0.0253
  176MOL0     H23222   6.492   6.492   6.244 -4.7133 -1.6259 -0.6139
  176MOL0     H23223   6.412   6.642   6.177 -1.5284 -1.6323 -0.0189
  176MOL0     H23224   6.404   6.555   6.463 -0.3287 -1.1123  1.2639
  176MOL0     H23225   6.278   6.653   6.377  4.0735  2.3784  1.3752
  176MOL0     H23226   6.211   6.410   6.437  0.1890  1.8909  0.5249
  176MOL0     H23227   6.333   6.366   6.326  1.4475  1.4424 -0.8117
  176MOL0     H23228   6.107   6.538   6.215  0.3597  0.5139  1.0127
  176MOL0     H23229   6.265   6.470   6.145  3.2487 -2.3603  1.5301
  176MOL0     H23230   5.998   6.148   6.109 -0.2467 -0.6936  0.5577
  176MOL0     H23231   6.587   6.638   6.023  1.2251  0.6263 -0.2756
  176MOL0     H23232   6.725   6.775   5.874  1.5662 -0.2816  0.2083
  177MOL0     O23233  11.019   0.825   1.386 -0.2259  0.5096 -0.1040
  177MOL0     C23234  11.123   0.856   1.440  0.2249 -0.1153 -0.0158
  177MOL0     O23235  11.188   0.778   1.528 -0.2715  0.8963 -0.0833
  177MOL0     C23236  11.160   0.640   1.540 -0.0102 -0.2076  0.8403
  177MOL0     C23237  11.270   0.575   1.493 -0.3767  0.7033 -0.0893
  177MOL0     C23238  11.287   0.430   1.517 -0.5482 -0.6820  0.0605
  177MOL0     C23239  11.192   0.357   1.579  0.0823 -0.2061  0.6226
  177MOL0     O23240  11.203   0.222   1.591  0.4066  0.0802  0.9673
  177MOL0     C23241  11.176   0.157   1.468 -0.8351  0.1823 -0.0141
  177MOL0     C23242  11.176   0.005   1.492 -0.6086 -0.7885  0.2876
  177MOL0     C23243  11.184  -0.072   1.364 -0.6538 -0.4092 -0.1532
  177MOL0     C23244  11.174  -0.218   1.387  0.0719 -0.0711 -0.5711
  177MOL0     C23245  11.252  -0.296   1.288 -0.3402  0.2052  0.0748
  177MOL0     C23246  11.212  -0.264   1.139 -0.1214 -0.5079 -0.0273
  177MOL0     C23247  11.279  -0.367   1.042  0.0528 -0.0364 -0.3996
  177MOL0     C23248  11.224  -0.356   0.896  0.0232  0.9015 -0.5939
  177MOL0     N23249  11.262  -0.230   0.851  0.4566  0.4370  0.8876
  177MOL0     C23250  11.392  -0.208   0.826  0.0799  1.1115 -1.2289
  177MOL0     C23251  11.392  -0.080   0.787 -0.1344 -0.6615 -0.6075
  177MOL0     C23252  11.505   0.000   0.736 -0.6234 -0.5069 -0.7635
  177MOL0     C23253  11.635  -0.018   0.821  0.3235 -0.0752 -0.6670
  177MOL0     C23254  11.754   0.056   0.748  0.1397 -0.7432  0.0351
  177MOL0     C23255  11.763   0.207   0.784  0.7661  0.3085  0.2871
  177MOL0     O23256  11.881   0.251   0.726  1.0320  0.4254 -0.3875
  177MOL0     C23257  11.901   0.381   0.744  0.3443 -0.9269  0.0892
  177MOL0     C23258  12.002   0.441   0.665  0.0934 -0.3569 -1.5133
  177MOL0     C23259  12.035   0.575   0.671 -0.3140 -0.4862 -0.5486
  177MOL0     C23260  11.960   0.660   0.743 -0.2614 -0.0178  0.5713
  177MOL0     C23261  11.984   0.815   0.742  0.1189  0.6149 -0.5787
  177MOL0     O23262  12.094   0.856   0.677 -0.9875  0.6687 -0.3191
  177MOL0     C23263  12.105   0.993   0.661  0.1856 -1.1379 -0.2822
  177MOL0     C23264  12.117   1.041   0.532 -0.4468 -0.6869 -0.3380
  177MOL0     C23265  12.124   1.181   0.517 -0.6998  0.2100 -0.4767
  177MOL0     C23266  12.117   1.268   0.619 -0.9991 -0.3260  0.3707
  177MOL0     O23267  12.134   1.395   0.587  0.7758 -0.9137  0.4764
  177MOL0     C23268  12.022   1.458   0.519  0.4916  0.4651  0.0535
  177MOL0     C23269  12.037   1.609   0.528  1.2599  0.5561  0.8443
  177MOL0     C23270  11.940   1.674   0.430 -0.2062 -0.7053 -0.3580
  177MOL0     C23271  11.949   1.820   0.416  0.0017 -0.1755 -0.1593
  177MOL0     C23272  11.884   1.879   0.544  0.1016  0.1970  0.4062
  177MOL0     C23273  11.853   2.024   0.544 -0.0947  0.1174  0.6874
  177MOL0     C23274  11.974   2.113   0.524 -0.3024  1.3658  0.9051
  177MOL0     C23275  11.936   2.262   0.515 -0.7189 -0.3210  0.2796
  177MOL0    Cl23276  12.073   2.375   0.454  0.2181 -0.0196 -0.1271
  177MOL0     C23277  12.114   1.214   0.745  1.1860 -0.1984  0.8050
  177MOL0     C23278  12.104   1.081   0.769 -0.0543  0.5992 -0.9018
  177MOL0     O23279  11.887   0.886   0.789 -0.6930 -0.1555  0.5584
  177MOL0     C23280  11.846   0.605   0.817 -0.1108 -0.3797 -0.3187
  177MOL0     C23281  11.827   0.470   0.822  0.5859 -1.0443 -0.4455
  177MOL0     N23282  11.262  -0.028   0.782 -0.6212  0.3230 -0.7513
  177MOL0     N23283  11.179  -0.118   0.822  0.1936 -0.1401 -0.2005
  177MOL0     C23284  11.075   0.429   1.617  0.3464  0.3290 -0.2959
  177MOL0     C23285  11.056   0.565   1.605  0.3766 -1.4409 -0.1111
  177MOL0     C23286  11.181   0.986   1.429 -0.8835  0.3609  0.8850
  177MOL0     C23287  11.093   1.093   1.416  0.3211 -0.6579  0.2438
  177MOL0     C23288  11.142   1.232   1.433 -0.1447  0.1780 -0.6137
  177MOL0     C23289  11.286   1.254   1.432  0.2711 -0.4623 -0.2458
  177MOL0     O23290  11.334   1.379   1.404  0.7431 -0.1586  0.3791
  177MOL0     C23291  11.348   1.475   1.507  0.2295  0.3545  1.6246
  177MOL0     C23292  11.427   1.586   1.431  1.3839 -0.3068 -0.1840
  177MOL0     C23293  11.336   1.672   1.343 -0.3090  0.2484 -0.4979
  177MOL0     C23294  11.264   1.776   1.416  0.4230 -0.2792  0.0155
  177MOL0     C23295  11.212   1.876   1.336  0.4506 -0.1067 -0.2249
  177MOL0     C23296  11.160   1.955   1.259  0.1248 -0.6553 -0.3294
  177MOL0     C23297  11.369   1.142   1.451  0.0547 -0.8349 -0.8724
  177MOL0     C23298  11.322   1.011   1.453  0.3870 -0.4489 -0.0918
  177MOL0     H23299  11.343   0.636   1.442 -0.5854 -0.6247 -2.1038
  177MOL0     H23300  11.370   0.369   1.483 -0.9023 -0.3817 -1.4215
  177MOL0     H23301  11.248   0.182   1.389 -2.0456  0.1575 -1.1421
  177MOL0     H23302  11.083   0.184   1.418 -1.2639  1.1475  1.2512
  177MOL0     H23303  11.080  -0.008   1.543 -1.5012  1.0798 -0.8025
  177MOL0     H23304  11.252  -0.018   1.567 -0.5453  1.3339  0.9232
  177MOL0     H23305  11.278  -0.046   1.313 -2.6717  2.4640 -2.8197
  177MOL0     H23306  11.094  -0.048   1.307 -0.6404 -2.1733 -0.9528
  177MOL0     H23307  11.210  -0.250   1.486 -0.2959 -1.3727 -0.8360
  177MOL0     H23308  11.068  -0.244   1.383  0.0106 -0.1513  0.9467
  177MOL0     H23309  11.236  -0.403   1.308 -2.1918  0.0514 -1.9364
  177MOL0     H23310  11.360  -0.281   1.297 -0.0034 -1.8152 -0.0978
  177MOL0     H23311  11.243  -0.161   1.119 -1.4215 -0.2956 -1.1114
  177MOL0     H23312  11.102  -0.264   1.132 -0.0479 -1.2201 -1.7889
  177MOL0     H23313  11.388  -0.366   1.045  0.0986 -1.6249 -0.7249
  177MOL0     H23314  11.251  -0.465   1.081  0.6005 -0.2935 -0.6450
  177MOL0     H23315  11.115  -0.355   0.887 -0.0697  5.7919 -1.2442
  177MOL0     H23316  11.261  -0.435   0.830  2.6504  2.6112 -1.3030
  177MOL0     H23317  11.477  -0.273   0.847 -1.1516  0.0078  0.5955
  177MOL0     H23318  11.478   0.106   0.747  0.2816 -0.3756  0.3547
  177MOL0     H23319  11.543  -0.019   0.635  2.7292  1.3844 -0.0016
  177MOL0     H23320  11.658  -0.124   0.830 -0.6224 -0.4136 -1.8755
  177MOL0     H23321  11.617   0.015   0.923 -2.0303 -2.0908 -0.3439
  177MOL0     H23322  11.853   0.011   0.763 -0.2278 -0.8462  2.5071
  177MOL0     H23323  11.737   0.045   0.640  2.7813 -1.4257 -0.3864
  177MOL0     H23324  11.761   0.204   0.894 -1.1758 -2.4590  0.2981
  177MOL0     H23325  11.672   0.255   0.746 -0.7928 -2.1819  0.5917
  177MOL0     H23326  12.057   0.388   0.589  0.1953 -0.7372 -1.1731
  177MOL0     H23327  12.126   0.612   0.626  1.0437  0.0321  2.4016
  177MOL0     H23328  12.111   0.981   0.442 -0.1081 -0.3073 -0.6162
  177MOL0     H23329  12.132   1.222   0.417  1.8205  0.5136 -0.2129
  177MOL0     H23330  11.928   1.421   0.562  0.5790  2.5211  2.1953
  177MOL0     H23331  12.036   1.433   0.414 -2.5865  2.9687 -1.0872
  177MOL0     H23332  12.140   1.636   0.503  2.1601 -0.8850  2.7518
  177MOL0     H23333  12.008   1.642   0.628 -4.4788  0.5797 -0.5175
  177MOL0     H23334  11.834   1.652   0.443 -0.8595  2.7289  1.3379
  177MOL0     H23335  11.962   1.628   0.333  1.9441 -2.6973  0.9488
  177MOL0     H23336  12.054   1.849   0.424  0.5850 -2.6389  3.2411
  177MOL0     H23337  11.904   1.851   0.321  1.8429 -1.2206 -1.4234
  177MOL0     H23338  11.944   1.861   0.633 -2.2902 -1.9121  1.7324
  177MOL0     H23339  11.790   1.824   0.556 -0.2769  1.1023  1.9122
  177MOL0     H23340  11.814   2.044   0.645 -1.1092 -0.5898  0.4518
  177MOL0     H23341  11.776   2.054   0.472  1.6529 -0.6559 -1.6232
  177MOL0     H23342  12.044   2.091   0.605  1.2727 -0.7978 -0.9236
  177MOL0     H23343  12.024   2.080   0.433  1.3596  5.4767  0.1525
  177MOL0     H23344  11.898   2.305   0.608  0.0314 -0.7428  0.7947
  177MOL0     H23345  11.848   2.284   0.454 -1.4327  2.7035  2.2179
  177MOL0     H23346  12.103   1.292   0.820 -0.0073  1.4381 -0.9649
  177MOL0     H23347  12.113   1.042   0.870  1.6265 -1.4840 -1.7707
  177MOL0     H23348  11.790   0.674   0.879 -0.3582 -0.1005 -0.8527
  177MOL0     H23349  11.738   0.453   0.882  1.2055  3.2993  2.1261
  177MOL0     H23350  10.986   0.386   1.661 -0.4248  1.7962 -0.3558
  177MOL0     H23351  10.965   0.610   1.642  0.7891 -0.5679 -0.1374
  177MOL0     H23352  10.987   1.080   1.399  0.8521 -2.5212 -2.2737
  177MOL0     H23353  11.076   1.314   1.456 -2.0093 -1.7302  1.2949
  177MOL0     H23354  11.416   1.433   1.582  1.8157  1.3724  0.8120
  177MOL0     H23355  11.254   1.519   1.541 -1.3588  2.8171 -4.6211
  177MOL0     H23356  11.494   1.632   1.505 -0.9238  0.0618  1.7919
  177MOL0     H23357  11.493   1.556   1.349  2.8875  1.1594  0.4343
  177MOL0     H23358  11.265   1.601   1.300  0.3393 -4.5737  5.0264
  177MOL0     H23359  11.396   1.712   1.261  0.9977 -0.2159  0.1903
  177MOL0     H23360  11.181   1.736   1.474  0.1641 -0.1577 -0.2677
  177MOL0     H23361  11.329   1.817   1.494 -2.0150  3.2522  0.4536
  177MOL0     H23362  11.114   2.012   1.180 -0.7808  1.3889  1.5767
  177MOL0     H23363  11.472   1.167   1.472 -0.5349  0.4144  0.7256
  177MOL0     H23364  11.391   0.927   1.444  0.3757 -0.4011 -0.6379
  178MOL0     O23365   8.568   8.556   7.992  0.3127 -0.5099 -0.1204
  178MOL0     C23366   8.463   8.604   7.950 -0.8545  0.8088  0.2498
  178MOL0     O23367   8.350   8.539   7.927  0.0334  0.3400  0.2240
  178MOL0     C23368   8.348   8.405   7.944  0.1005  0.1474 -0.7512
  178MOL0     C23369   8.334   8.348   8.073 -0.5846  0.5639 -0.3839
  178MOL0     C23370   8.314   8.215   8.098  0.2622  0.5144  0.3339
  178MOL0     C23371   8.312   8.120   7.989  0.0906 -0.5446  0.1683
  178MOL0     O23372   8.315   7.986   8.023  0.4447  0.1309  0.0532
  178MOL0     C23373   8.190   7.940   8.070 -0.2554  1.3358 -1.2439
  178MOL0     C23374   8.172   7.788   8.079 -0.3268  0.1957 -0.6329
  178MOL0     C23375   8.283   7.700   8.138  0.3567 -0.0546 -0.6544
  178MOL0     C23376   8.251   7.551   8.142 -0.1412 -0.5865 -0.2789
  178MOL0     C23377   8.375   7.460   8.164  0.9161 -0.1866  0.2062
  178MOL0     C23378   8.333   7.312   8.205 -0.0771 -0.0308 -0.6076
  178MOL0     C23379   8.260   7.287   8.341  0.4358  0.3841 -0.4514
  178MOL0     C23380   8.244   7.133   8.381  0.7847  0.3016 -0.4695
  178MOL0     N23381   8.151   7.062   8.295  0.0876  0.3100  0.5710
  178MOL0     C23382   8.200   6.983   8.191  0.6126  0.5267 -0.0393
  178MOL0     C23383   8.089   6.935   8.137 -0.5471  0.2076  0.4193
  178MOL0     C23384   8.084   6.833   8.019  0.1796 -0.8465 -0.0145
  178MOL0     C23385   8.095   6.696   8.099 -0.1155  0.0578  0.2048
  178MOL0     C23386   8.125   6.585   8.003 -0.0114  1.0405 -0.0845
  178MOL0     C23387   8.279   6.556   7.980 -0.3747  1.0446 -0.1426
  178MOL0     O23388   8.276   6.438   7.895 -0.1629  0.2914 -1.1570
  178MOL0     C23389   8.347   6.324   7.929  0.0259  0.2491  0.1790
  178MOL0     C23390   8.295   6.208   7.871  0.1180  0.5450  0.6574
  178MOL0     C23391   8.348   6.081   7.898 -1.2546  0.2597 -0.0087
  178MOL0     C23392   8.472   6.066   7.962  0.7238 -0.0526 -0.6498
  178MOL0     C23393   8.515   5.929   7.991  0.8485  0.3406 -0.3034
  178MOL0     O23394   8.629   5.933   8.079  0.0193  0.1963  0.8910
  178MOL0     C23395   8.698   5.813   8.086 -1.1380 -0.6699 -0.2300
  178MOL0     C23396   8.710   5.759   8.216 -0.2790  0.0872 -0.1137
  178MOL0     C23397   8.776   5.639   8.246  1.5892  0.5901  0.9292
  178MOL0     C23398   8.838   5.578   8.138 -0.2917 -0.6412  0.4725
  178MOL0     O23399   8.912   5.461   8.159  0.5387  0.1104  0.4479
  178MOL0     C23400   8.961   5.445   8.292 -0.7275  0.2723 -0.3602
  178MOL0     C23401   9.075   5.344   8.283  0.3105 -0.3295  0.0009
  178MOL0     C23402   9.157   5.325   8.422  0.1134  1.1653  0.7415
  178MOL0     C23403   9.091   5.229   8.513 -1.0921  0.5745 -0.7489
  178MOL0     C23404   9.123   5.241   8.666 -0.6061 -0.0312  0.2181
  178MOL0     C23405   9.056   5.371   8.718  0.6530  0.3840 -1.3775
  178MOL0     C23406   9.033   5.363   8.873  0.3231  0.6925 -0.1650
  178MOL0     C23407   9.004   5.502   8.935 -0.8214  0.5150  0.5929
  178MOL0    Cl23408   9.026   5.511   9.104 -0.2211 -0.0864 -0.4879
  178MOL0     C23409   8.827   5.641   8.016 -0.1641 -0.1822 -0.7179
  178MOL0     C23410   8.765   5.762   7.982 -0.1555  0.0519  0.4656
  178MOL0     O23411   8.459   5.829   7.946 -0.0261  1.4448  0.4024
  178MOL0     C23412   8.535   6.189   8.009  0.9426 -0.1783  1.9720
  178MOL0     C23413   8.466   6.313   7.998 -0.4869 -0.3725  0.1660
  178MOL0     N23414   7.980   7.000   8.188 -0.0820 -0.2798 -0.3701
  178MOL0     N23415   8.015   7.066   8.286  0.1136  0.4016 -0.0683
  178MOL0     C23416   8.350   8.176   7.864  0.1698 -0.3345 -0.6622
  178MOL0     C23417   8.359   8.319   7.840 -1.1947  0.2358  0.4412
  178MOL0     C23418   8.471   8.751   7.923  0.5120  0.4064  0.0361
  178MOL0     C23419   8.568   8.819   7.991 -1.1560  0.0449  0.5565
  178MOL0     C23420   8.569   8.962   7.993  0.3175  0.8155 -0.1284
  178MOL0     C23421   8.468   9.040   7.944 -0.3452  0.0175 -0.0657
  178MOL0     O23422   8.476   9.177   7.963  0.4287 -0.6817  0.3528
  178MOL0     C23423   8.362   9.261   7.921  0.1433  0.1414 -0.1641
  178MOL0     C23424   8.302   9.333   8.046 -0.3124  0.0784  0.5028
  178MOL0     C23425   8.213   9.239   8.134 -0.9072 -0.0751  0.0115
  178MOL0     C23426   8.106   9.318   8.206  0.1394 -0.8821  0.1984
  178MOL0     C23427   8.018   9.229   8.269  0.4979  0.3180  0.3291
  178MOL0     C23428   7.945   9.160   8.336 -0.1938 -0.3812 -1.1325
  178MOL0     C23429   8.372   8.966   7.868  0.2216 -0.4179 -0.2263
  178MOL0     C23430   8.378   8.829   7.850  0.3460  0.6147  0.0821
  178MOL0     H23431   8.345   8.416   8.158  0.5513 -2.4371  2.0510
  178MOL0     H23432   8.315   8.175   8.199  2.8259  2.2899  1.1330
  178MOL0     H23433   8.118   7.980   7.998  2.1545  2.1647 -3.3440
  178MOL0     H23434   8.178   7.976   8.173  0.8804 -0.8139 -0.2963
  178MOL0     H23435   8.173   7.758   7.974  0.0689 -0.3040 -0.4923
  178MOL0     H23436   8.076   7.767   8.126 -1.1522  0.8654 -1.9882
  178MOL0     H23437   8.297   7.747   8.235  2.8603 -1.1556 -0.3989
  178MOL0     H23438   8.384   7.703   8.095  0.7850 -3.2835 -0.1013
  178MOL0     H23439   8.170   7.529   8.212 -1.4417  0.6654 -1.3210
  178MOL0     H23440   8.216   7.523   8.042 -2.7975 -1.5996  0.8421
  178MOL0     H23441   8.448   7.491   8.240  1.8415  0.0660 -0.7568
  178MOL0     H23442   8.422   7.470   8.066 -0.8711 -0.9530 -0.7759
  178MOL0     H23443   8.420   7.246   8.205 -1.6447 -2.2126 -1.2394
  178MOL0     H23444   8.268   7.282   8.122  0.4037 -1.5619 -0.4693
  178MOL0     H23445   8.313   7.351   8.412 -0.9191  0.6733  0.3333
  178MOL0     H23446   8.156   7.321   8.345  0.9159  1.7780  1.4965
  178MOL0     H23447   8.194   7.129   8.479  0.5638  1.5386 -0.5146
  178MOL0     H23448   8.344   7.088   8.380  2.2078  2.2803  5.7305
  178MOL0     H23449   8.303   6.961   8.164  0.5117 -0.4172  0.3163
  178MOL0     H23450   8.169   6.850   7.952 -0.0600  0.3719 -0.0284
  178MOL0     H23451   7.991   6.847   7.964 -0.3410 -2.2040  0.4829
  178MOL0     H23452   8.003   6.685   8.156  0.3970  1.1285  1.2702
  178MOL0     H23453   8.176   6.695   8.172  0.8136  0.4261 -0.7849
  178MOL0     H23454   8.083   6.491   8.039  2.6600 -0.8051 -1.4227
  178MOL0     H23455   8.083   6.604   7.904  0.8583  2.5869 -0.1910
  178MOL0     H23456   8.332   6.523   8.070 -2.7526  0.3164  1.1023
  178MOL0     H23457   8.339   6.628   7.924  2.6494 -3.6812 -3.7412
  178MOL0     H23458   8.205   6.214   7.810 -0.4010  1.4197  1.4811
  178MOL0     H23459   8.297   5.992   7.861  1.1745 -2.3309  2.3287
  178MOL0     H23460   8.666   5.816   8.297 -1.5054  0.9478 -1.3341
  178MOL0     H23461   8.785   5.598   8.346  0.9583  0.9007  1.1151
  178MOL0     H23462   8.886   5.402   8.359  0.1381  1.4306  1.4251
  178MOL0     H23463   8.998   5.537   8.337 -2.8270  1.2857 -0.6001
  178MOL0     H23464   9.142   5.381   8.205  0.2843  0.5968  0.4094
  178MOL0     H23465   9.038   5.249   8.244  0.6561 -0.9835  1.2009
  178MOL0     H23466   9.169   5.424   8.467 -2.1125  1.3574  1.0516
  178MOL0     H23467   9.257   5.287   8.403  0.6553  1.5640  2.6360
  178MOL0     H23468   8.984   5.249   8.503 -2.0812 -2.0542  2.5599
  178MOL0     H23469   9.106   5.127   8.477  2.1577  0.5526  0.3461
  178MOL0     H23470   9.231   5.244   8.680 -0.3949  0.0462 -1.2720
  178MOL0     H23471   9.097   5.150   8.722 -0.6675 -0.7390 -0.9349
  178MOL0     H23472   8.960   5.390   8.671 -0.3656 -2.5542 -0.6798
  178MOL0     H23473   9.122   5.456   8.695  0.1750  1.1879  0.0973
  178MOL0     H23474   8.951   5.299   8.907 -1.0920  3.3199  1.7484
  178MOL0     H23475   9.126   5.327   8.916 -0.0104 -0.1793 -0.1481
  178MOL0     H23476   8.905   5.527   8.895  1.0931  3.4337 -2.9390
  178MOL0     H23477   9.072   5.572   8.885 -0.3493 -0.8645 -0.7478
  178MOL0     H23478   8.893   5.588   7.948  0.4191 -1.9982  1.1595
  178MOL0     H23479   8.789   5.814   7.890 -1.9223 -2.2693 -1.4497
  178MOL0     H23480   8.615   6.188   8.082  1.6795  2.3120  1.2804
  178MOL0     H23481   8.499   6.389   8.068 -0.0571 -0.0850 -0.3444
  178MOL0     H23482   8.372   8.109   7.781 -3.1854 -2.1035 -0.2786
  178MOL0     H23483   8.374   8.360   7.740  0.3228 -1.6338 -0.1731
  178MOL0     H23484   8.640   8.766   8.053 -1.4737  1.9719  2.6930
  178MOL0     H23485   8.659   9.003   8.039  0.8299 -2.1815  1.8285
  178MOL0     H23486   8.277   9.218   7.867  0.4701  0.3953 -0.8963
  178MOL0     H23487   8.400   9.338   7.853 -2.4433 -0.3660 -2.3641
  178MOL0     H23488   8.380   9.384   8.105 -0.5270 -0.1489  0.9954
  178MOL0     H23489   8.258   9.417   7.993 -0.5613 -1.6892 -2.2982
  178MOL0     H23490   8.275   9.180   8.202  1.0641  0.2284 -1.4307
  178MOL0     H23491   8.165   9.160   8.077  0.2712  1.2525 -3.0207
  178MOL0     H23492   8.143   9.381   8.288 -1.2744  0.6013 -0.2428
  178MOL0     H23493   8.059   9.392   8.141  0.9892 -0.9199 -0.4660
  178MOL0     H23494   7.875   9.097   8.387 -0.4025  0.0989 -0.8198
  178MOL0     H23495   8.293   9.013   7.810 -2.8795 -2.0943  2.3225
  178MOL0     H23496   8.289   8.776   7.818  1.5752 -2.0327  0.8113
  179MOL0     O23497   2.475   4.524   2.256 -0.0141  0.2106 -0.7313
  179MOL0     C23498   2.437   4.472   2.360 -0.0982  0.5696 -0.4623
  179MOL0     O23499   2.515   4.388   2.437  0.5741 -0.5139 -0.6079
  179MOL0     C23500   2.624   4.327   2.381 -0.7991 -0.0238  0.1114
  179MOL0     C23501   2.742   4.326   2.458  1.1138 -0.3102 -0.1424
  179MOL0     C23502   2.861   4.287   2.399  0.3770 -0.6214  0.1156
  179MOL0     C23503   2.877   4.250   2.262 -0.7695 -0.0432 -0.8179
  179MOL0     O23504   2.990   4.213   2.193 -0.5958  0.8136  0.0844
  179MOL0     C23505   3.119   4.201   2.275  0.2636 -0.3061  0.6162
  179MOL0     C23506   3.238   4.126   2.204  0.3556 -0.2596  0.2239
  179MOL0     C23507   3.378   4.172   2.260 -0.3577  0.4282  1.4367
  179MOL0     C23508   3.487   4.144   2.152  0.1311 -0.1712  0.2294
  179MOL0     C23509   3.627   4.182   2.182  0.5937 -0.6202  0.1261
  179MOL0     C23510   3.694   4.090   2.290 -0.6061  0.3846 -0.3264
  179MOL0     C23511   3.792   3.983   2.249 -0.5235  0.3552  0.3386
  179MOL0     C23512   3.913   4.061   2.184  0.2193 -0.2893  0.3785
  179MOL0     N23513   4.040   3.992   2.212 -0.1413  0.4589 -0.5629
  179MOL0     C23514   4.109   3.990   2.334  0.2952 -0.6948  0.8963
  179MOL0     C23515   4.227   3.921   2.317  0.3131 -1.2360  0.9654
  179MOL0     C23516   4.338   3.890   2.412  0.2015 -1.0272  0.0229
  179MOL0     C23517   4.478   3.960   2.363 -0.3813 -0.5391  0.7873
  179MOL0     C23518   4.582   3.941   2.474 -0.7478 -0.4165 -0.0611
  179MOL0     C23519   4.656   3.807   2.476  0.2477  0.4448  0.3710
  179MOL0     O23520   4.781   3.835   2.539 -0.2199  0.4753 -0.1306
  179MOL0     C23521   4.861   3.737   2.576  0.4805 -0.8592 -0.5381
  179MOL0     C23522   4.986   3.767   2.626 -0.1739  0.3392 -0.9596
  179MOL0     C23523   5.082   3.670   2.663  0.9613  1.1989 -0.8498
  179MOL0     C23524   5.046   3.528   2.644 -0.4894 -0.2202  0.1017
  179MOL0     C23525   5.141   3.425   2.673  0.0164 -0.2523 -1.1369
  179MOL0     O23526   5.270   3.469   2.704  0.1976  0.0215  0.2783
  179MOL0     C23527   5.376   3.382   2.728  0.7666 -0.4392  0.2056
  179MOL0     C23528   5.499   3.441   2.755 -0.0302 -0.5266 -0.5026
  179MOL0     C23529   5.616   3.365   2.772 -0.6133 -0.7380  0.1409
  179MOL0     C23530   5.607   3.228   2.761  0.7432  0.1475 -0.8178
  179MOL0     O23531   5.716   3.146   2.782  0.4001 -0.5792  0.1488
  179MOL0     C23532   5.839   3.154   2.705  0.3602  0.0850 -0.2654
  179MOL0     C23533   5.892   3.011   2.724 -0.0002 -1.0797 -0.5758
  179MOL0     C23534   6.037   2.996   2.669 -0.1306 -0.4009  0.2105
  179MOL0     C23535   6.100   2.851   2.691  0.4415 -0.5618 -0.0504
  179MOL0     C23536   6.242   2.822   2.635  1.4641 -0.0191 -0.1565
  179MOL0     C23537   6.292   2.687   2.696  1.0700  0.4089 -0.3838
  179MOL0     C23538   6.411   2.619   2.635  0.1802  0.5670 -0.0396
  179MOL0     C23539   6.446   2.485   2.691  0.1576 -0.5462 -0.1018
  179MOL0    Cl23540   6.557   2.412   2.580  0.4629 -0.0287 -0.0631
  179MOL0     C23541   5.484   3.165   2.742  0.0020 -0.4332  1.1225
  179MOL0     C23542   5.365   3.239   2.716  0.4834 -0.2540 -0.3664
  179MOL0     O23543   5.106   3.302   2.671  0.2716  0.4274 -0.1124
  179MOL0     C23544   4.915   3.503   2.607  0.4778  0.1645  0.6205
  179MOL0     C23545   4.826   3.601   2.565 -0.9237 -0.3198 -0.6338
  179MOL0     N23546   4.222   3.895   2.184  0.5846 -0.1911  1.1894
  179MOL0     N23547   4.116   3.919   2.117 -0.3789 -0.3023  0.2891
  179MOL0     C23548   2.759   4.243   2.191  0.4680 -0.9546  0.6819
  179MOL0     C23549   2.634   4.285   2.240 -0.2853 -0.6450 -0.5485
  179MOL0     C23550   2.302   4.494   2.418  0.3114 -1.1020 -0.0039
  179MOL0     C23551   2.220   4.598   2.368  0.9759 -0.8798  0.1342
  179MOL0     C23552   2.098   4.624   2.435  0.7795 -0.4136 -0.1923
  179MOL0     C23553   2.058   4.540   2.543 -0.4314  0.4902  0.0447
  179MOL0     O23554   1.941   4.560   2.606  0.9393 -1.0243 -0.1581
  179MOL0     C23555   1.816   4.547   2.518 -0.4518 -1.5284  0.2897
  179MOL0     C23556   1.692   4.579   2.598 -0.5517  0.0390 -0.4813
  179MOL0     C23557   1.704   4.713   2.669 -0.3302  0.5199  0.8848
  179MOL0     C23558   1.570   4.749   2.730 -0.3064 -0.1478 -0.5582
  179MOL0     C23559   1.465   4.777   2.628 -0.0951  0.0852  0.5397
  179MOL0     C23560   1.373   4.799   2.546  0.1811  0.1762  0.4464
  179MOL0     C23561   2.143   4.445   2.593 -0.7212 -0.4418 -0.0953
  179MOL0     C23562   2.269   4.426   2.533 -0.0594  0.1585 -0.0674
  179MOL0     H23563   2.744   4.347   2.564 -0.8203  0.6965 -0.2547
  179MOL0     H23564   2.940   4.286   2.473 -0.6953  0.5713  1.3259
  179MOL0     H23565   3.096   4.148   2.367 -0.1243 -0.3908  0.4740
  179MOL0     H23566   3.156   4.300   2.305  1.4523 -0.9600  1.3442
  179MOL0     H23567   3.228   4.155   2.099  0.2265  2.7039  0.9516
  179MOL0     H23568   3.237   4.017   2.206 -1.6250 -0.4405 -3.0830
  179MOL0     H23569   3.395   4.125   2.357 -2.6412 -1.0383  1.2090
  179MOL0     H23570   3.377   4.282   2.260  0.8148  0.5250 -1.4728
  179MOL0     H23571   3.489   4.046   2.103  2.2013  0.5589 -1.2686
  179MOL0     H23572   3.464   4.215   2.073  1.2311 -0.1424 -0.0742
  179MOL0     H23573   3.617   4.283   2.225 -1.3749 -1.0973  0.9079
  179MOL0     H23574   3.693   4.179   2.095 -1.3736 -0.7673 -1.4224
  179MOL0     H23575   3.617   4.034   2.345 -1.7075  1.0951 -1.0859
  179MOL0     H23576   3.732   4.147   2.375 -0.6203 -0.8794  0.5446
  179MOL0     H23577   3.818   3.933   2.342 -1.3491  0.9538  0.9043
  179MOL0     H23578   3.745   3.916   2.176  1.8595  0.0062 -0.9756
  179MOL0     H23579   3.929   4.165   2.215 -0.2812 -0.3662  0.9136
  179MOL0     H23580   3.886   4.081   2.080 -2.3353  2.1332  1.3570
  179MOL0     H23581   4.077   4.036   2.426 -1.2751 -1.8168  0.9474
  179MOL0     H23582   4.335   3.781   2.422 -1.3147 -1.1256 -1.1981
  179MOL0     H23583   4.311   3.931   2.509  2.0844  0.3918  0.0097
  179MOL0     H23584   4.454   4.067   2.353 -2.8880 -0.9252  1.8187
  179MOL0     H23585   4.513   3.917   2.269  0.9562  2.4439 -0.2220
  179MOL0     H23586   4.657   4.017   2.453 -1.4077 -0.5872 -3.7300
  179MOL0     H23587   4.546   3.955   2.576  2.9308  0.6817  1.2205
  179MOL0     H23588   4.660   3.769   2.374  1.6561  1.9277 -0.1626
  179MOL0     H23589   4.586   3.742   2.530  0.3109 -0.2286 -0.3443
  179MOL0     H23590   5.010   3.871   2.642 -2.8416  1.0592 -1.1085
  179MOL0     H23591   5.175   3.705   2.707  0.0135  2.4884  0.2018
  179MOL0     H23592   5.505   3.549   2.760 -1.0738 -0.5334  2.2588
  179MOL0     H23593   5.713   3.413   2.783 -0.5567 -0.5003 -1.1555
  179MOL0     H23594   5.908   3.233   2.737  1.1841 -0.8420  0.3139
  179MOL0     H23595   5.820   3.176   2.600 -0.9417 -2.7235 -0.7125
  179MOL0     H23596   5.828   2.938   2.673  0.6731 -3.8115  2.1700
  179MOL0     H23597   5.891   2.980   2.829  0.2407  4.4185  1.3584
  179MOL0     H23598   6.101   3.070   2.718 -0.2350 -0.9182  1.1625
  179MOL0     H23599   6.033   3.019   2.563 -0.7209 -0.5258  0.2013
  179MOL0     H23600   6.094   2.835   2.799 -1.6230 -1.5560 -0.2608
  179MOL0     H23601   6.030   2.776   2.653  3.1997 -3.3963 -0.0209
  179MOL0     H23602   6.319   2.897   2.657  0.9088  0.6222 -0.3742
  179MOL0     H23603   6.231   2.822   2.527  1.3959  0.3075 -0.1506
  179MOL0     H23604   6.204   2.622   2.688  0.2904  1.6114 -2.1955
  179MOL0     H23605   6.325   2.700   2.799  0.7274  1.3365 -0.3775
  179MOL0     H23606   6.392   2.596   2.529  0.3765 -2.0417  0.4260
  179MOL0     H23607   6.496   2.688   2.634  2.6509 -2.2098  1.2681
  179MOL0     H23608   6.362   2.416   2.708 -1.9743  2.3013  1.7265
  179MOL0     H23609   6.491   2.496   2.790  0.3441 -3.2229  0.2077
  179MOL0     H23610   5.491   3.056   2.739 -0.5555 -0.5285  2.3633
  179MOL0     H23611   5.286   3.175   2.677 -1.0011  1.3041 -0.0697
  179MOL0     H23612   4.873   3.404   2.594 -0.9866  1.0975 -3.1114
  179MOL0     H23613   4.728   3.573   2.527 -2.1863 -0.8238  2.6721
  179MOL0     H23614   2.760   4.211   2.087 -1.1937  0.2787  0.2575
  179MOL0     H23615   2.547   4.289   2.175  0.5984 -0.0802 -1.7373
  179MOL0     H23616   2.267   4.656   2.289  3.3493 -0.9824  1.3950
  179MOL0     H23617   2.026   4.700   2.405 -1.4444 -1.7492  1.4988
  179MOL0     H23618   1.811   4.451   2.466  3.1564 -1.6219 -0.0839
  179MOL0     H23619   1.826   4.629   2.446  1.0763  0.2342  2.3567
  179MOL0     H23620   1.607   4.588   2.530  0.8778 -1.0097 -2.5189
  179MOL0     H23621   1.690   4.511   2.684  3.1551  1.0656  0.5989
  179MOL0     H23622   1.740   4.798   2.610  0.7473 -0.4977  0.0230
  179MOL0     H23623   1.775   4.710   2.753  0.1063  2.3607  0.6323
  179MOL0     H23624   1.517   4.674   2.789  0.1594 -0.2034 -0.1993
  179MOL0     H23625   1.590   4.833   2.797  2.6217 -2.0263  1.1634
  179MOL0     H23626   1.291   4.831   2.485 -0.4165  2.7793  2.4532
  179MOL0     H23627   2.117   4.372   2.668  0.1033 -1.3152 -0.6288
  179MOL0     H23628   2.338   4.351   2.571 -1.0559 -0.9421 -0.3505
  180MOL0     O23629   1.359   3.000   5.178  0.2661 -1.3913 -0.0297
  180MOL0     C23630   1.395   3.112   5.217 -0.6463 -0.0769 -1.0066
  180MOL0     O23631   1.323   3.208   5.286 -0.5167 -0.2204 -0.6998
  180MOL0     C23632   1.186   3.208   5.295  0.9885  0.7704  0.2388
  180MOL0     C23633   1.131   3.338   5.259 -0.1330 -0.3839  0.8670
  180MOL0     C23634   0.991   3.352   5.265  0.8498  0.1394  0.1689
  180MOL0     C23635   0.905   3.240   5.289  0.0056 -0.0300  0.8135
  180MOL0     O23636   0.773   3.264   5.284 -0.2497 -0.1812 -0.7107
  180MOL0     C23637   0.688   3.216   5.380 -0.6322  0.3846  0.0096
  180MOL0     C23638   0.533   3.254   5.358 -0.6935 -0.0589 -0.2637
  180MOL0     C23639   0.494   3.394   5.416  0.0930  0.9273  0.0410
  180MOL0     C23640   0.350   3.421   5.366  0.6643 -0.0450 -0.1072
  180MOL0     C23641   0.300   3.552   5.430  0.1764  0.7643  0.3897
  180MOL0     C23642   0.148   3.573   5.409 -0.4920 -0.7828 -0.0013
  180MOL0     C23643   0.069   3.510   5.508 -0.8554  1.3662 -0.0638
  180MOL0     C23644   0.064   3.588   5.638 -0.6205 -0.2443  1.1804
  180MOL0     N23645   0.163   3.544   5.731 -1.0879 -0.4596  0.6553
  180MOL0     C23646   0.161   3.424   5.806 -0.2765  0.6220  0.9886
  180MOL0     C23647   0.264   3.434   5.883 -0.5964  0.4967 -1.0023
  180MOL0     C23648   0.316   3.314   5.945 -0.0445  1.0333  0.0338
  180MOL0     C23649   0.458   3.356   6.006 -0.3126 -0.0929 -0.1161
  180MOL0     C23650   0.518   3.235   6.077  0.3387  0.0929  0.6518
  180MOL0     C23651   0.658   3.233   6.122 -0.5885 -0.1966  0.4152
  180MOL0     O23652   0.670   3.341   6.221  0.1564 -0.2669  0.1289
  180MOL0     C23653   0.794   3.395   6.265  1.6315  0.4456  0.0279
  180MOL0     C23654   0.773   3.521   6.327 -0.4048 -0.7154  0.2422
  180MOL0     C23655   0.883   3.580   6.397 -0.4729  0.2214  0.1350
  180MOL0     C23656   1.011   3.509   6.397 -1.2200 -0.4982  0.1597
  180MOL0     C23657   1.130   3.574   6.455 -0.2704 -0.2191  0.1620
  180MOL0     O23658   1.253   3.525   6.423  0.0072  0.4691 -0.4952
  180MOL0     C23659   1.349   3.547   6.517  0.0921 -0.5185  0.2111
  180MOL0     C23660   1.437   3.661   6.512  0.2953 -0.0205 -0.2618
  180MOL0     C23661   1.534   3.690   6.614 -0.1045  0.1196 -0.0500
  180MOL0     C23662   1.551   3.606   6.722  0.9189  0.2644 -0.0120
  180MOL0     O23663   1.643   3.635   6.824 -0.9720  0.2732  0.4060
  180MOL0     C23664   1.716   3.532   6.893  0.4893 -0.4635 -0.2154
  180MOL0     C23665   1.785   3.444   6.792  0.3167  0.3309  0.3524
  180MOL0     C23666   1.905   3.520   6.728 -0.2721  0.4054 -0.2712
  180MOL0     C23667   1.972   3.428   6.632 -1.1331 -0.1663 -0.1532
  180MOL0     C23668   1.901   3.460   6.496  0.5892  0.1811  0.0910
  180MOL0     C23669   1.956   3.362   6.389  0.3014 -0.2599  0.3400
  180MOL0     C23670   1.878   3.226   6.385 -0.0474  0.5999 -0.2951
  180MOL0     C23671   1.939   3.140   6.270  0.6270  0.6224 -0.4670
  180MOL0    Cl23672   1.835   3.002   6.232 -0.3281 -0.0211  0.1637
  180MOL0     C23673   1.456   3.493   6.736 -0.1864  0.8360  0.1370
  180MOL0     C23674   1.373   3.465   6.623  0.0655 -1.1549 -0.1305
  180MOL0     O23675   1.104   3.662   6.536 -0.2113  0.4025 -0.2909
  180MOL0     C23676   1.017   3.385   6.319 -0.9825 -0.3038  0.6880
  180MOL0     C23677   0.912   3.331   6.259  0.3367  0.2002 -0.2856
  180MOL0     N23678   0.326   3.553   5.864 -0.4979  0.9255  0.6326
  180MOL0     N23679   0.257   3.625   5.786 -1.2359  0.4165  0.4775
  180MOL0     C23680   0.961   3.113   5.304  1.0676 -0.2531 -0.2083
  180MOL0     C23681   1.099   3.097   5.303 -0.3812 -0.3760 -0.2119
  180MOL0     C23682   1.547   3.141   5.203  0.0709 -0.8584  0.9505
  180MOL0     C23683   1.639   3.052   5.132 -0.2846  0.0665 -0.5271
  180MOL0     C23684   1.776   3.071   5.129 -0.0305 -0.3416  0.6524
  180MOL0     C23685   1.819   3.189   5.184 -0.3341  0.4881  0.2827
  180MOL0     O23686   1.952   3.218   5.193 -0.0570 -0.8750  0.3594
  180MOL0     C23687   2.050   3.124   5.150  0.3883  0.0514 -0.5609
  180MOL0     C23688   2.188   3.187   5.204 -0.7316  0.5328  0.5353
  180MOL0     C23689   2.311   3.113   5.153 -0.7883  0.0009  0.3378
  180MOL0     C23690   2.334   2.963   5.198 -0.6106  0.1142 -0.9982
  180MOL0     C23691   2.386   2.953   5.326 -0.8702 -0.2959 -0.0209
  180MOL0     C23692   2.411   2.974   5.445 -0.6551  0.0451  0.4333
  180MOL0     C23693   1.743   3.283   5.246  0.5019 -0.2755 -0.1631
  180MOL0     C23694   1.603   3.265   5.250 -0.0217  0.2969  0.1860
  180MOL0     H23695   1.193   3.422   5.233 -2.1520  0.9511  0.1267
  180MOL0     H23696   0.936   3.445   5.250 -0.8463 -0.3622  2.6709
  180MOL0     H23697   0.706   3.264   5.476  2.0100 -0.4286  0.0195
  180MOL0     H23698   0.691   3.106   5.376 -2.4367  0.3424 -1.1871
  180MOL0     H23699   0.479   3.175   5.411 -0.1553 -1.8185 -2.1946
  180MOL0     H23700   0.505   3.247   5.252 -3.3346 -2.2619  0.4444
  180MOL0     H23701   0.560   3.476   5.388  0.8133  2.3228  4.9041
  180MOL0     H23702   0.506   3.391   5.525  0.3384  2.9965  0.0953
  180MOL0     H23703   0.348   3.430   5.257 -3.3930  4.6696  0.0098
  180MOL0     H23704   0.284   3.343   5.406 -1.8156  1.4018 -1.1274
  180MOL0     H23705   0.369   3.626   5.388  5.0292 -1.8634  2.8712
  180MOL0     H23706   0.325   3.557   5.536 -2.0917  2.2366  0.9497
  180MOL0     H23707   0.109   3.540   5.312 -0.9357 -1.2955  0.3535
  180MOL0     H23708   0.122   3.679   5.412 -3.8461 -1.5289  0.4758
  180MOL0     H23709  -0.034   3.502   5.473 -0.9863 -1.0646  0.6915
  180MOL0     H23710   0.106   3.407   5.518 -2.7720  0.6855  0.6326
  180MOL0     H23711  -0.032   3.571   5.687 -0.0080 -2.9271  1.5909
  180MOL0     H23712   0.073   3.694   5.610 -1.2254 -0.3657  0.4887
  180MOL0     H23713   0.086   3.348   5.788 -2.7109  3.3209 -1.5036
  180MOL0     H23714   0.325   3.227   5.880 -1.3541  0.4413  0.6083
  180MOL0     H23715   0.249   3.279   6.024  1.9840  0.2292  1.4950
  180MOL0     H23716   0.453   3.442   6.073  3.6771  0.0892  0.1681
  180MOL0     H23717   0.521   3.390   5.924 -1.0704  0.3288 -0.5418
  180MOL0     H23718   0.468   3.222   6.173  3.3364 -0.7623  2.2306
  180MOL0     H23719   0.500   3.148   6.014 -0.6799  1.5448 -1.1551
  180MOL0     H23720   0.738   3.243   6.048 -0.9076  1.8440  0.3081
  180MOL0     H23721   0.677   3.139   6.176 -2.2995 -0.2361  0.9914
  180MOL0     H23722   0.678   3.572   6.324  0.2385  0.4833 -1.3877
  180MOL0     H23723   0.862   3.679   6.435  1.5270  1.1363 -0.9691
  180MOL0     H23724   1.442   3.706   6.414  0.4080 -0.8235 -0.6400
  180MOL0     H23725   1.604   3.771   6.596 -0.9113  0.7314 -0.5170
  180MOL0     H23726   1.654   3.460   6.949 -0.7319 -0.8372 -1.9710
  180MOL0     H23727   1.779   3.581   6.968 -1.0676 -4.3125  4.1305
  180MOL0     H23728   1.710   3.411   6.720  0.9182  2.6436 -1.4508
  180MOL0     H23729   1.827   3.353   6.836 -2.7029  0.3840  3.8543
  180MOL0     H23730   1.984   3.550   6.797 -0.2879  2.1822 -0.9745
  180MOL0     H23731   1.858   3.609   6.685 -1.5751 -0.3762 -0.5339
  180MOL0     H23732   2.079   3.449   6.630 -1.1811  0.1115  0.1344
  180MOL0     H23733   1.964   3.322   6.659  2.3665 -1.1675 -2.3995
  180MOL0     H23734   1.928   3.562   6.469  0.0209  0.1987 -0.4146
  180MOL0     H23735   1.792   3.462   6.508  0.4475  1.8181 -1.1874
  180MOL0     H23736   2.058   3.328   6.405 -0.7560 -3.1504  1.6792
  180MOL0     H23737   1.937   3.400   6.288 -0.4537  1.3566  1.0504
  180MOL0     H23738   1.905   3.174   6.477  2.5231  0.5000 -1.0118
  180MOL0     H23739   1.769   3.221   6.385 -0.1023 -1.0582  3.0059
  180MOL0     H23740   2.037   3.099   6.296  0.1585 -1.8764 -2.2863
  180MOL0     H23741   1.950   3.189   6.172 -2.0572  1.6492 -0.3347
  180MOL0     H23742   1.465   3.437   6.828  1.2447  0.5814 -0.1280
  180MOL0     H23743   1.313   3.375   6.631  1.0030 -1.9558 -1.4904
  180MOL0     H23744   1.110   3.340   6.284 -0.6935  1.3435 -0.7550
  180MOL0     H23745   0.906   3.233   6.212 -1.2107  1.7144 -3.5521
  180MOL0     H23746   0.892   3.030   5.314  1.3953 -0.5602 -0.4452
  180MOL0     H23747   1.131   2.993   5.297 -3.9372 -1.6665  0.8307
  180MOL0     H23748   1.609   2.960   5.084 -0.6380 -0.1041  0.0147
  180MOL0     H23749   1.837   3.001   5.074 -1.0938 -1.2395  0.5695
  180MOL0     H23750   2.059   3.125   5.041  1.1467  1.9168 -0.5132
  180MOL0     H23751   2.040   3.025   5.196  1.3324  0.5913  0.8493
  180MOL0     H23752   2.203   3.294   5.184 -1.4872  0.8381  1.4949
  180MOL0     H23753   2.177   3.168   5.311 -0.3031 -2.2134  0.1615
  180MOL0     H23754   2.392   3.170   5.200 -3.1582  3.9697  0.1326
  180MOL0     H23755   2.316   3.107   5.044  0.6916 -1.6354  0.4660
  180MOL0     H23756   2.249   2.895   5.184  0.2443 -0.4922 -4.0206
  180MOL0     H23757   2.415   2.922   5.137  0.3628  1.2403 -0.5102
  180MOL0     H23758   2.445   2.994   5.544 -1.4088  0.6163  0.5892
  180MOL0     H23759   1.789   3.376   5.276  2.8626 -0.3274 -3.2274
  180MOL0     H23760   1.539   3.331   5.307 -1.1102  2.0738 -2.8682
  181MOL0     O23761   0.402   7.768   3.713  0.0990 -0.4008  0.0354
  181MOL0     C23762   0.330   7.864   3.742  0.0818  0.4398 -0.3321
  181MOL0     O23763   0.229   7.859   3.836  0.3986 -0.1490  0.0250
  181MOL0     C23764   0.200   7.746   3.917  0.4104 -1.0681 -0.1171
  181MOL0     C23765   0.296   7.672   3.986 -0.3495  0.1536 -0.0106
  181MOL0     C23766   0.264   7.565   4.065  0.2735 -0.4235  0.5286
  181MOL0     C23767   0.131   7.553   4.092  0.2720 -0.6348  0.5740
  181MOL0     O23768   0.092   7.462   4.191  0.5911  0.5849 -0.3367
  181MOL0     C23769   0.154   7.488   4.315  0.1582 -0.0892 -0.4992
  181MOL0     C23770   0.047   7.548   4.409 -0.1963 -0.3914  0.7973
  181MOL0     C23771  -0.060   7.452   4.455  0.7478  0.7102 -0.1485
  181MOL0     C23772   0.011   7.378   4.575  0.8503 -0.9509 -0.3904
  181MOL0     C23773  -0.091   7.283   4.640  0.4222 -0.4560 -0.1357
  181MOL0     C23774  -0.041   7.230   4.785 -0.4001  0.0728 -0.6371
  181MOL0     C23775   0.023   7.092   4.768  0.2681  0.1371  0.4559
  181MOL0     C23776   0.069   7.025   4.902 -0.0903  0.0532 -0.0654
  181MOL0     N23777   0.144   7.104   5.000 -0.0299  0.4024  0.6768
  181MOL0     C23778   0.255   7.175   4.977  1.0185  0.2863  0.9769
  181MOL0     C23779   0.310   7.193   5.098 -0.1151 -0.4871  0.0983
  181MOL0     C23780   0.432   7.286   5.124 -1.1108 -0.4063  0.0341
  181MOL0     C23781   0.387   7.426   5.166 -0.5307 -0.4824  0.9327
  181MOL0     C23782   0.289   7.447   5.280 -0.5368 -1.2471  0.1356
  181MOL0     C23783   0.264   7.602   5.306 -0.0894 -0.8885  0.0465
  181MOL0     O23784   0.378   7.678   5.335  0.2511 -0.1463  0.1050
  181MOL0     C23785   0.454   7.645   5.441  0.1421 -0.3834  1.0432
  181MOL0     C23786   0.594   7.647   5.422  0.6135  1.3090 -0.1980
  181MOL0     C23787   0.674   7.604   5.528 -0.4184 -0.3226  0.2249
  181MOL0     C23788   0.616   7.574   5.655 -0.1996 -0.4368 -0.1568
  181MOL0     C23789   0.703   7.541   5.768 -0.4289  0.5358 -0.7561
  181MOL0     O23790   0.648   7.517   5.898 -0.0220 -0.3705 -0.3036
  181MOL0     C23791   0.737   7.497   5.998  0.5043 -0.3642 -0.2147
  181MOL0     C23792   0.830   7.591   6.042  0.3905  0.7684 -0.1285
  181MOL0     C23793   0.916   7.570   6.148  0.0316  0.0021  0.6129
  181MOL0     C23794   0.918   7.445   6.204  0.1081 -1.1209 -0.0343
  181MOL0     O23795   0.996   7.414   6.305 -0.0784  1.3133 -0.0785
  181MOL0     C23796   1.078   7.522   6.364 -0.3712  0.6053  0.2568
  181MOL0     C23797   1.164   7.451   6.462  0.3097 -0.8233  0.6358
  181MOL0     C23798   1.099   7.380   6.581  1.1370 -0.3676  0.0298
  181MOL0     C23799   1.205   7.360   6.694  0.9078 -0.2363 -0.3275
  181MOL0     C23800   1.195   7.228   6.780  0.9355  0.3713  0.0790
  181MOL0     C23801   1.294   7.213   6.893 -0.4976  0.2545 -1.3479
  181MOL0     C23802   1.441   7.213   6.847 -0.0780  0.1118 -0.4548
  181MOL0     C23803   1.523   7.223   6.979 -0.9947 -0.0651  0.2519
  181MOL0    Cl23804   1.517   7.397   7.020 -0.2348 -0.3524  0.4259
  181MOL0     C23805   0.848   7.339   6.144  0.1305 -0.1694  0.1764
  181MOL0     C23806   0.758   7.370   6.042 -0.2147  0.8987 -1.1165
  181MOL0     O23807   0.823   7.547   5.740 -0.4097  0.0685 -0.8450
  181MOL0     C23808   0.468   7.557   5.666 -0.4513 -0.1197  0.4081
  181MOL0     C23809   0.397   7.604   5.556 -0.2844 -0.7888 -0.4330
  181MOL0     N23810   0.234   7.135   5.198 -0.0318  0.9544  0.0855
  181MOL0     N23811   0.132   7.090   5.131 -0.3550  0.0461  0.0888
  181MOL0     C23812   0.031   7.634   4.029  0.2507 -0.7496  0.1311
  181MOL0     C23813   0.063   7.730   3.941 -0.3760 -0.6143 -0.3491
  181MOL0     C23814   0.348   7.985   3.656  0.1901 -0.3290  0.0542
  181MOL0     C23815   0.427   7.979   3.542 -0.4052 -0.0687 -0.0865
  181MOL0     C23816   0.432   8.088   3.453  0.6778 -0.1704 -0.3501
  181MOL0     C23817   0.353   8.207   3.472 -0.3751  0.9738 -0.8399
  181MOL0     O23818   0.384   8.311   3.389 -0.3578 -0.4178  0.0333
  181MOL0     C23819   0.283   8.377   3.306  0.3260  0.3013 -0.4558
  181MOL0     C23820   0.225   8.278   3.205 -0.0289  0.4376 -0.1489
  181MOL0     C23821   0.298   8.284   3.064 -0.0993  0.4346  0.3412
  181MOL0     C23822   0.202   8.254   2.943  0.4528 -0.4308  0.0357
  181MOL0     C23823   0.113   8.376   2.907 -0.0337 -0.9383  0.3522
  181MOL0     C23824   0.044   8.477   2.871 -0.9606  1.1752 -0.1833
  181MOL0     C23825   0.280   8.212   3.591  0.8901 -0.7454  0.2134
  181MOL0     C23826   0.276   8.100   3.682  0.2322  0.2840  0.1082
  181MOL0     H23827   0.402   7.689   3.970 -0.9849  2.9163 -2.0971
  181MOL0     H23828   0.342   7.502   4.105  0.1501 -1.7621 -1.2357
  181MOL0     H23829   0.231   7.565   4.306  2.6639 -1.8210  3.2802
  181MOL0     H23830   0.205   7.399   4.355  1.6148  1.1997  0.6251
  181MOL0     H23831   0.007   7.633   4.352 -0.1056 -0.0837  1.1886
  181MOL0     H23832   0.106   7.588   4.492 -1.2834  2.5366  0.2658
  181MOL0     H23833  -0.084   7.394   4.365  0.4062 -0.4295  0.6589
  181MOL0     H23834  -0.148   7.513   4.477 -1.2025 -0.6856 -3.2829
  181MOL0     H23835   0.103   7.322   4.550  3.0157  2.4805 -0.7057
  181MOL0     H23836   0.041   7.453   4.648 -0.7364  0.4661 -1.1385
  181MOL0     H23837  -0.122   7.193   4.585  0.3852 -0.9945  0.7441
  181MOL0     H23838  -0.188   7.334   4.646  1.1642  1.3982 -2.4351
  181MOL0     H23839  -0.128   7.221   4.850 -0.9600  0.1908 -1.3477
  181MOL0     H23840   0.021   7.303   4.838 -5.1188  2.1903  2.7047
  181MOL0     H23841  -0.048   7.031   4.711 -2.4477  4.3139 -1.1038
  181MOL0     H23842   0.113   7.100   4.707  1.4877 -2.6791  1.6987
  181MOL0     H23843   0.142   6.946   4.882  0.1121  0.1734  0.1960
  181MOL0     H23844  -0.018   6.969   4.936  0.3107 -0.4030  0.2268
  181MOL0     H23845   0.295   7.215   4.884 -0.1681 -1.8589 -0.5324
  181MOL0     H23846   0.491   7.303   5.034 -1.1936  0.6539  0.1656
  181MOL0     H23847   0.493   7.238   5.201 -1.1350  0.6141  0.7024
  181MOL0     H23848   0.347   7.472   5.075  0.9618  0.9126  0.9405
  181MOL0     H23849   0.478   7.485   5.177 -1.0240  1.0046 -1.9944
  181MOL0     H23850   0.192   7.404   5.252 -1.2591  2.2093 -3.6016
  181MOL0     H23851   0.331   7.405   5.372  1.4009 -0.0509 -0.1601
  181MOL0     H23852   0.175   7.621   5.366 -2.3025 -3.2371 -2.2204
  181MOL0     H23853   0.240   7.655   5.214 -0.5974 -0.8090  0.2200
  181MOL0     H23854   0.624   7.682   5.324 -0.1178 -2.7792 -2.1022
  181MOL0     H23855   0.782   7.610   5.516 -0.1941 -0.5941  1.8325
  181MOL0     H23856   0.844   7.691   6.002  5.7961  0.4100  0.2112
  181MOL0     H23857   0.975   7.657   6.175  2.1684 -0.7146 -1.4439
  181MOL0     H23858   1.027   7.603   6.416 -0.7786  0.5960 -0.1238
  181MOL0     H23859   1.151   7.561   6.292  0.0741  0.8496  0.8286
  181MOL0     H23860   1.245   7.513   6.501  0.6519 -0.5673 -0.4270
  181MOL0     H23861   1.209   7.366   6.410  0.2371 -1.1462  1.0977
  181MOL0     H23862   1.052   7.284   6.557 -0.1352  0.4909 -1.0633
  181MOL0     H23863   1.018   7.443   6.617  2.5546 -0.0512  2.9349
  181MOL0     H23864   1.303   7.359   6.645  1.9727 -1.1293  1.6893
  181MOL0     H23865   1.205   7.445   6.763 -2.1646 -1.7410  1.7647
  181MOL0     H23866   1.210   7.138   6.719  2.5195 -0.3167  1.4130
  181MOL0     H23867   1.097   7.231   6.828 -0.2892 -1.5576 -2.0990
  181MOL0     H23868   1.261   7.123   6.945 -2.2958  2.0686  0.9040
  181MOL0     H23869   1.289   7.291   6.970 -3.9787 -2.3263  1.3904
  181MOL0     H23870   1.457   7.112   6.809  2.4979  0.2638  0.0017
  181MOL0     H23871   1.486   7.285   6.777 -0.9418 -1.1126 -2.3366
  181MOL0     H23872   1.628   7.198   6.958 -0.7256  1.8066 -0.8871
  181MOL0     H23873   1.472   7.166   7.057 -2.9826 -2.2315 -2.4158
  181MOL0     H23874   0.866   7.244   6.195 -0.4814  2.1159  5.3325
  181MOL0     H23875   0.688   7.294   6.009  0.0689  0.5248 -0.8674
  181MOL0     H23876   0.424   7.517   5.757 -0.7518 -1.2921 -0.2376
  181MOL0     H23877   0.289   7.610   5.566 -0.1897  1.4844 -0.3111
  181MOL0     H23878  -0.075   7.642   4.052  0.5851  1.4037  1.1108
  181MOL0     H23879  -0.006   7.792   3.885 -1.1420 -1.1861 -0.0561
  181MOL0     H23880   0.489   7.896   3.513 -0.5401  0.2701 -1.4215
  181MOL0     H23881   0.481   8.083   3.356 -0.5905 -2.2864 -0.9621
  181MOL0     H23882   0.312   8.467   3.252 -1.4759  0.3469 -1.4426
  181MOL0     H23883   0.212   8.408   3.384 -0.6442  1.5644 -1.7794
  181MOL0     H23884   0.234   8.175   3.241 -1.0115  0.2585 -0.3980
  181MOL0     H23885   0.118   8.294   3.189  0.3085  0.9919 -2.0347
  181MOL0     H23886   0.377   8.209   3.072 -1.4694 -0.8568  5.8506
  181MOL0     H23887   0.352   8.379   3.061  1.0728 -0.1916  0.8558
  181MOL0     H23888   0.262   8.237   2.853  0.0846  0.2696 -0.3504
  181MOL0     H23889   0.139   8.166   2.954  0.5496 -0.2144  3.7711
  181MOL0     H23890  -0.024   8.549   2.832  0.0543  1.6599 -1.1052
  181MOL0     H23891   0.230   8.305   3.616 -0.0458 -1.7896  2.4972
  181MOL0     H23892   0.214   8.100   3.771 -0.6089  0.6135 -0.4684
  182MOL0     O23893   1.374   8.857   2.421  0.1308 -0.7587  0.0677
  182MOL0     C23894   1.266   8.863   2.472  0.3339 -0.6204 -0.3411
  182MOL0     O23895   1.240   8.826   2.606 -0.3053  0.3033  1.2205
  182MOL0     C23896   1.341   8.758   2.673  0.8500 -0.2201 -0.2883
  182MOL0     C23897   1.417   8.845   2.757 -0.4183  0.5697  1.1598
  182MOL0     C23898   1.538   8.795   2.820  0.6566 -0.4978 -0.1254
  182MOL0     C23899   1.566   8.664   2.811  0.7073  0.4315  0.6832
  182MOL0     O23900   1.672   8.614   2.888  0.0420  0.1247 -0.2349
  182MOL0     C23901   1.795   8.583   2.820 -0.1251 -0.6649 -0.8325
  182MOL0     C23902   1.801   8.439   2.756 -0.5304  0.1952  0.0763
  182MOL0     C23903   1.739   8.334   2.838 -1.4023 -0.0153  0.3752
  182MOL0     C23904   1.801   8.318   2.977 -0.6797 -1.0498  0.6403
  182MOL0     C23905   1.956   8.289   2.977 -0.1306  0.1225  0.3921
  182MOL0     C23906   1.990   8.143   2.924  0.6986 -0.9863  0.1151
  182MOL0     C23907   2.140   8.097   2.940 -0.0370  0.1378 -0.7303
  182MOL0     C23908   2.180   7.946   2.889  0.2929 -0.5019  0.3045
  182MOL0     N23909   2.318   7.925   2.856 -0.0760 -0.0239  1.1227
  182MOL0     C23910   2.367   7.858   2.747 -0.0265  0.0241  0.0222
  182MOL0     C23911   2.498   7.867   2.758 -0.3572 -0.0002  0.7230
  182MOL0     C23912   2.608   7.808   2.676 -0.4637  0.0973  0.9219
  182MOL0     C23913   2.665   7.902   2.560 -0.0110 -0.0830  0.4072
  182MOL0     C23914   2.555   7.907   2.445 -0.1549 -0.1362 -0.9814
  182MOL0     C23915   2.540   8.048   2.396  0.3320 -0.1300  0.6092
  182MOL0     O23916   2.664   8.081   2.347 -0.4779 -0.6985  0.4064
  182MOL0     C23917   2.687   8.208   2.287  0.0885  0.3238 -0.0888
  182MOL0     C23918   2.586   8.300   2.269  0.5623 -0.6891 -0.7068
  182MOL0     C23919   2.626   8.420   2.199 -0.1936 -0.1962  0.5877
  182MOL0     C23920   2.764   8.456   2.182 -0.0457  1.0548  0.0080
  182MOL0     C23921   2.797   8.588   2.123 -0.2483  0.2968 -0.1493
  182MOL0     O23922   2.924   8.591   2.077 -0.0556  0.4649  0.6148
  182MOL0     C23923   2.968   8.705   2.033  0.1259  0.4699 -0.1809
  182MOL0     C23924   2.995   8.722   1.907 -0.2135 -0.7912 -0.1666
  182MOL0     C23925   3.051   8.852   1.868  0.7275  1.0380 -0.0552
  182MOL0     C23926   3.081   8.949   1.972 -0.8901 -0.3328  1.1028
  182MOL0     O23927   3.137   9.068   1.927 -0.4171 -0.4207 -0.3782
  182MOL0     C23928   3.108   9.181   2.013 -0.0310  0.6622  0.1865
  182MOL0     C23929   3.136   9.310   1.938  0.1039 -0.0529  0.8468
  182MOL0     C23930   3.087   9.307   1.782  1.0701 -0.3754  0.5417
  182MOL0     C23931   3.179   9.253   1.685 -0.2003  0.0767 -0.7860
  182MOL0     C23932   3.150   9.305   1.549 -0.2873 -0.5466 -0.0999
  182MOL0     C23933   3.236   9.242   1.447  0.0769 -0.7176  0.1849
  182MOL0     C23934   3.215   9.263   1.297  0.7435  0.0783 -0.0892
  182MOL0     C23935   3.273   9.401   1.256  0.2151 -0.5750  1.0989
  182MOL0    Cl23936   3.200   9.412   1.091  0.3248  0.1650  0.0988
  182MOL0     C23937   3.048   8.923   2.106 -1.0610  0.5683  0.9045
  182MOL0     C23938   2.995   8.797   2.129  0.1445 -0.1917  0.1868
  182MOL0     O23939   2.710   8.667   2.100  0.2003 -0.3877  0.0041
  182MOL0     C23940   2.856   8.359   2.219  0.5514  0.5263 -0.2559
  182MOL0     C23941   2.817   8.229   2.260  0.1747 -0.3507 -0.4546
  182MOL0     N23942   2.535   7.943   2.865  0.8036 -0.1822  0.1235
  182MOL0     N23943   2.426   7.980   2.916  0.3400 -0.0797 -0.2929
  182MOL0     C23944   1.489   8.578   2.731  0.2601  0.0243 -0.4550
  182MOL0     C23945   1.369   8.618   2.676 -0.4604  0.1446  0.9366
  182MOL0     C23946   1.148   8.927   2.392 -0.0021 -0.7512  0.1687
  182MOL0     C23947   1.165   8.961   2.256  0.2495 -0.7238  0.1873
  182MOL0     C23948   1.064   9.041   2.203 -0.7916 -1.2128 -0.0368
  182MOL0     C23949   0.950   9.091   2.282 -1.3259  0.5743  0.2764
  182MOL0     O23950   0.857   9.171   2.232 -0.5101  0.3680 -0.2082
  182MOL0     C23951   0.788   9.121   2.111  0.3842  0.2839  0.4591
  182MOL0     C23952   0.846   9.202   1.998 -0.0305 -0.6750  0.0007
  182MOL0     C23953   0.801   9.171   1.855 -0.5045  0.1526 -0.3348
  182MOL0     C23954   0.859   9.276   1.761  0.7559  0.5998  0.3393
  182MOL0     C23955   0.798   9.409   1.786  0.4565  0.2814  0.6188
  182MOL0     C23956   0.751   9.516   1.808  0.7222  0.0757  0.1154
  182MOL0     C23957   0.929   9.037   2.410  0.5710 -0.2289  1.6618
  182MOL0     C23958   1.029   8.959   2.462  0.5235 -0.6575 -0.0724
  182MOL0     H23959   1.386   8.949   2.762  0.0093  0.6559  2.0712
  182MOL0     H23960   1.602   8.866   2.871  1.4964  0.7915 -2.7781
  182MOL0     H23961   1.866   8.600   2.902 -2.1962  3.0341  0.4470
  182MOL0     H23962   1.795   8.656   2.738  0.9409 -1.1815 -1.3041
  182MOL0     H23963   1.904   8.413   2.730 -0.5779 -0.5775  0.6306
  182MOL0     H23964   1.750   8.448   2.660  1.5673  3.9438 -0.8825
  182MOL0     H23965   1.759   8.240   2.786  1.0852 -0.0051  1.1778
  182MOL0     H23966   1.630   8.342   2.842 -1.4058  2.3510 -1.6213
  182MOL0     H23967   1.778   8.406   3.037  0.1345  0.0748 -0.6353
  182MOL0     H23968   1.751   8.231   3.020  2.2552 -2.2568  1.8147
  182MOL0     H23969   1.995   8.287   3.080 -2.0836  0.5362  1.1828
  182MOL0     H23970   2.002   8.375   2.927 -0.2206  0.4843  0.9191
  182MOL0     H23971   1.946   8.130   2.825  0.1624  1.8478 -0.1236
  182MOL0     H23972   1.927   8.092   2.997  0.7816  1.3462  1.9434
  182MOL0     H23973   2.211   8.158   2.885  0.4329 -1.5432 -2.0677
  182MOL0     H23974   2.178   8.105   3.042  1.6622 -0.6641 -1.2662
  182MOL0     H23975   2.122   7.929   2.799  1.7296 -0.2829 -0.7011
  182MOL0     H23976   2.145   7.869   2.958 -0.5569 -0.0266  0.4211
  182MOL0     H23977   2.311   7.799   2.675  0.2220 -1.5482  1.0662
  182MOL0     H23978   2.564   7.725   2.621 -0.9865  1.5958 -1.0520
  182MOL0     H23979   2.687   7.773   2.744  1.4677  1.8796 -0.2510
  182MOL0     H23980   2.754   7.855   2.519 -1.1976 -2.3952  0.3453
  182MOL0     H23981   2.701   7.998   2.600  0.5479  0.0977 -0.5129
  182MOL0     H23982   2.564   7.835   2.363 -2.4904 -0.8911 -0.6321
  182MOL0     H23983   2.458   7.876   2.485  0.0086  0.2615 -0.2519
  182MOL0     H23984   2.510   8.112   2.479 -0.8966 -0.3149  0.3307
  182MOL0     H23985   2.461   8.032   2.322 -0.1521  1.4755  0.7519
  182MOL0     H23986   2.479   8.279   2.272  0.4112  0.0584  2.3923
  182MOL0     H23987   2.557   8.497   2.166  1.8677  0.2658 -3.2733
  182MOL0     H23988   2.984   8.640   1.836  3.7036 -1.6833  0.0080
  182MOL0     H23989   3.080   8.885   1.769 -1.6707 -1.9185 -1.9237
  182MOL0     H23990   3.164   9.169   2.106  2.7285 -2.6484 -1.6645
  182MOL0     H23991   3.003   9.180   2.042  0.3047 -3.1536  1.8656
  182MOL0     H23992   3.240   9.344   1.935  0.4382 -1.0323  1.2028
  182MOL0     H23993   3.084   9.389   1.994 -0.6339 -0.7699  1.1900
  182MOL0     H23994   3.058   9.409   1.754 -2.2347 -0.9214  1.5659
  182MOL0     H23995   2.998   9.244   1.785  2.8937 -4.1827 -5.8365
  182MOL0     H23996   3.281   9.271   1.720 -0.3404 -0.0075 -0.3313
  182MOL0     H23997   3.173   9.144   1.681  1.7997 -0.1236  0.3959
  182MOL0     H23998   3.170   9.412   1.549  2.7472 -1.0230  1.1264
  182MOL0     H23999   3.048   9.290   1.511  0.4326 -2.6980 -1.3691
  182MOL0     H24000   3.226   9.135   1.464 -2.9018 -0.8639 -1.6735
  182MOL0     H24001   3.337   9.278   1.469 -0.1267  1.9854 -2.5483
  182MOL0     H24002   3.283   9.189   1.255 -0.8107 -2.0351  0.9274
  182MOL0     H24003   3.115   9.234   1.265  0.9721 -0.0866 -0.6604
  182MOL0     H24004   3.380   9.396   1.279  0.7530 -0.4199 -1.1707
  182MOL0     H24005   3.232   9.476   1.324 -2.0337  1.4647 -2.2210
  182MOL0     H24006   3.067   8.992   2.187  1.0948  0.4930  0.5228
  182MOL0     H24007   2.967   8.775   2.231 -2.7849  3.8937  0.5384
  182MOL0     H24008   2.964   8.369   2.221  0.5470  0.7009  2.3719
  182MOL0     H24009   2.884   8.144   2.268 -0.3574 -0.6526  1.2059
  182MOL0     H24010   1.512   8.474   2.709  1.1118  0.3634 -1.2125
  182MOL0     H24011   1.324   8.544   2.611 -1.5749  2.8780 -1.6183
  182MOL0     H24012   1.255   8.928   2.206 -1.6053 -5.9165 -0.3134
  182MOL0     H24013   1.092   9.088   2.109  3.5237 -1.7401  0.7444
  182MOL0     H24014   0.679   9.131   2.115  0.4085  0.1879  1.7551
  182MOL0     H24015   0.806   9.014   2.102 -0.1009  0.1353  1.1263
  182MOL0     H24016   0.834   9.309   2.021  1.7294 -0.1161 -1.4640
  182MOL0     H24017   0.953   9.185   1.985 -0.1798 -1.4476 -0.2386
  182MOL0     H24018   0.693   9.185   1.847 -0.5209 -0.3566 -1.1010
  182MOL0     H24019   0.824   9.067   1.827 -0.4286  0.4294 -1.3423
  182MOL0     H24020   0.967   9.280   1.778  1.0554  1.0283 -1.4249
  182MOL0     H24021   0.851   9.246   1.656  6.3079 -0.2717 -0.1475
  182MOL0     H24022   0.712   9.614   1.826  2.8782  1.1145 -0.5878
  182MOL0     H24023   0.837   9.062   2.462  1.9175  0.6149  3.8024
  182MOL0     H24024   1.022   8.936   2.568  0.5391 -0.7218 -0.0852
  183MOL0     O24025   1.088  11.170   1.483 -1.1382 -0.4765 -0.2812
  183MOL0     C24026   1.089  11.261   1.394  0.3061 -0.1254 -0.5803
  183MOL0     O24027   1.158  11.379   1.393 -0.6106 -0.2438  0.4319
  183MOL0     C24028   1.228  11.435   1.496 -0.1881  0.5335 -1.6915
  183MOL0     C24029   1.238  11.384   1.629 -0.7286  0.0874  0.0008
  183MOL0     C24030   1.310  11.457   1.729  0.6919 -0.9544  0.5077
  183MOL0     C24031   1.401  11.560   1.694  1.1992 -0.6285 -0.2550
  183MOL0     O24032   1.476  11.638   1.775 -0.5149 -0.4595 -0.7552
  183MOL0     C24033   1.478  11.624   1.920  0.1504 -0.8685 -0.6888
  183MOL0     C24034   1.442  11.758   1.984  1.2126  0.8413 -0.4656
  183MOL0     C24035   1.435  11.732   2.135  0.5045 -0.0916  0.2375
  183MOL0     C24036   1.569  11.745   2.214  0.6691  0.7636  0.6172
  183MOL0     C24037   1.554  11.720   2.360  0.0742 -0.0697  0.4352
  183MOL0     C24038   1.514  11.848   2.432  0.8833  0.0356 -0.0332
  183MOL0     C24039   1.457  11.832   2.572 -1.2082  0.2648  0.0335
  183MOL0     C24040   1.467  11.940   2.672  0.3165 -0.0635  0.9649
  183MOL0     N24041   1.383  12.061   2.650  0.1731  0.2125 -0.6331
  183MOL0     C24042   1.437  12.187   2.661  0.8969 -0.4662  0.2607
  183MOL0     C24043   1.322  12.257   2.636  0.2319 -0.1066 -0.4302
  183MOL0     C24044   1.311  12.410   2.619  0.3349 -0.0252 -0.8600
  183MOL0     C24045   1.230  12.486   2.728 -0.1258 -0.1736 -0.8635
  183MOL0     C24046   1.079  12.493   2.711 -0.5790  0.4405 -0.4894
  183MOL0     C24047   1.000  12.362   2.729  0.3177  0.1383 -0.6708
  183MOL0     O24048   0.872  12.409   2.782 -0.5712 -0.2183  0.3565
  183MOL0     C24049   0.847  12.421   2.918  0.1055  0.4928 -0.3999
  183MOL0     C24050   0.721  12.446   2.955  1.5294  0.7924 -0.0972
  183MOL0     C24051   0.671  12.451   3.087 -0.9665  0.5635 -0.5271
  183MOL0     C24052   0.761  12.407   3.190  0.7629 -0.5597 -0.2002
  183MOL0     C24053   0.726  12.397   3.329 -0.1994 -0.1174 -0.0688
  183MOL0     O24054   0.618  12.463   3.370 -0.8688 -0.1529  0.5585
  183MOL0     C24055   0.564  12.443   3.494  0.6778 -0.0970  0.2499
  183MOL0     C24056   0.427  12.408   3.508  0.1128  0.0875  0.0118
  183MOL0     C24057   0.367  12.384   3.636 -0.5149  0.2363 -0.6315
  183MOL0     C24058   0.448  12.385   3.757  0.9300 -0.4948 -0.0358
  183MOL0     O24059   0.381  12.367   3.873 -0.3123  0.5982 -0.2267
  183MOL0     C24060   0.455  12.314   3.989  0.4198  0.3898 -0.3780
  183MOL0     C24061   0.405  12.172   4.043 -0.1857  0.7634  0.5132
  183MOL0     C24062   0.386  12.061   3.932  0.2122 -0.1788  0.5353
  183MOL0     C24063   0.504  12.049   3.830  0.1063  0.0111  0.5916
  183MOL0     C24064   0.484  11.940   3.725 -0.2552  0.0883 -0.1482
  183MOL0     C24065   0.374  11.958   3.616 -0.6392  0.2119  0.1338
  183MOL0     C24066   0.444  12.038   3.506 -0.4203 -0.1668  0.8809
  183MOL0     C24067   0.340  12.058   3.396  0.2038 -0.0370 -0.4765
  183MOL0    Cl24068   0.384  12.182   3.277  0.2215  0.5664  0.0459
  183MOL0     C24069   0.592  12.392   3.743 -0.3087  0.1175  0.0363
  183MOL0     C24070   0.639  12.425   3.610  0.9687  0.2877 -0.9064
  183MOL0     O24071   0.793  12.319   3.399 -0.4554 -0.1615 -0.0185
  183MOL0     C24072   0.896  12.396   3.159  0.2871  0.8003  1.1797
  183MOL0     C24073   0.937  12.393   3.023 -0.1197 -0.6191  0.3116
  183MOL0     N24074   1.208  12.181   2.626 -0.3012 -0.1401  0.5583
  183MOL0     N24075   1.243  12.057   2.643 -0.5594 -0.3700  0.1928
  183MOL0     C24076   1.383  11.612   1.568 -0.3337  0.1379 -0.8306
  183MOL0     C24077   1.305  11.547   1.469 -0.2994 -0.7687 -0.4243
  183MOL0     C24078   1.010  11.244   1.271 -0.5062  0.4702  0.3617
  183MOL0     C24079   0.913  11.138   1.245  0.6453  0.0441  1.3253
  183MOL0     C24080   0.831  11.138   1.133  0.8932 -0.6067 -0.2163
  183MOL0     C24081   0.848  11.226   1.032  0.2467  0.5182 -0.4817
  183MOL0     O24082   0.764  11.236   0.924  0.3654 -0.3032  0.7885
  183MOL0     C24083   0.668  11.133   0.893 -0.4938 -0.0844  0.3212
  183MOL0     C24084   0.728  11.016   0.814 -0.1921  0.6873 -0.5116
  183MOL0     C24085   0.804  11.047   0.688 -0.0179  0.5255 -0.7809
  183MOL0     C24086   0.957  11.024   0.735 -1.0426 -0.4554 -0.3848
  183MOL0     C24087   1.048  11.080   0.630 -0.3229 -0.7668 -0.3457
  183MOL0     C24088   1.119  11.114   0.538  0.1086  0.1587  0.3968
  183MOL0     C24089   0.953  11.325   1.047 -0.8397 -0.8881  0.7356
  183MOL0     C24090   1.026  11.335   1.160 -0.2329 -0.2397 -0.1540
  183MOL0     H24091   1.177  11.305   1.672  2.2174 -0.7228  3.0808
  183MOL0     H24092   1.290  11.425   1.831 -0.9517  0.2618  0.6144
  183MOL0     H24093   1.575  11.590   1.956 -0.4568 -1.6889  0.2557
  183MOL0     H24094   1.403  11.547   1.942 -0.5270 -0.5829 -1.8807
  183MOL0     H24095   1.339  11.780   1.954  0.6816 -0.5810  0.2001
  183MOL0     H24096   1.517  11.833   1.960  1.4604 -0.1800 -3.3106
  183MOL0     H24097   1.386  11.638   2.162  0.0492 -0.1013 -0.6153
  183MOL0     H24098   1.365  11.807   2.174  0.7129 -0.5262  1.4881
  183MOL0     H24099   1.627  11.664   2.168 -2.3837 -0.9850 -0.4028
  183MOL0     H24100   1.617  11.843   2.200  1.4097  0.3975  0.5110
  183MOL0     H24101   1.650  11.687   2.401  0.8416 -0.6651 -1.7137
  183MOL0     H24102   1.489  11.633   2.376 -0.2252  0.1457  0.4109
  183MOL0     H24103   1.427  11.889   2.380  1.5382  2.4437  0.6462
  183MOL0     H24104   1.604  11.910   2.442  2.4116 -1.8006 -1.5552
  183MOL0     H24105   1.362  11.779   2.556 -0.0565 -1.3574 -1.8827
  183MOL0     H24106   1.526  11.756   2.609  1.3093  3.1589  1.7212
  183MOL0     H24107   1.574  11.963   2.669  0.7052 -0.2237 -6.6162
  183MOL0     H24108   1.443  11.913   2.775 -0.5629  0.5047  0.9131
  183MOL0     H24109   1.535  12.227   2.683  0.4816  3.5652 -3.6936
  183MOL0     H24110   1.265  12.443   2.525  0.9604  3.5946 -0.0536
  183MOL0     H24111   1.413  12.452   2.622  0.2881  0.3687  4.2866
  183MOL0     H24112   1.265  12.589   2.742 -0.5139  0.0375 -1.4311
  183MOL0     H24113   1.255  12.431   2.819 -0.9122 -1.5364 -1.4525
  183MOL0     H24114   1.033  12.574   2.768 -3.8860 -1.7568  0.2716
  183MOL0     H24115   1.063  12.516   2.605  0.0916 -1.0673 -0.9506
  183MOL0     H24116   1.045  12.289   2.796  0.7152 -0.5081 -1.6216
  183MOL0     H24117   0.980  12.312   2.634  1.3988 -0.0096 -0.8360
  183MOL0     H24118   0.655  12.466   2.871  0.6740 -1.6079 -0.0950
  183MOL0     H24119   0.566  12.463   3.111 -2.0383  0.4429 -4.3873
  183MOL0     H24120   0.364  12.409   3.420  2.3720  1.2902 -1.6903
  183MOL0     H24121   0.261  12.361   3.646 -0.9713  0.5311 -3.8536
  183MOL0     H24122   0.467  12.394   4.062 -0.8282  1.5544 -1.3873
  183MOL0     H24123   0.559  12.293   3.964  0.4908  2.2225 -1.8744
  183MOL0     H24124   0.310  12.195   4.093 -2.4763 -1.8311 -2.2209
  183MOL0     H24125   0.486  12.135   4.106 -1.0071  0.9705  1.7143
  183MOL0     H24126   0.291  12.081   3.881  1.0485  0.6857 -0.7392
  183MOL0     H24127   0.371  11.969   3.989 -1.4303  0.3352  0.9998
  183MOL0     H24128   0.527  12.142   3.776  1.2989  0.3804  1.6716
  183MOL0     H24129   0.594  12.021   3.886  2.0835 -0.7515 -2.7006
  183MOL0     H24130   0.447  11.857   3.786 -1.7901  2.7711  2.8529
  183MOL0     H24131   0.582  11.910   3.685 -0.8110 -2.7855  0.4179
  183MOL0     H24132   0.280  12.003   3.651  0.1958 -0.7722  4.1259
  183MOL0     H24133   0.361  11.855   3.584  1.9806 -0.1844  0.1028
  183MOL0     H24134   0.489  12.133   3.537  0.5804  0.8459 -3.1383
  183MOL0     H24135   0.524  11.974   3.469 -1.1092 -2.9597  3.7371
  183MOL0     H24136   0.249  12.101   3.441  0.3467  1.9035 -1.8916
  183MOL0     H24137   0.308  11.964   3.349  0.9162 -0.0813 -0.8964
  183MOL0     H24138   0.662  12.386   3.825  0.5721  2.0774 -0.5150
  183MOL0     H24139   0.746  12.443   3.609  0.8320  1.1110 -1.0628
  183MOL0     H24140   0.967  12.371   3.237 -0.3085  1.1870  1.8551
  183MOL0     H24141   1.044  12.382   3.011  0.4185  4.4180 -2.7170
  183MOL0     H24142   1.444  11.696   1.537 -1.3474  1.3260  0.2822
  183MOL0     H24143   1.316  11.594   1.373  2.3626 -0.1501  0.1033
  183MOL0     H24144   0.896  11.076   1.333 -1.0253 -1.4771  0.0110
  183MOL0     H24145   0.746  11.072   1.144  1.3331 -0.9440  1.5705
  183MOL0     H24146   0.593  11.193   0.841 -0.3772 -0.6490 -0.5199
  183MOL0     H24147   0.621  11.077   0.975 -1.6629 -0.6036 -0.6727
  183MOL0     H24148   0.797  10.958   0.876  0.7404 -0.5155 -2.5742
  183MOL0     H24149   0.651  10.950   0.774  0.2290 -0.0469 -0.1228
  183MOL0     H24150   0.787  11.147   0.647  0.5694  0.0982 -2.1182
  183MOL0     H24151   0.784  10.977   0.606 -2.3091  0.3128 -0.0893
  183MOL0     H24152   0.977  11.068   0.833 -0.1882  1.6489 -1.4581
  183MOL0     H24153   0.966  10.915   0.747 -2.4307 -0.9220 -2.8214
  183MOL0     H24154   1.180  11.139   0.454 -0.8184  2.1982  0.2593
  183MOL0     H24155   0.975  11.407   0.978  1.2024  1.8156  4.2605
  183MOL0     H24156   1.104  11.410   1.161 -0.1015 -0.2519  3.3839
  184MOL0     O24157   4.503   5.794   4.660 -0.2296  0.4237  0.8613
  184MOL0     C24158   4.400   5.729   4.643 -0.9752 -0.6179  1.3016
  184MOL0     O24159   4.285   5.772   4.582  0.0695  0.1233 -0.1112
  184MOL0     C24160   4.279   5.891   4.523  1.4577 -0.2067 -0.5780
  184MOL0     C24161   4.200   5.999   4.583 -0.2589  0.5225  0.7566
  184MOL0     C24162   4.209   6.130   4.543  0.4194  0.2603  0.0445
  184MOL0     C24163   4.302   6.155   4.433 -0.8299 -0.4038  0.6703
  184MOL0     O24164   4.323   6.285   4.401  0.1386 -0.4904  0.1520
  184MOL0     C24165   4.424   6.335   4.485  0.6814  0.2897 -0.4975
  184MOL0     C24166   4.453   6.474   4.429  0.2508  0.0572  0.4652
  184MOL0     C24167   4.551   6.560   4.518  0.1996  0.5008  0.7045
  184MOL0     C24168   4.583   6.703   4.464 -1.4885  0.1212 -0.6702
  184MOL0     C24169   4.647   6.813   4.563  0.4076 -1.2469 -0.1780
  184MOL0     C24170   4.610   6.946   4.498 -0.0849 -0.9415 -0.4754
  184MOL0     C24171   4.703   6.986   4.376  0.0664  0.2116 -0.4294
  184MOL0     C24172   4.696   7.131   4.351 -0.0497 -0.3201  0.3740
  184MOL0     N24173   4.782   7.165   4.234 -0.9338  0.3200  0.3309
  184MOL0     C24174   4.777   7.276   4.157  0.2270  0.0063  0.1165
  184MOL0     C24175   4.881   7.271   4.072 -0.5774 -0.4109 -0.4805
  184MOL0     C24176   4.899   7.366   3.959 -0.1345  0.0705  0.0095
  184MOL0     C24177   4.771   7.375   3.861 -0.2695  0.6880  0.8043
  184MOL0     C24178   4.816   7.437   3.725 -0.4030 -0.2028  1.2203
  184MOL0     C24179   4.903   7.562   3.723 -0.8440  0.0961  0.5041
  184MOL0     O24180   4.878   7.658   3.614  0.2184 -0.2550  0.2936
  184MOL0     C24181   4.919   7.788   3.627  0.2161  0.1989 -0.2917
  184MOL0     C24182   4.965   7.851   3.741 -0.7531  0.0885 -0.2020
  184MOL0     C24183   5.013   7.990   3.735  0.9299 -0.2660 -1.1696
  184MOL0     C24184   4.992   8.071   3.625 -0.7832  0.3830  0.6292
  184MOL0     C24185   5.020   8.213   3.633  0.3500 -0.2728 -0.1019
  184MOL0     O24186   5.062   8.273   3.745  0.3860 -0.1344 -0.1664
  184MOL0     C24187   5.109   8.406   3.752  0.9925  0.7463  0.2722
  184MOL0     C24188   5.173   8.461   3.641 -0.4048  0.3852 -0.7289
  184MOL0     C24189   5.224   8.590   3.653  0.3557 -0.7385  0.2300
  184MOL0     C24190   5.192   8.670   3.758  1.1171 -1.1515  0.7552
  184MOL0     O24191   5.252   8.796   3.758  0.5777  0.4881  0.2577
  184MOL0     C24192   5.234   8.897   3.866  0.3912 -0.8296  0.1433
  184MOL0     C24193   5.175   9.037   3.820  0.5257  0.3065 -0.2935
  184MOL0     C24194   5.237   9.103   3.704  0.8448 -0.7464  0.7115
  184MOL0     C24195   5.152   9.227   3.666  0.4898  0.1534 -0.9123
  184MOL0     C24196   5.205   9.289   3.538  0.5163 -0.3601 -0.2943
  184MOL0     C24197   5.151   9.429   3.504  0.4005 -0.3625 -0.4983
  184MOL0     C24198   5.199   9.538   3.600  0.8233  0.5627  0.7865
  184MOL0     C24199   5.345   9.574   3.567 -0.3492  0.1169 -0.0391
  184MOL0    Cl24200   5.346   9.698   3.439 -0.3135  0.0734  0.0181
  184MOL0     C24201   5.115   8.631   3.865 -0.5314  0.0173 -0.5505
  184MOL0     C24202   5.080   8.492   3.862 -0.4667  0.1478 -0.7273
  184MOL0     O24203   4.979   8.277   3.538  0.0102  0.6095 -0.1645
  184MOL0     C24204   4.949   8.003   3.510 -0.1627 -0.3409  0.4743
  184MOL0     C24205   4.917   7.866   3.507 -1.3953  0.3351  0.1049
  184MOL0     N24206   4.958   7.158   4.111 -0.2664 -0.1274  0.0626
  184MOL0     N24207   4.896   7.101   4.210 -0.7177  0.5292 -0.8462
  184MOL0     C24208   4.370   6.058   4.371  0.4870 -0.3765 -0.4473
  184MOL0     C24209   4.362   5.927   4.416  0.3810  1.0095  0.1333
  184MOL0     C24210   4.403   5.587   4.699  0.5773 -0.0759 -0.2092
  184MOL0     C24211   4.499   5.560   4.799  0.1254 -0.4825 -0.5078
  184MOL0     C24212   4.508   5.435   4.862  0.4424 -1.2565  0.0260
  184MOL0     C24213   4.428   5.329   4.813  0.0031 -0.6108 -0.5844
  184MOL0     O24214   4.432   5.192   4.850  0.4763 -0.3205 -0.1200
  184MOL0     C24215   4.543   5.141   4.912  0.1381 -0.7500 -0.0817
  184MOL0     C24216   4.556   4.993   4.876 -0.4128 -0.7888 -0.4449
  184MOL0     C24217   4.590   4.968   4.728 -0.3031 -0.4014  0.0356
  184MOL0     C24218   4.596   4.822   4.695  1.2452  1.2303 -0.1514
  184MOL0     C24219   4.661   4.791   4.566  0.4291  0.4355 -0.1036
  184MOL0     C24220   4.717   4.754   4.463 -0.6836  0.5925 -0.8209
  184MOL0     C24221   4.339   5.358   4.704  0.5690 -0.1480 -0.5549
  184MOL0     C24222   4.323   5.484   4.657  0.1699 -0.3882  1.2709
  184MOL0     H24223   4.142   5.964   4.668  0.6127  1.7353  1.8871
  184MOL0     H24224   4.163   6.219   4.583  2.2962  1.8883 -1.2137
  184MOL0     H24225   4.512   6.272   4.470  0.2868 -1.5977  3.6241
  184MOL0     H24226   4.381   6.334   4.586  1.4004 -1.8955 -0.1747
  184MOL0     H24227   4.357   6.526   4.432 -0.3862 -0.9513 -1.2939
  184MOL0     H24228   4.487   6.462   4.326 -2.2365 -4.9511 -0.0329
  184MOL0     H24229   4.646   6.506   4.512 -0.4205 -0.5655  0.0677
  184MOL0     H24230   4.522   6.568   4.623 -0.6389  2.3264  0.3729
  184MOL0     H24231   4.644   6.695   4.375 -0.5769  0.8540 -0.1334
  184MOL0     H24232   4.486   6.748   4.439 -0.6269  3.1217  0.7938
  184MOL0     H24233   4.753   6.795   4.579 -0.3620 -4.0005  2.8424
  184MOL0     H24234   4.585   6.804   4.652 -0.5565  2.1719 -0.3689
  184MOL0     H24235   4.623   7.020   4.578 -1.5484 -2.4690  1.2653
  184MOL0     H24236   4.507   6.942   4.462  1.0299 -1.2680 -3.9313
  184MOL0     H24237   4.804   6.949   4.398 -0.1232  0.9070  1.9205
  184MOL0     H24238   4.683   6.924   4.288 -0.8312  0.1583 -0.1944
  184MOL0     H24239   4.743   7.184   4.434 -0.1365 -0.7043  0.6703
  184MOL0     H24240   4.595   7.151   4.315 -0.4015 -4.9475 -2.0353
  184MOL0     H24241   4.706   7.357   4.157 -2.6714 -2.2036 -3.3462
  184MOL0     H24242   4.991   7.334   3.910  0.1760 -0.3655  0.8629
  184MOL0     H24243   4.924   7.467   3.994  1.2342  0.3433 -1.6586
  184MOL0     H24244   4.694   7.442   3.900  0.9920  3.0912 -0.5733
  184MOL0     H24245   4.728   7.277   3.841 -3.3472  1.9864  0.6359
  184MOL0     H24246   4.872   7.360   3.673  1.8922  3.5336 -2.4092
  184MOL0     H24247   4.724   7.464   3.672  0.7708  0.1039 -0.7264
  184MOL0     H24248   5.008   7.534   3.713 -0.2715  2.3826 -0.5013
  184MOL0     H24249   4.904   7.605   3.824  0.3440 -2.9870  1.9359
  184MOL0     H24250   4.990   7.800   3.833  3.4346  3.0228  0.5854
  184MOL0     H24251   5.064   8.013   3.828 -2.0559 -0.4642  0.6393
  184MOL0     H24252   5.196   8.391   3.561  2.6706  0.9553 -0.4966
  184MOL0     H24253   5.290   8.621   3.572  0.4985 -2.3687 -0.3130
  184MOL0     H24254   5.337   8.915   3.899  0.5535  1.1464 -1.2263
  184MOL0     H24255   5.181   8.861   3.954  1.3500 -1.7310  0.3677
  184MOL0     H24256   5.173   9.108   3.902  0.1123 -0.4510  0.3630
  184MOL0     H24257   5.072   9.028   3.782  1.1895 -1.4488 -1.8675
  184MOL0     H24258   5.248   9.038   3.617  1.3162  1.3995 -0.9231
  184MOL0     H24259   5.337   9.134   3.736  0.6078  1.3203 -0.3591
  184MOL0     H24260   5.050   9.202   3.638 -0.5937  1.9525  1.1169
  184MOL0     H24261   5.146   9.288   3.757 -3.9678 -3.9633  2.0351
  184MOL0     H24262   5.174   9.223   3.457 -0.6941  1.3530 -1.2915
  184MOL0     H24263   5.313   9.288   3.557  0.5629 -5.1854  0.4971
  184MOL0     H24264   5.042   9.431   3.511  0.0220 -5.2405 -1.5669
  184MOL0     H24265   5.166   9.463   3.401 -0.1753 -1.9462 -1.1394
  184MOL0     H24266   5.128   9.621   3.589  1.2994  0.9878  0.8640
  184MOL0     H24267   5.200   9.497   3.701 -2.1200 -2.9651 -0.4106
  184MOL0     H24268   5.403   9.487   3.537  0.2235  1.0198 -1.6994
  184MOL0     H24269   5.396   9.625   3.649 -2.6860  3.5630 -0.4774
  184MOL0     H24270   5.083   8.692   3.949 -1.5428  1.1897 -1.7560
  184MOL0     H24271   5.029   8.446   3.946 -1.0337 -1.4971 -1.9170
  184MOL0     H24272   4.928   8.068   3.425 -1.3049  0.9945  1.7177
  184MOL0     H24273   4.885   7.812   3.418 -0.9215  1.6079 -0.8789
  184MOL0     H24274   4.454   6.089   4.310  2.5169 -0.8773  1.8934
  184MOL0     H24275   4.424   5.855   4.365  0.2278  0.3405  0.8660
  184MOL0     H24276   4.580   5.626   4.828  0.2009 -0.6910 -0.2401
  184MOL0     H24277   4.575   5.439   4.947 -0.6226  3.4147  0.9515
  184MOL0     H24278   4.525   5.152   5.019 -0.7255 -1.6016 -0.1208
  184MOL0     H24279   4.637   5.195   4.903 -0.9763  1.4026  0.7031
  184MOL0     H24280   4.635   4.949   4.938  0.2813 -3.2826 -2.9017
  184MOL0     H24281   4.456   4.951   4.892 -1.1801 -0.3416 -3.4250
  184MOL0     H24282   4.684   5.014   4.697 -0.2522 -0.1936  0.4842
  184MOL0     H24283   4.523   5.021   4.659  0.6376  0.9430  0.1283
  184MOL0     H24284   4.650   4.766   4.773  0.8710 -0.2057 -0.8811
  184MOL0     H24285   4.494   4.783   4.695  1.9012 -0.6001 -0.9333
  184MOL0     H24286   4.781   4.709   4.390  0.5963  0.5344  0.2921
  184MOL0     H24287   4.279   5.277   4.665  0.3408 -0.1208 -0.2703
  184MOL0     H24288   4.267   5.504   4.566  2.4165 -0.8042 -0.3207
  185MOL0     O24289   7.536  10.935   9.307  0.9134 -0.7599 -0.1520
  185MOL0     C24290   7.424  10.955   9.261  0.7694  0.9546  0.2726
  185MOL0     O24291   7.303  10.982   9.323 -0.2270 -1.2605 -0.1145
  185MOL0     C24292   7.313  10.969   9.455  0.6766  0.6101  0.0161
  185MOL0     C24293   7.389  11.054   9.537  0.2750  0.2261  0.1679
  185MOL0     C24294   7.390  11.040   9.677  0.1268  0.0691  1.0678
  185MOL0     C24295   7.304  10.947   9.747 -0.1047 -0.9626  0.6239
  185MOL0     O24296   7.295  10.956   9.892 -0.1297  0.0432 -0.0312
  185MOL0     C24297   7.188  10.889   9.960 -0.5623 -0.7449 -0.0607
  185MOL0     C24298   7.250  10.869  10.100 -1.0881  0.3878  0.5814
  185MOL0     C24299   7.153  10.796  10.190  1.0099  0.1929  0.0827
  185MOL0     C24300   7.207  10.794  10.335 -0.0913  0.2311 -0.0181
  185MOL0     C24301   7.147  10.679  10.417 -0.0280  0.1705 -0.1860
  185MOL0     C24302   7.203  10.670  10.559  0.6763 -1.3321  0.0940
  185MOL0     C24303   7.163  10.783  10.649 -0.4582  0.4080 -0.6229
  185MOL0     C24304   7.230  10.753  10.790 -0.5660  0.2088 -0.2581
  185MOL0     N24305   7.173  10.823  10.901 -0.1925 -0.0297 -0.0716
  185MOL0     C24306   7.218  10.933  10.959 -0.7816 -0.5302 -0.1016
  185MOL0     C24307   7.126  10.959  11.058 -0.2987 -0.2233 -0.1938
  185MOL0     C24308   7.126  11.058  11.171  0.2784 -0.6873  0.4013
  185MOL0     C24309   7.257  11.140  11.163  0.1767  0.0366  0.6216
  185MOL0     C24310   7.264  11.239  11.276  0.8088 -0.4684 -1.3738
  185MOL0     C24311   7.146  11.346  11.256 -0.2369  0.4983  0.3693
  185MOL0     O24312   7.190  11.465  11.322 -0.3191  0.8103 -0.1768
  185MOL0     C24313   7.213  11.458  11.452 -0.2601 -1.0600 -0.7880
  185MOL0     C24314   7.146  11.370  11.543 -0.2912 -1.3122 -0.8845
  185MOL0     C24315   7.167  11.384  11.683  0.1159 -0.3436  0.4525
  185MOL0     C24316   7.259  11.481  11.728  0.1984  1.5939 -0.4256
  185MOL0     C24317   7.288  11.483  11.869 -0.0558 -0.8017  0.4532
  185MOL0     O24318   7.209  11.410  11.952  0.2133 -0.0124  0.3917
  185MOL0     C24319   7.257  11.404  12.081 -0.8250 -0.0328  0.2624
  185MOL0     C24320   7.271  11.508  12.174  0.3638  0.0781  0.5408
  185MOL0     C24321   7.344  11.496  12.290 -0.2151  0.7576  0.8352
  185MOL0     C24322   7.396  11.370  12.317 -0.2309 -0.0362  0.8802
  185MOL0     O24323   7.477  11.345  12.427  0.1537 -0.6036  0.2084
  185MOL0     C24324   7.437  11.381  12.556  0.1816  0.2704 -0.4596
  185MOL0     C24325   7.304  11.317  12.604  0.3083 -1.3913  1.1326
  185MOL0     C24326   7.254  11.378  12.734  0.0966 -0.0919  1.4201
  185MOL0     C24327   7.332  11.345  12.865 -0.3618  0.1184 -0.6021
  185MOL0     C24328   7.313  11.200  12.893  0.5020 -0.3404 -0.1892
  185MOL0     C24329   7.358  11.157  13.030 -0.1394  1.0163 -0.0501
  185MOL0     C24330   7.376  11.002  13.039 -0.3040 -0.9773  0.2018
  185MOL0     C24331   7.423  10.956  13.177 -0.4100  0.6518  0.9480
  185MOL0    Cl24332   7.529  10.824  13.165  0.0087  0.1345  0.2936
  185MOL0     C24333   7.378  11.261  12.228  0.7183  0.1693 -0.4275
  185MOL0     C24334   7.310  11.278  12.107  0.1716 -0.1244  0.0134
  185MOL0     O24335   7.372  11.572  11.900  0.5201 -0.4380  0.1600
  185MOL0     C24336   7.324  11.566  11.642  0.6185 -0.2178 -0.0235
  185MOL0     C24337   7.300  11.555  11.504 -0.0137 -0.0602 -0.5870
  185MOL0     N24338   7.033  10.861  11.064  0.3374 -0.3909  0.2574
  185MOL0     N24339   7.066  10.773  10.968  0.6279 -0.0502 -1.2054
  185MOL0     C24340   7.229  10.851   9.669  1.2390  0.5129  0.4707
  185MOL0     C24341   7.233  10.867   9.527  0.0152 -1.7505 -0.1259
  185MOL0     C24342   7.406  10.937   9.111 -0.9079 -0.1124 -0.3171
  185MOL0     C24343   7.276  10.933   9.058 -0.3349  1.0713  0.7871
  185MOL0     C24344   7.257  10.926   8.922 -0.0211 -0.2314 -0.0908
  185MOL0     C24345   7.361  10.919   8.836 -0.3943 -0.6273 -0.1715
  185MOL0     O24346   7.363  10.903   8.699  0.2388 -0.4791  0.2536
  185MOL0     C24347   7.246  10.890   8.623  0.2193  0.2867  0.0364
  185MOL0     C24348   7.231  11.017   8.540  0.1518  0.7457 -0.4659
  185MOL0     C24349   7.341  11.033   8.431  0.0216 -0.0853 -0.2704
  185MOL0     C24350   7.385  11.178   8.425 -0.5733 -0.4875 -0.2676
  185MOL0     C24351   7.286  11.265   8.360 -0.0464  0.1563  0.2662
  185MOL0     C24352   7.206  11.334   8.305 -0.7906 -0.2131  0.8340
  185MOL0     C24353   7.488  10.903   8.888  0.8199  0.2974 -0.4370
  185MOL0     C24354   7.508  10.921   9.023  0.5027  0.4597  0.2427
  185MOL0     H24355   7.450  11.126   9.482  1.6344 -2.0543 -1.4779
  185MOL0     H24356   7.448  11.118   9.726 -0.5259  1.1483  0.1922
  185MOL0     H24357   7.156  10.792   9.920  1.1696 -1.0482 -0.8325
  185MOL0     H24358   7.106  10.960   9.966 -1.0909 -1.4607  2.1195
  185MOL0     H24359   7.292  10.963  10.135  0.7725  0.7230 -2.1842
  185MOL0     H24360   7.339  10.807  10.082 -0.5874  1.4512 -0.7806
  185MOL0     H24361   7.139  10.691  10.164  0.5046  0.1136  0.6522
  185MOL0     H24362   7.052  10.837  10.186  1.0388  0.4145  1.1242
  185MOL0     H24363   7.315  10.773  10.333  0.1564  1.4683 -0.5553
  185MOL0     H24364   7.191  10.884  10.395  0.2551 -0.8149  1.7528
  185MOL0     H24365   7.164  10.582  10.368 -2.2467 -0.2730 -0.1749
  185MOL0     H24366   7.043  10.709  10.425 -0.0872  0.0974 -0.6532
  185MOL0     H24367   7.311  10.658  10.567  0.7672 -2.4103 -2.0487
  185MOL0     H24368   7.165  10.575  10.600  0.5437 -1.2358  0.1939
  185MOL0     H24369   7.193  10.885  10.623  0.8956 -0.1088 -1.1550
  185MOL0     H24370   7.054  10.790  10.660 -0.3484  0.1349  0.9505
  185MOL0     H24371   7.334  10.784  10.782  0.0571 -1.7656 -0.2925
  185MOL0     H24372   7.248  10.648  10.813  3.1992  0.8790  0.5337
  185MOL0     H24373   7.300  10.999  10.932 -1.9232  1.3941  0.9000
  185MOL0     H24374   7.128  10.995  11.260 -0.2499 -0.6883  0.4140
  185MOL0     H24375   7.038  11.122  11.165  1.9874  1.8530  0.5232
  185MOL0     H24376   7.266  11.192  11.067  2.7847 -0.3694  0.5737
  185MOL0     H24377   7.343  11.073  11.165  0.1804 -0.1733 -2.2550
  185MOL0     H24378   7.250  11.201  11.377  1.3659 -0.0390 -1.1324
  185MOL0     H24379   7.368  11.275  11.274  0.8425  0.0465  2.6187
  185MOL0     H24380   7.054  11.305  11.300 -0.9330  1.9584  0.3512
  185MOL0     H24381   7.122  11.363  11.150  0.8244 -1.1002 -0.1615
  185MOL0     H24382   7.081  11.295  11.500  0.9548 -1.9733 -1.6794
  185MOL0     H24383   7.102  11.339  11.758 -0.7846  0.2740  0.0606
  185MOL0     H24384   7.224  11.601  12.142  1.7192  1.0377  1.2481
  185MOL0     H24385   7.352  11.587  12.348 -0.1962 -0.0735  2.1941
  185MOL0     H24386   7.423  11.488  12.539  0.7770 -0.0112 -3.1686
  185MOL0     H24387   7.511  11.360  12.634 -0.8596 -0.6480  0.3235
  185MOL0     H24388   7.308  11.208  12.614  1.3891 -1.1600  3.8249
  185MOL0     H24389   7.230  11.344  12.527 -1.0870 -2.3793  2.0729
  185MOL0     H24390   7.149  11.357  12.754 -0.4805  3.2046  2.4890
  185MOL0     H24391   7.256  11.486  12.717 -1.4085  0.3172  3.5233
  185MOL0     H24392   7.439  11.362  12.852  0.1390  0.2404  2.7071
  185MOL0     H24393   7.300  11.412  12.945  0.4558  0.8053 -0.8403
  185MOL0     H24394   7.369  11.155  12.810  1.8496  0.7193  0.1204
  185MOL0     H24395   7.215  11.156  12.877 -0.3561  1.1352  0.7739
  185MOL0     H24396   7.291  11.191  13.110 -1.5927 -1.1626 -0.2545
  185MOL0     H24397   7.457  11.200  13.048  1.9298 -3.5247  0.7880
  185MOL0     H24398   7.290  10.949  12.998 -0.6964  0.5585 -1.0349
  185MOL0     H24399   7.456  10.983  12.968 -0.8832  1.0277 -1.0572
  185MOL0     H24400   7.341  10.933  13.247 -0.9122 -0.3386  0.0541
  185MOL0     H24401   7.471  11.044  13.222 -2.6493  2.1079  0.6680
  185MOL0     H24402   7.412  11.160  12.250  1.8213  0.3655 -1.1475
  185MOL0     H24403   7.298  11.198  12.035  2.6677 -0.3080 -0.2764
  185MOL0     H24404   7.407  11.631  11.667  2.5840 -2.9078  0.8414
  185MOL0     H24405   7.347  11.628  11.438 -1.9735  1.5898 -0.2557
  185MOL0     H24406   7.173  10.763   9.700  2.9148 -0.0350  2.1275
  185MOL0     H24407   7.166  10.807   9.468 -0.5764 -0.5469 -0.7203
  185MOL0     H24408   7.186  10.950   9.116 -0.6312  1.2950  0.2732
  185MOL0     H24409   7.153  10.930   8.890 -0.6741 -1.8019  1.6530
  185MOL0     H24410   7.155  10.864   8.678  1.5552  0.4408  2.4820
  185MOL0     H24411   7.256  10.807   8.553 -4.0399  2.0719 -3.1941
  185MOL0     H24412   7.135  11.000   8.492  0.9789 -4.3965 -0.8489
  185MOL0     H24413   7.221  11.106   8.602  2.9358 -0.2236  1.5900
  185MOL0     H24414   7.299  11.008   8.333 -0.6753 -0.7976  0.1981
  185MOL0     H24415   7.425  10.965   8.441  0.0308 -0.4403 -2.3851
  185MOL0     H24416   7.392  11.213   8.528 -3.6354  0.0784 -0.1437
  185MOL0     H24417   7.486  11.185   8.383 -1.0620  2.3220 -1.2067
  185MOL0     H24418   7.132  11.409   8.286  2.2291  2.4658 -1.5455
  185MOL0     H24419   7.572  10.890   8.821  1.7115  0.3319  0.6358
  185MOL0     H24420   7.612  10.931   9.052  0.4133 -2.1160  1.8044
  186MOL0     O24421   6.696   1.100   4.118  0.1687 -0.5695  0.8169
  186MOL0     C24422   6.608   1.028   4.168 -0.0002 -0.1354  0.1467
  186MOL0     O24423   6.632   0.910   4.232  0.2486  0.7596 -0.2520
  186MOL0     C24424   6.763   0.882   4.226 -0.6379 -0.4464  0.1395
  186MOL0     C24425   6.836   0.879   4.344 -0.2058  0.3200  0.2149
  186MOL0     C24426   6.951   0.803   4.342  0.2090 -0.3651  0.4763
  186MOL0     C24427   7.003   0.762   4.219  0.0557 -0.2448  0.0498
  186MOL0     O24428   7.119   0.691   4.224  0.5666 -0.2072  1.3340
  186MOL0     C24429   7.230   0.773   4.190  0.5907  0.1304 -0.3339
  186MOL0     C24430   7.287   0.750   4.062  0.0032  0.5980  0.7447
  186MOL0     C24431   7.420   0.833   4.046 -0.0433 -0.5428 -0.0767
  186MOL0     C24432   7.521   0.768   3.939  0.1317  0.5162 -0.6955
  186MOL0     C24433   7.470   0.766   3.790 -0.2408 -0.3619 -1.3121
  186MOL0     C24434   7.451   0.902   3.730  0.5781 -0.5545  0.8196
  186MOL0     C24435   7.440   0.895   3.571 -0.3387 -0.7855  0.5718
  186MOL0     C24436   7.573   0.933   3.510  0.5169  1.0063 -1.3106
  186MOL0     N24437   7.569   0.926   3.366 -0.7807 -0.7683  0.1226
  186MOL0     C24438   7.606   0.818   3.285  0.1920  0.1620  0.4811
  186MOL0     C24439   7.613   0.874   3.158  0.7373 -0.6607  0.7031
  186MOL0     C24440   7.670   0.805   3.028  0.7685 -0.0659 -0.0964
  186MOL0     C24441   7.563   0.784   2.917  1.1061 -0.1321  0.0780
  186MOL0     C24442   7.611   0.708   2.803 -0.7508  1.1605  0.5272
  186MOL0     C24443   7.614   0.779   2.662  0.0701  0.0981  0.8700
  186MOL0     O24444   7.589   0.694   2.553 -0.3635 -0.4682  0.4491
  186MOL0     C24445   7.693   0.629   2.482  0.2050  0.3905  0.4628
  186MOL0     C24446   7.831   0.615   2.520 -0.5320 -0.7686 -0.2852
  186MOL0     C24447   7.916   0.536   2.436 -0.1403 -0.5905  0.1413
  186MOL0     C24448   7.875   0.502   2.304 -0.1512 -1.1079 -0.4369
  186MOL0     C24449   7.974   0.438   2.218 -0.4164 -0.3901  1.3624
  186MOL0     O24450   8.079   0.367   2.267  0.1220 -0.9096  0.2307
  186MOL0     C24451   8.175   0.323   2.184 -0.3369  0.2353 -0.2990
  186MOL0     C24452   8.251   0.400   2.096  0.1927 -0.3856 -0.0209
  186MOL0     C24453   8.382   0.356   2.040 -0.0489 -1.0333 -0.9407
  186MOL0     C24454   8.430   0.226   2.073  0.3033  1.5293 -0.3205
  186MOL0     O24455   8.537   0.160   2.017  0.4614 -0.3206  0.2369
  186MOL0     C24456   8.595   0.217   1.903 -0.2606 -0.5403  0.1806
  186MOL0     C24457   8.741   0.162   1.898 -0.3742 -1.3841  0.4696
  186MOL0     C24458   8.826   0.198   2.021 -0.4997 -0.0721 -0.6556
  186MOL0     C24459   8.854   0.344   2.037  0.4414 -0.7755 -0.2249
  186MOL0     C24460   8.997   0.379   2.086 -0.1713  0.4909  0.5551
  186MOL0     C24461   9.100   0.357   1.968  0.5073 -0.6966  0.6969
  186MOL0     C24462   9.143   0.475   1.889 -0.3156 -0.9247 -0.1558
  186MOL0     C24463   9.228   0.446   1.764  0.3750 -0.0213  0.0068
  186MOL0    Cl24464   9.256   0.583   1.662 -0.1671  0.4280  0.2100
  186MOL0     C24465   8.346   0.141   2.151  0.7042  0.7461  0.0812
  186MOL0     C24466   8.226   0.198   2.212  0.2579 -0.1422  0.1316
  186MOL0     O24467   7.952   0.442   2.099 -0.0600 -0.2948  0.7358
  186MOL0     C24468   7.740   0.521   2.256  0.7299 -0.5339 -0.8965
  186MOL0     C24469   7.658   0.584   2.346  0.3132  0.3345 -0.8253
  186MOL0     N24470   7.574   1.010   3.171  1.2234 -0.0123 -0.3716
  186MOL0     N24471   7.538   1.044   3.291 -0.6123  0.3228 -0.5221
  186MOL0     C24472   6.930   0.779   4.100  0.5827  0.3948 -0.0507
  186MOL0     C24473   6.805   0.837   4.101  0.4170  0.8922 -0.2826
  186MOL0     C24474   6.471   1.043   4.125 -0.8723  0.2577  0.4675
  186MOL0     C24475   6.376   0.938   4.156  0.7093 -0.6924  0.7067
  186MOL0     C24476   6.245   0.951   4.109  1.1454 -1.1313  0.7475
  186MOL0     C24477   6.196   1.073   4.053 -0.1292 -0.3479 -0.9949
  186MOL0     O24478   6.053   1.086   4.031 -0.5542  0.6495 -1.1705
  186MOL0     C24479   6.000   1.205   3.972 -0.4470  0.4765 -0.8949
  186MOL0     C24480   5.852   1.186   3.926 -1.6384 -0.0062 -0.3898
  186MOL0     C24481   5.809   1.315   3.856  0.0058 -0.5892 -0.6189
  186MOL0     C24482   5.771   1.419   3.955 -0.5141 -0.2476 -0.1024
  186MOL0     C24483   5.757   1.546   3.884 -1.0472 -0.1347  0.9748
  186MOL0     C24484   5.733   1.664   3.855 -0.1950 -0.3379  0.1745
  186MOL0     C24485   6.285   1.175   4.032 -1.3672  0.4109  0.4808
  186MOL0     C24486   6.421   1.161   4.063  0.3343  0.1640  0.3544
  186MOL0     H24487   6.800   0.931   4.432 -1.9930  0.7293 -0.7143
  186MOL0     H24488   7.009   0.795   4.434 -0.1951  0.6959  0.8406
  186MOL0     H24489   7.306   0.762   4.267 -0.3655 -1.6403  0.4179
  186MOL0     H24490   7.208   0.880   4.196 -0.9239 -0.2102  0.9543
  186MOL0     H24491   7.219   0.763   3.978 -2.3511 -0.6746  2.3554
  186MOL0     H24492   7.332   0.651   4.059  0.2642  0.7337 -0.4529
  186MOL0     H24493   7.475   0.850   4.139 -0.2749 -0.5904  0.0702
  186MOL0     H24494   7.389   0.933   4.015 -2.0412 -0.8670  0.7077
  186MOL0     H24495   7.605   0.837   3.932 -1.6173  3.1173  1.5879
  186MOL0     H24496   7.549   0.669   3.977 -2.0676  0.3888  0.8112
  186MOL0     H24497   7.384   0.699   3.779 -0.1062 -0.4467 -1.8724
  186MOL0     H24498   7.546   0.704   3.741 -0.3425 -1.4849 -0.1282
  186MOL0     H24499   7.529   0.972   3.761  2.1144  0.2146 -3.9612
  186MOL0     H24500   7.353   0.942   3.758  0.8950  1.6582 -0.9701
  186MOL0     H24501   7.402   0.796   3.545 -2.3841  0.2525 -0.5922
  186MOL0     H24502   7.365   0.962   3.529 -1.8124 -3.2185 -0.9305
  186MOL0     H24503   7.652   0.872   3.556  1.4895  3.0285 -0.1392
  186MOL0     H24504   7.603   1.031   3.549 -0.2551  0.3841  0.9550
  186MOL0     H24505   7.633   0.717   3.315  1.7620 -0.2381 -1.9685
  186MOL0     H24506   7.714   0.708   3.051 -0.2105 -0.5455 -0.1937
  186MOL0     H24507   7.756   0.859   2.988  2.6421 -2.2068  0.7944
  186MOL0     H24508   7.528   0.884   2.890 -1.1881  0.0339  3.1675
  186MOL0     H24509   7.482   0.727   2.964 -2.0876  0.8133 -3.7511
  186MOL0     H24510   7.711   0.672   2.826 -0.5055  0.4431 -1.4432
  186MOL0     H24511   7.543   0.623   2.790  1.6588 -0.9420  1.0243
  186MOL0     H24512   7.706   0.838   2.656  0.2741 -0.0265  2.4680
  186MOL0     H24513   7.538   0.858   2.653  3.2102  3.1101 -3.6072
  186MOL0     H24514   7.860   0.655   2.617  1.0322 -0.5340 -0.8156
  186MOL0     H24515   8.017   0.527   2.473  0.1905 -0.6819 -0.7751
  186MOL0     H24516   8.214   0.502   2.088  3.8499  1.3953  2.6699
  186MOL0     H24517   8.438   0.426   1.979 -0.6840 -0.8034 -1.2599
  186MOL0     H24518   8.600   0.327   1.906  0.7779 -0.5828  0.4867
  186MOL0     H24519   8.551   0.167   1.817  1.1990 -3.7364  1.1536
  186MOL0     H24520   8.783   0.212   1.810 -3.0700  1.4428  0.6054
  186MOL0     H24521   8.741   0.053   1.893 -1.0954 -1.6417  3.7886
  186MOL0     H24522   8.920   0.144   2.006 -1.7455 -1.5070 -4.9561
  186MOL0     H24523   8.772   0.157   2.107 -0.1076 -1.2659 -0.9597
  186MOL0     H24524   8.846   0.372   1.932  3.1850 -0.7312 -0.5013
  186MOL0     H24525   8.779   0.399   2.095  0.0698  1.3604 -2.5430
  186MOL0     H24526   9.019   0.311   2.168  0.8619  1.3493  1.0158
  186MOL0     H24527   8.997   0.478   2.133 -2.2942  2.5136 -3.1877
  186MOL0     H24528   9.055   0.285   1.899  1.0817 -0.5881  0.1992
  186MOL0     H24529   9.191   0.309   2.004  0.1535  0.0498  2.7162
  186MOL0     H24530   9.051   0.516   1.847  0.3364  0.1746 -0.5459
  186MOL0     H24531   9.202   0.552   1.939 -2.2019 -0.8392  2.1208
  186MOL0     H24532   9.172   0.373   1.704 -1.6495  1.8550 -0.5459
  186MOL0     H24533   9.322   0.401   1.797  1.8249  1.5993 -1.6932
  186MOL0     H24534   8.390   0.043   2.170 -2.8276 -0.8748  0.6785
  186MOL0     H24535   8.176   0.138   2.287  1.3343 -1.2854 -0.0373
  186MOL0     H24536   7.698   0.514   2.156  1.1237  1.0091 -1.2002
  186MOL0     H24537   7.552   0.596   2.324  0.9345  1.7668 -3.4128
  186MOL0     H24538   6.971   0.732   4.011  0.5564  2.3638 -1.1660
  186MOL0     H24539   6.753   0.824   4.006  0.0007 -2.5559  0.2739
  186MOL0     H24540   6.408   0.841   4.192  0.1198 -0.1652  2.7992
  186MOL0     H24541   6.162   0.885   4.134  0.0790 -0.3368 -0.5942
  186MOL0     H24542   6.058   1.247   3.889 -1.3123  3.5056 -0.0835
  186MOL0     H24543   6.013   1.272   4.057  0.2694 -3.0934  2.0681
  186MOL0     H24544   5.852   1.104   3.855  1.5973  0.1059 -0.6265
  186MOL0     H24545   5.783   1.158   4.007 -0.7238 -3.7525 -0.7366
  186MOL0     H24546   5.721   1.305   3.792 -1.4750  3.4084  0.4926
  186MOL0     H24547   5.887   1.350   3.787  4.9769 -1.7605  3.7307
  186MOL0     H24548   5.675   1.397   4.002 -1.2613 -4.5139 -3.0168
  186MOL0     H24549   5.845   1.432   4.034  2.0041  2.3230 -2.6522
  186MOL0     H24550   5.714   1.770   3.848  1.0422 -0.2091 -2.4761
  186MOL0     H24551   6.251   1.258   3.972 -0.2511  0.0471 -0.7030
  186MOL0     H24552   6.495   1.236   4.038 -1.1372  1.5666  0.0752
  187MOL0     O24553   0.231   3.402   3.873  0.3177  0.2444 -0.4484
  187MOL0     C24554   0.155   3.499   3.873  0.3511  0.6134 -0.3487
  187MOL0     O24555   0.057   3.525   3.980  0.3604 -0.0507  0.7064
  187MOL0     C24556   0.030   3.416   4.067 -0.5503 -0.9997  0.2525
  187MOL0     C24557   0.005   3.441   4.196  0.1330 -0.6679 -0.3868
  187MOL0     C24558  -0.028   3.336   4.289  0.7572 -0.2564  0.0751
  187MOL0     C24559  -0.040   3.201   4.233 -0.6765 -0.4309 -0.0619
  187MOL0     O24560  -0.047   3.100   4.319 -0.4510  0.7015  0.0112
  187MOL0     C24561  -0.109   2.979   4.267  0.2258  0.4181 -0.7802
  187MOL0     C24562  -0.138   2.881   4.376 -0.0959  0.6396 -0.0331
  187MOL0     C24563  -0.225   2.763   4.331  0.5929 -0.2385 -1.1821
  187MOL0     C24564  -0.255   2.679   4.465 -0.3339  0.3927 -0.0828
  187MOL0     C24565  -0.332   2.549   4.466  0.4634 -0.5682 -0.3157
  187MOL0     C24566  -0.460   2.565   4.392  0.8351  0.0611  0.2981
  187MOL0     C24567  -0.540   2.433   4.402 -0.3508  0.8191  0.0541
  187MOL0     C24568  -0.491   2.340   4.292  0.1792  0.7062 -0.1755
  187MOL0     N24569  -0.588   2.226   4.278  0.5417 -0.2305 -0.1780
  187MOL0     C24570  -0.683   2.226   4.175  0.3727  0.0795 -0.1698
  187MOL0     C24571  -0.742   2.110   4.194 -0.4262 -0.3537  0.8161
  187MOL0     C24572  -0.854   2.069   4.108 -0.6309  0.1985  0.5128
  187MOL0     C24573  -0.981   2.085   4.192  0.4462  0.3720  0.6946
  187MOL0     C24574  -0.998   2.008   4.330 -0.3644  0.1661 -0.3951
  187MOL0     C24575  -1.132   2.033   4.388  0.2625  0.0855  0.3095
  187MOL0     O24576  -1.141   1.953   4.507 -0.2132  0.6132 -0.4606
  187MOL0     C24577  -1.180   1.817   4.492 -0.8529  0.6310 -0.0958
  187MOL0     C24578  -1.228   1.758   4.376 -0.5962  0.6133  0.3970
  187MOL0     C24579  -1.244   1.622   4.368 -0.1160  0.9557 -0.3907
  187MOL0     C24580  -1.205   1.528   4.471 -0.5410  0.4331  0.1940
  187MOL0     C24581  -1.220   1.386   4.453  1.2099  0.1256 -0.1528
  187MOL0     O24582  -1.247   1.304   4.557  0.8337  0.3205  0.4308
  187MOL0     C24583  -1.314   1.186   4.520 -0.6835  0.9356 -0.1810
  187MOL0     C24584  -1.240   1.068   4.534 -0.3976  0.7581 -0.6514
  187MOL0     C24585  -1.299   0.945   4.523  0.6610 -0.1770 -0.3112
  187MOL0     C24586  -1.437   0.930   4.492 -0.4197  0.2768  0.5103
  187MOL0     O24587  -1.502   0.808   4.490  0.1747 -0.3629 -0.4348
  187MOL0     C24588  -1.603   0.788   4.590 -0.4572  0.0543  0.2869
  187MOL0     C24589  -1.534   0.736   4.719 -0.0288  0.8070 -0.2541
  187MOL0     C24590  -1.477   0.592   4.699 -0.1834  0.1059  0.2319
  187MOL0     C24591  -1.576   0.476   4.717  0.5296 -0.1772 -0.2507
  187MOL0     C24592  -1.653   0.432   4.592  0.4047  0.1197 -0.2044
  187MOL0     C24593  -1.755   0.335   4.662  0.4371  0.3393  0.1975
  187MOL0     C24594  -1.853   0.275   4.561  0.8512 -0.1331  0.2270
  187MOL0     C24595  -1.938   0.159   4.616 -0.5554  0.4101  0.0300
  187MOL0    Cl24596  -2.039   0.244   4.740 -0.5870 -0.3230 -0.1502
  187MOL0     C24597  -1.509   1.049   4.479 -0.5152  0.1055  0.0956
  187MOL0     C24598  -1.452   1.169   4.513  1.3550 -0.9055  0.5114
  187MOL0     O24599  -1.201   1.348   4.334  0.7211 -0.1637 -0.2533
  187MOL0     C24600  -1.144   1.585   4.588 -0.1188  0.1576  0.4460
  187MOL0     C24601  -1.142   1.729   4.602  0.4710 -0.5244 -0.4039
  187MOL0     N24602  -0.678   2.042   4.296 -0.1541  0.8423  0.1474
  187MOL0     N24603  -0.594   2.120   4.353  0.2977 -0.4615 -0.4006
  187MOL0     C24604  -0.027   3.183   4.096  0.3670 -0.5535  0.3656
  187MOL0     C24605  -0.000   3.292   4.012  0.0944  0.9828 -0.2531
  187MOL0     C24606   0.174   3.597   3.772 -0.2402  0.1083  0.9433
  187MOL0     C24607   0.085   3.705   3.736  0.9880  0.5573 -0.2504
  187MOL0     C24608   0.121   3.796   3.637  1.3165 -0.1782 -0.0997
  187MOL0     C24609   0.228   3.798   3.564 -0.3744  0.9608  0.6599
  187MOL0     O24610   0.250   3.879   3.456 -0.4286 -0.1475  0.2261
  187MOL0     C24611   0.175   4.003   3.449  0.0802 -0.7986 -0.1485
  187MOL0     C24612   0.055   3.994   3.356  1.5066 -0.5463  0.1291
  187MOL0     C24613   0.098   3.979   3.204 -0.8894 -0.3410  0.0071
  187MOL0     C24614   0.092   3.832   3.152  0.6202  0.7864 -0.0708
  187MOL0     C24615  -0.047   3.789   3.133 -0.4914  0.1120 -0.3733
  187MOL0     C24616  -0.166   3.770   3.115 -0.6050 -0.0960 -0.0559
  187MOL0     C24617   0.328   3.699   3.616  0.0520  1.2012  1.0350
  187MOL0     C24618   0.301   3.598   3.708  0.5762 -0.2253 -0.5986
  187MOL0     H24619   0.004   3.543   4.233 -4.2916 -1.9364  4.2232
  187MOL0     H24620  -0.043   3.338   4.396  2.0374 -0.1472  0.2779
  187MOL0     H24621  -0.036   2.933   4.199  1.3053  5.1658 -3.2719
  187MOL0     H24622  -0.202   2.994   4.212 -0.0617 -1.7927 -0.9970
  187MOL0     H24623  -0.196   2.937   4.450 -1.2103 -1.9843  1.1693
  187MOL0     H24624  -0.053   2.853   4.439 -1.0515 -1.9856  0.1885
  187MOL0     H24625  -0.171   2.692   4.267 -0.0720 -3.1256  1.2520
  187MOL0     H24626  -0.319   2.797   4.289 -0.7853 -2.8677 -0.4402
  187MOL0     H24627  -0.158   2.654   4.510  0.9674  2.9766 -1.2738
  187MOL0     H24628  -0.298   2.748   4.539  3.3383 -0.1530  2.8499
  187MOL0     H24629  -0.348   2.512   4.568  2.8484  1.5360  0.9367
  187MOL0     H24630  -0.279   2.458   4.437 -1.2095 -2.4574  2.0638
  187MOL0     H24631  -0.446   2.597   4.288 -1.8594  0.5399  0.0082
  187MOL0     H24632  -0.525   2.642   4.434 -2.3990 -1.7458 -1.0154
  187MOL0     H24633  -0.537   2.390   4.502  2.0887  2.4553  0.8071
  187MOL0     H24634  -0.643   2.455   4.375 -0.4741 -1.5341 -1.7461
  187MOL0     H24635  -0.394   2.300   4.325 -1.3248 -1.3436  2.1382
  187MOL0     H24636  -0.488   2.392   4.196 -2.1848  0.6603 -0.3307
  187MOL0     H24637  -0.702   2.304   4.101 -1.7132  0.5391  0.7706
  187MOL0     H24638  -0.840   1.965   4.077 -0.5792 -0.3738  2.3750
  187MOL0     H24639  -0.871   2.132   4.019  1.8675  0.1258 -0.0920
  187MOL0     H24640  -1.066   2.041   4.140  1.5902 -2.9945  1.3981
  187MOL0     H24641  -0.994   2.193   4.204  2.9445  0.8547 -0.3501
  187MOL0     H24642  -0.972   1.902   4.331 -2.1517 -0.3094 -0.0188
  187MOL0     H24643  -0.928   2.041   4.407  0.0705 -4.7433  1.6782
  187MOL0     H24644  -1.211   2.017   4.314 -0.3692 -5.8277  1.7357
  187MOL0     H24645  -1.141   2.137   4.419  0.3680  0.0195  0.5638
  187MOL0     H24646  -1.245   1.816   4.286  3.3647 -1.0427 -1.7043
  187MOL0     H24647  -1.285   1.588   4.274 -0.5158  0.2474  0.0328
  187MOL0     H24648  -1.139   1.077   4.573 -0.1768 -0.7775 -0.7890
  187MOL0     H24649  -1.238   0.859   4.547  1.4388  1.1205  2.7588
  187MOL0     H24650  -1.668   0.708   4.552 -2.4276  1.0352  1.4347
  187MOL0     H24651  -1.667   0.873   4.617 -0.9658 -0.6674  1.3772
  187MOL0     H24652  -1.599   0.745   4.807  0.7113 -1.0568  0.5369
  187MOL0     H24653  -1.454   0.810   4.721 -1.9540  3.3532 -4.1406
  187MOL0     H24654  -1.396   0.566   4.768  0.1943 -3.1560 -1.2534
  187MOL0     H24655  -1.432   0.599   4.599 -1.3690  4.2324 -0.1714
  187MOL0     H24656  -1.516   0.389   4.746 -1.2944 -0.6071  2.6059
  187MOL0     H24657  -1.645   0.500   4.799  2.4114 -2.5427  2.1919
  187MOL0     H24658  -1.591   0.375   4.523 -0.2793 -1.3133  0.3123
  187MOL0     H24659  -1.705   0.514   4.541 -2.7953 -1.6050  0.0315
  187MOL0     H24660  -1.814   0.389   4.737  2.7762  2.0692  0.8949
  187MOL0     H24661  -1.706   0.252   4.714  3.4748  1.1690 -1.1075
  187MOL0     H24662  -1.906   0.363   4.524  1.7071  1.3495  2.3896
  187MOL0     H24663  -1.794   0.227   4.482  1.1978 -2.1025  1.5877
  187MOL0     H24664  -1.880   0.072   4.648  0.1255  0.2173 -1.6195
  187MOL0     H24665  -2.008   0.108   4.550  1.5016 -3.7278  0.7225
  187MOL0     H24666  -1.614   1.039   4.455 -0.4078 -1.1356  0.0515
  187MOL0     H24667  -1.526   1.249   4.513 -2.8961 -4.4081  0.5081
  187MOL0     H24668  -1.097   1.520   4.661  0.7654 -1.1927 -1.2668
  187MOL0     H24669  -1.099   1.784   4.686 -1.5684  1.0276 -0.3057
  187MOL0     H24670  -0.031   3.085   4.049  2.3147  0.9199 -3.2715
  187MOL0     H24671   0.004   3.287   3.904 -1.2564 -1.0824 -0.2586
  187MOL0     H24672  -0.008   3.715   3.792  0.0452  2.6091 -2.0451
  187MOL0     H24673   0.036   3.863   3.627 -1.3123 -3.2825 -0.1280
  187MOL0     H24674   0.241   4.084   3.419  0.2751 -1.5313 -1.8142
  187MOL0     H24675   0.135   4.038   3.545 -0.0607 -0.4296 -0.3435
  187MOL0     H24676  -0.012   3.919   3.396  1.5035 -0.0639  1.0474
  187MOL0     H24677   0.009   4.093   3.363  1.8233 -0.4197  0.4766
  187MOL0     H24678   0.196   4.022   3.178 -2.0763  1.4505 -1.7558
  187MOL0     H24679   0.029   4.048   3.156 -2.6752 -2.2039 -0.2084
  187MOL0     H24680   0.150   3.823   3.060 -0.9121  1.0145 -1.1125
  187MOL0     H24681   0.136   3.769   3.230  2.3741 -2.2828 -3.2741
  187MOL0     H24682  -0.273   3.774   3.111 -0.5578  0.3715 -1.8467
  187MOL0     H24683   0.426   3.704   3.569  1.2935 -3.5804  2.4581
  187MOL0     H24684   0.378   3.528   3.739 -0.5388 -1.5247 -0.6707
  188MOL0     O24685   5.058   1.181   5.883  0.2136  0.0420  0.0540
  188MOL0     C24686   5.027   1.065   5.877  0.2251  0.1361 -0.2797
  188MOL0     O24687   4.908   1.013   5.918  0.1899 -0.2070  0.7345
  188MOL0     C24688   4.803   1.094   5.961 -0.4169 -0.0408 -0.2364
  188MOL0     C24689   4.821   1.214   6.035  0.8148  0.0627  0.3810
  188MOL0     C24690   4.713   1.272   6.098  0.3319 -0.1936 -0.3976
  188MOL0     C24691   4.583   1.230   6.080  0.5116  0.0173  0.0133
  188MOL0     O24692   4.469   1.296   6.128  0.0912 -0.3097 -0.6284
  188MOL0     C24693   4.485   1.423   6.182  0.0171  0.3593 -0.2317
  188MOL0     C24694   4.504   1.539   6.088 -0.2676  0.2702  0.0990
  188MOL0     C24695   4.555   1.671   6.146  0.5345 -0.1764  0.7845
  188MOL0     C24696   4.434   1.742   6.214  0.6635  0.2566 -0.3716
  188MOL0     C24697   4.354   1.833   6.105  1.1748  0.6814 -1.3207
  188MOL0     C24698   4.333   1.970   6.174  1.1035  0.0946 -1.0186
  188MOL0     C24699   4.218   1.987   6.281 -0.6074 -0.0200 -0.4719
  188MOL0     C24700   4.235   1.902   6.412 -0.2463  0.4411 -0.3619
  188MOL0     N24701   4.363   1.922   6.476 -0.2585  0.1337  0.4074
  188MOL0     C24702   4.407   2.040   6.530  0.4323  0.3784  0.8511
  188MOL0     C24703   4.504   2.004   6.618  0.0457 -0.2294  0.4939
  188MOL0     C24704   4.578   2.078   6.721 -0.8219 -0.7759 -0.1534
  188MOL0     C24705   4.717   2.142   6.658  0.4190 -0.2036 -0.3907
  188MOL0     C24706   4.685   2.261   6.584  0.0741  0.4680  0.3795
  188MOL0     C24707   4.789   2.376   6.606 -1.1498  0.7428  0.4192
  188MOL0     O24708   4.790   2.417   6.738  0.2372 -0.0446  0.3343
  188MOL0     C24709   4.807   2.550   6.758  0.3181  0.4031  0.2488
  188MOL0     C24710   4.740   2.611   6.861 -0.2575  1.0952 -1.5194
  188MOL0     C24711   4.768   2.743   6.889  0.4686  0.0130  0.0208
  188MOL0     C24712   4.871   2.822   6.823  0.5290 -0.5599  0.2064
  188MOL0     C24713   4.906   2.965   6.859 -0.1537 -0.1710 -0.1894
  188MOL0     O24714   4.993   3.043   6.777  0.6247 -0.5036 -0.1614
  188MOL0     C24715   5.028   3.169   6.815 -0.7706 -0.6519 -0.5811
  188MOL0     C24716   4.955   3.281   6.775 -0.1566 -0.5369  0.5533
  188MOL0     C24717   5.008   3.410   6.810 -0.3461 -0.2131 -0.3271
  188MOL0     C24718   5.117   3.427   6.896 -0.0581 -0.0047 -0.4698
  188MOL0     O24719   5.150   3.551   6.940  0.5394 -0.1137  0.6071
  188MOL0     C24720   5.259   3.614   6.871 -0.0043  0.3476 -0.0837
  188MOL0     C24721   5.249   3.669   6.723  1.1998 -0.3736  1.5282
  188MOL0     C24722   5.164   3.797   6.708  1.1088  0.1755  0.4778
  188MOL0     C24723   5.167   3.850   6.567 -0.5027  1.0147 -1.0348
  188MOL0     C24724   5.101   3.989   6.562 -0.5608  0.7309 -0.8308
  188MOL0     C24725   4.949   3.982   6.564 -0.4895 -0.0839 -0.6564
  188MOL0     C24726   4.873   4.120   6.541  0.2532  0.0451 -1.0808
  188MOL0     C24727   4.853   4.165   6.398 -0.1402  0.3911  0.6031
  188MOL0    Cl24728   5.012   4.165   6.314 -0.5035  0.1919  0.0401
  188MOL0     C24729   5.193   3.317   6.927  0.1512  0.7131 -0.1036
  188MOL0     C24730   5.145   3.185   6.895  0.8525  0.4522 -0.0079
  188MOL0     O24731   4.873   2.991   6.979  0.9802  0.0205  1.0332
  188MOL0     C24732   4.945   2.746   6.726 -0.2838 -0.4195 -0.1156
  188MOL0     C24733   4.906   2.617   6.686  0.5111 -0.8121 -0.4580
  188MOL0     N24734   4.506   1.862   6.617 -0.7819 -0.4377  0.5322
  188MOL0     N24735   4.430   1.819   6.535  0.0749 -0.6442  0.3914
  188MOL0     C24736   4.570   1.107   6.008  0.4218 -0.1061  0.3210
  188MOL0     C24737   4.680   1.040   5.958  0.2446  0.6914  1.3597
  188MOL0     C24738   5.118   0.969   5.818  0.2508 -0.0917  0.1086
  188MOL0     C24739   5.245   1.003   5.771 -0.2636  0.4873 -0.7093
  188MOL0     C24740   5.332   0.906   5.716 -0.8292 -0.6859  0.0699
  188MOL0     C24741   5.283   0.779   5.683  0.2845  0.3155 -0.6145
  188MOL0     O24742   5.373   0.692   5.632  0.0444 -0.2938  0.2156
  188MOL0     C24743   5.390   0.572   5.715  0.1870 -0.4481  0.7126
  188MOL0     C24744   5.414   0.600   5.865  0.0351 -0.5529  0.1016
  188MOL0     C24745   5.434   0.480   5.950 -0.6961 -0.3834 -1.1319
  188MOL0     C24746   5.307   0.388   5.980 -0.4318 -0.1229 -0.0717
  188MOL0     C24747   5.177   0.458   6.017  0.0527  0.4487 -0.8059
  188MOL0     C24748   5.083   0.526   6.047 -0.1619  0.5085 -0.2350
  188MOL0     C24749   5.153   0.743   5.719  0.7269  0.0354 -0.0211
  188MOL0     C24750   5.075   0.836   5.797 -0.5759  0.4538  0.5633
  188MOL0     H24751   4.923   1.246   6.056  1.0221  0.4555 -1.1373
  188MOL0     H24752   4.742   1.362   6.151 -0.1173 -0.5875  0.5483
  188MOL0     H24753   4.568   1.414   6.253 -1.7035 -1.8817  1.6397
  188MOL0     H24754   4.400   1.438   6.249 -0.5936  1.4094 -1.2051
  188MOL0     H24755   4.407   1.540   6.039 -1.3781 -2.8558  1.9515
  188MOL0     H24756   4.570   1.514   6.004 -0.5076  3.1321 -1.0594
  188MOL0     H24757   4.596   1.734   6.066  1.6010 -2.8902 -0.9718
  188MOL0     H24758   4.638   1.657   6.215  1.3386 -3.2103 -0.6229
  188MOL0     H24759   4.374   1.678   6.281  0.8804 -1.5822 -1.8413
  188MOL0     H24760   4.499   1.801   6.279 -0.2891 -0.1088  0.9694
  188MOL0     H24761   4.254   1.792   6.086 -0.3276  2.1518  2.4546
  188MOL0     H24762   4.412   1.837   6.013 -0.2150 -4.7493 -2.8371
  188MOL0     H24763   4.297   2.033   6.092  0.3172 -1.3135 -1.7986
  188MOL0     H24764   4.430   1.996   6.216  0.7458 -1.9717  1.3321
  188MOL0     H24765   4.212   2.092   6.314  3.5185 -0.4522  2.4115
  188MOL0     H24766   4.117   1.967   6.245 -0.8937  3.3009 -1.9558
  188MOL0     H24767   4.214   1.797   6.390 -1.1118  0.9518 -2.1668
  188MOL0     H24768   4.155   1.927   6.483  1.4812 -0.3983  2.0011
  188MOL0     H24769   4.375   2.140   6.502 -1.0959  0.7840  3.6898
  188MOL0     H24770   4.618   2.010   6.798 -1.9075 -0.4726  0.7047
  188MOL0     H24771   4.514   2.154   6.766 -1.2446 -0.2249 -1.6563
  188MOL0     H24772   4.754   2.055   6.603  0.5879 -0.9563  0.8695
  188MOL0     H24773   4.782   2.172   6.741 -2.2972  2.4744  0.9917
  188MOL0     H24774   4.685   2.227   6.480  0.3576 -0.2447  0.6049
  188MOL0     H24775   4.589   2.306   6.612  0.1262  0.2322  0.9423
  188MOL0     H24776   4.747   2.457   6.545 -5.4286 -0.6745  1.1073
  188MOL0     H24777   4.889   2.354   6.568 -1.5408 -0.2999 -0.0476
  188MOL0     H24778   4.661   2.565   6.920 -0.1458  1.0330 -1.4187
  188MOL0     H24779   4.713   2.790   6.970 -1.7100 -2.4163  0.1097
  188MOL0     H24780   4.874   3.286   6.702 -1.6566 -0.4492  2.1750
  188MOL0     H24781   4.958   3.498   6.772  0.4723  0.2698 -0.3223
  188MOL0     H24782   5.348   3.550   6.877  0.1718  0.5493 -0.5459
  188MOL0     H24783   5.278   3.702   6.933 -0.4314  1.0587 -0.9414
  188MOL0     H24784   5.209   3.595   6.653  0.8275  0.8050  0.4496
  188MOL0     H24785   5.348   3.705   6.695  0.0371  1.2720 -0.8708
  188MOL0     H24786   5.203   3.874   6.775 -1.4912  1.5415  0.5714
  188MOL0     H24787   5.058   3.782   6.731  1.1234  1.4904  1.5143
  188MOL0     H24788   5.266   3.859   6.522  0.1134 -0.2799 -0.0159
  188MOL0     H24789   5.111   3.769   6.519 -0.2430 -1.8232  2.9526
  188MOL0     H24790   5.128   4.038   6.468  1.3006  2.6487  0.5953
  188MOL0     H24791   5.128   4.047   6.651  0.0826  0.0903 -0.6049
  188MOL0     H24792   4.922   3.959   6.668  0.0134  4.5979  0.7377
  188MOL0     H24793   4.928   3.896   6.500 -2.0066 -0.9243  0.8635
  188MOL0     H24794   4.780   4.086   6.587  2.8689 -6.5451  0.4719
  188MOL0     H24795   4.914   4.198   6.606 -0.2685 -2.2879  2.2947
  188MOL0     H24796   4.796   4.259   6.397  0.6517  0.9535  2.8715
  188MOL0     H24797   4.793   4.085   6.352  0.0836  0.6629 -0.1856
  188MOL0     H24798   5.277   3.320   6.996  0.2961  2.3605 -0.3144
  188MOL0     H24799   5.207   3.100   6.921  1.2564  1.1692  1.5485
  188MOL0     H24800   5.036   2.775   6.673  2.2034 -0.9455  3.4678
  188MOL0     H24801   4.962   2.576   6.603  0.7202 -2.0448  0.2710
  188MOL0     H24802   4.469   1.070   5.991  0.2824  0.7844 -0.9089
  188MOL0     H24803   4.669   0.936   5.929  0.5629  1.2460 -0.9938
  188MOL0     H24804   5.292   1.100   5.778  2.2725 -0.7156  0.0578
  188MOL0     H24805   5.440   0.914   5.703 -0.6733 -1.8309  0.5149
  188MOL0     H24806   5.466   0.502   5.677 -1.5216 -1.8117 -0.3708
  188MOL0     H24807   5.305   0.505   5.699 -1.2770  1.5539 -0.3951
  188MOL0     H24808   5.507   0.658   5.873 -0.1326 -0.3013  0.2863
  188MOL0     H24809   5.336   0.664   5.908 -1.3407 -1.5049 -0.9082
  188MOL0     H24810   5.459   0.527   6.045  0.8513  0.6499 -2.0083
  188MOL0     H24811   5.512   0.419   5.903  2.4172  1.1679  1.6477
  188MOL0     H24812   5.298   0.330   5.888  2.3456  1.3343 -1.3768
  188MOL0     H24813   5.337   0.314   6.055  0.9664  0.7759  0.3025
  188MOL0     H24814   4.991   0.571   6.076  0.0463  0.4712  0.4980
  188MOL0     H24815   5.094   0.655   5.695  1.9930 -2.0608  3.7652
  188MOL0     H24816   4.974   0.800   5.816 -0.6028 -0.8595 -1.7811
  189MOL0     O24817   6.811   9.990   8.220  0.0895  0.4010  0.0568
  189MOL0     C24818   6.822  10.054   8.323 -0.3632 -0.2147  0.6420
  189MOL0     O24819   6.931  10.121   8.352 -0.6050  0.4449 -0.2745
  189MOL0     C24820   7.059  10.104   8.291  1.2174  0.0645 -0.8422
  189MOL0     C24821   7.085  10.039   8.171 -0.9528 -0.8767  0.2332
  189MOL0     C24822   7.217  10.033   8.123  0.8828 -0.0613  0.3581
  189MOL0     C24823   7.323  10.077   8.210 -0.0078 -1.4520  0.1467
  189MOL0     O24824   7.448  10.089   8.152  0.2256 -0.2505 -1.0917
  189MOL0     C24825   7.476  10.213   8.092  0.1018 -0.3675  0.0662
  189MOL0     C24826   7.490  10.210   7.943  0.1980 -0.0185  0.3792
  189MOL0     C24827   7.596  10.116   7.873 -0.2316 -0.4788  0.1438
  189MOL0     C24828   7.740  10.123   7.936  0.5402  0.5258 -0.0880
  189MOL0     C24829   7.865  10.070   7.856  0.8009  0.0016  0.0662
  189MOL0     C24830   7.833   9.927   7.794 -0.2646  0.2139 -0.0338
  189MOL0     C24831   7.966   9.850   7.757 -0.6791  0.0400  0.2510
  189MOL0     C24832   7.921   9.722   7.687 -0.2933 -0.1499  0.8811
  189MOL0     N24833   8.021   9.619   7.693 -0.3698 -0.0504  0.7761
  189MOL0     C24834   8.099   9.566   7.588  0.7425  0.2471 -0.5966
  189MOL0     C24835   8.166   9.461   7.643  1.2133 -0.7112 -0.5452
  189MOL0     C24836   8.278   9.402   7.577 -0.0784  1.0156 -0.1176
  189MOL0     C24837   8.237   9.312   7.463  0.9909 -0.8908 -0.0773
  189MOL0     C24838   8.350   9.233   7.412  0.0056  0.0436  0.4113
  189MOL0     C24839   8.370   9.255   7.260 -0.8989  0.0518 -0.4240
  189MOL0     O24840   8.257   9.195   7.198 -0.0117  0.3225  0.2496
  189MOL0     C24841   8.248   9.188   7.062 -0.5775  0.4554  0.6441
  189MOL0     C24842   8.345   9.244   6.978 -0.2659 -0.8263  0.9855
  189MOL0     C24843   8.335   9.220   6.841  0.1567  0.2319  0.7623
  189MOL0     C24844   8.242   9.126   6.787 -0.6878 -0.2913  0.1275
  189MOL0     C24845   8.240   9.059   6.658  0.1882  0.1368  0.9106
  189MOL0     O24846   8.363   9.037   6.603  0.1843 -0.1739 -0.5276
  189MOL0     C24847   8.370   8.997   6.468 -0.4342 -1.4962 -0.5149
  189MOL0     C24848   8.461   8.892   6.422 -0.9094  0.6865  0.0693
  189MOL0     C24849   8.491   8.872   6.284 -0.4365 -0.3438 -0.0173
  189MOL0     C24850   8.439   8.958   6.195 -0.5131  1.0837  0.3780
  189MOL0     O24851   8.462   8.923   6.071 -0.7684  0.3001  0.5305
  189MOL0     C24852   8.540   9.025   6.000  0.7869 -1.7510 -1.0353
  189MOL0     C24853   8.639   8.958   5.907 -0.1409 -0.0638  0.4089
  189MOL0     C24854   8.726   9.060   5.830 -0.7406  1.4033 -0.4215
  189MOL0     C24855   8.805   8.988   5.710 -0.1944 -0.2604 -0.1344
  189MOL0     C24856   8.881   9.108   5.630  0.4847  0.1147  0.4504
  189MOL0     C24857   8.945   9.055   5.496  0.3443 -0.7259  0.2973
  189MOL0     C24858   9.089   8.990   5.509 -0.1606  0.1075 -0.5311
  189MOL0     C24859   9.124   8.891   5.393  0.3749  0.4101  0.2349
  189MOL0    Cl24860   9.029   8.736   5.397  0.2070 -0.0604 -0.0675
  189MOL0     C24861   8.359   9.072   6.234 -0.7777 -0.0856  0.5172
  189MOL0     C24862   8.317   9.086   6.372  0.2663 -0.4701 -0.7804
  189MOL0     O24863   8.135   9.025   6.602  0.0798 -0.3258 -1.5816
  189MOL0     C24864   8.143   9.082   6.877  1.1850 -0.0156  0.1814
  189MOL0     C24865   8.139   9.123   7.010 -0.2994  0.5071 -0.8102
  189MOL0     N24866   8.134   9.462   7.782  0.4154  0.1202  0.3156
  189MOL0     N24867   8.038   9.541   7.806 -0.4993  0.9139 -0.0823
  189MOL0     C24868   7.293  10.143   8.327  0.3876 -0.6467 -0.7994
  189MOL0     C24869   7.159  10.149   8.375  0.3735  0.5929 -0.5106
  189MOL0     C24870   6.701  10.051   8.404  0.4199 -0.4249 -0.4229
  189MOL0     C24871   6.715  10.110   8.528 -0.2999  0.2925  0.7016
  189MOL0     C24872   6.624  10.107   8.630 -0.0884  0.2110 -1.3437
  189MOL0     C24873   6.495  10.053   8.606 -0.0014 -0.5134  0.2299
  189MOL0     O24874   6.406  10.047   8.703  0.4586 -0.1403 -0.1826
  189MOL0     C24875   6.296   9.960   8.694 -0.3735  0.3658 -0.1412
  189MOL0     C24876   6.241   9.931   8.838  0.5820 -0.5198 -0.2378
  189MOL0     C24877   6.363   9.908   8.928  0.2835  0.7544 -0.1543
  189MOL0     C24878   6.338   9.796   9.032  0.2803  0.1602  0.7068
  189MOL0     C24879   6.352   9.660   8.969 -0.1321 -0.9118  0.2957
  189MOL0     C24880   6.368   9.545   8.919  0.5007 -0.6922  0.3538
  189MOL0     C24881   6.475   9.997   8.480  0.3067 -0.4997  0.5681
  189MOL0     C24882   6.571   9.995   8.377 -0.2791 -0.6369 -0.4285
  189MOL0     H24883   7.017  10.017   8.090  0.2693 -0.4213 -0.9469
  189MOL0     H24884   7.245   9.998   8.024  2.4971 -0.3108  0.8737
  189MOL0     H24885   7.560  10.274   8.129 -0.4472  0.9725 -0.7964
  189MOL0     H24886   7.397  10.287   8.106 -0.5895 -0.6591 -1.9573
  189MOL0     H24887   7.522  10.311   7.917 -1.8020  0.2810 -1.1805
  189MOL0     H24888   7.391  10.188   7.901 -0.7078  2.5070  1.0589
  189MOL0     H24889   7.605  10.146   7.768  1.1045  0.1058  0.4092
  189MOL0     H24890   7.564  10.011   7.877 -2.7388  0.2198  0.2634
  189MOL0     H24891   7.760  10.221   7.979 -1.6130  0.9284  0.0941
  189MOL0     H24892   7.727  10.061   8.025 -1.8520  1.0368 -0.0194
  189MOL0     H24893   7.944  10.068   7.931  0.4429 -0.9875  0.4366
  189MOL0     H24894   7.890  10.137   7.773 -2.2989 -0.4983 -1.4402
  189MOL0     H24895   7.769   9.935   7.705  0.8207 -1.9802 -1.0980
  189MOL0     H24896   7.771   9.871   7.865 -0.4405  1.0267  0.4638
  189MOL0     H24897   8.030   9.910   7.692  2.4097 -1.1571  1.9699
  189MOL0     H24898   8.022   9.814   7.844 -0.1848  1.0224  0.3502
  189MOL0     H24899   7.904   9.740   7.581 -1.1823  0.4388  1.1098
  189MOL0     H24900   7.828   9.680   7.728 -0.2581 -0.8195  0.2909
  189MOL0     H24901   8.097   9.601   7.485 -2.4106  2.2888  0.0166
  189MOL0     H24902   8.324   9.340   7.655 -1.6243 -1.0662 -0.7643
  189MOL0     H24903   8.349   9.470   7.530  0.1211 -0.4031 -1.9983
  189MOL0     H24904   8.202   9.386   7.390 -0.4118  1.0178  2.3955
  189MOL0     H24905   8.148   9.262   7.503  1.0904  0.7193  2.3750
  189MOL0     H24906   8.444   9.263   7.460  1.4804  0.3556 -2.4442
  189MOL0     H24907   8.336   9.126   7.432 -0.5836 -0.1123 -0.7341
  189MOL0     H24908   8.459   9.201   7.227  0.9529  1.7960  1.3937
  189MOL0     H24909   8.390   9.360   7.236 -0.1460 -0.3787 -1.7886
  189MOL0     H24910   8.430   9.304   7.008 -0.5665  1.4409 -2.1785
  189MOL0     H24911   8.406   9.267   6.774 -1.1341  2.9099  1.1440
  189MOL0     H24912   8.508   8.824   6.492  0.7034  0.4477 -1.2031
  189MOL0     H24913   8.565   8.799   6.254 -0.5117  0.6054 -2.7561
  189MOL0     H24914   8.601   9.088   6.065 -1.0334 -1.2880  0.3018
  189MOL0     H24915   8.476   9.090   5.940  1.8705  0.0052 -0.3707
  189MOL0     H24916   8.580   8.901   5.834 -1.9348  1.8586  0.2904
  189MOL0     H24917   8.704   8.895   5.968  1.7666  0.8068 -0.6070
  189MOL0     H24918   8.805   9.091   5.898  0.8055 -1.2531 -0.8309
  189MOL0     H24919   8.660   9.137   5.789  1.2216  2.7247 -1.2054
  189MOL0     H24920   8.871   8.912   5.754 -3.1637 -1.5791  2.3606
  189MOL0     H24921   8.749   8.934   5.633  1.1316  0.5916 -1.7812
  189MOL0     H24922   8.964   9.155   5.684  2.6040 -0.9829 -1.6772
  189MOL0     H24923   8.813   9.192   5.611  2.0079  1.5158  0.9366
  189MOL0     H24924   8.977   9.149   5.450  0.2066  0.5685  2.7118
  189MOL0     H24925   8.873   8.993   5.440 -0.7256  1.7193 -1.2143
  189MOL0     H24926   9.161   9.067   5.536  0.0242  0.4926 -2.0143
  189MOL0     H24927   9.074   8.928   5.597 -0.5205  1.3328  0.2878
  189MOL0     H24928   9.226   8.853   5.408  0.2309 -0.0155  0.1584
  189MOL0     H24929   9.110   8.947   5.300  3.8969  4.3674  1.7864
  189MOL0     H24930   8.320   9.138   6.158 -2.0815  0.5675  1.7049
  189MOL0     H24931   8.252   9.165   6.409  0.2696 -0.6331 -0.4242
  189MOL0     H24932   8.072   9.007   6.845  0.8648  0.2006  0.3703
  189MOL0     H24933   8.087   9.077   7.093  2.7316 -3.0221 -0.5876
  189MOL0     H24934   7.373  10.198   8.376 -0.6258 -2.0147  2.7016
  189MOL0     H24935   7.133  10.183   8.475 -1.9382 -0.2758 -0.7591
  189MOL0     H24936   6.805  10.164   8.555 -1.4734  2.0755  1.2331
  189MOL0     H24937   6.640  10.150   8.728 -2.5385 -1.4266 -0.1254
  189MOL0     H24938   6.312   9.862   8.648 -1.3904 -0.2565  0.7814
  189MOL0     H24939   6.218  10.009   8.635 -1.2623 -0.1283  0.5820
  189MOL0     H24940   6.177  10.013   8.870 -1.1515 -1.1007 -2.0107
  189MOL0     H24941   6.176   9.844   8.840  4.2142 -3.5136 -1.1264
  189MOL0     H24942   6.393   9.997   8.983  0.6201 -0.4556  1.7377
  189MOL0     H24943   6.447   9.878   8.865 -1.7289  0.0715 -2.6892
  189MOL0     H24944   6.409   9.820   9.112  0.0015  0.5125  0.8504
  189MOL0     H24945   6.235   9.814   9.065 -0.2100  0.1730 -0.7539
  189MOL0     H24946   6.401   9.466   8.854  0.0231  0.1627 -0.9768
  189MOL0     H24947   6.378   9.960   8.449  1.1794 -2.1150 -0.3789
  189MOL0     H24948   6.550   9.960   8.276  2.5267  0.5683 -1.5146
  190MOL0     O24949   8.763   8.173   5.303  0.0149 -0.0990 -0.7818
  190MOL0     C24950   8.816   8.276   5.341  0.5558  0.0539  0.5356
  190MOL0     O24951   8.937   8.316   5.300  0.2041  0.8024  0.2306
  190MOL0     C24952   9.016   8.213   5.244  0.1331 -0.3728 -1.0395
  190MOL0     C24953   9.016   8.183   5.112  0.7849 -0.5014  0.9249
  190MOL0     C24954   9.093   8.079   5.061 -0.2783  0.2905 -0.4769
  190MOL0     C24955   9.176   8.004   5.138 -0.1883 -0.1993 -0.5628
  190MOL0     O24956   9.256   7.919   5.069 -0.5153  0.4806  0.2182
  190MOL0     C24957   9.300   7.799   5.138  0.0377 -0.8964  0.2653
  190MOL0     C24958   9.329   7.678   5.048 -0.8577  0.2034 -0.8664
  190MOL0     C24959   9.447   7.699   4.951  0.3417  0.3441 -0.1745
  190MOL0     C24960   9.583   7.640   5.013 -0.5478  0.2489 -0.9384
  190MOL0     C24961   9.695   7.633   4.912 -0.5161 -0.4423  0.4250
  190MOL0     C24962   9.677   7.520   4.805  0.0977 -0.0240 -1.7647
  190MOL0     C24963   9.793   7.512   4.713  0.4939  1.0324 -0.9531
  190MOL0     C24964   9.828   7.634   4.638 -0.2876 -0.6019  0.7062
  190MOL0     N24965   9.720   7.662   4.543  0.7732 -0.3056  1.1112
  190MOL0     C24966   9.717   7.603   4.425 -0.9065 -0.6989 -0.4296
  190MOL0     C24967   9.619   7.672   4.363 -0.2377 -0.5080  0.4512
  190MOL0     C24968   9.605   7.675   4.214 -0.1476  0.0881 -0.0391
  190MOL0     C24969   9.505   7.585   4.161  0.1198  0.3007 -0.4159
  190MOL0     C24970   9.436   7.648   4.036  0.4193  0.7583  0.3308
  190MOL0     C24971   9.315   7.568   3.989  0.1233  0.6213  0.7805
  190MOL0     O24972   9.358   7.435   3.957  0.7636 -0.1388  0.3374
  190MOL0     C24973   9.308   7.397   3.839  0.0758  0.2898 -0.4626
  190MOL0     C24974   9.228   7.286   3.845  1.4091  0.4835  0.5708
  190MOL0     C24975   9.190   7.225   3.720  0.0224  0.1100  0.0370
  190MOL0     C24976   9.220   7.281   3.599  0.2214  0.0733 -0.0382
  190MOL0     C24977   9.177   7.222   3.474  1.2515 -0.2405 -0.0510
  190MOL0     O24978   9.065   7.133   3.475  0.8720 -0.2564  0.1274
  190MOL0     C24979   9.041   7.069   3.358 -0.1679  0.2499  0.1393
  190MOL0     C24980   9.139   7.018   3.273 -0.8075  0.0889  0.8910
  190MOL0     C24981   9.096   6.941   3.159 -0.4273 -0.3168 -0.4058
  190MOL0     C24982   8.965   6.925   3.129 -0.9106 -0.3401 -1.6620
  190MOL0     O24983   8.911   6.850   3.028  0.0268 -0.5868  0.4386
  190MOL0     C24984   8.945   6.716   3.012 -0.6417 -0.0761 -0.8474
  190MOL0     C24985   8.818   6.624   3.032 -0.0774  0.0747  0.0343
  190MOL0     C24986   8.736   6.652   3.163  0.3898  0.2698  0.3899
  190MOL0     C24987   8.625   6.538   3.146  0.1626 -0.0166 -0.4051
  190MOL0     C24988   8.520   6.558   3.255 -0.1372 -0.7296 -0.1915
  190MOL0     C24989   8.390   6.468   3.244 -0.3875  0.6401  0.1282
  190MOL0     C24990   8.421   6.324   3.292  0.5289  0.6004  0.5220
  190MOL0     C24991   8.300   6.234   3.280  0.9007  0.6597 -0.6978
  190MOL0    Cl24992   8.244   6.215   3.113  0.0904 -0.1109 -0.1187
  190MOL0     C24993   8.872   6.986   3.209  1.2636 -0.2598  0.1807
  190MOL0     C24994   8.907   7.058   3.327 -0.3775  0.5078  0.5844
  190MOL0     O24995   9.245   7.258   3.374  0.3229  0.2825  0.2035
  190MOL0     C24996   9.284   7.408   3.600 -0.4970  1.0928 -0.6687
  190MOL0     C24997   9.335   7.459   3.720  0.8217 -0.0027  0.2635
  190MOL0     N24998   9.557   7.757   4.444  0.2751  0.7482  0.3099
  190MOL0     N24999   9.613   7.750   4.560 -0.3081 -0.7519  0.1411
  190MOL0     C25000   9.164   8.021   5.280  0.0458  0.1968 -0.5912
  190MOL0     C25001   9.073   8.117   5.333 -0.6562 -0.0341 -0.5178
  190MOL0     C25002   8.751   8.370   5.440 -0.5318  0.2174  0.1788
  190MOL0     C25003   8.821   8.476   5.515 -0.5317 -0.6912 -0.7535
  190MOL0     C25004   8.754   8.543   5.618  0.1101  1.2953 -0.0913
  190MOL0     C25005   8.616   8.516   5.651 -0.7758 -1.1362 -0.9889
  190MOL0     O25006   8.548   8.591   5.744  0.8455  0.4829  0.5898
  190MOL0     C25007   8.439   8.522   5.798 -0.0410  0.9400  0.0733
  190MOL0     C25008   8.398   8.596   5.926 -0.2589  0.6418  0.1609
  190MOL0     C25009   8.304   8.512   6.003  0.2057  0.4624  0.4686
  190MOL0     C25010   8.272   8.568   6.139 -0.6609  0.2435  0.1291
  190MOL0     C25011   8.137   8.532   6.190  0.4820  0.2193  0.4149
  190MOL0     C25012   8.032   8.479   6.205  1.0597  0.2420 -0.0375
  190MOL0     C25013   8.554   8.417   5.574 -0.0051 -0.6898  0.2478
  190MOL0     C25014   8.610   8.349   5.466 -0.9882  0.0836 -0.3355
  190MOL0     H25015   8.957   8.244   5.044  4.0188  0.7143 -1.0895
  190MOL0     H25016   9.100   8.052   4.956 -3.2985  1.7147 -1.1409
  190MOL0     H25017   9.218   7.777   5.207 -2.1599  4.0258 -0.3629
  190MOL0     H25018   9.391   7.820   5.194 -0.3505 -1.0363  0.9591
  190MOL0     H25019   9.233   7.669   4.997 -1.0690  0.6368 -0.5514
  190MOL0     H25020   9.356   7.593   5.110  0.9567  0.6954 -0.9188
  190MOL0     H25021   9.455   7.806   4.927  1.6193  1.0508  2.9492
  190MOL0     H25022   9.423   7.649   4.857  1.3116 -1.6563  0.5903
  190MOL0     H25023   9.619   7.709   5.090  3.0934 -1.7841 -0.5954
  190MOL0     H25024   9.571   7.543   5.063  1.1873  0.7065  0.4570
  190MOL0     H25025   9.790   7.610   4.960  0.6134 -0.9097 -1.8710
  190MOL0     H25026   9.706   7.734   4.870 -1.3221  1.5279  4.4496
  190MOL0     H25027   9.581   7.541   4.757 -0.4501  2.4929  0.2017
  190MOL0     H25028   9.673   7.429   4.865  0.8729 -0.4449 -2.3350
  190MOL0     H25029   9.868   7.492   4.790  0.4895 -0.8387 -1.3867
  190MOL0     H25030   9.783   7.426   4.646 -2.2385  0.3971  0.1265
  190MOL0     H25031   9.930   7.617   4.601  0.3728  1.4803  1.4267
  190MOL0     H25032   9.837   7.723   4.701 -0.7524  1.1135 -1.5208
  190MOL0     H25033   9.786   7.525   4.392  0.6487  0.9542 -1.2410
  190MOL0     H25034   9.698   7.641   4.168 -1.8358 -1.1186 -2.8978
  190MOL0     H25035   9.582   7.779   4.188  1.0162 -0.4789 -4.1012
  190MOL0     H25036   9.421   7.585   4.232  0.0040 -2.5132 -0.4614
  190MOL0     H25037   9.545   7.485   4.145 -2.7795 -0.8880 -0.8489
  190MOL0     H25038   9.397   7.748   4.054 -0.7484  0.1520  1.3117
  190MOL0     H25039   9.504   7.646   3.950 -1.5130 -1.9347 -1.2975
  190MOL0     H25040   9.255   7.626   3.918  0.1868  0.2663  0.4355
  190MOL0     H25041   9.240   7.555   4.067  1.1032 -2.2005  1.3816
  190MOL0     H25042   9.193   7.228   3.930 -2.7783 -0.1072 -1.2696
  190MOL0     H25043   9.133   7.133   3.707  0.4724 -0.0134 -1.1627
  190MOL0     H25044   9.246   7.023   3.292  0.0169 -0.7910 -2.7204
  190MOL0     H25045   9.162   6.900   3.084 -0.0889  1.5837 -1.2122
  190MOL0     H25046   9.024   6.694   3.084  1.2798  2.5132 -1.9765
  190MOL0     H25047   8.994   6.707   2.914 -2.2622  0.7902 -1.7910
  190MOL0     H25048   8.850   6.520   3.029  0.3660  0.2163 -0.2446
  190MOL0     H25049   8.754   6.638   2.945  0.3502 -0.4143 -0.3640
  190MOL0     H25050   8.706   6.756   3.173  1.5955  0.9324 -2.0634
  190MOL0     H25051   8.800   6.639   3.251 -0.1648  0.8704  0.8870
  190MOL0     H25052   8.579   6.534   3.048 -1.5999 -4.2470  0.3772
  190MOL0     H25053   8.673   6.440   3.159 -1.2928 -0.5904  1.0759
  190MOL0     H25054   8.484   6.661   3.240  0.8216 -0.3777 -0.1906
  190MOL0     H25055   8.567   6.554   3.353  1.0871  0.9001 -0.6551
  190MOL0     H25056   8.341   6.467   3.147 -0.9148  3.5466  0.2780
  190MOL0     H25057   8.310   6.514   3.303 -1.7601 -2.8685  1.2888
  190MOL0     H25058   8.489   6.292   3.212  0.3499  2.9771 -0.6830
  190MOL0     H25059   8.466   6.325   3.392  1.1683  0.4550  0.2424
  190MOL0     H25060   8.220   6.274   3.343 -0.6505 -0.1651 -2.0780
  190MOL0     H25061   8.326   6.132   3.307  0.1100 -0.0449 -2.4573
  190MOL0     H25062   8.765   6.992   3.193  0.3994  0.5583  4.7778
  190MOL0     H25063   8.830   7.111   3.382 -2.3036 -0.7762 -0.7834
  190MOL0     H25064   9.308   7.475   3.518  0.8746 -1.9899 -2.9710
  190MOL0     H25065   9.387   7.554   3.733 -0.2264  0.5752  0.2788
  190MOL0     H25066   9.218   7.959   5.351 -0.4155 -1.3013 -1.4767
  190MOL0     H25067   9.054   8.133   5.439 -2.0341 -0.4047 -0.6851
  190MOL0     H25068   8.921   8.509   5.489 -0.5488  1.8986  1.9441
  190MOL0     H25069   8.813   8.619   5.668  0.7835  1.0231 -0.4538
  190MOL0     H25070   8.451   8.415   5.813 -0.0266  0.7727 -1.0850
  190MOL0     H25071   8.354   8.538   5.730 -1.7041 -1.7309  1.3694
  190MOL0     H25072   8.486   8.619   5.988 -0.7839  1.1916  0.7141
  190MOL0     H25073   8.359   8.692   5.892 -0.4134  0.2435 -0.8064
  190MOL0     H25074   8.349   8.412   6.006  2.1920  1.3031  3.4796
  190MOL0     H25075   8.213   8.499   5.944  0.0617  2.3552  0.2396
  190MOL0     H25076   8.335   8.528   6.219 -0.1880  1.5062  0.4008
  190MOL0     H25077   8.284   8.676   6.147  0.6480  0.0932  0.3971
  190MOL0     H25078   7.942   8.421   6.210  0.5575  1.1054  2.0905
  190MOL0     H25079   8.447   8.401   5.575 -0.1175  0.0025 -0.2262
  190MOL0     H25080   8.561   8.283   5.396  0.8423  0.5516 -2.1377
  191MOL0     O25081  10.471   2.537   2.219  0.1747 -0.4049 -0.2755
  191MOL0     C25082  10.401   2.469   2.292 -0.0926 -0.0636 -0.3794
  191MOL0     O25083  10.422   2.447   2.424 -0.2098  0.4383 -0.3212
  191MOL0     C25084  10.520   2.523   2.469  0.4858  0.5610  0.1923
  191MOL0     C25085  10.497   2.649   2.526 -0.0142  0.1785  0.6281
  191MOL0     C25086  10.611   2.737   2.557 -0.5156  0.0004 -0.3044
  191MOL0     C25087  10.741   2.687   2.542 -0.8155  0.5366 -0.3855
  191MOL0     O25088  10.855   2.754   2.567  0.4352 -0.3215 -0.2362
  191MOL0     C25089  10.855   2.894   2.570 -0.4568 -0.0879 -0.7605
  191MOL0     C25090  10.990   2.949   2.638  1.0737 -0.0484  0.2027
  191MOL0     C25091  10.972   3.110   2.637 -0.5936  0.6011  0.2161
  191MOL0     C25092  11.100   3.173   2.702 -0.0518  0.3118 -0.3915
  191MOL0     C25093  11.079   3.317   2.757  0.4332  0.4925  0.2425
  191MOL0     C25094  11.222   3.385   2.767  0.0798  0.0261  0.2469
  191MOL0     C25095  11.312   3.332   2.871  0.0624  0.0302  0.7348
  191MOL0     C25096  11.468   3.367   2.845  0.1523 -0.2746  0.6513
  191MOL0     N25097  11.545   3.366   2.968  0.1211  0.2739  0.4753
  191MOL0     C25098  11.561   3.453   3.076  0.9194 -0.0279  0.1528
  191MOL0     C25099  11.627   3.380   3.167  1.8392 -0.6638 -0.7397
  191MOL0     C25100  11.682   3.423   3.302 -0.4757  0.0050 -0.2511
  191MOL0     C25101  11.554   3.413   3.391 -0.5098  0.6552 -0.2474
  191MOL0     C25102  11.432   3.503   3.358 -0.7727  0.7798  1.0429
  191MOL0     C25103  11.328   3.482   3.461 -0.2415 -0.3820  0.3261
  191MOL0     O25104  11.309   3.339   3.491  0.1534 -0.2374 -0.6145
  191MOL0     C25105  11.228   3.302   3.592  0.6942 -0.1537 -0.2187
  191MOL0     C25106  11.215   3.170   3.627 -1.2341  0.4419  0.5356
  191MOL0     C25107  11.136   3.127   3.736  0.1636  0.0838 -0.2594
  191MOL0     C25108  11.058   3.225   3.802 -0.5015 -0.5037  0.5288
  191MOL0     C25109  10.982   3.193   3.924 -0.1253 -0.9989  0.8630
  191MOL0     O25110  11.026   3.081   3.988 -0.1042  0.6075 -0.0631
  191MOL0     C25111  10.983   3.068   4.115  0.2605 -0.3956 -0.0261
  191MOL0     C25112  11.005   3.163   4.216  1.1008 -1.1951  0.2263
  191MOL0     C25113  10.969   3.136   4.346  0.5542 -0.1354  0.5215
  191MOL0     C25114  10.903   3.023   4.376  0.2140  0.8991 -0.6909
  191MOL0     O25115  10.886   2.977   4.505  0.2422 -0.1067 -0.1594
  191MOL0     C25116  10.940   3.055   4.612  0.5773  0.0869  0.3175
  191MOL0     C25117  10.896   2.983   4.736  0.8244 -0.3816 -0.0848
  191MOL0     C25118  10.933   3.072   4.856 -0.1338 -0.9759 -0.3785
  191MOL0     C25119  10.828   3.058   4.961  0.3329 -0.1708 -0.2324
  191MOL0     C25120  10.877   3.135   5.082 -0.7907 -0.3595  0.1181
  191MOL0     C25121  10.805   3.109   5.209 -0.9673  0.7128  0.2914
  191MOL0     C25122  10.674   3.178   5.217 -0.0296  0.3628  0.7149
  191MOL0     C25123  10.630   3.181   5.368  0.9238 -1.0750 -0.3593
  191MOL0    Cl25124  10.572   3.027   5.416  0.1184  0.2262  0.2558
  191MOL0     C25125  10.866   2.940   4.279  0.2414 -0.0824 -0.4467
  191MOL0     C25126  10.894   2.965   4.150  0.1058  0.6163  1.2643
  191MOL0     O25127  10.879   3.258   3.957 -0.5190 -0.2298  0.0754
  191MOL0     C25128  11.060   3.354   3.755 -0.0761  0.4340  0.1563
  191MOL0     C25129  11.152   3.404   3.668 -0.0780 -0.0717 -0.3417
  191MOL0     N25130  11.660   3.259   3.117  0.0232  0.4650 -0.3199
  191MOL0     N25131  11.599   3.252   3.000 -0.7108  0.3543 -0.2986
  191MOL0     C25132  10.765   2.551   2.496  0.7275 -0.5907  0.8685
  191MOL0     C25133  10.651   2.472   2.459  0.8046  0.7117  0.2797
  191MOL0     C25134  10.290   2.400   2.228  0.8615  0.1949  0.2220
  191MOL0     C25135  10.173   2.352   2.289  0.1995 -0.3074  0.0962
  191MOL0     C25136  10.065   2.289   2.222 -0.1620 -0.1002 -0.4888
  191MOL0     C25137  10.082   2.271   2.085  0.0303  0.4084  0.0880
  191MOL0     O25138   9.995   2.218   1.994 -0.0513  0.0258 -0.3952
  191MOL0     C25139   9.852   2.201   2.031 -0.0612 -0.5060 -0.8571
  191MOL0     C25140   9.794   2.065   2.024 -0.5428 -0.1099 -0.3313
  191MOL0     C25141   9.885   1.965   2.106 -0.5291 -0.5561  0.2448
  191MOL0     C25142   9.845   1.818   2.126  0.2106  0.0681 -0.5060
  191MOL0     C25143   9.699   1.809   2.137 -1.2988  0.4572 -0.3373
  191MOL0     C25144   9.582   1.809   2.141 -1.3115 -0.0902 -0.4161
  191MOL0     C25145  10.201   2.307   2.024 -0.2520 -0.4947  0.4713
  191MOL0     C25146  10.295   2.379   2.092  1.1408 -0.3051 -0.4644
  191MOL0     H25147  10.396   2.688   2.539  0.0529  0.4317  0.3937
  191MOL0     H25148  10.586   2.838   2.588  1.1942 -0.4339  2.9261
  191MOL0     H25149  10.769   2.937   2.623 -1.3420 -1.3578 -1.1199
  191MOL0     H25150  10.863   2.917   2.463  0.7669 -4.4373 -1.8079
  191MOL0     H25151  11.084   2.911   2.597  1.4224 -1.8267  2.5015
  191MOL0     H25152  10.994   2.918   2.742 -1.7455 -4.2433 -0.6985
  191MOL0     H25153  10.878   3.142   2.684 -0.8201  3.4540 -1.8689
  191MOL0     H25154  10.979   3.136   2.531  0.5572 -0.6399 -0.0397
  191MOL0     H25155  11.150   3.107   2.773  0.1984  2.5465  1.6473
  191MOL0     H25156  11.175   3.186   2.624  2.9682  0.1330  2.2833
  191MOL0     H25157  11.027   3.325   2.852  1.2330  3.1032  0.5311
  191MOL0     H25158  11.018   3.374   2.686 -0.3235  0.1067  0.5736
  191MOL0     H25159  11.197   3.487   2.799 -1.1777 -0.5122  1.0689
  191MOL0     H25160  11.260   3.381   2.665 -1.3156  1.2928 -0.3731
  191MOL0     H25161  11.285   3.365   2.972  0.9147 -1.3568  1.4386
  191MOL0     H25162  11.301   3.226   2.894  0.2137  0.3510  2.4405
  191MOL0     H25163  11.480   3.465   2.798 -0.4970 -0.6073 -0.2444
  191MOL0     H25164  11.491   3.291   2.770 -0.7980  0.8284 -0.8417
  191MOL0     H25165  11.530   3.556   3.076 -0.9317 -0.5572  0.3684
  191MOL0     H25166  11.727   3.522   3.288  1.2919 -0.5381  1.2378
  191MOL0     H25167  11.757   3.354   3.342 -0.2476  0.7952  0.6983
  191MOL0     H25168  11.584   3.423   3.496  0.3525 -1.1355 -0.2764
  191MOL0     H25169  11.537   3.305   3.389  2.2254 -0.0769  3.7033
  191MOL0     H25170  11.461   3.608   3.348  1.0321  0.3592  1.5231
  191MOL0     H25171  11.384   3.470   3.265  0.9289 -3.8955  1.5822
  191MOL0     H25172  11.232   3.531   3.448  0.3477  1.0725  1.2423
  191MOL0     H25173  11.362   3.526   3.555 -1.4816 -0.7639  0.9710
  191MOL0     H25174  11.269   3.104   3.559 -1.2673  1.6837 -0.7449
  191MOL0     H25175  11.127   3.023   3.765  1.7859  0.1139  0.4512
  191MOL0     H25176  11.064   3.254   4.212  0.1696 -0.5876  0.0182
  191MOL0     H25177  11.002   3.205   4.423  1.8533  1.5482 -1.4088
  191MOL0     H25178  10.891   3.153   4.605 -0.9668 -0.6487  0.2126
  191MOL0     H25179  11.049   3.053   4.605  0.5374 -1.8980 -0.4317
  191MOL0     H25180  10.936   2.882   4.747  2.0698 -0.0235 -1.1249
  191MOL0     H25181  10.788   2.964   4.735  0.7044  0.2311  0.8634
  191MOL0     H25182  10.929   3.178   4.827  0.7653 -0.4668  1.2739
  191MOL0     H25183  11.034   3.049   4.891 -0.6466  1.8712  3.5909
  191MOL0     H25184  10.736   3.108   4.930  0.8449  1.1351  0.2495
  191MOL0     H25185  10.816   2.952   4.984 -1.1896  0.2132  0.9426
  191MOL0     H25186  10.880   3.241   5.054  1.9113 -0.5699 -0.7224
  191MOL0     H25187  10.982   3.111   5.104 -1.1655 -0.1367  2.3955
  191MOL0     H25188  10.871   3.136   5.291  1.5602  0.2061 -1.4408
  191MOL0     H25189  10.777   3.004   5.198 -0.3368  0.7639 -3.2581
  191MOL0     H25190  10.676   3.284   5.188  2.8593  1.0331  2.8752
  191MOL0     H25191  10.602   3.124   5.155  0.2019  0.8613 -0.0114
  191MOL0     H25192  10.549   3.254   5.375  1.1567 -0.4686 -3.0080
  191MOL0     H25193  10.704   3.219   5.439 -2.3894  4.3518  0.8468
  191MOL0     H25194  10.822   2.846   4.310  1.1513  0.5198  3.0687
  191MOL0     H25195  10.859   2.905   4.067  0.1155  1.6176  0.5154
  191MOL0     H25196  10.994   3.419   3.811 -0.0583  0.9752 -0.4432
  191MOL0     H25197  11.170   3.510   3.661  3.8754 -0.4938  0.7809
  191MOL0     H25198  10.867   2.514   2.493 -0.0607 -2.8456 -0.2767
  191MOL0     H25199  10.655   2.376   2.409 -1.3435  1.0915 -0.7500
  191MOL0     H25200  10.166   2.355   2.398 -3.8232  1.1143 -0.0108
  191MOL0     H25201   9.979   2.253   2.278  0.3262  0.1406  0.4326
  191MOL0     H25202   9.787   2.261   1.966 -0.8370 -1.0527 -0.5935
  191MOL0     H25203   9.851   2.253   2.127  2.5865  0.6396 -1.3638
  191MOL0     H25204   9.687   2.072   2.041 -0.8412  0.9376 -2.4313
  191MOL0     H25205   9.810   2.018   1.927  0.0622 -2.1492  0.6803
  191MOL0     H25206   9.915   2.005   2.204  0.3005  0.0156 -0.2278
  191MOL0     H25207   9.983   1.968   2.058  0.0533  1.7238  1.4270
  191MOL0     H25208   9.886   1.740   2.061 -4.6850 -3.0423 -0.3656
  191MOL0     H25209   9.883   1.796   2.226  3.0740  0.2741 -1.4576
  191MOL0     H25210   9.476   1.824   2.148 -1.0711  2.6638 -1.4702
  191MOL0     H25211  10.213   2.290   1.918  1.0850 -0.2255  0.5692
  191MOL0     H25212  10.374   2.418   2.030  1.5837  0.8443  0.7756
  192MOL0     O25213   0.704  10.347   0.185  1.0130 -0.8395  0.0487
  192MOL0     C25214   0.615  10.419   0.223  0.4984  0.1112  1.3699
  192MOL0     O25215   0.521  10.477   0.142  0.1893 -0.0900 -0.0975
  192MOL0     C25216   0.528  10.454   0.008  0.3103  0.6767  0.2964
  192MOL0     C25217   0.411  10.424  -0.061  0.1479 -0.5131 -0.5190
  192MOL0     C25218   0.415  10.419  -0.204  0.0286  0.4504  0.9121
  192MOL0     C25219   0.538  10.436  -0.265 -0.1966 -0.9421 -0.3961
  192MOL0     O25220   0.559  10.436  -0.396 -0.0057 -0.0423 -0.3850
  192MOL0     C25221   0.466  10.500  -0.482 -0.5589  0.1197  0.7983
  192MOL0     C25222   0.492  10.490  -0.630 -0.5474 -0.6007  0.7559
  192MOL0     C25223   0.434  10.613  -0.708  0.8285 -0.0384 -0.1950
  192MOL0     C25224   0.474  10.614  -0.858  0.0635  0.3034 -0.3343
  192MOL0     C25225   0.441  10.741  -0.937  0.7723 -0.1110 -0.3887
  192MOL0     C25226   0.509  10.741  -1.065  0.3209  0.5967 -0.1322
  192MOL0     C25227   0.463  10.848  -1.159 -0.1000  0.3208  0.0142
  192MOL0     C25228   0.561  10.874  -1.275 -0.9663 -0.8806  1.0897
  192MOL0     N25229   0.685  10.957  -1.236  0.0699 -0.1359  0.2223
  192MOL0     C25230   0.670  11.070  -1.160 -0.3233 -0.0995 -0.6047
  192MOL0     C25231   0.802  11.124  -1.153  0.0587  0.5987 -0.6547
  192MOL0     C25232   0.841  11.237  -1.075  0.2238 -0.0254 -0.0811
  192MOL0     C25233   0.821  11.374  -1.144 -0.6663  0.6495  0.6572
  192MOL0     C25234   0.666  11.406  -1.172  0.4924  0.3195  0.8036
  192MOL0     C25235   0.588  11.408  -1.038  0.2433 -0.2999 -0.2749
  192MOL0     O25236   0.464  11.474  -1.063  0.5502 -0.6634  0.4416
  192MOL0     C25237   0.441  11.602  -1.021  0.7495 -0.1609 -0.8224
  192MOL0     C25238   0.539  11.700  -0.995  0.1715  0.2737  0.3357
  192MOL0     C25239   0.487  11.831  -0.952 -0.0732  0.7772  0.1489
  192MOL0     C25240   0.349  11.854  -0.946  0.7918 -0.2327  0.3143
  192MOL0     C25241   0.293  11.987  -0.913 -0.6224  0.4992 -0.6174
  192MOL0     O25242   0.151  12.004  -0.900 -0.4096 -0.4315  0.1650
  192MOL0     C25243   0.097  12.128  -0.875  0.4403  0.1219  0.8413
  192MOL0     C25244  -0.040  12.115  -0.897 -0.3833 -0.1781  0.1640
  192MOL0     C25245  -0.116  12.225  -0.883 -0.1521 -0.5864  0.3100
  192MOL0     C25246  -0.065  12.351  -0.841  0.4811  0.3042  0.3431
  192MOL0     O25247  -0.150  12.458  -0.826 -0.7685  0.2510 -0.2800
  192MOL0     C25248  -0.269  12.428  -0.748 -0.2118  0.5104  0.1919
  192MOL0     C25249  -0.343  12.560  -0.729 -0.2139  0.4760 -0.3569
  192MOL0     C25250  -0.299  12.612  -0.586 -1.0353 -0.5801 -0.3446
  192MOL0     C25251  -0.331  12.762  -0.584  0.3548 -0.1696 -1.2160
  192MOL0     C25252  -0.485  12.802  -0.581  0.7297  0.7990  1.6238
  192MOL0     C25253  -0.500  12.914  -0.481  0.1177 -0.5461 -0.2831
  192MOL0     C25254  -0.653  12.956  -0.475  0.0008 -0.4177 -1.1816
  192MOL0     C25255  -0.665  13.109  -0.506  0.0283 -0.5565  0.1464
  192MOL0    Cl25256  -0.846  13.155  -0.483  0.1918  0.1095  0.4727
  192MOL0     C25257   0.073  12.364  -0.822 -0.0490 -0.0387 -0.2596
  192MOL0     C25258   0.150  12.254  -0.845 -0.6469  0.8161 -0.3481
  192MOL0     O25259   0.372  12.083  -0.917  0.4363  0.5738 -0.2181
  192MOL0     C25260   0.258  11.754  -0.989  0.1140 -0.5409  0.3721
  192MOL0     C25261   0.302  11.630  -1.030  0.7254  0.9059  0.0077
  192MOL0     N25262   0.887  11.026  -1.198  1.3665  0.3506  0.1682
  192MOL0     N25263   0.818  10.926  -1.251 -0.6952 -0.7182  0.3523
  192MOL0     C25264   0.655  10.454  -0.191  0.4178  0.2408 -0.0169
  192MOL0     C25265   0.646  10.474  -0.054 -0.3134 -0.2139  0.2689
  192MOL0     C25266   0.637  10.454   0.359 -0.5924 -0.2390 -0.5408
  192MOL0     C25267   0.569  10.570   0.411 -0.1373 -0.1331  0.5396
  192MOL0     C25268   0.611  10.623   0.538  0.0369  0.0728  0.1379
  192MOL0     C25269   0.706  10.551   0.623 -1.2982  0.1273  0.1759
  192MOL0     O25270   0.733  10.595   0.745 -0.2888  0.0302 -0.3812
  192MOL0     C25271   0.771  10.500   0.852  0.5658 -0.1540 -0.1907
  192MOL0     C25272   0.821  10.576   0.967 -0.2206 -0.2358 -0.1286
  192MOL0     C25273   0.704  10.650   1.049  0.4708 -0.0332  0.4057
  192MOL0     C25274   0.742  10.670   1.198  1.3831  0.5698  0.2437
  192MOL0     C25275   0.664  10.781   1.254 -1.0083 -0.5333  0.9699
  192MOL0     C25276   0.588  10.878   1.277  0.1556 -0.3266 -0.4064
  192MOL0     C25277   0.758  10.425   0.582 -0.5811  0.2870 -0.3179
  192MOL0     C25278   0.729  10.387   0.453  0.2745  0.4208 -0.1980
  192MOL0     H25279   0.331  10.406   0.010  2.2362 -2.1896  1.5610
  192MOL0     H25280   0.317  10.407  -0.249  1.5446  2.2073 -3.2856
  192MOL0     H25281   0.464  10.604  -0.448 -0.2075 -0.7722  3.8679
  192MOL0     H25282   0.370  10.458  -0.449 -0.4308  1.5586  3.2938
  192MOL0     H25283   0.454  10.399  -0.678  0.2772 -0.6103  0.1089
  192MOL0     H25284   0.599  10.507  -0.636 -0.6725 -0.0811 -0.4421
  192MOL0     H25285   0.452  10.708  -0.657 -2.2225 -0.5500  2.1609
  192MOL0     H25286   0.325  10.599  -0.699  0.4879  1.3083 -1.7072
  192MOL0     H25287   0.580  10.590  -0.858  0.4707  1.6747  2.4886
  192MOL0     H25288   0.413  10.533  -0.899  1.0611 -0.8809  0.4662
  192MOL0     H25289   0.487  10.817  -0.873 -2.5637 -0.9481  3.3936
  192MOL0     H25290   0.335  10.766  -0.947  0.5034 -1.2017 -0.4409
  192MOL0     H25291   0.484  10.646  -1.113 -0.9067 -0.7383  2.9053
  192MOL0     H25292   0.616  10.744  -1.042  0.5021  1.8895 -0.9835
  192MOL0     H25293   0.373  10.800  -1.199 -0.2923 -0.5394  1.4045
  192MOL0     H25294   0.438  10.944  -1.114 -1.3836  0.4253 -0.8833
  192MOL0     H25295   0.517  10.930  -1.358  1.5134  0.3852  0.5308
  192MOL0     H25296   0.589  10.786  -1.334 -3.3592 -0.9964 -0.0218
  192MOL0     H25297   0.580  11.103  -1.110 -0.0345 -1.9137  1.2671
  192MOL0     H25298   0.948  11.228  -1.054 -0.0779  0.0063  1.5909
  192MOL0     H25299   0.796  11.233  -0.976  1.1806 -0.8961  0.3378
  192MOL0     H25300   0.873  11.394  -1.238 -1.9568  2.5453  0.2805
  192MOL0     H25301   0.857  11.446  -1.070 -1.9510  1.9971  0.0302
  192MOL0     H25302   0.672  11.507  -1.214  0.1262  0.1038  0.2258
  192MOL0     H25303   0.610  11.339  -1.237  0.7466 -3.3524  4.0276
  192MOL0     H25304   0.656  11.469  -0.978  1.8999 -2.6980  0.4389
  192MOL0     H25305   0.582  11.306  -1.000  3.6306 -0.6470 -0.3880
  192MOL0     H25306   0.643  11.672  -0.997  0.8546  2.3403 -3.2307
  192MOL0     H25307   0.553  11.913  -0.925  0.8532 -0.1964  0.8702
  192MOL0     H25308  -0.081  12.023  -0.937 -1.5053  0.9748 -1.4583
  192MOL0     H25309  -0.217  12.216  -0.920 -0.6105 -0.5767  1.5180
  192MOL0     H25310  -0.241  12.389  -0.650  0.4744  3.3986  1.2610
  192MOL0     H25311  -0.336  12.358  -0.798  1.8713 -1.4774  0.0063
  192MOL0     H25312  -0.451  12.561  -0.742 -0.0959  0.5541 -1.4069
  192MOL0     H25313  -0.298  12.623  -0.807  0.3510  0.5416  0.0156
  192MOL0     H25314  -0.190  12.605  -0.573 -0.4402  3.1917 -1.9487
  192MOL0     H25315  -0.358  12.564  -0.508 -0.6754 -0.6470 -0.1091
  192MOL0     H25316  -0.290  12.799  -0.490 -0.1165  1.0553 -1.4740
  192MOL0     H25317  -0.289  12.807  -0.674 -1.8444 -0.4338 -2.4435
  192MOL0     H25318  -0.546  12.716  -0.551  1.0332 -0.6394 -1.4815
  192MOL0     H25319  -0.525  12.829  -0.679 -0.3903  2.1275  2.4201
  192MOL0     H25320  -0.451  13.003  -0.521 -1.6640 -0.2410 -1.9191
  192MOL0     H25321  -0.472  12.892  -0.377  0.4712  0.5912 -0.1312
  192MOL0     H25322  -0.720  12.891  -0.533 -0.7963 -2.7684  2.0833
  192MOL0     H25323  -0.691  12.928  -0.377 -2.8836  0.7704 -1.8465
  192MOL0     H25324  -0.642  13.132  -0.610 -1.8770 -2.5824 -0.7975
  192MOL0     H25325  -0.621  13.171  -0.428 -1.5615  0.4495  0.2779
  192MOL0     H25326   0.122  12.453  -0.784 -0.0047  0.4834 -1.5133
  192MOL0     H25327   0.257  12.271  -0.837 -0.5435 -0.5153  5.1367
  192MOL0     H25328   0.154  11.781  -1.006  0.0139 -1.5638 -0.6922
  192MOL0     H25329   0.230  11.556  -1.062  1.3927 -0.3723  1.3594
  192MOL0     H25330   0.753  10.465  -0.237  0.2300  3.9679  0.2123
  192MOL0     H25331   0.744  10.490  -0.011  0.1217 -0.3999 -0.6492
  192MOL0     H25332   0.491  10.615   0.350 -0.0354 -1.3892 -0.5645
  192MOL0     H25333   0.572  10.714   0.582  1.9571  0.5671  0.9217
  192MOL0     H25334   0.858  10.450   0.809 -1.1327 -2.4718 -1.1460
  192MOL0     H25335   0.695  10.425   0.876 -0.1635  0.4698 -0.5138
  192MOL0     H25336   0.874  10.505   1.031 -1.5525 -0.4366  0.7835
  192MOL0     H25337   0.906  10.633   0.928  1.4839 -2.7087 -0.2140
  192MOL0     H25338   0.607  10.599   1.044 -1.2881  2.9283  1.4537
  192MOL0     H25339   0.674  10.743   0.999  0.4707  0.4424  1.2753
  192MOL0     H25340   0.716  10.577   1.250 -4.2574  1.6134 -0.1118
  192MOL0     H25341   0.850  10.684   1.209  0.9816  1.9228  3.5195
  192MOL0     H25342   0.528  10.952   1.326 -0.5294 -1.2634  0.1964
  192MOL0     H25343   0.825  10.359   0.637 -1.6714  0.8735  1.8435
  192MOL0     H25344   0.786  10.297   0.435  0.2542  0.2056  0.7581
  193MOL0     O25345  11.149   5.810   7.160 -0.7213 -0.3513  0.0556
  193MOL0     C25346  11.116   5.817   7.274  0.1874 -0.7701  0.1671
  193MOL0     O25347  11.188   5.774   7.386  0.4316  0.3069 -0.3199
  193MOL0     C25348  11.305   5.702   7.366 -0.7881 -0.0191  1.1190
  193MOL0     C25349  11.304   5.584   7.284  0.2758  0.4190 -0.3966
  193MOL0     C25350  11.409   5.497   7.287 -0.3783 -0.5093  1.0468
  193MOL0     C25351  11.520   5.518   7.361 -0.1971  0.2096  0.7030
  193MOL0     O25352  11.629   5.428   7.372 -0.4649  0.2373 -0.7701
  193MOL0     C25353  11.625   5.297   7.322  0.6003 -0.3007  0.1863
  193MOL0     C25354  11.702   5.294   7.188 -0.4901  0.7816  0.3628
  193MOL0     C25355  11.846   5.235   7.214  0.5819  0.0223  0.4550
  193MOL0     C25356  11.915   5.160   7.090  0.7957 -0.2823  0.0149
  193MOL0     C25357  12.036   5.076   7.120 -0.2393 -0.2393 -0.1510
  193MOL0     C25358  12.102   5.033   6.984 -0.4707 -0.7926 -1.2166
  193MOL0     C25359  12.225   4.943   7.012 -0.3049  0.3115  0.7525
  193MOL0     C25360  12.253   4.867   6.878  0.5969 -0.2549 -0.1024
  193MOL0     N25361  12.386   4.805   6.868  0.7730 -0.5789  0.9711
  193MOL0     C25362  12.426   4.734   6.750  0.5167  0.1911  0.1366
  193MOL0     C25363  12.538   4.669   6.780 -0.0609 -1.2406 -0.0229
  193MOL0     C25364  12.620   4.580   6.692 -0.5491  0.6525 -0.4032
  193MOL0     C25365  12.633   4.437   6.757 -0.4629  1.7243  0.4905
  193MOL0     C25366  12.714   4.341   6.656  0.1514 -0.9216  0.0123
  193MOL0     C25367  12.726   4.203   6.716  0.4578  1.1712 -0.9098
  193MOL0     O25368  12.645   4.107   6.638  0.6288 -0.4132  0.5443
  193MOL0     C25369  12.687   4.051   6.524  0.0590  1.3504 -0.4214
  193MOL0     C25370  12.598   3.951   6.463  0.1427 -0.0823 -0.1790
  193MOL0     C25371  12.620   3.900   6.332 -0.9637  0.8960  0.4692
  193MOL0     C25372  12.742   3.945   6.273 -0.8897 -1.1081 -0.9358
  193MOL0     C25373  12.771   3.896   6.141 -0.0276 -0.2547  0.5611
  193MOL0     O25374  12.759   3.998   6.043  0.0063 -0.3115  0.2675
  193MOL0     C25375  12.699   3.958   5.927 -0.2905  0.3957  0.2163
  193MOL0     C25376  12.782   3.933   5.817  0.2001  0.6750  0.5664
  193MOL0     C25377  12.734   3.891   5.693  0.1133  0.4605  0.0252
  193MOL0     C25378  12.601   3.868   5.676 -0.1641 -0.5113 -1.2803
  193MOL0     O25379  12.563   3.843   5.552  0.3423  0.1170  0.6153
  193MOL0     C25380  12.493   3.722   5.526 -0.7697 -0.0709 -0.5818
  193MOL0     C25381  12.388   3.739   5.417 -1.0983 -0.9719  0.5483
  193MOL0     C25382  12.304   3.855   5.455 -0.3364  0.5836  0.0044
  193MOL0     C25383  12.218   3.839   5.577 -0.9726 -0.2251 -0.2722
  193MOL0     C25384  12.088   3.783   5.518  0.0611 -0.7250 -0.5541
  193MOL0     C25385  11.967   3.800   5.606  0.5120 -0.5388  0.2074
  193MOL0     C25386  11.922   3.946   5.623 -0.6504  0.6860 -0.0705
  193MOL0     C25387  11.782   3.946   5.689  0.3178  0.3621 -0.4503
  193MOL0    Cl25388  11.708   4.113   5.689  0.1409 -0.0088  0.5090
  193MOL0     C25389  12.515   3.890   5.786  0.0294  0.3137  0.2930
  193MOL0     C25390  12.565   3.942   5.906 -0.2647  0.0264  0.5051
  193MOL0     O25391  12.777   3.775   6.110  0.3507  0.0473  0.0219
  193MOL0     C25392  12.826   4.043   6.335 -0.2204  0.4697 -0.3338
  193MOL0     C25393  12.797   4.088   6.461 -0.2959 -0.5174 -0.7904
  193MOL0     N25394  12.563   4.700   6.909 -0.4671 -0.6388 -0.1889
  193MOL0     N25395  12.463   4.764   6.967  0.2017 -0.2030  0.1513
  193MOL0     C25396  11.523   5.629   7.442  0.1127  0.0192  0.7959
  193MOL0     C25397  11.421   5.727   7.443  0.2358 -0.4636  0.2677
  193MOL0     C25398  10.983   5.881   7.302  0.5485 -0.1198  0.2327
  193MOL0     C25399  10.928   5.957   7.200 -0.5093 -0.5038  0.8513
  193MOL0     C25400  10.826   6.046   7.235 -0.5006  0.1394 -0.5212
  193MOL0     C25401  10.764   6.050   7.360 -0.4134 -0.9149 -0.0251
  193MOL0     O25402  10.655   6.126   7.360  0.5858  0.0472 -0.3287
  193MOL0     C25403  10.559   6.068   7.450  0.6940  1.2793 -0.2446
  193MOL0     C25404  10.414   6.126   7.413  1.3829  0.0567 -0.9434
  193MOL0     C25405  10.393   6.256   7.484 -0.0951  0.3493 -0.3448
  193MOL0     C25406  10.329   6.237   7.620 -1.2970 -0.0292  0.7874
  193MOL0     C25407  10.303   6.364   7.683  0.3631 -0.3349  0.4688
  193MOL0     C25408  10.268   6.466   7.728  0.3409 -0.6729 -0.3823
  193MOL0     C25409  10.807   5.971   7.465  0.0989  0.6482  0.1789
  193MOL0     C25410  10.916   5.878   7.432  0.5989  0.5913 -0.0874
  193MOL0     H25411  11.210   5.559   7.235 -0.3881  0.1850  0.9436
  193MOL0     H25412  11.404   5.405   7.230 -2.8675  0.3746 -0.3319
  193MOL0     H25413  11.525   5.262   7.293  0.1769  1.5109 -0.6769
  193MOL0     H25414  11.669   5.222   7.388  1.7350  1.1093  1.0913
  193MOL0     H25415  11.680   5.373   7.116 -0.7800 -1.0022 -1.5819
  193MOL0     H25416  11.653   5.209   7.140 -1.2297  0.4005  1.7368
  193MOL0     H25417  11.845   5.164   7.297 -3.1058  0.2328  0.7636
  193MOL0     H25418  11.911   5.316   7.249  2.2142 -0.2923 -1.7246
  193MOL0     H25419  11.836   5.102   7.042 -1.1215  1.1690  1.2545
  193MOL0     H25420  11.935   5.248   7.030  0.9457 -1.6373 -2.0087
  193MOL0     H25421  12.003   4.991   7.181 -0.8524 -0.0733 -0.2404
  193MOL0     H25422  12.115   5.123   7.179 -1.0630 -1.8167  2.3767
  193MOL0     H25423  12.136   5.125   6.936  1.6430  1.7423  4.2363
  193MOL0     H25424  12.037   4.972   6.921 -0.2001 -2.5567  0.1445
  193MOL0     H25425  12.311   5.001   7.047 -0.1910 -0.2695  1.4439
  193MOL0     H25426  12.209   4.875   7.096 -0.7334 -0.3524  0.1438
  193MOL0     H25427  12.233   4.939   6.798 -1.2312  1.3943  1.7103
  193MOL0     H25428  12.171   4.795   6.869  2.0078 -1.7167 -2.1293
  193MOL0     H25429  12.373   4.719   6.656  1.9883 -1.6851 -0.4571
  193MOL0     H25430  12.722   4.618   6.688 -0.8523  1.6353  0.7100
  193MOL0     H25431  12.581   4.573   6.590  0.6401  0.6095 -0.8787
  193MOL0     H25432  12.531   4.400   6.772 -1.1309  3.6803  1.0975
  193MOL0     H25433  12.688   4.442   6.851 -0.9786  6.8160  0.7741
  193MOL0     H25434  12.665   4.345   6.558  1.5833  0.5615 -0.6964
  193MOL0     H25435  12.820   4.365   6.643 -0.0875  1.4124  1.8060
  193MOL0     H25436  12.684   4.215   6.816  0.9075  3.0970 -0.9263
  193MOL0     H25437  12.833   4.179   6.713  1.1451  3.3475  1.9229
  193MOL0     H25438  12.515   3.928   6.528  1.5686 -1.2497  1.3334
  193MOL0     H25439  12.566   3.812   6.301 -0.2454  1.2106 -1.8695
  193MOL0     H25440  12.888   3.928   5.836  0.5113  2.2279 -0.5037
  193MOL0     H25441  12.802   3.850   5.619 -0.9723 -0.4722 -0.4916
  193MOL0     H25442  12.461   3.684   5.623  1.1325 -0.4775 -0.0662
  193MOL0     H25443  12.570   3.656   5.485 -2.1676 -0.1328 -3.3265
  193MOL0     H25444  12.328   3.647   5.411 -3.0009  0.2670 -0.4378
  193MOL0     H25445  12.440   3.768   5.325  2.3775  3.7804  3.5939
  193MOL0     H25446  12.245   3.869   5.364  0.2371 -1.4132 -0.7232
  193MOL0     H25447  12.363   3.945   5.476  0.6332  0.4416 -1.9110
  193MOL0     H25448  12.250   3.766   5.653 -4.0064  0.1722  1.5751
  193MOL0     H25449  12.200   3.932   5.632 -1.8383  0.5709 -1.8459
  193MOL0     H25450  12.095   3.679   5.485 -0.5754 -1.0124  0.1672
  193MOL0     H25451  12.046   3.832   5.429 -2.4344 -0.5747  0.6184
  193MOL0     H25452  11.983   3.754   5.704  2.0492 -1.0624 -0.2656
  193MOL0     H25453  11.885   3.744   5.561 -0.1672 -1.8261  2.8401
  193MOL0     H25454  12.001   4.007   5.668 -2.0843  2.7383 -0.2208
  193MOL0     H25455  11.924   3.985   5.521 -1.8142 -1.5697 -1.0316
  193MOL0     H25456  11.773   3.891   5.783 -1.8714  1.9386  0.3619
  193MOL0     H25457  11.718   3.882   5.629  4.0820 -2.4305 -1.8942
  193MOL0     H25458  12.408   3.877   5.771  0.3830 -0.4962 -2.0042
  193MOL0     H25459  12.494   3.963   5.985 -1.4690  2.0149 -1.0211
  193MOL0     H25460  12.926   4.071   6.304  1.1919 -1.7437  1.8280
  193MOL0     H25461  12.862   4.167   6.499 -0.9980 -0.4113  0.2469
  193MOL0     H25462  11.607   5.647   7.508  0.9901 -1.6968  0.2208
  193MOL0     H25463  11.422   5.814   7.507  0.2599 -0.8763  0.8349
  193MOL0     H25464  10.972   5.966   7.102 -0.8311  0.2537  0.7636
  193MOL0     H25465  10.774   6.106   7.160 -0.1690  0.6192 -0.3707
  193MOL0     H25466  10.573   6.087   7.557 -2.1102 -0.0671  0.4610
  193MOL0     H25467  10.552   5.959   7.450 -0.3476  1.3309  0.2592
  193MOL0     H25468  10.404   6.151   7.307 -0.5791  2.2211 -0.3534
  193MOL0     H25469  10.340   6.049   7.440  0.2629  1.1585 -0.7757
  193MOL0     H25470  10.318   6.302   7.419 -0.2933 -0.6008 -0.8121
  193MOL0     H25471  10.490   6.305   7.477  0.0301  0.8026  2.9851
  193MOL0     H25472  10.235   6.180   7.614 -0.3963 -1.6101  1.1136
  193MOL0     H25473  10.401   6.175   7.673 -0.0395 -0.6040 -1.4355
  193MOL0     H25474  10.242   6.566   7.759  1.2245  0.2647 -2.4502
  193MOL0     H25475  10.765   5.973   7.565 -1.0286  1.4311 -0.2861
  193MOL0     H25476  10.955   5.823   7.517 -0.3494  0.4308  0.2550
  194MOL0     O25477   2.615   7.760   0.854  0.3663 -0.0907 -0.5278
  194MOL0     C25478   2.545   7.769   0.756  0.2920 -0.0202  0.5298
  194MOL0     O25479   2.507   7.664   0.675  0.5632 -0.0353 -0.6609
  194MOL0     C25480   2.550   7.538   0.710  0.4805 -0.2796 -0.0523
  194MOL0     C25481   2.479   7.481   0.819 -0.4961  0.3468 -1.0108
  194MOL0     C25482   2.511   7.346   0.851  0.5968  0.2834 -0.6263
  194MOL0     C25483   2.620   7.281   0.797 -0.1887  0.0799  0.1074
  194MOL0     O25484   2.655   7.150   0.824  0.0024 -0.3643  0.2228
  194MOL0     C25485   2.686   7.116   0.957 -0.6218 -0.3707 -0.4681
  194MOL0     C25486   2.576   7.039   1.035 -0.0442  0.3232 -0.1076
  194MOL0     C25487   2.569   7.064   1.193  0.1836  0.2067 -0.3679
  194MOL0     C25488   2.428   7.029   1.250  0.0398  0.1080 -0.6092
  194MOL0     C25489   2.430   7.024   1.404 -0.2476  0.2117 -0.5131
  194MOL0     C25490   2.470   6.879   1.456 -0.7012 -0.3265  0.4488
  194MOL0     C25491   2.496   6.891   1.610  0.7169 -0.3260  0.5379
  194MOL0     C25492   2.379   6.924   1.698  0.2314 -1.1114 -0.5769
  194MOL0     N25493   2.307   6.805   1.745 -0.3516  0.0062  0.6895
  194MOL0     C25494   2.330   6.732   1.860  0.4119 -0.5450  0.4255
  194MOL0     C25495   2.235   6.640   1.855 -0.2240 -0.5695 -0.0918
  194MOL0     C25496   2.222   6.543   1.960  0.1813 -0.0882 -0.4314
  194MOL0     C25497   2.250   6.401   1.892 -0.7378 -0.3270  0.6800
  194MOL0     C25498   2.125   6.326   1.850  0.1092  0.0299 -0.5630
  194MOL0     C25499   2.137   6.194   1.787  0.9280 -0.5222 -0.7279
  194MOL0     O25500   2.245   6.178   1.687  0.0564  0.0697  0.5281
  194MOL0     C25501   2.257   6.073   1.605  0.8927 -0.2252  1.1053
  194MOL0     C25502   2.325   6.090   1.489  0.0212  0.6045  0.0912
  194MOL0     C25503   2.362   5.982   1.408  0.0413 -1.4708 -0.4127
  194MOL0     C25504   2.318   5.861   1.448 -0.2921  0.1823  1.0109
  194MOL0     C25505   2.342   5.750   1.353  0.0373 -0.2101 -0.2441
  194MOL0     O25506   2.266   5.627   1.362  0.6202 -0.0563  0.2015
  194MOL0     C25507   2.314   5.517   1.301 -0.3205  0.1700 -0.8384
  194MOL0     C25508   2.264   5.476   1.177  0.2304 -0.6387  0.1153
  194MOL0     C25509   2.301   5.360   1.109  0.7126 -0.7565  0.6669
  194MOL0     C25510   2.413   5.292   1.167  0.3587 -0.6275 -0.1371
  194MOL0     O25511   2.469   5.178   1.117  0.4117  0.1853  0.6924
  194MOL0     C25512   2.446   5.165   0.977  0.1680 -0.2161  0.4180
  194MOL0     C25513   2.521   5.030   0.943  0.5886 -0.5322 -0.2378
  194MOL0     C25514   2.501   4.968   0.805 -1.4536  0.6535 -0.4883
  194MOL0     C25515   2.359   4.931   0.774 -0.4099  0.7207  0.3814
  194MOL0     C25516   2.349   4.857   0.628 -0.7607  0.2151  0.0863
  194MOL0     C25517   2.212   4.825   0.587  0.5085  0.8068 -0.7339
  194MOL0     C25518   2.131   4.726   0.676  0.4061  0.6072 -0.8590
  194MOL0     C25519   1.984   4.771   0.669  0.8792  0.6350 -0.4550
  194MOL0    Cl25520   1.896   4.628   0.739 -0.0573 -0.9980 -0.2905
  194MOL0     C25521   2.479   5.344   1.276  0.2011 -0.3087 -0.1421
  194MOL0     C25522   2.424   5.450   1.349 -0.9014 -0.0495  0.1193
  194MOL0     O25523   2.440   5.759   1.284 -0.5890 -0.0319  0.7938
  194MOL0     C25524   2.235   5.837   1.562  0.8397  0.6778  1.2148
  194MOL0     C25525   2.209   5.946   1.637  1.4707 -1.1994 -0.4147
  194MOL0     N25526   2.152   6.658   1.743 -0.5990 -0.2265  0.5138
  194MOL0     N25527   2.197   6.754   1.676  0.5157  0.5028 -0.6182
  194MOL0     C25528   2.676   7.328   0.689 -0.9314  0.3354  0.1112
  194MOL0     C25529   2.649   7.457   0.648 -0.9471 -0.1097 -0.2925
  194MOL0     C25530   2.496   7.906   0.726  0.5317 -0.5767 -0.5854
  194MOL0     C25531   2.386   7.928   0.645 -0.5595 -0.1385 -0.5250
  194MOL0     C25532   2.320   8.058   0.646  0.3901  1.0331 -0.6704
  194MOL0     C25533   2.379   8.167   0.707  0.1165 -0.0374 -0.0786
  194MOL0     O25534   2.304   8.280   0.687  0.0037  0.1234  0.0147
  194MOL0     C25535   2.345   8.398   0.758  0.1646 -1.2227  0.0001
  194MOL0     C25536   2.302   8.514   0.664  0.1868  0.0026  0.7469
  194MOL0     C25537   2.151   8.517   0.645 -1.0127  0.0574 -0.5658
  194MOL0     C25538   2.116   8.562   0.506  0.3600 -0.6977  0.1164
  194MOL0     C25539   1.971   8.580   0.499 -1.3868 -0.2223  0.3136
  194MOL0     C25540   1.856   8.597   0.483 -0.6455  0.7261 -0.0649
  194MOL0     C25541   2.496   8.150   0.781 -0.8242  0.6892  0.5651
  194MOL0     C25542   2.552   8.015   0.791  0.9563 -0.9217  0.1771
  194MOL0     H25543   2.389   7.524   0.860  0.7396  1.9016  0.1925
  194MOL0     H25544   2.463   7.297   0.936 -1.3580  0.7830 -1.3923
  194MOL0     H25545   2.709   7.204   1.018 -4.2987  0.4190  0.0324
  194MOL0     H25546   2.769   7.045   0.951  0.3851  0.6695  0.6437
  194MOL0     H25547   2.584   6.931   1.020 -3.5787 -0.0263 -0.3030
  194MOL0     H25548   2.487   7.075   0.982  1.6529  3.5799 -1.0716
  194MOL0     H25549   2.581   7.172   1.203  1.1643  0.0276  0.6080
  194MOL0     H25550   2.649   7.004   1.238 -1.6398 -2.3734 -0.3457
  194MOL0     H25551   2.353   7.106   1.227 -0.9903 -0.7682 -0.2897
  194MOL0     H25552   2.386   6.935   1.214  1.7960 -0.9311 -0.0457
  194MOL0     H25553   2.331   7.058   1.434 -0.9376 -2.5728  0.6420
  194MOL0     H25554   2.507   7.095   1.437 -0.5221  0.7524 -1.0227
  194MOL0     H25555   2.568   6.862   1.410 -0.1219  1.0635  1.0929
  194MOL0     H25556   2.406   6.793   1.435  1.0935 -1.4722 -0.5569
  194MOL0     H25557   2.546   6.805   1.654 -0.1722 -0.5081  1.2223
  194MOL0     H25558   2.574   6.967   1.614  1.2017 -0.6740 -1.1687
  194MOL0     H25559   2.312   6.998   1.653  1.8058  1.0022  0.3620
  194MOL0     H25560   2.432   6.966   1.784 -0.3000 -0.2298 -0.6587
  194MOL0     H25561   2.411   6.746   1.930 -1.1694  0.9826  2.0660
  194MOL0     H25562   2.118   6.561   1.991  0.5651  1.1639  0.2031
  194MOL0     H25563   2.293   6.559   2.042  1.3168 -0.0528 -1.4106
  194MOL0     H25564   2.315   6.344   1.960  0.7971  3.1111  2.3572
  194MOL0     H25565   2.315   6.430   1.809 -2.0220  1.3181  0.2075
  194MOL0     H25566   2.043   6.324   1.923  0.1049  3.6369 -0.3016
  194MOL0     H25567   2.088   6.395   1.774  1.5055  0.1121 -1.1792
  194MOL0     H25568   2.034   6.172   1.758  0.6710  0.8548 -0.9351
  194MOL0     H25569   2.166   6.118   1.859  0.8161  1.2566  1.2936
  194MOL0     H25570   2.363   6.189   1.466  0.0159  0.1989 -1.8669
  194MOL0     H25571   2.413   6.000   1.313  1.7505  2.1054  0.9989
  194MOL0     H25572   2.204   5.549   1.123  0.6791 -0.3394  0.0057
  194MOL0     H25573   2.265   5.336   1.010  2.8696  0.0139 -0.3846
  194MOL0     H25574   2.487   5.252   0.925 -1.3548  0.7801  0.8138
  194MOL0     H25575   2.342   5.152   0.947 -0.2772  2.2662  0.6977
  194MOL0     H25576   2.492   4.953   1.016  1.4813 -0.9710 -0.3381
  194MOL0     H25577   2.624   5.064   0.956  0.1417  1.6767 -1.8512
  194MOL0     H25578   2.565   4.880   0.804  0.1525  1.5680  3.2933
  194MOL0     H25579   2.542   5.045   0.739 -1.1078  0.8624 -0.0388
  194MOL0     H25580   2.330   4.858   0.850  0.3168 -1.0256 -0.9580
  194MOL0     H25581   2.292   5.018   0.775  1.0715  1.9161  0.6088
  194MOL0     H25582   2.404   4.765   0.646 -1.1767 -0.1484 -0.4710
  194MOL0     H25583   2.400   4.918   0.553  0.9984 -0.8797  0.3456
  194MOL0     H25584   2.216   4.782   0.487  0.5344 -3.5720  0.9434
  194MOL0     H25585   2.170   4.926   0.581  0.7781  1.1571  1.9597
  194MOL0     H25586   2.143   4.626   0.632  0.5518  1.4844 -2.8984
  194MOL0     H25587   2.175   4.727   0.777  4.9408  1.5794 -2.5843
  194MOL0     H25588   1.955   4.780   0.563  0.6196  0.4690 -0.4004
  194MOL0     H25589   1.962   4.867   0.715  3.3453  1.7147 -1.3567
  194MOL0     H25590   2.557   5.282   1.318  2.2664  1.2287 -1.5327
  194MOL0     H25591   2.479   5.468   1.441  1.0340 -1.3993 -0.7163
  194MOL0     H25592   2.169   5.750   1.571  1.4513 -0.0178 -0.6458
  194MOL0     H25593   2.137   5.932   1.717  2.2641  0.7213  0.6944
  194MOL0     H25594   2.744   7.260   0.639  1.2904  2.1357  0.5300
  194MOL0     H25595   2.708   7.492   0.563  2.1429 -1.4807  1.1163
  194MOL0     H25596   2.341   7.846   0.591 -0.4071 -0.4563 -0.1788
  194MOL0     H25597   2.230   8.059   0.585 -0.4263 -0.0425  0.4688
  194MOL0     H25598   2.450   8.415   0.781  0.9155  1.8447 -4.4486
  194MOL0     H25599   2.277   8.405   0.843 -0.6319 -0.4652 -0.6721
  194MOL0     H25600   2.332   8.608   0.710 -0.5535  1.8048 -2.1897
  194MOL0     H25601   2.352   8.519   0.567 -1.9970  0.7027 -0.4039
  194MOL0     H25602   2.099   8.568   0.726  0.9326  0.3375  0.5854
  194MOL0     H25603   2.117   8.413   0.650  0.0537 -0.3547 -1.2691
  194MOL0     H25604   2.153   8.662   0.480 -0.2982 -0.3588  0.4789
  194MOL0     H25605   2.161   8.500   0.428  0.3229  0.3618 -0.7775
  194MOL0     H25606   1.751   8.599   0.465 -1.2079 -2.3185  2.1059
  194MOL0     H25607   2.552   8.228   0.832  0.9144  0.4844 -0.9199
  194MOL0     H25608   2.649   8.010   0.840  2.4260  0.2658 -2.4224
  195MOL0     O25609  11.171   9.243   0.724 -0.8242  0.7703  0.7486
  195MOL0     C25610  11.199   9.237   0.845 -0.3483 -0.3585  0.0048
  195MOL0     O25611  11.139   9.317   0.938 -0.3843 -1.0723 -0.4781
  195MOL0     C25612  11.057   9.415   0.881 -0.6040 -0.1612  1.0649
  195MOL0     C25613  11.117   9.532   0.843 -0.0210  0.3733  0.2096
  195MOL0     C25614  11.037   9.623   0.782  0.0715 -0.5579 -1.1897
  195MOL0     C25615  10.897   9.599   0.766  0.3914 -0.7159 -0.1347
  195MOL0     O25616  10.814   9.696   0.700 -0.2695  0.4258  0.3737
  195MOL0     C25617  10.798   9.817   0.777  0.6496  0.1652 -0.1720
  195MOL0     C25618  10.736   9.926   0.691  0.7586 -0.2461 -1.1869
  195MOL0     C25619  10.661  10.028   0.775 -0.3557  0.6937 -0.1508
  195MOL0     C25620  10.601  10.145   0.692  0.4769  0.4779 -0.0108
  195MOL0     C25621  10.525  10.248   0.768 -0.5380  0.3361 -0.1207
  195MOL0     C25622  10.620  10.348   0.841 -0.5258  0.0213  0.1368
  195MOL0     C25623  10.557  10.484   0.839 -0.3704 -1.0307  0.3060
  195MOL0     C25624  10.444  10.502   0.930 -0.1028 -0.2079  0.3461
  195MOL0     N25625  10.386  10.639   0.925  0.0938 -0.1219 -0.0486
  195MOL0     C25626  10.454  10.751   0.961 -0.8673  0.1320 -0.3061
  195MOL0     C25627  10.357  10.845   0.991  1.0291 -0.0943 -0.7147
  195MOL0     C25628  10.393  10.979   1.031  0.1153  0.3634  0.2757
  195MOL0     C25629  10.280  11.063   1.087  0.0815 -0.3689  0.0645
  195MOL0     C25630  10.233  11.021   1.227 -0.5986 -0.2622 -0.0524
  195MOL0     C25631  10.097  11.085   1.264  0.1831  0.2824 -0.4921
  195MOL0     O25632  10.110  11.220   1.237 -0.0885 -0.1590 -0.6488
  195MOL0     C25633   9.990  11.288   1.255  0.0203  0.0707  0.3665
  195MOL0     C25634  10.005  11.422   1.215  0.1668  0.6127 -0.3614
  195MOL0     C25635   9.899  11.514   1.223  0.1454 -0.8560 -0.7476
  195MOL0     C25636   9.771  11.475   1.271  0.2933 -0.3036  0.8894
  195MOL0     C25637   9.661  11.569   1.282 -0.2137  0.4203  0.3994
  195MOL0     O25638   9.680  11.693   1.228 -0.1291 -0.6997  0.3332
  195MOL0     C25639   9.604  11.801   1.264 -0.1392  0.1656  0.0231
  195MOL0     C25640   9.652  11.889   1.364 -0.1204 -0.3107  0.8499
  195MOL0     C25641   9.571  11.999   1.392 -1.1687  0.1897 -0.0641
  195MOL0     C25642   9.456  12.026   1.324  0.1724  0.6595  1.1025
  195MOL0     O25643   9.392  12.142   1.358  0.0151 -0.9193  0.2520
  195MOL0     C25644   9.295  12.205   1.269 -0.4477  0.5583  0.7056
  195MOL0     C25645   9.258  12.335   1.345 -0.3162 -0.2226  0.6756
  195MOL0     C25646   9.136  12.392   1.282 -0.4538  0.3261  0.8324
  195MOL0     C25647   9.087  12.523   1.342 -0.4200  0.1324 -0.5557
  195MOL0     C25648   9.031  12.640   1.244  0.7297  0.2855 -0.6238
  195MOL0     C25649   8.916  12.581   1.161  0.5753 -0.3866 -0.3632
  195MOL0     C25650   8.882  12.652   1.033 -0.1244 -0.6685 -0.9286
  195MOL0     C25651   8.825  12.792   1.046 -0.3902 -0.3714  0.6951
  195MOL0    Cl25652   8.953  12.911   1.061 -0.7608 -0.2606 -0.3638
  195MOL0     C25653   9.409  11.940   1.222 -0.9507 -1.1674 -0.0605
  195MOL0     C25654   9.492  11.830   1.193  0.0878 -0.4829  0.5494
  195MOL0     O25655   9.548  11.522   1.316 -0.1653 -0.2315 -0.0431
  195MOL0     C25656   9.759  11.336   1.304 -0.0677 -0.1224  0.2370
  195MOL0     C25657   9.861  11.247   1.289  0.6044  0.0824 -0.1343
  195MOL0     N25658  10.232  10.792   0.976  0.5747  0.2061 -0.2478
  195MOL0     N25659  10.252  10.672   0.936  0.1547  0.2346 -0.8978
  195MOL0     C25660  10.835   9.478   0.805 -1.4123 -0.0852 -0.1492
  195MOL0     C25661  10.922   9.385   0.868 -0.0882 -0.0078  0.7158
  195MOL0     C25662  11.309   9.147   0.901  0.3007  0.0289  0.3448
  195MOL0     C25663  11.404   9.097   0.811  0.2424 -0.1443 -1.7217
  195MOL0     C25664  11.513   9.022   0.865 -0.2413 -0.5298 -0.1317
  195MOL0     C25665  11.514   8.979   1.000 -0.6473  0.8685  1.2309
  195MOL0     O25666  11.616   8.896   1.046 -1.6234 -0.2785 -0.0635
  195MOL0     C25667  11.582   8.805   1.151  0.5504  0.8666 -0.2126
  195MOL0     C25668  11.688   8.687   1.162 -0.8437  0.1789 -0.2289
  195MOL0     C25669  11.835   8.736   1.160 -0.1617  0.4816 -0.5695
  195MOL0     C25670  11.933   8.612   1.160 -0.3661  0.8543 -0.4053
  195MOL0     C25671  11.958   8.568   1.296 -0.5216 -0.4751 -0.6543
  195MOL0     C25672  11.991   8.526   1.402  0.2599 -0.8540 -0.6385
  195MOL0     C25673  11.409   9.022   1.080  0.4292 -0.3150 -0.7982
  195MOL0     C25674  11.312   9.103   1.033  0.0832  0.0246  0.2101
  195MOL0     H25675  11.225   9.542   0.843  0.3348 -2.4405 -1.0737
  195MOL0     H25676  11.080   9.718   0.752 -0.6270 -0.4852 -2.0103
  195MOL0     H25677  10.893   9.857   0.810 -1.1169 -0.2935  7.0660
  195MOL0     H25678  10.729   9.795   0.859 -0.8372 -0.5143 -1.5526
  195MOL0     H25679  10.657   9.893   0.624  0.6093  0.5801 -1.4131
  195MOL0     H25680  10.820   9.975   0.642  0.3296  3.3075  1.2373
  195MOL0     H25681  10.723  10.056   0.861 -0.0509  0.2181 -0.2136
  195MOL0     H25682  10.583   9.969   0.824  1.6694 -3.1067 -1.1077
  195MOL0     H25683  10.678  10.192   0.630 -0.3430  1.0080 -0.6448
  195MOL0     H25684  10.539  10.106   0.611  2.0937  2.5159 -2.3934
  195MOL0     H25685  10.478  10.189   0.847 -0.4385  2.0994  1.3182
  195MOL0     H25686  10.455  10.296   0.700 -1.3716 -0.7770 -0.0631
  195MOL0     H25687  10.714  10.356   0.785 -0.3975  2.6343  0.6154
  195MOL0     H25688  10.644  10.327   0.945  1.9619 -0.4486 -0.4588
  195MOL0     H25689  10.629  10.560   0.869  0.8752 -1.6946 -0.8896
  195MOL0     H25690  10.540  10.502   0.732 -1.5259  0.7478  0.7465
  195MOL0     H25691  10.479  10.491   1.033 -1.8330  1.1060  1.1377
  195MOL0     H25692  10.361  10.433   0.917  0.8692 -2.1200  3.4072
  195MOL0     H25693  10.562  10.755   0.952 -0.8563 -0.4377 -0.4368
  195MOL0     H25694  10.431  11.030   0.942 -0.1926  0.9031  0.4440
  195MOL0     H25695  10.478  10.962   1.098  1.2697 -0.9998 -1.4485
  195MOL0     H25696  10.197  11.046   1.017  0.8409  0.7629 -1.1525
  195MOL0     H25697  10.308  11.168   1.087 -0.3286 -0.2586 -0.2424
  195MOL0     H25698  10.237  10.912   1.230  3.1631 -0.3296 -1.5415
  195MOL0     H25699  10.307  11.067   1.293 -2.4229  2.3956  0.3507
  195MOL0     H25700  10.065  11.076   1.368 -0.1789 -2.0213 -0.7553
  195MOL0     H25701  10.020  11.042   1.199  0.6252 -1.8090  0.2940
  195MOL0     H25702  10.106  11.444   1.182 -0.0245 -1.7357 -2.9101
  195MOL0     H25703   9.901  11.615   1.183  0.4531 -0.3585  0.4533
  195MOL0     H25704   9.751  11.865   1.402  0.8319  0.0665 -1.2736
  195MOL0     H25705   9.596  12.067   1.472  0.8666 -0.6291  0.0640
  195MOL0     H25706   9.203  12.147   1.256  0.2388 -1.1510  2.9079
  195MOL0     H25707   9.338  12.218   1.170  0.8051 -1.7896  0.8891
  195MOL0     H25708   9.345  12.401   1.344 -0.1586 -0.2807 -3.0997
  195MOL0     H25709   9.234  12.305   1.448 -0.4148 -2.9433 -0.0503
  195MOL0     H25710   9.062  12.312   1.272 -0.6654  0.5868  0.2540
  195MOL0     H25711   9.168  12.412   1.179  1.2255  3.7441  1.8910
  195MOL0     H25712   9.029  12.499   1.432 -0.6691  1.8702 -0.2166
  195MOL0     H25713   9.175  12.566   1.391 -0.9741 -0.7617  1.3355
  195MOL0     H25714   9.114  12.672   1.181  1.8490  0.4544  0.8607
  195MOL0     H25715   9.005  12.732   1.298  0.4824 -0.7964  1.1727
  195MOL0     H25716   8.826  12.575   1.222  1.9158  0.1683  1.7618
  195MOL0     H25717   8.945  12.483   1.121 -0.6740  0.0382 -2.5081
  195MOL0     H25718   8.967  12.655   0.966  1.4571  0.0704  1.0089
  195MOL0     H25719   8.817  12.581   0.981 -0.2761 -0.0933 -1.5394
  195MOL0     H25720   8.746  12.801   1.120 -4.3498  0.6218 -3.2275
  195MOL0     H25721   8.771  12.815   0.954 -0.1285 -1.4512  0.2558
  195MOL0     H25722   9.314  11.966   1.176 -0.7589  1.5656  0.9063
  195MOL0     H25723   9.470  11.753   1.119  0.1920  0.9034 -0.9993
  195MOL0     H25724   9.659  11.305   1.334  1.2748  0.1210  6.0556
  195MOL0     H25725   9.840  11.140   1.286 -1.2897  0.4343 -3.1286
  195MOL0     H25726  10.729   9.460   0.818 -1.1872  0.3205  3.4067
  195MOL0     H25727  10.889   9.289   0.905  0.5663 -1.0312 -1.1967
  195MOL0     H25728  11.397   9.117   0.705 -0.1446 -1.2039 -1.9022
  195MOL0     H25729  11.596   8.988   0.803 -1.3588 -3.4376 -0.1835
  195MOL0     H25730  11.492   8.765   1.103 -0.4462  4.0792 -1.2814
  195MOL0     H25731  11.546   8.845   1.246  1.0361  1.2746 -0.1909
  195MOL0     H25732  11.665   8.614   1.240 -4.1128  0.6320 -0.6289
  195MOL0     H25733  11.684   8.633   1.067  0.4976  0.1161 -0.2760
  195MOL0     H25734  11.858   8.814   1.233  3.3189  2.3696 -3.4052
  195MOL0     H25735  11.841   8.770   1.057  1.4913 -0.7032 -0.8975
  195MOL0     H25736  11.872   8.536   1.111 -0.4155 -1.3396  2.7648
  195MOL0     H25737  12.020   8.648   1.104 -0.3129  1.1374 -0.1435
  195MOL0     H25738  12.042   8.488   1.488  4.1387  1.7807 -1.5397
  195MOL0     H25739  11.404   9.019   1.188  0.4299  1.3263 -0.7282
  195MOL0     H25740  11.237   9.152   1.094  1.1211  3.6157 -1.1509
  196MOL0     O25741   4.677   2.558   9.031  0.5540 -0.1821 -0.1326
  196MOL0     C25742   4.658   2.637   9.127 -0.6059 -0.4294  0.2875
  196MOL0     O25743   4.539   2.681   9.174 -0.4479  0.1423  0.1371
  196MOL0     C25744   4.425   2.605   9.156 -0.1963  0.3466  0.5720
  196MOL0     C25745   4.427   2.457   9.156 -0.3197 -0.5523  0.0702
  196MOL0     C25746   4.299   2.398   9.150 -0.5339  0.6071  0.2798
  196MOL0     C25747   4.172   2.470   9.156 -1.9042  0.3692  0.4825
  196MOL0     O25748   4.046   2.436   9.138  0.2219 -0.0583  0.7244
  196MOL0     C25749   4.018   2.302   9.074 -0.8630 -1.2148 -0.6112
  196MOL0     C25750   3.885   2.246   9.106  0.3423  0.3480  0.6683
  196MOL0     C25751   3.783   2.336   9.044 -0.1545 -0.1970 -0.9946
  196MOL0     C25752   3.649   2.256   9.061 -0.1786  1.1987 -0.4770
  196MOL0     C25753   3.537   2.330   8.995 -1.1419  1.4576 -0.1923
  196MOL0     C25754   3.552   2.380   8.846  0.5843 -0.2568 -1.2860
  196MOL0     C25755   3.424   2.387   8.765  0.1642  0.3629  0.3446
  196MOL0     C25756   3.472   2.367   8.621 -1.4749 -1.1006  0.0244
  196MOL0     N25757   3.381   2.413   8.520 -0.6090 -0.0734  1.0240
  196MOL0     C25758   3.390   2.534   8.449 -0.0964  0.3674 -0.6612
  196MOL0     C25759   3.300   2.514   8.352 -0.1337 -0.6548  0.5634
  196MOL0     C25760   3.282   2.603   8.219 -0.7343  0.1084  0.2884
  196MOL0     C25761   3.191   2.716   8.228 -0.5314 -0.8197  0.2824
  196MOL0     C25762   3.052   2.660   8.232  0.4993 -0.3085  0.1997
  196MOL0     C25763   2.931   2.745   8.198 -0.0131  0.2496  0.2567
  196MOL0     O25764   2.825   2.648   8.181 -0.2827 -0.4012 -0.3656
  196MOL0     C25765   2.762   2.648   8.063 -1.4636 -0.3791  0.6140
  196MOL0     C25766   2.758   2.528   7.995 -0.1724  0.0394  0.9113
  196MOL0     C25767   2.686   2.508   7.876  0.2655 -0.2982 -0.3724
  196MOL0     C25768   2.629   2.620   7.816 -0.4347 -1.2479  0.0939
  196MOL0     C25769   2.537   2.604   7.697  0.8371 -0.7382 -1.0610
  196MOL0     O25770   2.523   2.475   7.645  0.0162 -0.2619  0.2005
  196MOL0     C25771   2.483   2.457   7.513 -0.0386  0.5393  0.5909
  196MOL0     C25772   2.342   2.466   7.476  0.0210  0.3457  0.5599
  196MOL0     C25773   2.304   2.436   7.340 -0.2530 -0.7939  0.2110
  196MOL0     C25774   2.407   2.395   7.249 -0.1185 -0.4358  0.3076
  196MOL0     O25775   2.381   2.343   7.127  1.3315 -0.1850  0.2722
  196MOL0     C25776   2.242   2.329   7.076 -0.0526 -0.1630 -0.0767
  196MOL0     C25777   2.210   2.453   6.995  1.1984 -1.0748 -0.2719
  196MOL0     C25778   2.237   2.439   6.841  0.6082 -0.0817  1.4888
  196MOL0     C25779   2.236   2.571   6.772  0.7061 -0.6353  0.1150
  196MOL0     C25780   2.226   2.562   6.620 -0.4315  0.2074 -0.3215
  196MOL0     C25781   2.236   2.705   6.557 -0.5943  0.3376  0.8779
  196MOL0     C25782   2.222   2.705   6.404  0.0217 -0.4515  0.1264
  196MOL0     C25783   2.191   2.848   6.342 -0.5661 -0.5899 -0.5261
  196MOL0    Cl25784   2.324   2.892   6.231 -0.0204 -0.1036 -0.0394
  196MOL0     C25785   2.553   2.380   7.283  0.0074 -0.9650  0.7783
  196MOL0     C25786   2.575   2.408   7.420 -0.7598 -0.2430 -0.8569
  196MOL0     O25787   2.492   2.707   7.654 -0.1931  0.0281 -0.5411
  196MOL0     C25788   2.642   2.747   7.883 -0.8693  0.3381  0.1710
  196MOL0     C25789   2.722   2.771   7.998  0.3609  0.1095  0.1411
  196MOL0     N25790   3.225   2.399   8.376 -0.0349 -1.3955  0.3701
  196MOL0     N25791   3.277   2.344   8.476  0.7123 -0.2284 -0.0257
  196MOL0     C25792   4.182   2.610   9.159 -0.3040  0.6372  0.4873
  196MOL0     C25793   4.303   2.677   9.156  0.1594 -0.1931 -0.5411
  196MOL0     C25794   4.770   2.708   9.177 -0.0008  0.2676 -0.0440
  196MOL0     C25795   4.774   2.837   9.225  1.1155  0.1519  0.0938
  196MOL0     C25796   4.898   2.892   9.263  0.1492  0.3000  0.0497
  196MOL0     C25797   5.025   2.827   9.257  1.0759 -0.0553 -0.4105
  196MOL0     O25798   5.129   2.897   9.306  0.2481  0.2705  0.6065
  196MOL0     C25799   5.266   2.849   9.281  0.0709 -0.5648 -0.5336
  196MOL0     C25800   5.336   2.802   9.403 -0.4832  0.8654 -0.3327
  196MOL0     C25801   5.266   2.685   9.467 -0.1239 -0.5895  0.6799
  196MOL0     C25802   5.336   2.635   9.601  0.0617 -0.9594  0.1092
  196MOL0     C25803   5.472   2.601   9.583 -0.0541 -0.5134 -0.4900
  196MOL0     C25804   5.591   2.572   9.563  0.1402 -0.5190 -1.1534
  196MOL0     C25805   5.020   2.699   9.205 -0.3388 -0.5756 -0.3375
  196MOL0     C25806   4.897   2.647   9.168 -0.4589  1.2222  0.2257
  196MOL0     H25807   4.507   2.389   9.185 -0.1562 -1.1381 -1.6492
  196MOL0     H25808   4.300   2.289   9.140  0.4141  0.7220 -1.1139
  196MOL0     H25809   4.093   2.238   9.121 -1.6113  1.7105  5.5598
  196MOL0     H25810   4.036   2.323   8.968  3.4599  2.2460  0.4880
  196MOL0     H25811   3.860   2.244   9.212 -3.4660  1.9922  0.0057
  196MOL0     H25812   3.887   2.140   9.080 -2.8325  0.2197  0.5497
  196MOL0     H25813   3.799   2.362   8.939 -1.1390  2.1334 -0.6390
  196MOL0     H25814   3.784   2.431   9.100 -3.7800  0.9137 -2.5199
  196MOL0     H25815   3.655   2.155   9.020  0.5284  0.4319  1.4313
  196MOL0     H25816   3.630   2.239   9.167 -1.2335  2.2596 -0.4758
  196MOL0     H25817   3.519   2.423   9.049  2.3931  1.7473  0.6987
  196MOL0     H25818   3.457   2.255   8.990  0.6739 -0.7123  1.1661
  196MOL0     H25819   3.615   2.303   8.801 -1.1926 -1.6799 -1.4618
  196MOL0     H25820   3.598   2.479   8.841 -1.7834  1.4296  3.7633
  196MOL0     H25821   3.350   2.311   8.791  1.0645 -0.7292 -0.1389
  196MOL0     H25822   3.387   2.489   8.768 -2.4291 -0.3224 -2.6618
  196MOL0     H25823   3.497   2.260   8.612  2.1759 -0.4172  0.1856
  196MOL0     H25824   3.571   2.413   8.609 -0.7659 -2.5206  0.1810
  196MOL0     H25825   3.459   2.616   8.463  0.5747 -0.5006  1.5366
  196MOL0     H25826   3.264   2.539   8.132 -1.0348 -0.0024  0.4282
  196MOL0     H25827   3.386   2.629   8.200 -0.2141 -1.6260  0.5423
  196MOL0     H25828   3.209   2.776   8.139  3.5818  1.1351  2.1892
  196MOL0     H25829   3.206   2.777   8.317 -0.8849 -0.6234  0.2084
  196MOL0     H25830   3.048   2.575   8.163 -2.3475 -1.1643  1.2831
  196MOL0     H25831   3.031   2.618   8.330 -0.3542  0.6908  0.4717
  196MOL0     H25832   2.942   2.805   8.108 -3.7881  0.2754 -0.3678
  196MOL0     H25833   2.896   2.817   8.273 -0.0555  0.7039 -0.1987
  196MOL0     H25834   2.797   2.439   8.043  0.8390 -0.2548 -0.3955
  196MOL0     H25835   2.673   2.411   7.829 -0.6797  0.7526 -2.4205
  196MOL0     H25836   2.263   2.488   7.546 -0.9081 -2.4655  0.4951
  196MOL0     H25837   2.211   2.466   7.294  1.6217  5.1725 -0.5275
  196MOL0     H25838   2.161   2.309   7.147 -0.0454  0.1045  0.0074
  196MOL0     H25839   2.250   2.243   7.010  0.9055 -1.7608  2.0020
  196MOL0     H25840   2.265   2.544   7.023 -2.2655  0.6412  1.6452
  196MOL0     H25841   2.103   2.473   7.000  1.2641 -0.4593 -1.0418
  196MOL0     H25842   2.177   2.362   6.791 -0.7513  1.6065  0.3938
  196MOL0     H25843   2.344   2.414   6.835  1.8467  4.3382  1.5765
  196MOL0     H25844   2.150   2.633   6.800 -0.0976 -0.1035 -3.1264
  196MOL0     H25845   2.331   2.624   6.787  0.7991  0.2210 -2.8553
  196MOL0     H25846   2.129   2.520   6.592 -0.1411 -0.0169 -1.0336
  196MOL0     H25847   2.299   2.491   6.579  0.5040  0.3396  1.0446
  196MOL0     H25848   2.338   2.730   6.590 -0.6452  0.1594  1.1738
  196MOL0     H25849   2.166   2.770   6.609 -1.7309  0.2754 -0.5275
  196MOL0     H25850   2.318   2.663   6.372  0.8891 -2.0251  4.1359
  196MOL0     H25851   2.152   2.628   6.369 -2.3046  2.7712 -3.0446
  196MOL0     H25852   2.180   2.927   6.417 -0.4963  1.4881 -2.5851
  196MOL0     H25853   2.099   2.865   6.285  1.5948  1.9890 -3.6076
  196MOL0     H25854   2.636   2.345   7.223  0.9873  0.9053  0.9529
  196MOL0     H25855   2.681   2.396   7.440 -0.6997 -2.7254 -2.1307
  196MOL0     H25856   2.579   2.833   7.863  0.7435  2.4761  3.3311
  196MOL0     H25857   2.739   2.868   8.044  3.0035  0.2636 -1.0036
  196MOL0     H25858   4.101   2.680   9.139  1.6851  2.4852 -1.7491
  196MOL0     H25859   4.298   2.784   9.144  2.3177 -0.0297 -0.3170
  196MOL0     H25860   4.689   2.902   9.244 -0.6498 -1.7600 -0.8213
  196MOL0     H25861   4.885   2.990   9.306  0.2016 -1.4225  4.4626
  196MOL0     H25862   5.328   2.924   9.231  0.5577  0.8589  2.0404
  196MOL0     H25863   5.265   2.764   9.212 -1.1114  1.2542 -2.9085
  196MOL0     H25864   5.437   2.772   9.372 -0.3251  0.0195  0.9408
  196MOL0     H25865   5.327   2.883   9.476  2.5642  0.5860  0.5253
  196MOL0     H25866   5.276   2.609   9.389 -0.3398  0.7602 -0.7000
  196MOL0     H25867   5.164   2.715   9.492 -0.0428  0.3588 -0.0890
  196MOL0     H25868   5.332   2.717   9.674 -2.3786 -0.9649  0.0812
  196MOL0     H25869   5.284   2.552   9.650 -0.6697  0.1071  1.2113
  196MOL0     H25870   5.695   2.552   9.550  0.5200 -1.3272  2.2014
  196MOL0     H25871   5.111   2.641   9.198  0.3372  0.3284  0.5850
  196MOL0     H25872   4.905   2.542   9.144 -2.9473  1.1555 -0.6220
  197MOL0     O25873   7.986  10.235   5.385 -0.3725 -0.2318 -0.3523
  197MOL0     C25874   8.008  10.116   5.386 -0.3723  1.3154 -0.5203
  197MOL0     O25875   8.126  10.052   5.348  0.7027  0.0734  0.0311
  197MOL0     C25876   8.234  10.133   5.316  0.5630 -0.3173  0.6648
  197MOL0     C25877   8.280  10.247   5.375 -1.1346 -1.1539 -0.1396
  197MOL0     C25878   8.401  10.310   5.339 -0.3109 -0.7616  0.7644
  197MOL0     C25879   8.472  10.252   5.231  0.1367  0.7573 -0.3518
  197MOL0     O25880   8.588  10.317   5.193  1.0877  1.2328  0.1825
  197MOL0     C25881   8.675  10.245   5.098 -1.4770 -1.1442 -1.1719
  197MOL0     C25882   8.814  10.315   5.093  0.0748  1.2118 -0.0557
  197MOL0     C25883   8.904  10.260   4.982 -0.2250  0.4545  0.9472
  197MOL0     C25884   8.890  10.116   4.944 -0.3415  0.3204 -0.7173
  197MOL0     C25885   8.979  10.072   4.820  0.7163  0.3973  0.3931
  197MOL0     C25886   9.133  10.094   4.841  0.6033  0.9486  0.5097
  197MOL0     C25887   9.215  10.000   4.743 -0.3796  0.1345 -0.0781
  197MOL0     C25888   9.368  10.021   4.754  0.0996 -0.2684 -0.2798
  197MOL0     N25889   9.424  10.144   4.704 -0.3637  0.7494  0.6303
  197MOL0     C25890   9.371  10.269   4.705 -0.5379  0.1258 -0.9812
  197MOL0     C25891   9.465  10.342   4.641  0.9523  0.0733 -0.6408
  197MOL0     C25892   9.453  10.496   4.635 -0.5042 -0.8023 -0.0722
  197MOL0     C25893   9.577  10.565   4.570 -0.5003 -0.5953 -0.5524
  197MOL0     C25894   9.567  10.723   4.576 -0.0590 -0.7490  0.1276
  197MOL0     C25895   9.459  10.777   4.493 -0.0410 -0.4374  0.4754
  197MOL0     O25896   9.487  10.752   4.352 -0.7795  0.5353 -0.4882
  197MOL0     C25897   9.432  10.831   4.257 -0.6928  0.2138 -0.0271
  197MOL0     C25898   9.334  10.939   4.265  0.2587 -0.0899 -0.7683
  197MOL0     C25899   9.284  11.002   4.144 -1.0725 -0.2517 -0.3996
  197MOL0     C25900   9.332  10.967   4.012  1.2316 -0.2209 -0.3214
  197MOL0     C25901   9.264  10.997   3.885  0.1999 -1.0879 -0.3943
  197MOL0     O25902   9.333  10.987   3.775 -0.3167 -0.4707  0.3727
  197MOL0     C25903   9.278  11.020   3.655  0.7844  0.1268  0.4403
  197MOL0     C25904   9.204  10.914   3.592 -0.0808 -0.3580 -1.2033
  197MOL0     C25905   9.172  10.926   3.455  0.4418  0.0155  0.2314
  197MOL0     C25906   9.198  11.043   3.385  0.6151  0.2509  0.1773
  197MOL0     O25907   9.192  11.044   3.251 -0.2350 -0.2163  0.2233
  197MOL0     C25908   9.058  11.022   3.211  0.9042 -0.0158  0.4483
  197MOL0     C25909   9.074  10.992   3.055 -0.2535  0.0462  0.4660
  197MOL0     C25910   8.946  10.950   3.003 -0.0505  0.1995 -0.1217
  197MOL0     C25911   8.970  10.900   2.861 -0.2579 -0.5695 -0.1017
  197MOL0     C25912   8.963  11.016   2.759  0.7637 -0.0826 -0.7504
  197MOL0     C25913   8.902  10.978   2.628  0.0211  0.0550 -0.6012
  197MOL0     C25914   8.928  11.075   2.516  0.3004  0.2722  0.7367
  197MOL0     C25915   8.907  11.007   2.378 -0.5086  0.3542  0.9036
  197MOL0    Cl25916   8.744  10.939   2.373  0.2548 -0.0863  0.2340
  197MOL0     C25917   9.263  11.143   3.453 -0.8288 -0.6220 -0.0416
  197MOL0     C25918   9.296  11.147   3.595 -0.1503 -0.3341  0.9902
  197MOL0     O25919   9.148  11.041   3.890 -0.9234 -0.1788 -0.6162
  197MOL0     C25920   9.426  10.861   4.009  0.3079 -0.1420  0.1010
  197MOL0     C25921   9.471  10.799   4.126 -0.2409  0.0433 -0.9501
  197MOL0     N25922   9.564  10.264   4.591 -0.3321 -0.5077 -0.8677
  197MOL0     N25923   9.526  10.145   4.615  0.6160 -0.2731  0.3634
  197MOL0     C25924   8.424  10.139   5.174 -0.6348  0.2097  0.7744
  197MOL0     C25925   8.306  10.074   5.215  1.1998 -0.6155  0.7229
  197MOL0     C25926   7.906  10.026   5.445  1.3809 -0.8218 -0.7209
  197MOL0     C25927   7.810  10.075   5.532  0.0509  0.0483 -0.1406
  197MOL0     C25928   7.713  10.000   5.602  0.9362  0.2768  0.0280
  197MOL0     C25929   7.710   9.862   5.596 -0.2726 -0.5060 -0.2271
  197MOL0     O25930   7.654   9.778   5.685 -0.0585  0.0957  0.3510
  197MOL0     C25931   7.535   9.831   5.737 -0.4193 -0.1498  0.5552
  197MOL0     C25932   7.428   9.846   5.626 -0.4937  0.1534 -0.6393
  197MOL0     C25933   7.291   9.894   5.681 -0.1340  0.9347  0.3457
  197MOL0     C25934   7.282  10.033   5.726 -0.7095 -0.6809  0.1577
  197MOL0     C25935   7.152  10.042   5.798 -0.1635 -0.4066  0.3818
  197MOL0     C25936   7.050  10.060   5.859 -0.7318 -0.3572 -0.1145
  197MOL0     C25937   7.796   9.810   5.493  0.7133  0.7735  0.4081
  197MOL0     C25938   7.894   9.888   5.423 -0.6379  1.0262  0.2047
  197MOL0     H25939   8.214  10.291   5.450 -0.4202 -0.0290 -0.1489
  197MOL0     H25940   8.445  10.398   5.385 -0.3381 -0.7596  0.7867
  197MOL0     H25941   8.631  10.243   4.998  0.7993  0.6911 -2.2981
  197MOL0     H25942   8.689  10.144   5.136 -2.0461 -1.3791 -1.5671
  197MOL0     H25943   8.860  10.308   5.192 -0.9873  2.7202  0.5760
  197MOL0     H25944   8.792  10.416   5.057 -1.1682  0.1969 -2.4216
  197MOL0     H25945   9.005  10.280   5.017  0.0010  2.6546 -0.7416
  197MOL0     H25946   8.884  10.321   4.894 -0.3756 -1.2894 -0.2628
  197MOL0     H25947   8.913  10.066   5.039 -0.7089  1.8380  0.2066
  197MOL0     H25948   8.786  10.093   4.916  0.2026  0.3178 -2.9140
  197MOL0     H25949   8.953  10.123   4.727  4.6477  0.9424 -0.5671
  197MOL0     H25950   8.945   9.968   4.815  0.7696  0.1465  3.4359
  197MOL0     H25951   9.152  10.065   4.945 -2.9214  1.7256  1.4752
  197MOL0     H25952   9.148  10.200   4.820  0.7437  0.5387 -1.6877
  197MOL0     H25953   9.197   9.895   4.770 -0.3383  0.2409  0.3673
  197MOL0     H25954   9.181  10.007   4.639  0.6652  0.5419 -0.4073
  197MOL0     H25955   9.420   9.945   4.696  0.2954 -0.7770  0.5474
  197MOL0     H25956   9.393  10.011   4.860  0.9046  0.9904 -0.3337
  197MOL0     H25957   9.285  10.305   4.760 -1.6235 -2.3354 -0.9298
  197MOL0     H25958   9.430  10.543   4.732 -1.3463 -0.6693 -0.3233
  197MOL0     H25959   9.367  10.518   4.571 -1.0804 -1.4685  0.4434
  197MOL0     H25960   9.584  10.544   4.463  2.3739  1.6523 -0.9013
  197MOL0     H25961   9.668  10.531   4.620 -0.6316  1.8386  1.5243
  197MOL0     H25962   9.547  10.769   4.674 -2.2112 -0.9005 -0.1763
  197MOL0     H25963   9.665  10.750   4.537  2.4296 -6.4228  1.3825
  197MOL0     H25964   9.440  10.882   4.514 -1.0413 -0.9516  2.3501
  197MOL0     H25965   9.364  10.726   4.512 -0.8252  0.0396 -1.9181
  197MOL0     H25966   9.279  10.967   4.355  1.1215 -1.0766  0.0932
  197MOL0     H25967   9.194  11.061   4.155 -2.6024 -2.3718 -0.9296
  197MOL0     H25968   9.188  10.813   3.627  1.0486 -0.5253 -1.1282
  197MOL0     H25969   9.118  10.838   3.420 -1.1207  1.0518 -0.0984
  197MOL0     H25970   9.004  11.116   3.226  2.1945  1.1249 -1.4867
  197MOL0     H25971   9.003  10.938   3.254 -0.7146 -0.9118 -2.9497
  197MOL0     H25972   9.140  10.906   3.043 -1.5617 -1.1733  1.5686
  197MOL0     H25973   9.110  11.081   3.002 -0.4023 -0.9738 -1.4404
  197MOL0     H25974   8.872  11.031   3.012 -0.1633  0.1150 -0.2763
  197MOL0     H25975   8.902  10.864   3.053  1.4364 -1.3601 -1.3620
  197MOL0     H25976   9.068  10.853   2.848  1.8055  3.2837 -0.2425
  197MOL0     H25977   8.888  10.831   2.843 -1.2479  0.7048 -0.6742
  197MOL0     H25978   9.065  11.053   2.746  0.5438  1.2225  0.8371
  197MOL0     H25979   8.893  11.092   2.795  0.4887 -1.7517  2.6937
  197MOL0     H25980   8.796  10.969   2.652  0.5523 -2.2730  1.1488
  197MOL0     H25981   8.937  10.881   2.592  0.6899  0.1265 -0.1684
  197MOL0     H25982   8.869  11.167   2.523  1.4700  0.9521  2.5813
  197MOL0     H25983   9.032  11.110   2.516 -0.1013  1.5740 -0.4255
  197MOL0     H25984   8.979  10.925   2.374 -1.3682 -0.3512 -1.0132
  197MOL0     H25985   8.915  11.073   2.291  4.4951 -0.3245  0.5769
  197MOL0     H25986   9.282  11.230   3.393 -2.0068 -1.5843 -1.9043
  197MOL0     H25987   9.337  11.230   3.652 -1.5622  2.4298 -1.7277
  197MOL0     H25988   9.469  10.831   3.914  0.3038  0.0452  0.0404
  197MOL0     H25989   9.539  10.714   4.116 -0.2705 -0.0660 -0.2549
  197MOL0     H25990   8.484  10.078   5.108 -0.4212  1.0001  0.2364
  197MOL0     H25991   8.281   9.975   5.177 -2.2691  1.1159 -2.0560
  197MOL0     H25992   7.812  10.182   5.547 -0.6492  0.5740 -3.1482
  197MOL0     H25993   7.654  10.053   5.676  2.5209 -1.5570  2.8199
  197MOL0     H25994   7.550   9.926   5.789  0.4321  0.2562 -0.3931
  197MOL0     H25995   7.494   9.754   5.803  1.2136 -1.8225 -0.3128
  197MOL0     H25996   7.456   9.917   5.548  0.5146 -0.0793 -0.4933
  197MOL0     H25997   7.415   9.752   5.572 -2.4014  0.1551 -0.2527
  197MOL0     H25998   7.265   9.821   5.759  0.5987  2.1266  1.7396
  197MOL0     H25999   7.228   9.883   5.592 -0.6695  2.1338  0.5620
  197MOL0     H26000   7.365  10.051   5.796 -0.3863 -2.0426  0.1523
  197MOL0     H26001   7.296  10.099   5.640 -0.3199 -0.6690  0.2280
  197MOL0     H26002   6.963  10.061   5.921 -2.7872  2.1761 -2.7772
  197MOL0     H26003   7.799   9.703   5.478  2.8743  0.8690 -0.0812
  197MOL0     H26004   7.969   9.856   5.352  0.5704  2.6563  0.6925
  198MOL0     O26005   3.496   5.444   2.355 -0.1967 -1.1628  0.6969
  198MOL0     C26006   3.600   5.481   2.291  0.3085 -0.2953 -0.0121
  198MOL0     O26007   3.650   5.604   2.301  0.8300 -0.6255 -0.8485
  198MOL0     C26008   3.566   5.699   2.351  0.6288 -0.7083  0.3473
  198MOL0     C26009   3.500   5.785   2.266 -0.6587  0.0398  0.5776
  198MOL0     C26010   3.412   5.883   2.304 -0.3178 -0.3917 -0.7020
  198MOL0     C26011   3.373   5.892   2.436 -1.3059 -1.2533 -0.7372
  198MOL0     O26012   3.309   5.997   2.496 -0.0677  0.0286  0.4997
  198MOL0     C26013   3.177   5.958   2.541  0.5488 -1.0523  0.5579
  198MOL0     C26014   3.160   6.017   2.685 -0.4003  0.2543  0.2039
  198MOL0     C26015   3.047   5.954   2.772  0.1093 -0.6475  0.3647
  198MOL0     C26016   3.088   5.828   2.839 -0.0891 -0.0870 -0.6236
  198MOL0     C26017   2.965   5.765   2.904 -0.2021  1.0161  0.4160
  198MOL0     C26018   2.845   5.728   2.811 -0.3582  1.7881  0.4108
  198MOL0     C26019   2.882   5.650   2.676  0.2572  0.8720 -0.4623
  198MOL0     C26020   2.911   5.496   2.697  0.1441  0.5758  0.2501
  198MOL0     N26021   2.940   5.433   2.570 -0.0476 -0.6719 -0.2327
  198MOL0     C26022   3.068   5.415   2.523 -0.1445  0.5683 -0.9552
  198MOL0     C26023   3.056   5.314   2.445  0.6764 -0.6618  1.0094
  198MOL0     C26024   3.172   5.252   2.375  0.0913 -0.5726 -0.4720
  198MOL0     C26025   3.146   5.262   2.224  0.5313 -0.5575  0.6758
  198MOL0     C26026   3.207   5.142   2.149  0.0391 -1.0651 -0.0799
  198MOL0     C26027   3.108   5.093   2.045  0.8142 -0.4129  0.1286
  198MOL0     O26028   3.178   5.046   1.930 -0.0020  0.1135 -0.0891
  198MOL0     C26029   3.097   4.986   1.841  0.9983 -0.3643  0.6612
  198MOL0     C26030   2.952   4.992   1.829  0.0888  0.1479 -0.1083
  198MOL0     C26031   2.895   4.933   1.713 -1.0899  0.1816 -1.4045
  198MOL0     C26032   2.966   4.858   1.619 -0.6396 -0.4566 -0.6134
  198MOL0     C26033   2.894   4.795   1.510 -0.8834  1.0077  0.6964
  198MOL0     O26034   2.756   4.788   1.514 -0.4369  0.4007  0.3909
  198MOL0     C26035   2.700   4.737   1.403 -0.5824 -0.7292  0.0095
  198MOL0     C26036   2.695   4.593   1.385 -0.4396 -0.1026  1.0252
  198MOL0     C26037   2.657   4.533   1.263  0.2133 -0.3363  0.2855
  198MOL0     C26038   2.636   4.624   1.156 -0.2217 -0.1480  0.2696
  198MOL0     O26039   2.596   4.568   1.032 -0.2779 -0.1456 -0.6135
  198MOL0     C26040   2.668   4.450   0.985 -0.3370 -0.2753 -0.9080
  198MOL0     C26041   2.663   4.436   0.836  1.1751  0.3470 -0.4375
  198MOL0     C26042   2.770   4.323   0.801  0.5656  0.9210  0.8491
  198MOL0     C26043   2.756   4.267   0.662  1.2811  0.1617 -0.9191
  198MOL0     C26044   2.869   4.171   0.616 -0.0773 -1.0176 -1.5167
  198MOL0     C26045   2.835   4.090   0.491 -0.3533 -0.3405 -0.3377
  198MOL0     C26046   2.955   4.054   0.413 -0.1816 -0.0999  0.1285
  198MOL0     C26047   3.060   3.972   0.491  0.4638  0.2376  0.2895
  198MOL0    Cl26048   3.185   3.884   0.390  0.1563  0.8304  0.2959
  198MOL0     C26049   2.660   4.758   1.164  1.2612  0.1777 -0.0464
  198MOL0     C26050   2.692   4.810   1.290 -0.3070 -0.6058 -0.0772
  198MOL0     O26051   2.962   4.760   1.407  0.9930 -0.0803 -0.5224
  198MOL0     C26052   3.105   4.865   1.629 -0.8029  0.4886  0.9190
  198MOL0     C26053   3.163   4.914   1.744  0.4204 -1.4883 -0.1446
  198MOL0     N26054   2.930   5.285   2.423  0.6830  0.1378  0.7333
  198MOL0     N26055   2.853   5.358   2.507  0.0031  0.1447  0.2980
  198MOL0     C26056   3.424   5.804   2.528 -0.2103  0.2935  0.1493
  198MOL0     C26057   3.521   5.704   2.489 -0.7377  0.6078 -0.2696
  198MOL0     C26058   3.687   5.392   2.197 -1.0713  0.3575 -0.8594
  198MOL0     C26059   3.645   5.260   2.181 -0.5420  0.6571 -0.7277
  198MOL0     C26060   3.723   5.165   2.114 -0.2239 -0.5992  0.2750
  198MOL0     C26061   3.821   5.213   2.035 -0.9876  0.3010  0.0003
  198MOL0     O26062   3.918   5.134   1.973  0.1330 -0.2297  0.8373
  198MOL0     C26063   3.897   4.997   1.966  0.3095 -0.3530  1.1706
  198MOL0     C26064   4.030   4.952   1.892  0.6917  0.4344  0.2808
  198MOL0     C26065   4.144   4.899   1.976 -0.4084  0.8212 -0.8151
  198MOL0     C26066   4.274   4.868   1.901 -0.1909 -0.2247  0.0436
  198MOL0     C26067   4.299   4.727   1.919 -1.1547  0.2210 -0.2872
  198MOL0     C26068   4.309   4.613   1.933  1.0986 -0.6023 -0.6510
  198MOL0     C26069   3.864   5.351   2.042  0.1497  0.8085 -0.1703
  198MOL0     C26070   3.793   5.439   2.123  0.5370  0.0623  0.4997
  198MOL0     H26071   3.511   5.771   2.159 -0.6518  2.8223  0.1286
  198MOL0     H26072   3.348   5.943   2.240  0.4356 -2.1274 -3.2357
  198MOL0     H26073   3.154   5.852   2.550 -1.3524 -0.6443  0.9125
  198MOL0     H26074   3.108   6.012   2.476  2.4474  0.8293 -0.0273
  198MOL0     H26075   3.145   6.125   2.680 -1.5459  0.0623 -2.1553
  198MOL0     H26076   3.253   6.003   2.740  0.1773  0.2889 -0.7477
  198MOL0     H26077   2.956   5.950   2.712 -2.5090  0.7611  3.8872
  198MOL0     H26078   3.020   6.026   2.850 -1.3920 -0.7574 -0.0330
  198MOL0     H26079   3.143   5.760   2.773  2.5449  1.2932 -0.0055
  198MOL0     H26080   3.161   5.844   2.919  1.6493 -1.5640 -1.7978
  198MOL0     H26081   2.939   5.827   2.991 -0.1129 -1.9225  2.6640
  198MOL0     H26082   3.003   5.672   2.946 -3.1426 -0.6534 -0.3406
  198MOL0     H26083   2.800   5.824   2.786  0.1738  2.3369  1.4944
  198MOL0     H26084   2.771   5.680   2.876 -0.9707  0.7422 -0.9905
  198MOL0     H26085   2.799   5.655   2.604 -1.3196 -2.2611  0.9680
  198MOL0     H26086   2.960   5.711   2.629  0.4082  1.0299 -0.0094
  198MOL0     H26087   2.832   5.439   2.747  0.0557 -0.8910 -1.4559
  198MOL0     H26088   3.005   5.483   2.752  0.1997 -2.7502 -0.4222
  198MOL0     H26089   3.156   5.467   2.560  0.6594 -0.8690 -0.8134
  198MOL0     H26090   3.186   5.149   2.408 -2.1423 -0.2471  1.7488
  198MOL0     H26091   3.266   5.302   2.402 -0.0584 -1.0407  1.0081
  198MOL0     H26092   3.204   5.351   2.197  0.4634 -0.6528  0.2209
  198MOL0     H26093   3.043   5.282   2.196  0.3751 -2.9456 -0.7061
  198MOL0     H26094   3.305   5.169   2.109 -1.0446  1.0749 -1.5723
  198MOL0     H26095   3.214   5.054   2.213  0.0093 -1.2531 -0.3344
  198MOL0     H26096   3.035   5.167   2.010 -0.6480 -1.4580  0.8708
  198MOL0     H26097   3.058   5.008   2.091  1.5055 -1.2628 -0.6629
  198MOL0     H26098   2.892   5.049   1.899 -2.1644 -1.6176 -0.4861
  198MOL0     H26099   2.787   4.927   1.717 -0.9887 -2.6907 -1.0121
  198MOL0     H26100   2.724   4.542   1.476  0.6148 -0.6847  0.3935
  198MOL0     H26101   2.645   4.427   1.243 -2.1714  0.1097 -1.0144
  198MOL0     H26102   2.623   4.367   1.040  0.9272  0.1572  0.8544
  198MOL0     H26103   2.771   4.449   1.022 -0.2127  4.0335 -0.5814
  198MOL0     H26104   2.679   4.524   0.774 -2.9871  0.7798 -1.1729
  198MOL0     H26105   2.561   4.405   0.810  1.2389 -0.7540  0.5544
  198MOL0     H26106   2.764   4.242   0.874 -0.7706 -0.8215 -1.0544
  198MOL0     H26107   2.863   4.379   0.810  1.1099  0.1481  0.2038
  198MOL0     H26108   2.662   4.212   0.648  1.3599  0.2988 -2.0553
  198MOL0     H26109   2.759   4.346   0.587  3.1256  0.6634 -0.3710
  198MOL0     H26110   2.877   4.104   0.702  1.2673 -0.7818 -1.4474
  198MOL0     H26111   2.958   4.233   0.604 -0.5646 -0.4900 -2.5874
  198MOL0     H26112   2.764   4.145   0.429 -0.9591 -1.5325 -0.7438
  198MOL0     H26113   2.777   4.001   0.517  1.5929 -2.2160 -1.9788
  198MOL0     H26114   2.922   3.993   0.328  0.2613 -0.7983  0.4534
  198MOL0     H26115   3.010   4.143   0.380  3.1625 -1.6936  0.9638
  198MOL0     H26116   2.995   3.903   0.546 -2.5891  0.8590 -2.2002
  198MOL0     H26117   3.114   4.034   0.563 -1.4141  1.9686  0.3118
  198MOL0     H26118   2.670   4.813   1.070 -0.6726  1.2481  0.3328
  198MOL0     H26119   2.703   4.918   1.292 -0.5148 -0.5344 -1.5817
  198MOL0     H26120   3.170   4.811   1.561  0.1853  0.3669  1.9461
  198MOL0     H26121   3.270   4.901   1.739  0.3307 -3.3883  1.4885
  198MOL0     H26122   3.410   5.810   2.635  2.9223 -0.3614  0.6701
  198MOL0     H26123   3.564   5.625   2.550 -0.3268  0.8925 -0.1866
  198MOL0     H26124   3.560   5.229   2.242 -0.9554 -1.2330 -2.1639
  198MOL0     H26125   3.698   5.060   2.120 -2.0857 -0.2696 -0.8247
  198MOL0     H26126   3.822   4.987   1.887  1.3000 -2.3651  0.4078
  198MOL0     H26127   3.883   4.931   2.052 -1.5372 -2.1668 -0.4094
  198MOL0     H26128   4.000   4.874   1.821 -0.7148 -0.1368  1.4571
  198MOL0     H26129   4.060   5.035   1.827  0.8912 -0.3809 -0.6856
  198MOL0     H26130   4.114   4.808   2.029  3.2410 -0.0723 -0.0031
  198MOL0     H26131   4.172   4.971   2.053 -1.9285  2.4028 -1.6775
  198MOL0     H26132   4.251   4.883   1.795 -1.3237 -2.2383 -0.0677
  198MOL0     H26133   4.359   4.928   1.932  0.7227 -1.4496  0.0017
  198MOL0     H26134   4.307   4.508   1.958  3.2113 -0.1263  1.9730
  198MOL0     H26135   3.949   5.379   1.980  0.0560 -1.3588 -1.3534
  198MOL0     H26136   3.823   5.543   2.131  1.0462 -0.1207  1.0564
  199MOL0     O26137   8.417  10.048   2.938 -0.2500 -0.0465  1.0234
  199MOL0     C26138   8.354  10.108   2.851  0.1173  0.4233  0.4163
  199MOL0     O26139   8.389  10.226   2.801  0.6822  0.8657 -1.1985
  199MOL0     C26140   8.465  10.309   2.869 -0.4102 -0.5185 -0.8009
  199MOL0     C26141   8.462  10.330   3.000  0.1026 -0.8724  0.0854
  199MOL0     C26142   8.555  10.414   3.063 -0.4338  0.4864 -0.8080
  199MOL0     C26143   8.641  10.500   2.988 -0.0526  1.2098  0.1213
  199MOL0     O26144   8.740  10.576   3.057 -0.5457  0.1353  0.7866
  199MOL0     C26145   8.875  10.556   3.016 -0.5123 -0.0548 -1.1484
  199MOL0     C26146   8.986  10.577   3.122  0.2525 -0.6594 -0.0047
  199MOL0     C26147   9.121  10.555   3.051  0.2595  0.1192 -0.5449
  199MOL0     C26148   9.138  10.417   2.996 -1.1684  0.3464 -0.5029
  199MOL0     C26149   9.094  10.311   3.088 -0.3833 -0.6189  0.3048
  199MOL0     C26150   9.136  10.169   3.031 -0.2260 -0.7188 -0.1641
  199MOL0     C26151   9.176  10.066   3.139 -1.0118 -0.6603 -0.8247
  199MOL0     C26152   9.069  10.018   3.244 -0.8738 -0.1730  0.4943
  199MOL0     N26153   9.129   9.946   3.357  0.8539 -0.2755  0.2365
  199MOL0     C26154   9.166   9.990   3.478 -0.8969 -0.2807 -0.1889
  199MOL0     C26155   9.170   9.881   3.558 -1.1727 -0.2640  0.9464
  199MOL0     C26156   9.166   9.907   3.707 -0.0424  0.2813 -0.2477
  199MOL0     C26157   9.210   9.795   3.792 -0.1359  0.7128  1.0605
  199MOL0     C26158   9.356   9.760   3.805  1.1356  0.2178 -0.5628
  199MOL0     C26159   9.409   9.750   3.950  0.4527 -0.3302 -0.3417
  199MOL0     O26160   9.551   9.710   3.962  1.1338  0.8211  0.3071
  199MOL0     C26161   9.640   9.803   3.920 -0.5066 -0.3717 -0.0401
  199MOL0     C26162   9.772   9.764   3.913  0.0507  0.1602 -0.4842
  199MOL0     C26163   9.872   9.855   3.905 -1.1571 -0.5359  0.2737
  199MOL0     C26164   9.851   9.992   3.883 -0.2391 -0.1222 -0.2617
  199MOL0     C26165   9.961  10.090   3.865 -0.6019  1.4005 -0.7844
  199MOL0     O26166  10.087  10.037   3.878  0.0265 -0.2582 -0.2623
  199MOL0     C26167  10.191  10.126   3.867  1.4512 -0.0594 -0.5222
  199MOL0     C26168  10.202  10.236   3.966 -0.5149  0.1381  0.4407
  199MOL0     C26169  10.310  10.328   3.962  0.0073  0.6091  0.5274
  199MOL0     C26170  10.397  10.318   3.857  0.0479  0.4179  0.2010
  199MOL0     O26171  10.498  10.411   3.856  0.6860 -0.1070  0.5484
  199MOL0     C26172  10.523  10.488   3.729  0.1912  0.2748 -0.0349
  199MOL0     C26173  10.642  10.579   3.759  0.4356  0.0240  0.3402
  199MOL0     C26174  10.691  10.672   3.647 -1.0069  0.1823  0.6482
  199MOL0     C26175  10.716  10.623   3.497  0.5881 -0.2486 -0.1817
  199MOL0     C26176  10.814  10.513   3.479  0.4883 -0.8120 -0.5031
  199MOL0     C26177  10.796  10.449   3.350  0.3673 -0.3032 -0.5509
  199MOL0     C26178  10.893  10.326   3.342  0.1200 -0.5272 -0.0616
  199MOL0     C26179  11.050  10.352   3.343  0.4909  0.1556  2.0941
  199MOL0    Cl26180  11.099  10.334   3.165 -0.0811 -0.2747  0.4970
  199MOL0     C26181  10.377  10.227   3.755  0.3767 -0.6675 -0.4953
  199MOL0     C26182  10.282  10.125   3.758  0.0651  0.3933 -0.0279
  199MOL0     O26183   9.930  10.203   3.824 -0.1429 -0.2254  0.5525
  199MOL0     C26184   9.715  10.026   3.868  0.9146  0.0754  0.8418
  199MOL0     C26185   9.610   9.932   3.887  0.5054 -0.6690  0.8307
  199MOL0     N26186   9.147   9.772   3.473 -0.6704 -0.4204  0.0186
  199MOL0     N26187   9.135   9.810   3.349 -0.0674 -0.2128  0.0073
  199MOL0     C26188   8.630  10.496   2.847 -0.1249  1.0327 -0.1836
  199MOL0     C26189   8.547  10.399   2.796  0.2799 -0.7042 -0.4185
  199MOL0     C26190   8.232  10.041   2.797  0.4042  0.4257 -0.1834
  199MOL0     C26191   8.137  10.109   2.733 -0.3263  0.4134 -0.0418
  199MOL0     C26192   8.013  10.046   2.721 -0.0838  0.5681 -0.1486
  199MOL0     C26193   7.981   9.913   2.759 -0.1663 -0.1860  0.3755
  199MOL0     O26194   7.858   9.860   2.749 -0.0636 -0.6371  0.5755
  199MOL0     C26195   7.819   9.757   2.829  0.0123 -0.0803 -0.2601
  199MOL0     C26196   7.675   9.715   2.810 -0.1206  1.2292  0.2572
  199MOL0     C26197   7.577   9.810   2.876 -0.0054  0.0832 -0.9054
  199MOL0     C26198   7.428   9.775   2.870  0.2832  0.5319 -0.2666
  199MOL0     C26199   7.373   9.829   2.746  0.9187 -0.2405  0.2518
  199MOL0     C26200   7.323   9.871   2.645  1.5354  0.3724  0.3935
  199MOL0     C26201   8.087   9.841   2.814 -0.3278 -0.2125 -0.1792
  199MOL0     C26202   8.213   9.909   2.828 -0.2487  0.2146  0.1557
  199MOL0     H26203   8.380  10.289   3.058 -0.6688  3.2593  2.3031
  199MOL0     H26204   8.572  10.429   3.169 -0.6566 -1.1883 -0.5118
  199MOL0     H26205   8.906  10.622   2.934 -0.2275  1.1610 -0.0962
  199MOL0     H26206   8.886  10.449   2.995  2.1143 -0.5235  1.8236
  199MOL0     H26207   8.978  10.499   3.198  2.9195  2.0433  3.4085
  199MOL0     H26208   8.979  10.677   3.165  0.8398 -1.4089  1.9139
  199MOL0     H26209   9.198  10.555   3.129  0.3708  0.6891 -0.6489
  199MOL0     H26210   9.158  10.626   2.976  1.1026  1.0152  0.6844
  199MOL0     H26211   9.095  10.400   2.897  0.6553 -1.9964 -1.0091
  199MOL0     H26212   9.245  10.404   2.978 -1.8020 -3.9751 -2.4317
  199MOL0     H26213   8.988  10.307   3.114 -0.7511 -1.1535 -1.1923
  199MOL0     H26214   9.154  10.336   3.175  0.1971  0.1700 -0.3121
  199MOL0     H26215   9.226  10.166   2.969  2.1716 -3.1186  3.0651
  199MOL0     H26216   9.054  10.139   2.965  1.1130  0.9622 -2.7596
  199MOL0     H26217   9.225   9.982   3.090  3.6740 -0.2491  2.4924
  199MOL0     H26218   9.258  10.101   3.203 -2.1497 -0.9090  0.8288
  199MOL0     H26219   8.998   9.947   3.200  0.5997 -1.1613 -0.4078
  199MOL0     H26220   9.012  10.102   3.284 -1.2409  0.5448 -1.4410
  199MOL0     H26221   9.160  10.090   3.521  0.9878 -1.2074  2.4753
  199MOL0     H26222   9.065   9.929   3.743 -0.5437 -0.5371 -1.1149
  199MOL0     H26223   9.226   9.994   3.734 -0.2163  0.1063  0.7643
  199MOL0     H26224   9.158   9.715   3.738  1.8625  0.4977 -0.6704
  199MOL0     H26225   9.171   9.792   3.894 -0.6578 -0.2238  0.8487
  199MOL0     H26226   9.371   9.664   3.754 -0.6547  0.2824 -1.2661
  199MOL0     H26227   9.421   9.825   3.746  5.1808 -1.4265  1.6359
  199MOL0     H26228   9.349   9.672   3.997  0.5686 -0.7212 -0.8485
  199MOL0     H26229   9.400   9.839   4.014 -0.3059 -0.3673 -0.3831
  199MOL0     H26230   9.803   9.663   3.935 -0.2964  0.2349  0.3984
  199MOL0     H26231   9.968   9.807   3.921 -1.1889 -0.2346  1.4802
  199MOL0     H26232  10.117  10.266   4.027 -1.6500 -1.3177 -0.3685
  199MOL0     H26233  10.339  10.396   4.042  2.2979 -0.9255  1.0815
  199MOL0     H26234  10.442  10.551   3.692  0.4715  1.6721  1.5463
  199MOL0     H26235  10.560  10.415   3.657  1.0241  0.9634 -0.3250
  199MOL0     H26236  10.720  10.519   3.805  1.4453 -1.1668 -2.6709
  199MOL0     H26237  10.612  10.637   3.847  2.1224 -2.3675  2.6301
  199MOL0     H26238  10.776  10.731   3.681  1.5244 -2.4123 -0.7848
  199MOL0     H26239  10.617  10.751   3.631  0.2658  1.9009  2.6805
  199MOL0     H26240  10.613  10.603   3.467 -1.4617  3.7482  3.1540
  199MOL0     H26241  10.739  10.711   3.438  1.5419 -0.3142  0.0701
  199MOL0     H26242  10.803  10.435   3.555 -0.8385 -1.8940 -1.7560
  199MOL0     H26243  10.902  10.575   3.496 -0.6239  0.9067 -0.7662
  199MOL0     H26244  10.816  10.507   3.259  0.3816 -1.5814 -1.4018
  199MOL0     H26245  10.692  10.415   3.356  0.5113 -0.4710  2.2830
  199MOL0     H26246  10.879  10.269   3.434  0.4320  0.8793  0.8913
  199MOL0     H26247  10.870  10.259   3.259  2.5835 -0.6771 -0.6902
  199MOL0     H26248  11.102  10.282   3.408 -0.0969 -1.2130  1.1340
  199MOL0     H26249  11.071  10.453   3.379  2.8655  1.1408 -1.4847
  199MOL0     H26250  10.439  10.241   3.667  0.0101 -0.5842 -0.7424
  199MOL0     H26251  10.280  10.046   3.683  3.3851 -0.0549  0.1877
  199MOL0     H26252   9.699  10.120   3.816 -1.2953  0.4458  2.0852
  199MOL0     H26253   9.512   9.978   3.898  0.7403 -0.5041  2.6709
  199MOL0     H26254   8.697  10.555   2.785  1.6724 -2.8130 -2.2591
  199MOL0     H26255   8.538  10.401   2.688  4.6629 -1.6622 -0.9674
  199MOL0     H26256   8.146  10.210   2.694 -3.7241  0.8180 -0.0095
  199MOL0     H26257   7.922  10.091   2.683  1.0907  0.0762 -3.8632
  199MOL0     H26258   7.819   9.776   2.937 -0.5386 -0.8052 -0.1308
  199MOL0     H26259   7.870   9.663   2.807 -1.2835 -0.2466 -2.9401
  199MOL0     H26260   7.643   9.730   2.707 -1.1173 -1.3952  0.1130
  199MOL0     H26261   7.645   9.618   2.851 -2.5766  2.5884  2.0039
  199MOL0     H26262   7.589   9.908   2.829  1.0135  1.0377  1.2296
  199MOL0     H26263   7.598   9.824   2.982 -1.0079  2.5231 -0.9676
  199MOL0     H26264   7.409   9.668   2.884  0.3550  0.4482 -0.8145
  199MOL0     H26265   7.371   9.830   2.946 -1.0354 -0.3299 -0.5864
  199MOL0     H26266   7.271   9.918   2.565 -0.6095 -0.7553  1.0609
  199MOL0     H26267   8.080   9.740   2.853  0.6815  0.5833  2.2395
  199MOL0     H26268   8.282   9.851   2.888 -2.1066 -2.1565  0.1573
  200MOL0     O26269   0.298  10.973   2.054 -0.6108 -0.2115 -0.6685
  200MOL0     C26270   0.288  11.055   2.151 -0.6509 -0.8954 -0.0634
  200MOL0     O26271   0.378  11.099   2.248 -0.0656  0.0703  0.7941
  200MOL0     C26272   0.493  11.032   2.263 -0.4002 -0.4146  0.4736
  200MOL0     C26273   0.543  11.009   2.397  0.1689  0.3182  0.2408
  200MOL0     C26274   0.648  10.920   2.417 -0.5869  0.2474  0.1080
  200MOL0     C26275   0.733  10.890   2.308 -0.2153 -0.6498  0.1682
  200MOL0     O26276   0.844  10.812   2.297 -0.4098  0.3521 -0.6687
  200MOL0     C26277   0.919  10.800   2.418  0.4771  0.2105  0.5921
  200MOL0     C26278   1.041  10.713   2.395  0.9729 -1.1141  0.4166
  200MOL0     C26279   1.113  10.774   2.274 -0.8613 -0.8343  0.4388
  200MOL0     C26280   1.235  10.685   2.233  0.6451  0.2018 -0.3136
  200MOL0     C26281   1.307  10.716   2.101 -0.1657 -0.0641  0.7005
  200MOL0     C26282   1.413  10.622   2.060 -0.2254 -0.3386 -0.4246
  200MOL0     C26283   1.466  10.672   1.926 -0.0475 -0.6945  0.2391
  200MOL0     C26284   1.398  10.645   1.788  0.5208 -0.1124  0.6684
  200MOL0     N26285   1.327  10.509   1.785 -0.0196  0.7711 -0.4662
  200MOL0     C26286   1.194  10.486   1.791 -1.5136  0.6585  0.5982
  200MOL0     C26287   1.188  10.353   1.762 -0.1543 -1.0833  0.3150
  200MOL0     C26288   1.047  10.281   1.752 -0.3558 -0.2825  0.1378
  200MOL0     C26289   1.027  10.193   1.624 -0.4821 -1.1607  0.5750
  200MOL0     C26290   0.909  10.110   1.659  0.6882  0.7452  0.8579
  200MOL0     C26291   0.885  10.021   1.533  0.9813  0.0774  0.2074
  200MOL0     O26292   0.751   9.971   1.531  0.0511  0.3227 -1.2939
  200MOL0     C26293   0.741   9.846   1.478 -0.0447  1.0184  0.4764
  200MOL0     C26294   0.658   9.816   1.369 -0.9585  0.2350 -0.3917
  200MOL0     C26295   0.629   9.687   1.328  0.1666 -0.8519  0.3168
  200MOL0     C26296   0.691   9.580   1.385  0.3950 -0.4593  0.2578
  200MOL0     C26297   0.658   9.445   1.338 -0.4380 -0.7683 -0.4872
  200MOL0     O26298   0.682   9.341   1.418 -0.2043  0.3404 -0.6682
  200MOL0     C26299   0.621   9.221   1.411 -0.5425  0.0770  0.1741
  200MOL0     C26300   0.488   9.191   1.389  1.9889 -0.0893 -0.1116
  200MOL0     C26301   0.441   9.062   1.423 -0.5606  0.3510 -0.0622
  200MOL0     C26302   0.527   8.966   1.458 -0.4071 -0.7547 -0.0469
  200MOL0     O26303   0.479   8.838   1.496  0.4295 -0.2840 -0.6080
  200MOL0     C26304   0.409   8.844   1.619 -0.5753 -0.0694 -0.2211
  200MOL0     C26305   0.355   8.711   1.675  0.2737 -0.2982  0.3766
  200MOL0     C26306   0.210   8.682   1.630  0.4140 -0.0483 -0.2172
  200MOL0     C26307   0.129   8.567   1.703  0.4053  0.1054  1.1577
  200MOL0     C26308   0.165   8.436   1.624  0.8617  1.0363  0.7455
  200MOL0     C26309   0.098   8.311   1.669 -0.7939 -0.0575 -0.7801
  200MOL0     C26310   0.158   8.183   1.594  0.3641  0.3924  0.7803
  200MOL0     C26311   0.072   8.141   1.486 -0.0391 -0.4508  0.5983
  200MOL0    Cl26312   0.051   8.267   1.360 -0.0168 -0.3124  0.1096
  200MOL0     C26313   0.663   8.986   1.471  0.1369 -0.4193 -0.0653
  200MOL0     C26314   0.714   9.117   1.449  0.3384  0.3077 -0.3363
  200MOL0     O26315   0.601   9.434   1.227  0.2808  0.1305  0.1788
  200MOL0     C26316   0.789   9.610   1.488 -0.0651  0.6657  0.1954
  200MOL0     C26317   0.809   9.736   1.545 -0.5708  0.4418 -0.1710
  200MOL0     N26318   1.309  10.302   1.726 -0.7282 -0.5676 -0.5869
  200MOL0     N26319   1.394  10.403   1.751 -0.3171  0.4811 -0.4039
  200MOL0     C26320   0.699  10.929   2.179 -0.0253 -0.0190 -0.2474
  200MOL0     C26321   0.577  10.985   2.153 -0.0527 -0.0886 -0.0678
  200MOL0     C26322   0.149  11.109   2.163 -0.9720 -0.4977  0.6044
  200MOL0     C26323   0.033  11.030   2.119 -1.2806 -0.5070 -0.4580
  200MOL0     C26324  -0.086  11.084   2.152  0.4246  0.1068 -0.1208
  200MOL0     C26325  -0.103  11.204   2.228  0.5249  0.0917 -0.0101
  200MOL0     O26326  -0.241  11.241   2.236  0.3386 -0.1089  0.0082
  200MOL0     C26327  -0.290  11.190   2.360  0.1675  0.3145 -0.2066
  200MOL0     C26328  -0.317  11.309   2.450  0.4935  0.0643 -0.4713
  200MOL0     C26329  -0.380  11.271   2.589 -0.0065 -0.0206 -0.0524
  200MOL0     C26330  -0.404  11.400   2.662 -0.4161  0.8111 -0.2470
  200MOL0     C26331  -0.474  11.372   2.787 -0.2800 -0.7943  0.6338
  200MOL0     C26332  -0.528  11.350   2.893 -0.4957 -0.3396  0.3534
  200MOL0     C26333   0.001  11.276   2.269 -0.5475 -0.5700  0.0811
  200MOL0     C26334   0.137  11.231   2.232 -0.2126  0.7455 -0.5600
  200MOL0     H26335   0.492  11.048   2.484 -1.1791  0.5520 -0.6141
  200MOL0     H26336   0.668  10.898   2.521 -3.0241 -1.3735  0.3276
  200MOL0     H26337   0.862  10.753   2.499  1.2804 -0.0067  1.0317
  200MOL0     H26338   0.950  10.898   2.455 -0.1996  0.8002 -0.3495
  200MOL0     H26339   1.004  10.609   2.391 -0.3063 -0.6792  0.3830
  200MOL0     H26340   1.102  10.708   2.486 -0.9694  0.2932  1.8801
  200MOL0     H26341   1.143  10.876   2.299  0.0475 -1.5239  2.3081
  200MOL0     H26342   1.046  10.776   2.187  0.9240  0.8901 -0.9782
  200MOL0     H26343   1.311  10.702   2.310  1.5258  1.1764 -1.3477
  200MOL0     H26344   1.202  10.581   2.232  1.5920 -0.1131 -1.0569
  200MOL0     H26345   1.355  10.814   2.111  0.7228 -0.4362  0.2280
  200MOL0     H26346   1.232  10.728   2.022  0.9622 -0.9710 -0.5503
  200MOL0     H26347   1.382  10.517   2.063 -2.7820  0.3654  1.0225
  200MOL0     H26348   1.489  10.640   2.137 -0.7293  2.7791 -0.5248
  200MOL0     H26349   1.488  10.779   1.935  1.5673 -0.8682 -1.2218
  200MOL0     H26350   1.561  10.618   1.924  1.1943  1.0769  3.2982
  200MOL0     H26351   1.492  10.642   1.733  2.1939  3.0804  3.0292
  200MOL0     H26352   1.329  10.728   1.767  3.2881  1.9894 -0.6934
  200MOL0     H26353   1.118  10.558   1.819  0.8356  3.6942 -0.3487
  200MOL0     H26354   0.964  10.350   1.730 -0.1807 -0.1301 -0.0478
  200MOL0     H26355   1.038  10.222   1.843  2.6658  0.4753  1.0452
  200MOL0     H26356   1.114  10.131   1.601 -0.5467 -1.4233  1.0376
  200MOL0     H26357   0.992  10.255   1.541 -1.5405 -0.1847  1.7111
  200MOL0     H26358   0.925  10.041   1.742  0.1425 -2.0599 -1.2125
  200MOL0     H26359   0.822  10.177   1.661  1.8833  2.3457  3.4683
  200MOL0     H26360   0.961   9.946   1.556  2.0969  0.7087 -1.2632
  200MOL0     H26361   0.900  10.063   1.433  2.4256 -2.9465 -0.9782
  200MOL0     H26362   0.626   9.897   1.305 -1.2796 -1.0035 -1.8743
  200MOL0     H26363   0.564   9.665   1.243 -0.5219 -2.0327  1.1228
  200MOL0     H26364   0.419   9.264   1.349  2.3516 -1.2902 -3.2124
  200MOL0     H26365   0.339   9.024   1.415 -0.1243 -0.9457  0.2801
  200MOL0     H26366   0.324   8.910   1.596 -0.4914 -0.2448 -1.0659
  200MOL0     H26367   0.469   8.893   1.696 -1.0573  0.3545 -0.1094
  200MOL0     H26368   0.351   8.709   1.785 -0.4422  2.5359  0.4985
  200MOL0     H26369   0.431   8.635   1.656  1.0764  0.9756 -1.9060
  200MOL0     H26370   0.206   8.665   1.522  0.4244 -0.2748 -0.1844
  200MOL0     H26371   0.144   8.762   1.665 -0.4646 -0.9189  0.1727
  200MOL0     H26372   0.149   8.549   1.809 -1.3416 -0.5202  1.4131
  200MOL0     H26373   0.022   8.581   1.685 -0.2399  0.1198  4.5030
  200MOL0     H26374   0.272   8.413   1.628  0.7245 -1.6441 -3.8625
  200MOL0     H26375   0.146   8.439   1.517 -0.1972 -4.0734  0.5289
  200MOL0     H26376  -0.009   8.304   1.645 -0.9578  2.2189 -0.9409
  200MOL0     H26377   0.112   8.301   1.777 -1.5861  0.1155 -0.6567
  200MOL0     H26378   0.256   8.200   1.549 -0.3618  0.4856 -0.8259
  200MOL0     H26379   0.165   8.101   1.667  2.6875  0.7502  1.0294
  200MOL0     H26380  -0.026   8.120   1.529  0.6745 -0.7182  2.1718
  200MOL0     H26381   0.116   8.052   1.439  1.8511 -0.2842  1.9529
  200MOL0     H26382   0.727   8.901   1.491 -1.2009 -2.0050 -2.0627
  200MOL0     H26383   0.817   9.133   1.480 -0.3155 -0.0979  2.2624
  200MOL0     H26384   0.833   9.527   1.541 -0.5986  0.6549  0.6348
  200MOL0     H26385   0.873   9.765   1.627 -0.0868 -2.3095  0.5111
  200MOL0     H26386   0.761  10.889   2.100  1.6244 -0.6108  1.3013
  200MOL0     H26387   0.541  11.013   2.055 -2.8267  0.1170  0.9221
  200MOL0     H26388   0.054  10.936   2.069 -0.0234  1.7591 -4.6642
  200MOL0     H26389  -0.175  11.037   2.111  1.6836 -1.0576 -1.6656
  200MOL0     H26390  -0.237  11.101   2.395  1.0976 -0.4801 -3.2675
  200MOL0     H26391  -0.391  11.160   2.331  0.2475 -0.4576  0.2971
  200MOL0     H26392  -0.227  11.370   2.462 -0.7033  1.4838  2.0144
  200MOL0     H26393  -0.385  11.365   2.385  1.2390  0.2268 -1.1280
  200MOL0     H26394  -0.320  11.201   2.648 -0.8015 -1.6661 -1.1361
  200MOL0     H26395  -0.471  11.218   2.559  1.2825 -2.5255  0.2288
  200MOL0     H26396  -0.316  11.459   2.690 -0.4165  0.0805  1.4456
  200MOL0     H26397  -0.462  11.465   2.596 -0.6599  0.9759  0.1242
  200MOL0     H26398  -0.572  11.331   2.989  2.5492 -0.9132  1.7553
  200MOL0     H26399  -0.017  11.369   2.322  1.0333 -0.1943  0.0248
  200MOL0     H26400   0.212  11.302   2.265  0.5409  0.1468 -0.9205
  201MOL0     O26401   2.421   7.947   3.628  0.1083  0.6003 -0.0915
  201MOL0     C26402   2.460   7.876   3.722 -0.2387  0.3286 -0.2012
  201MOL0     O26403   2.385   7.817   3.820 -0.1004  0.3861 -0.5706
  201MOL0     C26404   2.256   7.847   3.847  1.0041 -1.3473 -0.2039
  201MOL0     C26405   2.179   7.745   3.916 -0.3293 -0.2137  0.1499
  201MOL0     C26406   2.045   7.758   3.961  0.9716 -0.7023 -0.1791
  201MOL0     C26407   1.982   7.888   3.951  0.4685  0.4291 -0.6138
  201MOL0     O26408   1.850   7.899   3.987 -0.3014  0.3765  0.2340
  201MOL0     C26409   1.819   8.015   4.056 -0.1543 -0.8149 -0.5511
  201MOL0     C26410   1.866   7.995   4.204 -0.2064  0.2673 -0.2881
  201MOL0     C26411   1.975   8.091   4.242  0.1724  0.7977  0.1733
  201MOL0     C26412   2.010   8.105   4.398  0.1350 -0.3364 -0.6761
  201MOL0     C26413   2.059   7.984   4.458 -0.5284  0.7638 -0.3929
  201MOL0     C26414   2.194   7.921   4.398  0.9162 -0.3005  0.3708
  201MOL0     C26415   2.263   7.818   4.490  0.1281 -1.0614  0.2952
  201MOL0     C26416   2.196   7.687   4.506  0.3864  0.2349  0.4390
  201MOL0     N26417   2.182   7.615   4.380 -0.0612  0.3387 -1.1318
  201MOL0     C26418   2.075   7.551   4.321  0.2288 -0.2435  0.3418
  201MOL0     C26419   2.127   7.484   4.213 -1.0527  0.1421 -0.4573
  201MOL0     C26420   2.053   7.395   4.128 -0.4108  0.4065 -0.4614
  201MOL0     C26421   1.945   7.316   4.196  0.0007  0.1550 -0.8576
  201MOL0     C26422   1.997   7.196   4.280 -0.4685 -0.0497  0.5349
  201MOL0     C26423   1.890   7.128   4.373 -0.2031 -0.9783 -0.0604
  201MOL0     O26424   1.929   7.042   4.476  0.2352 -0.7299 -0.4662
  201MOL0     C26425   1.961   6.914   4.442  0.0480  0.3088  0.6945
  201MOL0     C26426   1.883   6.811   4.496 -0.8979 -0.6246  0.6282
  201MOL0     C26427   1.904   6.682   4.444 -0.8675  0.4571  0.2216
  201MOL0     C26428   1.996   6.650   4.341  0.3247 -0.1322 -0.3555
  201MOL0     C26429   2.029   6.514   4.295  0.7166  0.9804  0.0305
  201MOL0     O26430   1.967   6.399   4.347  0.9634 -0.2823  0.2906
  201MOL0     C26431   2.006   6.283   4.264  0.9139  0.4010  0.3587
  201MOL0     C26432   2.127   6.212   4.290 -0.2106 -0.2612  0.7401
  201MOL0     C26433   2.158   6.101   4.210 -0.0092 -0.0954 -0.0023
  201MOL0     C26434   2.066   6.055   4.115 -0.3086  0.6874 -0.4881
  201MOL0     O26435   2.093   5.947   4.033 -0.9029 -0.0181  0.5304
  201MOL0     C26436   2.093   5.984   3.891 -0.4468  0.2571 -0.0312
  201MOL0     C26437   2.177   5.887   3.807  0.4437  0.6254 -0.2049
  201MOL0     C26438   2.119   5.743   3.804  0.3217 -0.4813  1.2155
  201MOL0     C26439   2.096   5.678   3.949  0.2237 -0.1079  0.8330
  201MOL0     C26440   2.104   5.524   3.955  0.1345  0.6446 -0.4413
  201MOL0     C26441   2.258   5.473   3.940  0.2747  0.2973  0.1763
  201MOL0     C26442   2.268   5.328   3.988  0.2954  0.0653  0.0317
  201MOL0     C26443   2.408   5.265   3.956  0.0398  1.7351  0.2521
  201MOL0    Cl26444   2.440   5.244   3.780  0.0365  0.3287 -0.4956
  201MOL0     C26445   1.940   6.113   4.104  0.6656 -0.3874 -0.8536
  201MOL0     C26446   1.913   6.232   4.177 -0.0943 -0.0323 -0.7280
  201MOL0     O26447   2.106   6.516   4.199 -0.0459  0.2970 -0.4529
  201MOL0     C26448   2.074   6.755   4.294  0.7136  0.0811  0.0207
  201MOL0     C26449   2.059   6.889   4.337  0.0943 -0.3545 -0.8396
  201MOL0     N26450   2.261   7.502   4.203 -0.3825  0.2023 -0.1513
  201MOL0     N26451   2.287   7.588   4.296  0.7590  0.0057 -0.2047
  201MOL0     C26452   2.053   7.990   3.882  0.5573  0.8297  0.0732
  201MOL0     C26453   2.187   7.967   3.841  0.0029 -0.1970 -0.1456
  201MOL0     C26454   2.614   7.853   3.714 -1.4456 -0.1561  0.3071
  201MOL0     C26455   2.716   7.920   3.644 -0.5335 -0.0585  0.0973
  201MOL0     C26456   2.854   7.873   3.650 -0.2824 -0.4976  0.1976
  201MOL0     C26457   2.895   7.756   3.716 -0.0688  1.1931 -0.1462
  201MOL0     O26458   3.013   7.694   3.701  0.0077  0.5468 -0.8402
  201MOL0     C26459   3.122   7.747   3.620  1.0096 -1.4070 -0.1427
  201MOL0     C26460   3.245   7.648   3.641 -0.1046  0.1897  0.5777
  201MOL0     C26461   3.233   7.510   3.576  0.6145 -1.2228  0.4129
  201MOL0     C26462   3.241   7.392   3.677  0.5999 -0.9791  0.2483
  201MOL0     C26463   3.184   7.279   3.609 -0.4255 -0.0096  0.2700
  201MOL0     C26464   3.107   7.192   3.568 -0.3077  0.2509  0.2242
  201MOL0     C26465   2.794   7.686   3.783  1.1272  0.4538  0.4633
  201MOL0     C26466   2.657   7.735   3.777  0.3602  0.0189 -0.5553
  201MOL0     H26467   2.227   7.648   3.918 -0.3064 -0.1982  0.4980
  201MOL0     H26468   1.993   7.673   4.004 -0.9423  0.2511 -0.5099
  201MOL0     H26469   1.711   8.030   4.069  0.3509  3.9028 -0.0456
  201MOL0     H26470   1.851   8.107   4.005  1.1328 -0.3522  1.0224
  201MOL0     H26471   1.887   7.889   4.221  0.7127  0.3337 -0.9283
  201MOL0     H26472   1.781   8.014   4.270  0.4110  0.7200  0.3920
  201MOL0     H26473   1.930   8.189   4.222 -0.4294  0.5432  0.2650
  201MOL0     H26474   2.066   8.061   4.190  1.6261  3.3860  1.0286
  201MOL0     H26475   2.082   8.187   4.407 -1.4641  0.9319  1.1996
  201MOL0     H26476   1.925   8.142   4.456  2.6296 -1.4054  4.2115
  201MOL0     H26477   1.988   7.901   4.453  2.5395 -2.0573 -0.8518
  201MOL0     H26478   2.082   8.007   4.562  0.9558 -3.1814  0.3480
  201MOL0     H26479   2.265   7.996   4.361 -1.7366  1.8543 -0.7207
  201MOL0     H26480   2.153   7.870   4.310 -2.4596  2.2779  0.2505
  201MOL0     H26481   2.366   7.805   4.455 -0.6532 -0.1124 -2.6806
  201MOL0     H26482   2.261   7.867   4.587  4.8119  0.2720 -0.0558
  201MOL0     H26483   2.092   7.701   4.537  0.2621 -1.7088  1.0643
  201MOL0     H26484   2.237   7.623   4.585 -0.2347 -2.8225 -1.5557
  201MOL0     H26485   1.972   7.546   4.353  0.1090  0.3682  0.0608
  201MOL0     H26486   2.126   7.319   4.099  1.8933  1.7670  1.4349
  201MOL0     H26487   2.017   7.456   4.045  0.7076 -0.3490 -1.5297
  201MOL0     H26488   1.878   7.282   4.116 -1.8404 -0.8971  1.0485
  201MOL0     H26489   1.884   7.383   4.256  2.9388  1.0538  1.3590
  201MOL0     H26490   2.046   7.126   4.211 -0.1543  0.5752  0.1051
  201MOL0     H26491   2.079   7.231   4.344 -0.6560 -2.5594  2.2707
  201MOL0     H26492   1.811   7.074   4.320  0.8801 -2.1446 -0.5467
  201MOL0     H26493   1.830   7.204   4.423  0.0370 -1.6099  1.2165
  201MOL0     H26494   1.810   6.825   4.575  1.9007  1.7353  3.0329
  201MOL0     H26495   1.846   6.601   4.486 -3.0768  2.5254  1.3941
  201MOL0     H26496   2.204   6.228   4.364  6.0392 -0.4751 -4.8009
  201MOL0     H26497   2.250   6.043   4.216  1.1769  1.8049  1.3837
  201MOL0     H26498   2.145   6.080   3.884 -1.4923  0.7490 -1.7379
  201MOL0     H26499   2.001   6.009   3.837  1.0173  0.6692 -2.5273
  201MOL0     H26500   2.282   5.884   3.838  0.4028 -1.5393 -0.1469
  201MOL0     H26501   2.172   5.928   3.706 -2.2815  1.7951  0.3146
  201MOL0     H26502   2.206   5.691   3.762  1.6264  0.8585  2.1959
  201MOL0     H26503   2.026   5.739   3.747  0.8010  3.6545 -0.1967
  201MOL0     H26504   2.160   5.722   4.026 -0.0442 -1.3209  1.7852
  201MOL0     H26505   1.999   5.709   3.989 -1.7390 -4.1225 -0.2792
  201MOL0     H26506   2.038   5.477   3.882 -1.6377  4.4942 -1.5486
  201MOL0     H26507   2.069   5.486   4.051  0.4168 -3.2810 -1.7184
  201MOL0     H26508   2.329   5.530   3.999  0.4435 -0.0440  0.3061
  201MOL0     H26509   2.288   5.473   3.834 -0.0570  1.6959  0.0723
  201MOL0     H26510   2.255   5.328   4.096  0.5307 -3.4248  0.1789
  201MOL0     H26511   2.194   5.262   3.942  1.5951 -1.1104 -0.4556
  201MOL0     H26512   2.393   5.162   3.987 -0.1267  0.5220 -3.3655
  201MOL0     H26513   2.490   5.309   4.013  2.1498  0.6590 -1.8133
  201MOL0     H26514   1.869   6.076   4.031 -0.8840 -1.4596  1.1224
  201MOL0     H26515   1.817   6.282   4.179  0.7231  1.6124 -0.3869
  201MOL0     H26516   2.144   6.743   4.211  0.0294 -0.1948 -0.5188
  201MOL0     H26517   2.107   6.963   4.273 -1.3668  0.9821 -0.4402
  201MOL0     H26518   2.008   8.087   3.870 -1.3430 -0.0815 -0.5544
  201MOL0     H26519   2.243   8.049   3.798 -0.0425 -0.4878 -0.7774
  201MOL0     H26520   2.700   8.013   3.591 -4.5566  1.0840  2.8553
  201MOL0     H26521   2.925   7.939   3.601 -0.5021  0.3322  0.9621
  201MOL0     H26522   3.153   7.844   3.660  1.8259 -1.6782 -0.0876
  201MOL0     H26523   3.086   7.768   3.519  0.6537 -1.0663  0.0557
  201MOL0     H26524   3.333   7.699   3.601  1.8082 -3.5436 -0.3970
  201MOL0     H26525   3.276   7.642   3.745  0.9630  2.4954  0.4526
  201MOL0     H26526   3.325   7.505   3.517  1.0556 -0.5167  1.0152
  201MOL0     H26527   3.145   7.520   3.512  0.8180  1.9773  0.4849
  201MOL0     H26528   3.344   7.367   3.704  0.5083 -0.7782  0.7957
  201MOL0     H26529   3.191   7.412   3.772 -0.4446  3.0453 -0.9441
  201MOL0     H26530   3.050   7.110   3.530  1.2855 -0.2289 -1.2926
  201MOL0     H26531   2.819   7.584   3.813  0.1685  0.1975  0.4160
  201MOL0     H26532   2.582   7.662   3.807 -1.9163  1.2086 -2.9360
  202MOL0     O26533   0.944   5.769   1.217  0.6293  0.7601  0.7481
  202MOL0     C26534   1.034   5.816   1.288 -0.3722  0.5630  0.5508
  202MOL0     O26535   1.015   5.891   1.400 -0.1271  1.1612 -0.6440
  202MOL0     C26536   0.883   5.921   1.436 -0.1198 -0.9885 -0.4505
  202MOL0     C26537   0.787   5.824   1.447  1.3549 -0.6376 -0.0579
  202MOL0     C26538   0.657   5.846   1.492  0.2484 -0.6898 -0.1449
  202MOL0     C26539   0.626   5.982   1.523  0.3676  0.8397  0.4492
  202MOL0     O26540   0.504   6.018   1.569 -0.3868  0.7993 -0.1860
  202MOL0     C26541   0.443   6.126   1.511  1.0126 -0.7627 -0.0476
  202MOL0     C26542   0.330   6.086   1.406  0.1355 -0.8436  0.4853
  202MOL0     C26543   0.243   5.979   1.480 -0.5372 -0.0142 -0.0194
  202MOL0     C26544   0.141   5.906   1.392  0.3093  0.9307 -0.3645
  202MOL0     C26545   0.080   5.777   1.450 -0.7319 -0.1041 -0.0315
  202MOL0     C26546   0.021   5.694   1.339  0.3298  0.1912 -0.6350
  202MOL0     C26547  -0.058   5.571   1.396 -0.2323 -0.0498  0.7587
  202MOL0     C26548  -0.150   5.593   1.513  0.0233 -1.1722 -0.3141
  202MOL0     N26549  -0.229   5.484   1.517  0.7590  0.4771  0.2121
  202MOL0     C26550  -0.357   5.483   1.477 -0.5636 -0.2592 -0.5579
  202MOL0     C26551  -0.403   5.357   1.509  1.1216  0.3475 -1.0390
  202MOL0     C26552  -0.545   5.297   1.499  1.3957 -0.0412  0.0757
  202MOL0     C26553  -0.538   5.168   1.418  0.1236  0.1865  0.1783
  202MOL0     C26554  -0.483   5.185   1.286  0.0246  0.0947 -0.4802
  202MOL0     C26555  -0.572   5.256   1.188  0.2373 -0.7649 -0.2042
  202MOL0     O26556  -0.561   5.401   1.215 -0.2040  0.2688  0.3362
  202MOL0     C26557  -0.466   5.473   1.162 -0.1552  0.1095 -0.4649
  202MOL0     C26558  -0.480   5.617   1.161 -1.0864  0.1491  0.5574
  202MOL0     C26559  -0.377   5.696   1.099  0.2930 -1.0901 -1.1479
  202MOL0     C26560  -0.269   5.637   1.032  0.3089 -0.9126  0.4498
  202MOL0     C26561  -0.186   5.727   0.946 -0.0759 -0.1104 -0.1410
  202MOL0     O26562  -0.185   5.859   0.986 -0.2389 -0.1088  0.2457
  202MOL0     C26563  -0.137   5.951   0.896 -0.2635 -0.0517 -0.4350
  202MOL0     C26564  -0.003   5.945   0.854  0.2111 -0.6583 -0.5432
  202MOL0     C26565   0.044   6.032   0.754  0.0581 -0.0701  0.0295
  202MOL0     C26566  -0.045   6.124   0.704  0.0335 -0.5696  0.1565
  202MOL0     O26567  -0.009   6.197   0.595 -0.1178  0.3791  0.2274
  202MOL0     C26568  -0.037   6.336   0.591 -0.4181  0.2643  0.2069
  202MOL0     C26569   0.060   6.420   0.515  0.3371  0.9985 -0.3101
  202MOL0     C26570   0.199   6.402   0.570  0.3690  0.6364 -0.0529
  202MOL0     C26571   0.229   6.479   0.705  0.0819  1.3597  1.0695
  202MOL0     C26572   0.379   6.506   0.696  0.2164  0.4662 -0.2337
  202MOL0     C26573   0.431   6.576   0.827 -0.4772  0.1286  0.1530
  202MOL0     C26574   0.583   6.599   0.839  0.5338 -0.5346 -0.7760
  202MOL0     C26575   0.650   6.636   0.713  0.3377 -0.1453 -0.1230
  202MOL0    Cl26576   0.570   6.761   0.623 -0.2168  0.5188  0.1488
  202MOL0     C26577  -0.175   6.148   0.764 -0.2021  0.4081  0.8005
  202MOL0     C26578  -0.220   6.055   0.857 -0.1002 -0.3748  0.1108
  202MOL0     O26579  -0.138   5.675   0.842 -0.2328  0.4850  0.0120
  202MOL0     C26580  -0.261   5.497   1.021 -0.0810 -0.4951 -0.6528
  202MOL0     C26581  -0.347   5.415   1.112 -0.4912 -0.4489 -0.2594
  202MOL0     N26582  -0.304   5.299   1.582  0.4059  0.6582  0.5749
  202MOL0     N26583  -0.199   5.368   1.578  0.4432  0.5406  0.0626
  202MOL0     C26584   0.725   6.077   1.528  0.3707 -0.0276  0.6551
  202MOL0     C26585   0.858   6.052   1.484 -0.3694  0.6697  0.9023
  202MOL0     C26586   1.167   5.782   1.250 -0.4425  0.7659 -0.3000
  202MOL0     C26587   1.206   5.751   1.117  0.5611 -1.1214 -0.3259
  202MOL0     C26588   1.339   5.728   1.083  0.0467 -0.1229 -0.4445
  202MOL0     C26589   1.439   5.751   1.173  0.5226 -0.1633 -0.9526
  202MOL0     O26590   1.577   5.738   1.161 -0.2206 -0.1668  0.2108
  202MOL0     C26591   1.625   5.673   1.040 -0.0368 -0.3762 -0.0580
  202MOL0     C26592   1.769   5.630   1.050  0.9459 -0.5514 -0.0271
  202MOL0     C26593   1.858   5.752   1.043 -0.3789  0.4912  0.3994
  202MOL0     C26594   2.007   5.728   0.982 -0.6002 -0.0261 -1.8914
  202MOL0     C26595   2.104   5.834   1.028  1.0707  0.2677 -0.7354
  202MOL0     C26596   2.180   5.926   1.049  0.5328  0.0965 -0.6830
  202MOL0     C26597   1.406   5.800   1.301 -0.2435 -0.1868 -0.2435
  202MOL0     C26598   1.269   5.797   1.339 -1.2818 -0.7584  0.2708
  202MOL0     H26599   0.815   5.720   1.434  4.0251 -0.7560  4.4919
  202MOL0     H26600   0.585   5.764   1.492  0.7086 -1.1898 -2.7668
  202MOL0     H26601   0.512   6.184   1.449  3.2380  2.3331  4.8047
  202MOL0     H26602   0.400   6.181   1.594 -3.5139 -2.1293 -1.2292
  202MOL0     H26603   0.382   6.046   1.318  0.4714  0.4131  0.1000
  202MOL0     H26604   0.266   6.167   1.371  1.3278 -1.3026 -3.2219
  202MOL0     H26605   0.184   6.024   1.560 -0.7320  0.0134 -0.1758
  202MOL0     H26606   0.307   5.895   1.509 -1.1102 -0.6523 -0.5787
  202MOL0     H26607   0.057   5.966   1.356  0.1766  0.2138 -1.2903
  202MOL0     H26608   0.200   5.882   1.303 -1.1337  0.7123 -1.2926
  202MOL0     H26609   0.006   5.800   1.528  1.8979 -0.4708  2.7624
  202MOL0     H26610   0.161   5.711   1.485 -0.0699  1.4180  1.4518
  202MOL0     H26611   0.100   5.664   1.268 -0.4114  0.2324 -1.4998
  202MOL0     H26612  -0.050   5.757   1.284 -1.5285 -2.0069 -0.8946
  202MOL0     H26613  -0.102   5.523   1.308  0.7993  1.7732 -0.8118
  202MOL0     H26614   0.013   5.495   1.432  0.2427 -1.3704 -2.6089
  202MOL0     H26615  -0.205   5.688   1.510  0.9196 -0.4441  2.7678
  202MOL0     H26616  -0.080   5.584   1.597  4.2897 -2.7613 -3.6246
  202MOL0     H26617  -0.415   5.553   1.417 -1.7987 -1.8873 -1.3499
  202MOL0     H26618  -0.607   5.379   1.460  1.6416  0.1725  0.1337
  202MOL0     H26619  -0.591   5.275   1.596  0.8780 -0.8462 -0.3368
  202MOL0     H26620  -0.644   5.139   1.410 -0.2970  1.9237 -1.0879
  202MOL0     H26621  -0.481   5.099   1.481 -0.6196 -2.1117 -1.5649
  202MOL0     H26622  -0.383   5.231   1.290  0.9567 -1.5614 -2.5989
  202MOL0     H26623  -0.471   5.089   1.234  3.3044 -0.5847  1.2452
  202MOL0     H26624  -0.672   5.219   1.211 -0.4840 -0.9408 -3.2980
  202MOL0     H26625  -0.549   5.238   1.083  0.5179 -0.2167 -0.2447
  202MOL0     H26626  -0.559   5.674   1.209 -1.2160  0.9179 -0.5159
  202MOL0     H26627  -0.381   5.803   1.120 -2.6890 -1.2033 -0.6210
  202MOL0     H26628   0.053   5.876   0.915 -1.9500 -0.8900  1.3156
  202MOL0     H26629   0.146   6.035   0.719  0.3093  1.0663  0.8034
  202MOL0     H26630  -0.031   6.370   0.695  0.1237 -0.6937  0.5072
  202MOL0     H26631  -0.133   6.351   0.540 -0.6935 -0.6747  0.4149
  202MOL0     H26632   0.025   6.522   0.536  1.6996  1.6948 -1.2209
  202MOL0     H26633   0.051   6.406   0.407  0.2277  0.5722 -0.2450
  202MOL0     H26634   0.272   6.434   0.495  1.5111 -0.1469  0.6753
  202MOL0     H26635   0.224   6.296   0.583 -0.1207  0.6563  1.1796
  202MOL0     H26636   0.174   6.574   0.708  0.6080  1.8242 -1.7087
  202MOL0     H26637   0.204   6.405   0.782  0.3575  1.0094  0.8252
  202MOL0     H26638   0.410   6.565   0.609  1.3149 -3.7667 -3.0332
  202MOL0     H26639   0.438   6.415   0.677 -1.1094 -0.1629 -1.4906
  202MOL0     H26640   0.394   6.514   0.909  1.0762 -0.7298  0.2572
  202MOL0     H26641   0.390   6.677   0.832 -0.1335  0.2331  3.8392
  202MOL0     H26642   0.609   6.666   0.922 -0.0053  0.8340 -1.6670
  202MOL0     H26643   0.630   6.506   0.872  0.0760 -0.3643  0.4031
  202MOL0     H26644   0.657   6.548   0.648  1.2847  1.4238 -2.2629
  202MOL0     H26645   0.756   6.659   0.724  0.4094 -1.5079  2.7846
  202MOL0     H26646  -0.234   6.237   0.744  0.7450  1.0082  0.6410
  202MOL0     H26647  -0.318   6.064   0.904 -1.0839  0.4253 -1.9686
  202MOL0     H26648  -0.182   5.455   0.959 -0.5518 -1.8099 -0.3941
  202MOL0     H26649  -0.315   5.312   1.105 -1.6414 -0.7077 -3.1078
  202MOL0     H26650   0.711   6.176   1.570 -0.0920 -0.2924  1.1367
  202MOL0     H26651   0.929   6.132   1.497 -0.2078  0.5595  0.7119
  202MOL0     H26652   1.133   5.747   1.037  1.1745 -4.1863 -0.8365
  202MOL0     H26653   1.363   5.710   0.979 -1.9152 -0.9687 -0.7990
  202MOL0     H26654   1.610   5.744   0.958 -1.2055 -0.6502 -0.0974
  202MOL0     H26655   1.568   5.582   1.018 -1.2774  0.7390 -1.6130
  202MOL0     H26656   1.775   5.579   1.147  0.8776 -3.2106 -1.3376
  202MOL0     H26657   1.780   5.556   0.970  2.8055 -1.4114  0.9560
  202MOL0     H26658   1.880   5.776   1.148  0.7954 -0.8269  0.4780
  202MOL0     H26659   1.816   5.839   0.993 -0.0473  1.0675  1.1076
  202MOL0     H26660   2.044   5.630   1.015  0.8031  1.0414 -0.0623
  202MOL0     H26661   2.005   5.738   0.873  0.0030  1.5159 -1.7881
  202MOL0     H26662   2.244   6.004   1.085 -0.7657  0.1779  1.6517
  202MOL0     H26663   1.474   5.824   1.382  1.1384 -0.7827 -1.1860
  202MOL0     H26664   1.245   5.820   1.443 -0.7368  1.4778 -0.0541
  203MOL0     O26665   4.916   0.326   2.006  0.1102 -0.5726  0.4097
  203MOL0     C26666   4.858   0.223   2.027  0.2825  0.7581  0.1605
  203MOL0     O26667   4.851   0.165   2.148  0.0787  0.4028 -0.6769
  203MOL0     C26668   4.934   0.179   2.257 -0.2063 -0.2489  0.1326
  203MOL0     C26669   4.883   0.155   2.382 -0.4630 -0.4339 -0.0572
  203MOL0     C26670   4.965   0.162   2.492 -0.0706 -0.7036  0.6039
  203MOL0     C26671   5.106   0.183   2.479 -0.9057 -0.2571 -0.3699
  203MOL0     O26672   5.201   0.177   2.578 -0.4873  1.2992  0.2202
  203MOL0     C26673   5.154   0.110   2.703  0.1151 -0.5546  0.8732
  203MOL0     C26674   5.290   0.079   2.777  0.6147 -0.2918  0.7913
  203MOL0     C26675   5.264   0.053   2.928 -0.2938  0.7727  0.7870
  203MOL0     C26676   5.182  -0.064   2.950  0.5066  0.6761 -0.3575
  203MOL0     C26677   5.162  -0.106   3.098  0.2450 -0.8401 -0.0780
  203MOL0     C26678   5.062  -0.219   3.119  0.0216 -0.7923 -0.2559
  203MOL0     C26679   5.095  -0.273   3.260 -0.6009  0.2437 -0.5169
  203MOL0     C26680   5.183  -0.402   3.240 -0.6447  0.3944 -0.0478
  203MOL0     N26681   5.210  -0.461   3.370 -0.5921 -0.3904 -0.4529
  203MOL0     C26682   5.183  -0.578   3.418  0.5179  0.0790 -1.1264
  203MOL0     C26683   5.224  -0.581   3.545 -0.0938  0.0214 -0.1835
  203MOL0     C26684   5.216  -0.706   3.630  0.3687 -0.4915 -0.2714
  203MOL0     C26685   5.065  -0.721   3.660 -0.5143  0.1619  0.5433
  203MOL0     C26686   5.040  -0.806   3.792 -0.0017  0.0704  0.1857
  203MOL0     C26687   5.107  -0.944   3.794  1.1588 -0.2215  0.7989
  203MOL0     O26688   5.073  -1.012   3.921 -0.1889  0.5999 -0.1015
  203MOL0     C26689   4.978  -1.109   3.921 -1.1233  0.1627  0.3898
  203MOL0     C26690   4.936  -1.189   3.805 -0.0625 -0.2886 -1.1359
  203MOL0     C26691   4.824  -1.276   3.822 -0.3444 -0.3027  0.8204
  203MOL0     C26692   4.749  -1.286   3.939 -0.1632 -0.1999 -0.2448
  203MOL0     C26693   4.639  -1.386   3.953 -0.9082  0.6376  0.2065
  203MOL0     O26694   4.606  -1.462   3.838  1.3457 -0.0961 -0.1694
  203MOL0     C26695   4.501  -1.543   3.842  0.1670 -0.0025 -0.4704
  203MOL0     C26696   4.387  -1.539   3.922 -0.5594  0.6786 -0.0193
  203MOL0     C26697   4.293  -1.642   3.897 -0.9782 -0.9825 -0.0517
  203MOL0     C26698   4.313  -1.745   3.807  0.3263  0.3608 -0.5161
  203MOL0     O26699   4.247  -1.861   3.819 -0.3883  0.9344 -0.0035
  203MOL0     C26700   4.143  -1.890   3.727  0.0257  0.3486  1.1819
  203MOL0     C26701   4.013  -1.815   3.770 -0.3768  0.0056  0.1848
  203MOL0     C26702   3.888  -1.825   3.683  0.4421  0.3332 -0.7777
  203MOL0     C26703   3.925  -1.802   3.535  0.6972  0.2615 -0.1015
  203MOL0     C26704   3.981  -1.665   3.505 -0.4275  0.3636  0.1506
  203MOL0     C26705   3.899  -1.539   3.541 -0.2599  0.1158  0.7187
  203MOL0     C26706   3.959  -1.408   3.497  0.2345  0.1332  0.3557
  203MOL0     C26707   4.077  -1.367   3.591  1.1529  0.5866 -0.1277
  203MOL0    Cl26708   3.988  -1.319   3.743  0.1716 -0.2945  0.0399
  203MOL0     C26709   4.420  -1.741   3.723  0.8327 -0.4989  0.2974
  203MOL0     C26710   4.516  -1.638   3.743  0.5194 -0.5764  0.0484
  203MOL0     O26711   4.591  -1.405   4.066 -0.2391 -0.7271  0.5741
  203MOL0     C26712   4.793  -1.212   4.051  1.3509  0.5872 -0.3834
  203MOL0     C26713   4.903  -1.127   4.043  0.1696  0.1624 -0.4775
  203MOL0     N26714   5.262  -0.451   3.575  0.0553  0.1761  0.1510
  203MOL0     N26715   5.250  -0.378   3.474  0.2463  0.0218 -0.4787
  203MOL0     C26716   5.154   0.202   2.352  1.0712 -0.9996  0.6524
  203MOL0     C26717   5.074   0.194   2.235 -0.0453 -0.5800 -0.1863
  203MOL0     C26718   4.780   0.157   1.917  0.5609 -0.0451 -0.1887
  203MOL0     C26719   4.671   0.078   1.957 -0.6333  1.2327  0.3909
  203MOL0     C26720   4.604   0.005   1.852  0.5733  0.4711  0.0939
  203MOL0     C26721   4.639   0.019   1.715  1.6600  0.4927  0.2051
  203MOL0     O26722   4.570  -0.064   1.633 -0.1911  0.5285 -0.6602
  203MOL0     C26723   4.565  -0.035   1.493  0.4131 -0.6668 -0.7788
  203MOL0     C26724   4.466  -0.137   1.429  0.1595  0.1683  0.0231
  203MOL0     C26725   4.337  -0.139   1.493  0.2703  0.4774 -0.3058
  203MOL0     C26726   4.223  -0.197   1.401  0.4232  0.6853 -0.2888
  203MOL0     C26727   4.228  -0.345   1.383 -0.1658 -0.1710  0.6097
  203MOL0     C26728   4.231  -0.469   1.362 -0.5104 -0.1615  0.7554
  203MOL0     C26729   4.751   0.100   1.679  0.2952  0.2141 -0.3946
  203MOL0     C26730   4.821   0.166   1.780  0.4835  1.1384  0.1289
  203MOL0     H26731   4.785   0.110   2.390 -0.2180 -0.7857  1.1924
  203MOL0     H26732   4.918   0.153   2.590  1.4774  3.9886  2.0598
  203MOL0     H26733   5.111   0.014   2.676  0.5187 -0.2146 -1.1340
  203MOL0     H26734   5.091   0.174   2.766 -3.1002 -1.6197 -1.0776
  203MOL0     H26735   5.355   0.166   2.763 -0.2048  0.0305 -1.4274
  203MOL0     H26736   5.322  -0.019   2.739 -1.1651 -1.2043  1.5294
  203MOL0     H26737   5.214   0.147   2.954 -4.5368 -0.6965 -1.1125
  203MOL0     H26738   5.352   0.039   2.992 -1.3595 -0.2748  2.0850
  203MOL0     H26739   5.084  -0.049   2.905 -0.0203 -1.9903 -0.2324
  203MOL0     H26740   5.224  -0.153   2.903  1.8791  1.5157 -0.7839
  203MOL0     H26741   5.122  -0.016   3.145 -0.0729  0.0007 -1.8899
  203MOL0     H26742   5.261  -0.138   3.134  1.2442  1.3625 -0.7008
  203MOL0     H26743   5.059  -0.289   3.035  0.7495 -0.9125 -0.1825
  203MOL0     H26744   4.961  -0.178   3.124  0.9114  1.9752 -2.3320
  203MOL0     H26745   5.147  -0.203   3.326 -2.3021  1.8032 -0.7567
  203MOL0     H26746   4.999  -0.281   3.312 -0.1745  0.4305  0.3279
  203MOL0     H26747   5.282  -0.371   3.206 -0.0861 -2.1534 -0.9487
  203MOL0     H26748   5.133  -0.480   3.182 -4.9061  1.0999  2.2834
  203MOL0     H26749   5.125  -0.658   3.371 -1.8971  1.4836 -0.7021
  203MOL0     H26750   5.273  -0.698   3.723 -1.1507 -1.1617  0.7635
  203MOL0     H26751   5.251  -0.790   3.569 -2.5029 -0.4375 -2.1781
  203MOL0     H26752   5.009  -0.781   3.587 -1.5612  0.8074  0.7792
  203MOL0     H26753   5.024  -0.619   3.662  2.2513  1.4283 -1.0694
  203MOL0     H26754   5.073  -0.747   3.878 -1.4197 -0.6788  1.2926
  203MOL0     H26755   4.931  -0.820   3.791  0.3041 -3.3568 -1.8730
  203MOL0     H26756   5.216  -0.940   3.785  1.3156 -0.7942  2.0923
  203MOL0     H26757   5.063  -0.995   3.708 -1.3839  0.0415  1.8584
  203MOL0     H26758   4.989  -1.195   3.710  3.8690 -2.2025  0.8946
  203MOL0     H26759   4.796  -1.332   3.733 -1.9082  0.7313  0.6169
  203MOL0     H26760   4.369  -1.464   3.998  0.0835 -1.1401  2.0329
  203MOL0     H26761   4.207  -1.627   3.962 -0.1579  0.5818  0.7384
  203MOL0     H26762   4.109  -1.994   3.727  1.6568 -0.2994 -1.9735
  203MOL0     H26763   4.183  -1.872   3.627 -0.0066 -0.8990  0.9301
  203MOL0     H26764   4.038  -1.709   3.774 -2.4642  0.4912  2.0783
  203MOL0     H26765   3.989  -1.838   3.874 -0.0068  0.8662  0.4605
  203MOL0     H26766   3.813  -1.755   3.722 -0.8926 -0.5082 -1.7322
  203MOL0     H26767   3.854  -1.928   3.689  0.1601  0.5060  1.7619
  203MOL0     H26768   3.996  -1.880   3.507 -3.0160 -3.5425  0.0360
  203MOL0     H26769   3.842  -1.829   3.468  1.1093 -0.6861 -0.2519
  203MOL0     H26770   4.008  -1.658   3.400 -2.1060  0.3819 -0.2989
  203MOL0     H26771   4.078  -1.655   3.556 -1.0734  2.5619  1.0862
  203MOL0     H26772   3.870  -1.544   3.647  1.0273 -1.5971  1.0419
  203MOL0     H26773   3.806  -1.558   3.487 -0.2922  0.6076  0.6011
  203MOL0     H26774   4.001  -1.412   3.396  4.9947 -1.1589  2.0881
  203MOL0     H26775   3.891  -1.324   3.513 -0.2298 -0.4664  1.6823
  203MOL0     H26776   4.135  -1.284   3.550  1.0263 -0.1534 -1.9032
  203MOL0     H26777   4.151  -1.445   3.609  0.9974 -0.4588 -3.3768
  203MOL0     H26778   4.433  -1.825   3.656 -1.3736 -0.0575 -0.7709
  203MOL0     H26779   4.589  -1.624   3.665  1.5669  0.7896  1.2323
  203MOL0     H26780   4.734  -1.213   4.142 -2.4021 -1.2060 -2.5937
  203MOL0     H26781   4.933  -1.075   4.134  3.2646 -2.5646  0.2527
  203MOL0     H26782   5.259   0.221   2.332  0.7064  0.2465 -0.2473
  203MOL0     H26783   5.108   0.214   2.133 -0.5905  1.1810 -0.0541
  203MOL0     H26784   4.649   0.056   2.061 -0.5662 -0.0425  0.1520
  203MOL0     H26785   4.535  -0.073   1.883  0.0735  0.8434 -0.0540
  203MOL0     H26786   4.666  -0.026   1.451 -0.3018  2.8605 -2.1135
  203MOL0     H26787   4.518   0.064   1.496 -0.3687 -1.0426  1.9985
  203MOL0     H26788   4.465  -0.119   1.321 -0.9448 -0.8396 -0.1601
  203MOL0     H26789   4.505  -0.238   1.448  2.3557  1.4403  3.0036
  203MOL0     H26790   4.316  -0.040   1.534 -0.4025 -1.2602  4.1069
  203MOL0     H26791   4.342  -0.187   1.591  1.6425  0.3338 -0.4293
  203MOL0     H26792   4.122  -0.168   1.433  0.5388 -0.9756  1.8425
  203MOL0     H26793   4.235  -0.162   1.298 -1.1577 -3.9571 -2.3345
  203MOL0     H26794   4.236  -0.572   1.332 -2.2622 -0.5581  1.6725
  203MOL0     H26795   4.787   0.101   1.576 -1.8583 -1.1289 -1.2215
  203MOL0     H26796   4.908   0.228   1.763  1.6610 -0.0544  1.5072
  204MOL0     O26797  10.308   6.160   2.229  0.2669  0.2177 -0.0660
  204MOL0     C26798  10.358   6.200   2.332  0.1430 -0.4931 -0.0070
  204MOL0     O26799  10.347   6.332   2.381  0.0768  0.0512  0.5711
  204MOL0     C26800  10.282   6.431   2.313  0.1941 -1.2262  0.1658
  204MOL0     C26801  10.266   6.438   2.176 -0.0854 -0.5573 -0.0941
  204MOL0     C26802  10.191   6.536   2.115 -0.6197  0.6726 -0.3818
  204MOL0     C26803  10.125   6.637   2.193  0.7297 -0.0093 -0.3972
  204MOL0     O26804  10.025   6.723   2.152  0.0341  0.0157  0.5169
  204MOL0     C26805  10.046   6.768   2.009 -0.4860  0.0090  0.3279
  204MOL0     C26806  10.025   6.921   1.989  0.2869  0.8494  0.7740
  204MOL0     C26807  10.116   6.997   2.071  0.0398  0.3581 -0.0199
  204MOL0     C26808  10.141   7.141   2.036 -0.5975  0.5340 -0.2730
  204MOL0     C26809  10.020   7.246   2.022 -1.2054  0.0396  1.1287
  204MOL0     C26810  10.059   7.347   1.924  0.3582 -0.0937 -0.1942
  204MOL0     C26811   9.977   7.480   1.924  0.1223  0.1439  0.0229
  204MOL0     C26812  10.008   7.588   2.029  0.0219 -0.1024 -0.3999
  204MOL0     N26813  10.125   7.667   2.001 -0.8308 -0.0880 -0.3582
  204MOL0     C26814  10.135   7.803   2.048  0.3888 -0.8954  0.2522
  204MOL0     C26815  10.254   7.848   2.024 -1.0858 -0.6688 -1.2644
  204MOL0     C26816  10.286   7.991   2.028 -0.3662 -0.3410 -0.3042
  204MOL0     C26817  10.415   8.023   1.955 -0.4898 -0.0181  0.0275
  204MOL0     C26818  10.371   8.063   1.815 -0.5310 -0.9558  1.0619
  204MOL0     C26819  10.448   8.001   1.691 -0.2062 -0.8038 -0.5700
  204MOL0     O26820  10.590   8.003   1.696  0.4418 -0.8323  0.1742
  204MOL0     C26821  10.673   7.979   1.585  0.1504  0.0962 -1.1410
  204MOL0     C26822  10.808   8.015   1.610 -1.2873  1.1439  1.3095
  204MOL0     C26823  10.902   7.988   1.511  0.4338  0.1949 -0.1594
  204MOL0     C26824  10.863   7.930   1.390 -0.8180  0.4232  0.4324
  204MOL0     C26825  10.971   7.901   1.292 -0.1768  0.4058 -0.2939
  204MOL0     O26826  11.090   7.959   1.316  0.2102 -0.8341  0.2289
  204MOL0     C26827  11.180   7.963   1.208 -0.2251 -0.9415  0.2029
  204MOL0     C26828  11.151   8.037   1.095 -0.7536 -0.3413 -0.4485
  204MOL0     C26829  11.228   8.049   0.984 -0.8499  1.0100  0.2461
  204MOL0     C26830  11.355   7.989   0.989  1.4091  0.8960 -0.2125
  204MOL0     O26831  11.437   8.008   0.881 -0.4655  0.7509  0.0070
  204MOL0     C26832  11.581   7.987   0.900  0.2565  0.0468  0.2428
  204MOL0     C26833  11.667   8.055   0.797 -0.9978 -0.2215  0.9155
  204MOL0     C26834  11.633   8.005   0.657  0.1838 -0.0284  0.1233
  204MOL0     C26835  11.707   8.078   0.546 -0.4612 -0.9887 -0.2947
  204MOL0     C26836  11.667   8.003   0.422  0.6941 -0.8084 -0.8568
  204MOL0     C26837  11.743   8.037   0.293  0.4493 -0.8864 -0.4016
  204MOL0     C26838  11.893   8.063   0.305  0.0741 -0.2536 -0.2882
  204MOL0     C26839  11.967   7.957   0.392  0.7255 -0.3756 -0.8011
  204MOL0    Cl26840  12.051   7.857   0.270  0.5292 -0.3244 -0.5017
  204MOL0     C26841  11.393   7.914   1.107 -0.5559  0.0157 -0.4504
  204MOL0     C26842  11.307   7.902   1.210  0.4739  1.6439 -0.5957
  204MOL0     O26843  10.944   7.828   1.200  0.0317  0.5589  1.0334
  204MOL0     C26844  10.734   7.878   1.378  0.0621 -0.6964 -0.3147
  204MOL0     C26845  10.632   7.913   1.473 -0.1900  0.1831  0.3374
  204MOL0     N26846  10.328   7.731   1.977 -0.1064  0.2840 -0.0688
  204MOL0     N26847  10.250   7.636   1.948  0.7674  0.1822 -0.2747
  204MOL0     C26848  10.157   6.635   2.324  0.0202 -0.4386 -0.1370
  204MOL0     C26849  10.234   6.540   2.386  0.1302  1.0562  0.0267
  204MOL0     C26850  10.402   6.093   2.432  0.7334  0.2048  0.9681
  204MOL0     C26851  10.363   5.959   2.410  0.1651 -0.2568  0.4768
  204MOL0     C26852  10.369   5.867   2.519 -0.8736 -0.1321  0.4603
  204MOL0     C26853  10.416   5.897   2.641 -0.2876  0.4403 -0.4269
  204MOL0     O26854  10.400   5.812   2.747 -0.6519 -0.8627 -0.2559
  204MOL0     C26855  10.265   5.789   2.792 -0.3463 -0.2088  0.2975
  204MOL0     C26856  10.244   5.640   2.804 -1.5906  0.8232  0.1083
  204MOL0     C26857  10.114   5.595   2.875  0.0966 -0.1727  0.5788
  204MOL0     C26858  10.123   5.451   2.927 -0.1947 -0.5996  0.6406
  204MOL0     C26859  10.016   5.369   2.861 -0.4775  0.8401  0.6079
  204MOL0     C26860   9.919   5.328   2.817  0.4560  0.1620 -0.4297
  204MOL0     C26861  10.447   6.029   2.662  1.1386 -0.4634 -0.7844
  204MOL0     C26862  10.442   6.127   2.558 -0.0334 -0.3719  0.1999
  204MOL0     H26863  10.305   6.350   2.125  3.4331 -0.2211  1.7057
  204MOL0     H26864  10.181   6.528   2.008  2.2266 -0.6652 -0.6573
  204MOL0     H26865   9.971   6.711   1.952 -1.4059 -1.4824  2.8535
  204MOL0     H26866  10.148   6.742   1.980 -1.1578  0.6416 -3.0416
  204MOL0     H26867   9.917   6.937   2.001 -0.1305 -1.0891  0.1311
  204MOL0     H26868  10.049   6.929   1.882 -0.6863  1.7583  0.6089
  204MOL0     H26869  10.215   6.951   2.074  0.0226  0.3285  0.1477
  204MOL0     H26870  10.094   7.008   2.178 -0.5922  3.2633 -0.3538
  204MOL0     H26871  10.218   7.163   2.111  2.1026 -5.7423 -0.5139
  204MOL0     H26872  10.200   7.147   1.944  1.8435 -1.1379  1.0300
  204MOL0     H26873  10.017   7.286   2.124  2.2269 -0.2523  1.4707
  204MOL0     H26874   9.924   7.208   1.987 -1.8290  1.0963  1.6249
  204MOL0     H26875  10.034   7.297   1.830 -1.6914 -0.9965  0.7574
  204MOL0     H26876  10.165   7.374   1.924 -0.1954  2.4145 -1.4548
  204MOL0     H26877   9.994   7.524   1.825 -0.0400  2.8026  1.0983
  204MOL0     H26878   9.872   7.450   1.932 -0.3071  1.8030  1.1147
  204MOL0     H26879  10.029   7.534   2.122  2.5652  1.9880  0.3421
  204MOL0     H26880   9.928   7.661   2.043 -1.8090 -1.9621 -0.7012
  204MOL0     H26881  10.050   7.857   2.088 -0.1985  1.6907 -3.9140
  204MOL0     H26882  10.303   8.021   2.132  3.4012  0.2893 -0.9847
  204MOL0     H26883  10.201   8.053   1.997 -0.1570  1.1344  1.8782
  204MOL0     H26884  10.472   7.930   1.962 -1.9211 -1.0925 -1.5896
  204MOL0     H26885  10.463   8.103   2.011  1.0524 -2.5797  2.6136
  204MOL0     H26886  10.266   8.044   1.794 -0.4030  2.0767 -4.3257
  204MOL0     H26887  10.373   8.172   1.821 -1.2120 -0.9862  2.0979
  204MOL0     H26888  10.431   8.047   1.593  3.8510 -1.6383 -1.8606
  204MOL0     H26889  10.421   7.895   1.690  0.2245 -0.9539  0.8947
  204MOL0     H26890  10.830   8.066   1.703 -0.7651  0.0330  1.8194
  204MOL0     H26891  11.007   8.015   1.524  1.5611 -3.6580 -0.1505
  204MOL0     H26892  11.062   8.100   1.093  1.0892  2.4955 -0.1260
  204MOL0     H26893  11.211   8.103   0.892 -0.4309  2.6755  1.1137
  204MOL0     H26894  11.598   7.879   0.896  0.9132  0.1906 -1.5619
  204MOL0     H26895  11.617   8.021   0.998  2.8943  2.1228 -1.3110
  204MOL0     H26896  11.770   8.023   0.813 -0.9558  0.1123  1.3359
  204MOL0     H26897  11.648   8.163   0.797 -3.6687 -0.6141  0.3723
  204MOL0     H26898  11.525   8.002   0.643  0.3085 -1.5214 -0.7550
  204MOL0     H26899  11.658   7.898   0.648 -0.2426 -0.2042  0.9022
  204MOL0     H26900  11.692   8.187   0.540  2.4035 -0.4564  0.7023
  204MOL0     H26901  11.811   8.068   0.577 -0.1639  0.2553 -0.8079
  204MOL0     H26902  11.561   8.024   0.409  1.2133  1.9931 -1.1302
  204MOL0     H26903  11.682   7.897   0.446  3.8512 -0.1293  0.7623
  204MOL0     H26904  11.708   8.136   0.261 -2.5269 -1.3841  0.9595
  204MOL0     H26905  11.715   7.957   0.225 -2.4914  0.4364 -0.8882
  204MOL0     H26906  11.929   8.066   0.202  1.2187  2.4355  0.0917
  204MOL0     H26907  11.918   8.162   0.346 -0.5109 -0.0862 -0.3376
  204MOL0     H26908  11.903   7.891   0.452 -0.1543  1.0688 -0.0761
  204MOL0     H26909  12.037   8.007   0.460  0.3648 -0.9557  0.0243
  204MOL0     H26910  11.492   7.870   1.108 -2.3250 -4.5703  0.9087
  204MOL0     H26911  11.338   7.853   1.302  2.0460 -0.4242 -2.1056
  204MOL0     H26912  10.716   7.805   1.299  1.4102 -1.3672 -0.0200
  204MOL0     H26913  10.530   7.883   1.454  0.3977 -0.7131 -1.8003
  204MOL0     H26914  10.104   6.708   2.386  2.3995  2.6052 -1.4379
  204MOL0     H26915  10.243   6.547   2.494 -5.9919  2.9829  0.7878
  204MOL0     H26916  10.328   5.926   2.313  5.2124 -2.6997 -0.8619
  204MOL0     H26917  10.329   5.767   2.498  0.5939 -0.6774  0.1733
  204MOL0     H26918  10.193   5.812   2.713 -0.1963 -1.8315 -0.3552
  204MOL0     H26919  10.248   5.839   2.888  0.4652  0.2073  0.2351
  204MOL0     H26920  10.253   5.603   2.701  1.6980  1.6570 -0.0426
  204MOL0     H26921  10.326   5.591   2.858 -0.7933  0.3867 -1.4248
  204MOL0     H26922  10.019   5.612   2.824 -0.7273 -1.8826  1.4601
  204MOL0     H26923  10.119   5.660   2.963  4.4630 -0.1670  0.5535
  204MOL0     H26924  10.219   5.400   2.920  1.0283  1.8273 -1.8301
  204MOL0     H26925  10.101   5.460   3.034 -1.0313 -2.1709  0.6289
  204MOL0     H26926   9.826   5.292   2.777  0.6123  0.8032 -1.4080
  204MOL0     H26927  10.472   6.056   2.764  0.8546  0.5750 -0.9800
  204MOL0     H26928  10.476   6.227   2.583  0.5606  0.1442 -2.3782
  205MOL0     O26929   3.340   1.032   6.023  0.4426 -0.2002  0.3217
  205MOL0     C26930   3.344   1.092   5.915  1.2621  0.0737  0.6363
  205MOL0     O26931   3.226   1.125   5.847 -0.3785  0.3776  0.5197
  205MOL0     C26932   3.110   1.071   5.896  0.4586  0.2406 -0.2139
  205MOL0     C26933   3.035   1.140   5.994  0.8646  0.3117 -0.4128
  205MOL0     C26934   2.915   1.082   6.041 -0.5315  0.0681 -0.5387
  205MOL0     C26935   2.865   0.956   5.984 -0.0424  0.1189 -1.4268
  205MOL0     O26936   2.756   0.893   6.035  0.5977 -0.2933 -0.5803
  205MOL0     C26937   2.771   0.753   6.077 -0.1880  0.1530 -0.1530
  205MOL0     C26938   2.644   0.679   6.122 -0.7446  0.2563  0.0362
  205MOL0     C26939   2.553   0.769   6.213 -0.2503 -0.4242  0.2126
  205MOL0     C26940   2.464   0.675   6.298 -0.1814  0.7360 -0.0155
  205MOL0     C26941   2.379   0.748   6.404  1.5377  0.1802 -0.9082
  205MOL0     C26942   2.437   0.748   6.550  0.1343  1.0651  0.2939
  205MOL0     C26943   2.355   0.836   6.649  0.2211 -0.1494 -0.3428
  205MOL0     C26944   2.413   0.966   6.675 -0.7650  0.4987  0.0331
  205MOL0     N26945   2.438   1.028   6.550 -0.2362  0.4540 -0.0853
  205MOL0     C26946   2.558   1.071   6.489  0.8652  0.9883  0.1782
  205MOL0     C26947   2.525   1.125   6.369 -1.2230  0.8590 -1.1191
  205MOL0     C26948   2.627   1.164   6.276  0.0095 -0.3022 -0.0349
  205MOL0     C26949   2.607   1.307   6.247  0.3171 -1.3371  0.2746
  205MOL0     C26950   2.737   1.378   6.214 -0.0166  0.7743 -0.2967
  205MOL0     C26951   2.706   1.509   6.145 -0.2469  0.4331 -1.1506
  205MOL0     O26952   2.835   1.562   6.108  0.3918  0.3609 -0.0207
  205MOL0     C26953   2.883   1.669   6.182  0.3873  1.1238 -0.2228
  205MOL0     C26954   2.945   1.769   6.108 -0.0635  0.1045 -0.3007
  205MOL0     C26955   2.996   1.890   6.166 -0.9442 -0.8760  0.4598
  205MOL0     C26956   2.990   1.904   6.307 -0.5806  0.1208  0.0492
  205MOL0     C26957   3.029   2.030   6.375 -0.1817 -0.0887  0.0875
  205MOL0     O26958   3.096   2.017   6.486  0.3323 -0.4087 -0.9555
  205MOL0     C26959   3.156   2.138   6.532  0.8601 -0.2187 -0.2062
  205MOL0     C26960   3.101   2.207   6.645 -0.3589  0.4755  0.0807
  205MOL0     C26961   3.158   2.321   6.693  0.2498  0.1218  0.3094
  205MOL0     C26962   3.261   2.376   6.621  0.5184 -0.3187  0.4456
  205MOL0     O26963   3.312   2.508   6.632  0.1065 -0.2004  0.2654
  205MOL0     C26964   3.274   2.595   6.748 -0.9649  0.1840  0.2509
  205MOL0     C26965   3.329   2.738   6.737 -0.4238  0.4711 -0.3760
  205MOL0     C26966   3.291   2.847   6.840 -0.9629  0.3586 -0.5287
  205MOL0     C26967   3.167   2.925   6.800 -0.1852  0.3915 -0.7775
  205MOL0     C26968   3.086   2.983   6.921 -0.6418  0.2531  0.1349
  205MOL0     C26969   3.064   3.131   6.910 -0.8323 -1.1210 -0.6995
  205MOL0     C26970   2.964   3.170   7.006 -0.5407 -0.3672  0.3970
  205MOL0     C26971   2.943   3.323   7.003  0.1645  0.6985  0.6150
  205MOL0    Cl26972   2.861   3.363   7.146 -0.2379  0.0349  0.4602
  205MOL0     C26973   3.313   2.313   6.512  0.8359  0.2075  0.3533
  205MOL0     C26974   3.270   2.182   6.472  0.2759 -0.4890 -1.2072
  205MOL0     O26975   3.012   2.130   6.308 -0.0726  0.3938  0.3109
  205MOL0     C26976   2.936   1.801   6.380  0.6695 -0.2656 -0.2224
  205MOL0     C26977   2.885   1.679   6.323 -0.6258  0.6661 -0.8809
  205MOL0     N26978   2.386   1.129   6.368 -0.6731  0.3766  1.4126
  205MOL0     N26979   2.331   1.082   6.480 -0.2766 -0.0844  0.5108
  205MOL0     C26980   2.929   0.895   5.870 -0.2566  0.2943 -0.3252
  205MOL0     C26981   3.049   0.961   5.827  0.3028 -0.3065  0.5944
  205MOL0     C26982   3.477   1.119   5.850  0.1559  1.0148 -1.2025
  205MOL0     C26983   3.487   1.171   5.719  0.4671 -0.2076 -0.5939
  205MOL0     C26984   3.607   1.185   5.663 -0.8287  0.0236  0.5857
  205MOL0     C26985   3.727   1.142   5.722 -1.6322  0.0521 -0.2647
  205MOL0     O26986   3.842   1.167   5.649 -0.1601  0.3713  0.6759
  205MOL0     C26987   3.965   1.218   5.713 -0.8591  0.3884 -0.1127
  205MOL0     C26988   3.946   1.362   5.753 -0.8279  0.2230 -0.1539
  205MOL0     C26989   4.069   1.454   5.777 -0.0848  0.3845 -0.2398
  205MOL0     C26990   4.129   1.516   5.652 -0.1124  0.3148 -0.9486
  205MOL0     C26991   4.237   1.604   5.705 -0.1540 -0.4828 -0.1445
  205MOL0     C26992   4.320   1.679   5.758  0.4654  0.2606  0.3189
  205MOL0     C26993   3.720   1.088   5.850 -0.0968  1.1637  0.0925
  205MOL0     C26994   3.597   1.082   5.911 -0.3806  0.6277 -0.4914
  205MOL0     H26995   3.074   1.223   6.053 -3.6842  0.1492  3.4116
  205MOL0     H26996   2.863   1.112   6.131 -0.2823  0.8531 -0.6493
  205MOL0     H26997   2.845   0.743   6.157  0.6167 -1.6499 -1.0614
  205MOL0     H26998   2.807   0.690   5.995  0.8345  1.7355 -0.9605
  205MOL0     H26999   2.681   0.588   6.170  3.3940  1.1269 -1.0568
  205MOL0     H27000   2.588   0.628   6.044  0.2573  0.2012 -0.6614
  205MOL0     H27001   2.482   0.833   6.159 -1.6573 -1.0711  1.2372
  205MOL0     H27002   2.621   0.833   6.269  1.2306  0.1937 -2.1410
  205MOL0     H27003   2.391   0.627   6.232 -0.4963  0.3158  0.6262
  205MOL0     H27004   2.532   0.603   6.345 -0.9139  0.3004  0.4063
  205MOL0     H27005   2.283   0.696   6.411  0.9505  1.1067 -1.8560
  205MOL0     H27006   2.371   0.856   6.390  2.0140  1.2009  4.6239
  205MOL0     H27007   2.542   0.779   6.546  0.7632 -0.8830  1.0534
  205MOL0     H27008   2.443   0.645   6.585  1.6824  0.2007 -2.2710
  205MOL0     H27009   2.257   0.856   6.605 -1.9428  2.6957  4.8872
  205MOL0     H27010   2.344   0.790   6.747  2.1060 -0.4593 -0.2331
  205MOL0     H27011   2.510   0.958   6.726 -0.5273 -2.5192 -0.7100
  205MOL0     H27012   2.348   1.019   6.745 -1.7683  1.2640 -1.4183
  205MOL0     H27013   2.656   1.042   6.525  1.8303  0.8224 -2.3298
  205MOL0     H27014   2.620   1.095   6.192 -1.9395  0.9770 -0.9997
  205MOL0     H27015   2.727   1.153   6.318 -0.5683  1.5783  2.0237
  205MOL0     H27016   2.568   1.360   6.335  0.1622  0.5581 -0.8659
  205MOL0     H27017   2.544   1.322   6.159 -2.3575  0.4231  2.3372
  205MOL0     H27018   2.796   1.383   6.306 -0.2703 -1.1264  0.0023
  205MOL0     H27019   2.800   1.311   6.155 -0.3420 -4.1572  4.2242
  205MOL0     H27020   2.654   1.575   6.215 -0.8498 -1.1716 -0.0241
  205MOL0     H27021   2.649   1.492   6.053 -0.2694 -1.4608 -0.8162
  205MOL0     H27022   2.953   1.764   6.000  0.9259  0.5745 -0.2571
  205MOL0     H27023   3.055   1.967   6.116  0.4558 -0.8612  2.0704
  205MOL0     H27024   3.019   2.178   6.711 -0.3764 -0.5198 -0.3648
  205MOL0     H27025   3.115   2.373   6.778 -0.4372  1.8551 -1.0458
  205MOL0     H27026   3.320   2.544   6.833  0.0627 -3.1185 -2.0841
  205MOL0     H27027   3.166   2.607   6.761 -0.8045  2.4947 -0.2372
  205MOL0     H27028   3.318   2.775   6.635  2.8185 -2.7146 -2.0995
  205MOL0     H27029   3.437   2.723   6.748 -0.6272  0.4894  2.2874
  205MOL0     H27030   3.367   2.922   6.864 -0.8033 -0.6724  2.6732
  205MOL0     H27031   3.278   2.798   6.937  1.3131  1.6751  0.5380
  205MOL0     H27032   3.192   3.011   6.738  1.4724 -0.7252 -1.7018
  205MOL0     H27033   3.098   2.859   6.747 -1.5152 -1.1137  2.5026
  205MOL0     H27034   3.147   2.969   7.011  1.3769  0.1500 -1.1702
  205MOL0     H27035   2.997   2.922   6.936 -0.9957  0.4523 -1.0197
  205MOL0     H27036   3.026   3.148   6.808 -0.3450  3.8333 -0.2936
  205MOL0     H27037   3.156   3.187   6.927 -0.3670 -1.1695 -2.7360
  205MOL0     H27038   2.865   3.126   6.990 -0.7288 -0.0726  0.7131
  205MOL0     H27039   2.999   3.151   7.108  1.1897  1.9378  0.3077
  205MOL0     H27040   2.887   3.358   6.917  0.3327  2.4761  1.1938
  205MOL0     H27041   3.041   3.371   6.999  0.2577  0.4268 -0.5971
  205MOL0     H27042   3.390   2.347   6.443 -0.3620 -2.5113 -2.6094
  205MOL0     H27043   3.321   2.132   6.390  1.5315  0.9911 -1.3616
  205MOL0     H27044   2.932   1.820   6.487  1.2463  1.3908 -0.4697
  205MOL0     H27045   2.833   1.599   6.374  2.9203 -0.8010  0.7859
  205MOL0     H27046   2.903   0.804   5.816 -2.0260 -1.2307  2.8267
  205MOL0     H27047   3.091   0.911   5.741 -0.8604  0.3335 -0.3664
  205MOL0     H27048   3.395   1.201   5.668 -1.9363 -2.1384  2.2543
  205MOL0     H27049   3.605   1.236   5.568 -0.2277 -2.3788 -0.7910
  205MOL0     H27050   4.048   1.230   5.643  2.2612 -1.0493  3.0211
  205MOL0     H27051   4.004   1.156   5.794  1.3485  1.3860 -0.3569
  205MOL0     H27052   3.894   1.406   5.667  2.0276  0.0674 -2.0852
  205MOL0     H27053   3.891   1.363   5.847  0.6899  0.7308  0.7643
  205MOL0     H27054   4.134   1.397   5.844  1.5462  0.9852 -1.2536
  205MOL0     H27055   4.019   1.537   5.828 -1.3570 -0.5381  0.0972
  205MOL0     H27056   4.160   1.436   5.584 -3.4145 -2.0033  0.0077
  205MOL0     H27057   4.051   1.580   5.609  0.8660  2.1552 -0.0966
  205MOL0     H27058   4.400   1.738   5.798  0.4797 -1.1374  2.5068
  205MOL0     H27059   3.815   1.081   5.901 -0.2910  3.0673  0.8034
  205MOL0     H27060   3.584   1.033   6.007  0.4329 -0.0611 -0.7235
  206MOL0     O27061   3.681   5.389  10.380 -0.8051 -0.6263  1.0162
  206MOL0     C27062   3.715   5.336  10.487  0.6530  0.1042  0.8691
  206MOL0     O27063   3.685   5.398  10.603 -0.1020  0.8419  0.0555
  206MOL0     C27064   3.647   5.531  10.606 -0.0306 -0.7639 -0.5400
  206MOL0     C27065   3.704   5.612  10.703 -0.4583 -0.0774 -1.1619
  206MOL0     C27066   3.658   5.738  10.724 -0.0830  0.3001  0.3853
  206MOL0     C27067   3.543   5.799  10.664 -0.3205  0.2610 -0.3643
  206MOL0     O27068   3.502   5.926  10.702  0.0333 -0.9303  0.8005
  206MOL0     C27069   3.492   6.004  10.583 -0.5094  0.1466  0.0879
  206MOL0     C27070   3.386   6.109  10.593 -0.4575  0.7186  0.1298
  206MOL0     C27071   3.360   6.189  10.465 -0.0327 -0.5174  0.5328
  206MOL0     C27072   3.215   6.239  10.483 -0.2850 -0.7732 -1.3790
  206MOL0     C27073   3.196   6.359  10.400 -0.2612 -0.5245  0.0184
  206MOL0     C27074   3.047   6.399  10.406 -0.8572 -0.6825  0.4117
  206MOL0     C27075   3.003   6.520  10.312 -0.5213 -0.1673  0.0635
  206MOL0     C27076   2.993   6.485  10.156 -0.1404 -0.4122  0.3893
  206MOL0     N27077   3.004   6.596  10.065 -0.7151  0.0954  0.2247
  206MOL0     C27078   3.119   6.662  10.027 -0.0890  0.6803 -0.0480
  206MOL0     C27079   3.092   6.779   9.971 -0.7883  0.1106  1.5056
  206MOL0     C27080   3.184   6.897   9.943 -0.5148  1.1908 -0.3815
  206MOL0     C27081   3.232   6.915   9.799 -0.1646 -0.1140  0.0187
  206MOL0     C27082   3.332   7.025   9.759  0.3163  0.2461 -0.1910
  206MOL0     C27083   3.377   6.998   9.616 -0.2473  0.6540 -0.7815
  206MOL0     O27084   3.276   7.012   9.521  0.5025  0.5405 -0.6937
  206MOL0     C27085   3.251   7.140   9.474 -0.4165  1.1873 -0.5275
  206MOL0     C27086   3.137   7.209   9.502  1.0518 -0.6273 -0.9992
  206MOL0     C27087   3.113   7.344   9.457  0.1060 -0.7570  0.7280
  206MOL0     C27088   3.211   7.405   9.386 -0.0859  0.2597  0.1859
  206MOL0     C27089   3.173   7.529   9.317  0.7578 -0.3264 -0.1738
  206MOL0     O27090   3.057   7.590   9.377  0.4676  0.2452  1.4683
  206MOL0     C27091   3.021   7.708   9.308  1.0078  0.0925 -0.1858
  206MOL0     C27092   3.104   7.819   9.325 -0.0088 -0.3170 -0.9616
  206MOL0     C27093   3.067   7.942   9.276  0.0961  0.6948 -0.9572
  206MOL0     C27094   2.945   7.959   9.211 -0.4957  0.7926 -1.2035
  206MOL0     O27095   2.925   8.087   9.166  0.7980  0.0100  0.5895
  206MOL0     C27096   2.794   8.128   9.111 -1.2102  0.2498  1.1025
  206MOL0     C27097   2.786   8.102   8.957  0.0504  0.5238 -0.4416
  206MOL0     C27098   2.843   8.226   8.894  0.1151  0.5219 -0.8166
  206MOL0     C27099   2.834   8.231   8.742 -0.2535  0.3856 -0.4911
  206MOL0     C27100   2.702   8.305   8.706  1.3591  0.5802 -0.1597
  206MOL0     C27101   2.705   8.327   8.558  0.4536 -0.2106 -0.3195
  206MOL0     C27102   2.582   8.399   8.516  0.8058 -0.1146 -0.7080
  206MOL0     C27103   2.567   8.401   8.372  0.9477  0.7412  0.9817
  206MOL0    Cl27104   2.413   8.497   8.334 -0.6301 -0.2335 -0.6199
  206MOL0     C27105   2.853   7.849   9.191 -0.5558  0.6486  0.4818
  206MOL0     C27106   2.899   7.721   9.247 -0.1685  0.1745  0.0922
  206MOL0     O27107   3.253   7.582   9.244 -0.3940  0.4500 -0.4157
  206MOL0     C27108   3.325   7.335   9.360 -1.4967  0.5714 -0.1589
  206MOL0     C27109   3.343   7.199   9.388  0.3078  0.2394 -0.7795
  206MOL0     N27110   2.952   6.775   9.957  0.7433 -0.3501 -0.0261
  206MOL0     N27111   2.907   6.665  10.008 -0.1172 -0.1098  0.1061
  206MOL0     C27112   3.470   5.702  10.590  0.4833  0.1573  0.1374
  206MOL0     C27113   3.523   5.571  10.558 -0.4103  0.8389  0.0297
  206MOL0     C27114   3.807   5.221  10.477 -0.5054 -0.4716 -0.6163
  206MOL0     C27115   3.855   5.173  10.361 -0.2263  0.1185 -0.0776
  206MOL0     C27116   3.937   5.066  10.350 -0.0078  0.0367 -0.3971
  206MOL0     C27117   3.966   5.000  10.474 -0.0159  0.1709  0.8471
  206MOL0     O27118   4.064   4.901  10.469 -1.0257 -0.0629 -0.0970
  206MOL0     C27119   4.013   4.785  10.393  0.3249 -0.0662 -1.2406
  206MOL0     C27120   4.125   4.730  10.326  0.4901 -0.2492  0.4214
  206MOL0     C27121   4.082   4.627  10.231 -0.1534 -0.1319 -0.8290
  206MOL0     C27122   4.179   4.505  10.228 -0.1950 -0.1058 -0.4483
  206MOL0     C27123   4.156   4.422  10.107 -0.3968 -0.2375 -0.2670
  206MOL0     C27124   4.142   4.348  10.009  0.4959 -0.4803  0.2201
  206MOL0     C27125   3.922   5.047  10.599 -0.6523  1.3220  0.4890
  206MOL0     C27126   3.844   5.164  10.603 -1.2047  0.2251 -0.3328
  206MOL0     H27127   3.781   5.576  10.770 -1.3076 -0.8257 -0.5498
  206MOL0     H27128   3.726   5.785  10.795 -0.8951  3.2724 -0.6544
  206MOL0     H27129   3.486   5.940  10.494  1.5661 -2.5647  1.7586
  206MOL0     H27130   3.590   6.052  10.572 -0.4370 -0.1720 -0.7761
  206MOL0     H27131   3.410   6.178  10.675 -0.1750  1.0616 -0.2390
  206MOL0     H27132   3.293   6.056  10.617  0.9377 -1.0702  1.9934
  206MOL0     H27133   3.368   6.139  10.368 -0.1399 -1.6623  1.0949
  206MOL0     H27134   3.427   6.274  10.477 -1.0211  0.3226  0.2749
  206MOL0     H27135   3.131   6.174  10.457 -1.7211  0.2890  0.3763
  206MOL0     H27136   3.201   6.266  10.588  3.2100  0.8124 -1.1863
  206MOL0     H27137   3.238   6.350  10.299  2.4046  0.5442  0.9462
  206MOL0     H27138   3.255   6.441  10.441 -0.6091 -0.3500  0.1770
  206MOL0     H27139   3.008   6.427  10.504  2.4740  0.1570  1.6019
  206MOL0     H27140   2.989   6.310  10.377  0.0578 -0.2548 -3.2310
  206MOL0     H27141   2.911   6.567  10.346  0.2052  1.5191 -0.1717
  206MOL0     H27142   3.085   6.592  10.323  1.3112 -1.7136 -2.3414
  206MOL0     H27143   2.899   6.437  10.129 -1.0196  0.3445  1.9990
  206MOL0     H27144   3.072   6.416  10.123 -1.3208 -0.8759 -1.6357
  206MOL0     H27145   3.220   6.637  10.057 -0.3983 -1.1428 -0.4187
  206MOL0     H27146   3.267   6.894  10.014 -0.9341 -2.7534  0.1770
  206MOL0     H27147   3.125   6.984   9.972 -0.7291  1.2174 -0.9017
  206MOL0     H27148   3.142   6.937   9.740  0.1593 -0.3938 -0.5914
  206MOL0     H27149   3.271   6.819   9.764  1.1785  0.3558  0.1818
  206MOL0     H27150   3.296   7.128   9.770  0.0215  0.0191  1.1503
  206MOL0     H27151   3.414   7.017   9.831  0.1508 -1.5142 -0.1681
  206MOL0     H27152   3.426   6.902   9.597 -0.3649  0.6909 -1.3134
  206MOL0     H27153   3.456   7.072   9.596 -1.9599  2.4907 -1.1456
  206MOL0     H27154   3.063   7.162   9.566  1.9591 -0.1016  0.4958
  206MOL0     H27155   3.034   7.405   9.500  1.1856  0.3685  1.2227
  206MOL0     H27156   3.206   7.798   9.353 -0.1890  0.5811  0.4772
  206MOL0     H27157   3.131   8.028   9.290 -0.6215  0.9292  1.1073
  206MOL0     H27158   2.784   8.234   9.136  0.9879  0.8468 -0.2340
  206MOL0     H27159   2.704   8.081   9.152  0.1493 -2.9009  0.7222
  206MOL0     H27160   2.681   8.092   8.928  0.2184 -3.3855 -0.3395
  206MOL0     H27161   2.844   8.010   8.940  2.0729  1.6646 -0.0316
  206MOL0     H27162   2.952   8.219   8.905 -0.1343 -3.7292  0.5304
  206MOL0     H27163   2.812   8.314   8.951  2.6592 -1.1390  3.5791
  206MOL0     H27164   2.921   8.282   8.699 -1.3252  1.5238 -1.3929
  206MOL0     H27165   2.829   8.129   8.704  4.5118 -1.0195  1.8799
  206MOL0     H27166   2.705   8.399   8.763  0.5861  0.1960  0.5252
  206MOL0     H27167   2.623   8.236   8.737 -0.0421  0.6275 -3.2569
  206MOL0     H27168   2.711   8.227   8.514 -2.3194 -2.2071  3.2959
  206MOL0     H27169   2.793   8.385   8.529  0.4079 -0.5171 -1.0868
  206MOL0     H27170   2.499   8.343   8.559  0.0254  2.3984  1.3518
  206MOL0     H27171   2.582   8.498   8.564  0.7636 -1.0846  1.4088
  206MOL0     H27172   2.563   8.296   8.344  1.1351  0.0680  3.3358
  206MOL0     H27173   2.642   8.456   8.314 -0.2039 -0.0977 -1.4477
  206MOL0     H27174   2.761   7.867   9.136 -0.6992 -3.2771 -0.8307
  206MOL0     H27175   2.830   7.639   9.232 -3.3893  2.5463  0.7127
  206MOL0     H27176   3.406   7.378   9.302 -2.2049  0.4038 -1.2956
  206MOL0     H27177   3.440   7.158   9.361 -0.2907 -1.2472 -0.7351
  206MOL0     H27178   3.369   5.722  10.554  0.5485  0.5847  0.1891
  206MOL0     H27179   3.472   5.486  10.513  0.6237 -0.7093  1.6789
  206MOL0     H27180   3.823   5.218  10.268 -1.9437  2.6367  1.5789
  206MOL0     H27181   3.997   5.042  10.263 -0.3968  0.1765 -0.7081
  206MOL0     H27182   3.942   4.818  10.316  0.3446  3.1945 -0.0236
  206MOL0     H27183   3.972   4.707  10.458 -5.8260  2.0852 -1.8368
  206MOL0     H27184   4.176   4.810  10.271  0.9672  0.7988  2.2928
  206MOL0     H27185   4.192   4.687  10.401  0.0198 -0.3982  0.7579
  206MOL0     H27186   4.064   4.673  10.133  0.2933 -0.6360 -1.1511
  206MOL0     H27187   3.982   4.590  10.256  0.0301  0.0907  0.2720
  206MOL0     H27188   4.283   4.534  10.247 -0.5237  1.0503 -0.3376
  206MOL0     H27189   4.163   4.427  10.303  1.9637  0.2627  0.4646
  206MOL0     H27190   4.121   4.288   9.923  1.1212 -0.9119  0.3615
  206MOL0     H27191   3.932   4.991  10.691 -2.4344 -1.2128 -0.7262
  206MOL0     H27192   3.792   5.201  10.690  0.4013  1.4789  0.1286
  207MOL0     O27193   2.708   4.405   4.733 -0.0569 -0.6220  0.4953
  207MOL0     C27194   2.618   4.417   4.649  0.1163  0.6104  0.3410
  207MOL0     O27195   2.571   4.533   4.623  0.2959 -0.7906 -0.2081
  207MOL0     C27196   2.640   4.651   4.615 -0.0330 -0.3062  0.8549
  207MOL0     C27197   2.604   4.744   4.513 -0.7350 -0.2414  0.4274
  207MOL0     C27198   2.678   4.861   4.486 -0.2747  0.4358 -0.0427
  207MOL0     C27199   2.791   4.900   4.561  0.1312 -0.1173 -0.2257
  207MOL0     O27200   2.866   5.009   4.528  1.2931 -0.0897  0.3100
  207MOL0     C27201   2.827   5.098   4.429 -0.4699 -0.8202  1.0019
  207MOL0     C27202   2.900   5.083   4.298 -1.2376 -0.7524  0.2103
  207MOL0     C27203   2.812   5.150   4.187 -0.4422  0.6492 -0.2114
  207MOL0     C27204   2.883   5.149   4.047  0.3863  0.0698 -1.0187
  207MOL0     C27205   2.786   5.177   3.932  0.1453  0.2503  0.7867
  207MOL0     C27206   2.839   5.105   3.805 -0.0998  0.3747 -0.9566
  207MOL0     C27207   2.757   5.146   3.677  0.1285  0.0495  0.3858
  207MOL0     C27208   2.813   5.064   3.559  0.5370  0.1547  0.0085
  207MOL0     N27209   2.798   4.919   3.565 -0.3340  0.4483  0.0093
  207MOL0     C27210   2.686   4.846   3.610 -0.6737  0.0290  0.7369
  207MOL0     C27211   2.729   4.716   3.619  0.4418  0.2670  0.4988
  207MOL0     C27212   2.645   4.597   3.649  0.0863 -0.0021  0.1532
  207MOL0     C27213   2.581   4.545   3.521 -0.1305 -1.0813 -0.8774
  207MOL0     C27214   2.455   4.474   3.556  0.2408 -0.3688 -0.2752
  207MOL0     C27215   2.370   4.438   3.438  0.1341  0.3917 -0.5373
  207MOL0     O27216   2.243   4.394   3.499 -0.8989 -0.2666  0.8098
  207MOL0     C27217   2.141   4.371   3.412  0.1175  0.2006 -0.5003
  207MOL0     C27218   2.144   4.363   3.275 -0.0364 -0.3525 -0.0465
  207MOL0     C27219   2.034   4.316   3.203  0.7633  0.7229  0.2342
  207MOL0     C27220   1.910   4.294   3.260 -0.0938  0.3368  0.1712
  207MOL0     C27221   1.793   4.246   3.185  0.3052 -0.1719 -0.2889
  207MOL0     O27222   1.671   4.242   3.258 -1.1808 -0.1623  0.2898
  207MOL0     C27223   1.561   4.179   3.199  0.3669 -0.2907  1.3904
  207MOL0     C27224   1.436   4.248   3.206 -0.1577  0.2429 -0.6359
  207MOL0     C27225   1.310   4.204   3.154 -0.3234  0.6995  0.3936
  207MOL0     C27226   1.327   4.081   3.078  0.6731 -0.8110 -0.0429
  207MOL0     O27227   1.213   4.037   3.006  0.4532 -0.3629 -0.2068
  207MOL0     C27228   1.073   4.074   3.040 -1.0557  0.0995 -0.4892
  207MOL0     C27229   0.986   3.995   2.934  0.2840 -0.2522  0.4395
  207MOL0     C27230   0.844   4.003   2.958 -0.5378  0.5400 -0.7332
  207MOL0     C27231   0.795   4.136   3.022 -0.2449  0.0407 -0.7757
  207MOL0     C27232   0.646   4.146   3.025  0.7690  0.0865 -0.6871
  207MOL0     C27233   0.583   4.171   2.884  0.0221 -0.2658  0.8743
  207MOL0     C27234   0.431   4.214   2.882 -0.5367 -0.1359 -0.3829
  207MOL0     C27235   0.346   4.099   2.941  0.0053 -0.6820 -0.0049
  207MOL0    Cl27236   0.182   4.092   2.869  0.0020 -0.0331 -0.4985
  207MOL0     C27237   1.444   4.006   3.073  0.1857 -0.2667  0.4196
  207MOL0     C27238   1.562   4.053   3.132 -0.5573 -0.3811 -0.7739
  207MOL0     O27239   1.801   4.223   3.066 -0.0303  0.1081  0.4027
  207MOL0     C27240   1.905   4.307   3.402 -0.4694 -0.1201 -0.1021
  207MOL0     C27241   2.024   4.338   3.469 -0.0078 -0.9228 -0.2376
  207MOL0     N27242   2.861   4.712   3.582  0.9166 -0.2142  0.5049
  207MOL0     N27243   2.906   4.832   3.549  0.5024 -0.1109  0.3839
  207MOL0     C27244   2.826   4.813   4.671  0.0520 -1.1600  0.3897
  207MOL0     C27245   2.744   4.697   4.706  0.1066 -0.1171  0.0159
  207MOL0     C27246   2.551   4.286   4.605 -0.2884 -0.1055  0.6058
  207MOL0     C27247   2.567   4.163   4.678 -0.4884 -0.5864  0.1844
  207MOL0     C27248   2.472   4.060   4.674 -0.5101  0.3838 -1.1684
  207MOL0     C27249   2.369   4.069   4.582 -0.3594 -0.1773 -0.4332
  207MOL0     O27250   2.274   3.975   4.570 -0.0798 -0.3378  0.5572
  207MOL0     C27251   2.292   3.850   4.638  0.0609  1.0167  0.0990
  207MOL0     C27252   2.172   3.750   4.627  0.8521 -0.2034  0.0298
  207MOL0     C27253   2.042   3.813   4.686  0.4132  0.5599  0.8608
  207MOL0     C27254   1.970   3.913   4.602 -0.6101  0.6745 -0.1190
  207MOL0     C27255   1.830   3.909   4.641 -0.3583  0.3085  0.3994
  207MOL0     C27256   1.724   3.928   4.684 -0.2174 -0.1184 -0.9285
  207MOL0     C27257   2.353   4.191   4.506 -0.5641 -0.5050  0.8439
  207MOL0     C27258   2.445   4.297   4.514  0.1212  0.1899 -0.8753
  207MOL0     H27259   2.527   4.722   4.439  2.0704  0.6831 -3.0672
  207MOL0     H27260   2.637   4.920   4.406  1.4343  0.8774 -0.6364
  207MOL0     H27261   2.846   5.203   4.452  1.1234 -0.9761  0.5632
  207MOL0     H27262   2.718   5.102   4.420 -0.3232  0.7707 -0.6615
  207MOL0     H27263   2.903   4.976   4.277 -0.8762 -1.3718  3.0806
  207MOL0     H27264   3.004   5.113   4.282 -1.6238 -0.4188 -2.1833
  207MOL0     H27265   2.800   5.255   4.214 -0.5412  0.2438  1.3923
  207MOL0     H27266   2.725   5.084   4.188  0.1739 -0.1913  1.0418
  207MOL0     H27267   2.962   5.226   4.041 -0.2965  1.3395  3.1414
  207MOL0     H27268   2.948   5.062   4.044  3.5852  2.1126  1.4490
  207MOL0     H27269   2.783   5.285   3.911 -0.5201  0.1784  0.5124
  207MOL0     H27270   2.687   5.134   3.944  0.6400 -1.7844 -1.6319
  207MOL0     H27271   2.827   4.997   3.822 -0.1005  0.9027  3.5235
  207MOL0     H27272   2.947   5.126   3.799 -0.0947  1.0151  0.8462
  207MOL0     H27273   2.652   5.123   3.697  0.0818 -2.1852 -1.8955
  207MOL0     H27274   2.756   5.252   3.650  1.7506 -0.2885 -1.2073
  207MOL0     H27275   2.919   5.091   3.551 -0.0564  2.4329 -0.8523
  207MOL0     H27276   2.767   5.099   3.466 -0.3404  1.5092  0.9182
  207MOL0     H27277   2.592   4.876   3.657 -0.6625 -1.8337  2.0560
  207MOL0     H27278   2.562   4.633   3.711  0.9364 -0.5131  1.6357
  207MOL0     H27279   2.698   4.523   3.710  2.5198  0.7959 -0.8688
  207MOL0     H27280   2.659   4.483   3.475  2.0579  0.8982 -0.0554
  207MOL0     H27281   2.557   4.635   3.463  0.7772 -0.8337 -0.8852
  207MOL0     H27282   2.483   4.382   3.606  1.8126 -1.0866 -2.3312
  207MOL0     H27283   2.397   4.533   3.628  2.0843  2.9175 -1.2526
  207MOL0     H27284   2.413   4.362   3.373 -5.7171 -1.3814 -3.0438
  207MOL0     H27285   2.351   4.531   3.384  0.6414  1.6788  1.3902
  207MOL0     H27286   2.238   4.389   3.227  0.4817  4.0879  2.7912
  207MOL0     H27287   2.038   4.322   3.094  0.6888 -0.9697  0.1027
  207MOL0     H27288   1.423   4.346   3.251 -2.1757  0.2821 -1.2250
  207MOL0     H27289   1.223   4.265   3.174  0.7455  2.1232  0.8370
  207MOL0     H27290   1.058   4.180   3.017  0.7644  0.9810  1.9639
  207MOL0     H27291   1.052   4.046   3.144  0.8209 -1.3517 -0.4452
  207MOL0     H27292   1.020   3.891   2.928 -2.4305 -1.1996  0.3781
  207MOL0     H27293   1.019   4.033   2.836  0.2756  2.7776  1.5115
  207MOL0     H27294   0.823   3.922   3.028  1.5935 -1.5662 -2.3709
  207MOL0     H27295   0.799   3.986   2.859  0.9683  0.5860 -1.4549
  207MOL0     H27296   0.823   4.134   3.128 -2.1197  0.9180 -0.2306
  207MOL0     H27297   0.828   4.223   2.966  2.8979 -0.3774  0.2228
  207MOL0     H27298   0.612   4.227   3.091 -1.3583 -2.6712  1.9019
  207MOL0     H27299   0.600   4.056   3.066 -1.6171  1.4046 -0.2564
  207MOL0     H27300   0.587   4.087   2.814 -1.4037  0.7142 -0.4533
  207MOL0     H27301   0.637   4.256   2.841  1.7337 -0.2470  2.8979
  207MOL0     H27302   0.416   4.313   2.926 -5.0527 -1.3869  1.4158
  207MOL0     H27303   0.408   4.220   2.776  1.8043 -0.2460 -0.9510
  207MOL0     H27304   0.343   4.122   3.048  2.0706  0.5508 -0.1625
  207MOL0     H27305   0.385   3.997   2.935 -2.6874 -1.9973  2.3203
  207MOL0     H27306   1.458   3.917   3.013 -1.9687  0.9791 -2.1108
  207MOL0     H27307   1.655   3.999   3.121 -1.2876 -1.8486 -0.0810
  207MOL0     H27308   1.818   4.283   3.462  1.0420 -0.7047  1.9922
  207MOL0     H27309   2.033   4.320   3.575 -1.5112  2.2170  0.5715
  207MOL0     H27310   2.919   4.832   4.725  1.0152 -1.4015 -1.1194
  207MOL0     H27311   2.763   4.629   4.789  0.1722  2.7616  2.5401
  207MOL0     H27312   2.641   4.167   4.757 -0.5691 -2.1610  0.3873
  207MOL0     H27313   2.486   3.980   4.745  0.1781  3.0133  1.8818
  207MOL0     H27314   2.312   3.862   4.745 -2.7101 -1.1355  0.9879
  207MOL0     H27315   2.377   3.798   4.594 -0.9800 -2.0810  1.4236
  207MOL0     H27316   2.147   3.744   4.521 -0.1659  2.6979  0.0321
  207MOL0     H27317   2.177   3.656   4.684 -0.4286  0.5411  1.4307
  207MOL0     H27318   2.066   3.869   4.776 -0.8852  0.8740  1.0255
  207MOL0     H27319   1.967   3.735   4.697 -1.1096  1.7822 -0.3966
  207MOL0     H27320   1.998   4.017   4.618  1.3892  0.3259 -1.1045
  207MOL0     H27321   1.993   3.895   4.497 -0.9447 -0.0465 -0.0801
  207MOL0     H27322   1.625   3.961   4.708  0.0319  0.2377 -0.3638
  207MOL0     H27323   2.270   4.211   4.439 -0.2915  0.7492  0.8594
  207MOL0     H27324   2.422   4.395   4.472 -1.7783  1.2454  2.3070
  208MOL0     O27325   6.677   7.732  11.134 -0.7764  0.9950 -0.1285
  208MOL0     C27326   6.666   7.602  11.128 -0.9525  0.2388 -0.2356
  208MOL0     O27327   6.694   7.527  11.015  0.2603 -0.5702  0.3283
  208MOL0     C27328   6.735   7.598  10.908  0.0045 -0.4115  0.1248
  208MOL0     C27329   6.653   7.646  10.808  0.1219  0.6533  0.1568
  208MOL0     C27330   6.694   7.725  10.707 -0.1822 -0.2211 -0.3732
  208MOL0     C27331   6.826   7.776  10.719  1.0201 -0.0786 -0.6165
  208MOL0     O27332   6.880   7.871  10.633  0.6277 -0.1704 -0.1123
  208MOL0     C27333   6.802   7.946  10.535 -0.2191 -0.9110 -1.3034
  208MOL0     C27334   6.740   8.077  10.597 -0.4099 -0.1638  0.0969
  208MOL0     C27335   6.659   8.152  10.496  0.0287 -0.0161  0.1688
  208MOL0     C27336   6.752   8.217  10.382 -0.1451  0.4860 -0.3549
  208MOL0     C27337   6.683   8.314  10.290 -0.7497 -0.0685 -0.2966
  208MOL0     C27338   6.615   8.257  10.173  0.7666 -0.0856  0.1411
  208MOL0     C27339   6.568   8.366  10.062  0.2692  0.8166  0.6176
  208MOL0     C27340   6.551   8.307   9.921 -0.0957 -0.6503  0.5383
  208MOL0     N27341   6.676   8.245   9.868  0.2408  0.2994 -0.3287
  208MOL0     C27342   6.685   8.112   9.829  0.0577  0.5945 -0.4434
  208MOL0     C27343   6.789   8.116   9.743  0.1424 -0.8705  0.5399
  208MOL0     C27344   6.813   7.993   9.661 -0.0824 -0.3333  0.0073
  208MOL0     C27345   6.953   7.954   9.680 -0.6028 -0.7899  0.0336
  208MOL0     C27346   7.004   7.835   9.602  0.5761  0.3219 -0.4532
  208MOL0     C27347   7.019   7.870   9.449 -1.0593 -0.6356 -1.0705
  208MOL0     O27348   7.149   7.934   9.455  0.2791 -0.1585  0.2893
  208MOL0     C27349   7.198   7.982   9.331 -0.8624 -0.3482 -0.4391
  208MOL0     C27350   7.331   7.956   9.303 -0.0280 -0.0958 -0.1608
  208MOL0     C27351   7.390   8.019   9.191  1.4053 -0.4324 -0.0036
  208MOL0     C27352   7.311   8.099   9.107  0.3994 -0.7003 -0.2471
  208MOL0     C27353   7.366   8.169   8.992 -0.2109  0.2972  0.0512
  208MOL0     O27354   7.499   8.184   8.981  0.1424  0.1257 -0.3226
  208MOL0     C27355   7.545   8.266   8.885 -0.4687  0.1733  0.6571
  208MOL0     C27356   7.545   8.223   8.758  0.1408 -0.4393  0.1642
  208MOL0     C27357   7.603   8.297   8.657  0.4271 -1.1371  0.1722
  208MOL0     C27358   7.656   8.418   8.679 -0.4840 -0.1409 -0.5307
  208MOL0     O27359   7.724   8.484   8.572  0.1158  0.0163 -0.1619
  208MOL0     C27360   7.849   8.545   8.589 -0.1697  0.0006 -0.3592
  208MOL0     C27361   7.853   8.695   8.618  0.1298  0.3145 -0.2882
  208MOL0     C27362   7.989   8.738   8.654 -2.0060  0.9611  0.0436
  208MOL0     C27363   7.998   8.893   8.677 -0.9537 -0.4269 -0.1530
  208MOL0     C27364   7.986   8.925   8.828  0.1970 -0.9514  0.7436
  208MOL0     C27365   7.994   9.073   8.849 -0.6812  0.6067  0.0098
  208MOL0     C27366   7.959   9.103   8.994 -0.7164  0.1172  0.0276
  208MOL0     C27367   8.079   9.129   9.082 -0.5977 -0.8228 -0.1984
  208MOL0    Cl27368   8.155   9.283   9.043  0.0032 -0.4209 -0.2096
  208MOL0     C27369   7.657   8.459   8.816  1.1623 -0.0167  0.8143
  208MOL0     C27370   7.603   8.392   8.913 -0.3608 -0.3467 -0.2945
  208MOL0     O27371   7.285   8.208   8.912  0.3312  0.0966  0.2982
  208MOL0     C27372   7.170   8.120   9.135 -0.4204  0.1926  0.3358
  208MOL0     C27373   7.126   8.061   9.248  0.7153  0.2369  1.1523
  208MOL0     N27374   6.843   8.241   9.731  0.7576  0.6174 -0.3538
  208MOL0     N27375   6.765   8.322   9.806  0.6500  0.6426  0.8146
  208MOL0     C27376   6.908   7.724  10.818 -0.3181 -0.3846 -0.0868
  208MOL0     C27377   6.869   7.623  10.906 -0.7140  0.3063 -0.5643
  208MOL0     C27378   6.606   7.540  11.245 -0.0886 -0.3051 -0.1976
  208MOL0     C27379   6.538   7.414  11.234 -0.0839 -0.3159 -0.1787
  208MOL0     C27380   6.463   7.357  11.331  0.7419 -0.1516  0.3045
  208MOL0     C27381   6.455   7.425  11.454  0.4755  0.1211  0.6631
  208MOL0     O27382   6.372   7.379  11.554  0.3633  0.2635 -0.3518
  208MOL0     C27383   6.288   7.270  11.535  0.6979  1.0275 -1.0564
  208MOL0     C27384   6.351   7.152  11.605  0.7677 -0.2846  0.3237
  208MOL0     C27385   6.364   7.161  11.755  0.1808  0.4317 -0.5084
  208MOL0     C27386   6.225   7.141  11.818 -0.2558 -0.7381  1.1074
  208MOL0     C27387   6.227   7.119  11.961  0.3909  0.7605  0.4334
  208MOL0     C27388   6.213   7.091  12.078 -0.9512  0.3139 -0.1873
  208MOL0     C27389   6.525   7.548  11.465  0.5415 -0.4449 -0.3245
  208MOL0     C27390   6.604   7.602  11.366  1.1199  0.3580  0.4153
  208MOL0     H27391   6.548   7.621  10.805  0.7524 -2.4063 -3.3331
  208MOL0     H27392   6.627   7.770  10.634 -0.8320  1.1325  0.9866
  208MOL0     H27393   6.722   7.888  10.487  2.7229 -3.1567 -3.8641
  208MOL0     H27394   6.868   7.972  10.453 -1.4280 -2.7169 -2.9360
  208MOL0     H27395   6.814   8.145  10.639 -0.1902 -0.5707  0.3859
  208MOL0     H27396   6.683   8.056  10.688 -2.8209  1.7165 -0.8647
  208MOL0     H27397   6.599   8.233  10.539  0.0658  1.3335 -2.1568
  208MOL0     H27398   6.576   8.096  10.452 -0.7280  0.0382  1.4591
  208MOL0     H27399   6.824   8.277  10.440  1.4302 -0.3355 -1.3779
  208MOL0     H27400   6.811   8.145  10.326 -0.1616  1.5146 -1.7503
  208MOL0     H27401   6.764   8.377  10.251 -0.7663 -0.4158 -0.8938
  208MOL0     H27402   6.611   8.379  10.341 -0.0337  1.5020 -1.2157
  208MOL0     H27403   6.530   8.199  10.208  2.7177 -2.3477  1.4272
  208MOL0     H27404   6.688   8.187  10.132 -1.2852 -1.8625 -0.6480
  208MOL0     H27405   6.468   8.405  10.087 -0.6466  0.3558 -1.9802
  208MOL0     H27406   6.639   8.448  10.049  0.6441  0.1573 -2.1452
  208MOL0     H27407   6.520   8.386   9.852  1.0651 -2.4542 -2.2630
  208MOL0     H27408   6.478   8.225   9.918 -0.5800 -0.2539  1.3975
  208MOL0     H27409   6.611   8.032   9.830  1.3461 -0.6423  0.0721
  208MOL0     H27410   6.796   8.008   9.554 -1.2367 -0.1223  0.2061
  208MOL0     H27411   6.740   7.915   9.682 -2.2801  1.4084 -0.7463
  208MOL0     H27412   6.951   7.916   9.783 -0.1799 -0.9573 -0.0178
  208MOL0     H27413   7.020   8.040   9.678 -1.1614 -0.3516 -0.0597
  208MOL0     H27414   7.103   7.805   9.638 -0.4829 -1.7087  1.0127
  208MOL0     H27415   6.933   7.752   9.613 -1.3859  1.9020 -0.7123
  208MOL0     H27416   6.937   7.934   9.415 -1.1910 -0.4692 -0.4472
  208MOL0     H27417   7.024   7.779   9.389  0.3318 -0.9346 -0.5382
  208MOL0     H27418   7.384   7.891   9.372 -1.0118  0.1513  0.8502
  208MOL0     H27419   7.494   8.027   9.162  1.1231 -0.7242 -1.1283
  208MOL0     H27420   7.493   8.130   8.740  0.0376 -0.0620 -1.8190
  208MOL0     H27421   7.615   8.248   8.561 -1.6929 -2.4862  0.5165
  208MOL0     H27422   7.903   8.516   8.499  0.1278 -1.3275  0.2216
  208MOL0     H27423   7.896   8.496   8.674  0.2907  2.1067  0.6758
  208MOL0     H27424   7.789   8.729   8.700  1.6577  0.3601  0.9464
  208MOL0     H27425   7.817   8.745   8.528 -3.3791 -2.7637 -0.8256
  208MOL0     H27426   8.048   8.731   8.562 -1.7773  5.3572 -0.3504
  208MOL0     H27427   8.037   8.676   8.731  1.2981  1.7068 -1.2602
  208MOL0     H27428   8.089   8.928   8.628 -1.3269  2.0386  0.7684
  208MOL0     H27429   7.912   8.940   8.627 -1.4614 -1.5911 -0.4098
  208MOL0     H27430   8.044   8.856   8.891  3.0225 -1.4915 -2.1582
  208MOL0     H27431   7.883   8.896   8.848 -0.1534 -0.2829 -0.0065
  208MOL0     H27432   7.918   9.113   8.781 -1.5249 -0.6307  0.1902
  208MOL0     H27433   8.093   9.114   8.829  0.5118 -1.4014  1.5392
  208MOL0     H27434   7.894   9.191   8.991 -0.2523  0.4609 -0.1227
  208MOL0     H27435   7.912   9.013   9.036 -0.4886 -1.8758 -3.5974
  208MOL0     H27436   8.159   9.054   9.086 -0.5692 -0.7553  0.8927
  208MOL0     H27437   8.043   9.138   9.185 -2.9599  0.3182 -1.0442
  208MOL0     H27438   7.711   8.550   8.838  1.8823 -0.1851 -0.1427
  208MOL0     H27439   7.615   8.432   9.013 -0.0196 -0.4847 -0.2814
  208MOL0     H27440   7.099   8.174   9.073 -1.5048  1.9536  2.9361
  208MOL0     H27441   7.020   8.063   9.271  0.6584  0.4493  0.8684
  208MOL0     H27442   7.011   7.759  10.819 -0.3626 -0.2458 -0.2582
  208MOL0     H27443   6.939   7.582  10.978 -1.0369  2.5369  1.1297
  208MOL0     H27444   6.549   7.350  11.147 -1.2278 -3.0625  1.5419
  208MOL0     H27445   6.414   7.262  11.314  0.0523 -1.0406  5.4790
  208MOL0     H27446   6.264   7.242  11.432 -1.3481 -0.9161 -0.1137
  208MOL0     H27447   6.189   7.276  11.581 -0.0805 -1.2461 -2.2856
  208MOL0     H27448   6.313   7.050  11.589 -0.1715 -0.1555  1.5458
  208MOL0     H27449   6.452   7.160  11.565  1.0522  0.1529  1.1044
  208MOL0     H27450   6.417   7.252  11.787  3.0354 -2.0730  2.6110
  208MOL0     H27451   6.421   7.077  11.795  0.2320  0.2972 -0.8661
  208MOL0     H27452   6.167   7.230  11.795  0.7729  0.6281  3.3722
  208MOL0     H27453   6.167   7.060  11.774 -1.2282  0.7851 -0.5038
  208MOL0     H27454   6.195   7.059  12.179 -1.6977 -0.2246 -0.4847
  208MOL0     H27455   6.513   7.587  11.566  4.5890 -3.2535  1.5741
  208MOL0     H27456   6.660   7.691  11.391 -1.7730  2.0297  1.5313
  209MOL0     O27457  11.221   5.109   5.682 -0.7506 -0.8903 -0.0426
  209MOL0     C27458  11.117   5.057   5.650  0.5673  0.3844 -0.5441
  209MOL0     O27459  11.077   5.019   5.528  0.2653  0.4951 -0.3041
  209MOL0     C27460  11.142   5.044   5.406  0.7741 -1.0606 -0.5131
  209MOL0     C27461  11.094   4.970   5.307 -0.9296 -1.1089 -0.7116
  209MOL0     C27462  11.137   5.001   5.178 -0.2568 -0.8151 -0.2448
  209MOL0     C27463  11.221   5.106   5.142 -0.4202  0.3116 -0.3408
  209MOL0     O27464  11.248   5.131   5.012 -0.2757 -0.6506  0.7667
  209MOL0     C27465  11.351   5.228   4.975 -1.3170  0.6574  0.2742
  209MOL0     C27466  11.493   5.163   4.988  0.6105 -0.1145 -0.4499
  209MOL0     C27467  11.600   5.230   4.909  0.0527  0.3187 -1.2636
  209MOL0     C27468  11.738   5.196   4.964  0.4112  0.6064  0.2274
  209MOL0     C27469  11.837   5.265   4.861 -0.0365 -0.2250  0.3184
  209MOL0     C27470  11.990   5.261   4.890  0.0183  0.5341  0.1902
  209MOL0     C27471  12.030   5.324   5.024 -0.0478 -0.1657 -0.5229
  209MOL0     C27472  12.182   5.300   5.047 -0.9338  1.4665 -0.7709
  209MOL0     N27473  12.255   5.404   5.122 -0.2295 -0.0979 -0.1602
  209MOL0     C27474  12.384   5.399   5.161 -0.0154  0.8137  0.0512
  209MOL0     C27475  12.415   5.520   5.215  0.5932 -0.1427 -0.7333
  209MOL0     C27476  12.540   5.569   5.292 -0.2549  0.4999 -0.3850
  209MOL0     C27477  12.557   5.723   5.289 -0.2790 -1.8076  0.2392
  209MOL0     C27478  12.702   5.762   5.320  0.5519  0.4043  0.7830
  209MOL0     C27479  12.764   5.711   5.444 -1.6818  0.7872 -0.3901
  209MOL0     O27480  12.725   5.773   5.563  0.0298 -0.7099 -0.8335
  209MOL0     C27481  12.819   5.801   5.661 -0.0993  0.8313 -0.8377
  209MOL0     C27482  12.799   5.919   5.730 -0.5594 -0.3437 -0.2536
  209MOL0     C27483  12.891   5.971   5.813 -0.0252  0.1470  0.9833
  209MOL0     C27484  13.012   5.906   5.825 -0.5713 -0.4403 -0.5664
  209MOL0     C27485  13.124   5.972   5.903  0.0372 -0.1822 -0.4538
  209MOL0     O27486  13.242   5.941   5.872 -0.1788  0.8908 -0.7550
  209MOL0     C27487  13.351   5.990   5.942  0.2946  1.0937 -0.0702
  209MOL0     C27488  13.352   6.038   6.072 -0.2456 -0.2204 -0.1407
  209MOL0     C27489  13.457   6.098   6.124 -0.3359 -0.9073 -0.0443
  209MOL0     C27490  13.583   6.104   6.064 -0.8623  0.4600  0.7506
  209MOL0     O27491  13.696   6.156   6.116 -0.5437  0.7586 -0.5107
  209MOL0     C27492  13.707   6.238   6.238 -0.2132 -0.6708  0.1607
  209MOL0     C27493  13.682   6.167   6.376  0.0652  0.7608 -0.5361
  209MOL0     C27494  13.781   6.075   6.431 -0.4110  0.5304  0.1305
  209MOL0     C27495  13.819   5.967   6.325  0.3476 -0.4184 -0.5322
  209MOL0     C27496  13.892   5.852   6.389  0.2591  0.5460  0.4650
  209MOL0     C27497  13.952   5.754   6.281  0.2672  0.0369 -0.3049
  209MOL0     C27498  14.017   5.626   6.341  0.8379 -1.5729 -0.6942
  209MOL0     C27499  14.103   5.556   6.230  0.6477 -0.6925  0.6411
  209MOL0    Cl27500  14.201   5.424   6.298 -0.1920  0.0778 -0.1996
  209MOL0     C27501  13.587   6.040   5.941 -0.3062  1.1685 -0.3143
  209MOL0     C27502  13.474   5.976   5.881 -0.6603 -0.0005  0.0508
  209MOL0     O27503  13.097   6.065   5.984 -0.3999 -0.2078 -0.0049
  209MOL0     C27504  13.028   5.778   5.766 -0.6996 -0.1630 -0.3563
  209MOL0     C27505  12.930   5.725   5.679  0.6449 -0.3693  0.0450
  209MOL0     N27506  12.300   5.599   5.199  0.1452  0.0274  1.0155
  209MOL0     N27507  12.205   5.526   5.149  0.1288 -0.3495 -0.8563
  209MOL0     C27508  11.280   5.180   5.250 -0.8157  0.5986 -0.2214
  209MOL0     C27509  11.230   5.152   5.383 -0.3988  0.9784 -1.0314
  209MOL0     C27510  11.016   5.041   5.757  0.4273  0.1795  0.3380
  209MOL0     C27511  11.050   5.037   5.890 -0.6575  0.3805 -0.9984
  209MOL0     C27512  10.958   5.019   5.995 -0.0601 -0.3151 -0.1027
  209MOL0     C27513  10.821   5.007   5.970  0.0439  0.0135  0.5512
  209MOL0     O27514  10.734   4.987   6.075  0.2047 -0.0650 -0.3887
  209MOL0     C27515  10.625   5.084   6.091  0.9739 -0.1036 -1.6612
  209MOL0     C27516  10.677   5.182   6.202  0.2261  0.1698 -0.1422
  209MOL0     C27517  10.664   5.123   6.350 -0.1855 -1.5243  0.6202
  209MOL0     C27518  10.703   5.229   6.456  0.3759 -0.2100 -0.2724
  209MOL0     C27519  10.846   5.269   6.444  0.2908  0.8311 -0.8446
  209MOL0     C27520  10.958   5.306   6.451 -0.4940  0.2581  0.2754
  209MOL0     C27521  10.776   5.010   5.831 -0.1171 -0.7243 -0.8199
  209MOL0     C27522  10.873   5.025   5.727 -0.3203  0.4534  0.5428
  209MOL0     H27523  11.019   4.894   5.327 -1.3248 -0.0077  2.6606
  209MOL0     H27524  11.079   4.945   5.105 -0.1943 -0.5784 -0.4770
  209MOL0     H27525  11.339   5.320   5.033 -1.3419  1.5606 -1.1052
  209MOL0     H27526  11.325   5.258   4.873  0.9304  0.8293 -0.2985
  209MOL0     H27527  11.487   5.062   4.947 -0.5667  0.0541 -0.7370
  209MOL0     H27528  11.520   5.146   5.092 -0.1210 -0.4801 -0.3190
  209MOL0     H27529  11.590   5.338   4.920 -0.3217  0.2161 -0.5740
  209MOL0     H27530  11.586   5.209   4.802 -1.4013  0.7665 -1.1803
  209MOL0     H27531  11.760   5.230   5.065 -3.0560  1.6993  0.7296
  209MOL0     H27532  11.760   5.089   4.964  1.0739  0.7382  0.1331
  209MOL0     H27533  11.808   5.370   4.861  1.0614  0.1749  3.5481
  209MOL0     H27534  11.822   5.214   4.765  0.4116  1.0505 -0.4456
  209MOL0     H27535  12.034   5.325   4.812  0.0430  3.2245  2.2577
  209MOL0     H27536  12.032   5.160   4.890  1.2722  1.0046  1.9559
  209MOL0     H27537  12.003   5.429   5.032 -0.5723 -0.3960  1.1275
  209MOL0     H27538  11.994   5.265   5.109  0.4427 -2.3918 -1.7872
  209MOL0     H27539  12.225   5.289   4.947  1.1410 -0.9088  0.2847
  209MOL0     H27540  12.197   5.215   5.114  1.9240  2.7542  0.4089
  209MOL0     H27541  12.457   5.320   5.149  0.0340  0.6941  1.0202
  209MOL0     H27542  12.622   5.509   5.252 -0.7106  0.8790 -1.9449
  209MOL0     H27543  12.530   5.541   5.397 -0.5078  2.1817  0.0691
  209MOL0     H27544  12.476   5.771   5.346  2.5074  1.6192  1.6580
  209MOL0     H27545  12.556   5.754   5.184 -1.1620  0.0257  0.7516
  209MOL0     H27546  12.763   5.708   5.247 -1.8498 -1.5057  0.0584
  209MOL0     H27547  12.719   5.870   5.317  0.4327  0.4211  0.6778
  209MOL0     H27548  12.871   5.724   5.423 -1.3547 -1.4704 -0.3685
  209MOL0     H27549  12.746   5.604   5.457 -1.2697  0.7399 -0.1902
  209MOL0     H27550  12.711   5.983   5.725 -1.3526 -1.3617  0.3381
  209MOL0     H27551  12.861   6.068   5.851  0.2682  0.8453 -0.5021
  209MOL0     H27552  13.265   6.039   6.137 -3.0841  0.2984 -3.5947
  209MOL0     H27553  13.458   6.126   6.229  1.3063 -1.5730  0.1439
  209MOL0     H27554  13.628   6.314   6.234 -0.5908 -1.0814 -0.2345
  209MOL0     H27555  13.801   6.290   6.219  0.4215 -2.7501 -3.0511
  209MOL0     H27556  13.583   6.124   6.395  0.7398 -1.1279 -1.1088
  209MOL0     H27557  13.683   6.259   6.436  0.2377  1.6888 -1.9154
  209MOL0     H27558  13.745   6.033   6.526 -1.1588  1.5966  0.3319
  209MOL0     H27559  13.867   6.133   6.464 -0.2001 -1.0076  2.5918
  209MOL0     H27560  13.728   5.923   6.282  1.5923 -1.7257 -1.9308
  209MOL0     H27561  13.882   6.016   6.250 -1.8740  1.5920 -1.1897
  209MOL0     H27562  13.806   5.808   6.439  0.2252  0.3861  0.2691
  209MOL0     H27563  13.968   5.872   6.465  1.0127 -0.7027  0.0696
  209MOL0     H27564  14.044   5.800   6.242  1.6330 -0.7979  1.7625
  209MOL0     H27565  13.890   5.732   6.194  1.6464  0.2362 -1.3809
  209MOL0     H27566  14.059   5.670   6.432 -2.3629  1.1201 -0.3377
  209MOL0     H27567  13.945   5.551   6.376  0.9260 -0.9626  0.8760
  209MOL0     H27568  14.173   5.630   6.191 -0.5264  2.2887  3.6921
  209MOL0     H27569  14.034   5.516   6.155  1.6929 -0.2711 -0.5933
  209MOL0     H27570  13.683   6.017   5.895 -1.5675 -0.9248 -2.0871
  209MOL0     H27571  13.476   5.914   5.792  2.8774  1.2989 -0.9150
  209MOL0     H27572  13.119   5.719   5.772 -1.1631 -0.7624  2.0926
  209MOL0     H27573  12.937   5.627   5.633 -3.0554 -0.0137 -1.6529
  209MOL0     H27574  11.350   5.262   5.233  0.5232 -0.3664  0.4771
  209MOL0     H27575  11.245   5.219   5.467 -0.8513  0.9352 -0.9134
  209MOL0     H27576  11.152   5.037   5.927 -0.7316 -1.2726 -0.7290
  209MOL0     H27577  11.000   5.014   6.096 -0.7656 -0.3522  0.1931
  209MOL0     H27578  10.531   5.032   6.112  0.2809  1.9734  0.9635
  209MOL0     H27579  10.610   5.137   5.997  3.3469  3.6153 -0.1660
  209MOL0     H27580  10.779   5.214   6.178  0.8409 -1.4135  0.1652
  209MOL0     H27581  10.611   5.269   6.204  1.4435  1.1730 -1.5373
  209MOL0     H27582  10.723   5.032   6.367 -1.0060 -2.3305 -0.6439
  209MOL0     H27583  10.560   5.093   6.365 -0.0844 -1.9550  0.4740
  209MOL0     H27584  10.638   5.317   6.458 -0.8733 -1.0826  2.2662
  209MOL0     H27585  10.684   5.180   6.552  1.4161  2.6862  1.5335
  209MOL0     H27586  11.057   5.347   6.450 -0.0429 -0.6416  2.6422
  209MOL0     H27587  10.671   4.997   5.805 -1.1567  2.8399  0.9661
  209MOL0     H27588  10.820   5.013   5.633 -2.5841  2.3951  1.4651
  210MOL0     O27589   4.364   0.215   5.978 -0.4174  0.2393  0.2479
  210MOL0     C27590   4.344   0.276   6.084 -0.1672  0.1127  0.6146
  210MOL0     O27591   4.356   0.235   6.215  1.0028  1.2012 -0.7349
  210MOL0     C27592   4.391   0.103   6.233  0.2433  0.0869  0.1398
  210MOL0     C27593   4.299   0.005   6.268  0.1891 -0.2523 -0.3150
  210MOL0     C27594   4.345  -0.126   6.291  0.0316  0.4751  0.4555
  210MOL0     C27595   4.483  -0.162   6.292  1.2428 -0.9164 -0.0475
  210MOL0     O27596   4.513  -0.297   6.303 -0.3291  0.1900  0.0871
  210MOL0     C27597   4.633  -0.341   6.371  0.5921 -0.3203 -0.0609
  210MOL0     C27598   4.748  -0.362   6.273 -0.7626 -0.1839 -0.4713
  210MOL0     C27599   4.871  -0.414   6.345 -0.0102 -0.3661  0.2052
  210MOL0     C27600   4.948  -0.307   6.420 -0.9951  0.1201  0.4156
  210MOL0     C27601   5.081  -0.358   6.488 -0.4094  0.1410 -0.8477
  210MOL0     C27602   5.173  -0.411   6.368  0.1961  0.1409 -0.6315
  210MOL0     C27603   5.310  -0.428   6.432  0.5294  0.2644  0.9015
  210MOL0     C27604   5.332  -0.540   6.534 -0.5839  0.8892 -1.1081
  210MOL0     N27605   5.472  -0.551   6.581  0.1309 -0.4750  0.5822
  210MOL0     C27606   5.576  -0.598   6.517 -0.8012 -0.7011  0.3901
  210MOL0     C27607   5.685  -0.537   6.560 -0.5932  0.5070  0.3286
  210MOL0     C27608   5.828  -0.567   6.515  0.6537 -0.1327  0.1619
  210MOL0     C27609   5.922  -0.448   6.528  0.2003 -1.0212 -0.5836
  210MOL0     C27610   5.978  -0.435   6.675  0.3214 -0.6714  0.4136
  210MOL0     C27611   6.078  -0.322   6.675 -0.0118  0.7326 -0.2512
  210MOL0     O27612   6.195  -0.376   6.605  0.6070 -1.2183  0.7293
  210MOL0     C27613   6.303  -0.405   6.688 -0.6603 -0.2302 -0.5528
  210MOL0     C27614   6.396  -0.312   6.735  0.4408  0.9329  1.1054
  210MOL0     C27615   6.508  -0.367   6.797 -0.4071 -0.8724 -0.2414
  210MOL0     C27616   6.528  -0.497   6.836 -0.0939  1.2097  0.0418
  210MOL0     C27617   6.641  -0.545   6.910 -0.5526 -0.5994  0.1386
  210MOL0     O27618   6.751  -0.456   6.925 -0.4244  0.0332  0.2811
  210MOL0     C27619   6.864  -0.484   6.994  1.9284  0.7397  0.2053
  210MOL0     C27620   6.975  -0.427   6.945  0.5697 -0.6040 -0.9978
  210MOL0     C27621   7.103  -0.465   6.997  0.4392 -0.5704 -0.2862
  210MOL0     C27622   7.102  -0.551   7.103 -1.1624  0.6764 -0.7915
  210MOL0     O27623   7.225  -0.568   7.162  0.5539  0.2492  1.1480
  210MOL0     C27624   7.253  -0.706   7.201  0.4049 -0.2560  0.6844
  210MOL0     C27625   7.383  -0.759   7.157  0.0213  0.6593 -0.3583
  210MOL0     C27626   7.502  -0.688   7.208 -0.5488 -0.0963  0.5163
  210MOL0     C27627   7.606  -0.663   7.103 -0.6134 -0.1265 -0.2801
  210MOL0     C27628   7.720  -0.572   7.164 -0.4395 -0.1036  0.4306
  210MOL0     C27629   7.857  -0.624   7.148 -0.1793  1.7520 -0.5159
  210MOL0     C27630   7.980  -0.549   7.177 -0.4667  1.1064  0.1018
  210MOL0     C27631   8.071  -0.612   7.275 -0.6269 -0.6309 -1.7678
  210MOL0    Cl27632   8.122  -0.773   7.224  0.3393 -0.2071 -0.5329
  210MOL0     C27633   6.986  -0.604   7.156 -0.9010  0.3081  0.1016
  210MOL0     C27634   6.869  -0.580   7.099 -0.2985  0.6684  0.7063
  210MOL0     O27635   6.642  -0.656   6.950  0.2072  0.3598 -0.0335
  210MOL0     C27636   6.434  -0.581   6.772 -0.3350  0.0126 -0.1461
  210MOL0     C27637   6.326  -0.545   6.704 -0.0473 -0.0515  0.3311
  210MOL0     N27638   5.655  -0.462   6.666  0.7043 -0.5026 -0.1340
  210MOL0     N27639   5.525  -0.478   6.679  0.2458 -0.0457  0.2815
  210MOL0     C27640   4.573  -0.055   6.283 -0.0048  0.5032 -0.2523
  210MOL0     C27641   4.528   0.067   6.245  0.4991 -1.0916  0.1304
  210MOL0     C27642   4.290   0.406   6.048 -1.0249  0.5513  0.2248
  210MOL0     C27643   4.271   0.485   6.157 -1.1788 -0.4445 -0.1357
  210MOL0     C27644   4.232   0.619   6.139  0.0412  0.4539 -0.5700
  210MOL0     C27645   4.231   0.675   6.013  0.0173  0.2529  0.5501
  210MOL0     O27646   4.216   0.809   6.000 -0.6670 -0.4135  0.2964
  210MOL0     C27647   4.220   0.899   6.121 -0.4393 -0.0225 -0.1692
  210MOL0     C27648   4.175   1.034   6.072 -0.2012 -0.7460  1.0020
  210MOL0     C27649   4.166   1.131   6.193 -0.0649  0.9945  0.5100
  210MOL0     C27650   4.128   1.269   6.149  0.4829 -0.3173 -0.0746
  210MOL0     C27651   3.984   1.275   6.135  0.9585  0.5902  0.7485
  210MOL0     C27652   3.865   1.263   6.112  0.3785  1.2609 -0.8009
  210MOL0     C27653   4.256   0.591   5.903 -0.8009 -0.2436 -0.0113
  210MOL0     C27654   4.278   0.459   5.914 -0.1284 -0.5241 -0.5900
  210MOL0     H27655   4.194   0.029   6.260  0.8768  2.6028 -2.1448
  210MOL0     H27656   4.264  -0.198   6.300 -1.4264  1.8850 -0.7156
  210MOL0     H27657   4.610  -0.442   6.407 -1.7566  0.6556  1.3878
  210MOL0     H27658   4.662  -0.271   6.450 -1.5784  0.1230  0.3995
  210MOL0     H27659   4.760  -0.260   6.236 -1.6562  0.3031  0.5257
  210MOL0     H27660   4.727  -0.421   6.184  3.2699 -0.0170 -1.7468
  210MOL0     H27661   4.937  -0.438   6.262  0.1594  3.0038 -0.7750
  210MOL0     H27662   4.850  -0.497   6.413  0.3338  0.8019  1.7800
  210MOL0     H27663   4.967  -0.231   6.344 -1.1908 -0.8793 -0.6653
  210MOL0     H27664   4.889  -0.257   6.497 -2.1245  1.0121 -0.9878
  210MOL0     H27665   5.051  -0.433   6.562 -0.1589 -1.2225 -2.0711
  210MOL0     H27666   5.134  -0.276   6.536 -0.5452 -1.3548  2.0538
  210MOL0     H27667   5.171  -0.346   6.280 -4.8075  2.5065  0.8438
  210MOL0     H27668   5.128  -0.507   6.341 -3.0356  0.8642  1.5442
  210MOL0     H27669   5.382  -0.432   6.350  2.9010  2.3328  2.7435
  210MOL0     H27670   5.352  -0.338   6.477 -2.8763  3.4881 -1.7517
  210MOL0     H27671   5.295  -0.632   6.490  2.0367 -0.7557 -0.1264
  210MOL0     H27672   5.273  -0.512   6.622  0.3918 -3.0523  1.0059
  210MOL0     H27673   5.588  -0.667   6.433  0.7062  0.3584 -0.3185
  210MOL0     H27674   5.816  -0.595   6.410  0.9756 -0.1643  0.1331
  210MOL0     H27675   5.868  -0.655   6.566  2.3833  3.0442  4.9841
  210MOL0     H27676   5.867  -0.358   6.502 -1.0404 -1.7567 -0.6085
  210MOL0     H27677   6.012  -0.456   6.467  2.2648 -3.8348  2.4664
  210MOL0     H27678   5.897  -0.398   6.739 -0.0862  1.0762 -1.0330
  210MOL0     H27679   6.024  -0.531   6.702  3.3982  0.2785 -1.0054
  210MOL0     H27680   6.100  -0.296   6.779 -0.8712  0.2081  0.0736
  210MOL0     H27681   6.047  -0.230   6.625 -0.6435  0.8255  0.3061
  210MOL0     H27682   6.385  -0.205   6.723  0.3796  1.0271  1.9258
  210MOL0     H27683   6.580  -0.293   6.832 -0.4693 -0.5095 -0.8722
  210MOL0     H27684   6.958  -0.348   6.872 -0.4686  1.5388  1.4079
  210MOL0     H27685   7.194  -0.415   6.964 -0.2060  0.6014 -0.3780
  210MOL0     H27686   7.180  -0.782   7.173  0.2643 -1.1845  3.3071
  210MOL0     H27687   7.248  -0.693   7.310 -1.7316 -0.9262  0.7181
  210MOL0     H27688   7.391  -0.741   7.050 -0.2074 -1.6409 -0.8039
  210MOL0     H27689   7.381  -0.868   7.164  0.9772  0.5967 -0.9523
  210MOL0     H27690   7.547  -0.752   7.284 -2.4595  1.3045  2.9677
  210MOL0     H27691   7.465  -0.589   7.234  1.2259  0.6851  0.2329
  210MOL0     H27692   7.630  -0.764   7.069  0.3780 -0.3344  0.9574
  210MOL0     H27693   7.574  -0.616   7.010  1.4939  2.0003 -0.0227
  210MOL0     H27694   7.702  -0.530   7.264  0.3234  3.5210 -0.7945
  210MOL0     H27695   7.718  -0.478   7.108  2.0020 -0.0269  0.4010
  210MOL0     H27696   7.850  -0.646   7.041 -1.9959 -1.6183  0.1330
  210MOL0     H27697   7.852  -0.724   7.193  1.0165  1.7042 -0.4495
  210MOL0     H27698   8.043  -0.555   7.088 -1.2867 -2.4603 -0.3805
  210MOL0     H27699   7.952  -0.446   7.203 -1.6051  0.7889  0.2160
  210MOL0     H27700   8.020  -0.624   7.371 -1.4028 -1.1851 -2.2373
  210MOL0     H27701   8.155  -0.545   7.294 -1.8829  0.5414 -0.0347
  210MOL0     H27702   6.975  -0.662   7.247 -2.0791  0.4016  0.0312
  210MOL0     H27703   6.780  -0.622   7.143  0.2295 -1.1632  0.1375
  210MOL0     H27704   6.455  -0.687   6.771  0.2241 -0.0134 -4.4162
  210MOL0     H27705   6.247  -0.611   6.669  0.0694  0.3040 -0.6502
  210MOL0     H27706   4.678  -0.082   6.282 -0.6026 -2.4776  2.3366
  210MOL0     H27707   4.587   0.157   6.233 -0.5228 -0.4133  0.0716
  210MOL0     H27708   4.267   0.441   6.257  1.0261 -0.5113 -0.0232
  210MOL0     H27709   4.193   0.677   6.221 -1.0605  1.5377 -1.8107
  210MOL0     H27710   4.317   0.914   6.171 -1.4542  1.8174  1.3864
  210MOL0     H27711   4.152   0.867   6.200  0.3179 -2.5968 -0.4921
  210MOL0     H27712   4.251   1.074   6.004  0.7919  1.7240  3.3659
  210MOL0     H27713   4.078   1.043   6.022 -0.9311 -0.2458  2.4469
  210MOL0     H27714   4.264   1.143   6.239  0.8646  1.0531 -1.3778
  210MOL0     H27715   4.096   1.088   6.265  1.9637 -1.0062  1.3936
  210MOL0     H27716   4.160   1.345   6.222  4.6373 -0.8144 -1.1125
  210MOL0     H27717   4.181   1.299   6.058 -0.3652 -1.3094 -0.9169
  210MOL0     H27718   3.758   1.256   6.113  0.4277  0.3965  0.6982
  210MOL0     H27719   4.245   0.621   5.799 -2.6146 -1.8500 -0.3493
  210MOL0     H27720   4.282   0.400   5.823 -0.4585  0.4145 -1.2187
  211MOL0     O27721   2.896   0.394   9.129  0.1355  0.3320  0.0390
  211MOL0     C27722   2.871   0.432   9.242  0.5605  0.0992  0.3767
  211MOL0     O27723   2.743   0.475   9.285  0.7444  0.1993  0.0009
  211MOL0     C27724   2.646   0.464   9.177 -0.8671 -0.2547 -0.5725
  211MOL0     C27725   2.600   0.574   9.101 -0.0392  0.2032 -0.1719
  211MOL0     C27726   2.524   0.566   8.996 -0.0620 -0.0749  0.6606
  211MOL0     C27727   2.466   0.442   8.961  0.2857  0.7045 -1.4442
  211MOL0     O27728   2.371   0.451   8.863 -0.4899 -0.4517  0.1345
  211MOL0     C27729   2.266   0.353   8.856  0.8152 -0.4557  0.0207
  211MOL0     C27730   2.189   0.362   8.722 -0.0700 -0.6940 -0.0981
  211MOL0     C27731   2.180   0.502   8.663  0.0046 -0.4472  0.2010
  211MOL0     C27732   2.101   0.483   8.525  0.0865 -0.4730 -0.2233
  211MOL0     C27733   2.043   0.621   8.478  0.6639 -0.2790  0.2727
  211MOL0     C27734   2.153   0.735   8.459 -0.0339  0.1840  0.2805
  211MOL0     C27735   2.249   0.711   8.347 -0.6095 -0.5652 -0.5721
  211MOL0     C27736   2.209   0.617   8.238  0.4592 -0.0815 -0.9137
  211MOL0     N27737   2.295   0.640   8.118  0.0992 -0.6551  0.0730
  211MOL0     C27738   2.422   0.591   8.098 -0.9379 -0.1226  0.1045
  211MOL0     C27739   2.461   0.658   7.984  0.0436  0.1660 -0.1592
  211MOL0     C27740   2.593   0.649   7.906 -0.3045 -0.2762  0.8899
  211MOL0     C27741   2.608   0.541   7.796 -0.7837  0.3955  0.2424
  211MOL0     C27742   2.550   0.580   7.661 -1.1656 -0.0041  0.3368
  211MOL0     C27743   2.573   0.482   7.545 -0.0643  0.2329 -0.5227
  211MOL0     O27744   2.719   0.477   7.531 -0.0055  0.7287  0.6218
  211MOL0     C27745   2.766   0.388   7.432 -0.6930  0.0365  0.9180
  211MOL0     C27746   2.698   0.338   7.318 -0.8558 -0.2232 -0.2014
  211MOL0     C27747   2.760   0.256   7.219  0.0342  1.0773 -0.4647
  211MOL0     C27748   2.889   0.220   7.238 -0.4714  0.3376  0.5070
  211MOL0     C27749   2.954   0.144   7.132 -0.7960 -0.6797  0.4318
  211MOL0     O27750   2.893   0.145   7.010 -0.6607  1.6140 -0.2658
  211MOL0     C27751   2.955   0.102   6.904 -0.7437 -0.4211  0.3728
  211MOL0     C27752   3.015   0.186   6.815  0.8703 -0.1649  0.6462
  211MOL0     C27753   3.061   0.142   6.687  1.1447  0.2440  0.2691
  211MOL0     C27754   3.029   0.011   6.653 -0.2015  0.7738 -0.1477
  211MOL0     O27755   3.069  -0.045   6.532  0.1896  0.6461 -0.4975
  211MOL0     C27756   3.075   0.045   6.425  0.0224 -0.0895 -0.4335
  211MOL0     C27757   3.073  -0.038   6.298  0.3176  0.0952  0.4750
  211MOL0     C27758   3.214  -0.103   6.285  0.3338 -0.9778  0.7544
  211MOL0     C27759   3.222  -0.235   6.216  0.5743 -0.9857  0.0648
  211MOL0     C27760   3.352  -0.325   6.238  0.3744 -0.9120  0.2676
  211MOL0     C27761   3.332  -0.471   6.181 -0.3759 -0.3670 -0.2459
  211MOL0     C27762   3.470  -0.547   6.152  0.5217 -0.5100 -0.0580
  211MOL0     C27763   3.557  -0.536   6.273 -0.5486 -0.0495 -0.2748
  211MOL0    Cl27764   3.684  -0.659   6.233 -0.2949 -0.0545  0.0371
  211MOL0     C27765   2.984  -0.078   6.745 -0.4508  0.7901  0.0539
  211MOL0     C27766   2.942  -0.033   6.869 -0.0061 -0.1183 -0.4346
  211MOL0     O27767   3.062   0.093   7.149 -0.5286 -0.2215 -0.6203
  211MOL0     C27768   2.964   0.275   7.344  0.3525  0.9202  0.2001
  211MOL0     C27769   2.900   0.357   7.440  0.2048  0.6914  0.3292
  211MOL0     N27770   2.366   0.744   7.944 -0.0671  0.1746  0.0007
  211MOL0     N27771   2.275   0.743   8.034  0.3704  0.1093 -0.7643
  211MOL0     C27772   2.491   0.324   9.041  0.6365  0.6024  0.5972
  211MOL0     C27773   2.595   0.337   9.148  0.1157 -1.3156 -1.1046
  211MOL0     C27774   2.974   0.458   9.340 -0.0980  0.4983  0.3475
  211MOL0     C27775   2.947   0.538   9.451  0.2839  0.2093 -0.4310
  211MOL0     C27776   3.054   0.562   9.537  0.2853  0.1660  0.0893
  211MOL0     C27777   3.189   0.520   9.518  0.2699  1.4648 -0.1290
  211MOL0     O27778   3.295   0.537   9.598  0.2518 -0.6858  0.9881
  211MOL0     C27779   3.308   0.676   9.643 -0.0266 -0.5637  0.4360
  211MOL0     C27780   3.331   0.762   9.514 -1.0010 -0.3742 -0.1119
  211MOL0     C27781   3.491   0.765   9.475 -0.4174 -0.5644 -0.3823
  211MOL0     C27782   3.565   0.628   9.461  0.3374 -0.0622  0.1195
  211MOL0     C27783   3.558   0.587   9.323 -0.6911  0.0150  0.2613
  211MOL0     C27784   3.531   0.512   9.227 -0.2806 -0.5001 -0.5911
  211MOL0     C27785   3.212   0.430   9.419  0.2455  0.5837  0.3919
  211MOL0     C27786   3.111   0.407   9.321  0.2905  0.9166  0.4204
  211MOL0     H27787   2.632   0.676   9.122 -0.5542  0.3888 -0.2885
  211MOL0     H27788   2.488   0.646   8.933  0.1733 -0.7476 -0.3377
  211MOL0     H27789   2.204   0.358   8.946  1.9965 -2.4348  1.0122
  211MOL0     H27790   2.308   0.253   8.849  1.0765 -0.2204 -3.5759
  211MOL0     H27791   2.086   0.327   8.729 -0.6468  0.3105 -2.6188
  211MOL0     H27792   2.255   0.300   8.660  1.1916  0.4212  0.0617
  211MOL0     H27793   2.280   0.539   8.642 -0.9861  2.1447 -0.3392
  211MOL0     H27794   2.127   0.573   8.728 -3.1349 -1.6506 -0.8166
  211MOL0     H27795   2.167   0.436   8.452  0.2155 -0.9838  0.2139
  211MOL0     H27796   2.021   0.409   8.537 -0.0081 -0.0359  2.4147
  211MOL0     H27797   1.970   0.650   8.555  0.5474  0.4893 -0.1230
  211MOL0     H27798   1.982   0.614   8.388 -0.3519  0.9360  0.8294
  211MOL0     H27799   2.209   0.761   8.550  1.0885  0.3131 -0.4329
  211MOL0     H27800   2.099   0.828   8.440  2.0181  1.4525  0.3146
  211MOL0     H27801   2.290   0.804   8.306  1.9480 -1.6375 -0.6167
  211MOL0     H27802   2.344   0.677   8.390  0.7396  1.7043 -1.5437
  211MOL0     H27803   2.104   0.640   8.217  0.8035  4.6025  1.2141
  211MOL0     H27804   2.227   0.514   8.271  0.6537  0.1948 -0.1394
  211MOL0     H27805   2.476   0.514   8.152 -0.5704  0.7123  0.9608
  211MOL0     H27806   2.674   0.632   7.977 -0.2713 -1.3902  0.6020
  211MOL0     H27807   2.614   0.747   7.863  0.2296 -0.9307 -0.3786
  211MOL0     H27808   2.563   0.448   7.833 -1.8894  0.7392 -0.1862
  211MOL0     H27809   2.716   0.523   7.797 -0.8547 -0.0309  0.7786
  211MOL0     H27810   2.446   0.610   7.680  0.4406  3.9995  4.5516
  211MOL0     H27811   2.609   0.669   7.636  2.8054 -1.5876  3.0676
  211MOL0     H27812   2.518   0.518   7.457  0.0881 -4.2613 -2.7982
  211MOL0     H27813   2.528   0.389   7.582 -0.8718  1.7481  2.5906
  211MOL0     H27814   2.591   0.351   7.319 -0.8142  1.3637 -3.2995
  211MOL0     H27815   2.701   0.201   7.147 -1.5177  0.5398  1.1671
  211MOL0     H27816   3.002   0.292   6.838  0.4981 -0.3955  1.4961
  211MOL0     H27817   3.102   0.217   6.619  0.8677  0.8031  0.7133
  211MOL0     H27818   3.155   0.118   6.413 -0.7249  1.0517  1.1114
  211MOL0     H27819   2.984   0.106   6.422 -0.9039 -1.3202  1.0182
  211MOL0     H27820   3.050   0.030   6.215 -2.8291  0.1424  1.2448
  211MOL0     H27821   2.992  -0.111   6.307 -0.0058  0.6726  4.3579
  211MOL0     H27822   3.243  -0.108   6.390 -2.1052 -2.2691  1.4353
  211MOL0     H27823   3.271  -0.030   6.226  1.2108 -1.0241  1.5162
  211MOL0     H27824   3.134  -0.287   6.255 -1.3875  2.1351  0.1379
  211MOL0     H27825   3.211  -0.226   6.108  1.0992  1.0973  0.1300
  211MOL0     H27826   3.377  -0.334   6.344 -1.1837  0.4442  0.8025
  211MOL0     H27827   3.422  -0.273   6.172 -1.2226 -0.1126 -0.8735
  211MOL0     H27828   3.280  -0.477   6.085 -0.6667 -0.2504 -0.0958
  211MOL0     H27829   3.267  -0.506   6.262  2.2527  0.1535  2.2692
  211MOL0     H27830   3.455  -0.655   6.141 -0.7025 -0.3703  0.1246
  211MOL0     H27831   3.514  -0.509   6.059  2.3228 -1.3580  0.4075
  211MOL0     H27832   3.507  -0.554   6.369 -0.1347 -2.9394 -0.5242
  211MOL0     H27833   3.607  -0.438   6.274 -1.2660  0.3324 -0.9276
  211MOL0     H27834   2.982  -0.184   6.726 -0.5229  0.4162  1.9631
  211MOL0     H27835   2.906  -0.091   6.953 -0.3622  2.5098  1.3573
  211MOL0     H27836   3.072   0.273   7.356  0.1843  4.4672  4.8997
  211MOL0     H27837   2.958   0.418   7.509 -0.4705 -0.4505  1.9772
  211MOL0     H27838   2.438   0.238   9.001  0.6596  1.4970 -1.4758
  211MOL0     H27839   2.617   0.250   9.209  0.1747  1.6716  3.7297
  211MOL0     H27840   2.852   0.577   9.487  1.3489  1.8044  0.8320
  211MOL0     H27841   3.031   0.619   9.626 -0.3951 -1.6784  1.1529
  211MOL0     H27842   3.389   0.685   9.716 -0.5712  0.1840  0.9638
  211MOL0     H27843   3.213   0.709   9.687  0.1645  0.3526  0.1851
  211MOL0     H27844   3.270   0.729   9.430 -1.7717 -0.4214  0.4555
  211MOL0     H27845   3.300   0.866   9.529 -1.2253 -0.5706  0.8429
  211MOL0     H27846   3.546   0.813   9.556 -0.5976 -2.0191  0.6616
  211MOL0     H27847   3.494   0.824   9.383 -3.5059 -1.7227 -1.3601
  211MOL0     H27848   3.672   0.637   9.481  0.4687  0.2418 -0.6770
  211MOL0     H27849   3.529   0.550   9.529 -1.7066  0.1190 -0.6959
  211MOL0     H27850   3.516   0.451   9.140 -1.6927 -0.3452 -0.4729
  211MOL0     H27851   3.306   0.377   9.409  3.3780  5.8349 -3.3615
  211MOL0     H27852   3.123   0.338   9.238  0.5418  3.7375 -2.0575
  212MOL0     O27853   4.658   6.927   6.976  0.7697  0.0431  0.1224
  212MOL0     C27854   4.672   6.933   6.851 -0.2438  1.0263  0.1101
  212MOL0     O27855   4.581   6.886   6.762 -0.7483  0.0335  0.4938
  212MOL0     C27856   4.495   6.793   6.808 -0.0294  0.3679 -0.5141
  212MOL0     C27857   4.511   6.658   6.762  1.0167 -0.7097  0.5033
  212MOL0     C27858   4.405   6.567   6.805  0.3938 -0.7086 -0.0743
  212MOL0     C27859   4.296   6.598   6.878  0.2788 -0.7338 -0.3474
  212MOL0     O27860   4.196   6.521   6.907  0.3006 -0.4216  0.4567
  212MOL0     C27861   4.136   6.457   6.801  0.4107  0.1602  0.3360
  212MOL0     C27862   4.001   6.389   6.839  0.6455  0.1538 -0.3665
  212MOL0     C27863   3.919   6.316   6.719 -0.1702  0.4018 -1.2210
  212MOL0     C27864   3.953   6.366   6.581  0.2781  0.2127  0.7202
  212MOL0     C27865   3.886   6.275   6.473 -0.4927  0.7108  0.2154
  212MOL0     C27866   3.933   6.124   6.480 -0.2474 -0.6434  1.0960
  212MOL0     C27867   3.947   6.066   6.343  0.2569  0.1039  0.1843
  212MOL0     C27868   4.061   5.958   6.340  0.2708 -1.0143 -0.1063
  212MOL0     N27869   4.188   6.036   6.328 -0.7033  0.6461 -0.3452
  212MOL0     C27870   4.272   6.067   6.436  0.5566 -0.0751  0.9539
  212MOL0     C27871   4.371   6.144   6.382 -0.0406 -0.7290  0.2269
  212MOL0     C27872   4.488   6.187   6.462  0.7383 -0.4038 -0.9973
  212MOL0     C27873   4.502   6.332   6.488 -0.7417  0.0598  0.2138
  212MOL0     C27874   4.533   6.411   6.355  0.4545  0.4570  0.1010
  212MOL0     C27875   4.561   6.566   6.373  0.1335  1.2195 -0.8415
  212MOL0     O27876   4.466   6.659   6.436 -0.0973  0.3278 -0.6185
  212MOL0     C27877   4.339   6.671   6.383  0.0672  0.9395  0.3280
  212MOL0     C27878   4.322   6.652   6.250 -0.4742  0.3262 -0.3279
  212MOL0     C27879   4.188   6.647   6.193 -0.2163 -0.4552  0.3099
  212MOL0     C27880   4.077   6.675   6.274 -0.0033 -0.3011 -1.1760
  212MOL0     C27881   3.933   6.674   6.211 -0.4898  0.0831 -1.4687
  212MOL0     O27882   3.844   6.707   6.318  0.7518 -0.0357  0.5486
  212MOL0     C27883   3.711   6.702   6.275 -0.3545 -0.1470  0.6450
  212MOL0     C27884   3.643   6.586   6.287  1.0347 -0.9609 -1.2741
  212MOL0     C27885   3.516   6.569   6.247  0.1316  1.3757  0.1530
  212MOL0     C27886   3.458   6.680   6.175  0.2164 -0.3989  0.1594
  212MOL0     O27887   3.336   6.661   6.107  0.0784 -0.1609  0.5298
  212MOL0     C27888   3.274   6.774   6.053  0.5070  0.0235  1.2368
  212MOL0     C27889   3.172   6.730   5.944  1.0462  0.3172 -0.9328
  212MOL0     C27890   3.067   6.625   5.995  0.1022 -0.4086 -0.4456
  212MOL0     C27891   2.996   6.661   6.128  0.3197  0.4587  0.1350
  212MOL0     C27892   2.871   6.562   6.147 -0.3531  0.3977 -0.2912
  212MOL0     C27893   2.749   6.613   6.079  0.3107 -0.1640  0.0950
  212MOL0     C27894   2.608   6.546   6.118 -0.6525 -0.3439  0.4912
  212MOL0     C27895   2.497   6.601   6.029  0.5891 -0.5094 -0.2966
  212MOL0    Cl27896   2.502   6.774   6.074 -0.3190 -0.2481  0.3723
  212MOL0     C27897   3.524   6.808   6.180  0.3018  0.8066 -0.1496
  212MOL0     C27898   3.656   6.817   6.224  0.0206 -0.4570  0.2706
  212MOL0     O27899   3.912   6.660   6.093 -0.2667 -0.4502  0.5081
  212MOL0     C27900   4.107   6.710   6.408  0.5011  0.0136  0.7399
  212MOL0     C27901   4.230   6.709   6.462  0.2225  0.3372  0.2810
  212MOL0     N27902   4.348   6.165   6.248 -0.3806  0.7986  0.4141
  212MOL0     N27903   4.233   6.105   6.222 -0.1313 -1.9566 -0.1571
  212MOL0     C27904   4.293   6.728   6.930  0.1425 -0.9981 -0.0932
  212MOL0     C27905   4.385   6.825   6.889  0.3235  0.0792  0.0642
  212MOL0     C27906   4.783   7.025   6.805 -0.5431 -0.2536  0.4868
  212MOL0     C27907   4.862   7.103   6.894 -0.8558  0.0722  0.4708
  212MOL0     C27908   4.974   7.179   6.848 -0.5733  0.8694 -1.1367
  212MOL0     C27909   5.003   7.183   6.714  1.0008  0.5310 -0.0168
  212MOL0     O27910   5.114   7.255   6.668  0.8128  0.0511  0.1702
  212MOL0     C27911   5.163   7.249   6.537 -0.4574  0.0160 -0.2843
  212MOL0     C27912   5.296   7.316   6.528 -0.7384 -0.0650 -0.5252
  212MOL0     C27913   5.282   7.456   6.569  0.0584 -0.1573 -0.1945
  212MOL0     C27914   5.404   7.552   6.571 -0.2842 -0.2759 -0.0582
  212MOL0     C27915   5.495   7.522   6.682  0.3627  0.1885 -0.3183
  212MOL0     C27916   5.559   7.489   6.781 -0.3431  0.0733 -0.6429
  212MOL0     C27917   4.916   7.126   6.614  0.2117 -0.1826 -0.3778
  212MOL0     C27918   4.806   7.041   6.658 -0.4916 -0.1333 -0.3951
  212MOL0     H27919   4.601   6.641   6.704  0.1161 -0.4434 -1.0338
  212MOL0     H27920   4.410   6.472   6.753 -0.9347 -0.6165 -0.4209
  212MOL0     H27921   4.197   6.379   6.755 -1.5443 -1.7480  0.7929
  212MOL0     H27922   4.121   6.524   6.717  0.5391 -0.5771 -0.2868
  212MOL0     H27923   3.930   6.466   6.872  0.4843 -0.0929 -0.1369
  212MOL0     H27924   4.013   6.316   6.920 -0.3773  0.8760  0.4698
  212MOL0     H27925   3.812   6.315   6.741  0.1543 -0.0807  0.5033
  212MOL0     H27926   3.949   6.211   6.725 -2.4402 -0.2330  0.9599
  212MOL0     H27927   3.904   6.463   6.566 -1.2273 -0.2359  2.3734
  212MOL0     H27928   4.060   6.378   6.562 -0.0660  0.5124 -1.2621
  212MOL0     H27929   3.905   6.327   6.379 -2.8814  2.8985  0.8224
  212MOL0     H27930   3.777   6.283   6.473 -0.6575 -1.0144  1.2121
  212MOL0     H27931   3.854   6.069   6.532  0.8103  0.5760  4.2210
  212MOL0     H27932   4.021   6.110   6.544  0.8642  0.2824 -0.1805
  212MOL0     H27933   3.852   6.020   6.315  0.3866  0.4177 -0.7767
  212MOL0     H27934   3.966   6.144   6.269 -1.2405 -0.9170 -1.3613
  212MOL0     H27935   4.041   5.898   6.251  3.0375 -0.3683 -1.2701
  212MOL0     H27936   4.055   5.896   6.430 -0.5358  1.7075  1.8384
  212MOL0     H27937   4.269   6.028   6.537 -0.1125 -2.8954 -0.0751
  212MOL0     H27938   4.578   6.154   6.410  1.1905  1.9137 -1.8105
  212MOL0     H27939   4.492   6.135   6.558  0.3422  0.1213 -0.6919
  212MOL0     H27940   4.577   6.361   6.562  1.7390 -2.3411 -1.1490
  212MOL0     H27941   4.407   6.367   6.529  0.4802 -0.4453  3.8609
  212MOL0     H27942   4.616   6.374   6.294 -0.7046  1.5482 -2.2734
  212MOL0     H27943   4.445   6.399   6.291 -2.0827  0.5947  3.3079
  212MOL0     H27944   4.595   6.608   6.278  0.4883 -2.2440 -2.3889
  212MOL0     H27945   4.649   6.574   6.437 -1.1030  0.6624  1.0044
  212MOL0     H27946   4.401   6.647   6.176  2.0571  2.4839  1.9969
  212MOL0     H27947   4.163   6.614   6.093 -0.8856  1.0022 -0.0384
  212MOL0     H27948   3.701   6.504   6.328  0.8965 -1.5818 -2.2800
  212MOL0     H27949   3.472   6.471   6.261  1.7622  0.6380  0.3728
  212MOL0     H27950   3.341   6.830   5.987 -0.1248 -1.5637 -0.8742
  212MOL0     H27951   3.228   6.835   6.131  2.5573 -0.9581  3.3375
  212MOL0     H27952   3.230   6.672   5.872 -0.2117  0.2721 -1.9467
  212MOL0     H27953   3.117   6.811   5.895 -0.0064  0.8134  0.9720
  212MOL0     H27954   3.116   6.529   6.012  0.0675 -0.0403  1.9962
  212MOL0     H27955   2.990   6.614   5.918 -4.9520 -0.3773  4.0443
  212MOL0     H27956   3.062   6.642   6.212  2.9626 -0.8175 -2.0580
  212MOL0     H27957   2.966   6.765   6.113 -0.8659  0.4362  2.0348
  212MOL0     H27958   2.848   6.546   6.253 -0.4469 -2.3826 -0.6536
  212MOL0     H27959   2.904   6.465   6.108  1.9494  0.3213  1.6666
  212MOL0     H27960   2.757   6.624   5.971 -1.6909  1.9906  0.0658
  212MOL0     H27961   2.746   6.714   6.121 -3.0023 -1.5389  3.8922
  212MOL0     H27962   2.607   6.437   6.115  0.9659 -0.3972  0.8534
  212MOL0     H27963   2.589   6.578   6.220  3.0694  1.6279  0.7714
  212MOL0     H27964   2.398   6.562   6.055  1.5478 -1.2900  2.6252
  212MOL0     H27965   2.517   6.600   5.921 -1.1637  1.1576 -0.6726
  212MOL0     H27966   3.489   6.898   6.130 -0.8022  1.9850  2.5269
  212MOL0     H27967   3.705   6.914   6.219 -3.5110  1.4745 -0.8522
  212MOL0     H27968   4.036   6.736   6.486  2.6358  0.3587  2.6935
  212MOL0     H27969   4.235   6.739   6.566  0.5997 -0.4084  0.4813
  212MOL0     H27970   4.210   6.760   6.993  0.2651 -1.9971  0.6031
  212MOL0     H27971   4.364   6.929   6.912 -1.0435 -0.5028  1.6677
  212MOL0     H27972   4.852   7.100   7.002  1.1155  1.3804  0.7464
  212MOL0     H27973   5.039   7.234   6.914 -3.7257  0.0736  3.0104
  212MOL0     H27974   5.093   7.312   6.481  0.2489  0.4077 -0.7301
  212MOL0     H27975   5.182   7.146   6.505  1.3781 -0.1567  1.1883
  212MOL0     H27976   5.351   7.257   6.602  1.6471 -1.9442 -3.5506
  212MOL0     H27977   5.341   7.310   6.428  0.8221  1.5815  0.0076
  212MOL0     H27978   5.238   7.461   6.668 -2.6125  2.7921 -1.3435
  212MOL0     H27979   5.206   7.495   6.500 -2.8837 -1.8778  1.8524
  212MOL0     H27980   5.463   7.552   6.479  0.4727  1.9964  0.3550
  212MOL0     H27981   5.374   7.656   6.588 -2.6701 -1.2203  2.1268
  212MOL0     H27982   5.596   7.435   6.866 -1.3853  1.4100  0.7261
  212MOL0     H27983   4.917   7.130   6.506  3.9847 -1.4007 -0.5397
  212MOL0     H27984   4.743   6.988   6.588 -2.4872  1.3141  0.2039
  213MOL0     O27985   1.592   8.597   5.224  0.3641 -0.2001  0.1039
  213MOL0     C27986   1.631   8.670   5.128  0.6063  0.6133  0.5256
  213MOL0     O27987   1.738   8.641   5.055 -0.4496 -0.1814  0.5382
  213MOL0     C27988   1.836   8.551   5.105  1.1461 -0.7585  0.4382
  213MOL0     C27989   1.807   8.418   5.103  0.0948  0.1904 -0.7293
  213MOL0     C27990   1.903   8.329   5.167  0.4927  0.6202  0.5327
  213MOL0     C27991   2.027   8.382   5.210 -0.0408  0.0213 -1.0518
  213MOL0     O27992   2.117   8.300   5.267 -0.2221 -0.0308  0.2599
  213MOL0     C27993   2.080   8.266   5.401  0.3877  0.8720  0.2232
  213MOL0     C27994   2.127   8.123   5.424 -0.1979 -0.4172  0.6406
  213MOL0     C27995   2.049   8.020   5.347 -0.3390  0.3508 -0.3327
  213MOL0     C27996   2.084   7.878   5.413 -0.3171  0.8339 -0.4842
  213MOL0     C27997   2.005   7.774   5.341  0.8200 -0.4158 -0.6225
  213MOL0     C27998   2.017   7.643   5.418  0.1739  0.3043  0.3157
  213MOL0     C27999   2.012   7.524   5.320 -0.3561  0.4995 -0.2767
  213MOL0     C28000   1.869   7.497   5.266  0.0052  1.0297  0.2052
  213MOL0     N28001   1.887   7.387   5.160 -0.5958 -0.5996 -0.3192
  213MOL0     C28002   1.875   7.250   5.181  0.2874 -0.2543  0.8559
  213MOL0     C28003   1.882   7.193   5.056  0.0070 -0.1059  0.5641
  213MOL0     C28004   1.878   7.038   5.040 -0.4015 -0.1305 -0.1363
  213MOL0     C28005   1.818   6.996   4.910 -0.2146  0.0905  0.0749
  213MOL0     C28006   1.794   6.843   4.907 -0.4900 -0.0787 -0.1935
  213MOL0     C28007   1.669   6.777   4.964 -0.0280 -0.1160 -0.8423
  213MOL0     O28008   1.681   6.634   4.982 -0.2585  0.0372 -0.4535
  213MOL0     C28009   1.591   6.557   4.910  1.2445 -0.4142 -0.1338
  213MOL0     C28010   1.619   6.487   4.788 -0.5972 -0.0814  0.1430
  213MOL0     C28011   1.534   6.378   4.752  0.0416 -0.0041  0.4317
  213MOL0     C28012   1.412   6.351   4.812 -0.8476  0.5252 -0.5949
  213MOL0     C28013   1.320   6.256   4.756  0.6256 -0.0055  0.0175
  213MOL0     O28014   1.179   6.278   4.757  0.0901 -0.2580  0.1358
  213MOL0     C28015   1.093   6.214   4.671 -0.3258 -0.4295  0.3094
  213MOL0     C28016   1.123   6.140   4.558  0.1762 -0.7856 -0.2712
  213MOL0     C28017   1.027   6.077   4.479 -0.7034 -0.4110 -0.0176
  213MOL0     C28018   0.888   6.117   4.491 -0.4173  0.3325  0.1428
  213MOL0     O28019   0.800   6.039   4.415 -0.4371 -0.5939 -0.6667
  213MOL0     C28020   0.656   6.077   4.429  0.6003 -0.5257  0.2531
  213MOL0     C28021   0.576   6.006   4.317 -0.1337 -0.3185  0.4409
  213MOL0     C28022   0.423   6.003   4.326  0.3567 -0.1592  0.1074
  213MOL0     C28023   0.369   5.927   4.448  0.3406 -0.3621  0.0178
  213MOL0     C28024   0.227   5.892   4.424 -0.4461 -0.1885  0.9050
  213MOL0     C28025   0.156   5.808   4.547  1.8944 -0.1245  0.5277
  213MOL0     C28026   0.121   5.901   4.666 -0.3424  0.6786 -0.2619
  213MOL0     C28027  -0.009   5.977   4.634  0.4468  0.0165 -0.2198
  213MOL0    Cl28028  -0.043   6.108   4.754  0.4852 -0.1160 -0.2161
  213MOL0     C28029   0.856   6.209   4.601  0.6731 -0.5614  0.5750
  213MOL0     C28030   0.960   6.242   4.689  0.6688 -0.2786  0.4432
  213MOL0     O28031   1.373   6.167   4.693 -0.0080 -0.1616  0.2398
  213MOL0     C28032   1.380   6.425   4.927 -0.1475  0.0630 -0.0699
  213MOL0     C28033   1.463   6.524   4.968 -0.6109  0.2302 -0.9164
  213MOL0     N28034   1.890   7.293   4.961  0.3738 -0.0075  0.8095
  213MOL0     N28035   1.892   7.409   5.025  0.5829 -0.2011 -0.2359
  213MOL0     C28036   2.052   8.522   5.197  0.2693  0.4365  0.4277
  213MOL0     C28037   1.955   8.602   5.136 -1.7990  0.4630 -0.2838
  213MOL0     C28038   1.547   8.778   5.079 -0.6136 -0.0700  0.4121
  213MOL0     C28039   1.595   8.865   4.978  0.1163 -0.1549  0.0946
  213MOL0     C28040   1.520   8.976   4.945  0.8293  0.0888  0.5828
  213MOL0     C28041   1.385   8.993   4.990 -0.5075 -0.0986  0.0692
  213MOL0     O28042   1.306   9.094   4.936  0.4454  0.2248 -0.2158
  213MOL0     C28043   1.245   9.190   5.036 -1.0391  1.0741  1.4987
  213MOL0     C28044   1.348   9.254   5.127  0.0662  0.1998  0.4889
  213MOL0     C28045   1.434   9.346   5.044 -1.0723  0.1532  0.3910
  213MOL0     C28046   1.478   9.478   5.119 -0.2328 -0.3159  0.3715
  213MOL0     C28047   1.581   9.461   5.218 -0.4579 -0.5109  1.0604
  213MOL0     C28048   1.684   9.419   5.269  0.5954 -0.4319  0.4375
  213MOL0     C28049   1.332   8.896   5.080 -0.0257  0.6975 -0.0456
  213MOL0     C28050   1.421   8.798   5.132  0.1807  0.4101 -0.9154
  213MOL0     H28051   1.710   8.379   5.075 -1.0934 -0.4418  3.5526
  213MOL0     H28052   1.884   8.223   5.180 -0.1887  0.9688  2.9709
  213MOL0     H28053   1.971   8.263   5.413  0.3049 -2.5150 -0.3340
  213MOL0     H28054   2.120   8.336   5.474  2.2429  1.1297 -0.9806
  213MOL0     H28055   2.105   8.111   5.530  0.4779 -0.5016  0.7763
  213MOL0     H28056   2.233   8.120   5.393 -0.9155  0.6822 -2.2841
  213MOL0     H28057   2.077   8.033   5.242  2.4049 -0.8658  0.1644
  213MOL0     H28058   1.941   8.034   5.358 -0.4459 -0.5657 -0.0924
  213MOL0     H28059   2.190   7.856   5.398 -0.6527 -3.4636  1.8744
  213MOL0     H28060   2.059   7.873   5.519 -0.4773 -2.7838 -0.5687
  213MOL0     H28061   2.047   7.766   5.240  1.0907  1.4911 -0.6978
  213MOL0     H28062   1.899   7.800   5.347  0.6021 -1.5312  0.7750
  213MOL0     H28063   1.950   7.639   5.504  2.9843  1.6576  2.7336
  213MOL0     H28064   2.112   7.627   5.470  0.7825  1.6094 -0.3558
  213MOL0     H28065   2.089   7.526   5.243 -0.7351 -3.4361 -0.9771
  213MOL0     H28066   2.034   7.429   5.370 -0.9137  1.5913  2.2060
  213MOL0     H28067   1.816   7.584   5.226 -1.5870 -0.5306 -1.2534
  213MOL0     H28068   1.805   7.459   5.346  2.3519  1.7491  2.5629
  213MOL0     H28069   1.872   7.184   5.267  2.5873  1.0546  2.0394
  213MOL0     H28070   1.815   6.998   5.120 -0.2106 -2.9053 -1.2645
  213MOL0     H28071   1.979   7.001   5.058 -1.3747 -2.3149  1.2472
  213MOL0     H28072   1.891   7.025   4.833  1.6393 -0.1599  1.6600
  213MOL0     H28073   1.722   7.047   4.897  1.0566  2.9638  0.9691
  213MOL0     H28074   1.780   6.834   4.799 -5.4105  1.9987 -0.0003
  213MOL0     H28075   1.893   6.802   4.928 -0.7197 -0.6256 -0.1360
  213MOL0     H28076   1.589   6.802   4.893 -0.2851  1.2734 -0.0886
  213MOL0     H28077   1.627   6.826   5.052 -3.9081 -2.6716 -1.0108
  213MOL0     H28078   1.709   6.504   4.730 -0.3826  1.1835  0.8246
  213MOL0     H28079   1.573   6.315   4.673 -4.8331 -3.0289  0.0447
  213MOL0     H28080   1.220   6.096   4.535  1.1829  1.2269 -0.1182
  213MOL0     H28081   1.060   6.011   4.399 -0.5837 -0.6449  0.2230
  213MOL0     H28082   0.634   6.183   4.417  0.4049 -0.8583 -3.8048
  213MOL0     H28083   0.615   6.046   4.526 -1.0444 -0.3853 -0.3677
  213MOL0     H28084   0.602   5.900   4.319 -0.3873 -0.4381 -1.0151
  213MOL0     H28085   0.607   6.047   4.220 -1.7183 -2.3981 -1.0248
  213MOL0     H28086   0.387   5.955   4.234 -1.0909 -1.8443  1.4749
  213MOL0     H28087   0.379   6.103   4.323  4.2148  1.7831  1.4541
  213MOL0     H28088   0.422   5.833   4.466  0.6162 -0.0875  0.6673
  213MOL0     H28089   0.380   5.990   4.537  0.9901  0.6015 -0.7285
  213MOL0     H28090   0.222   5.840   4.328 -1.3550 -0.7621  1.2501
  213MOL0     H28091   0.175   5.988   4.414  2.5727  1.4864  0.0601
  213MOL0     H28092   0.207   5.718   4.584 -0.3308 -1.8390 -0.3443
  213MOL0     H28093   0.061   5.766   4.514  1.7462  0.7361 -0.1751
  213MOL0     H28094   0.109   5.840   4.755 -0.3466 -0.4984 -1.0541
  213MOL0     H28095   0.196   5.978   4.688 -1.4879  1.8086 -0.1947
  213MOL0     H28096  -0.086   5.899   4.639  0.6556 -0.0861  2.2592
  213MOL0     H28097  -0.011   6.015   4.531  1.9922  0.1027 -0.2344
  213MOL0     H28098   0.753   6.237   4.624  1.8083  1.2330  4.2261
  213MOL0     H28099   0.923   6.299   4.773 -0.8995  0.5492 -0.7510
  213MOL0     H28100   1.285   6.421   4.978  0.2461  1.1570  0.7869
  213MOL0     H28101   1.449   6.578   5.061  0.4293  0.9213 -1.1368
  213MOL0     H28102   2.143   8.573   5.225  0.0404  1.1295 -0.0715
  213MOL0     H28103   1.985   8.706   5.134  1.8372 -0.4555  0.4301
  213MOL0     H28104   1.689   8.851   4.927 -0.6536  0.7678 -1.6736
  213MOL0     H28105   1.566   9.042   4.871 -0.3896 -1.9893 -2.2160
  213MOL0     H28106   1.184   9.125   5.099 -1.9429  2.6187  2.2770
  213MOL0     H28107   1.186   9.267   4.985 -1.5914  1.2804  2.4163
  213MOL0     H28108   1.316   9.301   5.220  1.9765 -0.0984  1.3592
  213MOL0     H28109   1.419   9.176   5.155  3.2223  2.0703 -1.6475
  213MOL0     H28110   1.395   9.383   4.949  0.5529  0.6683 -0.1121
  213MOL0     H28111   1.533   9.306   5.019 -0.8158  0.8589  0.2760
  213MOL0     H28112   1.517   9.551   5.048  1.4375  0.1655  1.7109
  213MOL0     H28113   1.385   9.511   5.168 -1.5385 -0.3301 -1.9624
  213MOL0     H28114   1.767   9.391   5.330 -0.9015 -0.2674  2.6399
  213MOL0     H28115   1.227   8.903   5.107  0.6002 -0.9045  3.4229
  213MOL0     H28116   1.396   8.725   5.208  2.5991  1.9564  1.5305
  214MOL0     O28117   8.197   1.004   8.308  0.2190 -0.5492  0.7003
  214MOL0     C28118   8.222   1.037   8.421  1.0993  0.8039 -0.8396
  214MOL0     O28119   8.336   1.094   8.464  1.0518 -0.7290  0.3848
  214MOL0     C28120   8.455   1.108   8.391  0.7673  0.4158 -0.5397
  214MOL0     C28121   8.476   1.207   8.294  0.4082  0.0038 -0.3505
  214MOL0     C28122   8.597   1.216   8.224 -0.2613 -0.3207  0.5306
  214MOL0     C28123   8.707   1.131   8.239  0.3157 -1.3339 -1.2334
  214MOL0     O28124   8.821   1.145   8.173 -0.3251  0.1464  0.3704
  214MOL0     C28125   8.924   1.054   8.196  1.0864 -0.3872 -0.6819
  214MOL0     C28126   8.998   1.040   8.068 -0.9330  0.0676  0.2981
  214MOL0     C28127   9.098   0.917   8.102  0.6497  0.1835 -0.7198
  214MOL0     C28128   9.183   0.858   7.983 -0.1664 -1.0261  0.0534
  214MOL0     C28129   9.252   0.969   7.898  0.0461  0.5720 -0.8915
  214MOL0     C28130   9.388   1.003   7.962 -0.3792  0.1646  1.3055
  214MOL0     C28131   9.464   1.094   7.863 -0.2680 -1.1675  0.6249
  214MOL0     C28132   9.575   1.158   7.934  0.4537  0.1481 -0.6024
  214MOL0     N28133   9.663   1.066   7.999 -0.7888  1.0085 -0.5304
  214MOL0     C28134   9.654   0.998   8.117  0.3255  0.1822 -0.1158
  214MOL0     C28135   9.754   0.910   8.121  0.9710  0.0287 -0.3680
  214MOL0     C28136   9.772   0.805   8.221 -0.2049  0.4430 -0.2689
  214MOL0     C28137   9.779   0.666   8.149 -0.1090  0.5226  0.0972
  214MOL0     C28138   9.635   0.635   8.094  0.8328  0.3507 -0.0002
  214MOL0     C28139   9.553   0.578   8.214 -0.3226  1.6643 -0.1503
  214MOL0     O28140   9.423   0.541   8.162  0.2770 -0.4604 -0.9229
  214MOL0     C28141   9.322   0.507   8.245  0.1485  0.6407 -0.6004
  214MOL0     C28142   9.188   0.503   8.192 -0.8205 -0.2238 -0.5704
  214MOL0     C28143   9.074   0.454   8.255 -0.3657  0.0069  0.1089
  214MOL0     C28144   9.102   0.405   8.382  0.1552  0.0644 -1.0899
  214MOL0     C28145   8.991   0.342   8.452  0.1514  0.5608  0.2167
  214MOL0     O28146   8.883   0.289   8.373  0.1290 -0.0892 -0.4840
  214MOL0     C28147   8.785   0.217   8.431  0.7748  1.0101 -0.1179
  214MOL0     C28148   8.678   0.284   8.499 -0.4090 -0.3050  0.3579
  214MOL0     C28149   8.574   0.212   8.565 -1.2419  0.5148 -0.2511
  214MOL0     C28150   8.570   0.072   8.569 -0.2056  0.2537 -0.5940
  214MOL0     O28151   8.465   0.016   8.630  0.6678 -0.5336 -0.1618
  214MOL0     C28152   8.455  -0.130   8.658  0.0860 -0.6937 -0.0544
  214MOL0     C28153   8.363  -0.137   8.781  0.1175 -0.0326 -0.1350
  214MOL0     C28154   8.216  -0.086   8.763  0.2885  0.2896  0.2370
  214MOL0     C28155   8.143  -0.105   8.890 -0.3247 -0.1664 -0.5047
  214MOL0     C28156   7.999  -0.066   8.880 -0.7921  0.4857 -1.0207
  214MOL0     C28157   7.912  -0.173   8.828 -0.4808  0.7043 -0.2501
  214MOL0     C28158   7.765  -0.131   8.853 -0.4736 -0.4568 -0.6109
  214MOL0     C28159   7.672  -0.248   8.846  0.0105  0.4830  0.1057
  214MOL0    Cl28160   7.677  -0.323   8.682  0.2791 -0.1972 -0.0539
  214MOL0     C28161   8.681   0.010   8.501  0.4126 -0.0293  0.2550
  214MOL0     C28162   8.787   0.081   8.438  0.2667 -0.6179  0.9954
  214MOL0     O28163   8.992   0.352   8.575 -0.0595  0.1208  0.1092
  214MOL0     C28164   9.222   0.408   8.449  0.3778  0.5679  0.8478
  214MOL0     C28165   9.338   0.467   8.380  0.3268  0.6007  0.1465
  214MOL0     N28166   9.822   0.918   8.005  0.0653  0.0797  0.8501
  214MOL0     N28167   9.767   1.007   7.933  0.0231  0.8782  0.7714
  214MOL0     C28168   8.683   1.028   8.336  0.2273  0.0856 -0.2398
  214MOL0     C28169   8.562   1.024   8.413  0.1107  1.1160  0.5969
  214MOL0     C28170   8.108   1.006   8.519 -0.7501  1.1547 -0.0673
  214MOL0     C28171   8.128   1.034   8.656  0.6052 -0.0993  0.1579
  214MOL0     C28172   8.036   0.987   8.749  0.8006  0.0340 -0.1604
  214MOL0     C28173   7.932   0.902   8.707  0.3502  0.0703 -0.7923
  214MOL0     O28174   7.840   0.841   8.790 -0.4455  0.6718 -0.0138
  214MOL0     C28175   7.842   0.855   8.932 -0.0595  0.8126  0.3897
  214MOL0     C28176   7.752   0.751   8.980 -0.2155  1.0973 -0.4792
  214MOL0     C28177   7.728   0.774   9.131 -0.0098 -0.0631  0.0580
  214MOL0     C28178   7.718   0.642   9.207 -0.8844  1.0775  0.5863
  214MOL0     C28179   7.699   0.661   9.354 -0.1612 -0.1515 -0.1490
  214MOL0     C28180   7.663   0.669   9.462 -0.7210 -0.0568 -0.9021
  214MOL0     C28181   7.911   0.872   8.576 -0.4008 -0.2748  0.5116
  214MOL0     C28182   7.999   0.935   8.486 -0.1923 -0.7396  0.4027
  214MOL0     H28183   8.397   1.280   8.277  0.8459  0.6632  0.3562
  214MOL0     H28184   8.602   1.303   8.160 -1.4840 -0.3827  0.3327
  214MOL0     H28185   8.885   0.958   8.231 -2.0901  1.7928  2.3995
  214MOL0     H28186   8.979   1.090   8.284  2.8107 -1.8494 -1.1021
  214MOL0     H28187   9.048   1.136   8.050 -1.6626  0.4390  0.2156
  214MOL0     H28188   8.938   1.020   7.979 -1.2684  1.0104  0.2993
  214MOL0     H28189   9.034   0.831   8.124  1.9624  0.0900  3.6131
  214MOL0     H28190   9.172   0.934   8.181 -1.9088  0.8229  1.6683
  214MOL0     H28191   9.260   0.785   8.012 -0.8002 -0.8340  2.4489
  214MOL0     H28192   9.109   0.805   7.922 -0.9981 -0.5170  0.5888
  214MOL0     H28193   9.183   1.053   7.897 -1.2785 -0.3444  1.9156
  214MOL0     H28194   9.266   0.928   7.798 -0.1226 -2.6843  0.2790
  214MOL0     H28195   9.448   0.915   7.987 -0.3306 -0.7193 -1.5207
  214MOL0     H28196   9.371   1.067   8.048 -3.1102  2.0185 -0.4514
  214MOL0     H28197   9.505   1.019   7.796 -1.4724 -1.3924  0.1163
  214MOL0     H28198   9.399   1.166   7.812  0.8916 -1.9834 -2.1976
  214MOL0     H28199   9.548   1.224   8.017 -0.3805 -2.9452  1.8053
  214MOL0     H28200   9.625   1.219   7.859  1.5236 -1.0739 -0.9224
  214MOL0     H28201   9.581   1.024   8.193  0.0937 -0.3989 -0.1365
  214MOL0     H28202   9.696   0.805   8.300  0.2919  1.9560  0.2458
  214MOL0     H28203   9.867   0.823   8.272 -0.2661 -1.7749  0.7517
  214MOL0     H28204   9.802   0.584   8.218  1.9845  0.2291 -0.8651
  214MOL0     H28205   9.858   0.651   8.074 -2.1826 -1.4065 -1.8529
  214MOL0     H28206   9.579   0.724   8.066 -1.3100 -0.0757  2.5201
  214MOL0     H28207   9.640   0.572   8.005 -0.0976  1.2391 -0.7079
  214MOL0     H28208   9.539   0.652   8.294 -0.4622  0.6388  0.7847
  214MOL0     H28209   9.593   0.487   8.259 -0.4145  1.0369 -1.2995
  214MOL0     H28210   9.180   0.539   8.090 -1.0478  1.0829 -0.1068
  214MOL0     H28211   8.976   0.454   8.208  0.5931  0.4514 -2.0034
  214MOL0     H28212   8.681   0.392   8.509  3.5916 -0.0266 -1.6527
  214MOL0     H28213   8.505   0.281   8.614 -0.2709  2.7551 -1.8583
  214MOL0     H28214   8.552  -0.176   8.681 -0.2857 -2.3688 -1.6117
  214MOL0     H28215   8.412  -0.167   8.565  0.0556 -1.4783  0.2685
  214MOL0     H28216   8.407  -0.075   8.859 -0.6727 -0.8889  1.0096
  214MOL0     H28217   8.372  -0.238   8.821 -0.5262 -0.0696 -0.0729
  214MOL0     H28218   8.167  -0.150   8.689 -0.8357  2.5211 -1.0730
  214MOL0     H28219   8.199   0.020   8.739  2.4161  0.1426 -2.4937
  214MOL0     H28220   8.157  -0.200   8.943  0.5168  0.1731 -0.1028
  214MOL0     H28221   8.189  -0.036   8.962 -1.1152 -0.0913 -0.0612
  214MOL0     H28222   7.980   0.032   8.835  0.4335  1.9743  1.4753
  214MOL0     H28223   7.962  -0.047   8.982  0.1331  0.4707 -0.6726
  214MOL0     H28224   7.926  -0.262   8.890 -0.3966  0.3539 -0.7628
  214MOL0     H28225   7.936  -0.200   8.725  1.8148  0.7777  0.2270
  214MOL0     H28226   7.750  -0.087   8.951 -1.7294 -4.0392  0.9856
  214MOL0     H28227   7.733  -0.062   8.774  1.0730  1.7158  0.5681
  214MOL0     H28228   7.569  -0.217   8.863  0.3686  3.5369 -2.3260
  214MOL0     H28229   7.696  -0.326   8.919  1.3614  0.1703 -0.6306
  214MOL0     H28230   8.693  -0.098   8.496  1.4480  0.1153 -0.6839
  214MOL0     H28231   8.877   0.028   8.408 -1.2785 -2.9341  0.1149
  214MOL0     H28232   9.225   0.369   8.550  0.6916 -3.3713 -0.4982
  214MOL0     H28233   9.432   0.469   8.435 -0.5627  2.1421  1.7360
  214MOL0     H28234   8.751   0.947   8.362 -2.4311 -1.2792  3.2622
  214MOL0     H28235   8.549   0.937   8.476  2.1154 -0.3079 -0.8422
  214MOL0     H28236   8.220   1.085   8.684  0.6443 -1.0616  1.9258
  214MOL0     H28237   8.032   1.014   8.854  1.3684 -3.8966  1.0437
  214MOL0     H28238   7.802   0.953   8.958 -0.1714  0.8394  0.1156
  214MOL0     H28239   7.946   0.848   8.967 -0.3333  1.2074  1.3137
  214MOL0     H28240   7.647   0.756   8.951 -1.4175 -2.4472  2.4089
  214MOL0     H28241   7.800   0.654   8.965  1.1321  1.4166  1.3957
  214MOL0     H28242   7.640   0.836   9.154  1.0069  1.5933 -0.3444
  214MOL0     H28243   7.813   0.832   9.167 -1.6806  2.5216  0.1147
  214MOL0     H28244   7.631   0.588   9.169 -2.5945  2.5867  2.1946
  214MOL0     H28245   7.813   0.589   9.193 -1.1971  1.2863 -3.6188
  214MOL0     H28246   7.621   0.660   9.561 -1.9424 -4.2300 -1.6092
  214MOL0     H28247   7.827   0.814   8.541 -1.4459 -0.0386  2.4948
  214MOL0     H28248   7.994   0.890   8.388  3.3997 -0.1376 -0.1677
  215MOL0     O28249   7.475   6.818   4.719 -1.9041  0.3273  0.2739
  215MOL0     C28250   7.438   6.777   4.612  0.0735 -0.7240  0.2979
  215MOL0     O28251   7.306   6.791   4.568  0.2584  0.3926 -0.2234
  215MOL0     C28252   7.206   6.828   4.648  0.3196 -0.2407  0.4745
  215MOL0     C28253   7.086   6.761   4.629  0.1935 -0.3864  0.1435
  215MOL0     C28254   6.980   6.795   4.707  0.4865  1.0430  0.7190
  215MOL0     C28255   6.987   6.908   4.784  0.7450 -0.7902 -0.0527
  215MOL0     O28256   6.877   6.950   4.856  0.1521  0.0390  0.5208
  215MOL0     C28257   6.754   6.942   4.788  0.1487 -0.2421  0.2578
  215MOL0     C28258   6.639   7.039   4.844 -0.1199  0.2818  0.0737
  215MOL0     C28259   6.499   6.998   4.808  0.0227 -0.0419  0.5105
  215MOL0     C28260   6.399   7.081   4.888 -0.4452 -0.1414  0.8028
  215MOL0     C28261   6.255   7.054   4.841  0.4017  0.1153  0.6466
  215MOL0     C28262   6.145   7.124   4.924 -0.7599  0.5566 -0.0819
  215MOL0     C28263   6.008   7.079   4.886  0.1235 -0.0749  0.2008
  215MOL0     C28264   5.993   7.086   4.741 -0.0122  0.0687  0.0499
  215MOL0     N28265   5.858   7.052   4.684 -0.0894 -0.1252 -0.2177
  215MOL0     C28266   5.846   7.001   4.549 -0.7683 -0.0999  0.6034
  215MOL0     C28267   5.724   6.952   4.539  0.1791  0.1880 -0.3457
  215MOL0     C28268   5.665   6.908   4.405  1.7282  0.4094  1.5110
  215MOL0     C28269   5.612   6.756   4.422 -0.7594 -0.2834 -0.2141
  215MOL0     C28270   5.720   6.662   4.476 -0.4331 -1.2377 -0.3574
  215MOL0     C28271   5.706   6.524   4.414 -0.4212 -1.0459  0.5233
  215MOL0     O28272   5.734   6.421   4.499 -0.5194  0.5886 -0.5024
  215MOL0     C28273   5.700   6.284   4.475 -0.1270 -0.6125 -0.4824
  215MOL0     C28274   5.703   6.199   4.584  1.0298 -0.0959  0.7551
  215MOL0     C28275   5.651   6.070   4.577 -0.4884  0.0937 -0.3420
  215MOL0     C28276   5.594   6.018   4.464  0.1475 -0.4241 -0.5165
  215MOL0     C28277   5.536   5.882   4.456 -0.9479  0.0318 -0.1262
  215MOL0     O28278   5.580   5.782   4.540  0.0834 -0.5031 -0.1015
  215MOL0     C28279   5.517   5.664   4.540  0.3796  0.8814  0.1760
  215MOL0     C28280   5.591   5.556   4.483  0.6552  1.2288 -0.3089
  215MOL0     C28281   5.530   5.427   4.481  0.0746 -0.0836  0.7286
  215MOL0     C28282   5.402   5.403   4.523  0.7014  0.5072 -0.0931
  215MOL0     O28283   5.347   5.275   4.533  0.1821  0.3780 -0.1657
  215MOL0     C28284   5.427   5.157   4.518 -0.3726 -0.0826 -0.1166
  215MOL0     C28285   5.529   5.151   4.630  0.1940  0.6238  0.6117
  215MOL0     C28286   5.454   5.158   4.766  0.1265  0.1887 -0.2570
  215MOL0     C28287   5.536   5.104   4.889  0.4956  0.0539 -0.1688
  215MOL0     C28288   5.500   5.194   5.015  0.1984 -0.8288 -0.9720
  215MOL0     C28289   5.597   5.164   5.140 -0.3949  0.1846 -0.0828
  215MOL0     C28290   5.603   5.283   5.248 -0.1513  0.2158  0.8874
  215MOL0     C28291   5.720   5.281   5.352 -0.3513  1.0666  1.1262
  215MOL0    Cl28292   5.875   5.312   5.290 -0.1740 -0.2014 -0.2522
  215MOL0     C28293   5.335   5.511   4.589 -1.1029 -0.6095  0.1636
  215MOL0     C28294   5.392   5.641   4.595  0.3314 -0.0207 -0.1348
  215MOL0     O28295   5.457   5.858   4.364  0.5716 -0.0804 -0.5195
  215MOL0     C28296   5.595   6.107   4.347 -0.4027 -0.4100  0.3970
  215MOL0     C28297   5.646   6.235   4.353 -0.4864  0.5302  0.7078
  215MOL0     N28298   5.658   6.988   4.657  0.3248 -0.4707 -0.2546
  215MOL0     N28299   5.738   7.029   4.742  0.4665 -0.7988 -0.1112
  215MOL0     C28300   7.102   6.984   4.792 -0.3998  0.0522 -0.2434
  215MOL0     C28301   7.216   6.947   4.719  0.7974  0.4730 -0.7504
  215MOL0     C28302   7.533   6.701   4.523 -0.1975  0.0671 -0.9726
  215MOL0     C28303   7.490   6.597   4.436  0.7544  0.2190 -0.7726
  215MOL0     C28304   7.586   6.517   4.372  0.6469 -0.7947  0.1038
  215MOL0     C28305   7.724   6.530   4.398 -1.1534 -0.4063 -0.2391
  215MOL0     O28306   7.823   6.442   4.360  0.6285  0.7773 -0.3567
  215MOL0     C28307   7.807   6.349   4.255 -0.3202  0.1635 -0.7075
  215MOL0     C28308   7.935   6.374   4.172  0.3691  0.3248 -0.5029
  215MOL0     C28309   7.948   6.302   4.032 -0.8084  0.6581 -0.4914
  215MOL0     C28310   8.092   6.306   3.988 -0.0275 -0.3644 -0.1745
  215MOL0     C28311   8.164   6.181   4.003 -1.1591 -0.3487 -0.5350
  215MOL0     C28312   8.215   6.069   4.009  1.2819  0.2133 -0.5493
  215MOL0     C28313   7.765   6.644   4.487  0.6936  0.5115  0.0486
  215MOL0     C28314   7.669   6.719   4.550 -0.3351  0.6446  0.3023
  215MOL0     H28315   7.072   6.678   4.560 -0.2067  0.5357 -0.9033
  215MOL0     H28316   6.892   6.733   4.699 -0.3602  2.4620 -2.7013
  215MOL0     H28317   6.711   6.842   4.795  1.0724 -1.0287 -3.3462
  215MOL0     H28318   6.763   6.964   4.681 -0.3233  3.2850  0.8002
  215MOL0     H28319   6.658   7.143   4.813  1.4329 -0.3924 -1.4188
  215MOL0     H28320   6.651   7.067   4.949 -2.4651  3.1898 -0.2842
  215MOL0     H28321   6.489   6.895   4.843 -2.0616  0.1802  0.6627
  215MOL0     H28322   6.476   7.001   4.701  0.9863 -1.5097  0.2379
  215MOL0     H28323   6.426   7.068   4.993  1.0359  1.4572  0.6710
  215MOL0     H28324   6.410   7.189   4.874  0.2251  0.1440  3.1703
  215MOL0     H28325   6.234   6.947   4.844 -2.3242  0.5776  3.3200
  215MOL0     H28326   6.252   7.083   4.736  2.7051  1.3982  0.8554
  215MOL0     H28327   6.146   7.234   4.918 -2.4195  0.5307 -2.5328
  215MOL0     H28328   6.156   7.092   5.028 -0.5992 -1.1126 -0.5966
  215MOL0     H28329   5.999   6.972   4.903  0.8824 -0.4839 -1.7571
  215MOL0     H28330   5.929   7.141   4.932  0.8173 -0.0906  1.4384
  215MOL0     H28331   6.062   7.013   4.697 -3.3319 -2.5748 -1.2733
  215MOL0     H28332   6.020   7.187   4.710  0.3250 -0.5542 -1.7851
  215MOL0     H28333   5.914   7.004   4.465  1.0825 -1.3304  1.9630
  215MOL0     H28334   5.729   6.925   4.318 -3.3316  3.2965 -2.2258
  215MOL0     H28335   5.577   6.967   4.379  1.9273 -0.2740 -1.0026
  215MOL0     H28336   5.566   6.728   4.326 -2.0530 -2.2178  0.9150
  215MOL0     H28337   5.528   6.767   4.490  0.0291  2.2251  0.4438
  215MOL0     H28338   5.807   6.709   4.430 -1.8607  1.6548 -0.3389
  215MOL0     H28339   5.727   6.680   4.584 -1.1976  3.0966 -0.8401
  215MOL0     H28340   5.760   6.513   4.319 -0.9137  2.4459 -0.2973
  215MOL0     H28341   5.606   6.528   4.372 -0.2552  3.4486  0.0217
  215MOL0     H28342   5.738   6.242   4.678 -0.0627  1.5332  0.4540
  215MOL0     H28343   5.653   6.012   4.669  0.9433 -4.8235 -3.1311
  215MOL0     H28344   5.691   5.549   4.442  0.2981 -3.6643 -0.8755
  215MOL0     H28345   5.595   5.365   4.419 -4.0582  0.8343 -5.3936
  215MOL0     H28346   5.480   5.152   4.422  0.2277  0.5216  0.1713
  215MOL0     H28347   5.357   5.073   4.512 -0.0941 -0.2594 -0.9817
  215MOL0     H28348   5.612   5.221   4.620  0.3633  0.3770  0.2687
  215MOL0     H28349   5.573   5.051   4.628 -1.8523 -0.3914 -3.2463
  215MOL0     H28350   5.368   5.095   4.740 -0.4759  0.4226  1.0759
  215MOL0     H28351   5.409   5.255   4.787 -0.0427 -0.1060  0.8414
  215MOL0     H28352   5.515   4.998   4.906 -2.2039  0.1740 -2.0900
  215MOL0     H28353   5.641   5.110   4.859  1.2713  0.2582  2.3641
  215MOL0     H28354   5.398   5.193   5.054  1.1106 -1.0529  1.5993
  215MOL0     H28355   5.517   5.295   4.979  0.3285 -0.9010 -1.1124
  215MOL0     H28356   5.696   5.136   5.103 -1.1011 -1.2079 -1.0094
  215MOL0     H28357   5.550   5.075   5.182  0.4448 -0.2012  0.0538
  215MOL0     H28358   5.623   5.382   5.208 -1.4216 -0.7372 -2.4800
  215MOL0     H28359   5.507   5.278   5.300 -0.5211  2.3642  0.4973
  215MOL0     H28360   5.709   5.185   5.403 -1.2003  0.1904 -0.6083
  215MOL0     H28361   5.682   5.352   5.427  0.2546  1.0203  1.4826
  215MOL0     H28362   5.235   5.503   4.631 -1.9041  1.4249 -1.2127
  215MOL0     H28363   5.333   5.717   4.645 -1.4397 -1.2636 -0.2085
  215MOL0     H28364   5.555   6.065   4.255  2.2568  0.1554 -1.1380
  215MOL0     H28365   5.627   6.295   4.265 -3.3844 -1.4301 -0.1748
  215MOL0     H28366   7.107   7.075   4.851  3.8810 -0.8841  1.1699
  215MOL0     H28367   7.306   7.007   4.726  1.1104 -0.0605 -0.1072
  215MOL0     H28368   7.383   6.585   4.423  0.8232 -0.6284 -0.6131
  215MOL0     H28369   7.544   6.441   4.307 -3.1362  0.5498  0.7739
  215MOL0     H28370   7.724   6.374   4.189 -2.5551 -1.9716  1.1007
  215MOL0     H28371   7.806   6.245   4.291  2.0130  1.1412  2.7271
  215MOL0     H28372   7.960   6.480   4.168  1.5566  0.2035  1.9862
  215MOL0     H28373   8.020   6.341   4.232 -0.9631 -1.2217  0.6239
  215MOL0     H28374   7.893   6.368   3.964 -0.3298  1.2392 -0.3251
  215MOL0     H28375   7.910   6.200   4.031  0.5068  0.1485 -0.3173
  215MOL0     H28376   8.075   6.310   3.880  1.6474 -0.3305 -0.4754
  215MOL0     H28377   8.145   6.398   4.017 -0.7824  0.4295 -1.2372
  215MOL0     H28378   8.253   5.969   4.009 -0.1182 -0.3504  0.4258
  215MOL0     H28379   7.871   6.666   4.501  1.0772 -0.0020 -1.7145
  215MOL0     H28380   7.703   6.799   4.615  3.0883 -0.6136  0.2846
  216MOL0     O28381  10.852   8.557   9.261  0.6509  0.6832  0.3110
  216MOL0     C28382  10.738   8.590   9.220 -0.3638  0.5388  0.2199
  216MOL0     O28383  10.654   8.682   9.272 -0.0462 -0.6090 -0.2931
  216MOL0     C28384  10.696   8.778   9.362 -0.5904 -0.2816  0.9709
  216MOL0     C28385  10.820   8.842   9.354  0.4581 -1.1742  0.2848
  216MOL0     C28386  10.856   8.933   9.455 -0.2296  0.7451  0.6605
  216MOL0     C28387  10.773   8.968   9.559 -0.8975  0.3364  0.8146
  216MOL0     O28388  10.791   9.067   9.659  0.1733  1.1980 -0.6034
  216MOL0     C28389  10.929   9.090   9.691  0.6313 -0.4192  0.1725
  216MOL0     C28390  10.923   9.157   9.824 -0.2980 -0.4984 -0.0806
  216MOL0     C28391  11.066   9.162   9.895  0.3005 -0.8664 -0.0852
  216MOL0     C28392  11.077   9.276  10.010  0.0419  0.1238  0.0809
  216MOL0     C28393  10.971   9.246  10.126  0.8588 -0.0841  0.5959
  216MOL0     C28394  11.032   9.151  10.237  0.2342  1.2029  0.1190
  216MOL0     C28395  10.951   9.149  10.373 -0.0834  0.0144  0.0382
  216MOL0     C28396  11.024   9.047  10.459  0.4317 -0.6343 -0.1593
  216MOL0     N28397  10.984   9.037  10.596  0.4728 -0.3634  0.0579
  216MOL0     C28398  11.020   8.926  10.675  0.3278  0.6224 -0.0011
  216MOL0     C28399  11.007   8.980  10.809 -0.2538  0.2829 -0.4439
  216MOL0     C28400  11.034   8.897  10.932 -0.6206 -0.5377  0.7205
  216MOL0     C28401  11.017   8.981  11.052  0.6203 -0.8083  0.4074
  216MOL0     C28402  10.859   9.002  11.064 -0.3528  0.0969  0.7174
  216MOL0     C28403  10.835   9.088  11.182 -0.3801 -0.2076 -0.6031
  216MOL0     O28404  10.700   9.120  11.213 -0.4742 -0.3425 -0.0795
  216MOL0     C28405  10.597   9.030  11.203  0.2665  0.8645  1.1051
  216MOL0     C28406  10.486   9.067  11.119 -1.2693 -0.2980  0.1441
  216MOL0     C28407  10.377   8.982  11.096 -0.1980 -0.5252  0.1344
  216MOL0     C28408  10.369   8.859  11.163 -0.3670 -0.8686 -0.1608
  216MOL0     C28409  10.248   8.773  11.142 -0.5460 -0.0419 -0.2308
  216MOL0     O28410  10.267   8.640  11.152 -0.6043 -0.5583  0.4006
  216MOL0     C28411  10.160   8.554  11.186  0.5998 -0.4140  0.1880
  216MOL0     C28412  10.046   8.572  11.266  0.5939 -0.2503  0.0265
  216MOL0     C28413   9.959   8.461  11.281  0.3348  0.5423  0.3335
  216MOL0     C28414   9.997   8.331  11.252 -0.6095 -0.7010 -1.0464
  216MOL0     O28415   9.908   8.228  11.253 -0.9588  0.1461  0.1707
  216MOL0     C28416   9.797   8.238  11.335  0.3244 -0.6046  0.5550
  216MOL0     C28417   9.761   8.092  11.336 -0.4470  0.2281 -0.3394
  216MOL0     C28418   9.647   8.047  11.422 -0.3004 -0.1408  1.0825
  216MOL0     C28419   9.639   7.894  11.456 -0.6595 -0.5172 -0.4960
  216MOL0     C28420   9.541   7.849  11.574 -0.4208  0.4442 -0.4061
  216MOL0     C28421   9.503   7.702  11.554  0.3352  0.4230  0.0128
  216MOL0     C28422   9.618   7.606  11.556 -0.5613  0.0684 -0.7045
  216MOL0     C28423   9.571   7.465  11.581 -0.0817 -0.2315 -0.1149
  216MOL0    Cl28424   9.706   7.359  11.539 -0.2520  0.1243  0.1688
  216MOL0     C28425  10.114   8.314  11.182 -0.0114  0.9466  0.2862
  216MOL0     C28426  10.199   8.422  11.159 -0.3424 -0.0664 -1.3081
  216MOL0     O28427  10.138   8.828  11.133 -0.0893  0.2462 -1.0951
  216MOL0     C28428  10.475   8.821  11.251  0.7148  0.0042  0.5295
  216MOL0     C28429  10.584   8.913  11.273 -0.4859 -0.3968  0.0452
  216MOL0     N28430  10.982   9.114  10.806  0.2345 -0.3069 -0.8539
  216MOL0     N28431  10.952   9.142  10.680  0.1649 -0.0193 -0.1921
  216MOL0     C28432  10.653   8.898   9.560  0.1358 -0.9914 -0.4950
  216MOL0     C28433  10.618   8.805   9.470  1.0835 -0.0626  0.3882
  216MOL0     C28434  10.684   8.504   9.114  0.0756 -0.5867  1.1964
  216MOL0     C28435  10.540   8.518   9.080  0.1748 -0.7007  0.1446
  216MOL0     C28436  10.473   8.423   8.998  0.1462  0.9418  0.1770
  216MOL0     C28437  10.554   8.315   8.947 -0.0945  0.1593  0.5717
  216MOL0     O28438  10.501   8.214   8.879  0.7681  0.9889  0.6296
  216MOL0     C28439  10.368   8.165   8.868  0.3037 -0.4347 -0.3434
  216MOL0     C28440  10.360   8.016   8.903  0.5791  0.7104  0.4468
  216MOL0     C28441  10.432   7.912   8.811 -0.5141 -0.7416  0.2711
  216MOL0     C28442  10.442   7.958   8.664  0.4665  0.6324  0.2361
  216MOL0     C28443  10.502   7.852   8.588 -0.1887 -0.1499  1.0007
  216MOL0     C28444  10.558   7.766   8.521  0.0038 -0.6163 -0.1722
  216MOL0     C28445  10.689   8.308   8.970 -1.0028 -0.2827 -0.2601
  216MOL0     C28446  10.758   8.404   9.046 -0.5376  0.0633 -0.5940
  216MOL0     H28447  10.886   8.808   9.274  1.4343 -1.0002  0.9915
  216MOL0     H28448  10.952   8.984   9.452  1.6001 -2.0614  4.1075
  216MOL0     H28449  10.990   9.141   9.616 -0.9229  0.5240 -0.4976
  216MOL0     H28450  10.981   8.997   9.716  3.0245  0.2161 -2.0637
  216MOL0     H28451  10.852   9.102   9.887 -0.4301  0.3813  0.5538
  216MOL0     H28452  10.883   9.256   9.800  0.9691 -0.5946 -2.9899
  216MOL0     H28453  11.141   9.190   9.820  1.3768  4.2188  2.4187
  216MOL0     H28454  11.088   9.067   9.944  0.8163 -1.4496 -1.4147
  216MOL0     H28455  11.180   9.286  10.045 -0.8617 -0.9784  3.4175
  216MOL0     H28456  11.051   9.370   9.960 -1.1003 -1.5396 -2.7315
  216MOL0     H28457  10.878   9.198  10.096  2.6430 -4.9493  1.8773
  216MOL0     H28458  10.945   9.332  10.189  0.4853 -2.3298  3.7235
  216MOL0     H28459  11.134   9.183  10.256 -0.0235  1.3851  1.2642
  216MOL0     H28460  11.020   9.049  10.198 -1.9107  0.3882  2.5921
  216MOL0     H28461  10.956   9.248  10.420  0.2868 -0.1041  0.2549
  216MOL0     H28462  10.848   9.118  10.352  0.2576 -2.9516  2.1435
  216MOL0     H28463  11.130   9.072  10.453 -0.0954  1.8489 -0.1109
  216MOL0     H28464  10.999   8.954  10.408  0.7241 -0.4836 -0.5749
  216MOL0     H28465  11.042   8.826  10.640  2.3152  0.1875  2.2577
  216MOL0     H28466  11.138   8.865  10.925  0.2150  2.1444 -3.8050
  216MOL0     H28467  10.970   8.809  10.922 -1.4855  0.2501 -1.1689
  216MOL0     H28468  11.071   9.076  11.050 -0.3773 -0.1960 -2.4094
  216MOL0     H28469  11.067   8.932  11.136  0.9789 -1.4123 -0.1434
  216MOL0     H28470  10.809   9.041  10.974 -2.7407 -0.3559  1.7816
  216MOL0     H28471  10.820   8.904  11.089 -2.2161  0.8542  0.9083
  216MOL0     H28472  10.885   9.185  11.182 -1.6736  0.4819 -0.1151
  216MOL0     H28473  10.861   9.027  11.269 -2.9571 -0.0751  0.3343
  216MOL0     H28474  10.491   9.160  11.064 -1.7371 -0.5874 -0.3865
  216MOL0     H28475  10.311   8.998  11.011 -0.4380  0.0237  0.4224
  216MOL0     H28476  10.013   8.672  11.292  2.2521  0.0213  1.2419
  216MOL0     H28477   9.859   8.479  11.318  0.4703  1.3509  0.3151
  216MOL0     H28478   9.719   8.299  11.288 -2.1947 -1.7722  2.9312
  216MOL0     H28479   9.818   8.279  11.434  0.1682  1.6865 -0.3051
  216MOL0     H28480   9.859   8.047  11.348  0.5279  2.0962 -0.8543
  216MOL0     H28481   9.728   8.076  11.233 -1.1325 -0.2322 -0.0531
  216MOL0     H28482   9.557   8.073  11.366  0.3718  0.6091  0.3086
  216MOL0     H28483   9.656   8.107  11.514  1.4874  0.3841  0.6192
  216MOL0     H28484   9.606   7.838  11.368  1.4798  2.2544 -3.2932
  216MOL0     H28485   9.741   7.865  11.485 -1.3425 -2.1841  0.3753
  216MOL0     H28486   9.441   7.891  11.585 -1.2324 -1.5931  0.5589
  216MOL0     H28487   9.586   7.868  11.672  0.8330  3.2236 -1.4165
  216MOL0     H28488   9.453   7.691  11.458 -0.1694 -1.5118  0.4504
  216MOL0     H28489   9.429   7.672  11.629  0.2967 -2.4308 -1.0417
  216MOL0     H28490   9.662   7.616  11.457 -1.1354  2.8659 -0.7594
  216MOL0     H28491   9.693   7.622  11.634 -0.9565  1.5300 -0.5980
  216MOL0     H28492   9.490   7.448  11.510  1.5502  1.8545 -2.6644
  216MOL0     H28493   9.523   7.447  11.678 -0.4772  1.6973  0.0976
  216MOL0     H28494  10.139   8.221  11.132 -1.2506  0.1603  1.0840
  216MOL0     H28495  10.297   8.410  11.114  0.0028  1.5506 -1.0504
  216MOL0     H28496  10.467   8.726  11.302 -2.0793  0.9357  2.0371
  216MOL0     H28497  10.646   8.885  11.358 -1.8203  2.7526  2.2806
  216MOL0     H28498  10.579   8.922   9.635  0.5180  1.5176 -0.8231
  216MOL0     H28499  10.522   8.756   9.464  0.4389  1.3957 -2.4011
  216MOL0     H28500  10.465   8.585   9.119 -0.3162 -0.5434 -1.0107
  216MOL0     H28501  10.366   8.414   8.982  0.0280 -0.5295  1.5454
  216MOL0     H28502  10.326   8.192   8.770 -1.7613  3.0077  1.3164
  216MOL0     H28503  10.305   8.205   8.947  1.7240 -1.2556  1.2728
  216MOL0     H28504  10.395   8.005   9.006 -0.6831 -1.8061  0.6838
  216MOL0     H28505  10.257   7.980   8.909  0.7536  0.3900  1.9253
  216MOL0     H28506  10.378   7.819   8.829 -1.7693 -0.6957 -2.6155
  216MOL0     H28507  10.532   7.905   8.853 -1.0549  0.0269  1.7716
  216MOL0     H28508  10.341   7.979   8.629  1.5151 -0.1338 -3.7880
  216MOL0     H28509  10.502   8.049   8.649  0.1218  0.6387 -1.2611
  216MOL0     H28510  10.607   7.697   8.455 -1.4423  0.5021 -2.5534
  216MOL0     H28511  10.753   8.224   8.945 -0.8515 -0.2994  0.1750
  216MOL0     H28512  10.862   8.384   9.067  0.3673  2.0904 -2.6988
  217MOL0     O28513   0.503   3.196  10.889 -0.5273  0.1557  0.5339
  217MOL0     C28514   0.415   3.177  10.971 -0.2152 -1.3124 -0.5077
  217MOL0     O28515   0.420   3.083  11.083 -0.3309 -0.1744  0.3183
  217MOL0     C28516   0.547   3.055  11.118 -0.5604 -0.4853  0.2213
  217MOL0     C28517   0.622   2.943  11.075 -0.1148 -0.3263 -1.4386
  217MOL0     C28518   0.749   2.914  11.123 -0.5680 -0.1289 -0.2565
  217MOL0     C28519   0.815   3.003  11.205 -0.2142 -0.5244  0.1033
  217MOL0     O28520   0.941   2.976  11.248  0.2108  0.2471 -0.1934
  217MOL0     C28521   0.960   2.839  11.296 -0.3969 -0.5389 -0.0578
  217MOL0     C28522   1.101   2.826  11.338 -1.2435 -0.2592  0.4210
  217MOL0     C28523   1.158   2.920  11.445  0.2095  0.9049 -0.2641
  217MOL0     C28524   1.307   2.891  11.494  0.1292 -0.6311 -0.5534
  217MOL0     C28525   1.357   3.015  11.573 -0.6429 -0.9577 -0.3055
  217MOL0     C28526   1.487   2.982  11.645 -0.4407  0.0051  0.3997
  217MOL0     C28527   1.556   3.102  11.719  1.1652 -0.1749 -1.1529
  217MOL0     C28528   1.677   3.052  11.805 -0.1229  0.2665 -0.4951
  217MOL0     N28529   1.797   3.018  11.722  0.5531 -0.4335 -0.6363
  217MOL0     C28530   1.904   2.960  11.775 -0.1041 -0.5708 -0.1627
  217MOL0     C28531   1.983   2.914  11.673  0.1119  0.2354 -0.8874
  217MOL0     C28532   2.117   2.852  11.683 -1.1925  0.7644 -0.7694
  217MOL0     C28533   2.208   2.908  11.569  0.2011 -0.0405  0.3032
  217MOL0     C28534   2.338   2.824  11.575 -0.2260  0.4241  0.4870
  217MOL0     C28535   2.419   2.849  11.703  0.7167  0.5228  0.1336
  217MOL0     O28536   2.388   2.767  11.813  0.5078 -0.3648 -0.1259
  217MOL0     C28537   2.448   2.649  11.831 -0.2313  0.0199 -0.1162
  217MOL0     C28538   2.404   2.579  11.953  0.2162  0.9255  0.0366
  217MOL0     C28539   2.472   2.462  11.983  0.0602  0.6324 -0.6594
  217MOL0     C28540   2.555   2.409  11.881 -1.0095 -0.4133  0.4156
  217MOL0     C28541   2.634   2.292  11.914 -0.0843  0.1881 -1.3265
  217MOL0     O28542   2.724   2.251  11.829  0.6663  0.7027 -0.4454
  217MOL0     C28543   2.823   2.157  11.862 -0.5043  0.6995  0.2872
  217MOL0     C28544   2.950   2.170  11.801 -0.3386  0.2840  0.4802
  217MOL0     C28545   3.060   2.087  11.823  1.0069 -0.6948 -0.2428
  217MOL0     C28546   3.040   1.971  11.910 -0.2930  0.8076  0.4823
  217MOL0     O28547   3.144   1.899  11.954  0.5344  0.6135 -0.5678
  217MOL0     C28548   3.269   1.910  11.885  0.1418 -0.2553  0.8510
  217MOL0     C28549   3.345   1.795  11.925  0.7057  0.4379  0.3936
  217MOL0     C28550   3.476   1.806  11.847 -0.3322  0.1534 -0.0038
  217MOL0     C28551   3.460   1.750  11.704 -0.6477 -0.6742  0.8423
  217MOL0     C28552   3.584   1.765  11.606  0.8533  0.1180  1.1604
  217MOL0     C28553   3.644   1.635  11.543 -0.3185  0.2987  0.2756
  217MOL0     C28554   3.794   1.640  11.506  0.8293 -0.1509 -1.0404
  217MOL0     C28555   3.821   1.524  11.412  0.0453 -0.9086 -0.1393
  217MOL0    Cl28556   3.997   1.491  11.372 -0.0452 -0.4647 -0.0300
  217MOL0     C28557   2.928   1.948  11.975  0.5188  0.5285  0.0992
  217MOL0     C28558   2.821   2.042  11.940 -0.1803  1.2153 -0.0846
  217MOL0     O28559   2.629   2.239  12.029  0.1986 -0.8445 -0.5253
  217MOL0     C28560   2.577   2.477  11.758 -0.1920  0.3775  0.1218
  217MOL0     C28561   2.526   2.604  11.737  0.2290  0.0817 -0.5900
  217MOL0     N28562   1.910   2.939  11.560  0.2733 -0.2371  0.3477
  217MOL0     N28563   1.806   3.008  11.594  0.1333  0.3078  0.8357
  217MOL0     C28564   0.753   3.120  11.243 -0.1585 -0.7064  0.4002
  217MOL0     C28565   0.621   3.146  11.200  0.0015  1.1485  0.5090
  217MOL0     C28566   0.290   3.260  10.962 -0.3751  0.5842  0.0231
  217MOL0     C28567   0.236   3.305  11.080 -0.3819  0.0005  0.5737
  217MOL0     C28568   0.107   3.352  11.075 -0.5767 -0.2183 -0.0228
  217MOL0     C28569   0.040   3.380  10.960 -0.7418  0.6725 -0.6284
  217MOL0     O28570  -0.084   3.438  10.968 -0.0784  0.0623 -0.1606
  217MOL0     C28571  -0.151   3.475  10.844 -0.2756  0.7126 -0.1682
  217MOL0     C28572  -0.289   3.536  10.877 -1.3667 -0.7249  0.6596
  217MOL0     C28573  -0.381   3.527  10.754 -0.1228  0.4740  0.0988
  217MOL0     C28574  -0.505   3.619  10.773  0.1122  0.2341 -0.6192
  217MOL0     C28575  -0.584   3.580  10.886 -0.5080  0.3835 -1.3456
  217MOL0     C28576  -0.640   3.559  10.985 -0.2454  0.8059 -0.7190
  217MOL0     C28577   0.103   3.346  10.839  0.7276  0.5391  1.1868
  217MOL0     C28578   0.221   3.275  10.845  0.3274 -0.9958 -0.0063
  217MOL0     H28579   0.574   2.864  11.018  1.7339 -1.9848 -0.7846
  217MOL0     H28580   0.788   2.815  11.105  1.5130  0.1621  2.1106
  217MOL0     H28581   0.939   2.770  11.213 -1.5246 -0.4811  0.1647
  217MOL0     H28582   0.896   2.815  11.381  2.2447 -1.4019  1.8321
  217MOL0     H28583   1.166   2.839  11.251 -2.3296  0.5076 -0.2908
  217MOL0     H28584   1.111   2.727  11.383 -4.7459  0.0538  2.2368
  217MOL0     H28585   1.085   2.922  11.527 -1.1374  3.9555 -1.3739
  217MOL0     H28586   1.143   3.025  11.417 -1.1349  0.6362 -0.5971
  217MOL0     H28587   1.314   2.797  11.549  2.5518 -0.2785 -0.1522
  217MOL0     H28588   1.364   2.893  11.401 -2.9743  0.2774 -2.5861
  217MOL0     H28589   1.284   3.049  11.647  2.0079 -1.7422  2.9096
  217MOL0     H28590   1.375   3.103  11.511 -3.8905  2.7113  3.3851
  217MOL0     H28591   1.554   2.936  11.571 -1.5667 -1.4645  0.2355
  217MOL0     H28592   1.461   2.906  11.719 -1.1366  2.1288  2.4345
  217MOL0     H28593   1.587   3.165  11.635  0.0483  1.5086 -0.3515
  217MOL0     H28594   1.486   3.164  11.775 -1.1165 -1.4566 -2.4050
  217MOL0     H28595   1.649   2.963  11.863 -0.1247 -1.0134 -2.3752
  217MOL0     H28596   1.707   3.131  11.874 -1.5571 -0.8749  1.5460
  217MOL0     H28597   1.927   2.939  11.879  4.6584 -2.5442 -1.3421
  217MOL0     H28598   2.098   2.744  11.683 -0.2210  0.5487  0.9431
  217MOL0     H28599   2.163   2.864  11.782 -2.3431  0.1934 -0.1345
  217MOL0     H28600   2.228   3.015  11.580  1.3491  0.2231 -3.0374
  217MOL0     H28601   2.161   2.904  11.470  0.3415 -0.1508  0.2405
  217MOL0     H28602   2.304   2.720  11.580 -3.6159  1.4375  1.1880
  217MOL0     H28603   2.400   2.845  11.488  0.2555  0.4175  0.8256
  217MOL0     H28604   2.405   2.951  11.740 -2.8398 -0.1833  1.0907
  217MOL0     H28605   2.527   2.842  11.688  0.4295 -0.4954 -1.7428
  217MOL0     H28606   2.324   2.612  12.018 -1.0357  0.5204 -1.2374
  217MOL0     H28607   2.448   2.419  12.080 -0.4480  0.3830 -0.8930
  217MOL0     H28608   2.958   2.252  11.731  0.6953 -1.6194 -1.7781
  217MOL0     H28609   3.151   2.102  11.767 -0.2226 -0.8807 -2.3933
  217MOL0     H28610   3.317   2.003  11.917  3.7238 -1.1182 -1.4136
  217MOL0     H28611   3.252   1.904  11.777  4.2236  1.0313 -0.0237
  217MOL0     H28612   3.300   1.700  11.895 -1.4079  1.2195  0.9246
  217MOL0     H28613   3.358   1.781  12.033 -0.3311 -4.0806  0.1096
  217MOL0     H28614   3.553   1.749  11.898 -0.6510  0.6219  1.0231
  217MOL0     H28615   3.510   1.910  11.838 -1.3664  0.4712 -0.3587
  217MOL0     H28616   3.455   1.641  11.708  3.0914 -1.0510 -0.8984
  217MOL0     H28617   3.367   1.793  11.667 -0.6668  1.4785  3.0806
  217MOL0     H28618   3.664   1.801  11.671  0.9778  0.0062  1.0688
  217MOL0     H28619   3.548   1.832  11.527 -2.3928 -1.7024  0.9216
  217MOL0     H28620   3.590   1.609  11.451 -0.1938  0.5813  0.1207
  217MOL0     H28621   3.636   1.550  11.612 -0.1859  0.2819  0.2710
  217MOL0     H28622   3.821   1.730  11.450  2.1167  0.1426  0.0199
  217MOL0     H28623   3.854   1.634  11.597  3.8362  4.2657 -2.3804
  217MOL0     H28624   3.770   1.543  11.318  2.5381 -1.6890 -1.7686
  217MOL0     H28625   3.789   1.429  11.456  1.4273 -1.8352 -1.0344
  217MOL0     H28626   2.894   1.862  12.031 -2.3378  0.0952 -2.0796
  217MOL0     H28627   2.729   2.021  11.994  0.9225  1.4157  1.9431
  217MOL0     H28628   2.628   2.429  11.675 -1.1481  1.0663 -0.8960
  217MOL0     H28629   2.540   2.649  11.639  0.6023  3.6646  0.9654
  217MOL0     H28630   0.809   3.191  11.304  1.3142 -0.0391 -1.6124
  217MOL0     H28631   0.559   3.233  11.221 -1.2504 -0.0695  2.1081
  217MOL0     H28632   0.298   3.297  11.169  2.5761  0.8559 -1.2729
  217MOL0     H28633   0.059   3.382  11.168 -0.4804 -2.6786  0.8915
  217MOL0     H28634  -0.166   3.384  10.785  0.8633  1.5704 -1.8483
  217MOL0     H28635  -0.084   3.534  10.780  0.1594 -2.1730 -2.5907
  217MOL0     H28636  -0.328   3.476  10.959  2.1375 -0.1261  2.9840
  217MOL0     H28637  -0.265   3.637  10.912  2.8316 -1.7482  1.2646
  217MOL0     H28638  -0.412   3.423  10.743 -1.1324  0.7554  0.2408
  217MOL0     H28639  -0.322   3.545  10.663 -0.4072  1.4483  0.0998
  217MOL0     H28640  -0.468   3.722  10.777 -0.2458  0.5392 -3.1987
  217MOL0     H28641  -0.565   3.606  10.683  2.5896  2.5272 -2.8016
  217MOL0     H28642  -0.693   3.536  11.075 -0.2816  0.3917 -0.8422
  217MOL0     H28643   0.062   3.367  10.740  4.8403  2.7193 -0.2747
  217MOL0     H28644   0.254   3.236  10.750 -0.1356  2.5554 -1.8024
  218MOL0     O28645   8.818   0.715   4.289 -0.5467  0.6891 -0.1624
  218MOL0     C28646   8.789   0.704   4.170 -1.1675  0.0599  0.0238
  218MOL0     O28647   8.873   0.729   4.062 -0.6002  0.0106 -0.9255
  218MOL0     C28648   9.006   0.754   4.085  0.1294 -0.3238 -0.0535
  218MOL0     C28649   9.076   0.830   3.989  0.8243  0.9515 -0.3354
  218MOL0     C28650   9.208   0.867   4.001  0.4369  0.0740 -0.1051
  218MOL0     C28651   9.285   0.818   4.112 -0.6219  0.5857  0.4107
  218MOL0     O28652   9.422   0.831   4.106 -0.7157 -0.2499 -0.0847
  218MOL0     C28653   9.512   0.793   4.215  0.8624  1.0681  0.5854
  218MOL0     C28654   9.657   0.813   4.163  0.1438  0.1814 -0.2217
  218MOL0     C28655   9.702   0.956   4.143 -0.0369  0.3040  0.9945
  218MOL0     C28656   9.853   0.963   4.107 -0.3115 -0.2173 -0.9394
  218MOL0     C28657   9.885   1.044   3.987 -0.5076 -0.2547 -0.2779
  218MOL0     C28658   9.833   1.187   3.997 -1.0894  1.2794 -0.0878
  218MOL0     C28659   9.872   1.259   4.128  0.6995  0.6047  0.3882
  218MOL0     C28660   9.808   1.397   4.143 -0.0213 -0.4161  0.4230
  218MOL0     N28661   9.805   1.429   4.287 -0.6892  0.2061  0.6969
  218MOL0     C28662   9.882   1.527   4.348 -0.1393  0.5018  0.9731
  218MOL0     C28663   9.853   1.510   4.482  0.9278 -0.2877  0.2089
  218MOL0     C28664   9.917   1.588   4.591  0.0098  0.4868  0.9567
  218MOL0     C28665   9.903   1.739   4.560  0.2339  0.4135 -0.7168
  218MOL0     C28666   9.761   1.784   4.538  0.3499 -0.7391 -0.3055
  218MOL0     C28667   9.753   1.931   4.509  0.4105  0.0484  0.1770
  218MOL0     O28668   9.635   1.968   4.441  0.0479  0.5623 -0.5931
  218MOL0     C28669   9.511   1.977   4.503  0.8516 -0.7853 -0.1050
  218MOL0     C28670   9.492   1.969   4.649 -0.1073  0.4895  0.2517
  218MOL0     C28671   9.366   1.988   4.700 -0.4315  0.9567 -0.1540
  218MOL0     C28672   9.249   2.028   4.626  0.7364  0.1691  0.0411
  218MOL0     C28673   9.111   2.042   4.687 -0.0928 -0.3978 -0.2254
  218MOL0     O28674   9.021   2.088   4.594  0.7290  0.4740 -0.1214
  218MOL0     C28675   8.891   2.117   4.626 -0.1302  1.2097 -0.4673
  218MOL0     C28676   8.826   2.037   4.719 -0.2377  0.8856  0.2988
  218MOL0     C28677   8.687   2.049   4.743 -0.6471 -0.4665 -0.1776
  218MOL0     C28678   8.620   2.149   4.670  0.1038 -0.0176 -1.1388
  218MOL0     O28679   8.483   2.161   4.682  0.7898  0.2744  0.3921
  218MOL0     C28680   8.414   2.168   4.809 -0.4567 -0.0572  0.6079
  218MOL0     C28681   8.301   2.272   4.786 -0.2476  0.0765  0.4942
  218MOL0     C28682   8.183   2.268   4.897 -0.6473  0.2608 -0.2613
  218MOL0     C28683   8.072   2.181   4.839  0.1144 -0.1626  0.2747
  218MOL0     C28684   7.969   2.169   4.946  0.6533 -0.3467 -0.0494
  218MOL0     C28685   7.891   2.038   4.917  0.3073 -0.1080  0.1570
  218MOL0     C28686   7.798   1.997   5.029 -0.4438 -0.3089 -0.8357
  218MOL0     C28687   7.664   1.940   4.984 -0.1452  0.4840  0.2782
  218MOL0    Cl28688   7.690   1.777   4.912  0.1019 -0.4574 -0.0242
  218MOL0     C28689   8.684   2.224   4.574  0.2060 -0.6773  0.6590
  218MOL0     C28690   8.821   2.216   4.544  0.2725  0.3733 -0.1510
  218MOL0     O28691   9.090   2.025   4.810  0.1330 -0.1510 -0.7561
  218MOL0     C28692   9.270   2.045   4.491 -1.5475  0.2039  0.9905
  218MOL0     C28693   9.396   2.021   4.429  0.0423 -0.3853 -1.0896
  218MOL0     N28694   9.746   1.422   4.493  0.3128  0.1338  0.3034
  218MOL0     N28695   9.718   1.374   4.378  0.3057 -0.2833  0.4208
  218MOL0     C28696   9.218   0.734   4.200 -0.1494  0.7108 -0.1054
  218MOL0     C28697   9.085   0.700   4.192 -0.2690  0.6962 -1.0236
  218MOL0     C28698   8.655   0.661   4.138 -0.8432  0.0453 -0.2620
  218MOL0     C28699   8.568   0.605   4.232  0.3268  0.9153 -0.9311
  218MOL0     C28700   8.440   0.562   4.211  0.6571 -0.0035  0.0402
  218MOL0     C28701   8.374   0.597   4.087  0.2750 -0.7749 -0.7989
  218MOL0     O28702   8.236   0.587   4.056  0.3647 -0.4800  0.1848
  218MOL0     C28703   8.147   0.606   4.166 -0.2652 -0.5428 -0.1689
  218MOL0     C28704   8.007   0.547   4.139  0.2148  0.0056 -0.0829
  218MOL0     C28705   7.893   0.563   4.241 -0.0368  0.2899  0.6511
  218MOL0     C28706   7.752   0.525   4.183  0.6449  0.4756  0.3923
  218MOL0     C28707   7.713   0.386   4.209 -0.3550 -0.1300  0.7752
  218MOL0     C28708   7.669   0.276   4.239  0.6863  0.6956 -0.4622
  218MOL0     C28709   8.459   0.656   3.990  0.8854  0.1306  1.0643
  218MOL0     C28710   8.590   0.690   4.015  0.6051 -0.1841 -0.5437
  218MOL0     H28711   9.019   0.853   3.899  0.0686  1.6265  0.3033
  218MOL0     H28712   9.254   0.916   3.916 -2.3166  0.5379 -1.4582
  218MOL0     H28713   9.483   0.692   4.246  1.1756  0.4470 -0.9877
  218MOL0     H28714   9.503   0.856   4.303 -0.5478  1.8964 -0.1231
  218MOL0     H28715   9.654   0.760   4.067 -3.0180  2.0424 -1.3115
  218MOL0     H28716   9.728   0.764   4.230  0.3053 -0.8699 -1.1348
  218MOL0     H28717   9.673   1.007   4.236 -3.1678  0.6354 -0.0553
  218MOL0     H28718   9.642   0.989   4.058  2.6307 -0.4646 -1.3341
  218MOL0     H28719   9.916   0.989   4.193 -3.2384  0.7399  1.0865
  218MOL0     H28720   9.877   0.860   4.081 -1.2913 -1.0787  1.3023
  218MOL0     H28721   9.853   0.993   3.896 -1.2240 -0.6274  0.1757
  218MOL0     H28722   9.994   1.042   3.976 -0.2761 -0.2137  1.6425
  218MOL0     H28723   9.725   1.181   3.986 -0.8308  0.3116 -2.5821
  218MOL0     H28724   9.875   1.249   3.917  1.6192  0.3250  0.4837
  218MOL0     H28725   9.833   1.199   4.212 -4.1500  2.1014 -0.4583
  218MOL0     H28726   9.981   1.261   4.125  0.7641 -0.7911  0.8123
  218MOL0     H28727   9.708   1.403   4.098  0.1958  0.9327  0.0813
  218MOL0     H28728   9.864   1.474   4.090 -1.3507  1.0612  1.0859
  218MOL0     H28729   9.948   1.603   4.308 -1.8997  1.6806  0.2145
  218MOL0     H28730  10.025   1.572   4.593 -0.2916 -2.0700  0.1470
  218MOL0     H28731   9.881   1.551   4.687  3.3702 -1.9836  1.4024
  218MOL0     H28732   9.969   1.766   4.477  1.3280  0.2551  0.0754
  218MOL0     H28733   9.945   1.790   4.647  2.1995  0.1956 -1.4855
  218MOL0     H28734   9.724   1.717   4.459  1.5276 -0.8654 -0.7715
  218MOL0     H28735   9.705   1.771   4.631  0.6059  2.2354  0.3783
  218MOL0     H28736   9.837   1.965   4.448 -0.5347 -2.9195 -3.1514
  218MOL0     H28737   9.746   1.987   4.602  1.6237  0.0229  0.2932
  218MOL0     H28738   9.577   1.946   4.712  1.4224  0.6452 -1.6729
  218MOL0     H28739   9.365   1.962   4.805 -0.0749 -3.7348 -1.0730
  218MOL0     H28740   8.863   1.956   4.782  1.7167  1.6154  0.1591
  218MOL0     H28741   8.622   1.979   4.794 -3.3492  0.5212 -1.9748
  218MOL0     H28742   8.489   2.199   4.883  0.2593  1.0888 -0.5658
  218MOL0     H28743   8.381   2.074   4.854  3.4423 -1.8468  0.1205
  218MOL0     H28744   8.256   2.255   4.688 -1.4358 -1.2383  1.2260
  218MOL0     H28745   8.335   2.375   4.774 -0.3748  0.1497  0.7644
  218MOL0     H28746   8.142   2.367   4.917 -2.8388 -0.3542 -1.3995
  218MOL0     H28747   8.223   2.210   4.980  2.9404 -1.9623 -3.2019
  218MOL0     H28748   8.029   2.225   4.749 -0.8923  0.0280  0.8270
  218MOL0     H28749   8.121   2.084   4.825  0.7477  0.1047  0.6114
  218MOL0     H28750   7.904   2.257   4.937 -0.4744 -0.9982  1.4136
  218MOL0     H28751   8.007   2.166   5.048  2.6907  0.0264 -0.7347
  218MOL0     H28752   7.955   1.957   4.881  2.2528  0.9336  1.1282
  218MOL0     H28753   7.820   2.060   4.837 -1.8880 -3.6466  0.8854
  218MOL0     H28754   7.859   1.927   5.086  0.4924  0.4830 -0.8288
  218MOL0     H28755   7.768   2.079   5.095 -1.8876 -1.8376  0.4806
  218MOL0     H28756   7.619   2.002   4.905  0.9863  1.6723  0.5325
  218MOL0     H28757   7.592   1.928   5.065  0.3618  1.0841  0.8186
  218MOL0     H28758   8.633   2.303   4.519 -0.1414 -0.7697  0.8457
  218MOL0     H28759   8.881   2.266   4.468 -0.7049 -2.5421 -3.0716
  218MOL0     H28760   9.186   2.072   4.429 -0.4137  2.7122  0.4284
  218MOL0     H28761   9.389   2.023   4.321 -2.6643  0.3953 -0.9766
  218MOL0     H28762   9.271   0.713   4.293  1.9563  2.2012 -0.8762
  218MOL0     H28763   9.035   0.638   4.266  1.0738  0.3224 -0.3918
  218MOL0     H28764   8.608   0.578   4.329 -1.8452 -0.0692 -0.2569
  218MOL0     H28765   8.375   0.521   4.287  0.1090  1.2281  0.2446
  218MOL0     H28766   8.134   0.714   4.177 -2.6929 -0.7479 -0.5110
  218MOL0     H28767   8.185   0.576   4.264  1.7086  0.5874 -0.5216
  218MOL0     H28768   7.957   0.598   4.056  1.6985 -1.3336 -1.8871
  218MOL0     H28769   8.008   0.440   4.118  6.0449 -0.5536  1.3978
  218MOL0     H28770   7.883   0.671   4.258  1.6311  0.8793 -1.6607
  218MOL0     H28771   7.916   0.511   4.334 -0.6566  1.8022  1.6976
  218MOL0     H28772   7.670   0.580   4.230 -0.4856 -1.8500  1.3534
  218MOL0     H28773   7.738   0.532   4.074 -1.1186 -0.7528  0.4894
  218MOL0     H28774   7.620   0.184   4.263  1.1119  1.3871  3.9364
  218MOL0     H28775   8.412   0.687   3.897 -0.0283  0.3887  1.6041
  218MOL0     H28776   8.628   0.737   3.925 -0.6255  1.4009 -0.2823
  219MOL0     O28777   8.593   8.657  10.874  0.5227  0.0904 -0.0630
  219MOL0     C28778   8.480   8.655  10.928  0.5048 -0.5313 -0.0676
  219MOL0     O28779   8.396   8.561  10.922  0.3286  0.3418  0.4322
  219MOL0     C28780   8.416   8.471  10.817  0.4613 -0.2331  0.8558
  219MOL0     C28781   8.332   8.473  10.703  0.7648  0.1474 -0.0120
  219MOL0     C28782   8.340   8.370  10.611  0.1687  0.1818  0.9536
  219MOL0     C28783   8.439   8.269  10.619 -0.0267  0.1573 -0.4177
  219MOL0     O28784   8.433   8.165  10.531 -0.4793 -0.0869  0.0936
  219MOL0     C28785   8.406   8.032  10.583  0.8014 -0.3146  0.5352
  219MOL0     C28786   8.533   7.950  10.598  0.1591  0.1305 -0.0283
  219MOL0     C28787   8.547   7.830  10.515 -0.0874 -0.0554 -0.3236
  219MOL0     C28788   8.658   7.741  10.553  0.8638  0.3919  0.3563
  219MOL0     C28789   8.667   7.604  10.476 -0.1714  0.1645  1.2589
  219MOL0     C28790   8.804   7.538  10.497 -0.5043  0.6652 -0.5215
  219MOL0     C28791   8.816   7.423  10.400 -0.6149 -1.1577  1.3973
  219MOL0     C28792   8.955   7.354  10.434  0.6036  0.9559 -0.2747
  219MOL0     N28793   8.991   7.235  10.355  0.1144 -0.0486 -0.3304
  219MOL0     C28794   9.117   7.214  10.308 -0.0116 -0.3576  0.2810
  219MOL0     C28795   9.096   7.103  10.229  0.4919  0.0730 -1.0609
  219MOL0     C28796   9.193   7.037  10.142 -0.7447  0.2373  0.5660
  219MOL0     C28797   9.263   7.134  10.048 -0.5593  0.8047 -0.0031
  219MOL0     C28798   9.415   7.102  10.020 -0.7029  0.4212  0.5532
  219MOL0     C28799   9.452   7.090   9.860  0.1993  0.5804 -0.0903
  219MOL0     O28800   9.598   7.057   9.859  0.3483  0.2514  0.8653
  219MOL0     C28801   9.680   7.160   9.816 -0.1755 -0.1192  0.0639
  219MOL0     C28802   9.685   7.207   9.685  0.9249 -0.1858  0.1097
  219MOL0     C28803   9.784   7.288   9.635  0.1024 -0.6944  0.9305
  219MOL0     C28804   9.860   7.352   9.734 -1.1639 -0.2567 -0.5919
  219MOL0     C28805   9.956   7.450   9.692 -0.5493  0.7021  0.5300
  219MOL0     O28806   9.991   7.548   9.786 -0.6592  0.0330  0.0945
  219MOL0     C28807  10.104   7.625   9.760  0.0677  0.6239  0.0246
  219MOL0     C28808  10.227   7.592   9.697 -0.7392 -0.1260  0.0022
  219MOL0     C28809  10.326   7.686   9.692  0.0274  1.0694  0.7281
  219MOL0     C28810  10.310   7.817   9.740  0.1874  0.0311 -0.2010
  219MOL0     O28811  10.408   7.915   9.720 -0.5309  1.0159 -0.0728
  219MOL0     C28812  10.534   7.904   9.776 -0.4936  0.3213 -0.4941
  219MOL0     C28813  10.528   7.860   9.927  0.1092 -0.0071  0.7896
  219MOL0     C28814  10.511   7.990  10.009 -0.7616  0.6873  0.0651
  219MOL0     C28815  10.559   7.950  10.150 -0.5724  0.0948  0.4032
  219MOL0     C28816  10.704   7.930  10.185  0.7983  0.6847 -1.0209
  219MOL0     C28817  10.779   8.061  10.181  0.6702  0.6285  0.7821
  219MOL0     C28818  10.927   8.037  10.189 -0.2738 -0.2605  0.2416
  219MOL0     C28819  11.012   8.168  10.216 -0.6756  0.6438  0.1354
  219MOL0    Cl28820  11.002   8.296  10.097  0.3050  0.0655  0.5867
  219MOL0     C28821  10.193   7.856   9.786  1.3925  0.2792  0.7321
  219MOL0     C28822  10.090   7.761   9.798 -0.5681  0.3426  0.5236
  219MOL0     O28823  10.001   7.437   9.578  0.6530  0.1149  0.1725
  219MOL0     C28824   9.851   7.319   9.877 -0.1515 -1.1646  0.3601
  219MOL0     C28825   9.762   7.222   9.911 -1.0424  0.0635  0.0454
  219MOL0     N28826   8.967   7.068  10.234  0.4517  0.0038  0.4367
  219MOL0     N28827   8.905   7.144  10.314 -0.3075 -0.3831 -0.1556
  219MOL0     C28828   8.517   8.266  10.736 -0.0507 -0.7366 -0.9352
  219MOL0     C28829   8.513   8.375  10.829 -0.1347  1.3746 -0.2375
  219MOL0     C28830   8.462   8.751  11.040 -0.4800 -0.5506  0.5823
  219MOL0     C28831   8.381   8.712  11.153  0.4143 -0.2407  0.1093
  219MOL0     C28832   8.367   8.810  11.245 -0.5452  0.2310 -0.0993
  219MOL0     C28833   8.422   8.932  11.245 -1.0031 -0.5124 -0.7337
  219MOL0     O28834   8.387   9.004  11.361  0.5165  0.0069  0.7421
  219MOL0     C28835   8.430   9.144  11.386  0.2346 -0.5989  0.4558
  219MOL0     C28836   8.338   9.194  11.501  0.0164 -0.3555  0.5086
  219MOL0     C28837   8.370   9.348  11.517  0.1334 -0.3591  0.5051
  219MOL0     C28838   8.512   9.371  11.574  1.0832 -0.2956  0.6773
  219MOL0     C28839   8.559   9.279  11.685  0.1434  0.9904  0.6531
  219MOL0     C28840   8.612   9.214  11.767 -0.8235  1.3221  0.0737
  219MOL0     C28841   8.502   8.972  11.144 -0.2492  0.1952  0.5470
  219MOL0     C28842   8.526   8.882  11.039 -0.8123 -0.0113  0.3107
  219MOL0     H28843   8.263   8.556  10.695 -0.7380 -1.1284 -0.7780
  219MOL0     H28844   8.287   8.369  10.516  1.7257  2.2526 -0.0118
  219MOL0     H28845   8.349   7.993  10.498  1.9188  0.3035 -0.5204
  219MOL0     H28846   8.342   8.041  10.671 -0.4834  0.3372 -0.4333
  219MOL0     H28847   8.540   7.927  10.704 -0.8941  1.8872  0.4676
  219MOL0     H28848   8.623   8.005  10.570 -1.8029  4.2572  0.9603
  219MOL0     H28849   8.540   7.879  10.417 -0.6036  3.0470  1.1283
  219MOL0     H28850   8.454   7.773  10.525 -0.7204  1.0268  0.1981
  219MOL0     H28851   8.755   7.791  10.548  0.8052  0.7269  2.1177
  219MOL0     H28852   8.655   7.710  10.658  1.0627  1.7566  0.7927
  219MOL0     H28853   8.652   7.618  10.368  0.8154 -1.0579  0.9363
  219MOL0     H28854   8.591   7.528  10.497  1.3633 -2.1868 -1.0499
  219MOL0     H28855   8.817   7.512  10.602 -0.1956  2.2469 -0.1384
  219MOL0     H28856   8.881   7.611  10.470  0.7501  0.2306  1.6722
  219MOL0     H28857   8.734   7.353  10.415 -0.8547 -0.8500  1.5444
  219MOL0     H28858   8.833   7.457  10.298 -0.4864  0.1675  1.8393
  219MOL0     H28859   8.956   7.318  10.537 -0.8563 -1.2398 -0.9582
  219MOL0     H28860   9.035   7.426  10.418  1.7280 -0.2177 -0.1075
  219MOL0     H28861   9.205   7.274  10.329  0.3330 -1.1635  1.2107
  219MOL0     H28862   9.154   6.949  10.090  1.9694 -1.9845  1.9557
  219MOL0     H28863   9.265   6.995  10.213 -1.9011 -1.9657  0.5182
  219MOL0     H28864   9.267   7.236  10.086 -1.5365  1.7152 -2.1939
  219MOL0     H28865   9.211   7.145   9.953 -0.9186  1.2123  0.2425
  219MOL0     H28866   9.480   7.173  10.072 -1.1589  0.8669  0.5171
  219MOL0     H28867   9.448   7.009  10.067 -0.0345  0.9709  1.1792
  219MOL0     H28868   9.433   7.193   9.830 -1.7878 -0.1851 -1.7035
  219MOL0     H28869   9.388   7.027   9.798  1.8594 -0.8834 -0.3761
  219MOL0     H28870   9.632   7.141   9.618 -0.3306 -1.4791  2.2436
  219MOL0     H28871   9.805   7.310   9.531 -1.4665 -0.5047  0.6284
  219MOL0     H28872  10.254   7.493   9.661  3.3747  0.3974  1.1919
  219MOL0     H28873  10.413   7.658   9.632 -1.8202 -2.5488 -0.5569
  219MOL0     H28874  10.590   7.997   9.759  0.5187 -0.6305 -2.8422
  219MOL0     H28875  10.590   7.839   9.708 -0.1922 -0.5247  0.5387
  219MOL0     H28876  10.627   7.820   9.949  0.7264  2.2405  2.4095
  219MOL0     H28877  10.462   7.774   9.943  0.2975 -0.7645 -2.0244
  219MOL0     H28878  10.406   8.021  10.016 -1.4578 -1.2082 -1.2512
  219MOL0     H28879  10.577   8.068   9.971  3.5167 -2.1701  0.8413
  219MOL0     H28880  10.521   8.035  10.206 -2.5966 -0.7113  0.3589
  219MOL0     H28881  10.495   7.865  10.175 -1.2095  0.7309  0.9733
  219MOL0     H28882  10.739   7.854  10.115  2.9471 -0.0820  0.7548
  219MOL0     H28883  10.702   7.881  10.283  0.6897  0.8297 -0.9490
  219MOL0     H28884  10.727   8.122  10.255  2.0775  0.1057  2.2617
  219MOL0     H28885  10.763   8.108  10.084  1.0311 -0.8441 -0.0142
  219MOL0     H28886  10.940   7.956  10.260 -2.1395 -0.2021  0.7074
  219MOL0     H28887  10.957   8.001  10.090 -1.1575 -0.8614  0.1820
  219MOL0     H28888  11.119   8.147  10.224 -0.8401  0.2658  1.7749
  219MOL0     H28889  10.978   8.201  10.315  0.0310  0.5139  0.4304
  219MOL0     H28890  10.178   7.963   9.792  3.4076  0.6021  0.7257
  219MOL0     H28891   9.992   7.804   9.817 -2.5100 -3.1730 -0.6950
  219MOL0     H28892   9.923   7.352   9.952 -0.3559  0.5238 -0.1399
  219MOL0     H28893   9.775   7.186  10.013 -0.2809  0.6592  0.1690
  219MOL0     H28894   8.594   8.189  10.744  0.8786  0.1283 -1.2801
  219MOL0     H28895   8.571   8.374  10.920 -2.8633 -3.5750  1.8495
  219MOL0     H28896   8.319   8.623  11.149  1.2654 -0.9773  1.9983
  219MOL0     H28897   8.307   8.778  11.329 -1.3194 -1.6075 -1.2866
  219MOL0     H28898   8.404   9.206  11.299  0.1846  1.8703  2.1555
  219MOL0     H28899   8.537   9.149  11.409  0.4875  2.5930 -0.9256
  219MOL0     H28900   8.232   9.173  11.485  0.1975 -1.0235  0.1584
  219MOL0     H28901   8.356   9.146  11.597 -1.1247 -3.4814 -0.7221
  219MOL0     H28902   8.301   9.404  11.581 -0.0699  0.2777 -0.2482
  219MOL0     H28903   8.374   9.404  11.423 -1.5465  0.7260  1.0227
  219MOL0     H28904   8.575   9.361  11.486 -0.5653 -1.0982 -0.4637
  219MOL0     H28905   8.516   9.474  11.611  3.0819 -0.7000  1.7143
  219MOL0     H28906   8.668   9.140  11.821 -1.2749  1.8383  1.2870
  219MOL0     H28907   8.558   9.064  11.133 -2.1181  1.2243 -1.0198
  219MOL0     H28908   8.568   8.912  10.944 -3.9620  3.1006 -0.3047
  220MOL0     O28909   4.251   0.566   2.820  0.7531 -0.4317 -0.1494
  220MOL0     C28910   4.343   0.628   2.874  0.0935  0.9163  0.1983
  220MOL0     O28911   4.412   0.579   2.986  0.2410  0.0298  0.3908
  220MOL0     C28912   4.360   0.476   3.053  0.3338  0.4227 -0.0683
  220MOL0     C28913   4.412   0.344   3.071  0.4251  0.4491  0.9845
  220MOL0     C28914   4.337   0.259   3.151  0.2452  0.9974 -1.1227
  220MOL0     C28915   4.215   0.283   3.211  0.4157 -0.2868  0.4655
  220MOL0     O28916   4.145   0.197   3.289  0.1056  0.5572 -0.4486
  220MOL0     C28917   4.217   0.114   3.377 -0.6958 -0.5294  1.0213
  220MOL0     C28918   4.124   0.021   3.452 -0.1690 -0.0623 -0.7356
  220MOL0     C28919   4.048  -0.080   3.363 -0.3833 -0.7641  0.2504
  220MOL0     C28920   4.010  -0.196   3.463 -0.3397 -0.2557 -0.4583
  220MOL0     C28921   3.932  -0.300   3.392 -0.2793 -0.3519  0.8223
  220MOL0     C28922   3.911  -0.428   3.462 -0.4043 -0.8558  0.2915
  220MOL0     C28923   3.871  -0.532   3.358  1.4718 -0.1036 -0.4706
  220MOL0     C28924   3.805  -0.657   3.409  0.3487 -0.2048 -0.4535
  220MOL0     N28925   3.656  -0.635   3.414 -0.0934 -0.1082  0.2059
  220MOL0     C28926   3.572  -0.626   3.305  0.0055  0.7308 -0.3447
  220MOL0     C28927   3.452  -0.620   3.362  1.4606 -0.8045 -0.7283
  220MOL0     C28928   3.316  -0.613   3.296  0.2010 -0.5065 -0.1474
  220MOL0     C28929   3.225  -0.720   3.357  0.5736 -0.9780 -0.2447
  220MOL0     C28930   3.255  -0.866   3.351 -0.3398 -0.1001 -0.0308
  220MOL0     C28931   3.215  -0.941   3.226  0.4638  0.5483  1.1945
  220MOL0     O28932   3.296  -0.897   3.111  0.2037  0.8391 -1.1685
  220MOL0     C28933   3.231  -0.834   3.012  0.2603 -0.0258 -0.1080
  220MOL0     C28934   3.302  -0.729   2.953  0.4522 -0.3983  0.4624
  220MOL0     C28935   3.237  -0.642   2.866  0.0793  0.1894  0.0308
  220MOL0     C28936   3.109  -0.676   2.815  0.4847  0.1791 -0.7190
  220MOL0     C28937   3.051  -0.592   2.705 -0.5234 -0.0111  0.2375
  220MOL0     O28938   3.125  -0.498   2.641 -1.0997 -0.0627 -0.2546
  220MOL0     C28939   3.071  -0.429   2.543  0.4278 -0.1282 -0.1542
  220MOL0     C28940   3.066  -0.473   2.413 -1.4303  0.6675 -0.8015
  220MOL0     C28941   3.019  -0.402   2.312 -0.1875 -0.3430  0.4892
  220MOL0     C28942   2.986  -0.274   2.328  0.7031 -0.1915 -0.1454
  220MOL0     O28943   2.960  -0.204   2.208  0.0205 -0.1285 -0.1533
  220MOL0     C28944   2.923  -0.061   2.224  0.0398  0.1713 -0.0129
  220MOL0     C28945   2.950   0.005   2.089 -0.1907  0.1588  0.1137
  220MOL0     C28946   2.876   0.133   2.057  1.0877  0.6413 -0.0022
  220MOL0     C28947   2.909   0.260   2.148  0.4638 -0.4433 -0.8700
  220MOL0     C28948   3.050   0.308   2.165  0.2795  0.0302 -0.1714
  220MOL0     C28949   3.082   0.355   2.319  0.4764 -0.6255  0.6162
  220MOL0     C28950   3.208   0.444   2.333  0.7313  0.4556  0.2160
  220MOL0     C28951   3.231   0.490   2.480  0.2834 -0.6574  0.4102
  220MOL0    Cl28952   3.316   0.657   2.468  0.2928  0.0136 -0.5239
  220MOL0     C28953   2.975  -0.220   2.455 -0.2364  0.8214 -0.7747
  220MOL0     C28954   3.027  -0.299   2.563 -0.0723 -0.1989 -0.0141
  220MOL0     O28955   2.929  -0.608   2.685 -0.3100  0.4947 -0.2767
  220MOL0     C28956   3.039  -0.781   2.875  0.4104 -0.4658  0.1240
  220MOL0     C28957   3.103  -0.864   2.975 -0.1466 -0.0945 -0.1711
  220MOL0     N28958   3.463  -0.617   3.497 -0.1901 -0.3348  0.0984
  220MOL0     N28959   3.590  -0.631   3.529 -0.0023 -0.3997  0.0844
  220MOL0     C28960   4.159   0.402   3.182 -0.5336 -0.1481  0.5281
  220MOL0     C28961   4.234   0.492   3.110 -0.3900 -0.3865 -1.1041
  220MOL0     C28962   4.390   0.751   2.814 -0.5827 -0.3012  0.1227
  220MOL0     C28963   4.511   0.799   2.849 -0.9348 -0.2873  0.6395
  220MOL0     C28964   4.574   0.909   2.784  0.4444  0.3606 -0.5387
  220MOL0     C28965   4.505   0.979   2.692  0.5068  0.4569 -0.0351
  220MOL0     O28966   4.558   1.078   2.622  0.1250  0.1359 -0.3550
  220MOL0     C28967   4.678   1.142   2.666  0.3449 -0.5821  0.3579
  220MOL0     C28968   4.662   1.219   2.803 -0.2761 -0.3275 -0.3559
  220MOL0     C28969   4.574   1.338   2.780 -0.1899  0.0352  0.7601
  220MOL0     C28970   4.522   1.426   2.897  0.2081  0.5173 -0.5361
  220MOL0     C28971   4.398   1.500   2.852 -0.7836  0.8956  0.1265
  220MOL0     C28972   4.301   1.554   2.808  0.3346  0.4596  0.4868
  220MOL0     C28973   4.378   0.930   2.652  0.0357 -0.9650  0.0202
  220MOL0     C28974   4.318   0.818   2.714  0.0423  0.7076 -0.7459
  220MOL0     H28975   4.512   0.329   3.032  0.7543  2.9874  0.6684
  220MOL0     H28976   4.377   0.162   3.179  0.6548  1.2372 -0.8634
  220MOL0     H28977   4.274   0.166   3.455  0.6426 -2.4591  1.4087
  220MOL0     H28978   4.291   0.054   3.324 -2.2687  0.4726 -2.5731
  220MOL0     H28979   4.049   0.073   3.511  1.9968  0.9453  1.3133
  220MOL0     H28980   4.194  -0.026   3.522 -0.2450 -1.6487 -1.6819
  220MOL0     H28981   4.112  -0.115   3.282  1.0999  2.0082  0.1123
  220MOL0     H28982   3.969  -0.020   3.319  0.3465  1.1192  1.3882
  220MOL0     H28983   4.106  -0.233   3.499 -0.5715 -0.5491 -0.1444
  220MOL0     H28984   3.947  -0.156   3.543 -0.1193  0.8417 -0.8106
  220MOL0     H28985   3.978  -0.318   3.294 -2.5124  1.7763 -0.7260
  220MOL0     H28986   3.834  -0.256   3.371  0.5142  2.0738  1.7850
  220MOL0     H28987   3.830  -0.418   3.536 -1.1835 -2.8507 -0.2223
  220MOL0     H28988   4.001  -0.459   3.515 -1.7602 -0.2021  3.2198
  220MOL0     H28989   3.799  -0.491   3.286 -2.9641 -0.5661  3.2565
  220MOL0     H28990   3.955  -0.563   3.295  0.4078 -4.1092 -0.2014
  220MOL0     H28991   3.835  -0.688   3.509  0.1458 -2.2747 -0.9883
  220MOL0     H28992   3.838  -0.732   3.337 -2.1695 -1.0291 -0.8498
  220MOL0     H28993   3.593  -0.624   3.198  1.8066 -0.7179 -0.0453
  220MOL0     H28994   3.325  -0.631   3.188 -0.0908 -2.1910  0.0689
  220MOL0     H28995   3.285  -0.509   3.307 -2.3115 -1.3366  1.6101
  220MOL0     H28996   3.139  -0.702   3.292  1.9594 -0.4384 -2.0318
  220MOL0     H28997   3.200  -0.681   3.456  1.1078 -0.4641 -0.3058
  220MOL0     H28998   3.362  -0.882   3.370 -0.8430 -2.8397  0.8552
  220MOL0     H28999   3.199  -0.911   3.433  1.3566 -3.5296 -0.5918
  220MOL0     H29000   3.111  -0.921   3.199  1.2080  1.4978 -1.2110
  220MOL0     H29001   3.231  -1.046   3.249 -1.0294  0.0580  0.1476
  220MOL0     H29002   3.406  -0.710   2.975  1.3998 -2.5746 -1.6839
  220MOL0     H29003   3.281  -0.551   2.826 -2.5761  1.4028 -0.3608
  220MOL0     H29004   3.083  -0.580   2.406 -2.5107  0.4553 -0.3319
  220MOL0     H29005   3.005  -0.443   2.213 -0.2717  0.1875  0.2831
  220MOL0     H29006   2.988  -0.013   2.299 -0.6965 -0.1894  0.8799
  220MOL0     H29007   2.819  -0.042   2.251  0.4416 -1.0698  2.7746
  220MOL0     H29008   2.941  -0.066   2.006  2.2468  2.7590 -2.6713
  220MOL0     H29009   3.053   0.042   2.098 -0.2847  0.4296  0.0961
  220MOL0     H29010   2.769   0.109   2.055  0.3147  3.6093 -2.8100
  220MOL0     H29011   2.902   0.177   1.960 -1.0825 -0.6486 -1.2535
  220MOL0     H29012   2.844   0.340   2.112  2.4925  2.1143  0.7610
  220MOL0     H29013   2.867   0.228   2.244  2.1683  0.5006  0.2444
  220MOL0     H29014   3.062   0.396   2.102  1.2627 -0.0814 -0.1495
  220MOL0     H29015   3.122   0.228   2.145 -3.1104 -3.1673 -0.6826
  220MOL0     H29016   3.090   0.278   2.396  0.8382  1.0061  2.3067
  220MOL0     H29017   2.998   0.414   2.356 -1.3060 -4.8348  4.0077
  220MOL0     H29018   3.297   0.390   2.300 -3.6121 -5.3271 -4.0795
  220MOL0     H29019   3.191   0.528   2.265 -1.9751 -1.5475 -1.7962
  220MOL0     H29020   3.290   0.415   2.534 -0.9350 -2.0380 -0.0985
  220MOL0     H29021   3.129   0.499   2.519  0.0478  1.4666 -0.5984
  220MOL0     H29022   2.949  -0.115   2.468 -1.3403  0.5760 -0.9274
  220MOL0     H29023   3.056  -0.263   2.661  3.4256 -0.0096 -1.0086
  220MOL0     H29024   2.943  -0.812   2.835 -0.1727 -2.3923  2.7298
  220MOL0     H29025   3.041  -0.946   3.009  1.6085 -1.3534  0.0748
  220MOL0     H29026   4.062   0.430   3.222 -0.6198  0.8495 -0.3464
  220MOL0     H29027   4.177   0.581   3.086 -2.4775 -2.0358 -2.6650
  220MOL0     H29028   4.581   0.756   2.920  2.2985  0.2567 -1.9835
  220MOL0     H29029   4.676   0.925   2.816 -0.4987  3.1164  1.5344
  220MOL0     H29030   4.708   1.221   2.597  1.1266 -0.9851  0.2258
  220MOL0     H29031   4.757   1.066   2.669 -0.0787 -1.0723 -0.5182
  220MOL0     H29032   4.618   1.154   2.880  0.6135 -1.2976 -0.6547
  220MOL0     H29033   4.761   1.245   2.840 -0.5290 -1.4680  1.2315
  220MOL0     H29034   4.482   1.300   2.735 -0.7187 -0.5549  2.2664
  220MOL0     H29035   4.605   1.404   2.699  0.9285 -2.9125 -1.4031
  220MOL0     H29036   4.491   1.359   2.979  0.0239 -2.2245 -2.6931
  220MOL0     H29037   4.598   1.495   2.933  0.4774  0.5063 -1.0768
  220MOL0     H29038   4.224   1.620   2.772  1.1024  0.6304 -0.8959
  220MOL0     H29039   4.319   0.975   2.572 -1.0953  0.6386  1.6845
  220MOL0     H29040   4.223   0.783   2.675  1.1837 -2.3792 -0.9725
  221MOL0     O29041   5.625  10.551   4.698 -0.0103  0.2420  0.2083
  221MOL0     C29042   5.659  10.535   4.587 -0.5145 -0.3921  0.6572
  221MOL0     O29043   5.687  10.640   4.496 -0.2455 -0.2882 -0.1347
  221MOL0     C29044   5.694  10.766   4.534 -1.0051  0.3498 -0.3359
  221MOL0     C29045   5.797  10.806   4.622  0.8787  0.4243 -0.0349
  221MOL0     C29046   5.803  10.929   4.688 -0.2720  0.6397 -0.1909
  221MOL0     C29047   5.709  11.026   4.656 -0.7680 -0.1857  1.0785
  221MOL0     O29048   5.725  11.148   4.721  0.2075 -0.0882  0.1772
  221MOL0     C29049   5.646  11.265   4.671  1.1791 -0.4786 -0.2134
  221MOL0     C29050   5.675  11.397   4.730  0.3285 -0.9559 -0.2851
  221MOL0     C29051   5.602  11.515   4.660  0.1869 -1.1607  0.5542
  221MOL0     C29052   5.661  11.653   4.698  0.0736 -0.3030 -0.0451
  221MOL0     C29053   5.780  11.692   4.601 -0.4546 -0.1708  0.7891
  221MOL0     C29054   5.891  11.766   4.679  0.9256  0.0385  0.1045
  221MOL0     C29055   6.028  11.744   4.632 -0.5137  0.1014  0.1767
  221MOL0     C29056   6.045  11.778   4.490  0.1644  0.0639  1.1672
  221MOL0     N29057   6.112  11.677   4.406 -0.3752  0.7099  0.2841
  221MOL0     C29058   6.235  11.686   4.340  0.2882 -0.6487  0.3601
  221MOL0     C29059   6.253  11.562   4.285 -0.5405  0.2389 -0.2153
  221MOL0     C29060   6.382  11.518   4.212  1.3316  0.3304  0.3642
  221MOL0     C29061   6.511  11.552   4.285 -1.4709  0.7773 -0.6390
  221MOL0     C29062   6.556  11.429   4.366 -0.0244 -0.0308 -0.1332
  221MOL0     C29063   6.686  11.474   4.443 -0.4321 -0.2870 -0.1702
  221MOL0     O29064   6.702  11.399   4.569  0.6183  0.2603 -0.1490
  221MOL0     C29065   6.710  11.471   4.682 -0.0672  0.4438 -0.8975
  221MOL0     C29066   6.671  11.408   4.803 -0.5214 -1.1835  0.1181
  221MOL0     C29067   6.685  11.466   4.929 -0.4839 -0.6945  0.3145
  221MOL0     C29068   6.733  11.598   4.952  0.3436 -0.0192  1.3459
  221MOL0     C29069   6.730  11.648   5.096 -0.1350 -0.5068 -0.8745
  221MOL0     O29070   6.819  11.749   5.130 -0.7003  0.2378  0.2470
  221MOL0     C29071   6.844  11.754   5.262  0.3365  0.6754 -0.9277
  221MOL0     C29072   6.923  11.656   5.336  0.3156  0.7356  0.6618
  221MOL0     C29073   6.918  11.655   5.477 -0.1278  0.8102 -0.7913
  221MOL0     C29074   6.855  11.760   5.548 -0.3414 -0.6591 -0.5659
  221MOL0     O29075   6.842  11.775   5.683  0.3050  0.3300 -0.1523
  221MOL0     C29076   6.927  11.699   5.772 -0.5912 -0.8484 -0.1731
  221MOL0     C29077   6.913  11.743   5.921 -0.4444  0.0482  1.0117
  221MOL0     C29078   6.765  11.737   5.966 -0.7314  0.2935  0.5076
  221MOL0     C29079   6.763  11.805   6.108  0.4499  0.2878 -0.0770
  221MOL0     C29080   6.639  11.760   6.188 -0.4669  0.1790  0.3406
  221MOL0     C29081   6.622  11.847   6.308  0.0953 -0.2131 -0.9916
  221MOL0     C29082   6.510  11.949   6.298  0.2284  0.5757 -0.1961
  221MOL0     C29083   6.548  12.085   6.226 -0.1171  0.4096 -0.2428
  221MOL0    Cl29084   6.520  12.078   6.063 -0.2536 -0.1420  0.4079
  221MOL0     C29085   6.786  11.853   5.474 -0.9639  0.8108 -0.0878
  221MOL0     C29086   6.783  11.857   5.335 -0.3734 -0.2905  0.1462
  221MOL0     O29087   6.665  11.576   5.181 -0.5919 -0.3482  0.1072
  221MOL0     C29088   6.771  11.668   4.833  0.2526 -0.2574  1.4976
  221MOL0     C29089   6.761  11.597   4.705  0.7729  0.0447  0.4906
  221MOL0     N29090   6.145  11.483   4.313  0.0574  0.0950 -0.2141
  221MOL0     N29091   6.067  11.548   4.383  0.4725 -0.0260  0.2652
  221MOL0     C29092   5.607  10.992   4.556  0.0324  0.7074 -0.3398
  221MOL0     C29093   5.596  10.865   4.499 -0.0065  0.7878  0.0522
  221MOL0     C29094   5.692  10.397   4.544  0.4400  0.3021 -0.2185
  221MOL0     C29095   5.723  10.371   4.413  0.5090  0.1122 -0.8046
  221MOL0     C29096   5.731  10.239   4.368 -0.0310  0.1114  0.5229
  221MOL0     C29097   5.710  10.132   4.453 -0.0322 -0.4527 -0.0405
  221MOL0     O29098   5.719  10.009   4.384 -0.3800 -0.1521 -0.6656
  221MOL0     C29099   5.648   9.893   4.417 -0.5275  0.1410 -0.3134
  221MOL0     C29100   5.625   9.805   4.294  0.1625 -0.3054 -1.0423
  221MOL0     C29101   5.752   9.727   4.235  0.4054 -0.7868 -0.7877
  221MOL0     C29102   5.846   9.824   4.162 -0.5656  0.7148 -0.9255
  221MOL0     C29103   5.951   9.756   4.086  1.0362 -0.2780  1.3021
  221MOL0     C29104   6.045   9.711   4.021 -0.4856 -0.5467 -0.4119
  221MOL0     C29105   5.674  10.155   4.587  0.4697  0.0898 -0.3100
  221MOL0     C29106   5.675  10.285   4.639 -0.6069 -0.2225 -0.3504
  221MOL0     H29107   5.868  10.731   4.656 -0.6801 -0.1084  2.2834
  221MOL0     H29108   5.878  10.940   4.765 -3.1872  0.4282  2.8695
  221MOL0     H29109   5.541  11.239   4.692  1.0600  1.2459  1.5358
  221MOL0     H29110   5.659  11.277   4.563 -0.0146 -4.5418 -1.0153
  221MOL0     H29111   5.783  11.418   4.727  0.0160  0.6614 -1.8288
  221MOL0     H29112   5.658  11.398   4.838  2.5340 -2.3423  0.1434
  221MOL0     H29113   5.501  11.510   4.704  0.0198 -3.1337  0.0352
  221MOL0     H29114   5.590  11.496   4.553 -0.7612  1.4016  0.1410
  221MOL0     H29115   5.586  11.731   4.684 -1.2704 -1.5732 -0.1414
  221MOL0     H29116   5.688  11.659   4.804 -0.3105  5.9199  0.1017
  221MOL0     H29117   5.741  11.757   4.522 -0.5620  3.2062  3.3888
  221MOL0     H29118   5.815  11.597   4.560  1.5374  0.7369  0.3183
  221MOL0     H29119   5.880  11.739   4.784 -1.3643 -1.0506 -0.3465
  221MOL0     H29120   5.866  11.872   4.687 -1.6322 -0.5331  0.8859
  221MOL0     H29121   6.098  11.804   4.690  2.1707 -3.7168  1.2741
  221MOL0     H29122   6.056  11.638   4.641  0.5887  0.2251 -1.3958
  221MOL0     H29123   6.092  11.876   4.476  0.6291 -0.4617 -1.4276
  221MOL0     H29124   5.949  11.792   4.438  1.2800  2.4068 -0.4326
  221MOL0     H29125   6.296  11.776   4.347 -2.2086  1.0094  3.7248
  221MOL0     H29126   6.373  11.566   4.115 -1.3812 -0.1695  0.2882
  221MOL0     H29127   6.372  11.410   4.196 -1.8085  0.6583 -0.7144
  221MOL0     H29128   6.497  11.649   4.333 -2.3780  1.5617 -2.4016
  221MOL0     H29129   6.596  11.561   4.216  0.0242 -0.3716  0.9479
  221MOL0     H29130   6.483  11.403   4.442  0.6947  0.2606  0.6775
  221MOL0     H29131   6.576  11.345   4.299 -0.2391 -2.2059  2.3915
  221MOL0     H29132   6.678  11.579   4.469 -0.7297  0.3326 -2.5252
  221MOL0     H29133   6.770  11.469   4.372 -2.3682 -0.8828 -2.5701
  221MOL0     H29134   6.640  11.306   4.783  0.7972 -1.0071 -3.4936
  221MOL0     H29135   6.663  11.405   5.016  0.0441  0.1861  1.0775
  221MOL0     H29136   6.961  11.570   5.282 -0.4483  1.2962 -0.8291
  221MOL0     H29137   6.948  11.567   5.533 -2.1257  0.8673  0.4665
  221MOL0     H29138   7.029  11.715   5.735  0.1615 -2.2164  1.1485
  221MOL0     H29139   6.913  11.591   5.770  0.2219 -0.9548 -1.7098
  221MOL0     H29140   6.940  11.846   5.949  0.3017  0.9603 -2.6468
  221MOL0     H29141   6.982  11.682   5.979 -3.0291 -3.4858  0.7007
  221MOL0     H29142   6.737  11.631   5.964 -2.6935  0.7634 -1.6239
  221MOL0     H29143   6.705  11.786   5.888  0.6963 -0.1571 -0.9362
  221MOL0     H29144   6.848  11.769   6.168  0.0806 -5.1671 -2.2198
  221MOL0     H29145   6.756  11.911   6.082 -2.8727  0.2165  0.1264
  221MOL0     H29146   6.651  11.658   6.226 -0.9020 -0.0285 -0.0672
  221MOL0     H29147   6.547  11.762   6.129 -0.1243 -2.6989 -0.4065
  221MOL0     H29148   6.720  11.885   6.338 -0.4913  0.0081  0.7490
  221MOL0     H29149   6.583  11.780   6.385  1.4225  2.5490  2.3489
  221MOL0     H29150   6.416  11.910   6.260  0.1432 -0.4159  0.9701
  221MOL0     H29151   6.488  11.968   6.403  3.4504  1.1492  0.4789
  221MOL0     H29152   6.653  12.113   6.243  0.2100 -0.1197 -1.3047
  221MOL0     H29153   6.487  12.162   6.274  0.0123  1.5599 -1.8347
  221MOL0     H29154   6.759  11.936   5.538  0.1837 -0.4928  2.1882
  221MOL0     H29155   6.734  11.941   5.287 -1.5797 -0.8105  0.4207
  221MOL0     H29156   6.802  11.772   4.841 -0.1802  0.3174 -2.3819
  221MOL0     H29157   6.788  11.663   4.623  0.1420 -1.2937 -0.8491
  221MOL0     H29158   5.533  11.063   4.522  1.0070  1.8922 -0.0503
  221MOL0     H29159   5.529  10.837   4.419  2.0655  1.1642 -1.8990
  221MOL0     H29160   5.734  10.447   4.336 -3.1761  2.0338  0.3516
  221MOL0     H29161   5.737  10.228   4.260 -3.2931  1.2970  0.0974
  221MOL0     H29162   5.551   9.910   4.464  0.5649 -0.2204  2.2602
  221MOL0     H29163   5.708   9.835   4.488 -0.8801  1.1184  0.8197
  221MOL0     H29164   5.570   9.723   4.341  2.2551 -0.2126  1.8630
  221MOL0     H29165   5.566   9.850   4.214 -1.0486 -0.9470 -0.5373
  221MOL0     H29166   5.718   9.659   4.155 -0.1147 -1.9213  0.3537
  221MOL0     H29167   5.802   9.669   4.313 -2.4498 -3.6776 -0.8702
  221MOL0     H29168   5.800   9.894   4.092  0.1419  1.3234 -0.7865
  221MOL0     H29169   5.890   9.880   4.244 -1.4051 -0.1800  0.1744
  221MOL0     H29170   6.126   9.664   3.971  0.9710  2.4956 -1.1430
  221MOL0     H29171   5.653  10.077   4.659 -0.3368  0.4357 -0.1587
  221MOL0     H29172   5.656  10.298   4.746  3.0188  1.5537  0.2297
  222MOL0     O29173   5.953   2.531   7.356  0.3900  0.7345 -0.2110
  222MOL0     C29174   5.871   2.440   7.352  0.7599 -0.4736  0.0061
  222MOL0     O29175   5.774   2.423   7.257  0.8143 -0.2298 -0.2240
  222MOL0     C29176   5.764   2.498   7.146  0.2431  0.2650 -0.1193
  222MOL0     C29177   5.635   2.541   7.108  1.2884 -0.3313  0.4343
  222MOL0     C29178   5.628   2.628   7.007  1.1245  0.4947 -0.2772
  222MOL0     C29179   5.734   2.683   6.938 -0.5385  0.6580  0.0342
  222MOL0     O29180   5.730   2.775   6.837  0.7862  0.6732  0.3097
  222MOL0     C29181   5.773   2.733   6.713 -0.6663  0.0808 -0.5429
  222MOL0     C29182   5.738   2.841   6.606  0.4306  0.8828  0.1835
  222MOL0     C29183   5.839   2.955   6.623  1.0046 -0.0834 -0.1936
  222MOL0     C29184   5.800   3.089   6.542  0.2131  0.7317 -0.5956
  222MOL0     C29185   5.855   3.083   6.397  0.0506 -0.5408  0.9121
  222MOL0     C29186   5.818   3.207   6.311  1.1838 -0.4074  0.7970
  222MOL0     C29187   5.919   3.317   6.341  0.4535 -0.3155 -0.3375
  222MOL0     C29188   5.923   3.425   6.231  0.1878  0.1434  0.0091
  222MOL0     N29189   6.028   3.522   6.235  0.0175 -0.6632 -0.8233
  222MOL0     C29190   6.159   3.502   6.270 -0.1793 -0.3977  0.4100
  222MOL0     C29191   6.218   3.620   6.307 -0.0222 -0.0348  0.7477
  222MOL0     C29192   6.363   3.642   6.344  0.0484 -0.4973 -0.2237
  222MOL0     C29193   6.397   3.567   6.469 -0.4696  0.9426  0.1902
  222MOL0     C29194   6.549   3.581   6.496 -0.5464 -0.0782  0.6222
  222MOL0     C29195   6.583   3.683   6.602  0.3619 -1.0458 -0.3145
  222MOL0     O29196   6.702   3.760   6.564 -0.0458 -0.5715  0.5475
  222MOL0     C29197   6.729   3.880   6.627 -0.3829  1.1738 -0.3446
  222MOL0     C29198   6.660   3.916   6.743 -0.1126 -0.5108 -0.2601
  222MOL0     C29199   6.685   4.046   6.795  0.3841 -0.7823  0.2181
  222MOL0     C29200   6.780   4.125   6.739 -0.7846 -0.4739  0.1456
  222MOL0     C29201   6.815   4.264   6.807  0.8207  0.6963  0.7882
  222MOL0     O29202   6.729   4.300   6.901  0.7820 -0.5612  0.0175
  222MOL0     C29203   6.735   4.428   6.949 -0.3512 -0.6966 -0.0245
  222MOL0     C29204   6.847   4.475   7.017 -0.2129 -0.4476 -0.5629
  222MOL0     C29205   6.862   4.609   7.071  0.0213 -0.3612 -0.0501
  222MOL0     C29206   6.753   4.701   7.040 -0.6546  0.1376 -0.5098
  222MOL0     O29207   6.762   4.827   7.085 -0.1547 -0.0357 -1.1334
  222MOL0     C29208   6.651   4.916   7.078 -0.5095  0.0679 -0.9103
  222MOL0     C29209   6.533   4.874   7.167  0.4704 -0.2476 -0.1776
  222MOL0     C29210   6.575   4.866   7.319  0.1076  0.3566 -1.0157
  222MOL0     C29211   6.506   4.969   7.400 -0.1242  0.2376 -0.9439
  222MOL0     C29212   6.494   4.948   7.551 -0.6829 -0.6377 -0.2177
  222MOL0     C29213   6.633   4.936   7.626  0.0116 -0.7268  0.7480
  222MOL0     C29214   6.625   4.839   7.740 -0.6064  0.2090  0.0202
  222MOL0     C29215   6.773   4.814   7.790  0.5456  0.6760 -0.1098
  222MOL0    Cl29216   6.848   4.967   7.842 -0.3134  0.3665  0.3163
  222MOL0     C29217   6.651   4.657   6.956 -0.7304  0.4310 -0.8063
  222MOL0     C29218   6.638   4.522   6.905  0.4095 -0.6626  0.3213
  222MOL0     O29219   6.909   4.324   6.764  0.0553 -0.2812  0.7415
  222MOL0     C29220   6.855   4.081   6.629 -0.7910 -0.5467 -0.3995
  222MOL0     C29221   6.836   3.959   6.578  1.2957  0.1789 -0.7288
  222MOL0     N29222   6.115   3.714   6.303  0.3111 -0.0219  0.0190
  222MOL0     N29223   6.010   3.658   6.259  0.4789 -0.1600  0.4305
  222MOL0     C29224   5.859   2.614   6.962 -0.4797 -1.5330 -0.1394
  222MOL0     C29225   5.876   2.532   7.074  0.9750 -0.5190  0.4506
  222MOL0     C29226   5.855   2.355   7.472  0.1563  0.4961  0.7651
  222MOL0     C29227   5.945   2.342   7.580  0.7903  0.2379  0.3104
  222MOL0     C29228   5.908   2.275   7.699 -0.5495  0.0313 -0.1502
  222MOL0     C29229   5.805   2.187   7.693 -0.0671 -0.0356 -0.1246
  222MOL0     O29230   5.776   2.095   7.788  0.1310 -0.7622  0.3967
  222MOL0     C29231   5.746   2.160   7.915 -0.1610  0.1630 -0.7117
  222MOL0     C29232   5.682   2.057   8.009 -0.3926 -0.2317  0.3371
  222MOL0     C29233   5.541   2.008   7.991  0.9188 -0.6905 -0.7644
  222MOL0     C29234   5.513   1.927   7.869  1.0175  1.5892  0.7187
  222MOL0     C29235   5.362   1.894   7.860  1.3607  1.1273 -0.4236
  222MOL0     C29236   5.238   1.869   7.855 -0.3679  0.0040  0.9244
  222MOL0     C29237   5.715   2.188   7.590  0.3560  0.1170  0.4601
  222MOL0     C29238   5.746   2.270   7.479  1.0668 -0.2344  0.1803
  222MOL0     H29239   5.551   2.486   7.151 -0.1010 -0.0623 -1.7664
  222MOL0     H29240   5.526   2.659   6.987  1.4172  1.7395  0.0118
  222MOL0     H29241   5.717   2.644   6.686 -2.0136  0.6218  0.3423
  222MOL0     H29242   5.881   2.713   6.711 -0.4709  0.9735  0.2616
  222MOL0     H29243   5.638   2.878   6.632  0.5560 -1.0429  4.0441
  222MOL0     H29244   5.749   2.799   6.506  4.4706  0.8390  0.4921
  222MOL0     H29245   5.943   2.924   6.609  0.1922 -3.2223 -0.1058
  222MOL0     H29246   5.827   2.981   6.729 -1.0969 -0.8102 -0.2077
  222MOL0     H29247   5.693   3.109   6.532 -0.3804 -1.2629  1.0369
  222MOL0     H29248   5.846   3.179   6.585 -0.1622  1.9710 -2.6520
  222MOL0     H29249   5.806   2.997   6.349 -1.2355  0.2267  0.8093
  222MOL0     H29250   5.961   3.060   6.388 -0.0679 -0.4036 -1.3760
  222MOL0     H29251   5.715   3.234   6.336  2.5467  3.9106  2.6517
  222MOL0     H29252   5.835   3.175   6.208  0.4067  1.4564  0.0514
  222MOL0     H29253   5.888   3.366   6.434  2.3568  1.5180 -0.6012
  222MOL0     H29254   6.020   3.278   6.352  0.8531  0.7895  0.0681
  222MOL0     H29255   5.834   3.489   6.231 -1.2884 -1.6498  3.0436
  222MOL0     H29256   5.927   3.377   6.133 -0.8190 -1.0324  0.5150
  222MOL0     H29257   6.210   3.406   6.264 -1.2744 -0.8950 -3.5379
  222MOL0     H29258   6.377   3.749   6.359  0.8866 -0.4353 -1.3355
  222MOL0     H29259   6.432   3.605   6.267 -2.2615 -0.8182 -2.2568
  222MOL0     H29260   6.367   3.463   6.456 -0.0336  0.7369  0.8100
  222MOL0     H29261   6.331   3.594   6.551  2.5209  2.3410  2.3315
  222MOL0     H29262   6.576   3.478   6.519  1.4556 -0.5693 -3.1663
  222MOL0     H29263   6.611   3.586   6.406 -1.2945 -0.9774  0.0367
  222MOL0     H29264   6.579   3.644   6.704 -0.8352 -1.6519 -0.5803
  222MOL0     H29265   6.502   3.756   6.608 -0.5652 -2.1492  1.9683
  222MOL0     H29266   6.585   3.865   6.803 -1.0240  1.7304  0.6079
  222MOL0     H29267   6.620   4.085   6.873 -1.2797  1.5353 -2.1329
  222MOL0     H29268   6.932   4.408   7.025  2.0401  2.2481 -0.5152
  222MOL0     H29269   6.958   4.623   7.120  3.1472 -1.0579 -5.1299
  222MOL0     H29270   6.617   4.926   6.974 -3.1980  2.3497  0.0505
  222MOL0     H29271   6.686   5.013   7.114  3.1463 -1.7966  1.0654
  222MOL0     H29272   6.504   4.776   7.128 -0.1346  0.7187 -2.3418
  222MOL0     H29273   6.443   4.936   7.155  1.7458  1.2805 -2.7528
  222MOL0     H29274   6.682   4.879   7.334 -0.0829  1.5225 -0.5862
  222MOL0     H29275   6.545   4.771   7.363 -0.9366  1.2305  0.2289
  222MOL0     H29276   6.569   5.058   7.391  1.1021 -0.3148  1.4130
  222MOL0     H29277   6.408   4.993   7.358 -1.4704 -1.5477  0.9515
  222MOL0     H29278   6.433   4.860   7.572  2.7321 -2.4758  3.3265
  222MOL0     H29279   6.444   5.031   7.602  1.3295  0.8553 -0.5376
  222MOL0     H29280   6.676   5.031   7.660  0.6905 -0.3232 -1.0863
  222MOL0     H29281   6.715   4.899   7.563  0.3990 -2.5818  2.2440
  222MOL0     H29282   6.560   4.885   7.816 -1.3125 -1.6123  0.5588
  222MOL0     H29283   6.581   4.744   7.709  3.1637 -1.3105 -1.3418
  222MOL0     H29284   6.833   4.771   7.709 -2.0268 -0.2510 -1.6386
  222MOL0     H29285   6.776   4.741   7.872 -3.9973  0.6682  0.3073
  222MOL0     H29286   6.581   4.725   6.910  1.3855  1.2597 -3.0026
  222MOL0     H29287   6.553   4.495   6.844  0.5447  0.5186 -0.4230
  222MOL0     H29288   6.944   4.133   6.595 -0.7694 -1.6792 -2.1885
  222MOL0     H29289   6.898   3.911   6.504  3.0525 -0.4980  1.0857
  222MOL0     H29290   5.944   2.656   6.910 -2.6930  1.7626 -1.4813
  222MOL0     H29291   5.965   2.471   7.087 -1.6513 -4.5456  1.4493
  222MOL0     H29292   6.041   2.390   7.566  1.3765 -1.0912 -0.3854
  222MOL0     H29293   5.979   2.274   7.781  0.2628 -1.5646 -0.8353
  222MOL0     H29294   5.672   2.240   7.909  1.7410  2.4279  2.8504
  222MOL0     H29295   5.834   2.198   7.968 -1.3289  0.1206  1.3773
  222MOL0     H29296   5.741   1.966   7.995 -0.3965 -0.5868  2.2668
  222MOL0     H29297   5.693   2.093   8.112 -2.2989 -0.9309  0.8313
  222MOL0     H29298   5.472   2.093   7.991 -0.5610 -1.8518 -0.1685
  222MOL0     H29299   5.522   1.948   8.081 -1.4178  2.6875  1.2298
  222MOL0     H29300   5.557   1.973   7.781 -0.6097 -1.0411 -1.6412
  222MOL0     H29301   5.549   1.826   7.889  0.3911  1.3876  0.8785
  222MOL0     H29302   5.134   1.847   7.841  0.2568 -1.2993 -2.7458
  222MOL0     H29303   5.624   2.129   7.594 -2.6849  4.0768 -2.1581
  222MOL0     H29304   5.662   2.274   7.410 -0.8682  0.9119  2.4158
  223MOL0     O29305   1.122   4.326  11.148  0.6048  0.0614 -0.2705
  223MOL0     C29306   1.027   4.382  11.206 -0.0540 -1.2500  1.0256
  223MOL0     O29307   0.986   4.511  11.177  0.6747 -0.2440  0.0505
  223MOL0     C29308   1.079   4.578  11.103  0.1324 -0.8001  0.2532
  223MOL0     C29309   1.072   4.581  10.969  0.6670  0.1566  0.0587
  223MOL0     C29310   1.148   4.659  10.887 -0.2079 -0.0838 -0.1098
  223MOL0     C29311   1.255   4.730  10.943  0.4961  0.3427 -0.0713
  223MOL0     O29312   1.348   4.795  10.862 -0.4087  0.6074 -0.7429
  223MOL0     C29313   1.316   4.905  10.784  0.0248 -0.0014  0.5735
  223MOL0     C29314   1.444   4.947  10.708 -1.1591  0.4412 -0.1291
  223MOL0     C29315   1.428   5.058  10.607  1.1358  0.2573 -0.5065
  223MOL0     C29316   1.547   5.059  10.525  0.3585 -1.0796  0.5237
  223MOL0     C29317   1.527   5.165  10.408 -0.5560 -0.5513 -0.7220
  223MOL0     C29318   1.632   5.146  10.295 -0.1144  0.7774 -0.1176
  223MOL0     C29319   1.649   5.282  10.209  0.0905  0.2394 -1.2034
  223MOL0     C29320   1.707   5.261  10.074 -0.0856 -0.2605  0.2910
  223MOL0     N29321   1.843   5.224  10.078 -0.4653 -0.6260  0.3545
  223MOL0     C29322   1.937   5.316  10.110 -0.9097 -1.3286  0.8218
  223MOL0     C29323   2.055   5.247  10.112  0.9132  0.6290  0.5122
  223MOL0     C29324   2.193   5.306  10.115 -0.2077 -0.2453  0.3619
  223MOL0     C29325   2.242   5.371   9.980 -0.2037 -0.7261 -0.2389
  223MOL0     C29326   2.259   5.273   9.866  0.4741 -1.0475  0.9437
  223MOL0     C29327   2.295   5.340   9.732  0.5775  0.1002  0.2742
  223MOL0     O29328   2.286   5.244   9.627 -0.6706 -0.2538 -0.4574
  223MOL0     C29329   2.284   5.325   9.513  0.5090 -0.3136 -0.2789
  223MOL0     C29330   2.162   5.364   9.458  0.8091  0.2635  1.1891
  223MOL0     C29331   2.161   5.430   9.327 -0.9146 -0.4600  0.1002
  223MOL0     C29332   2.284   5.461   9.268 -0.1635 -0.3088  0.7095
  223MOL0     C29333   2.287   5.543   9.148  0.3159 -0.8686  0.3562
  223MOL0     O29334   2.169   5.598   9.096 -0.6779 -0.6610  0.0218
  223MOL0     C29335   2.178   5.700   8.997 -0.0147  0.8174 -0.1743
  223MOL0     C29336   2.274   5.804   9.008  0.3356 -0.0999  0.5856
  223MOL0     C29337   2.300   5.902   8.906  0.8901  0.5190 -0.3701
  223MOL0     C29338   2.215   5.910   8.794  0.5113  0.5244  0.7907
  223MOL0     O29339   2.233   6.000   8.702 -0.3916  0.0890  0.5922
  223MOL0     C29340   2.130   6.048   8.628 -0.1843  0.5682  0.4369
  223MOL0     C29341   2.188   6.184   8.566  0.4119  0.4360 -1.0827
  223MOL0     C29342   2.148   6.207   8.426 -1.0753 -0.6961  0.6838
  223MOL0     C29343   2.227   6.326   8.362  0.4043 -0.3300  0.6981
  223MOL0     C29344   2.169   6.368   8.227  0.2562  0.0507  0.1600
  223MOL0     C29345   2.231   6.511   8.198 -0.1573  0.6592 -0.4315
  223MOL0     C29346   2.185   6.576   8.068  0.5855  0.2764  0.4425
  223MOL0     C29347   2.277   6.677   8.018 -0.4586 -0.5245 -0.5366
  223MOL0    Cl29348   2.370   6.770   8.144 -0.3753 -0.0886 -0.3574
  223MOL0     C29349   2.114   5.809   8.782  0.1391  1.6594  0.6573
  223MOL0     C29350   2.094   5.707   8.879  0.9287 -0.5636  0.6107
  223MOL0     O29351   2.400   5.552   9.095  0.1595  0.7306 -0.1859
  223MOL0     C29352   2.403   5.415   9.322  0.6276  0.3146  0.5722
  223MOL0     C29353   2.403   5.346   9.437 -0.4674 -0.0855 -0.4296
  223MOL0     N29354   2.031   5.122  10.070 -0.1759  0.5678 -0.4672
  223MOL0     N29355   1.903   5.104  10.047 -0.6020  0.6071  0.0648
  223MOL0     C29356   1.276   4.726  11.081  1.0771  0.9489 -0.1965
  223MOL0     C29357   1.182   4.650  11.163  0.6864  0.3614 -1.4457
  223MOL0     C29358   0.963   4.304  11.307  0.2707 -0.2833  0.5435
  223MOL0     C29359   0.896   4.360  11.414  0.0522  1.1310  0.1340
  223MOL0     C29360   0.842   4.272  11.510  0.1339 -0.4091 -0.3430
  223MOL0     C29361   0.848   4.132  11.504 -1.2120  0.4188  0.0623
  223MOL0     O29362   0.794   4.053  11.601 -0.5589  0.4446  0.4033
  223MOL0     C29363   0.727   4.111  11.711 -0.3108 -0.3499  0.6770
  223MOL0     C29364   0.820   4.156  11.816  0.9227  0.2098 -0.0755
  223MOL0     C29365   0.916   4.047  11.871  0.3313 -0.8979 -0.0616
  223MOL0     C29366   1.018   4.111  11.964 -0.6323  0.6973  0.3983
  223MOL0     C29367   1.083   4.014  12.047 -0.5765  0.6019 -1.3310
  223MOL0     C29368   1.138   3.929  12.124 -0.1368 -0.0751 -0.0454
  223MOL0     C29369   0.908   4.078  11.395  0.4550 -0.9862  0.4218
  223MOL0     C29370   0.961   4.164  11.295 -0.2646 -0.2196  0.7006
  223MOL0     H29371   0.997   4.519  10.921  0.2178  0.6692  0.0890
  223MOL0     H29372   1.150   4.658  10.778 -2.7205  3.6578 -0.3796
  223MOL0     H29373   1.278   4.981  10.853 -3.7593  0.3957 -1.6683
  223MOL0     H29374   1.236   4.880  10.713  1.7517 -0.5100 -1.2748
  223MOL0     H29375   1.487   4.858  10.661  0.6704  0.6967  0.9436
  223MOL0     H29376   1.528   4.976  10.773  1.1976 -3.1805 -1.2858
  223MOL0     H29377   1.438   5.152  10.661  1.9340  0.8165 -1.5738
  223MOL0     H29378   1.341   5.044  10.542  1.5523 -0.0484 -1.0007
  223MOL0     H29379   1.634   5.085  10.586 -1.2657  2.3054  1.6058
  223MOL0     H29380   1.559   4.957  10.486  0.4867 -0.7392 -0.3396
  223MOL0     H29381   1.556   5.256  10.460  2.0955 -0.5346 -2.0841
  223MOL0     H29382   1.425   5.169  10.369 -0.7076  0.6448 -0.2454
  223MOL0     H29383   1.597   5.060  10.237  2.5851 -2.2326  2.2924
  223MOL0     H29384   1.729   5.113  10.332 -0.2308  2.3037  1.6985
  223MOL0     H29385   1.559   5.341  10.192  0.4600  1.1381 -0.2050
  223MOL0     H29386   1.710   5.342  10.277  0.1162  0.1535 -1.1508
  223MOL0     H29387   1.692   5.348  10.010 -0.7238 -0.2947  0.3910
  223MOL0     H29388   1.641   5.184  10.034 -2.8951  0.8018  2.5874
  223MOL0     H29389   1.933   5.424  10.120  1.3641 -1.1272  0.0500
  223MOL0     H29390   2.267   5.229  10.140 -0.6421  0.1813  3.3126
  223MOL0     H29391   2.197   5.379  10.196  0.1729  1.5115 -1.1896
  223MOL0     H29392   2.345   5.407   9.986 -1.0494  1.9538 -0.3217
  223MOL0     H29393   2.171   5.449   9.951 -1.0694 -2.5608 -3.4881
  223MOL0     H29394   2.330   5.196   9.897 -0.7489 -1.2953  3.3478
  223MOL0     H29395   2.165   5.220   9.855  0.3721 -2.0402  5.2194
  223MOL0     H29396   2.392   5.389   9.741  0.0949  0.7901  2.0980
  223MOL0     H29397   2.240   5.435   9.722 -1.3745 -1.2011 -3.1334
  223MOL0     H29398   2.066   5.346   9.505 -1.6248  1.1453 -2.9292
  223MOL0     H29399   2.065   5.465   9.291 -1.1504 -0.4308  0.7409
  223MOL0     H29400   2.340   5.804   9.094 -0.2392  3.0598  1.1500
  223MOL0     H29401   2.371   5.983   8.920 -1.3172  3.2601 -3.3806
  223MOL0     H29402   2.050   6.069   8.700 -0.7578 -0.8136  0.2549
  223MOL0     H29403   2.092   5.978   8.553 -1.0559  3.3528 -1.8432
  223MOL0     H29404   2.298   6.188   8.565  0.6236 -1.9119  1.4402
  223MOL0     H29405   2.154   6.267   8.628 -0.6110  0.5630 -1.7799
  223MOL0     H29406   2.040   6.223   8.415 -1.1419 -1.9408 -0.8098
  223MOL0     H29407   2.169   6.121   8.362  0.3306  0.1154  0.0077
  223MOL0     H29408   2.222   6.401   8.442 -0.1784  0.1079  0.2615
  223MOL0     H29409   2.331   6.294   8.354  1.1378  2.0484 -0.1930
  223MOL0     H29410   2.060   6.362   8.224  0.2521  0.1880 -0.0056
  223MOL0     H29411   2.210   6.300   8.153  0.9812  1.5871 -0.9057
  223MOL0     H29412   2.340   6.507   8.188 -0.0318  1.3970  0.4863
  223MOL0     H29413   2.192   6.583   8.270 -1.6802 -0.1238 -0.4357
  223MOL0     H29414   2.171   6.511   7.981 -3.4693  2.9479 -1.2210
  223MOL0     H29415   2.080   6.608   8.076 -0.5083 -2.6817 -0.6265
  223MOL0     H29416   2.213   6.743   7.958 -2.9999  0.2134  2.6744
  223MOL0     H29417   2.354   6.624   7.962  0.3550 -0.9594  0.9487
  223MOL0     H29418   2.060   5.798   8.689 -1.1438 -2.0170  1.6415
  223MOL0     H29419   2.020   5.629   8.864 -1.5201  2.1305 -3.1412
  223MOL0     H29420   2.501   5.438   9.281  0.5314 -0.6946 -0.2628
  223MOL0     H29421   2.490   5.306   9.487  0.6071  1.5454 -0.9076
  223MOL0     H29422   1.373   4.746  11.126  1.4129  1.3562 -1.0853
  223MOL0     H29423   1.190   4.656  11.271  0.4986 -1.1964 -1.3316
  223MOL0     H29424   0.886   4.468  11.427 -0.4109  0.8845  2.1497
  223MOL0     H29425   0.791   4.324  11.590  0.5041  2.0344 -1.5958
  223MOL0     H29426   0.671   4.033  11.763 -0.8130  0.2602  1.0745
  223MOL0     H29427   0.661   4.190  11.675 -1.8518 -0.8157  2.3230
  223MOL0     H29428   0.869   4.245  11.775  0.4801  1.1228  1.3299
  223MOL0     H29429   0.763   4.205  11.895 -1.6606  0.9628 -2.2520
  223MOL0     H29430   0.965   3.995  11.788  1.0092  1.5278 -1.2876
  223MOL0     H29431   0.865   3.970  11.929  0.7577 -0.5064  0.8597
  223MOL0     H29432   1.082   4.182  11.911 -0.8653 -0.9715 -2.3166
  223MOL0     H29433   0.973   4.169  12.045  3.5993  1.5980  2.3639
  223MOL0     H29434   1.198   3.858  12.178 -1.4498 -0.1118  1.4299
  223MOL0     H29435   0.917   3.970  11.383  2.0210 -0.6378 -2.1624
  223MOL0     H29436   1.009   4.117  11.209  0.7105  0.8198  0.6506
  224MOL0     O29437   9.753   1.602   5.195 -0.0345  1.0762  0.5238
  224MOL0     C29438   9.721   1.598   5.075 -0.2643 -0.3470 -0.0745
  224MOL0     O29439   9.772   1.669   4.974  0.1247  0.2405 -0.7204
  224MOL0     C29440   9.857   1.766   5.008 -0.3605 -0.4415 -0.7134
  224MOL0     C29441   9.817   1.886   5.055  0.1265 -0.3990  0.7270
  224MOL0     C29442   9.919   1.979   5.084  0.5267 -0.0898 -0.0553
  224MOL0     C29443  10.057   1.953   5.059 -0.5085  0.4802  0.1587
  224MOL0     O29444  10.149   2.057   5.073 -0.6039  0.7441 -0.5793
  224MOL0     C29445  10.289   2.030   5.076 -0.0546  0.1928  0.5141
  224MOL0     C29446  10.350   2.157   5.128  0.0715 -0.4253 -1.1822
  224MOL0     C29447  10.358   2.283   5.038  0.1000  0.2384  0.7438
  224MOL0     C29448  10.458   2.262   4.917  0.2346 -0.0853  0.8045
  224MOL0     C29449  10.457   2.368   4.804  0.5617  1.1021  0.0996
  224MOL0     C29450  10.490   2.312   4.660  0.7151 -0.6255 -0.2130
  224MOL0     C29451  10.483   2.435   4.564  0.2452 -0.5137 -0.2714
  224MOL0     C29452  10.486   2.404   4.418 -0.1435 -0.7414  0.3888
  224MOL0     N29453  10.503   2.524   4.339 -0.2324 -0.1613  0.4633
  224MOL0     C29454  10.467   2.526   4.205 -0.2079  0.4574  0.1872
  224MOL0     C29455  10.494   2.655   4.171  0.0819 -0.3925 -0.5908
  224MOL0     C29456  10.468   2.719   4.036  0.5797 -0.0033  0.6775
  224MOL0     C29457  10.552   2.848   4.006  1.1044 -0.3584  0.0135
  224MOL0     C29458  10.514   2.891   3.866  0.2125 -0.4384  0.1035
  224MOL0     C29459  10.569   3.027   3.830  0.4600 -0.1821  0.6798
  224MOL0     O29460  10.530   3.067   3.699  0.0631 -0.2504  0.7993
  224MOL0     C29461  10.551   3.203   3.678  0.2586  0.2764  0.6214
  224MOL0     C29462  10.444   3.284   3.632  0.5441  0.1673 -0.0392
  224MOL0     C29463  10.459   3.423   3.619 -0.3189 -0.9065  0.1387
  224MOL0     C29464  10.589   3.488   3.653 -0.6319 -0.1721  0.2319
  224MOL0     C29465  10.608   3.633   3.633 -0.7202 -1.0480 -0.2460
  224MOL0     O29466  10.506   3.691   3.571  0.1176  0.1184  0.1168
  224MOL0     C29467  10.546   3.820   3.535  0.2162 -0.3495  0.2594
  224MOL0     C29468  10.616   3.842   3.412  0.3404 -1.2687  0.1708
  224MOL0     C29469  10.669   3.977   3.392 -0.4067  0.4988 -0.1346
  224MOL0     C29470  10.649   4.075   3.481  1.0691  0.2084 -0.6874
  224MOL0     O29471  10.695   4.200   3.447  0.3942 -0.0875 -0.2033
  224MOL0     C29472  10.598   4.308   3.443  0.0193  1.2960 -0.2650
  224MOL0     C29473  10.673   4.425   3.498 -0.0664 -0.8527 -0.0551
  224MOL0     C29474  10.790   4.461   3.409 -0.2296  0.3761  0.7043
  224MOL0     C29475  10.753   4.544   3.277 -0.0280  0.4851  0.3019
  224MOL0     C29476  10.848   4.670   3.264  0.2277 -0.1766  0.0092
  224MOL0     C29477  10.809   4.805   3.328 -0.4020  0.3810  0.4638
  224MOL0     C29478  10.905   4.924   3.294 -0.5876  0.3010 -0.5035
  224MOL0     C29479  10.925   5.015   3.420  0.1954 -0.4266  0.6902
  224MOL0    Cl29480  10.983   5.176   3.374  0.2473  0.1549 -0.2500
  224MOL0     C29481  10.571   4.046   3.603 -0.0116 -0.8249 -1.0154
  224MOL0     C29482  10.523   3.924   3.631  0.0014  0.4340  0.0192
  224MOL0     O29483  10.712   3.684   3.670  0.4406  0.3300  0.9453
  224MOL0     C29484  10.686   3.405   3.701 -1.0777  0.8661  1.0300
  224MOL0     C29485  10.671   3.265   3.706  0.1590 -0.4810  0.1625
  224MOL0     N29486  10.556   2.720   4.282 -0.1054 -0.5861 -0.1995
  224MOL0     N29487  10.560   2.645   4.383  0.0075  0.1335  0.3672
  224MOL0     C29488  10.081   1.830   5.005 -0.8440 -0.5383 -1.7939
  224MOL0     C29489   9.984   1.739   4.983  0.1294 -0.8323  0.2327
  224MOL0     C29490   9.620   1.494   5.023 -0.6875 -0.2998  0.4183
  224MOL0     C29491   9.559   1.396   5.103 -0.5364  0.3915  0.1245
  224MOL0     C29492   9.469   1.300   5.052 -0.7676 -0.7180 -0.3628
  224MOL0     C29493   9.411   1.326   4.923 -0.5952 -0.0130  0.2798
  224MOL0     O29494   9.313   1.255   4.864 -0.1988  0.6616 -0.8285
  224MOL0     C29495   9.222   1.171   4.946  0.6581 -0.7185  1.2538
  224MOL0     C29496   9.141   1.249   5.055 -0.8406  0.2952  0.1669
  224MOL0     C29497   9.054   1.353   4.986 -1.2118 -0.5540 -0.8074
  224MOL0     C29498   8.970   1.414   5.091 -0.1331  0.4315 -1.2265
  224MOL0     C29499   8.854   1.469   5.033  0.3518  0.1001  0.0409
  224MOL0     C29500   8.761   1.532   4.978 -0.0642 -0.2528 -1.4209
  224MOL0     C29501   9.472   1.423   4.851 -0.5581  0.7828  0.0608
  224MOL0     C29502   9.579   1.506   4.891 -0.1514 -0.4529 -0.4110
  224MOL0     H29503   9.716   1.918   5.081 -0.9915 -3.0406 -0.0694
  224MOL0     H29504   9.895   2.072   5.134 -1.6328  0.3296 -1.7394
  224MOL0     H29505  10.341   2.011   4.981  0.4207  0.8826  0.6249
  224MOL0     H29506  10.328   1.953   5.142  1.7923  0.4339 -0.2239
  224MOL0     H29507  10.451   2.139   5.167 -0.2444 -1.1238 -0.6516
  224MOL0     H29508  10.292   2.173   5.219 -0.4521 -0.5837 -1.4832
  224MOL0     H29509  10.377   2.380   5.086  0.4410 -0.8285  2.8658
  224MOL0     H29510  10.255   2.302   5.006 -1.1012  1.3165  4.7530
  224MOL0     H29511  10.558   2.273   4.958  2.0943  4.1878 -3.8149
  224MOL0     H29512  10.443   2.160   4.880 -1.2565 -0.1592  1.5343
  224MOL0     H29513  10.536   2.442   4.824  1.6453 -0.2825  1.2312
  224MOL0     H29514  10.361   2.419   4.812 -1.4431 -2.1102 -1.7716
  224MOL0     H29515  10.408   2.246   4.633 -1.3550  2.0824 -0.9798
  224MOL0     H29516  10.586   2.263   4.639  0.1538 -1.3799 -1.0869
  224MOL0     H29517  10.386   2.485   4.574  0.4708  1.5311 -5.3390
  224MOL0     H29518  10.551   2.514   4.596 -1.0916  1.6669 -2.4058
  224MOL0     H29519  10.396   2.352   4.385  0.1861 -0.1547 -1.5018
  224MOL0     H29520  10.572   2.337   4.407  1.8796  0.7806  4.6931
  224MOL0     H29521  10.425   2.445   4.146  0.2549 -0.2908  0.8836
  224MOL0     H29522  10.362   2.743   4.032  0.2459 -0.6131  3.7922
  224MOL0     H29523  10.493   2.642   3.962  1.9108  1.5273 -0.5594
  224MOL0     H29524  10.658   2.818   4.012  0.6147 -1.9773  3.7781
  224MOL0     H29525  10.538   2.930   4.077 -1.8508 -0.1613 -0.6673
  224MOL0     H29526  10.553   2.825   3.788  1.4824 -0.3801  0.6604
  224MOL0     H29527  10.406   2.895   3.849  0.3352  1.8905 -0.4834
  224MOL0     H29528  10.678   3.019   3.836  0.3333 -2.9792  0.5952
  224MOL0     H29529  10.523   3.102   3.896 -0.5533  0.6599 -0.9002
  224MOL0     H29530  10.350   3.232   3.614  0.9333  0.4973 -3.6663
  224MOL0     H29531  10.374   3.480   3.582  2.6433  1.6041 -3.6056
  224MOL0     H29532  10.621   3.766   3.335  1.2139 -0.4691 -0.5845
  224MOL0     H29533  10.722   4.014   3.305  1.0223  0.7266  0.8005
  224MOL0     H29534  10.517   4.299   3.516 -0.1689  3.3938 -0.1612
  224MOL0     H29535  10.563   4.336   3.343  0.3013 -0.4465 -0.8925
  224MOL0     H29536  10.709   4.390   3.596 -0.9590  0.3466  0.7188
  224MOL0     H29537  10.605   4.509   3.509 -1.4173 -2.0226  0.9272
  224MOL0     H29538  10.842   4.376   3.365  1.2284  1.1650  0.8284
  224MOL0     H29539  10.866   4.514   3.468 -1.0733 -0.5591  2.7273
  224MOL0     H29540  10.761   4.485   3.185 -1.6287  1.8743 -0.7836
  224MOL0     H29541  10.649   4.577   3.290  0.2306  0.3603  3.7263
  224MOL0     H29542  10.856   4.692   3.157  3.2622  2.8763  0.7001
  224MOL0     H29543  10.951   4.644   3.290  0.7445 -0.8132 -2.3947
  224MOL0     H29544  10.801   4.781   3.435 -1.5088  0.0778  0.3322
  224MOL0     H29545  10.706   4.827   3.300 -1.3923 -2.6805  1.2524
  224MOL0     H29546  11.003   4.889   3.261 -0.6259  2.0378 -2.7939
  224MOL0     H29547  10.850   4.973   3.212  1.1433 -0.6853 -2.3416
  224MOL0     H29548  11.004   4.975   3.484  0.6338  0.0487  0.4407
  224MOL0     H29549  10.835   5.015   3.483  0.8578  2.9564  1.8323
  224MOL0     H29550  10.559   4.139   3.659 -1.1164 -0.0766 -2.4095
  224MOL0     H29551  10.473   3.904   3.725  2.0976  0.0110  1.1004
  224MOL0     H29552  10.782   3.447   3.729 -0.0246 -1.0139  0.4136
  224MOL0     H29553  10.759   3.210   3.739 -0.4411 -0.9530  1.0107
  224MOL0     H29554  10.186   1.810   4.984 -0.3894 -1.1174  0.7247
  224MOL0     H29555  10.016   1.645   4.939 -2.2624 -0.9194 -1.5244
  224MOL0     H29556   9.588   1.382   5.207  3.2581  4.1742 -0.1665
  224MOL0     H29557   9.429   1.217   5.108 -2.0930 -0.1938 -0.4903
  224MOL0     H29558   9.273   1.096   5.007  0.5597 -2.9291 -1.1974
  224MOL0     H29559   9.155   1.123   4.874 -1.3856  4.7054 -0.9428
  224MOL0     H29560   9.079   1.169   5.097  4.6159 -3.1879  2.7885
  224MOL0     H29561   9.208   1.275   5.138  3.4166 -1.0743 -2.5374
  224MOL0     H29562   8.991   1.298   4.916 -2.4300  1.5124 -1.3854
  224MOL0     H29563   9.108   1.430   4.930  2.4116 -0.3934  2.4239
  224MOL0     H29564   8.943   1.342   5.169 -3.4854  0.5782 -2.0998
  224MOL0     H29565   9.015   1.497   5.146 -3.2788  0.4975  1.5505
  224MOL0     H29566   8.692   1.583   4.914  0.5806  0.3841 -1.6246
  224MOL0     H29567   9.450   1.424   4.745  0.3808  2.1897 -0.1549
  224MOL0     H29568   9.626   1.564   4.812  1.6074  1.9161  2.1762
  225MOL0     O29569   6.809   6.216   0.713 -0.2813  0.2020 -0.2276
  225MOL0     C29570   6.755   6.242   0.604  0.3651 -0.4811  0.5030
  225MOL0     O29571   6.690   6.152   0.525 -0.3948  0.8158  0.6036
  225MOL0     C29572   6.716   6.015   0.542  0.0387 -0.1475 -0.0213
  225MOL0     C29573   6.617   5.928   0.502  0.0597 -0.2601  1.1390
  225MOL0     C29574   6.638   5.790   0.501 -0.4410  0.2995 -0.2401
  225MOL0     C29575   6.761   5.733   0.537 -0.5195 -0.6689  0.3605
  225MOL0     O29576   6.782   5.599   0.507 -0.6506 -0.9482 -0.2196
  225MOL0     C29577   6.821   5.517   0.621  0.2969 -0.1858  0.3398
  225MOL0     C29578   6.755   5.381   0.623 -0.5928 -0.3494 -0.1056
  225MOL0     C29579   6.798   5.304   0.749 -0.1646 -0.4576 -0.1317
  225MOL0     C29580   6.719   5.168   0.751 -0.0321 -1.3062  0.5885
  225MOL0     C29581   6.796   5.073   0.846  0.1577 -0.8530  0.6752
  225MOL0     C29582   6.711   4.951   0.891  0.5684  1.4349  0.0047
  225MOL0     C29583   6.695   4.841   0.782 -0.0360 -0.5303  0.0006
  225MOL0     C29584   6.643   4.711   0.825  0.3530 -0.0499 -0.5752
  225MOL0     N29585   6.599   4.631   0.710 -1.8430  0.5161 -0.5758
  225MOL0     C29586   6.508   4.672   0.621 -1.0362 -0.3710  0.5514
  225MOL0     C29587   6.491   4.577   0.530 -0.2181  0.3698 -0.3792
  225MOL0     C29588   6.393   4.581   0.420 -0.2145  0.4660 -0.1036
  225MOL0     C29589   6.400   4.477   0.313 -1.0663  0.2202  0.3358
  225MOL0     C29590   6.291   4.487   0.208 -0.3226  1.1054  0.3126
  225MOL0     C29591   6.312   4.591   0.101 -0.0386 -0.0366  0.9882
  225MOL0     O29592   6.324   4.729   0.147  0.1263  0.6657 -0.5328
  225MOL0     C29593   6.318   4.833   0.054  0.0137 -0.5977  0.9522
  225MOL0     C29594   6.213   4.931   0.056  0.3397  0.5544 -0.1359
  225MOL0     C29595   6.216   5.049  -0.022  0.6754 -0.0063 -1.3062
  225MOL0     C29596   6.318   5.061  -0.121 -0.1109 -0.6284  0.1868
  225MOL0     C29597   6.314   5.167  -0.230  1.0068  0.3989  1.3095
  225MOL0     O29598   6.417   5.177  -0.316  1.0324 -0.4694  0.1555
  225MOL0     C29599   6.400   5.264  -0.418  0.0745  0.1708  0.5140
  225MOL0     C29600   6.378   5.221  -0.553  0.0796  0.4165 -0.1747
  225MOL0     C29601   6.364   5.325  -0.646 -0.1078 -0.6718  0.7606
  225MOL0     C29602   6.369   5.464  -0.618  0.5370  0.4579 -0.2102
  225MOL0     O29603   6.368   5.562  -0.714 -0.6511 -1.1114 -0.4083
  225MOL0     C29604   6.282   5.553  -0.827  0.0607  0.6180  0.1597
  225MOL0     C29605   6.375   5.545  -0.949  1.1275 -0.4340 -0.1333
  225MOL0     C29606   6.291   5.499  -1.074 -0.1992 -0.2144  0.4353
  225MOL0     C29607   6.366   5.505  -1.204  0.1542 -1.4664 -1.4539
  225MOL0     C29608   6.333   5.388  -1.284 -0.1320  0.2912  1.1249
  225MOL0     C29609   6.181   5.378  -1.320  0.5091 -0.0677 -0.4584
  225MOL0     C29610   6.148   5.234  -1.380  0.2553 -0.2916  0.3076
  225MOL0     C29611   6.177   5.218  -1.535 -0.4178  0.3914  0.8420
  225MOL0    Cl29612   6.358   5.188  -1.539  0.1520  0.2408  0.1484
  225MOL0     C29613   6.388   5.500  -0.483 -0.1157  0.8395 -0.2983
  225MOL0     C29614   6.422   5.399  -0.391 -0.0743 -0.8393 -0.1243
  225MOL0     O29615   6.208   5.234  -0.234  0.1641 -0.0640 -0.2276
  225MOL0     C29616   6.428   4.966  -0.120  1.0572 -0.1351 -0.6370
  225MOL0     C29617   6.424   4.848  -0.037  0.3853 -0.6184  0.4572
  225MOL0     N29618   6.571   4.467   0.563  0.5196  0.1666 -0.2022
  225MOL0     N29619   6.637   4.503   0.671  0.2310 -0.1654 -0.4972
  225MOL0     C29620   6.853   5.823   0.601  0.2828  0.2775 -0.1372
  225MOL0     C29621   6.828   5.958   0.607 -0.1346 -1.5121 -0.6973
  225MOL0     C29622   6.755   6.385   0.564  0.1435 -0.8214 -0.4063
  225MOL0     C29623   6.673   6.428   0.459  0.7957  0.0705  0.9918
  225MOL0     C29624   6.676   6.558   0.414  0.1255 -0.5835 -0.6007
  225MOL0     C29625   6.754   6.651   0.479 -0.1796 -0.7268 -0.1882
  225MOL0     O29626   6.737   6.773   0.428 -0.0155  0.0590  0.4752
  225MOL0     C29627   6.705   6.861   0.546  0.0497 -0.5570  1.3018
  225MOL0     C29628   6.827   6.944   0.567  0.1053 -1.0224  0.0243
  225MOL0     C29629   6.798   7.053   0.667  0.6224 -0.5658  1.0626
  225MOL0     C29630   6.793   6.999   0.810  0.1839 -0.9948  0.3528
  225MOL0     C29631   6.661   6.940   0.840 -0.0041  0.8424 -0.1088
  225MOL0     C29632   6.551   6.894   0.866  1.1727 -0.0515  0.1940
  225MOL0     C29633   6.830   6.616   0.588 -0.2682  1.0355 -0.2636
  225MOL0     C29634   6.836   6.479   0.625 -0.4859  1.2125  0.5370
  225MOL0     H29635   6.525   5.978   0.473  0.8995 -0.2903 -1.9322
  225MOL0     H29636   6.563   5.723   0.462  1.7001 -1.6985 -1.1194
  225MOL0     H29637   6.786   5.553   0.718  1.5412 -3.2749  2.0825
  225MOL0     H29638   6.930   5.505   0.624  0.5244  1.7528  2.3376
  225MOL0     H29639   6.775   5.327   0.530  1.9474  0.9175 -0.3879
  225MOL0     H29640   6.650   5.391   0.597 -0.1703 -0.9501 -2.2931
  225MOL0     H29641   6.776   5.369   0.834  1.2289 -2.5434  1.9564
  225MOL0     H29642   6.907   5.296   0.753 -0.3394 -4.0883  1.1912
  225MOL0     H29643   6.618   5.183   0.790  1.2131 -0.3201  3.7301
  225MOL0     H29644   6.724   5.113   0.656  1.5710 -4.7980  2.5159
  225MOL0     H29645   6.813   5.134   0.935  0.3071  0.5715 -0.2987
  225MOL0     H29646   6.891   5.043   0.802 -0.6313 -3.6394  0.6614
  225MOL0     H29647   6.611   4.973   0.928 -0.8447 -1.6186 -1.6861
  225MOL0     H29648   6.769   4.912   0.975  0.5089  0.5880 -0.3437
  225MOL0     H29649   6.623   4.879   0.709 -1.6080  1.3102  2.3268
  225MOL0     H29650   6.793   4.827   0.736 -0.1157  2.4282 -1.2443
  225MOL0     H29651   6.556   4.736   0.885  0.9867  3.9684 -1.0957
  225MOL0     H29652   6.727   4.657   0.872  1.8589  2.6316  0.0134
  225MOL0     H29653   6.468   4.773   0.618 -1.1932 -0.4032 -2.8748
  225MOL0     H29654   6.400   4.679   0.373  0.8713  0.0360 -0.8685
  225MOL0     H29655   6.297   4.575   0.474  2.0363  1.3952  4.5024
  225MOL0     H29656   6.395   4.377   0.358 -1.4253  0.8028  1.6445
  225MOL0     H29657   6.492   4.480   0.253 -1.1598  1.2991  0.2289
  225MOL0     H29658   6.275   4.389   0.160 -2.3381  1.2439  0.6075
  225MOL0     H29659   6.193   4.497   0.255 -1.5314  2.2073 -2.2340
  225MOL0     H29660   6.223   4.584   0.038  1.0215 -3.0383 -0.3701
  225MOL0     H29661   6.400   4.573   0.038 -1.2998  3.8648 -2.3339
  225MOL0     H29662   6.143   4.917   0.137  0.7089 -0.9985 -0.0640
  225MOL0     H29663   6.140   5.126  -0.029 -0.8318 -1.3238 -0.1635
  225MOL0     H29664   6.373   5.117  -0.581  1.0222  0.4880 -0.6733
  225MOL0     H29665   6.353   5.286  -0.747 -0.9284  0.3647  0.4281
  225MOL0     H29666   6.217   5.640  -0.838  0.3881  1.1102  1.8373
  225MOL0     H29667   6.224   5.463  -0.804  0.9960  0.1593  0.7669
  225MOL0     H29668   6.452   5.468  -0.935 -1.1208 -3.2129 -1.7790
  225MOL0     H29669   6.414   5.646  -0.961  1.4226 -0.4182  0.9273
  225MOL0     H29670   6.204   5.565  -1.072  1.0104  1.5430 -1.1472
  225MOL0     H29671   6.281   5.391  -1.060 -0.8898 -0.5543 -2.2894
  225MOL0     H29672   6.319   5.589  -1.256 -0.8333 -1.2185 -0.1900
  225MOL0     H29673   6.471   5.530  -1.188 -0.9609  1.5985  2.7576
  225MOL0     H29674   6.371   5.297  -1.235 -0.5159 -0.5509 -0.0967
  225MOL0     H29675   6.386   5.389  -1.380 -2.6335 -0.2250 -0.3637
  225MOL0     H29676   6.162   5.452  -1.398 -2.6011  0.5247  0.7315
  225MOL0     H29677   6.113   5.392  -1.236 -0.4133  0.3220 -1.2471
  225MOL0     H29678   6.214   5.168  -1.323  2.0777  2.1911  1.2332
  225MOL0     H29679   6.046   5.207  -1.349  0.2255 -2.9668 -1.7697
  225MOL0     H29680   6.146   5.310  -1.585  1.9890  2.7441  3.3577
  225MOL0     H29681   6.124   5.133  -1.580  0.7024  0.8804 -1.5097
  225MOL0     H29682   6.388   5.606  -0.460  1.5719  2.0999 -4.9277
  225MOL0     H29683   6.452   5.416  -0.288 -0.4290 -2.5730  0.2964
  225MOL0     H29684   6.516   4.975  -0.182  1.4316  0.3551 -0.0464
  225MOL0     H29685   6.507   4.779  -0.042  2.9111  1.9486  2.9787
  225MOL0     H29686   6.947   5.783   0.638  0.0159 -0.0185  0.2296
  225MOL0     H29687   6.900   6.019   0.661 -1.1692 -0.6112 -0.2837
  225MOL0     H29688   6.613   6.355   0.405  2.6160 -1.1541  0.5267
  225MOL0     H29689   6.607   6.597   0.340  0.6555  1.1215 -0.2404
  225MOL0     H29690   6.666   6.807   0.632 -0.5911 -0.2734  1.1940
  225MOL0     H29691   6.629   6.929   0.507  2.3306  0.4226 -1.9140
  225MOL0     H29692   6.920   6.892   0.592  1.5368  1.0482 -0.6796
  225MOL0     H29693   6.859   6.989   0.473 -0.7396  2.6611  1.3083
  225MOL0     H29694   6.706   7.104   0.638  1.9852 -0.8834 -5.4187
  225MOL0     H29695   6.881   7.124   0.668 -0.4410  0.7405  0.1644
  225MOL0     H29696   6.873   6.925   0.821 -0.6999 -2.3898 -1.8761
  225MOL0     H29697   6.808   7.078   0.884 -1.6664  2.1127 -2.3320
  225MOL0     H29698   6.464   6.839   0.895  1.3414 -0.2681  0.2946
  225MOL0     H29699   6.877   6.698   0.642  0.4050  0.6641 -0.2823
  225MOL0     H29700   6.890   6.443   0.713 -0.9928 -3.7675 -0.8937
  226MOL0     O29701   2.589   8.095   1.518 -0.5074  0.4519  0.5363
  226MOL0     C29702   2.637   8.118   1.629  0.2399 -0.3462  0.1431
  226MOL0     O29703   2.686   8.246   1.671 -0.3565 -0.3096  0.7195
  226MOL0     C29704   2.686   8.345   1.579  1.1563  0.5873 -0.3100
  226MOL0     C29705   2.561   8.399   1.533  0.2919  0.3372 -0.7496
  226MOL0     C29706   2.564   8.509   1.445 -0.0818 -0.6989 -0.3584
  226MOL0     C29707   2.680   8.583   1.416  0.0221  0.5478 -0.2686
  226MOL0     O29708   2.697   8.693   1.348 -0.1074 -0.3783  0.5331
  226MOL0     C29709   2.589   8.748   1.267  0.8824  0.4713  0.4696
  226MOL0     C29710   2.559   8.669   1.139  0.0876  0.5538  0.3832
  226MOL0     C29711   2.527   8.740   1.007  1.6412 -0.6989  0.4594
  226MOL0     C29712   2.373   8.761   0.996  0.3386 -0.2028  0.7594
  226MOL0     C29713   2.344   8.878   0.899  0.7608 -0.1504  0.2675
  226MOL0     C29714   2.346   9.016   0.970  0.3191 -0.5139  0.0868
  226MOL0     C29715   2.360   9.130   0.867 -0.7902  0.4930 -0.3537
  226MOL0     C29716   2.360   9.262   0.946  0.1112 -0.3232 -0.0307
  226MOL0     N29717   2.481   9.278   1.032  0.6255  0.1898 -0.2998
  226MOL0     C29718   2.609   9.281   0.997  0.0181  0.2486  0.5369
  226MOL0     C29719   2.680   9.259   1.117  0.1916  0.0665  0.1696
  226MOL0     C29720   2.825   9.279   1.139  0.5209 -0.5865  0.6422
  226MOL0     C29721   2.910   9.242   1.016 -0.3218  0.6404  0.8897
  226MOL0     C29722   2.892   9.098   0.956 -0.4290 -0.1934 -0.2284
  226MOL0     C29723   2.986   9.067   0.838  0.2616  0.4654 -0.5761
  226MOL0     O29724   2.944   8.938   0.794 -0.6801  0.8961  0.4060
  226MOL0     C29725   2.825   8.940   0.729 -0.5540  0.3051 -0.1158
  226MOL0     C29726   2.771   9.046   0.659 -0.1469  0.0709  0.4957
  226MOL0     C29727   2.650   9.036   0.590 -0.2009 -0.8768  0.0787
  226MOL0     C29728   2.585   8.921   0.597 -0.1918  0.3557 -0.0223
  226MOL0     C29729   2.452   8.910   0.528  0.3545  0.3075 -0.6024
  226MOL0     O29730   2.383   9.022   0.498  1.0477 -0.9263  0.7796
  226MOL0     C29731   2.254   9.015   0.448 -0.2596  0.7633  0.7333
  226MOL0     C29732   2.234   9.038   0.313 -0.3950  0.4614 -0.0684
  226MOL0     C29733   2.098   9.032   0.260  0.7253  0.0005 -0.0668
  226MOL0     C29734   1.998   8.986   0.342  0.4140  0.1485 -0.4014
  226MOL0     O29735   1.875   8.980   0.283  0.2429 -0.9928 -0.6344
  226MOL0     C29736   1.755   8.959   0.370  0.6245 -0.8710  0.4231
  226MOL0     C29737   1.629   8.953   0.276  0.1173 -0.3914 -0.4053
  226MOL0     C29738   1.638   9.038   0.149  0.0094  0.4435 -0.5721
  226MOL0     C29739   1.652   9.188   0.184  0.6723  0.1440 -0.6619
  226MOL0     C29740   1.654   9.292   0.078 -0.8083  0.0204  0.2928
  226MOL0     C29741   1.754   9.268  -0.030  0.4805 -1.1734  0.3362
  226MOL0     C29742   1.904   9.274   0.018 -1.5968  0.1153  0.5900
  226MOL0     C29743   1.981   9.198  -0.101  0.2906  0.2498 -0.5253
  226MOL0    Cl29744   1.978   9.305  -0.258  0.4110 -0.9228 -0.0615
  226MOL0     C29745   2.021   8.953   0.472  0.1403  0.4432 -0.0822
  226MOL0     C29746   2.147   8.966   0.526  0.4140 -0.1829  0.3704
  226MOL0     O29747   2.405   8.797   0.521 -0.2436  0.7353  0.5313
  226MOL0     C29748   2.633   8.812   0.660 -0.3310  0.2895  0.9982
  226MOL0     C29749   2.756   8.823   0.723  0.4341 -0.2971  0.4029
  226MOL0     N29750   2.585   9.267   1.218 -0.5666  1.0949  0.4585
  226MOL0     N29751   2.470   9.259   1.161 -0.6190 -0.3792 -0.3303
  226MOL0     C29752   2.795   8.536   1.477  0.4572  0.0985  0.0753
  226MOL0     C29753   2.800   8.419   1.554  0.6057 -0.5249 -0.0749
  226MOL0     C29754   2.633   8.009   1.730 -0.8357 -1.0357  0.5109
  226MOL0     C29755   2.650   8.040   1.866 -0.2455  0.0614  0.4958
  226MOL0     C29756   2.675   7.945   1.961 -1.5089 -0.1581  0.8234
  226MOL0     C29757   2.656   7.808   1.925  0.9550  0.4158  0.3519
  226MOL0     O29758   2.686   7.707   2.010  0.0213  0.5537 -0.8578
  226MOL0     C29759   2.795   7.719   2.105  0.1893  0.3519 -0.3913
  226MOL0     C29760   2.846   7.582   2.166  0.0055 -1.1378 -0.4880
  226MOL0     C29761   2.984   7.594   2.237 -0.0986  0.5453  0.3038
  226MOL0     C29762   3.012   7.447   2.308  0.0927 -0.0763 -0.0035
  226MOL0     C29763   3.006   7.338   2.208 -0.7440  1.2746 -0.0061
  226MOL0     C29764   3.016   7.255   2.116  0.6899 -0.1254  0.8150
  226MOL0     C29765   2.619   7.770   1.799 -0.3858  0.4197 -0.7770
  226MOL0     C29766   2.622   7.869   1.702  0.5034 -0.4576  0.4735
  226MOL0     H29767   2.473   8.339   1.553  1.1498 -0.4775  0.8878
  226MOL0     H29768   2.465   8.539   1.410 -1.2175 -0.9698  2.3514
  226MOL0     H29769   2.607   8.850   1.233  0.4934 -0.1727 -1.9280
  226MOL0     H29770   2.497   8.752   1.326  0.8388  1.5158  0.3526
  226MOL0     H29771   2.488   8.586   1.150 -1.0781  1.4713 -0.0820
  226MOL0     H29772   2.655   8.621   1.118  0.1578  1.0570 -0.4891
  226MOL0     H29773   2.557   8.677   0.922  1.1743  0.0083 -0.2484
  226MOL0     H29774   2.567   8.841   1.006  0.6924 -0.2893 -1.4966
  226MOL0     H29775   2.321   8.676   0.952  0.9114 -0.5028  0.6534
  226MOL0     H29776   2.331   8.783   1.095 -2.7859  3.3227 -1.0844
  226MOL0     H29777   2.244   8.876   0.857  0.8317  1.2423 -0.0232
  226MOL0     H29778   2.419   8.874   0.819  1.5301  1.5451  0.8462
  226MOL0     H29779   2.426   9.007   1.044  0.6668 -2.5318 -0.4586
  226MOL0     H29780   2.254   9.045   1.023  0.1813  1.8896 -1.3263
  226MOL0     H29781   2.454   9.123   0.811 -1.4149  1.6819 -1.6276
  226MOL0     H29782   2.280   9.124   0.792  1.2841 -4.7663 -2.6687
  226MOL0     H29783   2.263   9.264   0.997 -2.6527 -6.2695 -3.8311
  226MOL0     H29784   2.374   9.341   0.872  3.7344 -0.8550 -0.0910
  226MOL0     H29785   2.656   9.290   0.900 -3.2543  0.9109 -1.1120
  226MOL0     H29786   2.854   9.232   1.233  3.2204 -4.0620 -1.6276
  226MOL0     H29787   2.849   9.383   1.162 -0.0352  0.4900 -2.9802
  226MOL0     H29788   3.016   9.251   1.038  0.4156  1.6127 -2.4400
  226MOL0     H29789   2.894   9.323   0.945  1.4310  1.1225  1.0024
  226MOL0     H29790   2.917   9.018   1.027 -3.7355  0.1396  1.5405
  226MOL0     H29791   2.790   9.099   0.915  0.7930  0.7678 -3.4781
  226MOL0     H29792   3.087   9.064   0.882  0.5426 -3.1917 -1.1688
  226MOL0     H29793   2.990   9.155   0.773  1.9521  1.3347  0.6306
  226MOL0     H29794   2.821   9.142   0.645 -0.1841  0.0039 -0.1541
  226MOL0     H29795   2.611   9.118   0.529 -0.4150 -0.7577  0.3781
  226MOL0     H29796   2.320   9.064   0.252 -0.4210 -2.8903 -1.7712
  226MOL0     H29797   2.080   9.048   0.155 -2.1134  0.0795  0.3627
  226MOL0     H29798   1.733   9.046   0.433 -1.0394  1.0339 -2.5312
  226MOL0     H29799   1.763   8.866   0.427 -1.0598 -1.1484  0.2535
  226MOL0     H29800   1.540   8.970   0.338  0.8172 -3.2611  1.5995
  226MOL0     H29801   1.623   8.854   0.230 -3.0901  1.2151 -4.0342
  226MOL0     H29802   1.544   9.032   0.093 -0.6825  2.7112  0.2530
  226MOL0     H29803   1.724   9.010   0.087 -1.2806 -0.6059 -1.9508
  226MOL0     H29804   1.572   9.204   0.257 -0.5313  0.2895 -1.9715
  226MOL0     H29805   1.745   9.213   0.236  1.0880  0.2146 -1.4317
  226MOL0     H29806   1.682   9.392   0.113  1.2199 -0.0222 -1.0994
  226MOL0     H29807   1.554   9.295   0.034 -1.2166 -1.7469  0.9993
  226MOL0     H29808   1.745   9.359  -0.090  2.0517  0.0915  1.9134
  226MOL0     H29809   1.730   9.172  -0.076 -1.3907 -2.7442  4.1464
  226MOL0     H29810   1.932   9.379   0.028  3.3125 -0.2668 -4.3563
  226MOL0     H29811   1.925   9.221   0.111 -3.0662  0.4361  1.1287
  226MOL0     H29812   1.954   9.093  -0.119  3.7349 -0.7812 -0.4082
  226MOL0     H29813   2.088   9.188  -0.080  0.6121 -0.6402 -2.4160
  226MOL0     H29814   1.938   8.917   0.533 -0.3896  0.1042 -0.9759
  226MOL0     H29815   2.164   8.946   0.632  2.7834 -0.4434  0.0009
  226MOL0     H29816   2.574   8.720   0.665 -2.7247  1.5685 -1.2534
  226MOL0     H29817   2.775   8.735   0.783  1.8270  0.0348  0.4815
  226MOL0     H29818   2.884   8.596   1.464 -0.1064  0.7324 -1.0282
  226MOL0     H29819   2.895   8.390   1.598  1.0694  0.7750 -0.1854
  226MOL0     H29820   2.649   8.142   1.902  1.4616  1.5841 -3.3214
  226MOL0     H29821   2.694   7.965   2.066  2.0608  1.6895 -0.0142
  226MOL0     H29822   2.764   7.794   2.178  0.0562  0.8077 -0.9016
  226MOL0     H29823   2.878   7.755   2.043 -0.7080 -1.1033 -2.5368
  226MOL0     H29824   2.787   7.557   2.255  1.7723 -0.3390  0.9695
  226MOL0     H29825   2.850   7.507   2.087 -2.8526 -1.4523 -0.4256
  226MOL0     H29826   2.987   7.680   2.304  1.4645 -0.1624  1.2117
  226MOL0     H29827   3.068   7.605   2.168 -0.1451  3.2209  0.5977
  226MOL0     H29828   3.113   7.451   2.350  0.0941  1.6197 -0.1117
  226MOL0     H29829   2.950   7.423   2.395 -0.5327 -0.5014 -0.5605
  226MOL0     H29830   3.010   7.182   2.038 -1.3397 -3.0191  3.4344
  226MOL0     H29831   2.586   7.667   1.787 -0.1954  0.2578  0.0461
  226MOL0     H29832   2.603   7.835   1.600 -3.2494  0.8923  0.5416
  227MOL0     O29833   7.635   3.619   5.204 -0.0814  0.0794 -0.4651
  227MOL0     C29834   7.545   3.670   5.143  0.5742 -0.1126  0.0202
  227MOL0     O29835   7.522   3.810   5.120 -0.2609  0.7094  0.2150
  227MOL0     C29836   7.632   3.886   5.148  0.3942 -0.6697 -0.0934
  227MOL0     C29837   7.752   3.888   5.070 -1.0154 -0.5576  0.3147
  227MOL0     C29838   7.864   3.965   5.119 -0.4059  1.0152  0.7084
  227MOL0     C29839   7.852   4.061   5.211  0.1510 -0.0916  0.8915
  227MOL0     O29840   7.957   4.143   5.258  0.1350 -0.1816  0.2921
  227MOL0     C29841   8.074   4.169   5.166 -0.1571 -0.2939 -0.7584
  227MOL0     C29842   8.147   4.301   5.209 -0.4067  0.3088  0.0269
  227MOL0     C29843   8.267   4.334   5.114 -0.3931 -0.6462  0.5234
  227MOL0     C29844   8.362   4.444   5.176 -0.2748  0.1464  0.0231
  227MOL0     C29845   8.502   4.461   5.104  0.4081  0.0689  0.3718
  227MOL0     C29846   8.519   4.600   5.046  0.3533 -0.4340 -0.1834
  227MOL0     C29847   8.669   4.623   5.020  0.2044  0.2085  0.4063
  227MOL0     C29848   8.689   4.746   4.942 -0.6535 -1.0131 -0.0179
  227MOL0     N29849   8.838   4.785   4.938 -0.0143  0.0378 -0.4020
  227MOL0     C29850   8.927   4.773   5.051 -0.7190 -1.6629  0.0834
  227MOL0     C29851   9.033   4.857   5.008  0.6266 -0.6842 -0.2145
  227MOL0     C29852   9.150   4.888   5.087 -0.4547  0.6072 -0.1445
  227MOL0     C29853   9.249   4.771   5.080  0.2046 -0.4351  1.1855
  227MOL0     C29854   9.352   4.775   5.193  0.1930  0.2987 -0.0349
  227MOL0     C29855   9.450   4.899   5.179 -0.4714  0.1225 -0.9078
  227MOL0     O29856   9.575   4.861   5.236  0.0135 -0.3663  0.5650
  227MOL0     C29857   9.677   4.897   5.155  1.2653 -0.3146 -0.2809
  227MOL0     C29858   9.728   5.022   5.138  1.1201 -0.0261 -0.2246
  227MOL0     C29859   9.838   5.044   5.056  0.4783 -0.6264  0.2982
  227MOL0     C29860   9.909   4.934   4.999 -0.4507  0.5569  0.6319
  227MOL0     C29861  10.023   4.955   4.906  0.5688 -0.1177 -1.2203
  227MOL0     O29862  10.077   4.851   4.836  0.4283 -0.4496 -0.4743
  227MOL0     C29863  10.177   4.876   4.743 -0.4471 -0.2579 -0.8320
  227MOL0     C29864  10.171   4.940   4.622 -0.3895 -0.1548  0.6018
  227MOL0     C29865  10.286   4.964   4.544  0.6588 -0.3818 -0.0435
  227MOL0     C29866  10.409   4.924   4.587  0.8986 -0.3434 -0.2532
  227MOL0     O29867  10.526   4.944   4.514 -0.3225 -0.2136 -0.2715
  227MOL0     C29868  10.521   5.036   4.400 -0.4278 -0.5508 -0.6645
  227MOL0     C29869  10.655   5.036   4.334 -0.2055 -1.2099 -0.9628
  227MOL0     C29870  10.758   5.122   4.407  0.8136  0.4847  0.1608
  227MOL0     C29871  10.893   5.087   4.336  0.0149  0.3599  0.7335
  227MOL0     C29872  11.030   5.147   4.389 -0.6341 -0.4841 -0.4308
  227MOL0     C29873  11.054   5.291   4.348  0.6741  0.5554  0.3245
  227MOL0     C29874  11.178   5.339   4.418  0.4026 -0.7150  0.6491
  227MOL0     C29875  11.189   5.491   4.399  0.2515 -1.0741 -0.2241
  227MOL0    Cl29876  11.241   5.536   4.234 -0.0339  0.2694  0.1597
  227MOL0     C29877  10.422   4.870   4.716  0.0300  0.2155  0.8571
  227MOL0     C29878  10.306   4.845   4.788  0.0729 -0.5488 -0.4978
  227MOL0     O29879  10.058   5.067   4.909 -0.2743  0.5920 -0.0945
  227MOL0     C29880   9.856   4.806   5.022  0.7096  0.4310 -0.3138
  227MOL0     C29881   9.736   4.786   5.095 -0.3842  0.3251 -0.2996
  227MOL0     N29882   9.002   4.924   4.899  0.4231  0.0899  0.6789
  227MOL0     N29883   8.882   4.884   4.857  0.4057 -0.6090 -0.2613
  227MOL0     C29884   7.738   4.061   5.293  0.6298 -0.7637 -0.2860
  227MOL0     C29885   7.629   3.973   5.259 -0.1298  0.0198  0.3847
  227MOL0     C29886   7.446   3.570   5.101 -0.6990  1.1319  0.9711
  227MOL0     C29887   7.329   3.608   5.043  0.0846 -0.4754 -0.8378
  227MOL0     C29888   7.231   3.514   5.011 -0.2289  0.6876 -0.3308
  227MOL0     C29889   7.260   3.374   5.020  1.1513 -0.7796 -0.3219
  227MOL0     O29890   7.165   3.297   4.958  0.4703 -0.0463 -1.1344
  227MOL0     C29891   7.188   3.149   4.932  0.6123 -0.3565  0.5321
  227MOL0     C29892   7.056   3.089   4.960  0.6221  0.1990 -0.2283
  227MOL0     C29893   7.004   3.102   5.107 -0.7143  0.7342  0.0097
  227MOL0     C29894   7.110   3.052   5.206 -0.6048  0.0865 -0.9304
  227MOL0     C29895   7.142   2.906   5.194  0.6831 -0.5660  0.3386
  227MOL0     C29896   7.143   2.784   5.185  0.1119 -0.2823  0.0397
  227MOL0     C29897   7.380   3.332   5.073 -0.0526 -0.6136  0.6302
  227MOL0     C29898   7.468   3.428   5.115 -1.5510  0.6108 -0.6811
  227MOL0     H29899   7.746   3.810   4.995 -0.6771  0.0376 -0.3405
  227MOL0     H29900   7.954   3.946   5.061 -1.6303 -0.9362 -0.6812
  227MOL0     H29901   8.045   4.163   5.060 -0.6507 -0.6777 -0.6099
  227MOL0     H29902   8.130   4.079   5.194  1.5195  1.0319  0.3207
  227MOL0     H29903   8.175   4.292   5.314 -1.8143 -2.9423  0.2263
  227MOL0     H29904   8.071   4.380   5.211  0.9802  1.6741  1.1708
  227MOL0     H29905   8.231   4.370   5.018 -1.1136  0.0914  1.0630
  227MOL0     H29906   8.329   4.248   5.084  1.4931  0.6842  0.4293
  227MOL0     H29907   8.314   4.541   5.165  1.8106  1.0534 -1.9544
  227MOL0     H29908   8.384   4.427   5.282 -0.5506 -0.0233  0.0550
  227MOL0     H29909   8.519   4.381   5.032  1.8756  0.9382 -0.2725
  227MOL0     H29910   8.576   4.450   5.183 -1.6773 -2.5515  2.1294
  227MOL0     H29911   8.478   4.676   5.114  1.5289  0.7285 -0.7433
  227MOL0     H29912   8.457   4.613   4.956 -3.4235  3.0091  2.5290
  227MOL0     H29913   8.724   4.629   5.115 -1.8100 -1.2403  1.7523
  227MOL0     H29914   8.716   4.545   4.959  3.0874  1.8535  0.3620
  227MOL0     H29915   8.639   4.833   4.986  0.2681  0.7888 -2.3124
  227MOL0     H29916   8.649   4.755   4.840 -1.7900  2.9843  0.5819
  227MOL0     H29917   8.912   4.717   5.143  0.1835  0.6187  1.7245
  227MOL0     H29918   9.125   4.897   5.193 -0.0266 -3.0412  0.3895
  227MOL0     H29919   9.184   4.985   5.050  1.0754 -0.6859 -2.3289
  227MOL0     H29920   9.287   4.779   4.978 -0.2521  1.4403  1.1314
  227MOL0     H29921   9.192   4.678   5.085  1.1869 -1.0575  1.0304
  227MOL0     H29922   9.312   4.779   5.294  2.1506  1.9988  0.7611
  227MOL0     H29923   9.414   4.685   5.194  0.8006  0.6654 -1.3986
  227MOL0     H29924   9.414   4.981   5.241 -0.3503 -1.8041  1.9278
  227MOL0     H29925   9.446   4.925   5.073 -2.1241  0.8122 -0.7113
  227MOL0     H29926   9.672   5.096   5.194  0.6372  0.1135 -0.8779
  227MOL0     H29927   9.866   5.149   5.047  2.4371 -1.1436  0.0308
  227MOL0     H29928  10.078   4.966   4.571  1.0729  0.4900 -1.8771
  227MOL0     H29929  10.262   5.014   4.451  0.8432 -0.8104 -0.3232
  227MOL0     H29930  10.484   5.138   4.409  1.6167  0.2711 -1.1857
  227MOL0     H29931  10.448   4.996   4.328 -0.6563 -2.6104  0.5986
  227MOL0     H29932  10.651   5.070   4.230 -1.4863 -2.4793 -1.3671
  227MOL0     H29933  10.703   4.938   4.331  0.4232 -1.2741  4.0562
  227MOL0     H29934  10.764   5.097   4.513  2.0458  2.0886  0.5172
  227MOL0     H29935  10.725   5.226   4.393 -2.7016 -0.3301  1.2477
  227MOL0     H29936  10.910   4.979   4.343  0.9541  0.4332 -0.1318
  227MOL0     H29937  10.890   5.112   4.229  0.6772  2.3662  1.1445
  227MOL0     H29938  11.117   5.096   4.348 -1.0363 -0.8833 -0.8018
  227MOL0     H29939  11.016   5.157   4.497 -1.1438  2.6007 -0.6905
  227MOL0     H29940  10.967   5.349   4.380 -1.8959 -1.3879 -2.5271
  227MOL0     H29941  11.062   5.303   4.239 -2.3940  2.0570  0.1747
  227MOL0     H29942  11.193   5.304   4.521 -1.7731 -1.9919  0.5852
  227MOL0     H29943  11.264   5.307   4.358  0.3380 -3.0063  1.6599
  227MOL0     H29944  11.252   5.545   4.470  0.5482 -0.4819 -0.9224
  227MOL0     H29945  11.087   5.527   4.417  0.7957  0.2488  0.3644
  227MOL0     H29946  10.513   4.823   4.752 -0.1102  1.1807  2.6015
  227MOL0     H29947  10.320   4.807   4.889  4.1187  3.7752  0.9213
  227MOL0     H29948   9.901   4.719   4.975 -0.3357 -1.3701  1.8667
  227MOL0     H29949   9.691   4.687   5.095  3.3787 -1.5815  0.7168
  227MOL0     H29950   7.711   4.116   5.382 -0.2016  1.0133 -1.5863
  227MOL0     H29951   7.532   3.965   5.307 -0.7899 -1.1358 -1.0564
  227MOL0     H29952   7.313   3.713   5.019  3.9991  0.0331 -1.9130
  227MOL0     H29953   7.141   3.546   4.960 -2.0357  2.1939  3.3951
  227MOL0     H29954   7.268   3.102   4.990 -0.3896  0.1227  2.3903
  227MOL0     H29955   7.220   3.138   4.828  1.4889  1.7013  0.5375
  227MOL0     H29956   6.978   3.125   4.893  0.6984  1.1153  0.1607
  227MOL0     H29957   7.045   2.981   4.945 -0.9056  0.2879  0.0360
  227MOL0     H29958   6.914   3.041   5.116 -0.2409  0.0522  0.1343
  227MOL0     H29959   6.973   3.207   5.119 -0.9042  1.5909 -5.5290
  227MOL0     H29960   7.206   3.104   5.200 -0.2914 -0.3448  0.1445
  227MOL0     H29961   7.085   3.068   5.311  0.8844 -1.3386 -0.3171
  227MOL0     H29962   7.126   2.679   5.193  2.4089 -0.6585  0.7778
  227MOL0     H29963   7.406   3.227   5.088  0.5728 -0.4503  0.7132
  227MOL0     H29964   7.557   3.396   5.169  0.3925  3.1091 -2.1431
  228MOL0     O29965   1.797  11.423   3.083 -0.4209  1.0541 -0.1211
  228MOL0     C29966   1.787  11.493   3.179  0.7038 -0.2868 -1.4785
  228MOL0     O29967   1.676  11.550   3.222 -1.1269  0.0011 -0.5870
  228MOL0     C29968   1.568  11.540   3.141 -0.9143 -0.0088  0.0027
  228MOL0     C29969   1.538  11.630   3.040 -0.1196  0.1592  0.1112
  228MOL0     C29970   1.428  11.615   2.952  0.4471 -0.5358 -0.8057
  228MOL0     C29971   1.339  11.511   2.986 -0.8781  0.0791  1.3413
  228MOL0     O29972   1.222  11.494   2.914 -0.6656  0.2217  0.1178
  228MOL0     C29973   1.153  11.611   2.869  0.7565 -0.2675  0.2677
  228MOL0     C29974   0.998  11.575   2.853 -0.3590 -0.2517  0.5590
  228MOL0     C29975   0.980  11.520   2.710 -0.6996 -0.7893 -1.0068
  228MOL0     C29976   0.838  11.469   2.690 -0.3840  0.1621 -0.0995
  228MOL0     C29977   0.842  11.383   2.560  0.2988  0.6453  0.6235
  228MOL0     C29978   0.702  11.327   2.516 -0.2619 -0.3843  0.3445
  228MOL0     C29979   0.613  11.447   2.486  0.4983 -0.1604  0.1983
  228MOL0     C29980   0.502  11.389   2.407  0.2308 -1.2121  0.1299
  228MOL0     N29981   0.402  11.495   2.376  0.4824 -1.0544  0.6360
  228MOL0     C29982   0.311  11.563   2.449 -0.6518  0.3390 -0.1824
  228MOL0     C29983   0.244  11.653   2.376  0.1699 -0.3088  0.0780
  228MOL0     C29984   0.158  11.761   2.419  0.5117  0.3337  0.2571
  228MOL0     C29985   0.031  11.701   2.473  0.1052 -0.0763 -0.4760
  228MOL0     C29986  -0.067  11.816   2.530  0.3191  0.4302 -0.3337
  228MOL0     C29987  -0.182  11.746   2.602 -0.1910 -0.5223  0.0647
  228MOL0     O29988  -0.123  11.694   2.718 -0.1660 -0.1419 -0.6240
  228MOL0     C29989  -0.200  11.707   2.832 -1.8022  0.0667 -0.2013
  228MOL0     C29990  -0.264  11.826   2.868  1.5020 -0.5454  0.2857
  228MOL0     C29991  -0.340  11.823   2.986 -0.1087 -0.5351  0.1611
  228MOL0     C29992  -0.353  11.710   3.070 -0.5333 -0.4180  0.8915
  228MOL0     C29993  -0.445  11.725   3.191  0.4831  0.9803  0.2970
  228MOL0     O29994  -0.417  11.623   3.278 -0.1050  0.6744 -0.1908
  228MOL0     C29995  -0.507  11.591   3.375 -0.1291  0.5561  0.1300
  228MOL0     C29996  -0.631  11.538   3.341 -0.4019  0.8949  0.0527
  228MOL0     C29997  -0.731  11.517   3.439 -0.0544  0.9043  0.9548
  228MOL0     C29998  -0.717  11.556   3.568  1.1375  0.7575 -0.0283
  228MOL0     O29999  -0.821  11.555   3.662  0.2275 -0.4695  0.5415
  228MOL0     C30000  -0.874  11.428   3.681 -0.6163 -0.4867  0.2207
  228MOL0     C30001  -0.813  11.360   3.803  0.1981 -0.2196 -0.8002
  228MOL0     C30002  -0.894  11.386   3.931  0.1091 -0.3211 -0.0965
  228MOL0     C30003  -0.842  11.500   4.021  0.3246  0.5003 -0.1471
  228MOL0     C30004  -0.945  11.570   4.108  0.2722  0.3575 -0.5227
  228MOL0     C30005  -0.984  11.498   4.235 -0.9841 -0.5952 -0.8523
  228MOL0     C30006  -1.036  11.359   4.225 -0.3959 -0.8997 -0.3007
  228MOL0     C30007  -1.177  11.352   4.165  1.0058  0.5805 -0.9695
  228MOL0    Cl30008  -1.264  11.239   4.265  0.6125 -0.1039  0.4819
  228MOL0     C30009  -0.593  11.594   3.610 -0.6806 -0.3505 -0.5875
  228MOL0     C30010  -0.480  11.610   3.519 -0.1159  0.0635 -0.2328
  228MOL0     O30011  -0.517  11.819   3.215 -0.5561 -0.7439  0.6499
  228MOL0     C30012  -0.278  11.600   3.030  0.0296 -0.1842 -0.8304
  228MOL0     C30013  -0.204  11.598   2.912 -0.8014  0.8763 -0.0659
  228MOL0     N30014   0.290  11.639   2.240 -0.3858  0.2564 -0.5467
  228MOL0     N30015   0.381  11.545   2.248 -0.9855 -0.1107 -0.8653
  228MOL0     C30016   1.374  11.414   3.073  0.2552 -0.2829  0.1023
  228MOL0     C30017   1.490  11.433   3.154 -0.7072  0.9989  0.7526
  228MOL0     C30018   1.910  11.508   3.265 -0.0011  0.5648 -0.1852
  228MOL0     C30019   2.033  11.438   3.241  0.5386  0.3928  0.5481
  228MOL0     C30020   2.155  11.477   3.304  0.2705  1.0554  0.4763
  228MOL0     C30021   2.153  11.575   3.402  1.3501 -0.6893 -0.2643
  228MOL0     O30022   2.260  11.626   3.464  0.4010 -1.1885 -0.1144
  228MOL0     C30023   2.391  11.587   3.434 -0.3942  1.1073 -0.3250
  228MOL0     C30024   2.481  11.711   3.459 -0.1647  0.3507  0.6965
  228MOL0     C30025   2.489  11.770   3.596 -0.2763 -0.4989 -0.2268
  228MOL0     C30026   2.517  11.657   3.699 -0.1985  0.6769 -0.4918
  228MOL0     C30027   2.644  11.586   3.675  0.9965  0.0686 -0.0841
  228MOL0     C30028   2.757  11.546   3.666  0.2969  0.0652 -0.2284
  228MOL0     C30029   2.029  11.634   3.432 -0.0622 -0.3806 -0.2272
  228MOL0     C30030   1.912  11.610   3.360  0.5634 -0.0235  0.1167
  228MOL0     H30031   1.600  11.718   3.020 -0.3582  0.2002 -0.4570
  228MOL0     H30032   1.410  11.680   2.867 -1.2322  0.6487  0.4056
  228MOL0     H30033   1.191  11.644   2.772 -3.0499  0.6817 -1.1073
  228MOL0     H30034   1.164  11.694   2.939  0.1755  0.8306 -0.8876
  228MOL0     H30035   0.938  11.666   2.863 -1.5337 -0.5322 -2.8120
  228MOL0     H30036   0.960  11.518   2.939  2.6605  1.2736  3.1413
  228MOL0     H30037   1.053  11.438   2.708 -1.6898 -2.1791  4.2097
  228MOL0     H30038   0.999  11.593   2.631 -1.7001  0.4994 -0.0939
  228MOL0     H30039   0.803  11.414   2.777 -2.2957  1.5143  0.0580
  228MOL0     H30040   0.772  11.555   2.678 -0.7098 -0.0436  0.2234
  228MOL0     H30041   0.902  11.292   2.570 -1.4548 -0.8162 -1.3703
  228MOL0     H30042   0.866  11.440   2.470  1.7713 -0.9951 -0.0829
  228MOL0     H30043   0.649  11.265   2.590 -0.1781  1.8034  2.3331
  228MOL0     H30044   0.732  11.275   2.425  0.2141  0.8107 -0.1855
  228MOL0     H30045   0.574  11.492   2.578  0.7328  3.3782 -1.2864
  228MOL0     H30046   0.655  11.530   2.429 -1.9317 -0.6310 -2.4898
  228MOL0     H30047   0.458  11.303   2.459  1.2919 -0.4831  2.3178
  228MOL0     H30048   0.550  11.349   2.317  2.4076 -1.5991  1.3972
  228MOL0     H30049   0.316  11.551   2.557 -3.5791 -0.4007 -0.0345
  228MOL0     H30050   0.127  11.804   2.323  1.9253  2.5953  0.7225
  228MOL0     H30051   0.206  11.846   2.468 -1.1617  2.4840 -1.5515
  228MOL0     H30052   0.056  11.632   2.554  0.8110  0.5048 -0.1872
  228MOL0     H30053  -0.015  11.633   2.401 -3.4455 -0.3433  1.7456
  228MOL0     H30054  -0.025  11.869   2.616  0.3605 -0.2614  0.0791
  228MOL0     H30055  -0.088  11.888   2.450 -0.1001  0.3830 -0.2671
  228MOL0     H30056  -0.228  11.666   2.543  0.0328 -1.0107  0.5426
  228MOL0     H30057  -0.258  11.822   2.620 -1.8584 -2.4962  1.8854
  228MOL0     H30058  -0.262  11.917   2.808  2.3672 -2.7408 -3.3567
  228MOL0     H30059  -0.391  11.916   3.010 -1.1353 -1.0739  0.1396
  228MOL0     H30060  -0.660  11.533   3.237 -2.1317 -1.7817  0.5585
  228MOL0     H30061  -0.823  11.487   3.392  0.2524  3.9428 -1.9709
  228MOL0     H30062  -0.862  11.362   3.594 -2.9932 -1.8862  0.8704
  228MOL0     H30063  -0.983  11.445   3.680 -0.4075  1.0664 -0.8556
  228MOL0     H30064  -0.705  11.369   3.821  0.1378 -0.4472 -0.3144
  228MOL0     H30065  -0.820  11.253   3.786 -4.2873  0.1566 -2.5454
  228MOL0     H30066  -0.892  11.293   3.988 -5.2239 -1.3311 -1.0283
  228MOL0     H30067  -1.000  11.402   3.911 -0.4433 -1.8775  1.3483
  228MOL0     H30068  -0.758  11.477   4.086  1.2596  4.0881  0.1488
  228MOL0     H30069  -0.805  11.575   3.950 -0.0283  1.1432  0.3364
  228MOL0     H30070  -1.042  11.592   4.063 -0.0590  0.4874  0.2567
  228MOL0     H30071  -0.893  11.659   4.145 -2.9176  2.1822 -0.1320
  228MOL0     H30072  -1.055  11.564   4.286 -0.3176  0.0451 -0.7493
  228MOL0     H30073  -0.886  11.492   4.283 -0.4532  0.0090 -1.8453
  228MOL0     H30074  -0.969  11.286   4.178 -1.3665 -2.5907  0.8178
  228MOL0     H30075  -1.043  11.318   4.326  0.2696  1.1011  0.6061
  228MOL0     H30076  -1.186  11.314   4.063 -2.9874  0.9742 -0.8940
  228MOL0     H30077  -1.230  11.448   4.175  1.5102  0.9557 -1.7603
  228MOL0     H30078  -0.568  11.625   3.712  1.6364 -0.3011 -1.1175
  228MOL0     H30079  -0.383  11.639   3.558 -1.7569 -1.8610  6.6873
  228MOL0     H30080  -0.270  11.517   3.099  3.2612  0.5762 -0.1463
  228MOL0     H30081  -0.151  11.506   2.889 -0.2173  0.8925  1.0900
  228MOL0     H30082   1.316  11.327   3.102  2.2271 -1.7798 -0.2245
  228MOL0     H30083   1.504  11.354   3.227 -3.8942 -0.0287  0.4239
  228MOL0     H30084   2.024  11.375   3.153 -0.9898  0.8700  0.3378
  228MOL0     H30085   2.242  11.422   3.273 -0.0382  1.3923 -1.0439
  228MOL0     H30086   2.411  11.541   3.337 -1.4219  3.4458 -1.7150
  228MOL0     H30087   2.429  11.513   3.506  4.5317  2.8008 -0.8149
  228MOL0     H30088   2.583  11.693   3.423 -1.1940  0.3179 -2.4954
  228MOL0     H30089   2.441  11.783   3.387  0.4559  1.2122  1.1922
  228MOL0     H30090   2.398  11.821   3.629 -1.0672 -1.4239 -0.9276
  228MOL0     H30091   2.561  11.852   3.602 -2.4233  1.6258 -1.6603
  228MOL0     H30092   2.530  11.701   3.798  2.9829  2.7420 -1.6525
  228MOL0     H30093   2.432  11.590   3.716 -1.0522  1.9955  0.6823
  228MOL0     H30094   2.860  11.519   3.668  0.6865  1.5020 -0.1891
  228MOL0     H30095   2.037  11.718   3.500 -0.8159 -0.0658 -0.5178
  228MOL0     H30096   1.832  11.681   3.379  0.6915 -0.6062  3.6900
  229MOL0     O30097   3.148   6.763   1.040  0.3099  0.2097 -0.1076
  229MOL0     C30098   3.196   6.660   1.088  0.4481  0.1650 -0.5239
  229MOL0     O30099   3.148   6.606   1.206  0.8371  0.4604 -0.8259
  229MOL0     C30100   3.010   6.606   1.241  0.0570 -0.2192  0.8381
  229MOL0     C30101   2.915   6.702   1.201 -1.3594  0.7427 -0.2866
  229MOL0     C30102   2.781   6.688   1.236  0.6485 -0.5204 -0.0959
  229MOL0     C30103   2.727   6.582   1.311 -0.3049  0.4034 -0.5353
  229MOL0     O30104   2.593   6.572   1.328  0.1821 -0.0555 -0.2316
  229MOL0     C30105   2.521   6.449   1.359  0.1566 -0.2486 -0.6207
  229MOL0     C30106   2.377   6.486   1.405  0.4486 -0.3839 -0.1605
  229MOL0     C30107   2.297   6.522   1.273 -1.0692 -1.1159 -0.3764
  229MOL0     C30108   2.155   6.572   1.306  0.8255  0.1804 -0.1094
  229MOL0     C30109   2.096   6.632   1.179 -0.2756 -0.3586  0.1210
  229MOL0     C30110   2.159   6.767   1.158 -0.2004  0.0315  0.2073
  229MOL0     C30111   2.080   6.841   1.052  0.7562  0.0527  0.8626
  229MOL0     C30112   2.075   6.777   0.906 -0.7805  1.0318  0.0570
  229MOL0     N30113   2.040   6.883   0.808  1.2453  0.1581  0.1925
  229MOL0     C30114   2.083   6.891   0.676 -0.2182 -1.5753  0.8469
  229MOL0     C30115   1.992   6.972   0.615 -1.3764  0.7422  0.0692
  229MOL0     C30116   1.981   7.003   0.469  0.9540  0.3089  0.1988
  229MOL0     C30117   1.860   6.950   0.380 -0.3426  0.5989 -0.0376
  229MOL0     C30118   1.728   6.955   0.443 -0.6889  0.0217  0.7687
  229MOL0     C30119   1.608   6.919   0.350  0.6656 -0.6129  0.3170
  229MOL0     O30120   1.587   7.034   0.262 -0.5776  0.6587  0.3192
  229MOL0     C30121   1.492   7.024   0.158 -0.0569 -1.0150 -1.2504
  229MOL0     C30122   1.412   6.916   0.140  0.5127  0.2741 -1.2397
  229MOL0     C30123   1.304   6.910   0.053  0.3955 -0.8190  1.5298
  229MOL0     C30124   1.292   7.017  -0.039  0.3571  1.6504 -0.0316
  229MOL0     C30125   1.204   6.998  -0.154  0.4201 -0.7380  0.1072
  229MOL0     O30126   1.234   7.061  -0.265 -0.3624  0.1866  1.1346
  229MOL0     C30127   1.155   7.065  -0.380  0.6392  0.0415 -0.1018
  229MOL0     C30128   1.232   7.040  -0.499  0.4809 -0.2682  0.5778
  229MOL0     C30129   1.159   7.019  -0.628  0.1454 -0.4018  0.3810
  229MOL0     C30130   1.015   7.028  -0.632  0.2565  0.1495 -0.8457
  229MOL0     O30131   0.951   7.012  -0.749  0.2430 -0.7522  0.2210
  229MOL0     C30132   0.877   7.129  -0.802 -1.2182  0.2641 -0.1040
  229MOL0     C30133   0.882   7.126  -0.955  0.6096 -0.1771 -0.1777
  229MOL0     C30134   1.017   7.129  -1.021  0.2541 -0.6946  0.3354
  229MOL0     C30135   1.087   7.272  -1.007 -0.4872  0.1121 -0.0701
  229MOL0     C30136   1.245   7.282  -1.043 -0.1568 -0.6091 -0.6735
  229MOL0     C30137   1.317   7.297  -0.908  0.4555  0.3160 -0.6745
  229MOL0     C30138   1.465   7.295  -0.951 -0.2075 -0.0688 -0.5706
  229MOL0     C30139   1.563   7.332  -0.831 -0.4758 -0.0941  0.1893
  229MOL0    Cl30140   1.566   7.238  -0.686  0.2853 -0.1241 -0.6385
  229MOL0     C30141   0.949   7.056  -0.511 -1.0488 -0.4607 -0.2445
  229MOL0     C30142   1.018   7.085  -0.388 -0.0511 -0.3086  0.0637
  229MOL0     O30143   1.094   6.958  -0.129  0.2837  1.0258  0.2339
  229MOL0     C30144   1.378   7.122  -0.034  0.0071  0.0982 -0.5648
  229MOL0     C30145   1.470   7.132   0.069 -0.2914  0.3890  0.6902
  229MOL0     N30146   1.908   7.016   0.707  0.3539 -0.9122  1.2936
  229MOL0     N30147   1.919   6.954   0.817  0.2327 -0.3677  0.5016
  229MOL0     C30148   2.828   6.489   1.362  0.5530 -0.2745 -0.0750
  229MOL0     C30149   2.965   6.499   1.312  0.9143  0.2488  0.2322
  229MOL0     C30150   3.310   6.603   1.034 -0.8439  0.6909 -0.6106
  229MOL0     C30151   3.363   6.649   0.908  0.1920 -0.4012 -0.6808
  229MOL0     C30152   3.475   6.589   0.849 -0.0574  0.0487  0.3482
  229MOL0     C30153   3.543   6.484   0.900  1.0296 -0.3456  0.7735
  229MOL0     O30154   3.646   6.421   0.840  0.4674 -0.5482  0.5518
  229MOL0     C30155   3.657   6.428   0.699 -0.3313 -0.8782  0.5678
  229MOL0     C30156   3.751   6.308   0.650 -0.7197 -0.2462 -0.5490
  229MOL0     C30157   3.729   6.265   0.502  0.1526 -0.3426  0.1718
  229MOL0     C30158   3.809   6.142   0.471  0.1036  0.7484 -0.4450
  229MOL0     C30159   3.948   6.153   0.497  0.4851  0.2567 -0.7470
  229MOL0     C30160   4.067   6.169   0.500  0.3814  0.3998  0.9994
  229MOL0     C30161   3.494   6.431   1.024 -0.9784 -0.9112  0.1070
  229MOL0     C30162   3.378   6.493   1.090  0.2754  0.6306  0.5923
  229MOL0     H30163   2.942   6.779   1.128  1.8940 -0.8810 -0.9989
  229MOL0     H30164   2.716   6.771   1.212 -0.2267 -0.3323  2.5556
  229MOL0     H30165   2.577   6.398   1.438  1.1334  0.0366 -1.1108
  229MOL0     H30166   2.516   6.389   1.267 -0.2373 -0.2822 -0.5814
  229MOL0     H30167   2.397   6.567   1.476  0.6737  0.5315 -1.2324
  229MOL0     H30168   2.324   6.415   1.469 -3.5846  2.0066 -0.5175
  229MOL0     H30169   2.284   6.433   1.211 -1.8911 -0.9450 -0.4517
  229MOL0     H30170   2.354   6.598   1.218 -1.9768  0.5553  0.8847
  229MOL0     H30171   2.094   6.486   1.338  2.9890 -0.2493  3.4328
  229MOL0     H30172   2.156   6.640   1.392  1.2659 -1.6463  1.3948
  229MOL0     H30173   1.990   6.643   1.201 -0.1042  0.1953  0.7011
  229MOL0     H30174   2.113   6.560   1.098  1.2087  0.8981 -0.7344
  229MOL0     H30175   2.261   6.759   1.119  1.5189  1.9761  3.8137
  229MOL0     H30176   2.155   6.828   1.249  0.0077  0.8316 -0.3142
  229MOL0     H30177   1.978   6.850   1.091  0.5672 -4.1343  1.8192
  229MOL0     H30178   2.134   6.935   1.036  1.1066 -0.2493  0.2381
  229MOL0     H30179   2.003   6.700   0.877  0.1588  0.8230 -1.8951
  229MOL0     H30180   2.167   6.728   0.873 -3.0191 -1.7686 -2.5868
  229MOL0     H30181   2.146   6.819   0.625  1.7851 -0.1654  1.2411
  229MOL0     H30182   2.071   6.967   0.419  0.2430 -3.9024  1.6123
  229MOL0     H30183   1.988   7.111   0.454  0.7694  0.4606  1.0978
  229MOL0     H30184   1.888   6.849   0.349  4.1389  0.7803  2.5356
  229MOL0     H30185   1.863   7.014   0.291  2.8125  0.5739 -0.0621
  229MOL0     H30186   1.711   6.902   0.538 -2.4944  2.1434  1.7185
  229MOL0     H30187   1.717   7.060   0.473 -3.2309 -0.2674  1.0157
  229MOL0     H30188   1.515   6.906   0.407  0.3392 -1.4743 -0.3875
  229MOL0     H30189   1.629   6.829   0.292  1.4825 -0.8275  0.9490
  229MOL0     H30190   1.429   6.828   0.202 -1.7760  1.6713  1.6671
  229MOL0     H30191   1.245   6.820   0.042  1.1879 -1.2534  0.6945
  229MOL0     H30192   1.340   7.037  -0.489  0.7448 -3.2721 -1.8104
  229MOL0     H30193   1.219   6.991  -0.715 -1.0559  0.8704 -0.9218
  229MOL0     H30194   0.927   7.222  -0.776 -0.8965  0.5150 -1.5056
  229MOL0     H30195   0.781   7.125  -0.750  0.4209 -1.5266  3.0437
  229MOL0     H30196   0.832   7.221  -0.976 -1.5434 -0.4520  2.9668
  229MOL0     H30197   0.839   7.036  -1.000  3.6170 -1.7220 -0.2272
  229MOL0     H30198   1.015   7.101  -1.126  0.8144 -1.3789  0.5002
  229MOL0     H30199   1.069   7.052  -0.962 -0.0579 -1.9372 -0.9536
  229MOL0     H30200   1.041   7.337  -1.081 -1.2956 -0.2836  0.0808
  229MOL0     H30201   1.062   7.323  -0.914 -1.9220  0.2247 -0.4973
  229MOL0     H30202   1.258   7.377  -1.096 -1.8961  1.3806  2.2053
  229MOL0     H30203   1.273   7.200  -1.110 -0.5887  0.6736 -2.5103
  229MOL0     H30204   1.299   7.229  -0.825 -1.0645  2.0910  0.5283
  229MOL0     H30205   1.297   7.399  -0.873  1.4529 -0.0229  0.9809
  229MOL0     H30206   1.483   7.193  -0.986 -1.1586  0.2576 -2.0757
  229MOL0     H30207   1.490   7.370  -1.027  0.8098 -0.4098 -0.5886
  229MOL0     H30208   1.544   7.439  -0.816  2.1773  0.9238 -2.6649
  229MOL0     H30209   1.666   7.328  -0.867 -0.5082  1.9994 -0.2355
  229MOL0     H30210   0.843   7.080  -0.515 -1.4419 -2.1774 -1.7386
  229MOL0     H30211   0.984   7.112  -0.288 -0.8101  0.7412 -0.4599
  229MOL0     H30212   1.372   7.202  -0.107  2.1471  1.2710  0.4259
  229MOL0     H30213   1.535   7.218   0.074 -0.8318  0.8512  6.5944
  229MOL0     H30214   2.805   6.397   1.416  1.0796 -0.2031  0.2755
  229MOL0     H30215   3.028   6.422   1.354  0.6880  1.4771  3.0034
  229MOL0     H30216   3.326   6.728   0.843 -1.0918 -1.3315 -1.1283
  229MOL0     H30217   3.514   6.630   0.757  1.7975 -0.4825  0.8625
  229MOL0     H30218   3.697   6.518   0.652  0.7557 -2.7438 -2.3213
  229MOL0     H30219   3.560   6.410   0.652  1.0146  0.1522 -2.9163
  229MOL0     H30220   3.854   6.332   0.678 -1.2572  1.0445  0.4687
  229MOL0     H30221   3.726   6.224   0.716 -0.3329 -0.9950 -1.3455
  229MOL0     H30222   3.770   6.333   0.427  1.0115 -3.7234 -2.7104
  229MOL0     H30223   3.627   6.238   0.471  0.4141  1.2558 -2.3495
  229MOL0     H30224   3.783   6.058   0.536  0.8417  0.3371 -0.6625
  229MOL0     H30225   3.795   6.115   0.366  1.2030 -0.7102 -0.2510
  229MOL0     H30226   4.167   6.203   0.479  0.2037 -0.9458 -2.6592
  229MOL0     H30227   3.537   6.344   1.072  0.2573 -0.9735 -1.0726
  229MOL0     H30228   3.350   6.456   1.188  0.2415  0.3596  0.4808
  230MOL0     O30229   4.098   6.321   9.124  0.1970  0.1668 -0.7210
  230MOL0     C30230   3.995   6.259   9.093 -0.4908 -0.1285  0.3389
  230MOL0     O30231   3.976   6.125   9.109  0.3644 -0.4598 -0.4385
  230MOL0     C30232   4.060   6.057   9.195 -0.2863 -0.4644 -0.4393
  230MOL0     C30233   4.175   5.997   9.136  0.1833 -0.0507 -0.3600
  230MOL0     C30234   4.259   5.923   9.221 -0.4279 -0.5471  1.0074
  230MOL0     C30235   4.243   5.931   9.358 -0.1321  0.7250 -0.3690
  230MOL0     O30236   4.327   5.855   9.440 -1.0446  0.4674 -0.1574
  230MOL0     C30237   4.470   5.864   9.431  0.9995  0.8299 -0.7469
  230MOL0     C30238   4.526   5.804   9.562 -0.4855  0.5277  0.4670
  230MOL0     C30239   4.464   5.882   9.687 -1.0993  0.0129 -0.1898
  230MOL0     C30240   4.470   6.038   9.667  0.4755  0.3462  0.6423
  230MOL0     C30241   4.475   6.111   9.802 -0.8893 -0.0826 -1.0183
  230MOL0     C30242   4.605   6.082   9.879 -0.3081 -0.6015 -0.7051
  230MOL0     C30243   4.592   6.163  10.018 -0.3187 -0.6285 -0.1950
  230MOL0     C30244   4.709   6.142  10.112 -0.3049 -0.9666  0.0073
  230MOL0     N30245   4.724   5.998  10.132 -0.1243  0.3549  0.7444
  230MOL0     C30246   4.637   5.925  10.205  0.8270 -0.9757 -0.8303
  230MOL0     C30247   4.673   5.800  10.200 -0.5447  0.2880 -0.7994
  230MOL0     C30248   4.608   5.678  10.260  0.2118 -0.7577 -0.1033
  230MOL0     C30249   4.575   5.704  10.405 -0.0594 -0.3132  0.3092
  230MOL0     C30250   4.433   5.764  10.418 -0.2187 -0.7635 -0.7892
  230MOL0     C30251   4.411   5.841  10.544  0.2734  0.2719  0.2791
  230MOL0     O30252   4.476   5.967  10.555 -0.6099 -0.7837 -0.0396
  230MOL0     C30253   4.431   6.076  10.476 -0.6471 -0.3999 -0.0828
  230MOL0     C30254   4.294   6.090  10.456 -0.2306  0.5263 -0.1251
  230MOL0     C30255   4.255   6.203  10.382 -0.3966 -0.5530 -0.1125
  230MOL0     C30256   4.348   6.297  10.333  0.2554 -0.4515 -0.8513
  230MOL0     C30257   4.301   6.430  10.272  0.2007  0.0218  1.3999
  230MOL0     O30258   4.179   6.476  10.312  0.5145 -0.5191  0.0680
  230MOL0     C30259   4.142   6.605  10.271 -0.3050  1.0609  0.0272
  230MOL0     C30260   4.087   6.686  10.368 -1.1992  0.7962 -0.3861
  230MOL0     C30261   4.022   6.796  10.336 -0.1677 -0.3177  0.2642
  230MOL0     C30262   4.022   6.840  10.201 -0.3853  0.4319 -0.1968
  230MOL0     O30263   3.971   6.961  10.163 -0.3498  0.1151  0.3541
  230MOL0     C30264   3.820   6.949  10.145 -0.0534  0.2853 -0.3478
  230MOL0     C30265   3.759   7.093  10.127 -0.6797  1.0177  0.2710
  230MOL0     C30266   3.602   7.087  10.097 -0.6467 -0.0923  0.6895
  230MOL0     C30267   3.572   7.234  10.093  0.3370 -0.5557  0.2236
  230MOL0     C30268   3.432   7.263  10.047  0.0639 -0.4178 -0.0537
  230MOL0     C30269   3.407   7.370   9.935  0.2010  1.6572  0.0489
  230MOL0     C30270   3.254   7.413   9.897 -0.3908 -1.1210 -0.6483
  230MOL0     C30271   3.247   7.486   9.765 -0.8553  0.3363 -0.5444
  230MOL0    Cl30272   3.346   7.641   9.770 -0.3133  0.4204 -0.4279
  230MOL0     C30273   4.088   6.770  10.104 -0.7679 -0.7805 -0.0792
  230MOL0     C30274   4.149   6.651  10.133  0.2324 -0.1045 -1.2001
  230MOL0     O30275   4.393   6.503  10.228 -0.2380 -0.2914  0.4411
  230MOL0     C30276   4.484   6.282  10.358  0.5092  0.4285 -0.0719
  230MOL0     C30277   4.520   6.177  10.435  0.7473 -0.1821 -0.3643
  230MOL0     N30278   4.785   5.792  10.121  0.2468  0.7283 -0.3432
  230MOL0     N30279   4.818   5.907  10.077 -0.2175 -0.1225 -0.8803
  230MOL0     C30280   4.139   5.995   9.410 -0.7167  0.3026 -0.6366
  230MOL0     C30281   4.045   6.057   9.334 -0.2104  0.9393  0.6542
  230MOL0     C30282   3.891   6.327   9.013  0.1703 -0.4127  0.6352
  230MOL0     C30283   3.893   6.472   9.000 -0.4483 -0.6545 -0.3385
  230MOL0     C30284   3.800   6.530   8.908 -0.5527  0.3369 -0.5350
  230MOL0     C30285   3.714   6.455   8.829  0.4401 -0.7286 -0.2759
  230MOL0     O30286   3.628   6.502   8.740  1.0725 -0.2686 -0.1277
  230MOL0     C30287   3.648   6.637   8.696 -0.9815  0.8800  0.3892
  230MOL0     C30288   3.752   6.640   8.577  1.0223 -0.9914 -0.2019
  230MOL0     C30289   3.703   6.577   8.447 -0.3785  0.6068 -0.2562
  230MOL0     C30290   3.794   6.578   8.325  0.3891  0.1172 -0.4721
  230MOL0     C30291   3.851   6.710   8.294  0.5001  0.1299  0.7610
  230MOL0     C30292   3.899   6.821   8.262  0.2051 -0.3836  0.1988
  230MOL0     C30293   3.720   6.319   8.847  0.0689 -0.1314 -0.3908
  230MOL0     C30294   3.799   6.258   8.936  1.0205 -0.5803 -0.4244
  230MOL0     H30295   4.179   5.997   9.027 -0.4134  1.7637 -0.4108
  230MOL0     H30296   4.343   5.870   9.177 -0.7249  1.1062 -1.8457
  230MOL0     H30297   4.506   5.967   9.419 -0.0338  1.1252 -1.4904
  230MOL0     H30298   4.512   5.809   9.346  2.5015  2.0692 -0.8538
  230MOL0     H30299   4.635   5.814   9.565 -0.5541  1.0988  1.3563
  230MOL0     H30300   4.497   5.699   9.561 -2.1924  0.9194 -2.5282
  230MOL0     H30301   4.520   5.840   9.771  2.5026  1.1380 -1.8340
  230MOL0     H30302   4.358   5.861   9.702 -1.1272  0.0703 -0.3075
  230MOL0     H30303   4.550   6.074   9.602  0.9133 -0.6515  0.6115
  230MOL0     H30304   4.380   6.055   9.607  3.0650  2.2955 -3.0682
  230MOL0     H30305   4.386   6.081   9.858 -1.5531  0.1696 -1.9141
  230MOL0     H30306   4.470   6.219   9.789 -0.4578  0.1035  0.2432
  230MOL0     H30307   4.690   6.131   9.831 -0.3429 -0.8948 -1.0750
  230MOL0     H30308   4.629   5.976   9.889  4.9078  0.5364  2.1006
  230MOL0     H30309   4.580   6.269   9.998 -2.5286 -0.5123  1.4536
  230MOL0     H30310   4.499   6.136  10.067  1.5753 -0.5748  3.8086
  230MOL0     H30311   4.689   6.191  10.207 -0.9334 -0.8652 -0.1716
  230MOL0     H30312   4.791   6.190  10.058 -0.1635 -0.6956  0.4577
  230MOL0     H30313   4.544   5.959  10.248  0.9989  0.3593 -1.4699
  230MOL0     H30314   4.682   5.598  10.246 -0.6179 -1.4412 -0.7498
  230MOL0     H30315   4.527   5.643  10.195  0.3784  1.1743 -1.4051
  230MOL0     H30316   4.645   5.767  10.460 -0.2567  0.1184  0.0737
  230MOL0     H30317   4.581   5.604  10.447  0.5902 -1.2332 -1.8183
  230MOL0     H30318   4.403   5.815  10.326 -2.5200  1.3157  0.9894
  230MOL0     H30319   4.360   5.683  10.424  1.5698 -2.4445 -0.8067
  230MOL0     H30320   4.452   5.777  10.623  2.5053 -0.9749 -1.7520
  230MOL0     H30321   4.302   5.845  10.551  0.1390  0.6196 -1.5193
  230MOL0     H30322   4.222   6.033  10.515 -0.4801  1.5678  0.6026
  230MOL0     H30323   4.148   6.222  10.380 -0.5382 -1.0153  1.4794
  230MOL0     H30324   4.087   6.643  10.468 -0.1077 -3.7611 -2.0522
  230MOL0     H30325   3.983   6.860  10.415  0.1922  3.1953 -2.1903
  230MOL0     H30326   3.783   6.907  10.239  2.3504  0.2916  0.6888
  230MOL0     H30327   3.804   6.878  10.064  0.9845 -2.4112  1.6181
  230MOL0     H30328   3.819   7.141  10.049  0.7616 -0.3493  0.4979
  230MOL0     H30329   3.768   7.162  10.211 -0.4955  0.3686  0.7846
  230MOL0     H30330   3.538   7.038  10.170 -3.0472  1.7854 -0.0524
  230MOL0     H30331   3.584   7.029  10.005 -1.6496  0.1854  0.7046
  230MOL0     H30332   3.581   7.273  10.195  2.0511 -1.4553  0.4399
  230MOL0     H30333   3.643   7.296  10.038 -0.7474 -0.5693 -1.2457
  230MOL0     H30334   3.373   7.294  10.134 -2.6708  2.4867 -2.7011
  230MOL0     H30335   3.389   7.170  10.009  0.7115 -1.8570  2.5024
  230MOL0     H30336   3.449   7.328   9.844 -0.6969  2.7871 -0.9105
  230MOL0     H30337   3.455   7.463   9.968  1.1885  0.1189  3.4946
  230MOL0     H30338   3.180   7.333   9.891 -3.1489  1.2267 -0.1874
  230MOL0     H30339   3.205   7.485   9.963  0.2909 -1.4311  0.2085
  230MOL0     H30340   3.145   7.522   9.748 -0.1077  3.2648  0.5706
  230MOL0     H30341   3.274   7.414   9.687  1.0253 -1.1274  1.3381
  230MOL0     H30342   4.100   6.819  10.007 -1.9426 -0.2914  0.0080
  230MOL0     H30343   4.209   6.594  10.063  2.4868  2.2390 -1.2961
  230MOL0     H30344   4.551   6.360  10.322  2.7646 -0.2316  2.4234
  230MOL0     H30345   4.622   6.164  10.470  0.9341 -1.0506 -1.1916
  230MOL0     H30346   4.127   5.993   9.518  3.4063  0.8815 -0.0235
  230MOL0     H30347   3.962   6.109   9.381  0.8627  5.6590 -1.9906
  230MOL0     H30348   3.945   6.545   9.060 -1.6720 -0.9763  1.1913
  230MOL0     H30349   3.814   6.638   8.896  1.1835  0.2943  0.6673
  230MOL0     H30350   3.674   6.709   8.774  0.5280 -0.0108  0.7599
  230MOL0     H30351   3.557   6.670   8.646  0.0762  4.5897  0.6315
  230MOL0     H30352   3.761   6.748   8.560  0.0294 -0.8032  0.3991
  230MOL0     H30353   3.852   6.603   8.604  1.4276  0.3769  0.2722
  230MOL0     H30354   3.606   6.617   8.414 -1.9554 -2.4143  0.3859
  230MOL0     H30355   3.679   6.473   8.471 -0.1064  1.1162  2.5801
  230MOL0     H30356   3.885   6.528   8.358  0.7062 -0.9953 -2.8314
  230MOL0     H30357   3.752   6.533   8.235  2.2383 -0.7307 -0.9683
  230MOL0     H30358   3.951   6.912   8.240 -1.6511 -0.0482 -3.5420
  230MOL0     H30359   3.654   6.261   8.784  1.4317  0.4606 -2.4867
  230MOL0     H30360   3.810   6.150   8.942  0.0159 -0.6650  0.1715
  231MOL0     O30361  10.462   3.208   4.181 -0.0207 -0.2808  0.1108
  231MOL0     C30362  10.418   3.259   4.287  1.7472  0.0350 -0.8739
  231MOL0     O30363  10.356   3.383   4.290 -0.2626  0.7698 -0.5106
  231MOL0     C30364  10.353   3.469   4.180  1.0144  0.0608  1.8000
  231MOL0     C30365  10.237   3.549   4.167 -0.2860 -0.0667 -0.5594
  231MOL0     C30366  10.227   3.648   4.068 -0.1117 -0.1507  0.3699
  231MOL0     C30367  10.320   3.651   3.961 -0.7985  1.1321  0.1436
  231MOL0     O30368  10.304   3.739   3.851 -0.0098  0.0795  0.4230
  231MOL0     C30369  10.183   3.722   3.777  0.2541 -0.9382  0.4940
  231MOL0     C30370  10.173   3.807   3.656  1.2144 -0.2761 -0.6344
  231MOL0     C30371  10.186   3.965   3.688 -0.1202  0.9195  0.6945
  231MOL0     C30372  10.184   4.034   3.558 -0.5867 -0.2148 -0.2622
  231MOL0     C30373  10.167   4.181   3.579 -0.3121 -0.7844  0.0449
  231MOL0     C30374  10.202   4.256   3.454  0.2423 -0.8462  0.6836
  231MOL0     C30375  10.184   4.406   3.472  0.6892 -1.1788  0.1103
  231MOL0     C30376  10.219   4.494   3.353 -0.1622  0.4596 -0.2980
  231MOL0     N30377  10.281   4.619   3.373  0.1639  0.0258 -0.2901
  231MOL0     C30378  10.218   4.741   3.350 -0.5954 -0.8664 -0.9631
  231MOL0     C30379  10.310   4.841   3.346 -0.3784  0.5105  0.2522
  231MOL0     C30380  10.282   4.994   3.339 -0.6929 -0.3898 -0.4708
  231MOL0     C30381  10.251   5.062   3.200 -0.0130  0.7636  0.4079
  231MOL0     C30382  10.147   5.180   3.205 -0.3454  0.5695 -0.4846
  231MOL0     C30383  10.185   5.270   3.324  0.2629  0.6998  0.8659
  231MOL0     O30384  10.123   5.401   3.314  0.1690  0.4277 -0.1567
  231MOL0     C30385  10.007   5.432   3.385 -0.2278  0.5493  0.2372
  231MOL0     C30386   9.966   5.571   3.399 -0.5337  0.4911 -1.4930
  231MOL0     C30387   9.866   5.607   3.491 -1.0560  0.0854 -0.1330
  231MOL0     C30388   9.796   5.506   3.556  0.3025  1.4116 -0.8776
  231MOL0     C30389   9.703   5.550   3.665 -0.7875 -0.3707  0.4353
  231MOL0     O30390   9.623   5.460   3.705  0.8680 -0.0702 -0.4806
  231MOL0     C30391   9.551   5.458   3.821  0.3234 -0.5226 -0.7266
  231MOL0     C30392   9.587   5.522   3.947 -0.3475  0.6829  0.0179
  231MOL0     C30393   9.498   5.518   4.057 -1.1337  0.6348 -0.3640
  231MOL0     C30394   9.364   5.485   4.043  0.4839  0.5881 -0.4476
  231MOL0     O30395   9.274   5.511   4.150 -1.3086  0.5582  0.5824
  231MOL0     C30396   9.267   5.646   4.191 -0.5571 -0.3837  0.4836
  231MOL0     C30397   9.139   5.670   4.278 -0.1239  0.5473  1.2734
  231MOL0     C30398   9.124   5.806   4.329  0.9079 -0.5750  1.2341
  231MOL0     C30399   9.000   5.820   4.415 -0.1159  0.1841 -0.4779
  231MOL0     C30400   8.855   5.778   4.346 -0.3664 -0.3728 -0.0876
  231MOL0     C30401   8.733   5.807   4.443 -0.0889  0.0660  0.2691
  231MOL0     C30402   8.595   5.790   4.376 -0.9787  0.3736 -0.2811
  231MOL0     C30403   8.559   5.882   4.269 -0.4573 -0.2138  0.5660
  231MOL0    Cl30404   8.386   5.864   4.225  0.2862 -0.0109  0.4143
  231MOL0     C30405   9.323   5.433   3.920  0.3769 -0.3788 -0.4661
  231MOL0     C30406   9.414   5.406   3.815 -0.2824  0.5728 -0.7047
  231MOL0     O30407   9.745   5.647   3.725 -0.0717 -0.6764  0.2233
  231MOL0     C30408   9.817   5.369   3.525  0.7300  0.3786 -0.1841
  231MOL0     C30409   9.912   5.331   3.440 -1.0212 -0.0944  0.5651
  231MOL0     N30410  10.433   4.777   3.363  0.5519  0.6902  0.3793
  231MOL0     N30411  10.415   4.652   3.386  0.6090  0.0270  0.6132
  231MOL0     C30412  10.431   3.565   3.967  1.1410  0.4942  0.6043
  231MOL0     C30413  10.447   3.473   4.079 -1.1190 -0.0791  0.9462
  231MOL0     C30414  10.443   3.194   4.418 -0.2633 -0.1618 -0.2090
  231MOL0     C30415  10.406   3.251   4.537  0.5502  0.1549  0.2679
  231MOL0     C30416  10.423   3.189   4.654 -0.6390  0.0038  0.0664
  231MOL0     C30417  10.498   3.071   4.661  0.1068 -0.4767  1.1655
  231MOL0     O30418  10.497   3.023   4.789  0.2925  0.5332 -0.5759
  231MOL0     C30419  10.509   2.882   4.781 -0.3491 -0.1235  0.7984
  231MOL0     C30420  10.462   2.843   4.932  0.0016  0.7729 -0.7722
  231MOL0     C30421  10.479   2.693   4.984 -0.2563  0.0644  0.3053
  231MOL0     C30422  10.634   2.654   4.987 -0.2569  0.9137 -0.6620
  231MOL0     C30423  10.690   2.638   4.855 -0.3083 -0.4722  0.6796
  231MOL0     C30424  10.738   2.625   4.744  0.7466  0.0035  0.4685
  231MOL0     C30425  10.550   3.011   4.542  0.1989  0.1210 -0.1516
  231MOL0     C30426  10.516   3.069   4.422 -0.6204  0.9743  0.4295
  231MOL0     H30427  10.169   3.555   4.251 -0.6642 -0.3971 -0.8410
  231MOL0     H30428  10.153   3.727   4.078 -0.1564 -0.1775  0.2480
  231MOL0     H30429  10.106   3.761   3.845 -0.2074 -0.5927 -0.2165
  231MOL0     H30430  10.177   3.621   3.735  1.8320  0.5027 -3.7011
  231MOL0     H30431  10.078   3.799   3.602  1.7102 -0.1662 -1.5278
  231MOL0     H30432  10.252   3.776   3.587  0.9784 -3.9141  0.4721
  231MOL0     H30433  10.283   3.979   3.738 -0.2529  1.5856  0.7654
  231MOL0     H30434  10.102   4.001   3.747 -0.2279  0.9344  0.5308
  231MOL0     H30435  10.279   4.013   3.507 -0.6998 -1.6973  0.0891
  231MOL0     H30436  10.096   4.003   3.502 -0.3848 -4.4880  1.3485
  231MOL0     H30437  10.228   4.208   3.665 -0.9685 -1.3223  0.6951
  231MOL0     H30438  10.070   4.225   3.602 -0.7205 -1.3763 -0.4940
  231MOL0     H30439  10.131   4.221   3.379 -3.4917  0.7370  3.1934
  231MOL0     H30440  10.301   4.230   3.415  0.0670  0.1207 -0.4745
  231MOL0     H30441  10.086   4.441   3.506  1.3423  2.3450 -1.1406
  231MOL0     H30442  10.251   4.438   3.552 -0.2808  1.4786 -0.0302
  231MOL0     H30443  10.133   4.516   3.289  0.3876  1.5775 -0.6862
  231MOL0     H30444  10.293   4.436   3.298 -0.2657 -1.9451  1.8658
  231MOL0     H30445  10.110   4.740   3.342 -0.6360  0.1886 -0.7358
  231MOL0     H30446  10.364   5.046   3.390  1.7934 -2.7443 -1.7560
  231MOL0     H30447  10.197   5.012   3.404  0.1173 -0.4049  0.6256
  231MOL0     H30448  10.218   4.989   3.126  2.5386 -2.5699  2.2677
  231MOL0     H30449  10.343   5.102   3.156 -1.0363  3.7623  0.7111
  231MOL0     H30450  10.141   5.248   3.120  0.2172 -0.0406 -1.0147
  231MOL0     H30451  10.047   5.137   3.216  1.4478 -4.0341 -0.0086
  231MOL0     H30452  10.293   5.284   3.331  1.0244 -2.8294 -1.3404
  231MOL0     H30453  10.149   5.224   3.416  1.5464 -1.3280  0.4342
  231MOL0     H30454  10.041   5.634   3.352  1.3388 -1.4691 -1.2747
  231MOL0     H30455   9.840   5.711   3.504  1.1792  0.8087 -1.0043
  231MOL0     H30456   9.688   5.563   3.952 -0.9082  2.4487 -1.8669
  231MOL0     H30457   9.528   5.552   4.155  0.3325 -2.4878  0.3792
  231MOL0     H30458   9.240   5.709   4.106  0.5477  0.1004  0.4695
  231MOL0     H30459   9.357   5.683   4.242  0.3896 -0.3696 -1.1425
  231MOL0     H30460   9.151   5.602   4.362 -0.3019 -2.0102 -0.6460
  231MOL0     H30461   9.048   5.638   4.226  2.1088 -0.5136 -2.3740
  231MOL0     H30462   9.113   5.872   4.242  2.6673  1.1726  2.2696
  231MOL0     H30463   9.213   5.837   4.384 -0.2811  1.9783  1.9012
  231MOL0     H30464   9.011   5.761   4.506  2.5672 -1.2556 -1.6326
  231MOL0     H30465   8.992   5.926   4.441 -1.2275  0.1000 -0.4135
  231MOL0     H30466   8.855   5.673   4.315  0.1371 -0.4327  0.1174
  231MOL0     H30467   8.837   5.824   4.248 -2.0835  0.2306  0.4678
  231MOL0     H30468   8.744   5.909   4.481  0.5342  0.0442  0.1652
  231MOL0     H30469   8.735   5.738   4.528  2.7048 -0.7671 -0.3367
  231MOL0     H30470   8.573   5.689   4.342 -2.3665  0.3500  0.6115
  231MOL0     H30471   8.512   5.802   4.446 -4.5995 -0.3346 -4.0183
  231MOL0     H30472   8.624   5.870   4.182  2.1178  0.6791  2.2272
  231MOL0     H30473   8.588   5.979   4.311  0.4765 -0.7486  1.2084
  231MOL0     H30474   9.217   5.418   3.904 -0.0407 -1.0990  2.5379
  231MOL0     H30475   9.381   5.350   3.728  2.0835 -1.3672 -0.4503
  231MOL0     H30476   9.746   5.303   3.574 -0.0655  1.8710  0.7693
  231MOL0     H30477   9.916   5.227   3.412 -1.0686 -0.4450  1.8052
  231MOL0     H30478  10.512   3.559   3.895  1.1587 -0.5052  0.6976
  231MOL0     H30479  10.533   3.408   4.090 -2.1459 -1.8297 -0.8733
  231MOL0     H30480  10.344   3.339   4.530  0.0693 -0.1412  0.7684
  231MOL0     H30481  10.383   3.247   4.737  1.8908 -0.4067  1.7031
  231MOL0     H30482  10.607   2.851   4.744  1.0404  1.3071  3.0388
  231MOL0     H30483  10.430   2.859   4.709 -0.1377  2.7830 -0.4781
  231MOL0     H30484  10.516   2.915   4.995  1.3679 -1.6970  1.0679
  231MOL0     H30485  10.354   2.852   4.945  0.1651  0.8280  0.6140
  231MOL0     H30486  10.429   2.622   4.916  1.2289 -0.7665  0.0401
  231MOL0     H30487  10.427   2.669   5.077 -4.2016 -1.6439 -2.0352
  231MOL0     H30488  10.685   2.734   5.040 -0.8997  1.3274 -0.6480
  231MOL0     H30489  10.648   2.559   5.040  0.0127  1.5004  0.3214
  231MOL0     H30490  10.798   2.609   4.657  0.5754  0.6072  0.2364
  231MOL0     H30491  10.623   2.932   4.530 -0.5305 -0.4132 -1.1924
  231MOL0     H30492  10.565   3.025   4.335 -0.0261 -0.2953  1.3754
  232MOL0     O30493   2.319   0.902   0.134  0.8729 -0.7679 -0.1637
  232MOL0     C30494   2.385   0.827   0.195  0.2240 -0.1435  0.2273
  232MOL0     O30495   2.339   0.742   0.288  0.5822  0.1482  0.1561
  232MOL0     C30496   2.208   0.718   0.310 -0.7066 -0.3056  0.5895
  232MOL0     C30497   2.099   0.800   0.266  0.4302  1.3006 -0.0981
  232MOL0     C30498   1.971   0.749   0.311 -0.7956  0.5544  0.0351
  232MOL0     C30499   1.946   0.631   0.384 -1.7263 -0.2186 -0.1490
  232MOL0     O30500   1.823   0.626   0.440 -0.9980 -0.1865  0.3782
  232MOL0     C30501   1.764   0.498   0.435 -0.1080 -0.8809 -0.2573
  232MOL0     C30502   1.614   0.508   0.460  0.6572 -0.0983  0.3404
  232MOL0     C30503   1.533   0.578   0.352  0.4003  1.0034 -0.5574
  232MOL0     C30504   1.399   0.632   0.407 -0.1954 -0.7409  1.5009
  232MOL0     C30505   1.305   0.670   0.296 -1.0607  0.6077  0.7272
  232MOL0     C30506   1.259   0.538   0.220  0.0404 -0.7610 -0.1324
  232MOL0     C30507   1.102   0.535   0.209 -0.6459 -0.2362 -0.6907
  232MOL0     C30508   1.041   0.402   0.202  1.4003 -0.2155 -0.0342
  232MOL0     N30509   0.892   0.418   0.187 -0.1831 -0.1742  0.3798
  232MOL0     C30510   0.827   0.430   0.062 -0.4438 -0.1403 -0.7103
  232MOL0     C30511   0.698   0.427   0.091 -0.0095 -0.4417 -0.1531
  232MOL0     C30512   0.581   0.438  -0.012 -0.4174  0.1283 -1.6287
  232MOL0     C30513   0.589   0.311  -0.096 -0.4842  0.3314 -0.5916
  232MOL0     C30514   0.456   0.263  -0.161  0.2850 -0.8677 -0.1550
  232MOL0     C30515   0.367   0.196  -0.056 -1.1522 -0.1682 -0.6922
  232MOL0     O30516   0.248   0.149  -0.121 -0.0915 -0.6644  0.0359
  232MOL0     C30517   0.196   0.036  -0.075 -0.4062  1.2078  0.2389
  232MOL0     C30518   0.152   0.029   0.057  0.7579  0.2271 -0.2058
  232MOL0     C30519   0.122  -0.100   0.104 -0.2909 -0.1348  0.0315
  232MOL0     C30520   0.118  -0.215   0.023 -0.1036 -0.3334  1.2399
  232MOL0     C30521   0.087  -0.349   0.088 -0.2523 -1.2834  0.7198
  232MOL0     O30522   0.094  -0.452   0.013  0.2381  0.1475 -0.1249
  232MOL0     C30523   0.105  -0.574   0.067 -0.4901 -0.4450  0.6622
  232MOL0     C30524   0.001  -0.639   0.130 -0.2147 -0.3268  0.3484
  232MOL0     C30525   0.026  -0.767   0.185  0.2774  0.4106 -0.1358
  232MOL0     C30526   0.146  -0.833   0.170 -0.5418 -0.5799 -0.2456
  232MOL0     O30527   0.181  -0.959   0.212  0.3782 -0.1212  0.3718
  232MOL0     C30528   0.092  -1.038   0.282  0.1134  0.6682 -0.3556
  232MOL0     C30529   0.168  -1.165   0.322 -0.8928 -0.2916  0.0439
  232MOL0     C30530   0.245  -1.233   0.203  0.0599 -0.3254 -0.6969
  232MOL0     C30531   0.248  -1.384   0.227  0.6328  0.0529  0.0910
  232MOL0     C30532   0.338  -1.453   0.125  0.4022  0.0123 -0.0813
  232MOL0     C30533   0.461  -1.381   0.086 -1.3195 -0.7579  1.8198
  232MOL0     C30534   0.564  -1.481   0.021 -0.7814 -0.6851  0.3391
  232MOL0     C30535   0.677  -1.397  -0.045 -0.7781 -0.6329  0.1334
  232MOL0    Cl30536   0.655  -1.404  -0.224 -0.4171 -0.2313  0.4228
  232MOL0     C30537   0.250  -0.763   0.111  0.5031 -0.4523 -0.2961
  232MOL0     C30538   0.227  -0.641   0.054 -0.6661 -0.3474  0.3763
  232MOL0     O30539   0.074  -0.353   0.210 -0.3012  0.0621  0.8845
  232MOL0     C30540   0.135  -0.197  -0.118  0.3931  0.2211 -0.1547
  232MOL0     C30541   0.186  -0.072  -0.162  0.4498  1.2160 -0.8095
  232MOL0     N30542   0.689   0.400   0.225 -0.4593  0.4024  0.0714
  232MOL0     N30543   0.801   0.399   0.285  0.3143 -0.0008  0.4848
  232MOL0     C30544   2.061   0.568   0.427 -0.3819  0.9705 -0.2962
  232MOL0     C30545   2.189   0.601   0.388 -0.5516  0.2776  0.0707
  232MOL0     C30546   2.526   0.830   0.165 -0.5597  0.7433 -0.4787
  232MOL0     C30547   2.614   0.755   0.252 -0.2556 -0.4866 -0.5535
  232MOL0     C30548   2.744   0.730   0.210  0.7284  1.2297  0.1948
  232MOL0     C30549   2.795   0.793   0.098  0.7326  0.1926 -0.0301
  232MOL0     O30550   2.921   0.781   0.036 -0.2112  0.2826 -0.8376
  232MOL0     C30551   3.015   0.702   0.101  0.4017  0.5155 -0.1001
  232MOL0     C30552   3.139   0.695   0.024 -0.4165  0.9305 -0.2790
  232MOL0     C30553   3.184   0.842  -0.009  0.4318  0.3575 -0.3738
  232MOL0     C30554   3.326   0.845  -0.070 -0.1847  0.4931 -0.0530
  232MOL0     C30555   3.418   0.868   0.048  0.1317 -0.6251 -0.3261
  232MOL0     C30556   3.501   0.898   0.135 -0.9530  0.8566  0.7938
  232MOL0     C30557   2.717   0.879   0.026  0.1169 -0.8303 -0.1952
  232MOL0     C30558   2.579   0.899   0.055 -0.6543 -0.6128  0.0471
  232MOL0     H30559   2.115   0.901   0.230  5.3271  0.9456  0.3574
  232MOL0     H30560   1.886   0.816   0.311 -0.0637  1.5528  1.6545
  232MOL0     H30561   1.797   0.428   0.511 -5.4721 -0.1225  3.3506
  232MOL0     H30562   1.768   0.445   0.339 -1.2649  2.2087 -2.1817
  232MOL0     H30563   1.605   0.556   0.557  0.0753  1.2778 -0.3582
  232MOL0     H30564   1.574   0.407   0.468  2.2096 -1.0260 -2.2218
  232MOL0     H30565   1.513   0.506   0.272 -0.0213  2.2978 -1.6655
  232MOL0     H30566   1.588   0.665   0.315 -0.5713  1.6724 -0.4734
  232MOL0     H30567   1.358   0.548   0.464  0.0323 -0.4366  2.1089
  232MOL0     H30568   1.419   0.726   0.459  0.8540 -0.5520  0.7943
  232MOL0     H30569   1.375   0.736   0.243  0.0921  1.0296  2.6939
  232MOL0     H30570   1.220   0.723   0.339 -2.2287 -0.0168 -0.7401
  232MOL0     H30571   1.292   0.453   0.280  2.5936 -0.3601 -0.8471
  232MOL0     H30572   1.297   0.528   0.118 -0.7659  0.4198 -0.5690
  232MOL0     H30573   1.067   0.591   0.296  1.3007  0.5759 -0.3686
  232MOL0     H30574   1.074   0.600   0.127  2.4254 -0.0319 -1.7246
  232MOL0     H30575   1.058   0.343   0.293  0.9262 -0.7374 -0.2854
  232MOL0     H30576   1.083   0.356   0.112  1.5875 -0.0100 -0.0539
  232MOL0     H30577   0.875   0.461  -0.030 -1.4071  7.0241  0.5794
  232MOL0     H30578   0.581   0.531  -0.069 -2.2378  1.4940  0.4724
  232MOL0     H30579   0.491   0.442   0.051  1.1255  0.7456  0.6648
  232MOL0     H30580   0.627   0.232  -0.030  3.9359  1.1233 -1.8336
  232MOL0     H30581   0.657   0.326  -0.180 -0.3709  4.6737  0.0466
  232MOL0     H30582   0.406   0.344  -0.216  1.9330 -0.5708 -1.2784
  232MOL0     H30583   0.478   0.183  -0.232 -0.7620 -1.5846  0.2935
  232MOL0     H30584   0.337   0.262   0.026  2.8893  1.8982 -0.6047
  232MOL0     H30585   0.421   0.112  -0.012 -3.0653 -1.9061 -1.4905
  232MOL0     H30586   0.148   0.113   0.126 -1.4043  0.0997 -0.1021
  232MOL0     H30587   0.119  -0.108   0.212  2.2546  1.0565  0.2778
  232MOL0     H30588  -0.091  -0.582   0.137 -1.0962 -1.5399 -0.7831
  232MOL0     H30589  -0.044  -0.821   0.247 -0.5436 -0.7146 -1.9510
  232MOL0     H30590   0.017  -1.072   0.209 -0.3974 -0.5820  0.7086
  232MOL0     H30591   0.047  -0.991   0.370 -1.7081 -0.3662 -0.6699
  232MOL0     H30592   0.097  -1.229   0.375 -0.5958 -1.0164 -0.4136
  232MOL0     H30593   0.246  -1.145   0.396  2.1469 -2.2907 -2.3503
  232MOL0     H30594   0.348  -1.197   0.205  0.7480 -2.0103 -2.5271
  232MOL0     H30595   0.185  -1.206   0.115 -0.9768  0.5048  0.2276
  232MOL0     H30596   0.278  -1.391   0.331  2.0854 -2.4327 -0.3919
  232MOL0     H30597   0.152  -1.433   0.208  1.3245 -1.8096  1.0969
  232MOL0     H30598   0.268  -1.465   0.041 -0.7332 -1.5504  1.0346
  232MOL0     H30599   0.350  -1.559   0.151  3.2728 -0.1068 -1.5234
  232MOL0     H30600   0.513  -1.334   0.170  2.4703  0.0391 -0.7223
  232MOL0     H30601   0.435  -1.306   0.010  0.1857 -2.6681 -0.7367
  232MOL0     H30602   0.620  -1.540   0.094  1.2285 -1.0695 -1.4163
  232MOL0     H30603   0.518  -1.539  -0.059 -1.0908  0.0364 -0.0126
  232MOL0     H30604   0.772  -1.431  -0.003 -0.6226 -2.6405 -1.6607
  232MOL0     H30605   0.655  -1.295  -0.010 -1.0700 -0.4569 -0.5510
  232MOL0     H30606   0.352  -0.799   0.109  0.3867 -0.7795 -1.6770
  232MOL0     H30607   0.296  -0.596  -0.016 -1.3437  0.6854  0.3506
  232MOL0     H30608   0.119  -0.274  -0.193  0.1007  0.8290 -0.7157
  232MOL0     H30609   0.207  -0.067  -0.268 -0.4757 -2.2602 -1.2821
  232MOL0     H30610   2.049   0.484   0.495  2.4561  0.4876 -0.2512
  232MOL0     H30611   2.272   0.564   0.448 -1.0025  1.9030  1.8295
  232MOL0     H30612   2.585   0.699   0.341  2.0442 -1.2298 -0.1899
  232MOL0     H30613   2.804   0.678   0.283 -2.5966  1.1418  3.1695
  232MOL0     H30614   2.992   0.595   0.103 -0.3116  0.6037 -1.7297
  232MOL0     H30615   3.044   0.738   0.199  2.4865 -3.1657  0.8005
  232MOL0     H30616   3.211   0.653   0.094 -2.9221  1.8734  3.0811
  232MOL0     H30617   3.119   0.640  -0.069 -0.3805  1.5932 -0.6889
  232MOL0     H30618   3.183   0.903   0.082 -0.8940 -0.8755  0.4692
  232MOL0     H30619   3.111   0.887  -0.077 -0.0866 -1.7929 -1.2990
  232MOL0     H30620   3.340   0.750  -0.121  0.3903  0.5282  0.0316
  232MOL0     H30621   3.356   0.929  -0.134  3.4330 -0.9690 -0.5155
  232MOL0     H30622   3.574   0.925   0.208  0.6340 -0.3344 -0.2628
  232MOL0     H30623   2.759   0.932  -0.059  6.0185 -2.2391  1.4341
  232MOL0     H30624   2.504   0.941  -0.011 -2.1727 -0.5740  1.7120
  233MOL0     O30625   8.276   4.618   0.375  0.3435 -0.0684 -0.2174
  233MOL0     C30626   8.392   4.625   0.417  1.1592  0.2991 -0.7275
  233MOL0     O30627   8.504   4.632   0.337  0.0702 -0.3882  0.3588
  233MOL0     C30628   8.508   4.637   0.195  0.4929  0.5649  0.4833
  233MOL0     C30629   8.621   4.585   0.147 -0.6909 -0.3461  1.4861
  233MOL0     C30630   8.646   4.577   0.011  0.1867 -0.2755 -0.2331
  233MOL0     C30631   8.553   4.630  -0.083 -0.3425 -0.2798 -0.1507
  233MOL0     O30632   8.577   4.622  -0.217  0.1353 -0.2940 -0.0819
  233MOL0     C30633   8.601   4.498  -0.291 -0.5802  0.0776  0.3442
  233MOL0     C30634   8.488   4.402  -0.269  0.5790  0.9986  0.5187
  233MOL0     C30635   8.521   4.263  -0.329 -0.1093 -0.8076 -0.2359
  233MOL0     C30636   8.410   4.163  -0.322  0.5542 -1.2430  0.3157
  233MOL0     C30637   8.320   4.191  -0.442  0.3832  0.1751 -0.2550
  233MOL0     C30638   8.361   4.097  -0.557 -0.5593 -0.0889 -0.2234
  233MOL0     C30639   8.282   4.139  -0.689 -0.2122  0.2460 -1.2547
  233MOL0     C30640   8.142   4.085  -0.695 -0.6227 -0.2581 -0.1811
  233MOL0     N30641   8.089   4.166  -0.807  0.9540  0.8518  0.1474
  233MOL0     C30642   7.994   4.265  -0.799  0.1700 -0.0333  0.4094
  233MOL0     C30643   7.944   4.272  -0.927 -0.3402 -0.4807  0.3438
  233MOL0     C30644   7.825   4.354  -0.963 -0.2457  0.8555 -0.0549
  233MOL0     C30645   7.853   4.466  -1.064  0.2535 -0.2811  0.9593
  233MOL0     C30646   7.943   4.428  -1.179  0.0064 -0.8011  0.2444
  233MOL0     C30647   7.969   4.533  -1.284 -0.3700  0.3739  0.0679
  233MOL0     O30648   7.860   4.563  -1.374  0.1799  0.1131  0.7065
  233MOL0     C30649   7.885   4.652  -1.482 -0.3234  0.3752 -0.1099
  233MOL0     C30650   7.771   4.719  -1.539 -0.5733  0.8014 -1.5136
  233MOL0     C30651   7.793   4.792  -1.653 -0.3138  0.7263 -0.1995
  233MOL0     C30652   7.923   4.820  -1.710 -0.4959 -0.1607  0.4830
  233MOL0     C30653   7.939   4.913  -1.814  0.3130 -0.2368  0.6809
  233MOL0     O30654   8.063   4.965  -1.829  0.0900 -0.8993 -0.5089
  233MOL0     C30655   8.105   5.056  -1.923  0.3970  1.1405  0.1088
  233MOL0     C30656   8.038   5.101  -2.042  0.0402  0.3782  0.2769
  233MOL0     C30657   8.088   5.198  -2.128  0.1155 -0.1068 -0.5532
  233MOL0     C30658   8.206   5.267  -2.101  0.2118 -0.0588  0.4823
  233MOL0     O30659   8.268   5.354  -2.183  0.1458 -0.3106 -0.2860
  233MOL0     C30660   8.413   5.361  -2.204 -0.0009  1.3533  0.1806
  233MOL0     C30661   8.443   5.465  -2.315 -0.9346  0.5286 -0.4158
  233MOL0     C30662   8.403   5.604  -2.257 -0.6691  0.2114 -0.6394
  233MOL0     C30663   8.432   5.726  -2.346  0.3792  0.7782  0.1821
  233MOL0     C30664   8.352   5.850  -2.291 -0.4087 -0.2200  0.7779
  233MOL0     C30665   8.384   5.964  -2.389 -0.3736  0.8600 -0.2418
  233MOL0     C30666   8.363   5.948  -2.546  0.6114 -0.4111  0.2514
  233MOL0     C30667   8.320   6.080  -2.615  0.5043  0.2031  0.5934
  233MOL0    Cl30668   8.284   6.057  -2.793  0.0622  0.3386 -0.4059
  233MOL0     C30669   8.278   5.220  -1.991  0.4157 -0.5945 -0.4620
  233MOL0     C30670   8.231   5.113  -1.909 -0.4698 -0.8113 -0.6531
  233MOL0     O30671   7.836   4.936  -1.882 -0.2918  0.6292  0.3154
  233MOL0     C30672   8.029   4.767  -1.646 -0.6353  0.3363  0.4451
  233MOL0     C30673   8.008   4.690  -1.537 -0.2932 -0.2384 -0.7475
  233MOL0     N30674   8.023   4.189  -1.007 -0.5784 -0.8842 -0.2012
  233MOL0     N30675   8.102   4.125  -0.934  0.3135 -0.9304  0.0892
  233MOL0     C30676   8.438   4.679  -0.031  0.9601  0.3852  0.3708
  233MOL0     C30677   8.408   4.687   0.107 -0.7295 -0.4488  0.0419
  233MOL0     C30678   8.393   4.616   0.563 -0.5232  2.0545 -0.2630
  233MOL0     C30679   8.276   4.565   0.636 -0.4536 -0.0439  0.6361
  233MOL0     C30680   8.304   4.523   0.772 -0.1215  0.7314 -0.1575
  233MOL0     C30681   8.428   4.540   0.836  0.2736 -0.6759  0.0336
  233MOL0     O30682   8.467   4.495   0.960  0.0116 -0.2645  0.0643
  233MOL0     C30683   8.373   4.523   1.061  0.5201  0.7595  0.5858
  233MOL0     C30684   8.294   4.394   1.107 -0.5440  0.2013  0.4657
  233MOL0     C30685   8.385   4.291   1.180  0.7342  0.2798 -0.0290
  233MOL0     C30686   8.315   4.157   1.207 -1.4728  0.4454  0.3201
  233MOL0     C30687   8.429   4.066   1.241 -0.6002 -0.1367  0.9009
  233MOL0     C30688   8.521   3.987   1.248 -0.5877 -0.6194 -0.0418
  233MOL0     C30689   8.535   4.589   0.761 -0.4939 -0.1955 -0.0595
  233MOL0     C30690   8.515   4.615   0.630 -0.7921 -0.3177 -0.6793
  233MOL0     H30691   8.697   4.554   0.218  1.1251  2.3559  0.8965
  233MOL0     H30692   8.748   4.554  -0.021  0.0848 -0.3677 -0.4942
  233MOL0     H30693   8.698   4.456  -0.261 -1.5379 -0.5385  2.7947
  233MOL0     H30694   8.604   4.521  -0.398 -4.8161 -1.9224 -0.4047
  233MOL0     H30695   8.403   4.434  -0.330 -0.4220  0.5299  1.6565
  233MOL0     H30696   8.458   4.387  -0.165 -2.1438 -1.2663 -0.4677
  233MOL0     H30697   8.598   4.223  -0.263 -0.8255 -4.5314 -1.4455
  233MOL0     H30698   8.551   4.284  -0.432 -4.1643  0.3385 -1.3922
  233MOL0     H30699   8.452   4.062  -0.313  2.9588 -0.2862  0.3443
  233MOL0     H30700   8.345   4.184  -0.236 -1.9520 -0.0629 -1.7109
  233MOL0     H30701   8.328   4.295  -0.476  0.4693  0.6761  1.2554
  233MOL0     H30702   8.215   4.170  -0.423  1.0523 -1.2239  2.3123
  233MOL0     H30703   8.353   3.990  -0.534  1.3518 -0.3016 -0.3853
  233MOL0     H30704   8.469   4.113  -0.569  0.0259 -0.2553  3.4263
  233MOL0     H30705   8.283   4.248  -0.699  2.0862  0.5925  1.4983
  233MOL0     H30706   8.339   4.093  -0.770 -1.0574 -3.3719 -0.0153
  233MOL0     H30707   8.076   4.111  -0.611 -1.2180 -2.7983  0.2493
  233MOL0     H30708   8.148   3.977  -0.712  0.4007 -1.4535  5.6738
  233MOL0     H30709   7.940   4.307  -0.714 -0.1621 -2.3034  1.3952
  233MOL0     H30710   7.796   4.398  -0.867  1.7319  0.5409  0.7352
  233MOL0     H30711   7.754   4.286  -1.012  0.6114  2.3235 -3.6132
  233MOL0     H30712   7.921   4.536  -1.015  4.8586 -3.6903  0.0897
  233MOL0     H30713   7.775   4.530  -1.106  1.0598  1.0792  1.4561
  233MOL0     H30714   8.036   4.401  -1.130 -1.8088 -0.0031  4.5709
  233MOL0     H30715   7.904   4.338  -1.229 -0.9689 -0.0205 -0.4692
  233MOL0     H30716   8.060   4.510  -1.341 -2.0107  0.8268 -2.9282
  233MOL0     H30717   8.001   4.617  -1.222  2.1000 -2.5443  3.1585
  233MOL0     H30718   7.680   4.680  -1.495 -0.0709 -1.0554 -2.0299
  233MOL0     H30719   7.704   4.838  -1.694  0.2207  1.7242 -0.2798
  233MOL0     H30720   7.938   5.067  -2.065  0.7046 -0.1206 -2.1908
  233MOL0     H30721   8.031   5.243  -2.209 -0.0026  1.7410  0.4926
  233MOL0     H30722   8.447   5.264  -2.241  0.7719  0.7055  2.4772
  233MOL0     H30723   8.463   5.377  -2.108 -0.4555 -0.4982  0.7712
  233MOL0     H30724   8.390   5.449  -2.410 -0.2410  0.1428 -0.7483
  233MOL0     H30725   8.547   5.453  -2.346 -0.6954 -2.2151  1.1359
  233MOL0     H30726   8.449   5.618  -2.159  0.8944 -1.2353 -1.1120
  233MOL0     H30727   8.299   5.579  -2.235 -1.1208 -0.4014 -3.1686
  233MOL0     H30728   8.540   5.738  -2.358  0.9192 -2.1741  1.2726
  233MOL0     H30729   8.384   5.715  -2.444 -0.7894  1.2865  0.6850
  233MOL0     H30730   8.380   5.870  -2.187  2.2314 -3.1525  0.7827
  233MOL0     H30731   8.246   5.823  -2.294 -0.8986  1.5343  1.1616
  233MOL0     H30732   8.472   6.019  -2.356  0.2780 -0.1269 -0.2959
  233MOL0     H30733   8.312   6.040  -2.357  0.5462  1.5635  0.1708
  233MOL0     H30734   8.455   5.911  -2.592  0.6804 -3.2150  2.3585
  233MOL0     H30735   8.280   5.878  -2.561 -0.8694  1.1435  0.7233
  233MOL0     H30736   8.400   6.154  -2.602  0.0313  0.5798  1.4876
  233MOL0     H30737   8.228   6.122  -2.572 -0.7443 -0.8218 -0.9817
  233MOL0     H30738   8.362   5.287  -1.970 -0.5039  1.5790 -3.1455
  233MOL0     H30739   8.295   5.069  -1.834  0.1561  4.1335  2.1599
  233MOL0     H30740   8.130   4.794  -1.676 -1.5650  1.7941 -1.5740
  233MOL0     H30741   8.101   4.657  -1.491  0.3338  2.4486  0.0755
  233MOL0     H30742   8.358   4.700  -0.101  2.6099  0.8337 -1.4838
  233MOL0     H30743   8.315   4.725   0.148 -0.3695 -1.7432  2.2107
  233MOL0     H30744   8.177   4.553   0.593  0.1479 -0.5252 -0.6423
  233MOL0     H30745   8.222   4.474   0.823  1.5033 -0.4802  1.4414
  233MOL0     H30746   8.297   4.598   1.034 -2.1969 -1.8507  0.4869
  233MOL0     H30747   8.432   4.561   1.144  2.1303  0.1691 -0.2376
  233MOL0     H30748   8.202   4.423   1.160 -1.4762 -2.8432  0.7425
  233MOL0     H30749   8.262   4.354   1.010  2.1533 -1.4393  0.1778
  233MOL0     H30750   8.438   4.332   1.266  2.5701  1.5503 -1.6607
  233MOL0     H30751   8.461   4.273   1.103 -2.1322  1.1672 -3.2875
  233MOL0     H30752   8.259   4.163   1.301  1.4106  0.9177  2.1265
  233MOL0     H30753   8.252   4.111   1.130 -1.0238 -3.2385  1.9705
  233MOL0     H30754   8.602   3.919   1.235  0.1333  0.1840  0.2088
  233MOL0     H30755   8.633   4.599   0.806 -0.4105  0.6828 -0.4287
  233MOL0     H30756   8.604   4.644   0.577  0.8674  0.8513  2.4651
  234MOL0     O30757   7.398   6.106   0.316  0.7224  0.2642 -0.5972
  234MOL0     C30758   7.330   6.196   0.363  0.1155  0.1594 -0.4063
  234MOL0     O30759   7.312   6.324   0.304  0.3144  0.4305  0.3892
  234MOL0     C30760   7.350   6.345   0.171 -1.0243  0.1614  0.0650
  234MOL0     C30761   7.387   6.480   0.153  0.2515 -0.2276  0.1004
  234MOL0     C30762   7.407   6.531   0.023 -1.0352  0.1351 -0.6249
  234MOL0     C30763   7.415   6.442  -0.092  0.3454 -0.4156 -0.1816
  234MOL0     O30764   7.438   6.482  -0.228  0.2770  0.4871 -0.0607
  234MOL0     C30765   7.353   6.582  -0.290 -0.4820  0.3731 -0.3325
  234MOL0     C30766   7.363   6.575  -0.435 -0.3323 -1.4846  0.1617
  234MOL0     C30767   7.247   6.647  -0.508 -0.3114 -0.0800  0.3136
  234MOL0     C30768   7.276   6.668  -0.655  0.7288 -0.1026  0.3112
  234MOL0     C30769   7.165   6.753  -0.723 -0.3911 -1.0482  0.3755
  234MOL0     C30770   7.212   6.763  -0.873  0.0241  0.2045 -0.0036
  234MOL0     C30771   7.094   6.835  -0.949 -0.2772  0.5268 -0.2466
  234MOL0     C30772   7.125   6.826  -1.104  0.6745  0.8166 -0.4271
  234MOL0     N30773   7.216   6.922  -1.165  0.5555 -0.4721  0.0624
  234MOL0     C30774   7.183   7.049  -1.198  0.4201 -0.1730  0.7060
  234MOL0     C30775   7.292   7.087  -1.262 -0.0204 -0.5666  0.6684
  234MOL0     C30776   7.314   7.214  -1.336  0.9092  0.1361 -1.2104
  234MOL0     C30777   7.296   7.346  -1.250  0.0793  0.1187 -0.1222
  234MOL0     C30778   7.314   7.460  -1.347 -0.1156 -0.1726 -0.7588
  234MOL0     C30779   7.185   7.529  -1.398  0.5406  0.6284 -0.0325
  234MOL0     O30780   7.121   7.601  -1.286 -0.4239  0.0975 -0.3963
  234MOL0     C30781   7.003   7.654  -1.308  0.3120 -0.3456  0.5062
  234MOL0     C30782   6.959   7.672  -1.441  0.9420  1.2322 -0.3855
  234MOL0     C30783   6.833   7.718  -1.462  0.0323 -0.1802 -0.3200
  234MOL0     C30784   6.741   7.745  -1.357  0.2144 -0.0358  0.0606
  234MOL0     C30785   6.598   7.784  -1.386 -0.1554 -0.1467  0.4588
  234MOL0     O30786   6.514   7.786  -1.280 -0.1377 -0.5886 -1.3539
  234MOL0     C30787   6.379   7.793  -1.290  0.2482  0.6449 -0.5067
  234MOL0     C30788   6.305   7.918  -1.294 -0.1139  0.0517  0.6607
  234MOL0     C30789   6.169   7.917  -1.318  0.2138 -0.7335 -0.2463
  234MOL0     C30790   6.103   7.796  -1.314  0.3775  0.6900 -0.1468
  234MOL0     O30791   5.965   7.800  -1.324  0.4264  0.1150 -0.7458
  234MOL0     C30792   5.898   7.690  -1.262  0.0846 -0.0512 -0.0204
  234MOL0     C30793   5.753   7.752  -1.244 -0.2452  0.0304 -0.9851
  234MOL0     C30794   5.661   7.647  -1.178 -0.2514  0.4853  0.1096
  234MOL0     C30795   5.667   7.510  -1.240  0.5411 -0.2548 -0.1996
  234MOL0     C30796   5.574   7.405  -1.168 -0.3160 -0.0041 -0.1661
  234MOL0     C30797   5.429   7.426  -1.197 -0.9976  0.1643 -0.2125
  234MOL0     C30798   5.391   7.421  -1.345 -0.9410 -0.1325 -0.5684
  234MOL0     C30799   5.242   7.465  -1.370 -0.0485 -0.2829  0.4062
  234MOL0    Cl30800   5.114   7.395  -1.283  0.0584 -0.2236  0.0480
  234MOL0     C30801   6.171   7.665  -1.310  0.8656 -0.4722  0.8259
  234MOL0     C30802   6.310   7.667  -1.300 -0.2691 -0.2789 -0.6242
  234MOL0     O30803   6.556   7.797  -1.502  0.5597  0.4379 -0.1357
  234MOL0     C30804   6.789   7.736  -1.226 -1.0293  0.4327  0.6022
  234MOL0     C30805   6.919   7.688  -1.203 -0.4289 -0.1822 -0.1927
  234MOL0     N30806   7.392   6.989  -1.258 -0.0119  0.3067  0.8611
  234MOL0     N30807   7.348   6.887  -1.195  0.4662  0.1871 -0.4307
  234MOL0     C30808   7.383   6.307  -0.068 -0.0666  0.1538 -0.5152
  234MOL0     C30809   7.350   6.256   0.058  0.5161  1.0452  0.4838
  234MOL0     C30810   7.269   6.176   0.496  0.0139  0.3659  0.4207
  234MOL0     C30811   7.298   6.060   0.579 -1.0273  0.9120  0.3821
  234MOL0     C30812   7.248   6.041   0.708 -0.4435 -0.3961 -0.0700
  234MOL0     C30813   7.169   6.144   0.770  0.9625 -0.4360  0.2685
  234MOL0     O30814   7.139   6.145   0.906 -0.2755  0.4662  0.7409
  234MOL0     C30815   7.199   6.061   0.998 -0.3513  0.0433 -0.6264
  234MOL0     C30816   7.082   5.987   1.072 -0.3972  0.0761  0.4044
  234MOL0     C30817   6.968   5.942   0.973 -0.4751 -0.8245  0.0694
  234MOL0     C30818   6.865   5.853   1.038  0.2795  0.3647  0.0163
  234MOL0     C30819   6.767   5.805   0.936  0.1699  0.0998  0.2519
  234MOL0     C30820   6.679   5.754   0.871 -1.0739  0.2252 -0.1238
  234MOL0     C30821   7.139   6.254   0.684  0.1645  0.9088 -0.0419
  234MOL0     C30822   7.179   6.265   0.549 -0.8330 -0.4017  1.1237
  234MOL0     H30823   7.391   6.550   0.235 -2.5730  0.7402 -0.4533
  234MOL0     H30824   7.404   6.639   0.023 -3.7130  0.1312 -1.0191
  234MOL0     H30825   7.387   6.677  -0.247  1.3392 -2.0303  4.2712
  234MOL0     H30826   7.252   6.554  -0.261 -0.5463  0.6292 -0.3084
  234MOL0     H30827   7.362   6.475  -0.478 -1.1490 -2.0020  1.3408
  234MOL0     H30828   7.452   6.626  -0.472 -1.1617  1.7893  2.2336
  234MOL0     H30829   7.218   6.743  -0.465 -1.2828 -1.7059  3.6355
  234MOL0     H30830   7.156   6.586  -0.506  0.2307 -0.9161  0.0377
  234MOL0     H30831   7.371   6.717  -0.677  1.1509 -1.6865 -1.8347
  234MOL0     H30832   7.277   6.567  -0.698  0.4440 -0.5633  1.3583
  234MOL0     H30833   7.151   6.847  -0.668 -0.7854 -3.3414  4.5660
  234MOL0     H30834   7.067   6.704  -0.722  0.6603 -3.3754 -1.6157
  234MOL0     H30835   7.221   6.661  -0.911  2.4743  1.0310 -1.9450
  234MOL0     H30836   7.302   6.825  -0.882  0.1167  0.2254  0.9744
  234MOL0     H30837   6.997   6.785  -0.944  1.0697 -2.2403 -0.0844
  234MOL0     H30838   7.088   6.939  -0.917 -0.5851  0.4921 -0.1935
  234MOL0     H30839   7.027   6.836  -1.153 -0.7852 -0.4044  2.0392
  234MOL0     H30840   7.163   6.725  -1.123 -0.2265  0.4431 -0.3393
  234MOL0     H30841   7.084   7.091  -1.201  0.4387 -0.1821 -0.1357
  234MOL0     H30842   7.240   7.217  -1.416 -2.6744 -1.4284  1.7478
  234MOL0     H30843   7.409   7.216  -1.390  2.0600  4.6667  0.4652
  234MOL0     H30844   7.384   7.361  -1.186  1.0242  2.2543 -1.7997
  234MOL0     H30845   7.202   7.351  -1.193  0.8234  2.0386  1.0471
  234MOL0     H30846   7.387   7.528  -1.302  3.3210 -1.7955 -3.4318
  234MOL0     H30847   7.370   7.439  -1.439 -0.3268  4.1586 -2.1295
  234MOL0     H30848   7.108   7.466  -1.445 -0.1168  0.8265  0.7534
  234MOL0     H30849   7.207   7.606  -1.472  0.1848 -1.6961 -2.7380
  234MOL0     H30850   7.025   7.678  -1.527  3.4560  1.6558  1.4513
  234MOL0     H30851   6.808   7.726  -1.567 -0.4107  1.9578 -0.0841
  234MOL0     H30852   6.359   8.010  -1.271 -0.8275  0.4217  0.8795
  234MOL0     H30853   6.126   8.016  -1.330  0.8983 -0.3906  0.0794
  234MOL0     H30854   5.942   7.654  -1.169 -2.3874 -4.0720 -0.2132
  234MOL0     H30855   5.891   7.604  -1.329 -2.1270  0.9160 -1.1367
  234MOL0     H30856   5.713   7.789  -1.339 -2.2524  0.2775 -0.1127
  234MOL0     H30857   5.765   7.829  -1.167 -0.4139 -1.5773  0.7212
  234MOL0     H30858   5.559   7.685  -1.180 -1.3374 -2.2665 -0.4449
  234MOL0     H30859   5.684   7.652  -1.071 -2.0485 -0.4971  0.5768
  234MOL0     H30860   5.655   7.516  -1.348  1.5952  2.8497 -0.2584
  234MOL0     H30861   5.762   7.458  -1.230  0.2313 -0.6642  0.8314
  234MOL0     H30862   5.593   7.406  -1.060 -0.0706 -0.5259 -0.2027
  234MOL0     H30863   5.599   7.304  -1.201 -0.0293  0.0395 -0.0925
  234MOL0     H30864   5.381   7.517  -1.159 -2.1917 -0.5450  0.0340
  234MOL0     H30865   5.376   7.347  -1.143  0.9851 -0.3832  1.0522
  234MOL0     H30866   5.448   7.495  -1.401 -3.0812  1.2928 -0.9709
  234MOL0     H30867   5.387   7.322  -1.392 -1.0670 -1.2566  1.6339
  234MOL0     H30868   5.223   7.453  -1.477 -2.1205 -2.4596  0.9137
  234MOL0     H30869   5.240   7.573  -1.356  1.0483 -0.4032  1.7451
  234MOL0     H30870   6.113   7.575  -1.328  0.7268 -0.1967 -0.1653
  234MOL0     H30871   6.379   7.584  -1.305  3.6010  2.5965 -0.2224
  234MOL0     H30872   6.726   7.759  -1.141  2.7405  1.5436  3.3425
  234MOL0     H30873   6.940   7.671  -1.098  2.4447 -0.1029 -0.6666
  234MOL0     H30874   7.352   6.244  -0.151 -2.1632  1.6283 -0.9051
  234MOL0     H30875   7.308   6.159   0.080  1.5997  0.2897 -0.6799
  234MOL0     H30876   7.373   5.994   0.538 -2.4140 -0.6921  0.3107
  234MOL0     H30877   7.284   5.954   0.761  2.9921 -0.4364 -2.1786
  234MOL0     H30878   7.255   6.129   1.063  0.6882 -0.9134 -0.4956
  234MOL0     H30879   7.264   5.985   0.954 -0.0133 -0.9779  1.5255
  234MOL0     H30880   7.121   5.903   1.131  0.0365  0.6853  0.9994
  234MOL0     H30881   7.042   6.054   1.149 -1.0373 -0.5143  0.6040
  234MOL0     H30882   7.021   5.888   0.894  2.9519 -0.4921  1.9296
  234MOL0     H30883   6.915   6.024   0.924  2.2671 -0.8118 -3.3179
  234MOL0     H30884   6.909   5.777   1.102 -0.9585 -0.4061 -0.0159
  234MOL0     H30885   6.808   5.901   1.117  0.0635 -0.6415  0.4878
  234MOL0     H30886   6.600   5.715   0.809 -1.8169 -0.6060  1.2914
  234MOL0     H30887   7.058   6.317   0.719 -0.9822  1.8832 -3.9188
  234MOL0     H30888   7.139   6.348   0.493 -0.2282  0.5657  2.0784
  235MOL0     O30889  11.263  10.908   7.064 -0.5901  0.6640 -0.3600
  235MOL0     C30890  11.247  10.880   7.185 -0.0334  0.1127 -0.6820
  235MOL0     O30891  11.131  10.880   7.253 -0.6002  0.7364 -0.7548
  235MOL0     C30892  11.017  10.910   7.187  0.8944 -0.5220 -0.9536
  235MOL0     C30893  10.977  10.850   7.072  0.0173  0.9446  0.8351
  235MOL0     C30894  10.850  10.863   7.022  0.0164 -0.2779 -0.2502
  235MOL0     C30895  10.764  10.961   7.076 -0.6834 -0.0719  0.5718
  235MOL0     O30896  10.643  10.991   7.017  0.0399 -0.1815  0.0101
  235MOL0     C30897  10.582  11.113   7.043 -0.6717 -0.1090 -0.0002
  235MOL0     C30898  10.482  11.150   6.931 -0.2316 -1.6782  0.3791
  235MOL0     C30899  10.559  11.207   6.812  1.2662  0.4914  0.0536
  235MOL0     C30900  10.643  11.106   6.732 -0.4887 -0.0462  1.3166
  235MOL0     C30901  10.698  11.164   6.601  0.3722  0.2417  0.5724
  235MOL0     C30902  10.809  11.064   6.536  0.3238 -0.0543  0.0590
  235MOL0     C30903  10.852  11.125   6.410  0.1736  0.3450 -0.0816
  235MOL0     C30904  10.962  11.040   6.351  0.5598  0.3056 -1.1448
  235MOL0     N30905  10.993  11.080   6.214  0.6540  0.5335  0.4731
  235MOL0     C30906  11.112  11.140   6.182  0.6267 -0.6014  0.6521
  235MOL0     C30907  11.112  11.135   6.050  0.4946  0.1281  0.0913
  235MOL0     C30908  11.237  11.166   5.971 -0.5122  0.2638  0.2322
  235MOL0     C30909  11.211  11.188   5.814  0.7400  0.3472  0.0529
  235MOL0     C30910  11.083  11.277   5.779 -0.6386 -0.1360  0.2847
  235MOL0     C30911  11.082  11.409   5.855 -1.0511 -0.0193  0.4139
  235MOL0     O30912  11.000  11.496   5.781 -0.2614 -0.6006  0.4121
  235MOL0     C30913  10.961  11.608   5.846  0.1211 -0.7553  1.3460
  235MOL0     C30914  11.034  11.668   5.953  0.0321 -0.4069 -0.2298
  235MOL0     C30915  10.988  11.782   6.016 -0.5771  0.1130 -0.4947
  235MOL0     C30916  10.861  11.847   5.980 -0.9065 -0.2511  0.4698
  235MOL0     C30917  10.799  11.949   6.067  0.2064 -0.3141  0.3825
  235MOL0     O30918  10.883  12.011   6.150  0.6090  0.0718  0.7423
  235MOL0     C30919  10.849  12.121   6.222  0.0457  0.9842  0.7337
  235MOL0     C30920  10.959  12.207   6.238 -0.4538  0.3504  0.4510
  235MOL0     C30921  10.935  12.325   6.314 -0.8233  0.2215  0.0544
  235MOL0     C30922  10.815  12.332   6.386  0.8118 -0.3374  0.0314
  235MOL0     O30923  10.814  12.438   6.471  0.0854  0.0721  0.0336
  235MOL0     C30924  10.755  12.406   6.604  0.7754  0.3696 -0.6584
  235MOL0     C30925  10.804  12.504   6.709  0.0663 -0.0979 -0.1345
  235MOL0     C30926  10.739  12.645   6.717  0.2281  0.5488  0.3176
  235MOL0     C30927  10.603  12.635   6.802 -0.1772  0.3812  1.1089
  235MOL0     C30928  10.508  12.751   6.774  0.1698  0.1930 -0.0525
  235MOL0     C30929  10.579  12.887   6.803  0.2537  0.4076  0.7651
  235MOL0     C30930  10.480  13.001   6.783 -0.3009  0.3748 -0.4769
  235MOL0     C30931  10.378  13.001   6.903 -0.2852  0.8068 -0.3461
  235MOL0    Cl30932  10.283  13.155   6.888 -0.1444  0.4351 -0.5642
  235MOL0     C30933  10.709  12.241   6.380  0.5293  0.8969  0.6646
  235MOL0     C30934  10.724  12.134   6.288  0.4304  0.5925  0.4881
  235MOL0     O30935  10.686  11.985   6.041 -0.2027 -0.3411  0.2470
  235MOL0     C30936  10.790  11.799   5.868  0.4325  1.2595 -0.5541
  235MOL0     C30937  10.851  11.682   5.806 -0.0933  0.2046  1.1873
  235MOL0     N30938  10.998  11.069   6.000  0.3953 -0.8286  0.9580
  235MOL0     N30939  10.924  11.044   6.104  0.5337  0.4668 -0.1374
  235MOL0     C30940  10.811  11.021   7.189  0.6958  0.1561  1.3634
  235MOL0     C30941  10.929  10.999   7.252 -0.6745 -0.8131 -0.6658
  235MOL0     C30942  11.357  10.811   7.247 -0.3637  0.0963 -0.5874
  235MOL0     C30943  11.350  10.757   7.373  0.4634 -1.3829  0.4397
  235MOL0     C30944  11.459  10.687   7.423  0.8427  0.0355  0.2801
  235MOL0     C30945  11.581  10.685   7.360 -0.0784 -0.1682 -0.4214
  235MOL0     O30946  11.678  10.606   7.415 -0.1288  0.7813 -0.1066
  235MOL0     C30947  11.639  10.497   7.498  0.5993 -0.0927  0.4939
  235MOL0     C30948  11.751  10.397   7.523 -0.0792 -0.0596 -1.2618
  235MOL0     C30949  11.820  10.365   7.390 -0.5598 -0.3608  0.8565
  235MOL0     C30950  11.892  10.228   7.389  0.7529 -1.4282  0.2202
  235MOL0     C30951  12.010  10.237   7.468  0.2313 -0.0385  0.0539
  235MOL0     C30952  12.111  10.244   7.543  0.4140 -0.5809 -1.1449
  235MOL0     C30953  11.601  10.762   7.246 -1.1772  0.2268  0.1739
  235MOL0     C30954  11.491  10.810   7.184  0.5959 -0.2202  0.3742
  235MOL0     H30955  11.033  10.773   7.019 -1.6242 -1.0042  1.7845
  235MOL0     H30956  10.830  10.805   6.932  2.1117 -1.0807 -0.2332
  235MOL0     H30957  10.646  11.200   7.059  0.3525 -0.6208 -1.0720
  235MOL0     H30958  10.522  11.097   7.133  1.1621  1.8075  1.6706
  235MOL0     H30959  10.405  11.211   6.980  0.8973 -0.8924  1.2463
  235MOL0     H30960  10.425  11.065   6.893 -1.7799 -0.6096  0.2653
  235MOL0     H30961  10.629  11.288   6.837 -1.5663  3.0527  0.2092
  235MOL0     H30962  10.491  11.249   6.738  0.1382  1.1997  1.4599
  235MOL0     H30963  10.725  11.084   6.800  0.5100  2.5057  1.0251
  235MOL0     H30964  10.582  11.018   6.709  0.2961 -0.0222 -1.0758
  235MOL0     H30965  10.741  11.261   6.629  2.5554 -0.1750 -1.0267
  235MOL0     H30966  10.613  11.169   6.532 -0.1102 -0.7492  1.0720
  235MOL0     H30967  10.771  10.963   6.520  3.0988 -1.4279  1.4204
  235MOL0     H30968  10.882  11.044   6.615  0.3589 -3.2221 -0.6304
  235MOL0     H30969  10.769  11.131   6.339 -1.3875 -1.0391  1.5297
  235MOL0     H30970  10.895  11.223   6.429 -0.2705 -0.1632  4.8973
  235MOL0     H30971  10.945  10.932   6.355  0.7935  0.3027  0.2039
  235MOL0     H30972  11.047  11.045   6.420 -1.9252 -1.1260  2.3276
  235MOL0     H30973  11.197  11.157   6.248  0.8771  0.1156  0.1538
  235MOL0     H30974  11.306  11.081   5.974 -1.9254 -0.8883  2.4498
  235MOL0     H30975  11.290  11.253   6.010 -2.5406  1.0616  1.3160
  235MOL0     H30976  11.201  11.091   5.764  2.3289 -0.8867  1.9422
  235MOL0     H30977  11.289  11.235   5.754  1.5102 -1.7251 -0.6641
  235MOL0     H30978  11.084  11.283   5.669 -0.9367 -1.2290  0.2032
  235MOL0     H30979  11.000  11.213   5.810  0.7360 -0.7875  2.9180
  235MOL0     H30980  11.186  11.442   5.864 -1.1696 -0.1178  2.8062
  235MOL0     H30981  11.049  11.384   5.957 -0.2105  1.0398  0.9738
  235MOL0     H30982  11.125  11.627   5.996  0.5849  0.1968 -0.8013
  235MOL0     H30983  11.048  11.812   6.102  3.0896  0.2276 -2.8900
  235MOL0     H30984  11.055  12.207   6.188 -1.4003  1.5890 -1.5062
  235MOL0     H30985  11.025  12.386   6.308  0.0139 -0.9028  0.7149
  235MOL0     H30986  10.781  12.302   6.627 -0.6166  0.4130  1.3832
  235MOL0     H30987  10.646  12.414   6.598  0.6697  2.2652  1.9982
  235MOL0     H30988  10.913  12.514   6.695  0.2485  0.1138  1.2756
  235MOL0     H30989  10.792  12.465   6.810 -1.5843 -0.3985 -0.4194
  235MOL0     H30990  10.716  12.669   6.613  3.0668 -1.8648 -1.0014
  235MOL0     H30991  10.808  12.723   6.750  1.0734 -0.3871  0.7958
  235MOL0     H30992  10.547  12.546   6.771 -0.5910  0.8250  0.5541
  235MOL0     H30993  10.626  12.634   6.909  1.3247  2.1455  0.8669
  235MOL0     H30994  10.418  12.738   6.835 -0.6346  0.8024 -1.0685
  235MOL0     H30995  10.478  12.758   6.669 -1.7584 -3.1711  0.1548
  235MOL0     H30996  10.665  12.910   6.739 -0.4098  0.1918 -0.2264
  235MOL0     H30997  10.599  12.890   6.911 -2.4669 -0.5542  1.3815
  235MOL0     H30998  10.530  13.097   6.795 -3.9422  2.2374  1.2932
  235MOL0     H30999  10.435  12.994   6.683 -4.0555 -1.0612  1.1497
  235MOL0     H31000  10.422  12.997   7.004  1.3473  1.5464 -0.9972
  235MOL0     H31001  10.311  12.916   6.889  1.5856 -0.6916 -0.7641
  235MOL0     H31002  10.616  12.258   6.434  0.3353 -0.9293  0.9670
  235MOL0     H31003  10.638  12.068   6.291 -0.2846  1.4905  0.1403
  235MOL0     H31004  10.704  11.852   5.829 -0.1089  0.6336 -0.2286
  235MOL0     H31005  10.802  11.654   5.713  0.0541 -1.3254  1.5413
  235MOL0     H31006  10.742  11.085   7.242  0.1399  0.1996  0.6117
  235MOL0     H31007  10.950  11.047   7.347  0.0895  0.0787 -1.2569
  235MOL0     H31008  11.250  10.758   7.415 -2.1305  1.8808 -4.7378
  235MOL0     H31009  11.437  10.618   7.505 -1.2426 -0.6783 -0.8098
  235MOL0     H31010  11.553  10.438   7.464  0.5235  0.5672 -0.5151
  235MOL0     H31011  11.598  10.539   7.591  1.6317  1.8760  0.1291
  235MOL0     H31012  11.817  10.443   7.597 -2.9408 -1.4395  2.4197
  235MOL0     H31013  11.712  10.308   7.573 -2.1563  0.9971 -0.8836
  235MOL0     H31014  11.881  10.449   7.355  0.6097 -1.0348  1.2135
  235MOL0     H31015  11.737  10.353   7.321  2.3256  0.9192 -3.1778
  235MOL0     H31016  11.823  10.154   7.430  2.2183 -1.1644  3.4193
  235MOL0     H31017  11.913  10.196   7.286 -0.3908  0.3494 -0.6255
  235MOL0     H31018  12.202  10.252   7.598 -0.5087  2.7508  0.2012
  235MOL0     H31019  11.697  10.772   7.196 -1.2605  0.3689  0.0411
  235MOL0     H31020  11.501  10.851   7.084 -0.8292 -0.3315  0.1641
  236MOL0     O31021   5.827   7.645   2.204  0.1904  0.6000  0.7057
  236MOL0     C31022   5.747   7.673   2.297  0.0968 -0.7417  0.1908
  236MOL0     O31023   5.762   7.640   2.429 -0.3875  0.7209  0.1988
  236MOL0     C31024   5.881   7.581   2.469 -0.3263 -0.0176 -0.0724
  236MOL0     C31025   5.959   7.643   2.567  0.2353  0.3351  0.6167
  236MOL0     C31026   6.087   7.593   2.597  0.0994 -0.2773  0.7154
  236MOL0     C31027   6.145   7.496   2.521 -0.3965  0.0994  0.4411
  236MOL0     O31028   6.282   7.485   2.543  0.6410 -0.6704  0.0968
  236MOL0     C31029   6.371   7.427   2.440  0.5407 -0.5761  0.1042
  236MOL0     C31030   6.512   7.483   2.468 -1.0327  0.3637  0.0149
  236MOL0     C31031   6.524   7.639   2.489 -0.4655  0.1709 -0.0911
  236MOL0     C31032   6.674   7.656   2.488 -0.1509  0.1382  0.2585
  236MOL0     C31033   6.740   7.765   2.579 -0.4313 -0.7343  0.5673
  236MOL0     C31034   6.739   7.752   2.736 -0.2665  0.2472  0.2872
  236MOL0     C31035   6.816   7.858   2.805 -0.1472 -0.0265  1.2228
  236MOL0     C31036   6.740   7.998   2.790 -0.6737 -0.0939  0.2712
  236MOL0     N31037   6.830   8.092   2.854 -0.3333  0.1484  0.2227
  236MOL0     C31038   6.946   8.151   2.801 -0.5495  0.3081  0.3300
  236MOL0     C31039   7.006   8.222   2.904 -0.0949  0.6125  0.0773
  236MOL0     C31040   7.129   8.305   2.890  0.3774  0.1531 -0.0708
  236MOL0     C31041   7.252   8.211   2.912 -0.1754  0.2446 -0.4384
  236MOL0     C31042   7.372   8.279   2.984  0.9524  0.2885  0.6501
  236MOL0     C31043   7.414   8.406   2.904 -0.2296  0.5114  0.5924
  236MOL0     O31044   7.434   8.384   2.764  0.2264 -0.0983  0.2264
  236MOL0     C31045   7.482   8.488   2.692 -0.5430  0.8616  0.3373
  236MOL0     C31046   7.514   8.460   2.559  1.1456  0.1283 -0.1228
  236MOL0     C31047   7.565   8.554   2.469  0.1345  0.0077  0.9466
  236MOL0     C31048   7.595   8.684   2.516 -0.0386  0.6133 -0.7659
  236MOL0     C31049   7.646   8.787   2.421 -0.2295 -0.0463 -0.5399
  236MOL0     O31050   7.691   8.733   2.310 -0.0552 -0.7150 -0.1035
  236MOL0     C31051   7.738   8.817   2.211 -0.2997 -0.8194 -0.4307
  236MOL0     C31052   7.657   8.905   2.136 -0.2445 -0.9220  0.6479
  236MOL0     C31053   7.717   8.984   2.036  0.8290  1.0444  0.8433
  236MOL0     C31054   7.856   8.978   2.009  0.4144 -0.0488  0.1690
  236MOL0     O31055   7.928   9.043   1.907 -0.2697 -0.0834 -0.1348
  236MOL0     C31056   7.873   9.158   1.847 -0.2382  1.1388  0.1457
  236MOL0     C31057   7.961   9.206   1.718  0.0123  0.9814 -0.1262
  236MOL0     C31058   7.937   9.341   1.671  0.2372 -0.9772  0.2526
  236MOL0     C31059   7.949   9.438   1.793 -0.8725  0.4161  0.2436
  236MOL0     C31060   7.939   9.585   1.763 -0.2363  0.2366 -0.8182
  236MOL0     C31061   8.020   9.646   1.649 -0.1310  0.8170  0.3113
  236MOL0     C31062   8.164   9.657   1.700  0.4570 -0.2896 -0.8640
  236MOL0     C31063   8.198   9.785   1.782  0.7680 -0.8632  0.6278
  236MOL0    Cl31064   8.173   9.777   1.959 -0.5993  0.0632  0.2688
  236MOL0     C31065   7.936   8.893   2.087 -0.8130 -0.4560 -0.8083
  236MOL0     C31066   7.878   8.816   2.184  0.0160  0.6542 -0.2105
  236MOL0     O31067   7.641   8.903   2.452  0.4042 -0.2334 -0.4762
  236MOL0     C31068   7.553   8.721   2.643  0.5450  0.4578 -0.3192
  236MOL0     C31069   7.500   8.626   2.735 -0.6075  0.0307  0.4471
  236MOL0     N31070   6.932   8.208   3.015  0.3186  0.1601 -0.5700
  236MOL0     N31071   6.826   8.125   2.988  0.0447  0.0990 -0.0361
  236MOL0     C31072   6.072   7.426   2.434  0.4557  0.0730 -0.9475
  236MOL0     C31073   5.938   7.475   2.410 -0.4850  1.6000 -0.0916
  236MOL0     C31074   5.636   7.764   2.264 -0.7895  0.8202  0.7342
  236MOL0     C31075   5.618   7.835   2.142 -0.8683  0.8989 -0.3393
  236MOL0     C31076   5.518   7.934   2.131 -0.0454 -0.7583  0.0691
  236MOL0     C31077   5.420   7.955   2.233 -1.4955  0.7041  0.1141
  236MOL0     O31078   5.320   8.042   2.208  0.3742 -0.5322 -0.4426
  236MOL0     C31079   5.214   8.052   2.300 -0.6960 -0.6607  0.1285
  236MOL0     C31080   5.223   8.148   2.421  0.3185 -0.2720 -0.8100
  236MOL0     C31081   5.251   8.293   2.370  0.2446 -0.2437 -0.2255
  236MOL0     C31082   5.200   8.394   2.473  0.0305  0.1557 -0.4308
  236MOL0     C31083   5.251   8.525   2.457 -0.0039  0.4707 -0.8367
  236MOL0     C31084   5.296   8.638   2.447 -1.0623  0.1952  0.5673
  236MOL0     C31085   5.443   7.884   2.350 -0.1364 -0.2897 -0.6975
  236MOL0     C31086   5.552   7.794   2.368  1.1264  0.4665  0.3679
  236MOL0     H31087   5.909   7.708   2.639 -0.4526  0.1423  0.3192
  236MOL0     H31088   6.137   7.648   2.676 -3.4217  2.2815  1.4115
  236MOL0     H31089   6.334   7.459   2.342 -1.4536 -0.1156  0.9468
  236MOL0     H31090   6.360   7.320   2.460 -0.5557  0.0004  3.3090
  236MOL0     H31091   6.582   7.447   2.393  0.8067 -0.9500  2.2211
  236MOL0     H31092   6.546   7.435   2.561 -2.9588 -1.5044 -0.1984
  236MOL0     H31093   6.478   7.678   2.580 -2.3965  1.9701 -1.7533
  236MOL0     H31094   6.481   7.697   2.408 -3.2217 -2.5004 -0.7366
  236MOL0     H31095   6.718   7.560   2.517  1.3988  1.5418  3.1088
  236MOL0     H31096   6.703   7.677   2.385 -1.3677 -1.7336 -0.5220
  236MOL0     H31097   6.683   7.857   2.563  1.1707  0.4354  1.2227
  236MOL0     H31098   6.834   7.789   2.528 -1.8052  4.4344 -0.0876
  236MOL0     H31099   6.766   7.653   2.773  4.3342  1.9379  2.3028
  236MOL0     H31100   6.639   7.771   2.774  0.2005 -0.4841  1.9933
  236MOL0     H31101   6.813   7.850   2.914 -3.9819  1.6708  1.4026
  236MOL0     H31102   6.916   7.861   2.759 -0.4702 -2.6034  0.2001
  236MOL0     H31103   6.641   7.991   2.834 -2.2392  8.8281 -0.1340
  236MOL0     H31104   6.728   8.024   2.684 -4.7928 -1.8526  0.1102
  236MOL0     H31105   6.989   8.146   2.702 -1.7670  1.6274 -0.3056
  236MOL0     H31106   7.134   8.380   2.969  2.7336  0.5056 -0.4618
  236MOL0     H31107   7.142   8.361   2.797 -0.7907  0.8182  0.1612
  236MOL0     H31108   7.286   8.177   2.814 -0.0523  1.6493 -0.8946
  236MOL0     H31109   7.215   8.123   2.966  1.3476 -0.4161 -0.4320
  236MOL0     H31110   7.341   8.314   3.083  0.5855  0.1239  0.5927
  236MOL0     H31111   7.456   8.210   3.000 -0.1170 -1.5780 -1.3540
  236MOL0     H31112   7.506   8.446   2.946  0.2743  0.6228 -0.5885
  236MOL0     H31113   7.338   8.483   2.918  0.3934  0.9901  1.4528
  236MOL0     H31114   7.502   8.357   2.526 -3.2564  0.5917 -0.5385
  236MOL0     H31115   7.582   8.519   2.368 -2.1489 -1.8791  1.1234
  236MOL0     H31116   7.550   8.905   2.152 -0.3495 -4.1244  0.5444
  236MOL0     H31117   7.652   9.050   1.979  0.2549 -0.2386 -0.0397
  236MOL0     H31118   7.888   9.237   1.921 -1.2818  0.4636  1.1135
  236MOL0     H31119   7.767   9.160   1.821 -0.2496 -0.7914 -0.1291
  236MOL0     H31120   7.949   9.143   1.630 -3.4328  2.5351 -0.9537
  236MOL0     H31121   8.064   9.197   1.754 -0.0750  1.1864  0.1864
  236MOL0     H31122   7.844   9.342   1.614 -0.3374 -0.9504  1.1648
  236MOL0     H31123   8.022   9.356   1.604  0.7720  2.0008  1.4667
  236MOL0     H31124   7.860   9.421   1.854 -1.2097 -4.2169 -1.1173
  236MOL0     H31125   8.035   9.411   1.855 -1.4641  1.3290  1.5097
  236MOL0     H31126   7.973   9.639   1.851  3.9614 -2.1436 -0.6998
  236MOL0     H31127   7.837   9.616   1.739  0.0509 -0.4881 -3.2017
  236MOL0     H31128   7.975   9.746   1.647 -0.5367  0.6891 -3.1425
  236MOL0     H31129   8.003   9.585   1.560 -1.1788  1.7691 -0.1694
  236MOL0     H31130   8.201   9.569   1.754  0.9098 -0.1870 -0.9953
  236MOL0     H31131   8.232   9.656   1.614  1.0442 -0.1488 -0.4098
  236MOL0     H31132   8.148   9.875   1.745  2.4323  0.6124  1.7310
  236MOL0     H31133   8.302   9.812   1.759  1.1873 -2.2758  0.7858
  236MOL0     H31134   8.043   8.890   2.069 -1.1364 -2.2374 -2.7175
  236MOL0     H31135   7.929   8.740   2.243 -1.6011  0.8901  1.6140
  236MOL0     H31136   7.581   8.821   2.676  3.3140  0.3338 -1.9799
  236MOL0     H31137   7.479   8.662   2.836  2.5726  0.2277  1.1291
  236MOL0     H31138   6.117   7.338   2.388  0.1944 -2.1177  2.6440
  236MOL0     H31139   5.888   7.440   2.320 -0.6616  3.1646 -0.6352
  236MOL0     H31140   5.710   7.834   2.084  0.9650  0.6758  2.4004
  236MOL0     H31141   5.504   8.000   2.047 -1.8065  1.4033  1.9162
  236MOL0     H31142   5.190   7.958   2.349 -0.9220 -0.0747  1.1734
  236MOL0     H31143   5.135   8.085   2.231  1.2267  2.8398 -0.6649
  236MOL0     H31144   5.130   8.135   2.478  1.3412  1.9333  1.5216
  236MOL0     H31145   5.309   8.141   2.488 -0.8627  0.7193  0.9023
  236MOL0     H31146   5.202   8.309   2.274  0.5504 -1.2493 -0.5585
  236MOL0     H31147   5.357   8.306   2.347  0.0519  1.2789 -0.3701
  236MOL0     H31148   5.090   8.389   2.476  0.0736 -3.2132  2.1114
  236MOL0     H31149   5.244   8.355   2.566  0.5146 -0.7037 -1.0078
  236MOL0     H31150   5.328   8.739   2.431  4.2992 -1.2438  0.2779
  236MOL0     H31151   5.376   7.897   2.434 -0.8255  1.8226 -1.4911
  236MOL0     H31152   5.550   7.750   2.467 -1.2008 -2.1336 -0.7235
  237MOL0     O31153   5.323   9.648   2.037  1.3777 -0.1830  0.2764
  237MOL0     C31154   5.308   9.730   2.126 -0.2279  0.6794 -0.0210
  237MOL0     O31155   5.352   9.719   2.257 -0.1120  0.1631  0.3936
  237MOL0     C31156   5.417   9.600   2.309 -0.7428  0.0703 -0.2364
  237MOL0     C31157   5.411   9.603   2.454 -0.2165 -0.1761 -0.4141
  237MOL0     C31158   5.448   9.492   2.532  0.2263 -0.0059  0.2052
  237MOL0     C31159   5.505   9.374   2.475 -0.0296  0.0326 -0.5461
  237MOL0     O31160   5.518   9.272   2.557 -0.3966 -0.0718  0.2338
  237MOL0     C31161   5.593   9.156   2.505  0.2546 -1.2459 -0.5316
  237MOL0     C31162   5.672   9.100   2.626  0.0868  0.0056  0.5816
  237MOL0     C31163   5.756   8.975   2.589 -0.5727  0.3652 -0.7007
  237MOL0     C31164   5.656   8.860   2.600 -0.0440 -0.7505 -0.3760
  237MOL0     C31165   5.718   8.717   2.599  0.2666  0.3400  0.9973
  237MOL0     C31166   5.612   8.611   2.568 -0.1100  0.4419  0.2413
  237MOL0     C31167   5.641   8.479   2.624 -1.2540  0.6983 -0.8776
  237MOL0     C31168   5.533   8.379   2.584 -0.0398 -0.6116  0.2515
  237MOL0     N31169   5.550   8.242   2.628 -0.3040 -0.3513 -0.8141
  237MOL0     C31170   5.661   8.163   2.587 -0.0468 -1.4157  0.3577
  237MOL0     C31171   5.662   8.067   2.685 -0.7133 -0.1796 -0.1051
  237MOL0     C31172   5.750   7.949   2.687  0.0599 -0.9128  0.5084
  237MOL0     C31173   5.832   7.933   2.820  0.8678 -0.0982 -0.4833
  237MOL0     C31174   5.893   8.056   2.874 -0.0664 -0.6885 -0.3837
  237MOL0     C31175   5.975   8.142   2.774  0.3896 -0.2756 -0.6511
  237MOL0     O31176   6.095   8.087   2.736 -0.8280  0.5467  0.1393
  237MOL0     C31177   6.195   8.071   2.832 -0.2695  0.4255  0.3766
  237MOL0     C31178   6.206   8.146   2.945 -0.5921  0.1394  0.0256
  237MOL0     C31179   6.303   8.104   3.047 -0.0308 -0.5730  1.0524
  237MOL0     C31180   6.393   8.002   3.024  0.7323  1.2957 -0.4381
  237MOL0     C31181   6.495   7.970   3.131 -0.2117  0.7686 -0.7929
  237MOL0     O31182   6.494   8.057   3.246 -0.0958 -0.4096  1.0529
  237MOL0     C31183   6.596   8.042   3.328 -0.9218 -0.8252  0.0902
  237MOL0     C31184   6.584   7.968   3.444  0.0852 -0.6267  0.6621
  237MOL0     C31185   6.695   7.965   3.529 -0.2491  0.4053  1.0513
  237MOL0     C31186   6.809   8.045   3.509 -0.7111  0.8409  0.1384
  237MOL0     O31187   6.915   8.053   3.600  0.9148  0.4611 -0.4414
  237MOL0     C31188   6.929   7.947   3.691  0.4464  0.4674  0.1636
  237MOL0     C31189   7.067   8.007   3.740  0.1399  0.0023 -0.1472
  237MOL0     C31190   7.130   7.936   3.854  0.0022 -0.6392  0.3879
  237MOL0     C31191   7.151   7.792   3.860  0.3209  0.9615 -0.5672
  237MOL0     C31192   7.207   7.737   3.735  1.2281 -0.4951  0.0854
  237MOL0     C31193   7.361   7.748   3.727 -0.3162  0.0074  0.1936
  237MOL0     C31194   7.428   7.675   3.610 -0.4226 -0.4391  0.5319
  237MOL0     C31195   7.572   7.714   3.601 -0.3455 -0.0091 -0.8852
  237MOL0    Cl31196   7.598   7.888   3.563 -0.2523 -0.5499  0.2371
  237MOL0     C31197   6.813   8.127   3.398 -0.3238 -0.1249  0.9676
  237MOL0     C31198   6.703   8.136   3.316 -1.3245 -0.3907  0.0364
  237MOL0     O31199   6.588   7.897   3.091 -0.3901 -0.0593  0.1646
  237MOL0     C31200   6.389   7.934   2.898 -0.1236  0.0848 -0.0080
  237MOL0     C31201   6.286   7.968   2.818  0.9195  0.8424  0.8224
  237MOL0     N31202   5.547   8.070   2.758 -0.2169  0.2084 -0.2975
  237MOL0     N31203   5.485   8.177   2.730  0.3819  0.8689  0.8362
  237MOL0     C31204   5.505   9.368   2.328  0.7790 -0.7031 -0.5402
  237MOL0     C31205   5.465   9.480   2.251  0.0384 -0.5144  1.3882
  237MOL0     C31206   5.225   9.846   2.095 -0.3602  0.0691 -0.2031
  237MOL0     C31207   5.172   9.860   1.962  0.2608  0.0332 -0.2876
  237MOL0     C31208   5.094   9.970   1.930  1.0400 -0.4347  1.1400
  237MOL0     C31209   5.064  10.067   2.020 -0.3906  0.6826 -0.0877
  237MOL0     O31210   4.974  10.164   1.982 -0.3137 -0.7406 -0.1845
  237MOL0     C31211   5.011  10.260   1.887  0.3772  0.3765  0.9843
  237MOL0     C31212   5.100  10.369   1.945 -0.1460 -0.5794 -0.2584
  237MOL0     C31213   5.251  10.335   1.976 -0.1106  0.2519  0.2947
  237MOL0     C31214   5.325  10.452   2.051  0.4980  1.5856  0.4119
  237MOL0     C31215   5.469  10.453   2.034  0.6364 -0.0480 -0.2433
  237MOL0     C31216   5.587  10.463   2.025  0.3202  0.7340  1.9100
  237MOL0     C31217   5.096  10.049   2.158 -0.4218 -0.4447 -0.4808
  237MOL0     C31218   5.190   9.942   2.188  0.0386  0.3305 -0.2985
  237MOL0     H31219   5.375   9.694   2.500  2.5077  1.2344 -0.8732
  237MOL0     H31220   5.413   9.494   2.635  0.0640  0.8770  0.1364
  237MOL0     H31221   5.663   9.186   2.426 -0.6464  1.7387 -0.3107
  237MOL0     H31222   5.514   9.083   2.482 -2.8093  0.9955  2.0044
  237MOL0     H31223   5.599   9.072   2.702  1.4945  1.0341  2.3766
  237MOL0     H31224   5.734   9.174   2.678 -0.9742  0.9627  0.5356
  237MOL0     H31225   5.838   8.970   2.662 -0.8699 -1.8281 -0.4464
  237MOL0     H31226   5.790   8.976   2.485  2.8975 -2.2003  0.2381
  237MOL0     H31227   5.618   8.858   2.702  0.0732 -2.0061 -0.3401
  237MOL0     H31228   5.576   8.867   2.525  0.2904 -0.8896 -0.7532
  237MOL0     H31229   5.758   8.704   2.700 -0.9729  0.1821  1.4818
  237MOL0     H31230   5.791   8.713   2.516 -0.0428  2.5548  0.5618
  237MOL0     H31231   5.602   8.607   2.460 -0.0503 -0.3803  0.2598
  237MOL0     H31232   5.515   8.639   2.610 -1.0859 -0.7991 -1.0799
  237MOL0     H31233   5.739   8.453   2.584 -1.9456 -1.6174 -1.2307
  237MOL0     H31234   5.646   8.477   2.734 -3.1248  1.7865 -0.7175
  237MOL0     H31235   5.521   8.383   2.475 -4.5573  0.9634  0.5863
  237MOL0     H31236   5.441   8.419   2.627  0.1197  1.3284 -1.1132
  237MOL0     H31237   5.736   8.180   2.510  0.2788 -0.8891  0.7814
  237MOL0     H31238   5.812   7.957   2.597  1.1145  4.8045  1.3312
  237MOL0     H31239   5.688   7.859   2.684  1.1950 -1.7001 -0.2724
  237MOL0     H31240   5.916   7.866   2.800  0.9217 -0.1529 -0.0791
  237MOL0     H31241   5.770   7.885   2.896  2.1735 -1.4552 -0.2276
  237MOL0     H31242   5.811   8.115   2.916  0.4028 -1.7825  2.2729
  237MOL0     H31243   5.962   8.027   2.954 -0.9784  1.5337  1.3327
  237MOL0     H31244   5.986   8.240   2.820 -0.2380 -0.0816 -0.9010
  237MOL0     H31245   5.906   8.172   2.694  0.1265  0.4705 -0.1566
  237MOL0     H31246   6.140   8.230   2.963 -0.9052 -0.0747 -0.1084
  237MOL0     H31247   6.308   8.149   3.146 -1.6117 -1.3111  1.4871
  237MOL0     H31248   6.502   7.898   3.458  1.8348 -3.8040 -2.9921
  237MOL0     H31249   6.687   7.896   3.612  0.7101 -1.0122  0.0235
  237MOL0     H31250   6.938   7.846   3.649 -3.0588 -0.6309  1.6287
  237MOL0     H31251   6.849   7.934   3.764  1.2207 -2.9887  0.5604
  237MOL0     H31252   7.059   8.112   3.771 -1.4254  1.2822 -4.2843
  237MOL0     H31253   7.139   8.006   3.659 -1.7893  1.0233 -1.9900
  237MOL0     H31254   7.072   7.967   3.942 -2.9762 -0.6273 -1.4475
  237MOL0     H31255   7.228   7.984   3.860 -0.4240  0.5551 -1.4968
  237MOL0     H31256   7.200   7.758   3.951 -2.1750 -2.4461 -0.3016
  237MOL0     H31257   7.052   7.746   3.872  0.8331 -1.0888 -3.2969
  237MOL0     H31258   7.152   7.784   3.653 -1.0831  0.0644  1.8295
  237MOL0     H31259   7.191   7.629   3.729 -1.9451 -0.2360  1.6172
  237MOL0     H31260   7.409   7.709   3.817  2.6172 -1.6551 -1.8719
  237MOL0     H31261   7.371   7.857   3.716 -0.7757 -0.0938 -1.6652
  237MOL0     H31262   7.426   7.568   3.634  2.8278 -0.7151 -0.0603
  237MOL0     H31263   7.374   7.694   3.517 -2.3162 -2.2700  1.1661
  237MOL0     H31264   7.613   7.638   3.533 -0.6812 -1.7723  0.7879
  237MOL0     H31265   7.631   7.698   3.691  0.6855  5.1131 -0.3762
  237MOL0     H31266   6.907   8.177   3.376 -1.1713  1.1338  0.1452
  237MOL0     H31267   6.696   8.198   3.228  2.1503  1.8176  1.1255
  237MOL0     H31268   6.466   7.863   2.870  1.4797  1.6294  0.3367
  237MOL0     H31269   6.270   7.910   2.728  4.7178 -0.2312  0.6685
  237MOL0     H31270   5.522   9.276   2.273  1.1304 -0.0388 -1.5608
  237MOL0     H31271   5.460   9.473   2.143  1.8741  2.0109  1.0259
  237MOL0     H31272   5.171   9.795   1.874 -2.9302 -2.4441  1.3807
  237MOL0     H31273   5.071   9.978   1.824  1.7129  1.8827  1.1080
  237MOL0     H31274   4.919  10.303   1.847 -0.1776 -1.7539 -0.1646
  237MOL0     H31275   5.063  10.206   1.808 -4.1746 -2.3156 -0.5358
  237MOL0     H31276   5.104  10.461   1.886  0.1803  0.5222  1.4079
  237MOL0     H31277   5.055  10.400   2.040  0.1313 -0.9130 -0.0143
  237MOL0     H31278   5.292  10.307   1.878 -2.4522  1.3148 -1.0996
  237MOL0     H31279   5.262  10.250   2.044 -0.8142  0.5575  0.8077
  237MOL0     H31280   5.270  10.542   2.023 -0.2282  1.6961  2.0631
  237MOL0     H31281   5.308  10.432   2.157  0.8636 -3.8024 -0.2414
  237MOL0     H31282   5.692  10.447   2.013 -0.0463 -0.2647 -0.8401
  237MOL0     H31283   5.060  10.130   2.221  0.8174 -1.3582  1.5005
  237MOL0     H31284   5.219   9.933   2.293 -0.9759 -0.9825 -0.1024
  238MOL0     O31285   2.253   1.735   7.566  0.3445 -0.7575 -0.3268
  238MOL0     C31286   2.186   1.828   7.532  1.0014 -0.9884  0.8175
  238MOL0     O31287   2.211   1.962   7.553  0.0243 -0.1014  0.1488
  238MOL0     C31288   2.323   2.002   7.623  0.1259  0.3182  1.0151
  238MOL0     C31289   2.430   1.916   7.677  0.2563 -0.2881 -0.3676
  238MOL0     C31290   2.520   1.965   7.780 -0.3217 -0.9643 -0.5062
  238MOL0     C31291   2.496   2.097   7.832 -0.3607  0.3311 -0.2838
  238MOL0     O31292   2.577   2.168   7.918 -0.8404  1.0569 -0.3663
  238MOL0     C31293   2.534   2.125   8.045  0.0538  0.5055 -0.8573
  238MOL0     C31294   2.557   2.241   8.144  1.1058 -0.0188 -0.3579
  238MOL0     C31295   2.447   2.335   8.110  0.2663  0.0564 -0.4864
  238MOL0     C31296   2.430   2.443   8.226  0.1531  0.6362 -0.1190
  238MOL0     C31297   2.326   2.554   8.198 -0.2796 -0.3157  0.1366
  238MOL0     C31298   2.362   2.633   8.076  0.4280 -0.0477 -0.2202
  238MOL0     C31299   2.242   2.722   8.056 -0.2627  0.2257  0.5729
  238MOL0     C31300   2.255   2.834   7.945  0.3058  0.0274 -1.0047
  238MOL0     N31301   2.118   2.883   7.921 -0.8363  0.4223  0.4242
  238MOL0     C31302   2.063   2.992   7.987  0.5389  0.2242  0.7913
  238MOL0     C31303   1.937   2.999   7.918  0.7097 -0.7440  0.2935
  238MOL0     C31304   1.839   3.115   7.926  0.6394 -0.2913  0.1502
  238MOL0     C31305   1.886   3.252   7.864 -0.5813 -0.2263 -0.2325
  238MOL0     C31306   1.767   3.350   7.856  0.2798  1.0873 -0.5919
  238MOL0     C31307   1.666   3.317   7.746 -0.4634 -0.5363 -0.3118
  238MOL0     O31308   1.731   3.299   7.615  0.6255 -0.0780 -0.0982
  238MOL0     C31309   1.658   3.280   7.501 -0.1939  0.3089  0.7000
  238MOL0     C31310   1.710   3.264   7.374  0.8257 -0.1448  0.6876
  238MOL0     C31311   1.627   3.263   7.261 -0.2632  0.3713 -0.0745
  238MOL0     C31312   1.491   3.260   7.277  0.0746  0.0180  0.2970
  238MOL0     C31313   1.396   3.243   7.160 -0.6046  0.5115  0.2422
  238MOL0     O31314   1.265   3.254   7.189 -0.3933  0.0088  0.4094
  238MOL0     C31315   1.178   3.302   7.087 -0.4395  0.1487 -0.1397
  238MOL0     C31316   1.048   3.253   7.079  0.1894  0.5922  0.1789
  238MOL0     C31317   0.951   3.316   6.991 -0.9562  0.3174  0.2106
  238MOL0     C31318   0.983   3.433   6.930  0.4858  0.5222 -0.0239
  238MOL0     O31319   0.902   3.522   6.865  0.3903  0.3482  0.2593
  238MOL0     C31320   0.764   3.494   6.870  0.4251  0.3980 -0.4941
  238MOL0     C31321   0.707   3.617   6.805  0.6858  0.3277 -0.1190
  238MOL0     C31322   0.552   3.622   6.825 -0.4175 -0.6003  0.1980
  238MOL0     C31323   0.502   3.760   6.793 -0.3237  1.0837  0.5302
  238MOL0     C31324   0.355   3.783   6.847 -0.5557  0.1835 -0.0564
  238MOL0     C31325   0.294   3.928   6.819 -0.3360  1.0317 -0.7137
  238MOL0     C31326   0.137   3.910   6.801 -0.1608  0.3703 -0.0297
  238MOL0     C31327   0.069   4.034   6.747  0.6704  1.3910 -0.0498
  238MOL0    Cl31328   0.119   4.045   6.573  0.0046 -0.5479 -0.2939
  238MOL0     C31329   1.110   3.474   6.918 -0.0348 -0.3113  0.0467
  238MOL0     C31330   1.206   3.410   7.000  0.5058  0.5637 -0.9870
  238MOL0     O31331   1.452   3.222   7.051 -0.4740 -0.1825  0.3884
  238MOL0     C31332   1.438   3.278   7.406 -0.0728  1.2357  0.6980
  238MOL0     C31333   1.517   3.294   7.510  0.2681  0.6922  0.5568
  238MOL0     N31334   1.937   2.903   7.816  0.7204  0.9546  0.3480
  238MOL0     N31335   2.041   2.837   7.816  0.4512 -0.6707 -0.2255
  238MOL0     C31336   2.406   2.181   7.771  1.0797  0.3013  0.5383
  238MOL0     C31337   2.328   2.136   7.662  0.1182 -0.2195 -0.4179
  238MOL0     C31338   2.081   1.785   7.446 -0.1875  1.0525  0.2201
  238MOL0     C31339   2.024   1.881   7.351  0.4056  0.4847  0.1907
  238MOL0     C31340   1.909   1.853   7.290  0.5885  0.4566  0.0435
  238MOL0     C31341   1.848   1.724   7.294  0.0042  0.5826  1.5970
  238MOL0     O31342   1.721   1.705   7.236  0.4485 -0.1139  0.0339
  238MOL0     C31343   1.630   1.823   7.249  0.4339  0.1919 -0.4446
  238MOL0     C31344   1.493   1.775   7.274  0.1728  0.9969  0.6657
  238MOL0     C31345   1.439   1.710   7.141  0.6422  0.8409  0.1022
  238MOL0     C31346   1.292   1.665   7.159 -0.0947 -0.0924 -0.1664
  238MOL0     C31347   1.210   1.706   7.040 -0.0709  0.2800  0.2405
  238MOL0     C31348   1.136   1.722   6.946 -1.3435 -0.3229 -0.9762
  238MOL0     C31349   1.910   1.625   7.362 -1.1747  0.1277  0.3280
  238MOL0     C31350   2.025   1.654   7.442  0.4288 -0.2070  0.2469
  238MOL0     H31351   2.454   1.813   7.653 -3.0599 -1.4891  0.9035
  238MOL0     H31352   2.592   1.892   7.816  1.9697  0.6598 -1.5808
  238MOL0     H31353   2.585   2.039   8.088  2.8143  2.6766  0.5724
  238MOL0     H31354   2.429   2.097   8.033  1.0992 -2.6001 -5.1304
  238MOL0     H31355   2.657   2.280   8.125  1.3563 -0.5760 -0.2000
  238MOL0     H31356   2.561   2.222   8.252 -2.3371  2.3889  0.3660
  238MOL0     H31357   2.348   2.288   8.107 -1.0745  2.6836 -0.3613
  238MOL0     H31358   2.446   2.395   8.019 -2.9386  2.8991  1.1837
  238MOL0     H31359   2.388   2.384   8.307  2.8327 -1.2268  0.0421
  238MOL0     H31360   2.527   2.489   8.250 -0.2470  1.0318  0.7449
  238MOL0     H31361   2.318   2.615   8.288  0.2493 -1.7804  1.2251
  238MOL0     H31362   2.225   2.515   8.184 -0.1872 -0.3896 -0.3432
  238MOL0     H31363   2.371   2.579   7.981  0.2284 -1.5286  0.5751
  238MOL0     H31364   2.453   2.692   8.089  0.7528 -0.7201  0.6232
  238MOL0     H31365   2.156   2.663   8.024 -0.2395  0.0145  0.8912
  238MOL0     H31366   2.223   2.762   8.156 -1.3327  1.5288 -0.1274
  238MOL0     H31367   2.292   2.787   7.853  1.8390  2.2359 -1.5940
  238MOL0     H31368   2.321   2.915   7.975 -1.5529  0.2184  3.3798
  238MOL0     H31369   2.112   3.068   8.046 -1.1600  2.0034  0.0204
  238MOL0     H31370   1.820   3.130   8.033 -0.6608 -0.8765  0.0198
  238MOL0     H31371   1.741   3.086   7.887  0.3242 -0.6851  1.1965
  238MOL0     H31372   1.936   3.241   7.767  0.4136  1.3411  0.0640
  238MOL0     H31373   1.958   3.309   7.924  1.7373 -0.8000 -2.3095
  238MOL0     H31374   1.714   3.363   7.951  0.6443 -2.1636  0.2038
  238MOL0     H31375   1.810   3.445   7.823  0.4213  0.7955 -1.2659
  238MOL0     H31376   1.586   3.391   7.738 -0.5054 -0.6587 -1.0564
  238MOL0     H31377   1.609   3.225   7.763 -2.9190  0.6481 -1.6805
  238MOL0     H31378   1.816   3.250   7.353  0.5170  1.7650 -2.9193
  238MOL0     H31379   1.677   3.236   7.168 -0.3766 -2.2575  0.5580
  238MOL0     H31380   1.015   3.166   7.135  1.2076 -1.8874 -2.7727
  238MOL0     H31381   0.853   3.270   6.982  0.2366 -2.2655 -0.5307
  238MOL0     H31382   0.727   3.483   6.972 -1.7553 -2.8564 -1.4872
  238MOL0     H31383   0.739   3.406   6.810  1.6976  0.2828 -0.8988
  238MOL0     H31384   0.733   3.619   6.698  0.1596  1.2036 -0.2372
  238MOL0     H31385   0.735   3.711   6.853 -0.0698 -0.2934  1.6086
  238MOL0     H31386   0.526   3.610   6.931 -0.7445  0.3811  0.2381
  238MOL0     H31387   0.498   3.544   6.771  2.5336 -3.1578  0.6314
  238MOL0     H31388   0.565   3.831   6.845  0.3025  2.7007 -2.2475
  238MOL0     H31389   0.519   3.773   6.686  0.3876 -2.3792  0.0792
  238MOL0     H31390   0.330   3.747   6.947 -1.4302 -1.2169 -0.7473
  238MOL0     H31391   0.295   3.706   6.797  1.2440 -1.4531  0.1692
  238MOL0     H31392   0.332   3.956   6.720 -0.1948  0.2555 -0.8877
  238MOL0     H31393   0.318   4.010   6.887  1.2914  1.0547 -1.2723
  238MOL0     H31394   0.109   3.823   6.740  0.5725  1.4643 -2.0506
  238MOL0     H31395   0.096   3.901   6.901 -1.0311  0.8451 -0.3354
  238MOL0     H31396   0.092   4.125   6.803  2.5033  0.6922  0.4200
  238MOL0     H31397  -0.038   4.013   6.761  0.9387 -3.1060 -2.9120
  238MOL0     H31398   1.139   3.554   6.851 -2.2230  1.0558  0.6238
  238MOL0     H31399   1.303   3.459   6.998 -0.3156  2.2159 -1.7731
  238MOL0     H31400   1.329   3.280   7.401 -0.0978  4.4663  0.2456
  238MOL0     H31401   1.467   3.286   7.606 -0.8158  0.6420 -0.0033
  238MOL0     H31402   2.386   2.283   7.802 -1.7962 -0.0752  0.1727
  238MOL0     H31403   2.259   2.207   7.619 -1.5053  0.3398  2.8259
  238MOL0     H31404   2.059   1.984   7.353 -1.6560  1.2995 -1.6462
  238MOL0     H31405   1.865   1.937   7.238  1.6787  0.1508 -1.4278
  238MOL0     H31406   1.627   1.874   7.153  1.1166  1.9696  0.4217
  238MOL0     H31407   1.659   1.885   7.334  2.1199 -1.2097  0.0668
  238MOL0     H31408   1.492   1.695   7.349 -1.3791 -1.4814 -1.8029
  238MOL0     H31409   1.432   1.858   7.312 -1.6282 -0.6021  1.4587
  238MOL0     H31410   1.508   1.631   7.110 -0.6628 -0.4407  0.3637
  238MOL0     H31411   1.443   1.780   7.056  2.2297 -0.1240 -0.6595
  238MOL0     H31412   1.298   1.558   7.178  1.6868 -0.2159 -1.1983
  238MOL0     H31413   1.251   1.703   7.253 -3.3343 -1.9513 -0.7036
  238MOL0     H31414   1.066   1.762   6.876 -1.4294  1.8354  0.2355
  238MOL0     H31415   1.862   1.528   7.372 -0.9338  0.0972  1.3410
  238MOL0     H31416   2.069   1.583   7.511 -2.6849 -0.8143  1.8007
  239MOL0     O31417   6.722   3.804   8.484 -0.0569  0.0563 -0.2926
  239MOL0     C31418   6.758   3.921   8.485  0.9052  0.3711 -0.1205
  239MOL0     O31419   6.749   4.013   8.590  0.0003  0.1629 -0.1585
  239MOL0     C31420   6.769   3.974   8.721  0.1346 -1.4818  0.0254
  239MOL0     C31421   6.805   3.845   8.768 -0.2431 -0.2133 -0.4339
  239MOL0     C31422   6.826   3.824   8.907  0.4064 -0.5439  0.4767
  239MOL0     C31423   6.831   3.928   8.998  0.3974 -0.1646  0.5229
  239MOL0     O31424   6.846   3.926   9.124  0.2444  0.2949 -1.0168
  239MOL0     C31425   6.853   3.803   9.196  0.2783 -1.0050 -0.0916
  239MOL0     C31426   6.921   3.815   9.336 -0.5097 -0.8085  0.1048
  239MOL0     C31427   6.852   3.920   9.423  0.3429 -0.0310  0.8461
  239MOL0     C31428   6.696   3.936   9.409  1.3307  0.2559 -0.2863
  239MOL0     C31429   6.634   4.021   9.517 -0.8183 -1.0781 -0.7442
  239MOL0     C31430   6.485   4.022   9.551  1.1411 -0.2602  0.1705
  239MOL0     C31431   6.394   3.973   9.444  0.5234  0.6313 -0.8706
  239MOL0     C31432   6.250   4.021   9.479 -0.3984  0.2897  0.1418
  239MOL0     N31433   6.164   4.038   9.359  0.5450  0.5153 -0.7700
  239MOL0     C31434   6.155   4.151   9.281  0.0652  0.2326  0.5793
  239MOL0     C31435   6.074   4.122   9.174 -0.4274  0.6305  0.3988
  239MOL0     C31436   6.027   4.218   9.066 -0.0156 -0.2504 -0.0703
  239MOL0     C31437   6.080   4.364   9.090  0.0134 -0.1364  0.2721
  239MOL0     C31438   6.018   4.453   8.989 -0.5904  0.4188 -0.2210
  239MOL0     C31439   5.914   4.547   9.054  0.4408 -0.1803  1.0868
  239MOL0     O31440   5.838   4.606   8.945  0.9205  0.4591  0.3117
  239MOL0     C31441   5.728   4.684   8.972  0.5438 -0.0699 -0.1292
  239MOL0     C31442   5.741   4.780   9.070  0.4127  0.3017  0.0092
  239MOL0     C31443   5.630   4.864   9.092  0.3218  0.5699 -0.3814
  239MOL0     C31444   5.519   4.861   9.007 -0.7248  0.1020  0.5809
  239MOL0     C31445   5.420   4.971   9.015 -0.0261  1.2681 -0.6667
  239MOL0     O31446   5.426   5.053   9.132  0.2948  0.8250 -0.7876
  239MOL0     C31447   5.319   5.133   9.152 -0.7215  0.1742  0.9959
  239MOL0     C31448   5.321   5.250   9.085  0.0688 -0.1535  0.0487
  239MOL0     C31449   5.204   5.327   9.088  0.6951  0.0191 -0.4563
  239MOL0     C31450   5.094   5.287   9.167 -0.4335  0.1564  0.7302
  239MOL0     O31451   4.988   5.372   9.165  0.2242  0.3887 -0.0688
  239MOL0     C31452   4.872   5.346   9.242  0.9940  0.0492 -0.0170
  239MOL0     C31453   4.788   5.469   9.251  0.2730 -0.0067 -0.9317
  239MOL0     C31454   4.723   5.509   9.108 -0.2387  0.0838 -0.5517
  239MOL0     C31455   4.625   5.626   9.143 -0.1609 -0.4531 -0.2657
  239MOL0     C31456   4.560   5.692   9.018  0.1222  0.2807  0.6114
  239MOL0     C31457   4.469   5.581   8.947 -0.6867 -1.1924 -0.9036
  239MOL0     C31458   4.376   5.650   8.841 -0.3493 -0.2366 -0.5632
  239MOL0     C31459   4.260   5.743   8.900  0.3611  1.3645  0.4878
  239MOL0    Cl31460   4.129   5.640   8.967  0.0859 -0.0106 -0.0559
  239MOL0     C31461   5.097   5.166   9.228 -0.4945  0.1735  0.5403
  239MOL0     C31462   5.208   5.092   9.227  0.7972  0.9252 -0.0465
  239MOL0     O31463   5.329   4.971   8.937 -0.0129 -0.3697 -0.7420
  239MOL0     C31464   5.510   4.765   8.905  0.7024 -0.0856 -0.1418
  239MOL0     C31465   5.612   4.676   8.886  0.3049  0.6401  0.1479
  239MOL0     N31466   6.038   3.991   9.189  0.9934  1.0328 -1.3943
  239MOL0     N31467   6.094   3.941   9.296 -0.3202 -0.1916 -0.2584
  239MOL0     C31468   6.791   4.057   8.947  0.2184  0.0724  0.0227
  239MOL0     C31469   6.763   4.079   8.814 -0.6755 -0.1341 -0.6053
  239MOL0     C31470   6.784   3.986   8.356  0.7781 -0.1784 -0.2967
  239MOL0     C31471   6.744   3.918   8.240  0.5368  0.2276  0.6979
  239MOL0     C31472   6.779   3.971   8.110  0.0045 -0.6619 -0.8114
  239MOL0     C31473   6.861   4.083   8.110  0.3908  0.6212  0.1129
  239MOL0     O31474   6.890   4.141   7.988  1.1974  0.4703 -0.4110
  239MOL0     C31475   6.940   4.062   7.891  0.0879 -0.6065 -0.8877
  239MOL0     C31476   7.088   4.108   7.862  0.1576  0.5942 -0.1641
  239MOL0     C31477   7.142   4.005   7.753  0.2886  0.6421 -0.7257
  239MOL0     C31478   7.274   4.046   7.695  0.7429  0.0390  0.1173
  239MOL0     C31479   7.298   3.948   7.587 -0.1245 -0.9462  1.0330
  239MOL0     C31480   7.354   3.878   7.501  0.0461 -0.1071 -0.0063
  239MOL0     C31481   6.885   4.158   8.224  0.0769 -0.6631  0.1558
  239MOL0     C31482   6.853   4.112   8.350  0.4702 -0.1904  0.4169
  239MOL0     H31483   6.832   3.767   8.697  0.1018 -1.7904  1.3412
  239MOL0     H31484   6.849   3.724   8.942  2.0718 -0.8545 -1.3172
  239MOL0     H31485   6.921   3.728   9.155  0.3784 -1.8013  1.4936
  239MOL0     H31486   6.752   3.760   9.196  1.0531 -3.0971 -2.6769
  239MOL0     H31487   7.027   3.837   9.329 -0.9728  1.4463 -0.6911
  239MOL0     H31488   6.912   3.721   9.391 -2.7308 -0.4752  0.4302
  239MOL0     H31489   6.883   4.012   9.374 -0.0970 -2.0374 -3.6678
  239MOL0     H31490   6.893   3.898   9.522 -0.7974  0.8138  1.5415
  239MOL0     H31491   6.668   3.985   9.315 -0.0176  0.8091  0.3784
  239MOL0     H31492   6.639   3.846   9.385  1.8307 -0.8344  2.2950
  239MOL0     H31493   6.643   4.122   9.476 -0.9478 -1.4721 -1.7679
  239MOL0     H31494   6.705   4.027   9.600  0.9150  0.6944 -2.2294
  239MOL0     H31495   6.460   4.127   9.570  0.4194 -0.6502  1.4967
  239MOL0     H31496   6.472   3.975   9.648 -0.1793  1.2209  0.7657
  239MOL0     H31497   6.417   4.026   9.351 -0.8551  2.3372 -0.3099
  239MOL0     H31498   6.400   3.864   9.441  2.0830  0.3154  4.2738
  239MOL0     H31499   6.242   4.118   9.527 -1.5846 -0.1172  0.8067
  239MOL0     H31500   6.209   3.944   9.545 -0.3234 -1.8324 -2.1305
  239MOL0     H31501   6.207   4.238   9.319  0.1534  0.7349 -0.6584
  239MOL0     H31502   5.920   4.223   9.084  0.0473  0.2515  0.2005
  239MOL0     H31503   6.052   4.166   8.973  0.0501  0.8893 -0.7043
  239MOL0     H31504   6.188   4.376   9.075 -0.0896  0.6963  0.1482
  239MOL0     H31505   6.055   4.398   9.190 -2.6783 -0.0972 -0.3271
  239MOL0     H31506   6.097   4.511   8.941  0.4505  0.1000  1.0565
  239MOL0     H31507   5.980   4.388   8.910  2.4127 -1.4875 -0.2563
  239MOL0     H31508   5.962   4.624   9.115 -2.6813  2.5270  0.4154
  239MOL0     H31509   5.849   4.487   9.118  0.5386 -2.2065 -0.6149
  239MOL0     H31510   5.828   4.797   9.133  0.2596  1.0559  0.0305
  239MOL0     H31511   5.621   4.943   9.166  0.3114  1.5742 -1.4090
  239MOL0     H31512   5.405   5.281   9.025  0.8502  1.5459  1.9428
  239MOL0     H31513   5.197   5.417   9.027  4.1652  1.4537  0.9733
  239MOL0     H31514   4.901   5.311   9.341 -1.5679  0.5037  0.9812
  239MOL0     H31515   4.814   5.263   9.201  1.5059  0.6843 -2.1577
  239MOL0     H31516   4.843   5.556   9.286  2.3654 -0.6750 -2.3818
  239MOL0     H31517   4.713   5.442   9.326  0.5327  0.1207 -0.6225
  239MOL0     H31518   4.676   5.420   9.064 -1.0435  1.0041 -1.6156
  239MOL0     H31519   4.796   5.547   9.036 -1.7442  2.3948 -0.9749
  239MOL0     H31520   4.551   5.570   9.200 -0.0595 -2.3076 -1.8608
  239MOL0     H31521   4.678   5.709   9.191 -0.1481 -1.0009  0.6873
  239MOL0     H31522   4.627   5.719   8.936 -3.1336  0.3148 -2.2492
  239MOL0     H31523   4.501   5.778   9.051  0.1171  1.7709 -2.8563
  239MOL0     H31524   4.414   5.537   9.029 -0.9597  4.3538  2.3816
  239MOL0     H31525   4.541   5.509   8.907  1.0164  0.4133 -0.8740
  239MOL0     H31526   4.441   5.713   8.780  0.3488 -0.3521  0.0616
  239MOL0     H31527   4.334   5.586   8.762 -1.3935  1.9233 -1.8724
  239MOL0     H31528   4.217   5.792   8.812 -3.0248 -2.8250 -0.5107
  239MOL0     H31529   4.296   5.812   8.977  0.1643  0.9795  0.9226
  239MOL0     H31530   5.011   5.134   9.286 -1.8179  3.8894  0.8822
  239MOL0     H31531   5.217   5.004   9.290  0.5098  1.3969  0.6703
  239MOL0     H31532   5.427   4.766   8.836  1.8364  3.7384 -1.7009
  239MOL0     H31533   5.597   4.603   8.807 -1.0254 -0.3411  1.2542
  239MOL0     H31534   6.767   4.123   9.030 -0.7753 -4.2792  3.5778
  239MOL0     H31535   6.731   4.172   8.769  0.4240  0.5789  0.0467
  239MOL0     H31536   6.691   3.824   8.250 -1.1206  1.1749  1.2512
  239MOL0     H31537   6.722   3.928   8.028 -2.3082  0.1123  0.3133
  239MOL0     H31538   6.870   4.082   7.809 -0.5719  0.7551 -0.0392
  239MOL0     H31539   6.928   3.957   7.918 -1.5242  0.1685  1.8562
  239MOL0     H31540   7.085   4.209   7.821  0.6163  0.2030 -1.1931
  239MOL0     H31541   7.153   4.104   7.949 -1.3459 -0.1586  0.9767
  239MOL0     H31542   7.061   3.988   7.681  0.2569  1.8014 -0.9939
  239MOL0     H31543   7.162   3.910   7.804 -1.1675  0.4983 -0.3984
  239MOL0     H31544   7.255   4.147   7.659 -1.2736 -0.4034 -0.2042
  239MOL0     H31545   7.356   4.061   7.765  1.1446  2.4476 -0.7656
  239MOL0     H31546   7.397   3.827   7.418 -4.8807 -1.6708 -1.9548
  239MOL0     H31547   6.946   4.245   8.203  2.9080 -2.8093 -1.1729
  239MOL0     H31548   6.872   4.179   8.433 -1.2045 -2.6274  2.9557
  240MOL0     O31549   6.807  10.332   5.993 -0.3749  0.6589 -0.6205
  240MOL0     C31550   6.747  10.430   6.035 -0.1409 -0.0106 -0.0278
  240MOL0     O31551   6.812  10.539   6.089 -0.1791  0.8463  0.8228
  240MOL0     C31552   6.935  10.515   6.147 -0.2799  1.5038  0.3303
  240MOL0     C31553   7.044  10.589   6.101  1.0379 -1.0678 -0.6176
  240MOL0     C31554   7.172  10.575   6.154 -0.1599 -0.5795 -0.2455
  240MOL0     C31555   7.195  10.506   6.273 -0.1205 -0.0063  0.9369
  240MOL0     O31556   7.313  10.503   6.337  0.4220 -0.0304 -0.3765
  240MOL0     C31557   7.428  10.505   6.262 -0.6318 -0.5784  0.2096
  240MOL0     C31558   7.532  10.445   6.355 -0.2240 -0.0680  1.1259
  240MOL0     C31559   7.671  10.430   6.295  0.4700  0.2768 -0.0120
  240MOL0     C31560   7.770  10.324   6.364  0.1760 -0.4216  0.5596
  240MOL0     C31561   7.897  10.297   6.288  0.2154 -0.1666 -0.7278
  240MOL0     C31562   7.980  10.199   6.379  0.0643  0.6958  0.4213
  240MOL0     C31563   8.117  10.174   6.325 -1.5413  0.6224 -0.7116
  240MOL0     C31564   8.162  10.030   6.370 -0.7948  0.0820  0.2285
  240MOL0     N31565   8.261   9.990   6.274  0.1119 -0.1869 -0.2945
  240MOL0     C31566   8.399  10.001   6.287  0.7827 -0.5663  0.5322
  240MOL0     C31567   8.439   9.920   6.184  0.9286  0.1192  0.9341
  240MOL0     C31568   8.581   9.871   6.181  0.8074 -0.5856 -0.3084
  240MOL0     C31569   8.690   9.985   6.166 -0.1910 -0.5263 -0.9045
  240MOL0     C31570   8.662  10.077   6.046 -1.0557 -0.6819  0.9844
  240MOL0     C31571   8.752  10.197   6.019 -0.9658 -1.9672 -0.3546
  240MOL0     O31572   8.763  10.282   6.129 -0.1043  0.4530  0.4917
  240MOL0     C31573   8.659  10.355   6.173 -0.3289  1.0374  0.7251
  240MOL0     C31574   8.606  10.447   6.083  0.2442 -0.4316  0.6132
  240MOL0     C31575   8.485  10.508   6.115  0.1347 -0.5688  0.3674
  240MOL0     C31576   8.425  10.489   6.243  0.4839  0.7651  0.3251
  240MOL0     C31577   8.294  10.556   6.283  0.6647  0.5583  0.4259
  240MOL0     O31578   8.264  10.669   6.198 -0.2013 -0.3796  0.2462
  240MOL0     C31579   8.160  10.743   6.238  0.6919 -0.0291  1.0870
  240MOL0     C31580   8.175  10.861   6.314 -0.2736  0.4020  0.1959
  240MOL0     C31581   8.070  10.941   6.353 -0.6509  0.1348 -0.7349
  240MOL0     C31582   7.937  10.908   6.315  0.3507  0.3918  0.8030
  240MOL0     O31583   7.841  11.003   6.348 -0.6396  0.0726  0.5403
  240MOL0     C31584   7.726  11.013   6.264 -0.0211 -1.0367 -0.3081
  240MOL0     C31585   7.614  10.925   6.320  0.5171  1.1185  0.8924
  240MOL0     C31586   7.479  10.967   6.278  0.3856 -1.5299 -0.3012
  240MOL0     C31587   7.460  10.986   6.123  0.7578 -0.1539  0.8094
  240MOL0     C31588   7.317  11.039   6.099 -0.7952 -0.4137 -1.0531
  240MOL0     C31589   7.268  10.997   5.956  0.2979  0.5615  0.3993
  240MOL0     C31590   7.348  11.061   5.835  0.0630 -0.2474  0.1806
  240MOL0     C31591   7.357  10.948   5.721  0.5325 -0.6703 -0.3401
  240MOL0    Cl31592   7.195  10.927   5.646 -0.0844  0.4262  0.2981
  240MOL0     C31593   7.918  10.809   6.224 -0.8128  0.8111 -0.0427
  240MOL0     C31594   8.022  10.715   6.199 -0.0341  0.6346  0.1660
  240MOL0     O31595   8.221  10.523   6.387 -0.1263  0.2015  0.2833
  240MOL0     C31596   8.479  10.389   6.333  0.0648  0.2413  0.1339
  240MOL0     C31597   8.598  10.320   6.291  0.3507 -0.1328  0.0668
  240MOL0     N31598   8.336   9.874   6.112 -0.5339  0.5307 -0.2352
  240MOL0     N31599   8.230   9.918   6.165 -0.6576  0.4120  0.0039
  240MOL0     C31600   7.078  10.438   6.315 -0.7883  0.4564 -0.6183
  240MOL0     C31601   6.953  10.430   6.257 -0.3355 -1.1610  0.6763
  240MOL0     C31602   6.609  10.433   5.984 -0.2780  0.6583  0.3368
  240MOL0     C31603   6.562  10.349   5.883  0.3564  0.5846  0.3228
  240MOL0     C31604   6.422  10.341   5.856  0.8059 -0.3303 -0.4054
  240MOL0     C31605   6.325  10.425   5.920 -0.6861  0.5619 -0.7455
  240MOL0     O31606   6.193  10.442   5.890  0.1364 -0.3229  0.6885
  240MOL0     C31607   6.136  10.378   5.779 -0.7951 -0.5951 -0.0354
  240MOL0     C31608   6.046  10.487   5.723 -0.6995  0.0896 -0.0431
  240MOL0     C31609   6.108  10.613   5.679  0.2660  0.2741 -0.2633
  240MOL0     C31610   6.222  10.604   5.578  1.2663 -0.8070  0.2048
  240MOL0     C31611   6.191  10.505   5.476  0.8618  0.1808 -0.3060
  240MOL0     C31612   6.166  10.423   5.384  0.2545 -0.6867  0.1565
  240MOL0     C31613   6.378  10.498   6.028 -0.1341 -0.9606  0.2320
  240MOL0     C31614   6.512  10.518   6.050 -0.5143 -0.0753  0.7795
  240MOL0     H31615   7.029  10.654   6.015 -0.4006 -1.3614 -0.6295
  240MOL0     H31616   7.259  10.624   6.110 -2.3089  0.7915 -3.3710
  240MOL0     H31617   7.447  10.611   6.244 -0.7339 -0.4465  0.8507
  240MOL0     H31618   7.414  10.451   6.168 -1.2079  0.6472 -0.4246
  240MOL0     H31619   7.491  10.347   6.382  0.2909 -1.5085 -2.6387
  240MOL0     H31620   7.545  10.515   6.438  3.1296  0.7484  0.0534
  240MOL0     H31621   7.720  10.526   6.275  1.7866 -0.3289  0.2392
  240MOL0     H31622   7.647  10.399   6.193  1.5914  4.7194 -1.8813
  240MOL0     H31623   7.802  10.344   6.466  1.1202 -1.7085  0.5461
  240MOL0     H31624   7.720  10.227   6.372  0.4912 -0.5159  1.5121
  240MOL0     H31625   7.952  10.389   6.263 -1.7052  1.0123 -0.7672
  240MOL0     H31626   7.856  10.241   6.204 -1.2372 -0.3099  0.0470
  240MOL0     H31627   7.928  10.104   6.371  0.8617  0.1225  1.6882
  240MOL0     H31628   7.980  10.238   6.481 -2.2522  0.6567  0.4887
  240MOL0     H31629   8.109  10.164   6.216 -1.5489  0.0596 -0.6596
  240MOL0     H31630   8.187  10.256   6.343 -1.6050  0.6355 -0.5282
  240MOL0     H31631   8.092   9.946   6.380  2.2422 -2.6562 -0.0667
  240MOL0     H31632   8.205  10.044   6.469  0.2223  4.0315 -0.5883
  240MOL0     H31633   8.471  10.036   6.360  1.4597  1.1069 -0.8583
  240MOL0     H31634   8.594   9.810   6.091  0.0594 -0.6240 -0.3984
  240MOL0     H31635   8.601   9.803   6.264 -1.0671 -0.2499  0.4741
  240MOL0     H31636   8.789   9.942   6.146 -0.1839 -0.7826 -0.3404
  240MOL0     H31637   8.697  10.036   6.262  1.7604  0.1539 -1.3653
  240MOL0     H31638   8.661  10.019   5.953 -0.5929 -0.8499  1.0768
  240MOL0     H31639   8.564  10.124   6.056  0.2548  2.0369  2.1969
  240MOL0     H31640   8.716  10.259   5.937  0.7209  2.4495  1.8857
  240MOL0     H31641   8.852  10.166   5.988  0.2841  1.7255 -0.5293
  240MOL0     H31642   8.674  10.469   6.001  0.6889  0.7344  1.2819
  240MOL0     H31643   8.430  10.580   6.056 -0.4429  1.3106  3.0146
  240MOL0     H31644   8.279  10.878   6.338  0.3112 -0.5462 -1.5103
  240MOL0     H31645   8.097  11.019   6.424  5.0878 -0.8544 -1.3214
  240MOL0     H31646   7.741  10.988   6.159  3.7868 -0.0008 -0.1682
  240MOL0     H31647   7.702  11.120   6.266  0.7537 -0.8670  0.6415
  240MOL0     H31648   7.614  10.949   6.426  0.9298  1.8981  0.7253
  240MOL0     H31649   7.627  10.819   6.296  0.4364  1.1684  0.6231
  240MOL0     H31650   7.477  11.067   6.322  4.6225 -1.7205  0.7380
  240MOL0     H31651   7.401  10.904   6.322 -2.9027  3.0075  1.0821
  240MOL0     H31652   7.537  11.039   6.065 -1.0934 -0.7224 -2.4037
  240MOL0     H31653   7.445  10.883   6.088 -0.0309  0.0121  0.6329
  240MOL0     H31654   7.321  11.148   6.105  0.6283 -0.5183  1.1956
  240MOL0     H31655   7.237  11.006   6.165 -1.3203 -0.3428 -1.6473
  240MOL0     H31656   7.165  11.034   5.950  0.5943  1.2819 -0.4454
  240MOL0     H31657   7.263  10.889   5.936 -0.8410  1.0539 -2.4393
  240MOL0     H31658   7.302  11.156   5.805  2.0099  1.6125  2.6052
  240MOL0     H31659   7.444  11.098   5.872 -0.6055  1.0106  0.7128
  240MOL0     H31660   7.396  10.850   5.751 -0.8450 -1.8153 -2.0899
  240MOL0     H31661   7.408  10.986   5.632 -0.1141 -1.4112 -1.0403
  240MOL0     H31662   7.822  10.798   6.174 -0.6418  0.8489 -0.3873
  240MOL0     H31663   7.999  10.628   6.138  0.4827  0.3489  0.3740
  240MOL0     H31664   8.451  10.358   6.433 -0.2758 -4.8881 -1.2605
  240MOL0     H31665   8.662  10.277   6.367 -1.2582  1.5214  2.5242
  240MOL0     H31666   7.078  10.380   6.407 -4.5663 -1.0748 -1.3799
  240MOL0     H31667   6.862  10.396   6.306 -2.4087 -0.0764 -2.1407
  240MOL0     H31668   6.621  10.277   5.827  0.9203  1.1790  0.1368
  240MOL0     H31669   6.390  10.275   5.776 -3.3876  0.3859  0.4950
  240MOL0     H31670   6.106  10.277   5.808  3.5046 -2.2205 -0.5698
  240MOL0     H31671   6.201  10.348   5.697 -0.2687 -0.2751  0.2614
  240MOL0     H31672   5.989  10.438   5.644  0.8284  0.0903 -1.1932
  240MOL0     H31673   5.976  10.515   5.802  1.0705 -1.5964  2.2563
  240MOL0     H31674   6.155  10.661   5.765 -2.1727  2.1258  0.1402
  240MOL0     H31675   6.028  10.684   5.656 -1.5811 -2.1350 -1.7117
  240MOL0     H31676   6.232  10.705   5.537  3.2084 -1.2220 -0.4275
  240MOL0     H31677   6.310  10.575   5.636  1.8917 -1.1682 -0.9116
  240MOL0     H31678   6.156  10.363   5.296  2.4945  0.6729 -1.1152
  240MOL0     H31679   6.313  10.554   6.095  2.2915  2.3301  0.1004
  240MOL0     H31680   6.551  10.574   6.134  1.0265 -0.9281  0.6711
  241MOL0     O31681   6.078   9.352   4.825 -0.1278  0.0781 -0.3387
  241MOL0     C31682   5.998   9.436   4.840  0.5095  0.6617  0.2734
  241MOL0     O31683   6.008   9.557   4.786  0.2110 -0.4925  0.3768
  241MOL0     C31684   6.106   9.592   4.698  0.5519  0.1732 -0.4493
  241MOL0     C31685   6.232   9.554   4.726 -0.0001  0.4774  0.6200
  241MOL0     C31686   6.338   9.593   4.647  0.4408  0.2910  0.2233
  241MOL0     C31687   6.317   9.679   4.542  1.3786 -0.5941 -0.2485
  241MOL0     O31688   6.400   9.732   4.453 -0.3119  0.1003 -0.3374
  241MOL0     C31689   6.536   9.687   4.472 -0.0433 -0.6693 -0.1017
  241MOL0     C31690   6.613   9.751   4.365 -0.3516 -0.0345  0.2113
  241MOL0     C31691   6.538   9.750   4.232 -0.0356  0.0525 -0.0448
  241MOL0     C31692   6.482   9.613   4.188 -0.5873  0.6985 -0.3847
  241MOL0     C31693   6.393   9.612   4.059 -0.0892 -0.1508  0.2090
  241MOL0     C31694   6.476   9.597   3.929 -0.9040 -1.1488  0.1592
  241MOL0     C31695   6.407   9.566   3.790  0.1154  0.0363 -0.5122
  241MOL0     C31696   6.517   9.525   3.686 -0.3361 -0.8096 -0.4526
  241MOL0     N31697   6.610   9.636   3.639 -0.0329 -0.7630 -0.3611
  241MOL0     C31698   6.576   9.771   3.642 -0.0317  0.0268 -0.6890
  241MOL0     C31699   6.661   9.830   3.560  0.0150 -0.8553  0.4184
  241MOL0     C31700   6.663   9.974   3.535  0.5940  0.2139  0.5781
  241MOL0     C31701   6.741  10.049   3.636 -0.8075  0.2125  0.3695
  241MOL0     C31702   6.876   9.984   3.669  0.1251 -0.8585 -0.3220
  241MOL0     C31703   6.962  10.085   3.748 -0.9639  0.3709  0.2759
  241MOL0     O31704   7.072  10.001   3.811  0.5695 -0.0402 -0.1538
  241MOL0     C31705   7.122  10.041   3.933 -0.3147  1.1077 -0.8578
  241MOL0     C31706   7.102  10.166   3.990  0.0153  0.5174 -0.4275
  241MOL0     C31707   7.161  10.186   4.122  0.6997 -0.2288 -0.2235
  241MOL0     C31708   7.240  10.091   4.182 -0.5460  1.5390 -0.7017
  241MOL0     C31709   7.297  10.099   4.324 -0.5032  0.6939 -0.2506
  241MOL0     O31710   7.317  10.221   4.383 -0.1120  0.2963  1.2641
  241MOL0     C31711   7.355  10.227   4.513 -0.3993 -0.0227  0.0993
  241MOL0     C31712   7.459  10.313   4.546  0.0911  0.0346 -0.4113
  241MOL0     C31713   7.502  10.340   4.676  0.3322  1.0296 -1.2410
  241MOL0     C31714   7.433  10.281   4.775  0.9622  1.0279 -1.6004
  241MOL0     O31715   7.444  10.295   4.913 -0.5805 -0.0986 -0.3520
  241MOL0     C31716   7.526  10.399   4.968  1.1092  0.4282 -0.6138
  241MOL0     C31717   7.443  10.534   4.963 -0.3248  0.5297 -0.0716
  241MOL0     C31718   7.474  10.633   5.073  0.5947  0.5770 -0.4086
  241MOL0     C31719   7.365  10.740   5.088 -0.0991  0.0791 -0.8599
  241MOL0     C31720   7.367  10.817   5.219  0.4339  0.5869  0.4636
  241MOL0     C31721   7.463  10.932   5.227 -0.8567 -0.5078 -0.3821
  241MOL0     C31722   7.491  10.979   5.365 -0.1228  0.3201  0.8312
  241MOL0     C31723   7.622  11.053   5.377  0.1381 -0.2576  0.0709
  241MOL0    Cl31724   7.651  11.113   5.552 -0.7272 -0.5908  0.0921
  241MOL0     C31725   7.334  10.181   4.744 -1.1137 -0.1017 -0.0100
  241MOL0     C31726   7.299  10.160   4.617 -0.2614  0.3949 -0.2772
  241MOL0     O31727   7.328   9.994   4.380  0.5085 -0.9185 -0.3958
  241MOL0     C31728   7.258   9.966   4.113  1.0965  0.4849 -1.0416
  241MOL0     C31729   7.203   9.944   3.994 -0.6781 -0.3671  0.0416
  241MOL0     N31730   6.745   9.730   3.501  0.0122  0.2050 -0.7083
  241MOL0     N31731   6.706   9.617   3.544 -0.5203  0.8189  0.1137
  241MOL0     C31732   6.190   9.720   4.519  0.1952 -0.3138  0.7706
  241MOL0     C31733   6.074   9.682   4.593 -0.9226  0.1390  0.0615
  241MOL0     C31734   5.889   9.403   4.930  0.8043 -0.3398  0.7146
  241MOL0     C31735   5.754   9.448   4.907  0.6337 -0.9487 -0.8944
  241MOL0     C31736   5.654   9.412   4.994 -0.4797 -0.3899  0.6981
  241MOL0     C31737   5.673   9.322   5.096  0.8503 -1.2330  0.0539
  241MOL0     O31738   5.585   9.268   5.184  0.1561  0.4148 -0.0518
  241MOL0     C31739   5.462   9.331   5.212 -0.1724  0.3377 -0.5632
  241MOL0     C31740   5.487   9.475   5.281  0.4225 -0.3539  0.0337
  241MOL0     C31741   5.565   9.447   5.415  0.1395  0.2024 -0.6591
  241MOL0     C31742   5.582   9.576   5.495 -0.6863  0.5954  0.2955
  241MOL0     C31743   5.674   9.668   5.434 -0.0924 -0.6452 -0.5297
  241MOL0     C31744   5.731   9.758   5.384 -0.1319  0.1012 -0.7774
  241MOL0     C31745   5.801   9.277   5.117 -0.1373 -0.1866  0.2511
  241MOL0     C31746   5.908   9.311   5.030  0.0792 -0.0289 -0.9416
  241MOL0     H31747   6.253   9.501   4.819 -0.3681  0.1811  0.5351
  241MOL0     H31748   6.438   9.561   4.675  0.1363 -2.6280 -1.5463
  241MOL0     H31749   6.550   9.579   4.486  1.4793 -1.1630 -4.1749
  241MOL0     H31750   6.572   9.726   4.568 -0.4170 -1.1624  0.2437
  241MOL0     H31751   6.710   9.703   4.346  0.1544  1.5779 -1.6573
  241MOL0     H31752   6.624   9.855   4.395  2.6334  0.2220 -1.4117
  241MOL0     H31753   6.600   9.798   4.156  0.1918  1.5498  1.0219
  241MOL0     H31754   6.454   9.820   4.228  2.6203  3.6860  1.9194
  241MOL0     H31755   6.565   9.542   4.182  1.6331  3.2521 -2.2347
  241MOL0     H31756   6.411   9.580   4.264  0.4959  2.4339  1.4679
  241MOL0     H31757   6.341   9.707   4.062  1.8304  1.0510 -1.5647
  241MOL0     H31758   6.324   9.528   4.074  0.8563 -0.5531  3.0529
  241MOL0     H31759   6.558   9.524   3.937 -0.2469 -0.5330 -0.7480
  241MOL0     H31760   6.532   9.691   3.917  1.8132 -2.7099 -0.4167
  241MOL0     H31761   6.339   9.482   3.804 -0.6472  0.4249 -1.7395
  241MOL0     H31762   6.335   9.645   3.767 -0.6372 -1.0885 -2.1250
  241MOL0     H31763   6.473   9.478   3.598  0.3153 -1.0166 -0.6724
  241MOL0     H31764   6.574   9.445   3.735 -1.8344 -0.3933  2.1956
  241MOL0     H31765   6.492   9.808   3.700  0.0239 -1.1726  0.1964
  241MOL0     H31766   6.556   9.998   3.525  0.5891  0.3288  0.8786
  241MOL0     H31767   6.724   9.980   3.445  0.7396  0.8573  0.7167
  241MOL0     H31768   6.672  10.057   3.720 -3.7325  0.3766 -1.8585
  241MOL0     H31769   6.758  10.150   3.597 -1.7305  1.7002  3.5096
  241MOL0     H31770   6.863   9.890   3.724 -0.3904 -0.5150  0.1628
  241MOL0     H31771   6.932   9.957   3.579  1.7805 -0.1991  0.4694
  241MOL0     H31772   6.909  10.155   3.813 -1.5862  2.5369 -2.3720
  241MOL0     H31773   7.002  10.151   3.670  1.0546 -0.8740  0.1707
  241MOL0     H31774   7.052  10.252   3.945  1.0521  2.9485  2.6548
  241MOL0     H31775   7.142  10.278   4.178  1.0839  1.5705 -2.8360
  241MOL0     H31776   7.507  10.361   4.461 -4.3002  1.4571 -2.4297
  241MOL0     H31777   7.588  10.406   4.680  1.8705 -0.8578 -1.8232
  241MOL0     H31778   7.623  10.400   4.916  0.8349 -0.0082 -1.1495
  241MOL0     H31779   7.539  10.367   5.071  0.6178 -0.3277 -0.7818
  241MOL0     H31780   7.337  10.507   4.961 -1.0741  3.2082 -1.6645
  241MOL0     H31781   7.475  10.587   4.873 -2.0900  0.9345 -0.5007
  241MOL0     H31782   7.573  10.671   5.048  0.2198 -0.2894 -3.6405
  241MOL0     H31783   7.461  10.583   5.170 -0.5637 -1.5399 -1.5766
  241MOL0     H31784   7.384  10.803   5.001 -2.4940 -1.1840 -2.4083
  241MOL0     H31785   7.267  10.692   5.075  0.3661 -1.3057  0.3980
  241MOL0     H31786   7.397  10.745   5.295  1.5377  0.6203  0.0709
  241MOL0     H31787   7.265  10.845   5.249  0.5312  1.1436  0.2948
  241MOL0     H31788   7.425  11.008   5.159 -1.8571 -0.7719 -0.1283
  241MOL0     H31789   7.557  10.890   5.191 -1.1573 -2.2399  0.7545
  241MOL0     H31790   7.411  11.048   5.392 -0.2923  1.1187 -1.5594
  241MOL0     H31791   7.499  10.887   5.425 -0.0044 -2.8335 -3.5214
  241MOL0     H31792   7.610  11.136   5.306  0.8203 -1.1635 -1.1337
  241MOL0     H31793   7.707  10.989   5.353  1.7132  0.8100  2.4344
  241MOL0     H31794   7.298  10.119   4.826 -2.0746  2.6770  1.8071
  241MOL0     H31795   7.220  10.087   4.606  1.7825 -2.0471  0.2491
  241MOL0     H31796   7.312   9.885   4.160  0.7002  0.7792 -0.0535
  241MOL0     H31797   7.221   9.859   3.928  0.0771  2.5042 -3.7740
  241MOL0     H31798   6.178   9.782   4.431 -3.4592 -2.0364 -0.1493
  241MOL0     H31799   5.980   9.733   4.576 -0.3029  0.4663 -2.7957
  241MOL0     H31800   5.744   9.524   4.829  2.2983  0.0695 -0.1893
  241MOL0     H31801   5.562   9.469   4.984  0.3116  0.7580 -0.3947
  241MOL0     H31802   5.404   9.279   5.289  1.8735  1.6765  2.0188
  241MOL0     H31803   5.397   9.338   5.124  0.6596 -0.6260 -1.2794
  241MOL0     H31804   5.548   9.529   5.208  1.4190 -1.8166 -0.2552
  241MOL0     H31805   5.396   9.534   5.298  2.3716  2.3565  1.9099
  241MOL0     H31806   5.664   9.404   5.402  0.1297  0.3148 -1.0992
  241MOL0     H31807   5.506   9.370   5.466  0.0718  0.2677 -0.6388
  241MOL0     H31808   5.481   9.617   5.507 -1.1100 -0.6263  1.1619
  241MOL0     H31809   5.604   9.553   5.600  0.7382  1.1901  0.1466
  241MOL0     H31810   5.792   9.835   5.342 -0.2103  0.0461 -0.9900
  241MOL0     H31811   5.806   9.212   5.205 -1.3699 -4.0521 -2.2648
  241MOL0     H31812   6.008   9.278   5.059  0.2293  3.0695  2.9784
  242MOL0     O31813   7.205   6.710   6.877 -0.5467 -0.1619 -0.0103
  242MOL0     C31814   7.185   6.834   6.885  0.6977 -1.2223 -0.7626
  242MOL0     O31815   7.093   6.907   6.957  0.0938  0.0061 -0.2213
  242MOL0     C31816   7.003   6.847   7.043 -0.4194  0.1032 -0.2321
  242MOL0     C31817   6.870   6.812   7.009 -0.4412 -0.1762 -0.3882
  242MOL0     C31818   6.789   6.749   7.111  0.3849 -0.2719  0.6971
  242MOL0     C31819   6.835   6.702   7.233  1.5732  0.3794  0.2101
  242MOL0     O31820   6.734   6.647   7.319 -0.0252 -0.4801 -0.0638
  242MOL0     C31821   6.765   6.625   7.455  0.4172  0.0269  0.5871
  242MOL0     C31822   6.668   6.530   7.513  0.2014  0.3221 -0.1222
  242MOL0     C31823   6.712   6.454   7.637  0.1430 -0.5832 -0.7510
  242MOL0     C31824   6.591   6.447   7.737  0.0074  0.9015 -0.1204
  242MOL0     C31825   6.629   6.359   7.860 -0.4458  0.2391 -0.4363
  242MOL0     C31826   6.534   6.249   7.895 -0.3057 -0.2305 -0.3939
  242MOL0     C31827   6.573   6.152   8.012 -0.9758 -0.9408 -0.1773
  242MOL0     C31828   6.611   6.220   8.142  1.2873 -0.8502  0.7134
  242MOL0     N31829   6.499   6.249   8.225  0.2314  0.8302 -0.5961
  242MOL0     C31830   6.419   6.359   8.204  0.1657  0.4663 -0.7083
  242MOL0     C31831   6.312   6.331   8.282  0.7668  0.3545  0.2369
  242MOL0     C31832   6.180   6.413   8.285 -0.2785 -0.5980 -0.7511
  242MOL0     C31833   6.209   6.546   8.341 -0.7574  0.5062  0.7494
  242MOL0     C31834   6.182   6.649   8.244  0.6167  0.3412  0.2469
  242MOL0     C31835   6.201   6.796   8.280 -0.2916  1.0791  0.7089
  242MOL0     O31836   6.142   6.823   8.408  0.4538  0.0372  0.6257
  242MOL0     C31837   6.002   6.842   8.431 -0.7904  0.5215  0.0940
  242MOL0     C31838   5.911   6.873   8.334 -0.6576 -0.2860  1.3554
  242MOL0     C31839   5.774   6.868   8.364 -0.7950  0.2644 -0.7204
  242MOL0     C31840   5.730   6.840   8.494 -0.2918 -0.1531 -0.6513
  242MOL0     C31841   5.589   6.829   8.529  0.4341  0.0525  0.4721
  242MOL0     O31842   5.491   6.899   8.456  0.1468 -0.1427  0.5446
  242MOL0     C31843   5.353   6.872   8.476 -0.5197 -0.3379  0.5154
  242MOL0     C31844   5.267   6.985   8.458 -0.2488  0.3794 -0.7570
  242MOL0     C31845   5.133   6.975   8.492  0.4352  0.2016  1.1594
  242MOL0     C31846   5.069   6.857   8.543  0.4858 -1.1317  0.2915
  242MOL0     O31847   4.934   6.840   8.576  0.2175 -0.3122  0.4050
  242MOL0     C31848   4.849   6.949   8.610  0.1218  0.6351  0.7117
  242MOL0     C31849   4.862   6.977   8.759 -0.2719  0.6721 -0.2272
  242MOL0     C31850   4.854   6.850   8.848  0.7165  0.7892  0.0238
  242MOL0     C31851   4.826   6.875   8.995 -0.6881 -0.3544 -0.7601
  242MOL0     C31852   4.831   6.750   9.089  0.0103  0.5632 -0.5455
  242MOL0     C31853   4.808   6.792   9.235  0.0306  0.1595  0.4225
  242MOL0     C31854   4.686   6.878   9.271  0.5241  1.2602  0.1320
  242MOL0     C31855   4.669   6.897   9.422 -0.6538  1.1881  0.7715
  242MOL0    Cl31856   4.816   6.916   9.505  0.0500  0.4864  0.0560
  242MOL0     C31857   5.158   6.746   8.561  0.4600 -0.2301 -0.2518
  242MOL0     C31858   5.296   6.755   8.518 -0.3840  0.5999 -0.5699
  242MOL0     O31859   5.568   6.776   8.639  0.1898 -0.2902  0.2945
  242MOL0     C31860   5.825   6.815   8.597 -0.4099  0.8594  0.2793
  242MOL0     C31861   5.959   6.822   8.564 -0.3161 -0.2198  0.8041
  242MOL0     N31862   6.335   6.220   8.361 -0.6283  0.4832 -0.3020
  242MOL0     N31863   6.450   6.175   8.330  0.2490  0.2084 -0.1867
  242MOL0     C31864   6.967   6.727   7.256 -0.0105 -0.5188  1.2929
  242MOL0     C31865   7.052   6.794   7.163  0.9722 -0.0186  0.0557
  242MOL0     C31866   7.288   6.927   6.817  0.6310  1.2878 -0.1042
  242MOL0     C31867   7.304   7.065   6.842  0.0903 -0.1133  0.3127
  242MOL0     C31868   7.408   7.146   6.785  0.6296  0.4094 -0.3265
  242MOL0     C31869   7.490   7.087   6.687 -0.1562 -0.8396 -0.5701
  242MOL0     O31870   7.569   7.170   6.618 -0.7546 -0.0466 -0.6502
  242MOL0     C31871   7.620   7.116   6.497 -0.3314  0.0314  1.0539
  242MOL0     C31872   7.702   7.233   6.425  0.6826  0.6137 -0.5216
  242MOL0     C31873   7.604   7.338   6.362 -0.6399  0.2011  0.4204
  242MOL0     C31874   7.662   7.419   6.242 -0.9388  1.2360  0.2025
  242MOL0     C31875   7.564   7.421   6.133 -0.4014  0.4421 -0.4068
  242MOL0     C31876   7.478   7.420   6.057  0.6799  0.0106  1.5478
  242MOL0     C31877   7.466   6.945   6.657 -0.5158  1.0801  0.4398
  242MOL0     C31878   7.368   6.872   6.725 -0.5706  0.3680 -0.6033
  242MOL0     H31879   6.820   6.842   6.917  0.9451  0.0867 -1.0722
  242MOL0     H31880   6.688   6.734   7.074  0.8163 -3.4900  0.4841
  242MOL0     H31881   6.758   6.722   7.505  0.3563  1.4838 -2.0488
  242MOL0     H31882   6.868   6.591   7.463  0.8542  0.9609 -0.5882
  242MOL0     H31883   6.654   6.460   7.431 -1.3202 -0.5584  0.8365
  242MOL0     H31884   6.581   6.593   7.539  2.3429  3.3319  0.3121
  242MOL0     H31885   6.802   6.496   7.682  0.0750 -2.4055  1.2631
  242MOL0     H31886   6.743   6.352   7.612  1.0254 -0.5101 -0.0010
  242MOL0     H31887   6.571   6.551   7.764 -0.1854  1.0663 -0.8769
  242MOL0     H31888   6.507   6.399   7.685  0.9881 -1.7569  0.5613
  242MOL0     H31889   6.644   6.424   7.946 -1.2979  0.1868 -0.2420
  242MOL0     H31890   6.721   6.304   7.838 -0.8256 -0.8436  0.5728
  242MOL0     H31891   6.522   6.193   7.802 -0.1633 -0.0346 -0.5309
  242MOL0     H31892   6.437   6.295   7.914 -0.1704  0.5469 -1.5383
  242MOL0     H31893   6.490   6.081   8.020 -0.1076 -1.8017  1.8049
  242MOL0     H31894   6.662   6.097   7.982 -0.1548  1.0724 -1.6583
  242MOL0     H31895   6.668   6.313   8.127 -1.1686  0.9403  1.7199
  242MOL0     H31896   6.684   6.154   8.189  4.5266  1.5537 -0.5548
  242MOL0     H31897   6.430   6.437   8.130  1.1510 -0.3457 -1.4449
  242MOL0     H31898   6.108   6.364   8.352 -2.1578  0.2228 -2.0741
  242MOL0     H31899   6.136   6.421   8.185  0.7549  0.7011 -1.1301
  242MOL0     H31900   6.312   6.550   8.379 -1.6100 -1.7164  3.7064
  242MOL0     H31901   6.151   6.564   8.432 -4.0804 -0.6629 -0.9794
  242MOL0     H31902   6.239   6.620   8.155 -0.1177 -1.1895  0.2376
  242MOL0     H31903   6.074   6.643   8.225  0.8937 -0.6908 -1.0921
  242MOL0     H31904   6.156   6.859   8.202  2.2934  1.8778 -0.2719
  242MOL0     H31905   6.307   6.820   8.291 -0.1435 -0.5425  3.6127
  242MOL0     H31906   5.949   6.895   8.234 -2.0148 -0.4771  0.7766
  242MOL0     H31907   5.700   6.882   8.286 -1.3987  2.6492  0.1934
  242MOL0     H31908   5.308   7.083   8.440  2.6292 -0.5888 -0.0951
  242MOL0     H31909   5.072   7.065   8.504  2.7461  2.2534 -1.2635
  242MOL0     H31910   4.751   6.914   8.575  1.1740 -0.2384 -1.5916
  242MOL0     H31911   4.853   7.045   8.557  5.3881  1.0920  1.4385
  242MOL0     H31912   4.778   7.039   8.791 -2.4197 -2.9743  1.8481
  242MOL0     H31913   4.953   7.027   8.793 -1.2019  1.7870  0.7025
  242MOL0     H31914   4.947   6.793   8.838  0.7789  0.9185 -0.1304
  242MOL0     H31915   4.767   6.792   8.816  0.8880 -1.8187  3.6824
  242MOL0     H31916   4.895   6.953   9.028  0.1303 -1.8528  1.2841
  242MOL0     H31917   4.732   6.927   9.012 -0.0202  1.4604 -2.1866
  242MOL0     H31918   4.931   6.707   9.082 -1.8593 -4.2538 -1.5799
  242MOL0     H31919   4.759   6.677   9.051  1.1261  0.8907 -3.5343
  242MOL0     H31920   4.895   6.850   9.267  1.9303 -2.8487  1.1899
  242MOL0     H31921   4.806   6.695   9.286 -2.2191  0.3893  0.8497
  242MOL0     H31922   4.698   6.977   9.227 -0.3534  2.5594  2.6528
  242MOL0     H31923   4.590   6.848   9.229  0.8961 -0.3320  0.3564
  242MOL0     H31924   4.602   6.824   9.468 -1.6042  2.7835  1.9913
  242MOL0     H31925   4.622   6.995   9.435  0.6548  1.7398  1.5512
  242MOL0     H31926   5.121   6.653   8.601  0.9273 -0.1131  0.4652
  242MOL0     H31927   5.351   6.663   8.535 -2.8503 -0.6861  1.1740
  242MOL0     H31928   5.802   6.781   8.698 -6.0725  3.0647  0.1209
  242MOL0     H31929   6.024   6.796   8.646 -3.4354 -2.3821  2.8201
  242MOL0     H31930   7.004   6.698   7.354 -0.1192 -1.1660  1.1443
  242MOL0     H31931   7.150   6.829   7.194  1.1151 -0.1187 -0.2849
  242MOL0     H31932   7.235   7.108   6.915 -0.7503 -0.8087 -0.0528
  242MOL0     H31933   7.410   7.254   6.795  4.2647  0.4870 -0.7217
  242MOL0     H31934   7.542   7.070   6.436 -0.6024 -1.0354  2.1575
  242MOL0     H31935   7.689   7.033   6.512  0.5805  0.6021  0.1365
  242MOL0     H31936   7.756   7.272   6.512  1.9442 -2.1661  0.0551
  242MOL0     H31937   7.776   7.194   6.355 -0.4074  0.0466 -1.3915
  242MOL0     H31938   7.589   7.417   6.436 -1.2189  2.5796 -2.0785
  242MOL0     H31939   7.508   7.300   6.327 -2.4583  2.4535  2.5927
  242MOL0     H31940   7.694   7.523   6.254  0.3864  0.6296  2.5732
  242MOL0     H31941   7.751   7.362   6.214 -1.5568 -0.0666  0.7662
  242MOL0     H31942   7.386   7.410   6.002  1.4215  1.0495  0.0528
  242MOL0     H31943   7.514   6.894   6.574 -0.9025  1.4274 -0.0010
  242MOL0     H31944   7.357   6.765   6.712 -2.7224  0.6371 -1.2969
  243MOL0     O31945   0.557   1.732  10.632  0.0324 -0.0419  0.6988
  243MOL0     C31946   0.515   1.824  10.564  0.4467 -0.3558  1.0153
  243MOL0     O31947   0.392   1.876  10.580 -0.4375  0.1260 -0.4697
  243MOL0     C31948   0.290   1.837  10.662 -0.3511 -0.3919 -0.0947
  243MOL0     C31949   0.170   1.907  10.637  0.1370  1.2120  0.0708
  243MOL0     C31950   0.052   1.862  10.699 -0.5496 -0.5026 -0.1696
  243MOL0     C31951   0.049   1.757  10.791  0.4282  0.3533  0.7349
  243MOL0     O31952  -0.075   1.712  10.823  0.1512 -0.0433 -0.0604
  243MOL0     C31953  -0.104   1.619  10.937 -0.4105 -0.1332 -0.5534
  243MOL0     C31954  -0.057   1.658  11.076 -0.6938 -0.7235 -0.6370
  243MOL0     C31955  -0.143   1.590  11.187  0.0613 -0.6123  0.5873
  243MOL0     C31956  -0.093   1.621  11.325 -0.1975  0.6295  0.5707
  243MOL0     C31957  -0.191   1.545  11.433 -0.2489 -0.5055 -1.0846
  243MOL0     C31958  -0.129   1.561  11.572 -0.0562 -1.0375  0.4756
  243MOL0     C31959  -0.099   1.703  11.631 -0.3144 -0.7383 -0.4933
  243MOL0     C31960  -0.046   1.696  11.779  0.0992 -0.4597  0.1941
  243MOL0     N31961   0.026   1.578  11.822  0.2237 -0.3789  0.7075
  243MOL0     C31962  -0.034   1.461  11.844 -0.8823 -0.4549 -0.3555
  243MOL0     C31963   0.065   1.369  11.836  0.2035  0.2023 -0.3190
  243MOL0     C31964   0.050   1.222  11.853  0.2393 -0.7692  0.6616
  243MOL0     C31965   0.153   1.172  11.952  0.2785  0.7150 -0.3289
  243MOL0     C31966   0.205   1.039  11.898 -0.5369 -0.4801 -0.9683
  243MOL0     C31967   0.336   1.049  11.820 -0.3229  0.4478 -0.0643
  243MOL0     O31968   0.405   0.922  11.799 -0.3204 -0.9558  0.1997
  243MOL0     C31969   0.510   0.909  11.708 -0.2285  0.5424 -0.3215
  243MOL0     C31970   0.573   0.784  11.682  0.1113 -0.2172 -0.3225
  243MOL0     C31971   0.680   0.777  11.586  0.1628  0.8708 -0.1730
  243MOL0     C31972   0.727   0.894  11.518  0.3177 -0.6350  0.1374
  243MOL0     C31973   0.843   0.884  11.423 -0.2126 -0.2087 -0.7148
  243MOL0     O31974   0.895   0.759  11.393  0.5370 -0.5314  0.0935
  243MOL0     C31975   0.964   0.758  11.277 -0.7528 -0.4899  0.7340
  243MOL0     C31976   0.901   0.793  11.153  0.2595  0.7074 -0.2901
  243MOL0     C31977   0.969   0.789  11.036  0.2718  0.0768 -0.0448
  243MOL0     C31978   1.100   0.748  11.025  0.0789 -0.4480  0.9473
  243MOL0     O31979   1.142   0.728  10.898  0.7765 -0.6271 -0.3277
  243MOL0     C31980   1.287   0.706  10.875  0.9633  0.3822 -0.4298
  243MOL0     C31981   1.316   0.555  10.854 -0.8411  0.7508  0.4003
  243MOL0     C31982   1.455   0.533  10.794  0.5835  0.5901 -0.5005
  243MOL0     C31983   1.481   0.388  10.797  0.1440  0.2192 -0.8936
  243MOL0     C31984   1.609   0.354  10.711 -0.5205 -0.5581  0.5537
  243MOL0     C31985   1.612   0.196  10.689  0.2700 -0.0549  0.8926
  243MOL0     C31986   1.504   0.150  10.586  0.4665 -0.2666 -0.4115
  243MOL0     C31987   1.532   0.012  10.543  0.3653 -0.2372 -0.3383
  243MOL0    Cl31988   1.461  -0.013  10.380 -0.2520  0.3391  0.5055
  243MOL0     C31989   1.158   0.693  11.141 -1.4264 -1.3771 -0.5539
  243MOL0     C31990   1.098   0.711  11.270 -0.2263 -0.0556  0.2713
  243MOL0     O31991   0.870   0.994  11.365  0.0637  0.4259  0.5558
  243MOL0     C31992   0.667   1.007  11.551 -0.0586 -0.3876 -0.1538
  243MOL0     C31993   0.565   1.026  11.643  1.0225  0.3540  0.0664
  243MOL0     N31994   0.190   1.427  11.820 -0.0856  0.1568  0.5223
  243MOL0     N31995   0.159   1.555  11.813  0.2691  0.9508  0.4370
  243MOL0     C31996   0.171   1.700  10.825  0.5930  0.4282  0.1350
  243MOL0     C31997   0.291   1.733  10.764 -0.5785  0.3521  0.4276
  243MOL0     C31998   0.610   1.887  10.472  0.7779 -0.8242  0.7444
  243MOL0     C31999   0.574   2.007  10.399  0.1013  0.7329 -0.2294
  243MOL0     C32000   0.665   2.066  10.315 -0.3846  0.6076 -0.5615
  243MOL0     C32001   0.783   2.008  10.292  0.2928 -0.9111 -0.3773
  243MOL0     O32002   0.879   2.067  10.207 -0.2947 -0.5814 -0.5384
  243MOL0     C32003   0.966   2.169  10.260  0.4647  1.0488  0.3792
  243MOL0     C32004   1.113   2.134  10.235 -0.2840  0.6351  0.1387
  243MOL0     C32005   1.186   2.033  10.322 -0.2628  0.1006  0.4592
  243MOL0     C32006   1.303   2.073  10.398 -0.2874  0.0661  0.6252
  243MOL0     C32007   1.265   2.165  10.509  1.1147  0.0113  1.0098
  243MOL0     C32008   1.200   2.237  10.586  0.5164  1.1548  0.6200
  243MOL0     C32009   0.820   1.887  10.346  0.4180 -0.4807  0.4379
  243MOL0     C32010   0.739   1.818  10.432 -0.2018 -0.2256  0.0235
  243MOL0     H32011   0.156   1.993  10.572  0.7444  1.6658  0.5279
  243MOL0     H32012  -0.045   1.909  10.686 -0.2441 -0.0549 -0.8918
  243MOL0     H32013  -0.073   1.521  10.901 -0.7486 -0.2537 -0.5235
  243MOL0     H32014  -0.213   1.614  10.940 -0.4515  0.8916  0.1292
  243MOL0     H32015  -0.062   1.765  11.100  3.0077 -0.8859  1.6941
  243MOL0     H32016   0.048   1.629  11.086  0.7122  3.3768 -1.5078
  243MOL0     H32017  -0.143   1.482  11.169  3.4550 -0.6463  0.0856
  243MOL0     H32018  -0.246   1.619  11.164  0.2809 -2.0863 -2.9373
  243MOL0     H32019   0.015   1.611  11.334  0.0114  0.9993 -1.0910
  243MOL0     H32020  -0.104   1.729  11.341 -0.0112  0.6633  0.4674
  243MOL0     H32021  -0.212   1.440  11.414 -3.7803 -0.3111  0.9268
  243MOL0     H32022  -0.289   1.593  11.427 -0.0223 -0.1707 -3.8250
  243MOL0     H32023  -0.034   1.507  11.568 -0.3077 -1.4010 -0.8860
  243MOL0     H32024  -0.195   1.515  11.647  0.6889  1.0454  2.5402
  243MOL0     H32025  -0.024   1.742  11.561 -1.9002 -0.8108 -2.3064
  243MOL0     H32026  -0.189   1.763  11.629  0.5662  0.7433  1.4706
  243MOL0     H32027  -0.144   1.690  11.828 -0.2917  1.5719 -0.2797
  243MOL0     H32028   0.010   1.785  11.806 -1.2324  0.7746 -0.9659
  243MOL0     H32029  -0.136   1.437  11.873 -0.7874 -0.6009 -0.1385
  243MOL0     H32030   0.055   1.170  11.757  0.2399 -2.7890  1.6846
  243MOL0     H32031  -0.047   1.204  11.901 -0.2388  0.5600  0.2329
  243MOL0     H32032   0.095   1.139  12.039  1.2521  0.4403  0.2315
  243MOL0     H32033   0.235   1.239  11.982  3.5735 -3.2235  0.3830
  243MOL0     H32034   0.228   0.980  11.987  0.4195  0.8253 -0.3147
  243MOL0     H32035   0.119   0.985  11.858 -1.5685  0.1540  0.3061
  243MOL0     H32036   0.416   1.110  11.863  3.7721 -2.9896 -2.0903
  243MOL0     H32037   0.307   1.092  11.723  0.0192  0.9782  0.0649
  243MOL0     H32038   0.525   0.704  11.737 -0.6060  0.3868 -0.0564
  243MOL0     H32039   0.735   0.686  11.565 -1.5718 -0.3029  0.0949
  243MOL0     H32040   0.796   0.823  11.157  0.1960  0.8713 -2.2041
  243MOL0     H32041   0.925   0.815  10.940 -1.2209  2.4270  1.1892
  243MOL0     H32042   1.361   0.739  10.948  0.9868  2.0898 -1.1865
  243MOL0     H32043   1.314   0.756  10.781  2.8574 -1.1334 -0.7623
  243MOL0     H32044   1.240   0.502  10.796 -0.0057  0.4498 -0.4408
  243MOL0     H32045   1.323   0.506  10.952 -0.0874  1.8689  0.9192
  243MOL0     H32046   1.526   0.577  10.865 -2.1323  2.1772  1.4263
  243MOL0     H32047   1.469   0.580  10.697 -1.7251  1.3060 -0.5470
  243MOL0     H32048   1.493   0.352  10.900 -2.1806 -2.4187 -1.4106
  243MOL0     H32049   1.387   0.342  10.764 -1.0883  1.4636  0.7048
  243MOL0     H32050   1.695   0.390  10.769 -0.4916  0.1445  0.0903
  243MOL0     H32051   1.625   0.394  10.610  1.3160  0.6665  1.2747
  243MOL0     H32052   1.591   0.140  10.781  0.9698  0.4846  1.3894
  243MOL0     H32053   1.715   0.169  10.664 -0.2817 -1.8690  0.3793
  243MOL0     H32054   1.405   0.168  10.628  1.1221  1.1740  0.6012
  243MOL0     H32055   1.521   0.223  10.505  3.7413  0.6373  0.9433
  243MOL0     H32056   1.489  -0.059  10.614  1.1958 -0.3601  0.0479
  243MOL0     H32057   1.639  -0.011  10.542  0.4831  0.2834 -0.2887
  243MOL0     H32058   1.258   0.652  11.140 -0.3606  1.0364 -2.4262
  243MOL0     H32059   1.149   0.669  11.356  1.0876  1.0052  0.0334
  243MOL0     H32060   0.701   1.099  11.504 -0.3031 -1.1204 -1.8556
  243MOL0     H32061   0.525   1.124  11.666 -0.0845 -0.7435  3.5892
  243MOL0     H32062   0.156   1.622  10.899  1.4686 -1.8044 -1.9084
  243MOL0     H32063   0.387   1.691  10.792 -0.1315  1.8287  1.2379
  243MOL0     H32064   0.475   2.048  10.416  1.3917  3.8686  0.5324
  243MOL0     H32065   0.640   2.153  10.255 -2.3543  1.0506  0.7798
  243MOL0     H32066   0.940   2.170  10.366 -3.9922 -0.7937 -0.4860
  243MOL0     H32067   0.931   2.262  10.215 -1.6327 -0.9444 -2.4344
  243MOL0     H32068   1.118   2.113  10.128  1.6533  4.6113 -0.7409
  243MOL0     H32069   1.161   2.231  10.254  1.0182  0.4481 -1.8856
  243MOL0     H32070   1.224   1.960  10.250  2.7083  1.4619  0.5038
  243MOL0     H32071   1.121   1.975  10.387  0.0612 -0.8262 -0.0200
  243MOL0     H32072   1.341   1.976  10.434  0.0563 -0.2331 -0.5177
  243MOL0     H32073   1.375   2.134  10.343  1.6332  2.0132  4.7818
  243MOL0     H32074   1.156   2.293  10.666 -0.4040  0.5763  0.5336
  243MOL0     H32075   0.919   1.846  10.326  2.0320  0.9077  4.4864
  243MOL0     H32076   0.774   1.725  10.476  1.8350  0.0856 -0.8378
  244MOL0     O32077   8.765   3.123   2.328 -0.3150  0.7415  0.5420
  244MOL0     C32078   8.841   3.066   2.243  0.3746 -0.1976  0.2176
  244MOL0     O32079   8.808   2.954   2.165  0.7211  0.0017 -0.2463
  244MOL0     C32080   8.688   2.884   2.189  0.7765  0.0939 -0.1462
  244MOL0     C32081   8.564   2.947   2.199 -0.3968 -0.2879 -0.4077
  244MOL0     C32082   8.443   2.874   2.208 -1.1026  0.7110 -0.5493
  244MOL0     C32083   8.442   2.732   2.187  0.3666  0.0070  0.1985
  244MOL0     O32084   8.333   2.642   2.196 -0.1774 -0.1914  0.3190
  244MOL0     C32085   8.202   2.692   2.204 -0.2380 -0.7705 -0.6563
  244MOL0     C32086   8.151   2.701   2.064 -0.6417  0.0991  0.9599
  244MOL0     C32087   8.004   2.728   2.066  0.4868 -0.2481  0.8162
  244MOL0     C32088   7.958   2.731   1.917 -0.3867  1.0118 -0.2954
  244MOL0     C32089   7.813   2.781   1.912 -0.1562 -0.2211  0.2562
  244MOL0     C32090   7.758   2.751   1.769  0.3694 -0.0145  0.1965
  244MOL0     C32091   7.631   2.822   1.732 -0.1188  0.4277  0.0335
  244MOL0     C32092   7.511   2.788   1.824 -0.9796 -0.8505 -0.0768
  244MOL0     N32093   7.394   2.879   1.808  1.1776 -0.4938  0.1473
  244MOL0     C32094   7.357   2.945   1.687 -0.3117  0.1675  0.3032
  244MOL0     C32095   7.242   3.010   1.721  0.0958 -0.5176 -0.9319
  244MOL0     C32096   7.156   3.105   1.637 -0.0420 -0.0568 -0.4090
  244MOL0     C32097   7.048   3.038   1.556  0.3856 -0.3338 -0.1137
  244MOL0     C32098   6.961   2.940   1.634  0.9082 -0.4906  0.3428
  244MOL0     C32099   6.836   2.879   1.558  0.4998 -0.1698 -0.4200
  244MOL0     O32100   6.760   2.989   1.504  0.3251  0.3466  0.2104
  244MOL0     C32101   6.642   2.955   1.437 -0.2865 -0.8078  0.0817
  244MOL0     C32102   6.562   3.058   1.382 -0.4861  0.6918  0.5160
  244MOL0     C32103   6.446   3.033   1.306 -1.2419 -0.0322 -0.4968
  244MOL0     C32104   6.400   2.903   1.296  0.1638  0.4826 -0.2197
  244MOL0     C32105   6.282   2.869   1.222 -0.9050 -0.6850 -0.5707
  244MOL0     O32106   6.256   2.735   1.208  0.3536 -0.2795  1.1045
  244MOL0     C32107   6.181   2.706   1.102  0.6234 -0.8833 -0.6151
  244MOL0     C32108   6.051   2.670   1.131  1.6157 -0.8280  0.2139
  244MOL0     C32109   5.960   2.642   1.020 -0.0449  0.3523 -0.2758
  244MOL0     C32110   6.001   2.661   0.886 -0.1748 -0.3915 -0.0268
  244MOL0     O32111   5.912   2.658   0.782 -0.2420  0.0634 -0.7290
  244MOL0     C32112   5.766   2.677   0.813 -0.2077 -0.7186 -0.1824
  244MOL0     C32113   5.700   2.740   0.692  0.5357  0.1134  0.1337
  244MOL0     C32114   5.654   2.624   0.601  0.3585  0.3086 -0.1153
  244MOL0     C32115   5.513   2.649   0.535  0.2629 -1.5571  0.2891
  244MOL0     C32116   5.516   2.749   0.415 -0.0744 -0.4889 -0.3700
  244MOL0     C32117   5.376   2.790   0.358 -0.6777  0.1150  0.0387
  244MOL0     C32118   5.355   2.684   0.258  0.3772 -0.0295  1.2934
  244MOL0     C32119   5.254   2.742   0.166  0.2800 -0.5144  0.5645
  244MOL0    Cl32120   5.178   2.620   0.071  0.0097  0.0549 -0.0168
  244MOL0     C32121   6.128   2.706   0.859 -0.1251 -0.3499 -0.1920
  244MOL0     C32122   6.221   2.723   0.970 -0.9613 -0.0564 -0.7795
  244MOL0     O32123   6.226   2.964   1.175  1.2675  0.4573  1.1589
  244MOL0     C32124   6.475   2.799   1.340  0.2104  0.8417 -0.2460
  244MOL0     C32125   6.601   2.825   1.401 -0.3420 -0.0185  0.1711
  244MOL0     N32126   7.217   3.008   1.859 -0.0987  0.9923  0.4742
  244MOL0     N32127   7.305   2.920   1.903 -0.2880 -0.3436  0.5942
  244MOL0     C32128   8.573   2.682   2.164  0.9650  0.3697 -0.7094
  244MOL0     C32129   8.697   2.751   2.151  0.6526 -0.3724 -0.0173
  244MOL0     C32130   8.978   3.113   2.231  0.7606  0.2805  0.1368
  244MOL0     C32131   9.014   3.245   2.264 -0.5895 -0.2793  0.2438
  244MOL0     C32132   9.143   3.300   2.247  0.2755  0.8689  0.5566
  244MOL0     C32133   9.245   3.218   2.188 -0.6834 -0.6284 -0.0258
  244MOL0     O32134   9.375   3.258   2.165  0.4482  0.3032  0.1771
  244MOL0     C32135   9.409   3.401   2.150 -0.6326 -0.5875 -0.7934
  244MOL0     C32136   9.372   3.453   2.007  0.7092 -0.4868 -0.3764
  244MOL0     C32137   9.387   3.612   2.023 -0.7137 -0.4820 -1.0150
  244MOL0     C32138   9.433   3.676   1.891 -0.3452 -0.0016  0.0447
  244MOL0     C32139   9.429   3.819   1.914 -0.2223 -0.3703  0.3134
  244MOL0     C32140   9.417   3.945   1.916 -0.6955  0.7926  0.5863
  244MOL0     C32141   9.205   3.088   2.160 -0.3156  0.9702  0.3031
  244MOL0     C32142   9.082   3.029   2.181  0.1922  0.3182  0.2802
  244MOL0     H32143   8.569   3.056   2.203  1.4776 -0.3590 -0.1906
  244MOL0     H32144   8.347   2.922   2.221 -0.9347  0.8340  0.2649
  244MOL0     H32145   8.189   2.793   2.245  1.9720  0.9270 -3.6823
  244MOL0     H32146   8.145   2.620   2.262  0.9976 -0.1310  1.4520
  244MOL0     H32147   8.173   2.607   2.012 -1.6407 -0.4233  1.4383
  244MOL0     H32148   8.199   2.777   2.002 -2.0430 -0.4861 -0.9325
  244MOL0     H32149   7.984   2.824   2.115 -1.2347  1.8558 -3.5365
  244MOL0     H32150   7.955   2.643   2.114 -0.7080 -1.6440 -2.5585
  244MOL0     H32151   8.013   2.803   1.856  1.3710  1.8375  2.0771
  244MOL0     H32152   7.974   2.633   1.873  0.9840  1.5769 -1.1204
  244MOL0     H32153   7.797   2.885   1.942  0.1698 -0.1973  0.3544
  244MOL0     H32154   7.756   2.724   1.986 -2.2316  0.3287 -0.8348
  244MOL0     H32155   7.736   2.644   1.765 -2.2468  0.4915 -0.9858
  244MOL0     H32156   7.837   2.774   1.697 -1.2363  1.7439 -1.1163
  244MOL0     H32157   7.647   2.930   1.733  0.5048  0.3583 -1.1271
  244MOL0     H32158   7.609   2.799   1.628  1.0611 -2.3783  0.3116
  244MOL0     H32159   7.545   2.806   1.926 -1.3544  1.5382 -0.2994
  244MOL0     H32160   7.486   2.682   1.819 -2.0323 -0.6660  0.8255
  244MOL0     H32161   7.401   2.946   1.588 -1.7181  3.3204 -0.4168
  244MOL0     H32162   7.211   3.174   1.573 -2.1421  0.6192 -1.6065
  244MOL0     H32163   7.100   3.166   1.708 -1.1993 -1.6557  0.1369
  244MOL0     H32164   7.091   2.983   1.473  1.3526  0.3320 -0.0766
  244MOL0     H32165   6.987   3.115   1.508 -0.1099 -1.9326 -2.1292
  244MOL0     H32166   7.016   2.856   1.678  0.1931 -0.3587  1.5164
  244MOL0     H32167   6.926   2.996   1.721 -3.1370  0.2421 -1.5226
  244MOL0     H32168   6.768   2.834   1.631 -0.1772  3.4542  1.4266
  244MOL0     H32169   6.866   2.801   1.487  0.2783 -1.3149  0.6936
  244MOL0     H32170   6.603   3.159   1.383 -1.9504  1.3148 -0.1370
  244MOL0     H32171   6.396   3.114   1.253  1.6984  0.3314 -2.9902
  244MOL0     H32172   6.015   2.671   1.234 -3.3624  2.1733 -1.1856
  244MOL0     H32173   5.859   2.604   1.035  0.9454 -2.0096  0.9718
  244MOL0     H32174   5.743   2.752   0.889 -2.0783  0.2065 -1.5811
  244MOL0     H32175   5.732   2.579   0.850  1.8397 -1.0235  1.0672
  244MOL0     H32176   5.765   2.801   0.629  0.6396  1.3854  1.3946
  244MOL0     H32177   5.615   2.798   0.730  0.1565 -2.1029  3.0413
  244MOL0     H32178   5.619   2.539   0.660 -0.4116  0.6168 -0.1102
  244MOL0     H32179   5.731   2.588   0.532  2.5023  3.9905  0.0946
  244MOL0     H32180   5.482   2.549   0.504  1.4244 -1.3568 -1.7206
  244MOL0     H32181   5.442   2.692   0.606  0.4370  0.2140 -0.5442
  244MOL0     H32182   5.586   2.731   0.334  1.0067 -0.4302  0.5265
  244MOL0     H32183   5.538   2.846   0.460 -0.9720 -0.5033  0.1148
  244MOL0     H32184   5.389   2.885   0.305 -0.6244  0.0689 -0.0309
  244MOL0     H32185   5.293   2.801   0.427 -0.1291  1.4616  0.5309
  244MOL0     H32186   5.441   2.668   0.192 -0.7599 -2.4165  0.2539
  244MOL0     H32187   5.331   2.585   0.297  0.8156 -0.5662  0.2498
  244MOL0     H32188   5.292   2.821   0.100 -1.2040  2.9611  3.5419
  244MOL0     H32189   5.181   2.785   0.235 -0.9188 -1.3440 -0.1491
  244MOL0     H32190   6.166   2.731   0.760  1.4289 -0.2825  0.3853
  244MOL0     H32191   6.322   2.754   0.947 -1.1325  1.5185  0.4200
  244MOL0     H32192   6.446   2.695   1.335  1.5782  0.3958  0.7298
  244MOL0     H32193   6.667   2.740   1.412 -2.9607 -2.2960 -0.6318
  244MOL0     H32194   8.576   2.575   2.143  2.6029  0.9149 -3.8108
  244MOL0     H32195   8.793   2.709   2.124  1.1680  0.7864 -0.0306
  244MOL0     H32196   8.949   3.324   2.299 -0.9530  0.0954 -1.1944
  244MOL0     H32197   9.157   3.407   2.257  1.0234  0.7847  0.4530
  244MOL0     H32198   9.518   3.409   2.157 -0.6125 -0.3789 -1.2828
  244MOL0     H32199   9.364   3.461   2.230 -0.6913  1.4903 -2.2768
  244MOL0     H32200   9.453   3.410   1.947  0.4336 -0.1486 -0.9973
  244MOL0     H32201   9.269   3.426   1.981  0.8990  0.4276 -2.2306
  244MOL0     H32202   9.474   3.629   2.086  0.3172  2.4652 -3.0160
  244MOL0     H32203   9.299   3.653   2.073  0.5775 -1.2016  2.1098
  244MOL0     H32204   9.535   3.653   1.860 -0.3760 -0.5347  0.3201
  244MOL0     H32205   9.359   3.649   1.816  0.0910 -0.6316 -0.1670
  244MOL0     H32206   9.419   4.052   1.910  0.3243  0.7463 -0.2129
  244MOL0     H32207   9.272   3.011   2.123 -3.1164 -1.9829  0.9030
  244MOL0     H32208   9.066   2.926   2.150  0.4357  0.9478 -2.1353
  245MOL0     O32209   1.796   1.911   0.059  1.3299  0.8168  0.2036
  245MOL0     C32210   1.900   1.957   0.010  0.1364  0.8525 -0.4458
  245MOL0     O32211   1.909   2.028  -0.107 -0.8756  0.0471 -0.7199
  245MOL0     C32212   1.815   2.022  -0.209 -0.7113  0.4664 -0.0928
  245MOL0     C32213   1.849   2.101  -0.322  0.5843 -0.7577  0.2553
  245MOL0     C32214   1.762   2.106  -0.433 -0.8464  0.1852  0.5834
  245MOL0     C32215   1.642   2.038  -0.435 -0.2229  0.0726  0.4029
  245MOL0     O32216   1.560   2.046  -0.549 -0.3686 -0.2869  0.0531
  245MOL0     C32217   1.595   1.934  -0.633  0.7845 -0.0228  0.8860
  245MOL0     C32218   1.547   1.971  -0.775 -0.0635 -0.9635  1.5715
  245MOL0     C32219   1.660   2.065  -0.846  0.5423  0.3330 -0.7900
  245MOL0     C32220   1.622   2.099  -0.988 -0.1776 -1.3380 -0.3326
  245MOL0     C32221   1.751   2.121  -1.070 -0.6193  0.0819 -1.1924
  245MOL0     C32222   1.723   2.130  -1.225 -0.3091  0.3211 -1.1608
  245MOL0     C32223   1.799   2.020  -1.298 -1.0769  0.9219  0.1283
  245MOL0     C32224   1.771   1.869  -1.256 -0.4910 -0.5896  0.4905
  245MOL0     N32225   1.626   1.849  -1.247 -0.0411 -0.1468  0.4160
  245MOL0     C32226   1.549   1.869  -1.360 -0.4812 -0.5044 -1.0888
  245MOL0     C32227   1.425   1.817  -1.323 -0.5379 -0.4664 -0.9505
  245MOL0     C32228   1.302   1.783  -1.415  0.8803 -0.6289  0.0485
  245MOL0     C32229   1.194   1.708  -1.321 -0.5211  1.1500  0.7024
  245MOL0     C32230   1.074   1.690  -1.415  0.0195 -0.5355 -0.8928
  245MOL0     C32231   0.996   1.820  -1.469  0.3100  0.5289 -0.4218
  245MOL0     O32232   0.860   1.821  -1.424 -0.7767 -0.1601 -0.1726
  245MOL0     C32233   0.779   1.910  -1.493  0.0273  0.9025 -1.1626
  245MOL0     C32234   0.651   1.915  -1.445  0.2920 -1.0895  0.4671
  245MOL0     C32235   0.550   1.998  -1.496  0.5257  0.8329 -0.3881
  245MOL0     C32236   0.577   2.082  -1.598  0.2800  0.6202 -1.0334
  245MOL0     C32237   0.458   2.159  -1.650 -0.1276 -0.1969 -0.0073
  245MOL0     O32238   0.337   2.150  -1.589 -0.3345 -0.3332  0.3891
  245MOL0     C32239   0.233   2.235  -1.618  1.2438 -0.5756  0.3645
  245MOL0     C32240   0.234   2.350  -1.703  0.3753 -0.1593  0.4152
  245MOL0     C32241   0.117   2.411  -1.740 -0.4690  0.0225 -0.8005
  245MOL0     C32242  -0.008   2.371  -1.690  0.0795  0.8343  0.6493
  245MOL0     O32243  -0.118   2.444  -1.753 -0.3761  0.0857 -0.7396
  245MOL0     C32244  -0.236   2.424  -1.667  0.2088  0.0435  0.0717
  245MOL0     C32245  -0.331   2.537  -1.678 -0.2942 -0.8639 -0.3777
  245MOL0     C32246  -0.379   2.561  -1.816  0.5957 -0.8990 -0.0183
  245MOL0     C32247  -0.453   2.693  -1.818  0.4765  0.3921  0.2522
  245MOL0     C32248  -0.369   2.804  -1.848 -0.0813 -0.2782 -0.0632
  245MOL0     C32249  -0.446   2.934  -1.839  0.1671  0.3280  1.5212
  245MOL0     C32250  -0.362   3.069  -1.877 -0.3233  0.2505 -0.2097
  245MOL0     C32251  -0.421   3.163  -1.977  0.4549  0.8153  0.3751
  245MOL0    Cl32252  -0.335   3.323  -2.007  0.0900  0.5924 -0.1681
  245MOL0     C32253  -0.007   2.264  -1.601 -0.6079  0.2249 -0.8326
  245MOL0     C32254   0.110   2.199  -1.563 -0.6402 -0.2351 -1.1183
  245MOL0     O32255   0.480   2.232  -1.748 -0.4099  0.4564  0.1440
  245MOL0     C32256   0.713   2.091  -1.641  0.9017  0.5025  0.2535
  245MOL0     C32257   0.811   2.011  -1.584  0.2542  0.1536 -0.6654
  245MOL0     N32258   1.434   1.783  -1.189  0.6361  0.1855  0.4576
  245MOL0     N32259   1.555   1.795  -1.151  0.2067  0.5891 -0.2868
  245MOL0     C32260   1.604   1.961  -0.326 -0.1487 -0.2648 -0.2458
  245MOL0     C32261   1.689   1.958  -0.214 -0.7868 -0.0477  0.5968
  245MOL0     C32262   2.033   1.931   0.082  0.4684  0.3983 -0.3540
  245MOL0     C32263   2.040   1.844   0.195  0.0312 -0.0349  0.4747
  245MOL0     C32264   2.166   1.813   0.244 -0.6711 -0.9049 -0.0467
  245MOL0     C32265   2.284   1.854   0.182  0.4398  0.1881  0.5823
  245MOL0     O32266   2.410   1.814   0.212 -0.1992  1.2326 -0.3129
  245MOL0     C32267   2.433   1.738   0.336  0.6454 -0.3774 -0.2447
  245MOL0     C32268   2.578   1.689   0.313 -0.8380 -0.3280 -0.6036
  245MOL0     C32269   2.632   1.626   0.442 -1.1891 -0.6027  0.3949
  245MOL0     C32270   2.783   1.595   0.437  0.1502  0.8146 -0.2217
  245MOL0     C32271   2.814   1.468   0.374 -0.8495  1.2551 -0.3209
  245MOL0     C32272   2.824   1.360   0.321 -0.5801  0.0985  0.3067
  245MOL0     C32273   2.266   1.949   0.084  0.3192  0.8304  1.4696
  245MOL0     C32274   2.142   1.994   0.027  0.2379  0.3035 -0.9670
  245MOL0     H32275   1.945   2.153  -0.327  0.6845 -0.9223  0.4289
  245MOL0     H32276   1.782   2.163  -0.523  3.8939  2.2337  2.6336
  245MOL0     H32277   1.532   1.854  -0.595 -0.4555  0.3993 -0.2288
  245MOL0     H32278   1.699   1.899  -0.628  0.9136  0.3610  0.9285
  245MOL0     H32279   1.450   2.019  -0.763 -1.3163 -2.6173 -1.1026
  245MOL0     H32280   1.517   1.884  -0.834 -1.3118 -0.1615  0.9965
  245MOL0     H32281   1.756   2.014  -0.834 -0.4604 -1.0397  2.7455
  245MOL0     H32282   1.675   2.151  -0.781 -2.5555  0.5986 -0.2848
  245MOL0     H32283   1.562   2.024  -1.041  1.7193 -4.1491  1.2445
  245MOL0     H32284   1.561   2.189  -0.986  2.7750  0.8710 -1.7189
  245MOL0     H32285   1.816   2.036  -1.044 -0.6670  0.4375  0.1538
  245MOL0     H32286   1.796   2.206  -1.019 -1.2464 -1.5360  2.4046
  245MOL0     H32287   1.733   2.230  -1.269  4.8273  0.9905  0.7977
  245MOL0     H32288   1.619   2.112  -1.255  0.1979 -3.3448 -1.1048
  245MOL0     H32289   1.777   2.023  -1.405 -1.8187 -4.8186 -0.1800
  245MOL0     H32290   1.905   2.039  -1.279 -1.0073 -0.5834  1.5090
  245MOL0     H32291   1.835   1.821  -1.181 -1.1571 -2.0273  0.1755
  245MOL0     H32292   1.804   1.813  -1.344  0.1031  0.4285  0.0507
  245MOL0     H32293   1.575   1.902  -1.460  1.4298  1.9535  0.0832
  245MOL0     H32294   1.330   1.713  -1.494  1.3251  0.7704 -1.0874
  245MOL0     H32295   1.258   1.878  -1.446 -0.1975 -1.7802 -2.2338
  245MOL0     H32296   1.166   1.768  -1.234 -3.3020  0.5021  0.3345
  245MOL0     H32297   1.235   1.614  -1.283 -1.1348  0.8888  0.7304
  245MOL0     H32298   1.108   1.634  -1.503  3.2731 -0.9761  0.4916
  245MOL0     H32299   1.002   1.635  -1.354  2.0305 -1.6749  0.5652
  245MOL0     H32300   0.988   1.797  -1.576  1.5693 -2.8442  0.0791
  245MOL0     H32301   1.037   1.915  -1.437  0.7329  0.1305  0.2299
  245MOL0     H32302   0.630   1.846  -1.363  0.6389 -0.2954  1.2427
  245MOL0     H32303   0.449   1.987  -1.459  1.5975 -1.0401  2.3355
  245MOL0     H32304   0.324   2.395  -1.743  0.4845  0.2045  1.0591
  245MOL0     H32305   0.117   2.489  -1.816  0.2539 -3.3612 -4.5924
  245MOL0     H32306  -0.202   2.413  -1.563  1.9128  0.3148 -0.4250
  245MOL0     H32307  -0.286   2.335  -1.705 -1.3172  0.6698  0.5524
  245MOL0     H32308  -0.280   2.627  -1.643  2.7435 -2.7414  0.3758
  245MOL0     H32309  -0.414   2.520  -1.609 -0.6589  2.9649  0.3236
  245MOL0     H32310  -0.447   2.481  -1.847 -1.5923 -0.6469  3.5840
  245MOL0     H32311  -0.302   2.559  -1.893  2.4650 -3.7421  1.7852
  245MOL0     H32312  -0.529   2.696  -1.896  0.0896 -2.5165  0.3977
  245MOL0     H32313  -0.508   2.705  -1.724  0.5184  0.6040  0.2500
  245MOL0     H32314  -0.328   2.798  -1.949 -1.4884 -2.8919 -0.5623
  245MOL0     H32315  -0.290   2.815  -1.773  0.1128 -1.7042 -0.0300
  245MOL0     H32316  -0.489   2.932  -1.739 -0.5948 -0.3931  1.1901
  245MOL0     H32317  -0.521   2.929  -1.918  2.7611 -0.2574 -1.1140
  245MOL0     H32318  -0.360   3.126  -1.784 -2.5400 -0.6316  0.4338
  245MOL0     H32319  -0.260   3.035  -1.900 -0.2914 -1.2539  1.8671
  245MOL0     H32320  -0.522   3.190  -1.944  1.1605 -1.3283  5.1731
  245MOL0     H32321  -0.423   3.104  -2.069 -1.0210 -0.4093  1.1317
  245MOL0     H32322  -0.103   2.231  -1.562  0.4366 -0.7802  1.0153
  245MOL0     H32323   0.110   2.124  -1.484  1.5979  1.5954  0.7804
  245MOL0     H32324   0.760   2.167  -1.703 -0.0170  0.7891 -0.1054
  245MOL0     H32325   0.917   2.023  -1.606  0.1368 -0.6011 -1.7071
  245MOL0     H32326   1.520   1.892  -0.326  0.2728 -0.8095  1.4090
  245MOL0     H32327   1.659   1.896  -0.130 -0.7658 -0.3343  0.3952
  245MOL0     H32328   1.952   1.803   0.244  0.4085  1.4815  2.5697
  245MOL0     H32329   2.180   1.739   0.322  2.7619 -0.3195  0.0628
  245MOL0     H32330   2.375   1.645   0.345  0.2278 -0.0688  0.2739
  245MOL0     H32331   2.419   1.795   0.428 -1.4146  0.0428 -0.7738
  245MOL0     H32332   2.581   1.609   0.238 -2.3799 -1.8130  0.8321
  245MOL0     H32333   2.633   1.780   0.285 -0.9429  0.4437  1.5188
  245MOL0     H32334   2.581   1.533   0.468 -0.4146 -1.3989 -0.8675
  245MOL0     H32335   2.614   1.696   0.525  0.1978  0.0130  0.2029
  245MOL0     H32336   2.839   1.679   0.394  1.2371  0.3271  0.2117
  245MOL0     H32337   2.814   1.580   0.541 -0.7904 -0.2416 -0.0717
  245MOL0     H32338   2.812   1.269   0.267 -4.1568  1.5630 -1.6939
  245MOL0     H32339   2.359   1.991   0.049  0.2721  2.4954  3.2152
  245MOL0     H32340   2.132   2.064  -0.056  2.0478  0.5411 -1.0248
  246MOL0     O32341   3.367   0.309   1.445  0.1837 -0.0978  0.0523
  246MOL0     C32342   3.471   0.372   1.431  0.6103  0.1100  0.3213
  246MOL0     O32343   3.506   0.460   1.326 -0.6650  0.0583 -0.3317
  246MOL0     C32344   3.420   0.540   1.254  0.3363 -0.7288 -0.3729
  246MOL0     C32345   3.485   0.617   1.161 -0.0773 -0.1407  0.2741
  246MOL0     C32346   3.414   0.730   1.100 -0.2082 -0.6654 -0.0923
  246MOL0     C32347   3.275   0.753   1.120 -0.2824  0.1780  0.1030
  246MOL0     O32348   3.211   0.839   1.030  0.3669  0.0156  0.2956
  246MOL0     C32349   3.073   0.885   1.064 -0.4738 -0.9898  0.1825
  246MOL0     C32350   3.038   1.005   0.963 -0.2908  0.5124  0.1274
  246MOL0     C32351   2.944   1.103   1.023  0.2222 -0.3280 -0.3739
  246MOL0     C32352   2.863   1.186   0.923  0.3633  0.2936 -1.1302
  246MOL0     C32353   2.931   1.264   0.812 -0.0494  0.2473 -0.2011
  246MOL0     C32354   3.012   1.382   0.858  0.3809 -0.2119  0.7399
  246MOL0     C32355   3.066   1.461   0.735  0.5557 -0.4545 -0.5649
  246MOL0     C32356   3.207   1.522   0.764  0.5112 -0.5653  0.1451
  246MOL0     N32357   3.318   1.424   0.769 -0.0179 -0.4813  0.4140
  246MOL0     C32358   3.309   1.292   0.798 -0.3345 -0.1351  0.8231
  246MOL0     C32359   3.429   1.254   0.831 -0.4410  0.1428 -0.2641
  246MOL0     C32360   3.472   1.120   0.880  0.3843  0.1371 -0.5926
  246MOL0     C32361   3.446   1.099   1.021  0.5632 -0.2012 -0.4536
  246MOL0     C32362   3.483   1.218   1.119 -0.3122 -1.0446 -0.3403
  246MOL0     C32363   3.470   1.158   1.265 -0.2513 -0.5547 -0.3615
  246MOL0     O32364   3.525   1.023   1.279  0.4693 -0.4392  0.3828
  246MOL0     C32365   3.575   0.984   1.402  0.3877  0.5193 -0.9765
  246MOL0     C32366   3.685   1.046   1.466 -0.3867  0.4030  0.2135
  246MOL0     C32367   3.720   1.004   1.586  0.1074 -0.3371 -0.1392
  246MOL0     C32368   3.655   0.908   1.650 -1.0567  0.1847  0.1820
  246MOL0     C32369   3.715   0.847   1.771  0.0980  0.9851 -0.5888
  246MOL0     O32370   3.824   0.907   1.841 -0.2410 -0.2442 -0.1551
  246MOL0     C32371   3.884   0.842   1.945  0.3132 -0.4494  0.1878
  246MOL0     C32372   3.901   0.707   1.957  0.4790  0.0656 -0.3096
  246MOL0     C32373   3.988   0.655   2.050 -0.1228  0.4253 -0.4196
  246MOL0     C32374   4.070   0.737   2.129 -0.6473  1.0943 -0.8183
  246MOL0     O32375   4.163   0.681   2.213 -0.4486  0.3703 -0.0665
  246MOL0     C32376   4.167   0.692   2.354  0.0002  0.4452  0.1425
  246MOL0     C32377   4.045   0.668   2.435  0.9879  0.3961 -0.0411
  246MOL0     C32378   4.031   0.515   2.480 -0.3892 -0.1697  0.2510
  246MOL0     C32379   4.040   0.420   2.359 -0.1937  0.5865  1.4875
  246MOL0     C32380   3.996   0.276   2.402 -0.4768  0.4783 -0.2295
  246MOL0     C32381   3.951   0.195   2.276  0.1207  0.3952 -0.2290
  246MOL0     C32382   3.888   0.057   2.317  0.1925  0.8369 -0.3416
  246MOL0     C32383   3.822  -0.027   2.206  0.1580  0.5329  0.0949
  246MOL0    Cl32384   3.675   0.051   2.142 -0.2544  0.1514 -0.3932
  246MOL0     C32385   4.052   0.874   2.116  0.2867  0.0266  0.2755
  246MOL0     C32386   3.954   0.927   2.027 -0.7893 -0.1410 -0.2494
  246MOL0     O32387   3.655   0.750   1.808  0.4162 -0.0704  0.3088
  246MOL0     C32388   3.540   0.845   1.591  0.3394  0.0544 -0.7167
  246MOL0     C32389   3.501   0.883   1.459  0.4132 -0.6992  0.4044
  246MOL0     N32390   3.519   1.357   0.802  0.1655 -0.0004 -0.1891
  246MOL0     N32391   3.453   1.459   0.764 -0.1871 -0.1303 -0.7143
  246MOL0     C32392   3.207   0.662   1.208 -0.2829 -0.7669  0.4414
  246MOL0     C32393   3.277   0.566   1.282 -0.2383 -0.5798  0.1539
  246MOL0     C32394   3.570   0.358   1.538 -0.0846 -0.2907 -0.1488
  246MOL0     C32395   3.679   0.453   1.540 -0.2472  0.2851 -0.2428
  246MOL0     C32396   3.774   0.454   1.645  0.9188 -0.3173  0.2504
  246MOL0     C32397   3.763   0.363   1.755  0.5228  1.4598  0.0703
  246MOL0     O32398   3.841   0.374   1.864  0.3527  0.3463 -0.4001
  246MOL0     C32399   3.940   0.267   1.876  0.0404  0.3662  0.2146
  246MOL0     C32400   4.069   0.287   1.798 -0.0834 -0.8647 -0.2132
  246MOL0     C32401   4.175   0.171   1.812  0.3886  0.8355  0.5839
  246MOL0     C32402   4.312   0.232   1.777  1.2404  0.2675  0.3239
  246MOL0     C32403   4.304   0.268   1.633 -0.4458 -0.1662  0.4357
  246MOL0     C32404   4.319   0.313   1.520  0.0229 -0.3844 -0.6203
  246MOL0     C32405   3.656   0.272   1.754  0.0926  0.1100  0.1151
  246MOL0     C32406   3.560   0.266   1.651 -0.1267 -0.1499 -0.1258
  246MOL0     H32407   3.593   0.612   1.154  0.1406  3.2952 -0.2596
  246MOL0     H32408   3.470   0.787   1.027 -3.1017 -0.0709 -2.0046
  246MOL0     H32409   3.085   0.916   1.169  2.3197  0.4523 -0.4624
  246MOL0     H32410   3.001   0.803   1.068 -0.1324 -1.3434 -0.7023
  246MOL0     H32411   2.990   0.959   0.876 -0.7888  1.7233 -0.2558
  246MOL0     H32412   3.131   1.057   0.939 -0.7293  1.2272 -0.0637
  246MOL0     H32413   2.987   1.170   1.098 -2.6102  1.8495 -0.5083
  246MOL0     H32414   2.864   1.052   1.078  0.4236  1.9035  2.2297
  246MOL0     H32415   2.805   1.108   0.873  2.1171 -0.3211 -2.3056
  246MOL0     H32416   2.791   1.254   0.971  1.8460 -1.5592  4.4490
  246MOL0     H32417   2.848   1.289   0.744 -0.0509 -1.5756 -0.9390
  246MOL0     H32418   2.998   1.191   0.765  0.4001  0.4620  0.0986
  246MOL0     H32419   3.087   1.354   0.933  0.3708 -3.5601 -0.3288
  246MOL0     H32420   2.940   1.450   0.903  0.6946 -1.0120  2.5391
  246MOL0     H32421   3.069   1.397   0.646 -4.3725  0.2846 -1.5206
  246MOL0     H32422   3.000   1.543   0.706  1.7959  0.3849 -1.1202
  246MOL0     H32423   3.205   1.577   0.858 -0.7188  2.7355 -1.6297
  246MOL0     H32424   3.237   1.601   0.695  1.6380 -0.3197  0.8908
  246MOL0     H32425   3.211   1.245   0.804 -0.5865  0.3394  0.4147
  246MOL0     H32426   3.579   1.098   0.874  0.3233 -1.8002  2.7589
  246MOL0     H32427   3.423   1.050   0.812 -5.2492  2.8135  0.1125
  246MOL0     H32428   3.510   1.014   1.047  0.7028 -0.2922 -1.0746
  246MOL0     H32429   3.340   1.074   1.034  0.4047  0.6712  0.0520
  246MOL0     H32430   3.591   1.233   1.106 -0.0352 -3.0398 -0.6141
  246MOL0     H32431   3.420   1.307   1.108 -2.8990 -2.4733  1.6758
  246MOL0     H32432   3.365   1.156   1.295 -0.5781 -0.4370 -1.4424
  246MOL0     H32433   3.513   1.225   1.340  0.8660  1.6727 -2.8141
  246MOL0     H32434   3.726   1.124   1.402 -1.9112  0.4633 -0.7470
  246MOL0     H32435   3.807   1.053   1.627  1.8553  0.5572 -4.3555
  246MOL0     H32436   3.851   0.636   1.892  0.3863  2.1888 -2.7265
  246MOL0     H32437   4.008   0.548   2.051  0.6896  0.5660 -0.2862
  246MOL0     H32438   4.202   0.793   2.376 -1.7866  0.7034  2.0825
  246MOL0     H32439   4.251   0.631   2.388 -0.2713 -1.1448 -1.8301
  246MOL0     H32440   3.955   0.707   2.387  2.4355  2.8659 -0.9440
  246MOL0     H32441   4.052   0.742   2.514  2.4732  1.2065 -0.8767
  246MOL0     H32442   3.933   0.502   2.528  0.1862 -0.1787  1.4781
  246MOL0     H32443   4.108   0.494   2.554  0.2293  1.6798  0.1730
  246MOL0     H32444   3.969   0.444   2.279  0.3970 -1.5237  0.2203
  246MOL0     H32445   4.143   0.418   2.322 -0.1006 -0.9014  1.7650
  246MOL0     H32446   3.911   0.283   2.471  0.5877  1.7201  1.0247
  246MOL0     H32447   4.084   0.230   2.449  1.4054  3.9019 -0.1113
  246MOL0     H32448   4.038   0.181   2.211  0.8373 -0.3682  0.8726
  246MOL0     H32449   3.888   0.255   2.210  1.6251  1.9170 -0.3523
  246MOL0     H32450   3.961  -0.012   2.359  0.2691  0.1505 -1.5416
  246MOL0     H32451   3.820   0.054   2.402  2.0059  0.2089  1.1478
  246MOL0     H32452   3.810  -0.129   2.244 -0.1344  0.3829 -0.3983
  246MOL0     H32453   3.904  -0.019   2.133 -1.2575  3.8118 -1.3587
  246MOL0     H32454   4.112   0.942   2.176 -1.0382  2.9960 -1.5682
  246MOL0     H32455   3.952   1.035   2.014  0.6294 -0.0672  0.0538
  246MOL0     H32456   3.485   0.766   1.640  1.9699 -0.2146  0.7918
  246MOL0     H32457   3.423   0.850   1.392 -0.1263  2.8748 -0.9725
  246MOL0     H32458   3.101   0.663   1.232 -0.0298 -1.4588  1.6417
  246MOL0     H32459   3.226   0.503   1.353 -5.2556  1.4486 -1.1771
  246MOL0     H32460   3.695   0.527   1.463 -0.0041 -1.0386 -1.5036
  246MOL0     H32461   3.849   0.531   1.650  0.3929  0.1802  0.6708
  246MOL0     H32462   3.890   0.176   1.840 -5.9323  2.9550  0.8712
  246MOL0     H32463   3.964   0.242   1.979  3.4180 -0.0975 -0.5662
  246MOL0     H32464   4.049   0.294   1.691  1.8703 -1.6733 -0.6613
  246MOL0     H32465   4.113   0.384   1.823  1.9230 -1.3609 -1.6241
  246MOL0     H32466   4.153   0.085   1.748 -2.3021  0.4717  1.8541
  246MOL0     H32467   4.177   0.126   1.911  1.8061 -2.6023 -0.8684
  246MOL0     H32468   4.335   0.310   1.849 -0.2567 -0.3620  1.5314
  246MOL0     H32469   4.378   0.147   1.795 -0.5095 -0.8345  2.0189
  246MOL0     H32470   4.334   0.355   1.423  1.8098 -2.1219 -1.1709
  246MOL0     H32471   3.639   0.203   1.836  0.4122  1.2915  1.2117
  246MOL0     H32472   3.472   0.202   1.654  1.3273 -2.2716 -0.6611
  247MOL0     O32473   7.490   4.104   3.370  0.1254 -0.5147  0.0125
  247MOL0     C32474   7.406   4.082   3.274 -0.3414  0.8544 -0.5197
  247MOL0     O32475   7.294   4.005   3.286  0.1071 -0.0133  0.1705
  247MOL0     C32476   7.285   3.936   3.399  0.0055  0.6876  0.4770
  247MOL0     C32477   7.370   3.827   3.422 -0.6973 -0.6017  0.3600
  247MOL0     C32478   7.360   3.756   3.538  0.9466  0.0476  0.2672
  247MOL0     C32479   7.256   3.794   3.636 -0.5632 -0.1366  0.2054
  247MOL0     O32480   7.257   3.718   3.750  0.1087 -0.7445  0.8175
  247MOL0     C32481   7.267   3.793   3.881 -0.6770  0.9724 -0.3311
  247MOL0     C32482   7.332   3.698   3.984  1.2559  1.0099  0.3919
  247MOL0     C32483   7.320   3.753   4.132 -0.8178 -0.3878 -0.2999
  247MOL0     C32484   7.286   3.632   4.228  0.8085 -1.2904  0.1323
  247MOL0     C32485   7.199   3.679   4.345  0.8485 -0.5871 -0.3579
  247MOL0     C32486   7.149   3.568   4.439  0.0600 -0.4175  1.4374
  247MOL0     C32487   7.037   3.616   4.541 -0.4862 -0.5958  0.4087
  247MOL0     C32488   7.018   3.505   4.647  0.7072  0.0211  1.1760
  247MOL0     N32489   6.907   3.422   4.596  0.2700  0.2406 -1.0176
  247MOL0     C32490   6.775   3.461   4.588  0.3379 -0.3640 -0.5960
  247MOL0     C32491   6.723   3.345   4.526 -0.5084 -0.3147 -0.4152
  247MOL0     C32492   6.583   3.323   4.503  0.1686 -0.2773  0.0089
  247MOL0     C32493   6.532   3.381   4.378  0.0087  0.5275 -0.0703
  247MOL0     C32494   6.385   3.336   4.352  0.4488 -1.4557  0.4126
  247MOL0     C32495   6.370   3.359   4.198  0.8465  0.4024 -1.0121
  247MOL0     O32496   6.255   3.281   4.162 -0.3549 -0.3982 -0.3406
  247MOL0     C32497   6.190   3.322   4.050  0.1456  0.1283  0.3838
  247MOL0     C32498   6.065   3.260   4.036 -0.0030 -0.2122  0.7334
  247MOL0     C32499   5.987   3.287   3.923  0.1662  1.2866 -0.0970
  247MOL0     C32500   6.030   3.370   3.814 -0.3546 -1.1648  0.1477
  247MOL0     C32501   5.944   3.390   3.690 -0.1624 -0.5262  0.5035
  247MOL0     O32502   5.825   3.319   3.683 -0.6430 -0.0284  0.1046
  247MOL0     C32503   5.740   3.363   3.584  0.2710 -0.4111  0.3028
  247MOL0     C32504   5.680   3.488   3.579 -1.4659  0.4034  0.5879
  247MOL0     C32505   5.622   3.543   3.468  0.5554  0.6518 -0.1690
  247MOL0     C32506   5.605   3.457   3.358  0.1464 -0.3027  0.5673
  247MOL0     O32507   5.524   3.507   3.259 -0.2770 -0.6202 -0.1138
  247MOL0     C32508   5.472   3.427   3.165  0.1421 -0.0064  1.2580
  247MOL0     C32509   5.383   3.509   3.075  0.1824 -0.5873 -0.6319
  247MOL0     C32510   5.281   3.598   3.143  0.4295  0.1034 -0.4749
  247MOL0     C32511   5.197   3.670   3.046  0.0472  0.0720  1.0407
  247MOL0     C32512   5.110   3.777   3.109  0.2176  0.1907 -0.4312
  247MOL0     C32513   5.064   3.884   3.006  0.9036  0.2621 -1.1267
  247MOL0     C32514   4.996   4.000   3.078  0.2473  0.4805 -1.1320
  247MOL0     C32515   4.862   3.952   3.133 -0.1324 -0.5888 -0.4101
  247MOL0    Cl32516   4.813   4.106   3.216 -0.0991  0.3806  0.5979
  247MOL0     C32517   5.662   3.325   3.361  0.2452  0.5409 -0.3525
  247MOL0     C32518   5.725   3.277   3.475  0.2708  0.3488 -0.3102
  247MOL0     O32519   5.992   3.463   3.602 -0.0490 -0.0854  0.3039
  247MOL0     C32520   6.153   3.438   3.835  0.1454 -0.4212 -0.6410
  247MOL0     C32521   6.222   3.416   3.955 -0.5123  0.2728  0.1904
  247MOL0     N32522   6.817   3.251   4.500 -0.5245 -0.3196 -0.5591
  247MOL0     N32523   6.928   3.302   4.531 -0.3696 -0.1531  0.2978
  247MOL0     C32524   7.171   3.897   3.605 -1.5269  0.8397 -0.1996
  247MOL0     C32525   7.177   3.968   3.487  0.7738 -0.3603  0.2009
  247MOL0     C32526   7.431   4.142   3.144 -0.2199  0.5270 -0.0312
  247MOL0     C32527   7.339   4.136   3.034 -0.2875  0.2245 -0.1789
  247MOL0     C32528   7.348   4.238   2.934  0.4234  1.5262 -0.3555
  247MOL0     C32529   7.454   4.322   2.917  0.0704 -0.4327 -0.2407
  247MOL0     O32530   7.471   4.378   2.790 -0.5305 -0.2594  0.5150
  247MOL0     C32531   7.526   4.515   2.799 -1.1821  0.0932 -0.1656
  247MOL0     C32532   7.424   4.615   2.806 -0.1571  0.3457 -0.0948
  247MOL0     C32533   7.353   4.609   2.942  0.0486 -0.1757  0.0422
  247MOL0     C32534   7.317   4.761   2.986 -0.7054  0.5987 -0.4081
  247MOL0     C32535   7.430   4.847   3.011 -0.1605 -0.8151  0.3843
  247MOL0     C32536   7.527   4.919   3.040 -0.2430  0.2023 -0.3318
  247MOL0     C32537   7.552   4.322   3.021  0.3063  0.8131  0.7244
  247MOL0     C32538   7.546   4.230   3.128 -0.5216 -0.5139 -0.0526
  247MOL0     H32539   7.455   3.798   3.360  0.4229 -0.1234  1.6233
  247MOL0     H32540   7.431   3.676   3.555 -2.0158 -2.2263  3.1985
  247MOL0     H32541   7.168   3.825   3.916 -0.4555 -0.0482  1.3157
  247MOL0     H32542   7.320   3.888   3.881 -0.1111  0.6987  1.7478
  247MOL0     H32543   7.429   3.656   3.958  0.0008 -2.2448  0.4775
  247MOL0     H32544   7.263   3.614   3.973  3.0427 -0.6184  1.1522
  247MOL0     H32545   7.232   3.817   4.143 -0.0571  1.1102 -2.3551
  247MOL0     H32546   7.407   3.808   4.169  0.0394 -1.8450 -0.0683
  247MOL0     H32547   7.245   3.551   4.168 -1.6797 -1.1063  1.4779
  247MOL0     H32548   7.380   3.601   4.275  0.1340 -4.6670 -0.5001
  247MOL0     H32549   7.106   3.729   4.314  0.6094  2.6902  4.5950
  247MOL0     H32550   7.242   3.759   4.406  0.4309 -0.4627 -0.2225
  247MOL0     H32551   7.244   3.549   4.490  1.7065  2.4622 -0.3213
  247MOL0     H32552   7.113   3.489   4.372  1.5496  0.1670 -0.1186
  247MOL0     H32553   7.079   3.697   4.600 -0.1790  1.0798 -1.9412
  247MOL0     H32554   6.945   3.649   4.491  0.9904  0.4580 -1.7572
  247MOL0     H32555   7.001   3.532   4.752  3.8406  2.1761  1.2807
  247MOL0     H32556   7.109   3.447   4.666  0.0815 -0.7537  1.8748
  247MOL0     H32557   6.727   3.554   4.617  0.8540 -0.2874  0.0293
  247MOL0     H32558   6.527   3.349   4.593 -1.6659  3.5826 -2.0118
  247MOL0     H32559   6.571   3.216   4.486 -0.0917  0.1928 -3.4347
  247MOL0     H32560   6.591   3.346   4.292  1.6677 -0.8951  1.5770
  247MOL0     H32561   6.545   3.490   4.375 -1.4001  0.6973 -1.1860
  247MOL0     H32562   6.364   3.231   4.377 -0.7455 -2.5425 -4.2381
  247MOL0     H32563   6.322   3.407   4.406  2.0593 -0.0801  0.5649
  247MOL0     H32564   6.464   3.333   4.148  0.6343  0.0315 -1.2162
  247MOL0     H32565   6.362   3.468   4.187 -0.9439  0.4090 -0.0332
  247MOL0     H32566   6.042   3.189   4.114  1.6555  0.0901  1.5287
  247MOL0     H32567   5.895   3.230   3.911  0.9452  0.3221 -2.1448
  247MOL0     H32568   5.677   3.549   3.669 -1.5306 -0.3867  1.1374
  247MOL0     H32569   5.586   3.644   3.451 -1.3244 -0.1694 -1.4141
  247MOL0     H32570   5.406   3.357   3.217  0.0147 -0.5537  0.3762
  247MOL0     H32571   5.554   3.378   3.111 -0.0016  0.2651  0.7862
  247MOL0     H32572   5.320   3.437   3.022 -1.2460  0.5352 -0.5372
  247MOL0     H32573   5.435   3.566   2.998  0.9843 -0.7567 -0.2281
  247MOL0     H32574   5.335   3.673   3.201 -1.5716  1.8140 -0.7174
  247MOL0     H32575   5.211   3.530   3.193  0.3675 -0.6225 -1.5077
  247MOL0     H32576   5.265   3.716   2.973  1.5764 -3.3016  0.1370
  247MOL0     H32577   5.129   3.608   2.987  0.5282  1.0294 -0.6178
  247MOL0     H32578   5.177   3.831   3.176  1.4744 -2.5643  0.7273
  247MOL0     H32579   5.021   3.730   3.151 -0.8723  0.6786 -2.0920
  247MOL0     H32580   4.998   3.847   2.927 -0.2438  1.7716 -0.9403
  247MOL0     H32581   5.153   3.916   2.951  2.7493 -1.3254  0.7617
  247MOL0     H32582   5.061   4.040   3.156  0.7034  0.6488 -1.5910
  247MOL0     H32583   4.972   4.083   3.010  0.7169  1.9633  0.4366
  247MOL0     H32584   4.868   3.875   3.210  1.1797  0.7131  0.8333
  247MOL0     H32585   4.795   3.930   3.049 -0.1634  1.8329 -1.0708
  247MOL0     H32586   5.654   3.250   3.282  0.0891 -2.5903  2.4378
  247MOL0     H32587   5.759   3.174   3.483 -1.2771 -0.0795  1.4331
  247MOL0     H32588   6.202   3.504   3.764  0.7997  0.2086  0.3754
  247MOL0     H32589   6.309   3.477   3.976 -0.5324 -0.4310  2.6045
  247MOL0     H32590   7.092   3.906   3.679 -0.9465  3.0678  0.1986
  247MOL0     H32591   7.102   4.043   3.463 -0.9749 -2.4742 -1.2826
  247MOL0     H32592   7.255   4.071   3.052 -0.4416  0.9173  1.8727
  247MOL0     H32593   7.274   4.238   2.855 -0.0354 -0.8616  0.0145
  247MOL0     H32594   7.572   4.534   2.701  0.9260  3.3101  1.2683
  247MOL0     H32595   7.600   4.527   2.878 -0.9607 -0.4782 -0.2826
  247MOL0     H32596   7.460   4.713   2.772  4.9548 -1.9339 -2.3713
  247MOL0     H32597   7.343   4.592   2.735 -3.3921 -1.8669  3.8764
  247MOL0     H32598   7.424   4.571   3.016  0.4155 -0.6219 -0.5265
  247MOL0     H32599   7.256   4.562   2.955 -0.0380  0.5322  2.4223
  247MOL0     H32600   7.250   4.795   2.907  0.0231 -1.4490 -2.0053
  247MOL0     H32601   7.259   4.773   3.078 -1.9315  0.0430 -1.0767
  247MOL0     H32602   7.615   4.979   3.050  0.0965  0.1029 -2.3513
  247MOL0     H32603   7.641   4.383   3.013  1.8123 -1.1617  1.6482
  247MOL0     H32604   7.620   4.240   3.207 -0.9207 -2.8330  0.6813
  248MOL0     O32605   9.500  10.070   0.314  0.0384 -0.0060  0.3932
  248MOL0     C32606   9.610  10.081   0.369  0.3151  0.2237 -0.3018
  248MOL0     O32607   9.627  10.148   0.489  0.9374  0.2711  0.5453
  248MOL0     C32608   9.516  10.174   0.573  0.3068  0.0485 -0.1758
  248MOL0     C32609   9.557  10.254   0.686 -0.8632  0.8036 -0.2534
  248MOL0     C32610   9.473  10.277   0.797 -0.8376 -0.0686  0.3577
  248MOL0     C32611   9.339  10.228   0.797 -0.3015 -0.2595 -0.7264
  248MOL0     O32612   9.258  10.250   0.915 -0.0981 -0.5492  0.1637
  248MOL0     C32613   9.118  10.228   0.901  0.5833  0.4076  0.7695
  248MOL0     C32614   9.039  10.329   0.815 -0.9502 -0.0860  0.1856
  248MOL0     C32615   9.015  10.457   0.893 -0.1295  0.2760 -0.1142
  248MOL0     C32616   8.930  10.543   0.797  0.4188 -0.4450 -0.6441
  248MOL0     C32617   8.886  10.683   0.848  0.2873  0.8005 -0.2910
  248MOL0     C32618   8.787  10.747   0.751  0.8655  0.0201 -0.3203
  248MOL0     C32619   8.856  10.779   0.615  0.0090 -0.1900  0.1422
  248MOL0     C32620   8.749  10.784   0.510 -0.0415 -0.2017  0.9696
  248MOL0     N32621   8.660  10.905   0.495 -1.0428  0.1606  0.3058
  248MOL0     C32622   8.677  11.023   0.557  0.7541  0.7794 -0.0666
  248MOL0     C32623   8.582  11.105   0.496 -0.1914 -0.4241 -0.1685
  248MOL0     C32624   8.586  11.251   0.517 -0.3565 -0.8070  0.5116
  248MOL0     C32625   8.516  11.323   0.401 -0.3572 -0.1260 -0.1379
  248MOL0     C32626   8.466  11.459   0.431 -0.4645  0.0493  0.2201
  248MOL0     C32627   8.403  11.539   0.307  0.0017  0.6742  0.4412
  248MOL0     O32628   8.310  11.638   0.345  0.4148  0.0075  0.7467
  248MOL0     C32629   8.275  11.747   0.271 -0.2593 -0.1342 -0.2451
  248MOL0     C32630   8.187  11.833   0.326 -1.1429 -0.4836 -0.1225
  248MOL0     C32631   8.143  11.943   0.267  0.0043 -0.4499  0.2846
  248MOL0     C32632   8.194  11.988   0.143  0.4620  0.9298 -0.5882
  248MOL0     C32633   8.147  12.107   0.075 -0.4147 -0.1328 -0.4735
  248MOL0     O32634   8.218  12.141  -0.040 -0.0750  0.8068  0.0090
  248MOL0     C32635   8.159  12.218  -0.133  0.2825 -0.2365  1.2024
  248MOL0     C32636   8.099  12.343  -0.101 -0.3816  0.1765  0.9188
  248MOL0     C32637   8.019  12.412  -0.191 -0.3428 -0.0173  0.3789
  248MOL0     C32638   8.031  12.377  -0.330 -0.8500 -0.1763 -0.4259
  248MOL0     O32639   7.961  12.450  -0.428 -0.0536  0.6267 -0.4355
  248MOL0     C32640   7.973  12.421  -0.570 -0.6904 -0.2328  0.2100
  248MOL0     C32641   7.878  12.518  -0.641 -0.2528  0.4501 -0.5225
  248MOL0     C32642   7.728  12.488  -0.590 -0.6419  0.2851  0.5104
  248MOL0     C32643   7.628  12.591  -0.639 -0.0834  0.1347  0.0917
  248MOL0     C32644   7.487  12.536  -0.649  0.5213 -0.2875 -0.0193
  248MOL0     C32645   7.390  12.651  -0.685 -0.6655  1.2709 -0.4120
  248MOL0     C32646   7.250  12.589  -0.695 -0.5929  0.4806 -0.0342
  248MOL0     C32647   7.136  12.697  -0.676 -1.1073  0.4528  0.4293
  248MOL0    Cl32648   7.126  12.807  -0.828  0.2933 -0.1839 -0.7255
  248MOL0     C32649   8.116  12.266  -0.366 -0.5845  0.1357  0.5941
  248MOL0     C32650   8.177  12.189  -0.266  0.4179 -0.6218 -0.4598
  248MOL0     O32651   8.053  12.169   0.112 -0.6386  0.2834 -0.3026
  248MOL0     C32652   8.280  11.902   0.077 -0.8897  0.1383 -0.3656
  248MOL0     C32653   8.326  11.783   0.148 -0.2633  0.2715  0.4064
  248MOL0     N32654   8.491  11.026   0.428 -0.6626 -0.7618 -0.8129
  248MOL0     N32655   8.541  10.908   0.420 -0.1352 -1.2131  0.0846
  248MOL0     C32656   9.298  10.158   0.679 -0.9023 -0.4682 -0.3770
  248MOL0     C32657   9.381  10.133   0.573  0.3797  0.1315  0.2016
  248MOL0     C32658   9.713   9.984   0.326  0.2476  0.0178  1.0171
  248MOL0     C32659   9.707   9.918   0.200 -0.6818  0.3610 -1.1949
  248MOL0     C32660   9.814   9.828   0.157 -0.9021 -0.3324  0.1899
  248MOL0     C32661   9.911   9.797   0.252 -1.6818 -0.8614 -0.1878
  248MOL0     O32662  10.004   9.703   0.230  0.5373 -0.1969  0.5708
  248MOL0     C32663  10.116   9.743   0.144 -0.1869  0.2993 -0.4898
  248MOL0     C32664  10.253   9.732   0.210 -0.2875  0.0914  0.7364
  248MOL0     C32665  10.280   9.798   0.346 -0.4040  0.3529  1.0929
  248MOL0     C32666  10.433   9.841   0.354  1.5292  0.2685 -0.2572
  248MOL0     C32667  10.443   9.989   0.327 -0.1320  0.5793 -0.3883
  248MOL0     C32668  10.464  10.103   0.309 -0.2774 -0.7648 -0.4978
  248MOL0     C32669   9.914   9.870   0.376  0.3341  1.2939  0.5892
  248MOL0     C32670   9.823   9.963   0.416 -0.0244  0.2812  0.5204
  248MOL0     H32671   9.658  10.293   0.697 -0.5116  0.3447 -1.6977
  248MOL0     H32672   9.526  10.317   0.883  2.7589  2.4364 -2.6515
  248MOL0     H32673   9.070  10.224   0.999 -1.0521 -1.5411 -0.0335
  248MOL0     H32674   9.109  10.128   0.857  0.7949 -0.1800  2.0246
  248MOL0     H32675   8.954  10.279   0.770  2.0697 -4.2279 -1.5495
  248MOL0     H32676   9.115  10.358   0.741  2.0232 -1.8627  2.3091
  248MOL0     H32677   9.104  10.516   0.919  0.0514 -0.2342  0.4672
  248MOL0     H32678   8.967  10.443   0.990 -1.5165 -1.3847 -1.0031
  248MOL0     H32679   8.981  10.542   0.700  2.0522 -0.7140  0.1795
  248MOL0     H32680   8.834  10.492   0.783  0.1673 -0.2582  0.3642
  248MOL0     H32681   8.954  10.767   0.866  1.0863 -0.3644  2.5993
  248MOL0     H32682   8.835  10.658   0.941  0.3625  1.4886 -0.0605
  248MOL0     H32683   8.724  10.823   0.799 -0.9303 -0.8729 -1.1913
  248MOL0     H32684   8.712  10.671   0.729  1.7815 -0.5344 -1.6908
  248MOL0     H32685   8.906  10.876   0.611  2.1509 -1.2585 -2.1762
  248MOL0     H32686   8.933  10.706   0.585 -0.3585 -0.7755  0.6003
  248MOL0     H32687   8.675  10.705   0.520  2.2152 -2.7753 -1.2533
  248MOL0     H32688   8.799  10.762   0.415 -1.5384 -2.1325  0.5768
  248MOL0     H32689   8.757  11.051   0.624  1.4844 -2.1078  0.4224
  248MOL0     H32690   8.684  11.294   0.540 -0.9031  0.1302  1.1852
  248MOL0     H32691   8.526  11.275   0.605 -2.2768 -0.3173 -0.8646
  248MOL0     H32692   8.427  11.264   0.381 -0.2995 -2.1666  4.3654
  248MOL0     H32693   8.580  11.326   0.312 -0.6535  0.2837 -0.3377
  248MOL0     H32694   8.398  11.455   0.517  0.3875 -0.0214  0.9124
  248MOL0     H32695   8.546  11.528   0.457 -1.8106  1.2970  1.2289
  248MOL0     H32696   8.348  11.464   0.250  0.6360  0.4666  0.1005
  248MOL0     H32697   8.470  11.583   0.233  0.3283  0.2565  0.4912
  248MOL0     H32698   8.147  11.789   0.416 -1.2362 -0.0693  0.0432
  248MOL0     H32699   8.059  11.991   0.316 -0.7315 -0.2181 -1.1562
  248MOL0     H32700   8.096  12.378   0.001 -2.9296  0.8083  0.6942
  248MOL0     H32701   7.951  12.493  -0.164  1.1289  0.7045  2.1367
  248MOL0     H32702   7.946  12.322  -0.606 -0.7577 -0.0470 -0.2568
  248MOL0     H32703   8.077  12.441  -0.601 -0.8754  0.2540 -0.1162
  248MOL0     H32704   7.884  12.506  -0.749  0.7552 -0.3462 -0.3887
  248MOL0     H32705   7.898  12.624  -0.624  1.2964  0.4531 -2.1814
  248MOL0     H32706   7.728  12.476  -0.481  2.0327 -1.4548  0.4010
  248MOL0     H32707   7.695  12.389  -0.621 -0.8002  0.3812  0.3673
  248MOL0     H32708   7.624  12.679  -0.574  0.2742 -2.3693  3.7997
  248MOL0     H32709   7.644  12.617  -0.744  2.1914  2.6143  0.9253
  248MOL0     H32710   7.457  12.501  -0.550  0.2171  1.1123  0.3998
  248MOL0     H32711   7.480  12.447  -0.713  0.4316 -2.9918  3.4167
  248MOL0     H32712   7.418  12.711  -0.772 -1.3677  0.9821 -0.8438
  248MOL0     H32713   7.386  12.729  -0.608 -2.1722 -1.6405  2.7473
  248MOL0     H32714   7.236  12.525  -0.782 -1.2058 -0.2991  0.6193
  248MOL0     H32715   7.250  12.518  -0.611 -1.6640 -1.6043 -1.7052
  248MOL0     H32716   7.167  12.762  -0.594  2.5676  1.7940 -1.7944
  248MOL0     H32717   7.033  12.660  -0.667 -0.8950 -0.9979 -2.1845
  248MOL0     H32718   8.146  12.226  -0.462  1.0356 -2.9063  2.1875
  248MOL0     H32719   8.247  12.109  -0.288 -0.6091 -0.4242 -5.7968
  248MOL0     H32720   8.316  11.910  -0.025 -1.9085 -0.6141 -0.8017
  248MOL0     H32721   8.383  11.702   0.103  3.0402  3.2109 -1.2141
  248MOL0     H32722   9.193  10.128   0.678 -0.9784 -0.3649 -3.5883
  248MOL0     H32723   9.337  10.087   0.485 -3.0408 -2.2174  2.8528
  248MOL0     H32724   9.635   9.940   0.123  1.7260  1.0644 -3.4022
  248MOL0     H32725   9.809   9.790   0.055  0.0095  1.2457 -0.4745
  248MOL0     H32726  10.124   9.849   0.115  2.7769 -0.1790 -1.8243
  248MOL0     H32727  10.117   9.662   0.071 -3.7247 -3.0699  2.7597
  248MOL0     H32728  10.266   9.626   0.233 -1.7538 -0.4282 -0.6323
  248MOL0     H32729  10.327   9.768   0.137 -1.1782  0.9483  0.2245
  248MOL0     H32730  10.258   9.722   0.422  0.7929 -2.2364 -0.9642
  248MOL0     H32731  10.211   9.883   0.343  0.0819  0.7369  0.8103
  248MOL0     H32732  10.475   9.820   0.452 -1.9271 -3.4374  0.7086
  248MOL0     H32733  10.497   9.787   0.283  0.1166 -2.1000  0.1638
  248MOL0     H32734  10.468  10.209   0.293 -0.0088 -0.2619  2.4139
  248MOL0     H32735   9.983   9.862   0.459 -0.3458 -1.4103  0.9999
  248MOL0     H32736   9.829  10.008   0.515 -0.4596 -0.8702  1.0963
  249MOL0     O32737   6.887   1.296   7.719 -0.3997  0.6037  0.2367
  249MOL0     C32738   6.853   1.180   7.720  0.0523 -0.5968  1.0884
  249MOL0     O32739   6.825   1.108   7.602 -0.0628  0.1424 -0.0604
  249MOL0     C32740   6.826   1.154   7.474  0.5269  0.5021 -0.5483
  249MOL0     C32741   6.865   1.274   7.433  0.2467  0.5674 -0.1356
  249MOL0     C32742   6.879   1.297   7.294 -0.0494 -0.0547 -0.7017
  249MOL0     C32743   6.836   1.204   7.196 -0.7912  0.4458  0.9302
  249MOL0     O32744   6.855   1.233   7.057 -0.4044 -0.4983  0.3084
  249MOL0     C32745   6.833   1.129   6.964  0.6449 -0.3132  0.9500
  249MOL0     C32746   6.870   1.157   6.811  0.4933  0.1170 -0.9028
  249MOL0     C32747   6.974   1.259   6.802 -0.6521 -0.5494 -0.4923
  249MOL0     C32748   7.016   1.288   6.646  0.3331 -0.0520  0.4214
  249MOL0     C32749   7.125   1.394   6.621  0.3532 -0.0670  0.1200
  249MOL0     C32750   7.087   1.533   6.679 -0.0620  0.5652 -0.1551
  249MOL0     C32751   7.202   1.633   6.657  0.5639  0.5590 -0.4669
  249MOL0     C32752   7.165   1.778   6.701  1.0531 -0.7431 -0.2966
  249MOL0     N32753   7.081   1.792   6.818  0.1619 -0.0166  0.5835
  249MOL0     C32754   7.075   1.711   6.928  0.8117  0.0987 -0.3081
  249MOL0     C32755   6.967   1.760   6.998 -0.5549 -0.9693  0.3164
  249MOL0     C32756   6.939   1.735   7.148 -1.2359 -1.2525  0.1237
  249MOL0     C32757   6.794   1.720   7.185  0.5279 -0.3088 -0.4469
  249MOL0     C32758   6.708   1.609   7.110  0.5383 -0.0043  0.3054
  249MOL0     C32759   6.583   1.559   7.192  1.4132 -0.3677 -1.0096
  249MOL0     O32760   6.523   1.660   7.281  0.6860  0.3319 -0.0464
  249MOL0     C32761   6.469   1.607   7.388 -0.5341 -0.3178 -0.3822
  249MOL0     C32762   6.346   1.548   7.381 -0.0488 -0.3891 -0.0859
  249MOL0     C32763   6.307   1.473   7.496 -0.6355 -0.1958  0.6308
  249MOL0     C32764   6.388   1.477   7.619 -0.4833  0.8669  0.9925
  249MOL0     C32765   6.351   1.416   7.750  0.1575  0.5908  0.5916
  249MOL0     O32766   6.402   1.491   7.853  0.0334  0.4215  0.6640
  249MOL0     C32767   6.394   1.431   7.974 -0.2854  0.2907  0.2384
  249MOL0     C32768   6.292   1.470   8.063 -0.9266 -0.3114 -0.2571
  249MOL0     C32769   6.278   1.414   8.188 -0.0787  0.7218 -0.0944
  249MOL0     C32770   6.373   1.305   8.219 -0.5673  0.4841 -1.2616
  249MOL0     O32771   6.355   1.227   8.326 -0.1294 -0.4613 -0.5710
  249MOL0     C32772   6.222   1.200   8.386  0.3534  0.9540  0.4686
  249MOL0     C32773   6.140   1.087   8.318 -0.2587  0.3315  1.0371
  249MOL0     C32774   6.066   1.134   8.191  0.3527 -0.7391 -0.0698
  249MOL0     C32775   5.965   1.031   8.125 -0.4855 -0.3261  0.1970
  249MOL0     C32776   5.920   1.061   7.979  0.0582  0.0815  0.0931
  249MOL0     C32777   5.850   1.193   7.950  0.4968 -0.1056 -0.2474
  249MOL0     C32778   5.869   1.234   7.803 -0.6897 -0.7075  0.6764
  249MOL0     C32779   5.793   1.368   7.786  0.1945 -1.0990  0.2552
  249MOL0    Cl32780   5.878   1.499   7.877 -0.3656  0.2027 -0.3196
  249MOL0     C32781   6.467   1.263   8.128 -0.5107  0.3627 -0.0785
  249MOL0     C32782   6.483   1.319   8.009  0.2452  0.9749 -0.0903
  249MOL0     O32783   6.286   1.311   7.761  0.1553  0.3437  0.0506
  249MOL0     C32784   6.513   1.536   7.609 -0.2268  0.1441 -0.6108
  249MOL0     C32785   6.555   1.598   7.501 -0.1206 -0.2279  0.0048
  249MOL0     N32786   6.897   1.854   6.922 -0.1344  0.7890  0.7428
  249MOL0     N32787   6.963   1.860   6.811 -1.5490 -0.5635 -0.3608
  249MOL0     C32788   6.787   1.082   7.244  0.5760 -0.2218 -0.0325
  249MOL0     C32789   6.787   1.055   7.381  0.4932 -0.1113  0.5581
  249MOL0     C32790   6.820   1.128   7.854 -1.0471 -0.2824  0.3620
  249MOL0     C32791   6.876   1.199   7.961  0.5374 -0.5836 -0.3035
  249MOL0     C32792   6.852   1.146   8.098 -0.6048 -0.0441  0.2000
  249MOL0     C32793   6.789   1.036   8.126 -0.8046  0.4765  0.4287
  249MOL0     O32794   6.753   0.995   8.257 -0.2597 -0.7738  0.8849
  249MOL0     C32795   6.828   0.888   8.317 -0.3439  0.3180 -0.4672
  249MOL0     C32796   6.971   0.921   8.358 -0.0985 -0.7739 -1.4160
  249MOL0     C32797   6.990   1.032   8.470 -0.3856  0.0308 -1.1730
  249MOL0     C32798   7.111   1.018   8.562 -0.4138 -0.0737  0.3013
  249MOL0     C32799   7.123   1.124   8.664  0.5809  0.1770 -0.0370
  249MOL0     C32800   7.136   1.218   8.744  0.1689  0.2224 -1.0882
  249MOL0     C32801   6.745   0.967   8.021  0.7328  0.5361 -0.1338
  249MOL0     C32802   6.756   1.008   7.881 -0.0538 -0.5615 -1.0445
  249MOL0     H32803   6.890   1.359   7.495 -1.4132  2.5311 -1.9960
  249MOL0     H32804   6.913   1.397   7.271 -2.4899  1.3890  1.3443
  249MOL0     H32805   6.726   1.113   6.979  0.5994  1.1437  2.4690
  249MOL0     H32806   6.889   1.040   6.995  1.6488 -0.3935 -0.9301
  249MOL0     H32807   6.777   1.186   6.763  0.1047  2.6627  1.1735
  249MOL0     H32808   6.916   1.069   6.765 -1.0899 -0.8573 -0.6968
  249MOL0     H32809   7.049   1.222   6.872  1.5637  1.8097 -1.4501
  249MOL0     H32810   6.947   1.353   6.850  4.4844 -0.7969  3.7112
  249MOL0     H32811   7.063   1.198   6.604 -1.6632  0.5631 -3.5627
  249MOL0     H32812   6.929   1.304   6.582 -0.9201  0.6181  2.2152
  249MOL0     H32813   7.144   1.410   6.514  0.5331  2.0533  0.4201
  249MOL0     H32814   7.220   1.366   6.667 -0.4306  1.5984  2.9333
  249MOL0     H32815   7.053   1.524   6.783  1.2277 -0.2838  0.2055
  249MOL0     H32816   6.998   1.580   6.636  0.5845  2.7469  0.7758
  249MOL0     H32817   7.289   1.594   6.711  1.4408 -1.9581 -3.3638
  249MOL0     H32818   7.234   1.631   6.552  0.2919  2.7581 -0.6270
  249MOL0     H32819   7.116   1.813   6.609  1.3650  0.8100  0.0883
  249MOL0     H32820   7.261   1.830   6.702 -0.2849  1.9058  1.0636
  249MOL0     H32821   7.149   1.638   6.959 -1.1799 -1.6514  0.5404
  249MOL0     H32822   6.976   1.815   7.213 -0.8369 -1.9625  0.7919
  249MOL0     H32823   6.997   1.645   7.171 -1.9194 -1.2234  2.0966
  249MOL0     H32824   6.735   1.811   7.167 -0.0189 -0.6279 -0.2910
  249MOL0     H32825   6.787   1.708   7.293  2.3336  3.7429  0.3341
  249MOL0     H32826   6.680   1.626   7.006  1.1887 -0.3710  0.0629
  249MOL0     H32827   6.779   1.526   7.103  5.4136  3.7820 -0.7734
  249MOL0     H32828   6.621   1.468   7.238  0.5080  0.2680  1.0952
  249MOL0     H32829   6.501   1.532   7.125 -1.9528  7.2583 -1.0707
  249MOL0     H32830   6.274   1.564   7.301 -0.3317 -0.8684  0.0730
  249MOL0     H32831   6.217   1.413   7.495 -0.3456 -0.6535  1.1337
  249MOL0     H32832   6.225   1.546   8.024  0.3947 -0.6247 -3.4212
  249MOL0     H32833   6.205   1.446   8.262  0.5444  2.2695 -0.0970
  249MOL0     H32834   6.160   1.289   8.397  0.2483  1.3604 -2.4506
  249MOL0     H32835   6.241   1.173   8.490 -1.0669  3.2607  1.3914
  249MOL0     H32836   6.067   1.040   8.385 -0.7821 -1.0661 -0.4393
  249MOL0     H32837   6.217   1.018   8.282 -0.2608 -0.4731  2.4735
  249MOL0     H32838   6.139   1.154   8.112 -0.7680  1.2594 -0.6660
  249MOL0     H32839   6.013   1.229   8.204 -0.7255 -1.1383 -1.4003
  249MOL0     H32840   6.004   0.929   8.131 -0.5232 -0.3908 -0.5477
  249MOL0     H32841   5.875   1.037   8.186 -0.6860 -1.9648  0.0966
  249MOL0     H32842   5.855   0.978   7.950 -0.4920  0.2446  0.8198
  249MOL0     H32843   6.004   1.054   7.910  1.1014 -1.8254  1.4731
  249MOL0     H32844   5.884   1.274   8.015 -1.4007 -0.2690  1.0097
  249MOL0     H32845   5.743   1.182   7.970  0.7396  0.4949  1.5147
  249MOL0     H32846   5.974   1.253   7.778 -1.5057  1.0772 -1.7461
  249MOL0     H32847   5.844   1.157   7.729  0.7080  2.6026 -3.6609
  249MOL0     H32848   5.689   1.355   7.818  0.2898 -0.4659  0.8670
  249MOL0     H32849   5.793   1.399   7.681  2.3480  0.4494  0.6350
  249MOL0     H32850   6.550   1.198   8.156  0.7713  2.8777  2.4714
  249MOL0     H32851   6.574   1.301   7.953 -0.6149 -0.6800 -1.0224
  249MOL0     H32852   6.575   1.543   7.697 -0.8311 -1.2392 -0.0420
  249MOL0     H32853   6.658   1.633   7.495 -0.1972 -0.1942 -2.1189
  249MOL0     H32854   6.752   1.003   7.178  1.1550 -0.1916 -0.3896
  249MOL0     H32855   6.768   0.954   7.417 -0.1867  0.0410  0.6352
  249MOL0     H32856   6.923   1.296   7.955 -2.8179  1.1333 -3.0612
  249MOL0     H32857   6.884   1.202   8.185  1.6108  0.0799 -0.6338
  249MOL0     H32858   6.817   0.810   8.241 -0.4645  0.3652 -0.4977
  249MOL0     H32859   6.782   0.847   8.407  1.6222 -2.9033 -0.7706
  249MOL0     H32860   7.014   0.830   8.400 -0.8064  0.1691  1.6548
  249MOL0     H32861   7.024   0.948   8.266 -1.1479  3.0387 -1.0716
  249MOL0     H32862   6.898   1.036   8.528 -1.8365 -1.1925 -3.2505
  249MOL0     H32863   6.995   1.129   8.419 -0.4209  0.7856  0.2017
  249MOL0     H32864   7.121   0.920   8.611  0.7193 -0.3276 -0.4050
  249MOL0     H32865   7.201   1.025   8.500 -1.0449  1.5404 -0.4715
  249MOL0     H32866   7.142   1.296   8.817  3.1480 -0.1253 -0.8401
  249MOL0     H32867   6.701   0.870   8.042 -0.1981  1.4467  2.6010
  249MOL0     H32868   6.721   0.945   7.800  2.6378  0.4356 -3.1331
  250MOL0     O32869   7.431  10.806   1.339 -0.7173  0.6195 -0.3371
  250MOL0     C32870   7.499  10.822   1.242  0.0794 -0.9021 -0.2706
  250MOL0     O32871   7.463  10.824   1.106  0.5145  0.8195  0.1831
  250MOL0     C32872   7.339  10.783   1.071 -0.0958 -0.3738  0.4190
  250MOL0     C32873   7.269  10.675   1.124 -0.0029  0.2669  0.1500
  250MOL0     C32874   7.137  10.641   1.080  0.0522  0.1888  0.3186
  250MOL0     C32875   7.087  10.715   0.968 -0.5912 -0.0765  0.5142
  250MOL0     O32876   6.961  10.679   0.916  0.3194 -0.2693  0.5940
  250MOL0     C32877   6.889  10.768   0.833  0.0111  0.0576  0.8761
  250MOL0     C32878   6.816  10.872   0.929  0.3862 -0.2383 -0.0161
  250MOL0     C32879   6.676  10.898   0.870 -0.6305 -0.1728  1.1160
  250MOL0     C32880   6.620  11.019   0.943 -0.4504  0.4827 -0.0536
  250MOL0     C32881   6.464  11.012   0.954  0.4396  0.3756 -0.2896
  250MOL0     C32882   6.391  11.133   1.002  0.3221 -0.2799 -0.4272
  250MOL0     C32883   6.465  11.225   1.106  0.0813 -0.2519 -0.0034
  250MOL0     C32884   6.358  11.273   1.214  1.0605 -0.2044  0.5878
  250MOL0     N32885   6.425  11.320   1.337 -0.0885  0.8592 -0.3849
  250MOL0     C32886   6.501  11.234   1.403  0.6261 -0.2493  0.0382
  250MOL0     C32887   6.550  11.310   1.506 -0.5177  0.1024  0.8126
  250MOL0     C32888   6.652  11.259   1.609 -0.5954  0.8569 -0.1594
  250MOL0     C32889   6.573  11.161   1.694  0.2125  0.7210 -0.2695
  250MOL0     C32890   6.659  11.081   1.793 -0.0427 -0.5301  1.0980
  250MOL0     C32891   6.589  10.943   1.839  0.4783  0.4354 -0.0707
  250MOL0     O32892   6.623  10.829   1.749  0.6188  0.1162  0.4813
  250MOL0     C32893   6.553  10.707   1.756 -0.6903  0.3559 -1.1076
  250MOL0     C32894   6.564  10.613   1.651  0.5199 -0.5316  0.4325
  250MOL0     C32895   6.498  10.487   1.655 -0.1745  0.7887 -0.8297
  250MOL0     C32896   6.444  10.442   1.775  0.9036  0.0730 -0.4145
  250MOL0     C32897   6.381  10.307   1.794  0.7465 -0.7857 -0.4046
  250MOL0     O32898   6.307  10.301   1.916  0.2325 -0.6281 -0.4253
  250MOL0     C32899   6.269  10.178   1.962  0.5332  0.2529 -1.0610
  250MOL0     C32900   6.360  10.081   1.983 -0.1514  0.0782 -0.9828
  250MOL0     C32901   6.329   9.973   2.054 -0.2793  0.7653  0.0013
  250MOL0     C32902   6.202   9.937   2.097 -1.0228 -0.0016  0.8512
  250MOL0     O32903   6.181   9.815   2.152  0.4908  1.2015  0.1215
  250MOL0     C32904   6.047   9.780   2.209 -1.1554  0.4119 -0.1860
  250MOL0     C32905   6.041   9.631   2.237  0.1883 -0.2959  0.1063
  250MOL0     C32906   5.905   9.603   2.308 -0.6058  1.2091 -0.3066
  250MOL0     C32907   5.928   9.611   2.460  0.7346 -0.4443  0.4455
  250MOL0     C32908   5.795   9.583   2.526  0.0332 -0.8318  0.8142
  250MOL0     C32909   5.816   9.587   2.680 -0.0158 -0.4663 -0.1859
  250MOL0     C32910   5.686   9.575   2.756 -0.9027 -0.2815 -0.6224
  250MOL0     C32911   5.719   9.553   2.902  0.0664  0.4450 -0.3328
  250MOL0    Cl32912   5.835   9.681   2.973 -0.3491  0.2021 -0.2815
  250MOL0     C32913   6.108  10.037   2.089  0.9688  0.8912  0.6268
  250MOL0     C32914   6.137  10.154   2.015  0.3490 -0.0783  0.3994
  250MOL0     O32915   6.401  10.214   1.724  0.4193 -0.1986  0.1937
  250MOL0     C32916   6.425  10.536   1.877  0.3743  0.1345 -0.1029
  250MOL0     C32917   6.480  10.664   1.874  0.0574  0.4496 -0.1589
  250MOL0     N32918   6.509  11.436   1.492  0.0305  0.1593  0.5347
  250MOL0     N32919   6.426  11.444   1.389 -0.4634 -0.7345  0.2256
  250MOL0     C32920   7.160  10.816   0.909 -0.5483 -0.7687 -1.2204
  250MOL0     C32921   7.285  10.850   0.957 -0.4156  0.8460  0.9236
  250MOL0     C32922   7.645  10.839   1.268  0.0431 -0.1278 -0.3909
  250MOL0     C32923   7.738  10.866   1.166 -0.3724 -0.2923  0.3543
  250MOL0     C32924   7.871  10.890   1.188  0.2050  0.6539 -0.7173
  250MOL0     C32925   7.914  10.886   1.327 -0.9442 -0.3715 -0.6847
  250MOL0     O32926   8.049  10.895   1.355 -0.0302  0.7801 -0.3692
  250MOL0     C32927   8.091  11.017   1.409 -0.0610  0.0916 -0.9308
  250MOL0     C32928   8.043  11.145   1.331 -1.0267  0.1821  0.6332
  250MOL0     C32929   8.114  11.184   1.196 -0.3546  0.1070  0.2720
  250MOL0     C32930   8.220  11.293   1.202  0.0628 -0.8643  0.5857
  250MOL0     C32931   8.265  11.331   1.065  0.9507  0.6034  0.1273
  250MOL0     C32932   8.313  11.378   0.964  0.0023 -0.0800  0.2612
  250MOL0     C32933   7.830  10.855   1.434 -0.6794 -0.8104  0.7923
  250MOL0     C32934   7.699  10.828   1.402 -0.3657 -0.5294  0.7727
  250MOL0     H32935   7.308  10.609   1.201  2.4794 -2.0237 -2.8027
  250MOL0     H32936   7.070  10.570   1.127 -0.5946  1.0861  0.7929
  250MOL0     H32937   6.809  10.715   0.780 -0.0052 -0.3407  1.2923
  250MOL0     H32938   6.956  10.801   0.753  0.8929  3.3108  2.7465
  250MOL0     H32939   6.877  10.963   0.937  3.4209 -2.1033 -0.3221
  250MOL0     H32940   6.802  10.824   1.026 -2.6546 -2.6167 -1.4646
  250MOL0     H32941   6.614  10.808   0.879 -0.9116  0.1305  2.2649
  250MOL0     H32942   6.692  10.923   0.764  0.4982  2.2209  1.7883
  250MOL0     H32943   6.663  11.022   1.044  3.1719  0.7981 -1.4679
  250MOL0     H32944   6.659  11.108   0.893  0.9350  0.9501  1.7344
  250MOL0     H32945   6.426  10.927   1.013 -4.0791  0.0144 -3.2178
  250MOL0     H32946   6.430  10.986   0.853  2.3295 -0.8074 -0.6974
  250MOL0     H32947   6.304  11.091   1.054 -0.5409 -1.0327 -2.3909
  250MOL0     H32948   6.345  11.187   0.918  0.4577  1.2151  0.4275
  250MOL0     H32949   6.536  11.160   1.158 -1.2133 -3.0071 -1.4552
  250MOL0     H32950   6.512  11.311   1.056  1.2280 -0.4623  0.6685
  250MOL0     H32951   6.299  11.185   1.242 -0.1577  0.6599  0.8069
  250MOL0     H32952   6.298  11.352   1.169  2.0249  0.5593  0.6056
  250MOL0     H32953   6.513  11.127   1.390  0.3008 -0.1976 -0.6984
  250MOL0     H32954   6.694  11.342   1.667 -2.0375 -0.0961  2.4055
  250MOL0     H32955   6.728  11.197   1.561 -1.9429  0.3108 -1.7005
  250MOL0     H32956   6.526  11.078   1.639 -2.4072 -0.4356  3.4002
  250MOL0     H32957   6.487  11.201   1.747 -0.4874 -0.3829 -0.5221
  250MOL0     H32958   6.752  11.065   1.737 -0.5775 -1.1354  0.3654
  250MOL0     H32959   6.687  11.143   1.878  1.0303  3.9561 -2.1607
  250MOL0     H32960   6.481  10.961   1.837  0.4704  0.3925 -0.0232
  250MOL0     H32961   6.618  10.931   1.944 -4.5167 -0.8771  1.4542
  250MOL0     H32962   6.621  10.644   1.564  2.8872  1.5610  2.5689
  250MOL0     H32963   6.515  10.430   1.564  0.0618  3.0111 -2.2631
  250MOL0     H32964   6.461  10.108   1.954 -0.7705  1.0205 -2.3456
  250MOL0     H32965   6.410   9.901   2.069 -1.3797 -1.0134 -2.0505
  250MOL0     H32966   5.970   9.812   2.138  0.0338  2.2827 -0.7208
  250MOL0     H32967   6.032   9.833   2.304 -0.3328 -0.5773  0.5150
  250MOL0     H32968   6.127   9.605   2.299  0.4902  1.1425  0.3316
  250MOL0     H32969   6.040   9.574   2.143 -1.1987 -2.5230  1.3793
  250MOL0     H32970   5.876   9.502   2.280  1.9535  1.4446 -4.7666
  250MOL0     H32971   5.820   9.671   2.295 -1.8640 -0.2896 -0.1084
  250MOL0     H32972   6.000   9.532   2.485 -0.6126 -2.2987 -1.2600
  250MOL0     H32973   5.971   9.710   2.478  1.0498 -0.5712  0.4086
  250MOL0     H32974   5.768   9.480   2.503  0.2327 -1.1310  1.8339
  250MOL0     H32975   5.716   9.655   2.504  0.8888  0.5329  2.0365
  250MOL0     H32976   5.861   9.684   2.703  3.7335 -2.2282  0.6744
  250MOL0     H32977   5.893   9.520   2.720  1.5349  1.8720  0.9914
  250MOL0     H32978   5.634   9.671   2.745 -2.2158 -0.6745  1.5919
  250MOL0     H32979   5.643   9.483   2.716  2.4500 -2.1377 -0.3482
  250MOL0     H32980   5.751   9.450   2.921 -0.0544  0.6344  0.9583
  250MOL0     H32981   5.625   9.552   2.958  0.3096 -0.4894  0.0710
  250MOL0     H32982   6.010  10.021   2.133  1.1451 -2.7610  0.0414
  250MOL0     H32983   6.069  10.239   2.018  0.9014  0.3441  1.2046
  250MOL0     H32984   6.368  10.511   1.966  0.1407 -0.7053 -0.4716
  250MOL0     H32985   6.470  10.742   1.949  3.0853 -0.2033  1.0778
  250MOL0     H32986   7.118  10.888   0.839 -2.1269  0.0323  0.4769
  250MOL0     H32987   7.329  10.938   0.910  0.2593 -1.0668 -2.3270
  250MOL0     H32988   7.708  10.885   1.063  3.4156  3.3483 -0.3563
  250MOL0     H32989   7.940  10.902   1.105  1.1898  0.5380  0.0636
  250MOL0     H32990   8.199  11.004   1.402  0.0779 -0.4612  1.2747
  250MOL0     H32991   8.063  11.022   1.515  2.2285 -3.3869  0.0210
  250MOL0     H32992   7.936  11.136   1.310 -0.9679 -0.5727  0.6519
  250MOL0     H32993   8.035  11.228   1.402 -0.8078 -1.3749  2.5693
  250MOL0     H32994   8.034  11.217   1.130 -2.1604 -1.6374  1.4880
  250MOL0     H32995   8.153  11.091   1.154  0.8182  1.2756 -1.3596
  250MOL0     H32996   8.180  11.377   1.259 -1.9258 -1.7118  0.5072
  250MOL0     H32997   8.305  11.254   1.259 -1.5595 -1.7213  2.5790
  250MOL0     H32998   8.363  11.407   0.874 -0.9820  1.1244  0.0798
  250MOL0     H32999   7.873  10.844   1.533 -1.3833  0.0449  1.2103
  250MOL0     H33000   7.625  10.812   1.480  0.2586 -0.9473  1.2904
  251MOL0     O33001  11.219   6.834  11.321  0.0997  0.2065  0.0423
  251MOL0     C33002  11.197   6.929  11.388  0.3949  0.4328 -0.2639
  251MOL0     O33003  11.193   6.926  11.529 -0.9268 -0.7895 -0.6615
  251MOL0     C33004  11.226   6.798  11.581 -0.5266  0.5716  0.9637
  251MOL0     C33005  11.351   6.765  11.625 -0.9236  0.5463 -0.0576
  251MOL0     C33006  11.389   6.630  11.648 -1.0912 -0.6601 -0.1853
  251MOL0     C33007  11.292   6.527  11.644  0.4469 -0.6862 -2.0297
  251MOL0     O33008  11.341   6.399  11.667  0.2974  0.1050  0.4208
  251MOL0     C33009  11.249   6.291  11.663  0.1627 -0.1657  0.7459
  251MOL0     C33010  11.342   6.162  11.686  0.3922  0.2846 -0.4865
  251MOL0     C33011  11.279   6.067  11.778  0.7983  1.7759  0.2001
  251MOL0     C33012  11.358   5.932  11.798 -0.0913 -0.6179 -1.0863
  251MOL0     C33013  11.279   5.815  11.856  1.0230  1.4300  0.3367
  251MOL0     C33014  11.188   5.843  11.973  0.2815 -0.1579 -0.5194
  251MOL0     C33015  11.091   5.728  12.020  1.1779  0.4859 -0.0790
  251MOL0     C33016  10.986   5.698  11.915  0.7750 -0.1994  0.1254
  251MOL0     N33017  10.907   5.825  11.882  0.2376 -0.0618  0.1654
  251MOL0     C33018  10.938   5.907  11.781  0.7910 -0.1690 -0.0930
  251MOL0     C33019  10.865   6.018  11.792 -0.0104 -0.8676 -1.0775
  251MOL0     C33020  10.897   6.141  11.716  0.0715 -0.1780  0.9893
  251MOL0     C33021  10.779   6.234  11.725 -0.2988  0.4013  1.0166
  251MOL0     C33022  10.790   6.354  11.632  0.5998  0.4057 -0.5678
  251MOL0     C33023  10.684   6.470  11.662 -0.1241 -0.0333  0.0412
  251MOL0     O33024  10.571   6.480  11.577 -0.1479 -0.0051  0.8358
  251MOL0     C33025  10.467   6.397  11.588 -0.6498  0.4991 -0.2643
  251MOL0     C33026  10.375   6.390  11.479 -0.0822 -0.0076 -0.5259
  251MOL0     C33027  10.268   6.300  11.477 -1.0279  0.0206  0.0687
  251MOL0     C33028  10.242   6.219  11.588  0.2668  0.8049 -0.4459
  251MOL0     C33029  10.127   6.126  11.567 -0.7518  0.7230 -0.0601
  251MOL0     O33030  10.054   6.122  11.446 -1.2362  0.2186  0.1616
  251MOL0     C33031   9.960   6.029  11.424  0.2017 -0.4585  0.7902
  251MOL0     C33032   9.848   6.030  11.508  0.2159  0.4015  0.8428
  251MOL0     C33033   9.743   5.937  11.485 -0.0821  0.8801 -0.2091
  251MOL0     C33034   9.760   5.833  11.394  0.1809  0.0124 -0.5707
  251MOL0     O33035   9.670   5.735  11.365 -0.1729 -0.2118  0.3134
  251MOL0     C33036   9.557   5.713  11.444 -0.4944  0.8008  0.6008
  251MOL0     C33037   9.595   5.628  11.566  0.0385 -0.3207 -0.5548
  251MOL0     C33038   9.474   5.623  11.653  0.4841  0.6705 -0.0996
  251MOL0     C33039   9.480   5.541  11.782  0.0003 -0.0689 -0.6469
  251MOL0     C33040   9.499   5.390  11.762  0.0848 -0.1391 -0.1571
  251MOL0     C33041   9.544   5.313  11.889  0.7175  0.2991 -0.7363
  251MOL0     C33042   9.439   5.311  11.996  0.1457  0.1762 -0.7259
  251MOL0     C33043   9.450   5.420  12.113 -0.2727  0.3798  0.9594
  251MOL0    Cl33044   9.600   5.404  12.225  0.0189 -0.2727  0.2665
  251MOL0     C33045   9.876   5.823  11.324 -0.2179 -0.3940  0.2144
  251MOL0     C33046   9.982   5.919  11.336  0.2759  0.0717  0.9459
  251MOL0     O33047  10.096   6.057  11.660  0.4648 -0.2037  0.3225
  251MOL0     C33048  10.328   6.229  11.705  0.1445 -0.6509 -0.4943
  251MOL0     C33049  10.431   6.321  11.703 -0.3656 -0.2176 -0.1244
  251MOL0     N33050  10.778   6.002  11.898 -0.0404  0.3692 -0.1197
  251MOL0     N33051  10.807   5.884  11.960 -0.0260 -0.5409  0.0829
  251MOL0     C33052  11.160   6.562  11.617  0.6308 -0.6012  0.5469
  251MOL0     C33053  11.125   6.696  11.584 -0.2573 -0.2592  0.0911
  251MOL0     C33054  11.143   7.043  11.319  1.1817  0.0592  1.0769
  251MOL0     C33055  11.154   7.060  11.178  0.3249  0.4788 -0.2937
  251MOL0     C33056  11.108   7.173  11.116 -0.2711  0.3454  0.0379
  251MOL0     C33057  11.068   7.286  11.187  0.4605 -0.8856  0.1517
  251MOL0     O33058  11.027   7.401  11.127  0.1274 -0.1195  1.4377
  251MOL0     C33059  10.887   7.411  11.099 -0.1992 -0.7391  0.8562
  251MOL0     C33060  10.860   7.528  11.005  0.2595 -0.8532  1.0164
  251MOL0     C33061  10.891   7.663  11.059  0.1457  0.5256 -0.2643
  251MOL0     C33062  10.873   7.771  10.942  0.1724 -0.3550  0.1165
  251MOL0     C33063  10.889   7.903  10.987  0.7143 -0.3344 -0.0595
  251MOL0     C33064  10.917   8.027  11.014 -0.6660 -0.1501  0.4106
  251MOL0     C33065  11.051   7.264  11.321 -0.2108  0.1653 -0.4980
  251MOL0     C33066  11.077   7.142  11.386  0.6667 -0.1313  0.0805
  251MOL0     H33067  11.427   6.844  11.629  0.2119 -0.4697 -0.8114
  251MOL0     H33068  11.493   6.609  11.669 -1.6144 -3.2458  0.1124
  251MOL0     H33069  11.197   6.270  11.569  2.8362 -0.1599 -0.8243
  251MOL0     H33070  11.186   6.298  11.752  2.6767 -0.9427  2.7224
  251MOL0     H33071  11.437   6.179  11.737  0.0073 -2.9114  1.5812
  251MOL0     H33072  11.351   6.120  11.585  1.5568 -1.1917  0.2071
  251MOL0     H33073  11.177   6.044  11.745  0.5939  1.0869  1.2754
  251MOL0     H33074  11.272   6.123  11.872 -0.7182 -0.4432  1.4979
  251MOL0     H33075  11.376   5.900  11.695 -1.1231  0.3498 -1.5789
  251MOL0     H33076  11.454   5.955  11.846 -0.8045 -0.1666  0.1762
  251MOL0     H33077  11.356   5.743  11.886  2.4441  2.0172 -1.6776
  251MOL0     H33078  11.221   5.776  11.772  1.6161  0.6642  0.2736
  251MOL0     H33079  11.139   5.940  11.957  1.7499  1.5729  3.8721
  251MOL0     H33080  11.249   5.859  12.062  0.4959 -1.2814 -0.4488
  251MOL0     H33081  11.163   5.647  12.038 -0.1522 -1.2145 -1.9697
  251MOL0     H33082  11.040   5.743  12.116  0.6493  1.9395 -0.5740
  251MOL0     H33083  10.915   5.627  11.959  0.9543 -1.6722 -1.8259
  251MOL0     H33084  11.030   5.653  11.825  0.0006  0.8760 -0.8289
  251MOL0     H33085  11.016   5.888  11.708  0.9273 -0.4545  0.1263
  251MOL0     H33086  10.908   6.106  11.613 -2.8541  3.2600 -0.7229
  251MOL0     H33087  10.994   6.185  11.742 -0.9687  3.1987 -0.2151
  251MOL0     H33088  10.762   6.265  11.829 -1.3492  2.3145  0.3337
  251MOL0     H33089  10.688   6.187  11.686  1.1792 -1.0748 -0.8033
  251MOL0     H33090  10.893   6.388  11.642  0.3258  1.4187 -1.1041
  251MOL0     H33091  10.784   6.312  11.531  1.6985  0.7451 -0.7817
  251MOL0     H33092  10.749   6.558  11.665 -3.3022  2.5209  2.0398
  251MOL0     H33093  10.640   6.471  11.763 -1.7134  2.9521 -0.5632
  251MOL0     H33094  10.392   6.453  11.392  0.4231  0.4245 -0.1217
  251MOL0     H33095  10.213   6.284  11.385 -4.2181  3.0472  1.1909
  251MOL0     H33096   9.836   6.107  11.583  0.4708  2.5084 -1.1599
  251MOL0     H33097   9.670   5.942  11.565 -0.4397  5.9424 -0.5281
  251MOL0     H33098   9.484   5.662  11.382 -1.3840 -2.7091  4.1700
  251MOL0     H33099   9.511   5.808  11.475 -0.8508  1.0440 -0.6519
  251MOL0     H33100   9.680   5.666  11.624 -1.6286  2.7190  0.1189
  251MOL0     H33101   9.620   5.525  11.539  2.6969 -0.4714  1.9310
  251MOL0     H33102   9.385   5.598  11.595  0.5211 -1.1677  0.5579
  251MOL0     H33103   9.458   5.726  11.685  1.8604 -0.3521  4.8266
  251MOL0     H33104   9.566   5.582  11.836 -0.3322 -0.9107  0.5725
  251MOL0     H33105   9.392   5.565  11.843 -1.1990 -0.7498 -2.0470
  251MOL0     H33106   9.577   5.375  11.687 -0.3124 -1.3086 -0.3534
  251MOL0     H33107   9.408   5.352  11.716  1.2002  0.4106 -3.0316
  251MOL0     H33108   9.641   5.351  11.921  0.2884  0.7701  0.0570
  251MOL0     H33109   9.548   5.211  11.852 -2.1136 -0.1575 -0.0389
  251MOL0     H33110   9.337   5.321  11.957  0.4489  4.0251 -0.8723
  251MOL0     H33111   9.445   5.220  12.058  1.2200  2.2709  2.5159
  251MOL0     H33112   9.358   5.432  12.171 -1.7436  0.4106 -1.2764
  251MOL0     H33113   9.444   5.518  12.065  3.2957  1.7244  2.9281
  251MOL0     H33114   9.891   5.738  11.258  0.1220  0.4365 -0.8079
  251MOL0     H33115  10.067   5.914  11.269  2.1577 -1.6913  3.2427
  251MOL0     H33116  10.299   6.175  11.795  1.8789  0.7513  0.9777
  251MOL0     H33117  10.484   6.323  11.797  1.0060 -1.9759 -0.7864
  251MOL0     H33118  11.078   6.492  11.598 -1.1562  1.6001 -0.2789
  251MOL0     H33119  11.029   6.723  11.542 -0.8052 -1.6612  0.3816
  251MOL0     H33120  11.205   6.985  11.118  0.4355 -0.6317  1.1288
  251MOL0     H33121  11.116   7.178  11.007 -0.7390 -0.5464 -0.0549
  251MOL0     H33122  10.835   7.430  11.194  0.9405 -2.7282  1.9591
  251MOL0     H33123  10.851   7.318  11.053 -1.4472  0.3856 -0.5329
  251MOL0     H33124  10.920   7.516  10.915 -0.2592  0.5287  0.4520
  251MOL0     H33125  10.753   7.529  10.982 -0.3720  3.5649  2.9950
  251MOL0     H33126  10.989   7.672  11.108 -0.7012  4.7709  1.0760
  251MOL0     H33127  10.816   7.669  11.139  0.3453  0.7139 -0.0895
  251MOL0     H33128  10.951   7.742  10.870 -0.4328 -4.5151  0.8401
  251MOL0     H33129  10.775   7.765  10.895  1.2574 -0.0858 -2.2867
  251MOL0     H33130  10.917   8.133  11.025 -2.6175 -0.3140  2.7549
  251MOL0     H33131  11.012   7.339  11.390  2.4079  1.3112 -0.1257
  251MOL0     H33132  11.053   7.133  11.491  0.2116  0.0145 -0.0061
  252MOL0     O33133  11.355   5.624  10.212  0.1984 -0.4238 -0.1265
  252MOL0     C33134  11.466   5.667  10.172 -0.3275  1.0259  0.0390
  252MOL0     O33135  11.536   5.780  10.206  0.6541  0.4607  0.8351
  252MOL0     C33136  11.482   5.837  10.315 -0.3368  1.2629  0.4287
  252MOL0     C33137  11.362   5.905  10.320  1.2532  0.0451  0.1649
  252MOL0     C33138  11.333   5.975  10.446 -0.2090  0.2016 -0.1034
  252MOL0     C33139  11.424   5.962  10.556  0.6271  0.3818 -0.1492
  252MOL0     O33140  11.381   6.041  10.654 -0.2426  0.1550 -0.2981
  252MOL0     C33141  11.470   6.053  10.778 -0.4260  0.2752 -0.3726
  252MOL0     C33142  11.429   6.159  10.878  0.3573 -0.5420  0.4782
  252MOL0     C33143  11.399   6.286  10.806  0.5161  0.1485  0.5218
  252MOL0     C33144  11.373   6.383  10.919 -0.1117  0.0642 -1.0012
  252MOL0     C33145  11.290   6.504  10.883 -0.0036  0.5473  0.4956
  252MOL0     C33146  11.356   6.602  10.795 -0.2528 -0.2341 -0.0582
  252MOL0     C33147  11.278   6.735  10.774  0.2023  0.5216 -0.3088
  252MOL0     C33148  11.261   6.818  10.903  0.3679  0.1370 -0.0733
  252MOL0     N33149  11.390   6.853  10.968  0.0541 -0.0481  0.5680
  252MOL0     C33150  11.449   6.800  11.081 -0.4103 -0.0893 -0.4947
  252MOL0     C33151  11.577   6.844  11.079  0.1573 -0.6249  0.0958
  252MOL0     C33152  11.687   6.824  11.182  1.2620  0.1180  0.3666
  252MOL0     C33153  11.686   6.669  11.233 -0.0322 -1.1531  0.5512
  252MOL0     C33154  11.605   6.641  11.352  0.2070 -1.0872 -0.1379
  252MOL0     C33155  11.506   6.530  11.331 -0.5951  0.1006 -0.4993
  252MOL0     O33156  11.568   6.408  11.312  0.0581  0.2588 -0.6906
  252MOL0     C33157  11.486   6.299  11.286  0.4469  0.1708  0.8349
  252MOL0     C33158  11.346   6.295  11.282 -0.0192 -0.5667  0.4716
  252MOL0     C33159  11.271   6.178  11.251  0.5441  0.6143  0.3428
  252MOL0     C33160  11.334   6.056  11.219  0.2362  0.6502 -0.8364
  252MOL0     C33161  11.267   5.926  11.196  0.0240 -0.2229  1.2061
  252MOL0     O33162  11.341   5.840  11.124 -0.5002 -0.4570 -0.2174
  252MOL0     C33163  11.277   5.727  11.070 -0.3487  0.0895  0.9393
  252MOL0     C33164  11.240   5.727  10.932 -1.0444 -0.0621  0.4952
  252MOL0     C33165  11.158   5.632  10.883 -1.0353  1.0692  0.9903
  252MOL0     C33166  11.119   5.526  10.966 -0.7371  0.8851 -0.3759
  252MOL0     O33167  11.052   5.419  10.918  0.3852 -1.1004  0.1263
  252MOL0     C33168  10.948   5.450  10.818 -0.9330 -0.8385  0.5973
  252MOL0     C33169  10.982   5.396  10.680  0.0472 -0.6476 -0.5487
  252MOL0     C33170  10.955   5.248  10.673 -0.5910 -0.1576  0.4916
  252MOL0     C33171  10.983   5.189  10.531 -0.5964 -0.6885  0.9166
  252MOL0     C33172  10.942   5.040  10.533  0.5044 -0.5962 -0.4429
  252MOL0     C33173  10.970   4.982  10.390  0.1721  0.7326  0.1322
  252MOL0     C33174  10.953   4.828  10.386  0.1211  0.0951  0.4074
  252MOL0     C33175  10.809   4.800  10.329 -0.0974 -0.6744  0.3311
  252MOL0    Cl33176  10.779   4.644  10.259  0.1619 -0.2758 -0.1325
  252MOL0     C33177  11.175   5.515  11.097  0.9907 -0.5700 -0.6819
  252MOL0     C33178  11.248   5.621  11.152 -0.3813  0.5345 -0.4722
  252MOL0     O33179  11.154   5.907  11.239  0.5786  0.6180  0.0992
  252MOL0     C33180  11.477   6.058  11.219  0.1749  0.1159  0.6101
  252MOL0     C33181  11.547   6.176  11.248  0.1324 -0.5357 -0.7748
  252MOL0     N33182  11.603   6.903  10.957  0.4288 -0.3990  0.3172
  252MOL0     N33183  11.487   6.914  10.896 -0.3194 -0.2561  0.5899
  252MOL0     C33184  11.535   5.877  10.550 -0.1361  0.3230  0.8011
  252MOL0     C33185  11.564   5.812  10.426  0.0403  0.2270 -0.5602
  252MOL0     C33186  11.532   5.575  10.081  0.4358 -0.2755 -0.2447
  252MOL0     C33187  11.659   5.607  10.022  1.1067  0.4567  0.2690
  252MOL0     C33188  11.720   5.523   9.925  1.1368  0.8088  0.4741
  252MOL0     C33189  11.646   5.413   9.874  0.7084 -0.7371 -1.0317
  252MOL0     O33190  11.683   5.339   9.766 -0.9528 -0.1682  0.2952
  252MOL0     C33191  11.612   5.345   9.643  0.2164 -0.9267 -0.3354
  252MOL0     C33192  11.559   5.208   9.613  0.3248 -0.6376  0.0014
  252MOL0     C33193  11.505   5.213   9.471  0.6629 -0.7419  0.3584
  252MOL0     C33194  11.438   5.080   9.413  0.5967  0.0714 -0.3786
  252MOL0     C33195  11.348   5.124   9.311  0.8727  0.7018 -0.9681
  252MOL0     C33196  11.289   5.170   9.220  0.6430 -0.1832 -0.4683
  252MOL0     C33197  11.531   5.377   9.926  1.2795  0.1008  0.0184
  252MOL0     C33198  11.474   5.458  10.027 -0.1890 -0.0703 -0.4025
  252MOL0     H33199  11.289   5.910  10.241  1.0030  0.6013  0.4235
  252MOL0     H33200  11.246   6.040  10.448 -1.6593 -1.6252 -0.2877
  252MOL0     H33201  11.574   6.062  10.747 -0.7370  1.2276 -1.1782
  252MOL0     H33202  11.460   5.949  10.812 -3.9939  0.4177 -0.5769
  252MOL0     H33203  11.525   6.175  10.929  2.0576  3.1175 -3.2411
  252MOL0     H33204  11.356   6.113  10.945 -3.0149 -3.0231 -4.3226
  252MOL0     H33205  11.315   6.268  10.738 -1.4662  1.0299  2.5966
  252MOL0     H33206  11.485   6.322  10.748  2.7657 -1.0600  2.9466
  252MOL0     H33207  11.323   6.334  11.003  3.9690 -1.6566  0.7245
  252MOL0     H33208  11.472   6.417  10.954 -0.1825  0.2860 -1.0172
  252MOL0     H33209  11.257   6.549  10.977 -3.4666  2.0924 -1.2921
  252MOL0     H33210  11.208   6.457  10.828  1.0835 -0.1671 -0.5649
  252MOL0     H33211  11.388   6.580  10.692  1.9298  3.9187 -0.4822
  252MOL0     H33212  11.444   6.631  10.854 -0.6006  1.3973 -0.3037
  252MOL0     H33213  11.321   6.797  10.695  0.6801  0.7620  0.1370
  252MOL0     H33214  11.177   6.710  10.739  1.2716  1.6417 -4.7681
  252MOL0     H33215  11.198   6.756  10.967 -3.6114  0.9324 -2.8616
  252MOL0     H33216  11.195   6.903  10.885  1.5312  0.9881 -0.3979
  252MOL0     H33217  11.397   6.734  11.149 -1.0475 -1.1876 -1.9995
  252MOL0     H33218  11.678   6.892  11.268  0.5421 -0.3287  0.6540
  252MOL0     H33219  11.785   6.852  11.144  2.5698  0.7284  3.8405
  252MOL0     H33220  11.790   6.643  11.252 -0.2604 -1.6965  1.0596
  252MOL0     H33221  11.647   6.615  11.146 -1.0949  2.5801 -1.5433
  252MOL0     H33222  11.664   6.609  11.439  0.8056 -0.5773 -0.3478
  252MOL0     H33223  11.553   6.734  11.377 -4.6115 -2.9520 -1.8934
  252MOL0     H33224  11.442   6.546  11.243  1.7286 -0.3704 -2.3758
  252MOL0     H33225  11.441   6.528  11.419 -3.5106  3.5059 -2.3077
  252MOL0     H33226  11.277   6.376  11.301 -0.0464 -0.1434 -1.2709
  252MOL0     H33227  11.163   6.169  11.255  0.6529 -1.4308 -0.1219
  252MOL0     H33228  11.276   5.805  10.866 -4.0914 -0.3648 -1.7650
  252MOL0     H33229  11.136   5.641  10.777  1.6884 -0.1009  0.2326
  252MOL0     H33230  10.930   5.557  10.812  0.1048 -0.5714  1.7877
  252MOL0     H33231  10.855   5.407  10.856 -1.0581  0.8000  2.2642
  252MOL0     H33232  11.085   5.423  10.656 -0.2281  0.8964 -0.1137
  252MOL0     H33233  10.911   5.430  10.603 -4.0226 -1.3879  2.5214
  252MOL0     H33234  10.848   5.231  10.686 -0.4412 -3.2666 -1.5255
  252MOL0     H33235  11.023   5.197  10.742 -0.6647 -0.9925 -0.0397
  252MOL0     H33236  10.931   5.258  10.464  0.9726  1.2082  1.5557
  252MOL0     H33237  11.087   5.195  10.499 -1.1340 -0.2942 -0.8977
  252MOL0     H33238  10.834   5.020  10.535  0.1304  0.7092 -3.2816
  252MOL0     H33239  10.995   4.983  10.610  3.7693  0.8732 -1.4759
  252MOL0     H33240  11.074   5.007  10.367 -0.1843  1.6759 -0.4960
  252MOL0     H33241  10.908   5.028  10.312 -1.8678  2.2761  2.5106
  252MOL0     H33242  11.034   4.797  10.320  2.0717  2.2809  1.6135
  252MOL0     H33243  10.984   4.788  10.483  1.8287  0.7304  0.1484
  252MOL0     H33244  10.785   4.851  10.235  1.4107 -0.1981  0.1697
  252MOL0     H33245  10.733   4.825  10.404 -0.9241 -0.1393 -0.6466
  252MOL0     H33246  11.146   5.430  11.157 -0.2406 -0.3849 -0.9885
  252MOL0     H33247  11.275   5.634  11.257 -2.6052  0.9807  0.0823
  252MOL0     H33248  11.540   5.974  11.193  1.1363  0.8452  0.4914
  252MOL0     H33249  11.655   6.181  11.246  0.1310 -0.5902 -1.0063
  252MOL0     H33250  11.604   5.868  10.633  0.0614 -0.7151  0.5408
  252MOL0     H33251  11.646   5.742  10.408  0.2452  0.1746  0.5256
  252MOL0     H33252  11.721   5.696  10.027 -0.5475  1.9487 -2.8140
  252MOL0     H33253  11.806   5.544   9.863  0.5389 -0.7508 -0.9453
  252MOL0     H33254  11.673   5.379   9.559  0.1384  0.3062  0.0894
  252MOL0     H33255  11.529   5.417   9.646  0.5904 -0.3623 -2.2080
  252MOL0     H33256  11.635   5.129   9.620  0.9107  0.0581  2.2482
  252MOL0     H33257  11.484   5.185   9.689  0.4213 -1.0398 -0.0185
  252MOL0     H33258  11.587   5.233   9.401 -0.8990 -0.3901 -1.4744
  252MOL0     H33259  11.440   5.297   9.444  0.3492 -1.5368 -1.5549
  252MOL0     H33260  11.500   5.002   9.369 -0.5650 -2.0576  1.5154
  252MOL0     H33261  11.379   5.033   9.493 -2.1351  2.6727 -0.6910
  252MOL0     H33262  11.233   5.235   9.156 -0.9012 -1.0481 -0.0484
  252MOL0     H33263  11.476   5.294   9.882  1.6150 -1.1142  1.7747
  252MOL0     H33264  11.373   5.429  10.057  0.8075 -3.1034  0.3769
  253MOL0     O33265   0.631  10.611   4.600  0.0998 -0.2824  0.2074
  253MOL0     C33266   0.670  10.571   4.705  0.5240  0.7209  0.0377
  253MOL0     O33267   0.793  10.593   4.778 -0.1516 -0.0111 -0.3108
  253MOL0     C33268   0.844  10.718   4.755  0.1213  0.2356  0.1137
  253MOL0     C33269   0.804  10.812   4.853  0.0787 -1.0745  0.5233
  253MOL0     C33270   0.834  10.948   4.839 -0.3347  0.2940  0.3345
  253MOL0     C33271   0.925  10.987   4.740 -0.3797  0.7465 -0.1855
  253MOL0     O33272   0.976  11.111   4.716  0.2107 -0.6679 -0.5360
  253MOL0     C33273   0.928  11.229   4.786 -0.8289  0.7160  0.0896
  253MOL0     C33274   0.997  11.237   4.919  0.2489  1.0248  0.4448
  253MOL0     C33275   0.998  11.379   4.965  0.6518 -0.6482 -0.9174
  253MOL0     C33276   0.863  11.453   4.988  0.8498 -2.0154 -0.1699
  253MOL0     C33277   0.765  11.371   5.074 -0.2878  0.2355  0.2701
  253MOL0     C33278   0.653  11.469   5.112 -0.4785  0.6915 -0.2757
  253MOL0     C33279   0.563  11.424   5.234 -0.5506  0.7908 -0.4437
  253MOL0     C33280   0.455  11.322   5.195 -0.9385  0.1213 -0.0501
  253MOL0     N33281   0.504  11.185   5.162  0.3097  0.8270 -0.0053
  253MOL0     C33282   0.518  11.086   5.263 -0.3982  0.3563  0.4156
  253MOL0     C33283   0.567  10.974   5.206  0.5854 -0.3052 -0.0748
  253MOL0     C33284   0.606  10.846   5.275  0.0375  0.1138  0.6739
  253MOL0     C33285   0.687  10.861   5.401 -0.0259  0.5363  0.0767
  253MOL0     C33286   0.839  10.882   5.381  0.4391  0.0395  0.4924
  253MOL0     C33287   0.879  10.992   5.283  0.6898 -0.9235  0.7894
  253MOL0     O33288   1.020  11.026   5.294 -0.4325 -0.1250 -0.6424
  253MOL0     C33289   1.109  10.997   5.188  0.5272 -0.6323 -0.2042
  253MOL0     C33290   1.187  11.099   5.141  0.0287 -0.0261 -0.1137
  253MOL0     C33291   1.282  11.081   5.036 -0.3533  0.1329  0.3858
  253MOL0     C33292   1.306  10.952   4.984  0.4577  0.3864  0.6005
  253MOL0     C33293   1.384  10.935   4.863  0.4404  1.1088  0.3681
  253MOL0     O33294   1.375  10.807   4.799 -0.7436  0.0458 -0.3904
  253MOL0     C33295   1.423  10.787   4.672 -0.3179  0.5491  0.0423
  253MOL0     C33296   1.508  10.685   4.647  0.3231  0.0503 -0.3989
  253MOL0     C33297   1.541  10.650   4.514 -0.2225 -0.4613  0.4060
  253MOL0     C33298   1.488  10.727   4.410  0.1710 -1.0468 -0.7535
  253MOL0     O33299   1.519  10.695   4.282  0.5154 -0.3025 -0.0536
  253MOL0     C33300   1.451  10.764   4.169 -0.0744  0.5412 -0.2871
  253MOL0     C33301   1.517  10.733   4.038 -0.5345  0.3605  0.3138
  253MOL0     C33302   1.452  10.808   3.926  0.0812 -0.2791  0.2349
  253MOL0     C33303   1.313  10.753   3.879 -0.4711  1.0201  0.2022
  253MOL0     C33304   1.299  10.754   3.728  0.6178  0.2151 -0.1302
  253MOL0     C33305   1.280  10.888   3.649  0.0440  0.1613 -0.0019
  253MOL0     C33306   1.136  10.939   3.667  0.0789  1.0310 -0.3156
  253MOL0     C33307   1.118  11.074   3.601 -0.4036  0.7523 -0.0045
  253MOL0    Cl33308   1.260  11.189   3.613  0.0337 -0.0540  0.4172
  253MOL0     C33309   1.397  10.831   4.438 -0.2341 -0.0431 -0.4203
  253MOL0     C33310   1.375  10.864   4.569 -0.3558 -0.0643 -0.6644
  253MOL0     O33311   1.456  11.031   4.826 -0.0202  0.1017  0.3625
  253MOL0     C33312   1.226  10.849   5.033  0.0392  0.4636  0.1794
  253MOL0     C33313   1.131  10.874   5.133  0.0869 -0.0424 -0.5557
  253MOL0     N33314   0.572  10.998   5.072  0.5061 -0.4891  0.2549
  253MOL0     N33315   0.533  11.119   5.045  0.6029  0.2136 -1.1437
  253MOL0     C33316   0.970  10.890   4.644 -0.2087 -0.0349 -0.7425
  253MOL0     C33317   0.940  10.750   4.663 -0.8456  0.1043 -0.0274
  253MOL0     C33318   0.571  10.475   4.771 -0.3825 -0.3270  0.6065
  253MOL0     C33319   0.464  10.412   4.698 -0.4909  0.6441  0.3018
  253MOL0     C33320   0.391  10.315   4.758 -0.2550  0.2305 -0.1241
  253MOL0     C33321   0.412  10.276   4.895 -0.2590  0.3665  0.1421
  253MOL0     O33322   0.331  10.198   4.961 -0.1235 -1.0484 -0.2730
  253MOL0     C33323   0.227  10.130   4.894 -0.0466 -0.0954 -0.0542
  253MOL0     C33324   0.264  10.016   4.800 -0.0649 -0.0271  0.8182
  253MOL0     C33325   0.323   9.887   4.873 -0.3770 -0.2373 -0.2554
  253MOL0     C33326   0.358   9.767   4.785  0.3413  0.6735 -0.2567
  253MOL0     C33327   0.239   9.705   4.743  0.0577  0.3577  0.3769
  253MOL0     C33328   0.143   9.649   4.700 -0.4466 -0.4397  0.0931
  253MOL0     C33329   0.503  10.350   4.970 -0.0846 -0.1052 -0.3583
  253MOL0     C33330   0.586  10.446   4.909 -0.9563  0.2146 -0.7640
  253MOL0     H33331   0.714  10.788   4.908 -0.5521  2.7623  1.4258
  253MOL0     H33332   0.783  11.023   4.899 -0.4208 -0.2977  1.0261
  253MOL0     H33333   0.819  11.236   4.793 -0.6507  2.7701  1.6904
  253MOL0     H33334   0.955  11.315   4.724  0.3112 -0.3441 -0.9366
  253MOL0     H33335   1.102  11.216   4.898  1.2059  3.5368  2.1110
  253MOL0     H33336   0.951  11.163   4.986  0.4899  0.8030  0.3642
  253MOL0     H33337   1.069  11.442   4.911  1.9348  2.9282  4.2005
  253MOL0     H33338   1.044  11.356   5.062 -0.8510 -0.6877 -0.1852
  253MOL0     H33339   0.891  11.553   5.022 -0.1300 -0.7363 -2.7981
  253MOL0     H33340   0.820  11.458   4.887  2.1496 -0.6710 -0.6885
  253MOL0     H33341   0.815  11.333   5.163  3.0243 -0.8640 -1.8887
  253MOL0     H33342   0.736  11.283   5.014 -3.1737  1.9849 -1.1430
  253MOL0     H33343   0.581  11.500   5.035 -1.0730 -0.1035 -0.0479
  253MOL0     H33344   0.708  11.556   5.150  0.5801  0.0055 -0.1957
  253MOL0     H33345   0.628  11.384   5.313  1.4015 -0.6685 -2.6502
  253MOL0     H33346   0.519  11.517   5.269 -1.5461  1.2462 -2.7493
  253MOL0     H33347   0.402  11.362   5.109 -0.5233 -1.1797 -0.9405
  253MOL0     H33348   0.392  11.311   5.283 -2.2834 -0.8477 -1.0906
  253MOL0     H33349   0.509  11.101   5.370 -2.2317 -2.3626  0.7459
  253MOL0     H33350   0.665  10.791   5.201 -0.2362 -1.2632  1.4340
  253MOL0     H33351   0.517  10.784   5.287 -0.1823 -0.7494 -3.8563
  253MOL0     H33352   0.666  10.776   5.466  0.7377 -0.5868 -1.0956
  253MOL0     H33353   0.641  10.943   5.456 -1.0983  0.6349 -0.9193
  253MOL0     H33354   0.880  10.895   5.482 -1.9660 -1.6301  1.7796
  253MOL0     H33355   0.881  10.784   5.356 -0.4373  0.3956 -2.8883
  253MOL0     H33356   0.811  11.072   5.314 -0.7493 -1.9029  0.2277
  253MOL0     H33357   0.852  10.975   5.178  3.1353  1.5310 -0.3806
  253MOL0     H33358   1.192  11.189   5.202  3.4550  1.1323 -1.8161
  253MOL0     H33359   1.348  11.159   5.000  1.9294 -0.7749  2.3272
  253MOL0     H33360   1.561  10.643   4.732  0.5746  0.0208 -0.5677
  253MOL0     H33361   1.611  10.570   4.497  1.2094  1.3199 -3.0539
  253MOL0     H33362   1.444  10.872   4.176  1.3541  0.6963 -0.8590
  253MOL0     H33363   1.349  10.733   4.143 -0.4612  3.9769 -3.8210
  253MOL0     H33364   1.518  10.626   4.018 -0.2772 -0.0630  2.3538
  253MOL0     H33365   1.624  10.758   4.043 -0.2683 -0.6958  0.1138
  253MOL0     H33366   1.514  10.812   3.836  2.2242 -0.8413  1.5948
  253MOL0     H33367   1.444  10.911   3.962 -2.3987 -0.6494  0.9380
  253MOL0     H33368   1.291  10.653   3.919 -1.3717  0.9009 -0.5540
  253MOL0     H33369   1.240  10.822   3.921  0.7113  1.6689  1.2710
  253MOL0     H33370   1.212  10.697   3.692 -0.4546 -0.2583  2.9283
  253MOL0     H33371   1.391  10.725   3.676  2.3759  0.2134  2.7781
  253MOL0     H33372   1.301  10.888   3.542  1.2028 -0.4155  0.2060
  253MOL0     H33373   1.356  10.959   3.684  1.3482 -2.8319  3.9349
  253MOL0     H33374   1.070  10.866   3.618  0.8947  1.2221 -1.7527
  253MOL0     H33375   1.102  10.951   3.770  1.3870 -0.0455  0.2720
  253MOL0     H33376   1.023  11.115   3.637 -0.6321  0.4455 -0.2481
  253MOL0     H33377   1.107  11.057   3.494 -4.1018 -2.2709  0.6325
  253MOL0     H33378   1.350  10.892   4.362 -1.9411 -1.6305 -0.7092
  253MOL0     H33379   1.301  10.938   4.595  0.1735 -0.4750  2.3281
  253MOL0     H33380   1.226  10.752   4.985 -1.1212  0.3196  0.4475
  253MOL0     H33381   1.070  10.791   5.169  0.4945  0.9568  2.8212
  253MOL0     H33382   1.046  10.909   4.569  2.9372 -0.6400  2.0339
  253MOL0     H33383   0.980  10.680   4.591  0.2718 -0.3987  1.0360
  253MOL0     H33384   0.444  10.455   4.601  2.3887  3.0900  0.6245
  253MOL0     H33385   0.304  10.273   4.708 -2.4663  1.8913  2.0873
  253MOL0     H33386   0.164  10.204   4.846  0.5024  1.6992  1.8606
  253MOL0     H33387   0.158  10.084   4.966 -0.9253  0.3446 -0.6074
  253MOL0     H33388   0.183  10.001   4.729  1.1275  4.6459 -1.9472
  253MOL0     H33389   0.344  10.047   4.733  0.5876 -2.4436  0.3983
  253MOL0     H33390   0.256   9.856   4.952  1.3471 -0.7719  1.0582
  253MOL0     H33391   0.414   9.918   4.925 -1.3883 -1.1303  2.1573
  253MOL0     H33392   0.409   9.798   4.694 -1.5049  0.7792 -1.3114
  253MOL0     H33393   0.422   9.690   4.829 -2.3418 -1.1385  0.8101
  253MOL0     H33394   0.061   9.615   4.641 -0.4438 -1.2466  0.5416
  253MOL0     H33395   0.500  10.324   5.075 -3.6502  0.1548 -0.2721
  253MOL0     H33396   0.647  10.494   4.985 -2.5156 -2.1269  2.1756
  254MOL0     O33397   2.423   6.877   0.704 -0.1261  0.4633  0.5439
  254MOL0     C33398   2.479   6.958   0.627 -0.0084 -0.2686 -1.0850
  254MOL0     O33399   2.601   6.935   0.574 -0.0012  0.4814 -0.7326
  254MOL0     C33400   2.692   6.831   0.610  0.4543  0.0349 -0.6285
  254MOL0     C33401   2.647   6.700   0.603  0.6611 -0.6514  0.2615
  254MOL0     C33402   2.738   6.600   0.631  0.8237 -0.7453  0.5647
  254MOL0     C33403   2.874   6.621   0.661  0.5116 -0.0446 -0.1724
  254MOL0     O33404   2.945   6.510   0.706  0.4164 -0.7557 -0.2211
  254MOL0     C33405   3.057   6.518   0.789  0.3962  0.7495  0.0687
  254MOL0     C33406   3.085   6.375   0.839  0.4054 -0.1785  0.7181
  254MOL0     C33407   2.968   6.321   0.916 -0.1684  0.1327  0.4994
  254MOL0     C33408   3.012   6.184   0.995  0.7798  0.5807  0.0745
  254MOL0     C33409   2.902   6.075   1.012 -0.3661  1.0986  0.5729
  254MOL0     C33410   2.784   6.137   1.083 -0.1874  0.5418  0.5721
  254MOL0     C33411   2.790   6.160   1.227 -0.0466 -0.6066 -0.6691
  254MOL0     C33412   2.809   6.042   1.320 -0.2289 -0.1595 -0.8730
  254MOL0     N33413   2.866   6.072   1.452  0.3145  0.0970 -0.2343
  254MOL0     C33414   2.972   6.012   1.510 -0.2833  0.6528 -0.2411
  254MOL0     C33415   2.941   6.016   1.645  0.2361 -0.3173  1.1078
  254MOL0     C33416   3.004   5.950   1.764 -0.0450  1.7295 -0.0359
  254MOL0     C33417   3.148   6.003   1.791 -0.4633 -0.2444 -0.0855
  254MOL0     C33418   3.163   6.155   1.798  0.9832  0.5247  0.2590
  254MOL0     C33419   3.120   6.206   1.930  0.2970 -0.6229 -0.0933
  254MOL0     O33420   3.221   6.170   2.021  0.2147  0.4046 -0.6182
  254MOL0     C33421   3.336   6.248   2.016 -0.1496 -0.1995 -0.3887
  254MOL0     C33422   3.347   6.382   1.978  0.9868  0.7784 -0.2214
  254MOL0     C33423   3.475   6.438   1.978  0.1379  1.2172 -1.4100
  254MOL0     C33424   3.597   6.366   2.022  1.0962  0.7822 -0.7636
  254MOL0     C33425   3.728   6.422   2.020 -1.3922  0.5498  0.0126
  254MOL0     O33426   3.831   6.333   2.042  0.6710 -0.3008  0.4455
  254MOL0     C33427   3.957   6.377   2.047  0.5360 -0.1142 -0.3731
  254MOL0     C33428   4.026   6.408   2.156 -1.1363 -0.1529 -0.2880
  254MOL0     C33429   4.169   6.438   2.145  0.4460 -0.1488 -0.0662
  254MOL0     C33430   4.237   6.425   2.027 -0.3095 -0.4787  0.7694
  254MOL0     O33431   4.369   6.464   2.010  0.3733 -0.1534 -0.1260
  254MOL0     C33432   4.448   6.421   1.889  0.0400  0.0478 -0.4612
  254MOL0     C33433   4.584   6.460   1.938  0.6908 -0.8095  0.5401
  254MOL0     C33434   4.613   6.609   1.938  0.0520  0.1320  0.1104
  254MOL0     C33435   4.771   6.631   1.966 -0.6041  0.3028 -0.2940
  254MOL0     C33436   4.806   6.775   1.982 -0.2064  0.1926 -0.6265
  254MOL0     C33437   4.952   6.813   1.976 -0.1710  0.2131 -0.1568
  254MOL0     C33438   4.969   6.960   2.000 -0.1177 -0.0084  0.9113
  254MOL0     C33439   5.101   7.006   1.958 -0.0464 -0.3948  0.0809
  254MOL0    Cl33440   5.223   6.943   2.072  0.3626  0.0419 -0.7596
  254MOL0     C33441   4.171   6.378   1.918  0.0941  0.0881  0.5602
  254MOL0     C33442   4.025   6.353   1.923 -0.1894  0.5583 -0.4534
  254MOL0     O33443   3.746   6.544   2.004  0.4192  0.1796 -0.5805
  254MOL0     C33444   3.585   6.238   2.067  0.1673  1.2444  1.7622
  254MOL0     C33445   3.453   6.175   2.057  0.5552 -0.1140  0.4717
  254MOL0     N33446   2.829   6.093   1.668 -0.3931  0.1296  0.7732
  254MOL0     N33447   2.789   6.124   1.548 -1.0854 -0.6838 -0.5683
  254MOL0     C33448   2.923   6.753   0.669  0.2161  0.1033  0.1720
  254MOL0     C33449   2.827   6.861   0.640 -0.5522 -0.4888 -0.4385
  254MOL0     C33450   2.423   7.094   0.607  0.1929  0.2136 -0.3876
  254MOL0     C33451   2.449   7.178   0.494 -0.8030 -0.2628  0.0532
  254MOL0     C33452   2.399   7.303   0.470 -0.4428  0.0694 -0.8980
  254MOL0     C33453   2.294   7.353   0.559 -0.4901 -0.1321 -1.2727
  254MOL0     O33454   2.230   7.470   0.543  0.0484 -0.1369  0.2402
  254MOL0     C33455   2.267   7.571   0.444 -0.8917  1.0729 -0.4500
  254MOL0     C33456   2.201   7.551   0.311 -0.8316 -0.2031 -0.5812
  254MOL0     C33457   2.054   7.546   0.312  0.2311 -0.3887  0.4376
  254MOL0     C33458   2.002   7.409   0.361 -0.8135  0.2492 -0.1098
  254MOL0     C33459   2.026   7.301   0.265 -0.5608  0.3975  0.7995
  254MOL0     C33460   2.059   7.219   0.181  0.5119  0.5762 -0.2672
  254MOL0     C33461   2.262   7.276   0.674  0.2665  0.7943  0.1914
  254MOL0     C33462   2.327   7.147   0.701  0.1220  0.3369  0.4254
  254MOL0     H33463   2.546   6.663   0.592 -0.7643  1.9073  3.2196
  254MOL0     H33464   2.693   6.502   0.641 -4.2702  1.2841  0.5254
  254MOL0     H33465   3.028   6.577   0.877  1.9849 -0.7240  1.6757
  254MOL0     H33466   3.152   6.552   0.748  2.6788 -2.4628  2.2421
  254MOL0     H33467   3.165   6.375   0.913  1.2572 -2.7754 -0.0866
  254MOL0     H33468   3.100   6.303   0.759 -0.0837  0.1415  0.3301
  254MOL0     H33469   2.889   6.293   0.845  0.7518 -1.7329  0.1386
  254MOL0     H33470   2.940   6.395   0.991  1.8322 -0.6873  2.1406
  254MOL0     H33471   3.077   6.145   0.916 -0.5105  1.1068 -1.2923
  254MOL0     H33472   3.068   6.204   1.086  1.8924 -1.2706 -0.1531
  254MOL0     H33473   2.934   5.987   1.069  0.5446  1.1706  0.1893
  254MOL0     H33474   2.874   6.040   0.913 -0.7644 -0.9160  1.3259
  254MOL0     H33475   2.690   6.084   1.065  0.7914 -0.5717 -1.5213
  254MOL0     H33476   2.768   6.234   1.034 -0.6414 -0.5254 -1.5235
  254MOL0     H33477   2.873   6.229   1.243  0.1081 -0.6199 -1.3999
  254MOL0     H33478   2.700   6.211   1.263  0.7200 -1.4578  2.9121
  254MOL0     H33479   2.871   5.964   1.276  2.1510  0.7108  0.7351
  254MOL0     H33480   2.711   5.999   1.345  0.2380  0.4786  2.3957
  254MOL0     H33481   3.060   5.967   1.465  0.6890  1.7132  0.5299
  254MOL0     H33482   2.994   5.841   1.760 -1.3452  1.6899  2.3624
  254MOL0     H33483   2.932   5.974   1.842 -1.6849 -1.0184 -0.5536
  254MOL0     H33484   3.205   5.959   1.709 -0.0967  1.1464 -0.6029
  254MOL0     H33485   3.191   5.961   1.883 -0.8523  2.9538  1.7117
  254MOL0     H33486   3.266   6.184   1.777  0.3136  0.8780 -3.1221
  254MOL0     H33487   3.095   6.190   1.720  0.7172 -2.1620 -0.8563
  254MOL0     H33488   3.020   6.168   1.955 -0.5896  0.0843 -2.2781
  254MOL0     H33489   3.108   6.314   1.928  0.2836 -0.6160  0.2936
  254MOL0     H33490   3.262   6.443   1.947  0.9507  0.2462 -1.2305
  254MOL0     H33491   3.495   6.542   1.956 -0.1022  1.7359  0.6425
  254MOL0     H33492   3.975   6.401   2.251 -0.5661 -3.6796 -0.1226
  254MOL0     H33493   4.238   6.450   2.228  1.3243 -0.6346 -0.7136
  254MOL0     H33494   4.415   6.480   1.803 -3.6711  1.0726  1.4314
  254MOL0     H33495   4.435   6.315   1.867 -1.7688 -0.1028  1.0282
  254MOL0     H33496   4.657   6.424   1.866  0.2060 -1.3440  0.3068
  254MOL0     H33497   4.608   6.435   2.042 -1.5525  1.7071  1.7823
  254MOL0     H33498   4.569   6.663   2.023  2.5474 -0.4326  1.8807
  254MOL0     H33499   4.600   6.658   1.841  0.3599  0.7585  0.3727
  254MOL0     H33500   4.801   6.580   2.058 -1.6696  0.6255  0.2554
  254MOL0     H33501   4.819   6.587   1.878  3.3460  0.5515  1.5426
  254MOL0     H33502   4.749   6.808   2.070 -0.3588 -2.4474  0.3476
  254MOL0     H33503   4.774   6.824   1.890 -2.0601 -1.8363 -1.1294
  254MOL0     H33504   4.992   6.786   1.878  0.9028  1.4378 -0.0959
  254MOL0     H33505   5.011   6.754   2.046 -2.4275  0.3843  2.0089
  254MOL0     H33506   4.899   7.022   1.943  1.0631  0.8176  0.3132
  254MOL0     H33507   4.952   6.999   2.101 -2.5798  0.2993  0.4281
  254MOL0     H33508   5.106   7.115   1.962  1.2818 -0.4057 -0.6093
  254MOL0     H33509   5.130   6.980   1.856 -0.5875  0.9865 -0.4453
  254MOL0     H33510   4.213   6.371   1.818 -1.7773 -0.4676 -0.2397
  254MOL0     H33511   3.967   6.325   1.835  0.4927 -1.2576 -0.3733
  254MOL0     H33512   3.672   6.176   2.084  2.9026  3.6017 -2.0244
  254MOL0     H33513   3.439   6.067   2.060  1.0805 -0.2446 -1.1449
  254MOL0     H33514   3.027   6.772   0.690  0.1818 -0.8753  1.3515
  254MOL0     H33515   2.870   6.960   0.643 -0.1261 -0.6206  3.8222
  254MOL0     H33516   2.518   7.135   0.422  0.3802  2.0637 -0.2931
  254MOL0     H33517   2.422   7.345   0.373  0.0981 -0.9739 -1.2370
  254MOL0     H33518   2.375   7.558   0.441 -1.1156 -1.4166  0.3292
  254MOL0     H33519   2.249   7.671   0.484  1.0652  1.7936 -1.2796
  254MOL0     H33520   2.225   7.637   0.247 -0.7332 -0.4056 -0.8179
  254MOL0     H33521   2.238   7.459   0.265 -0.5907  1.1783 -3.3694
  254MOL0     H33522   2.020   7.575   0.212  0.7377 -1.8243 -0.1836
  254MOL0     H33523   2.010   7.626   0.372 -0.4938 -2.5467  2.9799
  254MOL0     H33524   2.044   7.374   0.456 -2.3842  0.5136  0.7320
  254MOL0     H33525   1.893   7.418   0.368 -0.8855 -0.5924 -0.0973
  254MOL0     H33526   2.063   7.157   0.094 -1.8028 -0.1615  0.0690
  254MOL0     H33527   2.192   7.312   0.749  1.8131 -0.7205  2.4929
  254MOL0     H33528   2.312   7.082   0.787  1.1614  1.9590  1.8905
  255MOL0     O33529   0.114  10.935  10.086 -0.2701  0.1673  0.1911
  255MOL0     C33530   0.044  11.026  10.139  0.0544  0.0442  0.8845
  255MOL0     O33531  -0.073  11.078  10.094  0.8299  0.3289 -0.0155
  255MOL0     C33532  -0.136  11.029   9.976 -1.6623  0.6037 -0.1375
  255MOL0     C33533  -0.246  11.100   9.931 -0.6123  0.1970 -0.4954
  255MOL0     C33534  -0.333  11.048   9.832  0.3076  0.7375 -0.5185
  255MOL0     C33535  -0.306  10.920   9.768  0.7403 -0.7597 -0.4481
  255MOL0     O33536  -0.391  10.910   9.655  0.0928  0.5326  0.3203
  255MOL0     C33537  -0.378  10.790   9.568  0.8984  0.1145  0.3252
  255MOL0     C33538  -0.502  10.757   9.493 -0.3403 -0.9061 -0.0849
  255MOL0     C33539  -0.478  10.691   9.353  0.6120 -0.0016  0.0807
  255MOL0     C33540  -0.616  10.648   9.296 -0.0490 -0.3070 -0.3343
  255MOL0     C33541  -0.611  10.551   9.178 -0.6051 -1.0451 -0.5284
  255MOL0     C33542  -0.749  10.489   9.152  0.5828 -0.5657 -0.2284
  255MOL0     C33543  -0.812  10.503   9.013 -0.7005  0.6104 -0.1821
  255MOL0     C33544  -0.942  10.417   8.999 -0.2433 -0.1531 -0.6022
  255MOL0     N33545  -1.067  10.493   9.024 -0.6695 -0.3779 -0.2121
  255MOL0     C33546  -1.100  10.559   9.143 -0.9025  0.1747  0.3705
  255MOL0     C33547  -1.197  10.639   9.105  0.5521 -0.1311  0.4503
  255MOL0     C33548  -1.277  10.711   9.210 -0.1216 -0.0948 -0.1126
  255MOL0     C33549  -1.371  10.810   9.138  0.1384 -0.4840 -1.5208
  255MOL0     C33550  -1.283  10.914   9.061  1.3020  0.8294  0.4383
  255MOL0     C33551  -1.383  11.022   9.046 -0.1456 -0.7462 -0.0522
  255MOL0     O33552  -1.310  11.138   9.007  0.3746 -0.7054  0.1558
  255MOL0     C33553  -1.394  11.244   8.977  0.5057 -0.0930  0.7200
  255MOL0     C33554  -1.420  11.276   8.839 -0.1083  0.1239 -0.4375
  255MOL0     C33555  -1.517  11.362   8.799  0.4586  0.3374  0.5673
  255MOL0     C33556  -1.576  11.440   8.902  0.2094  0.8367  0.0156
  255MOL0     C33557  -1.690  11.530   8.867  0.1083  0.0744 -0.2053
  255MOL0     O33558  -1.779  11.569   8.964 -0.0868 -1.2090  0.1097
  255MOL0     C33559  -1.885  11.658   8.929 -0.9524  0.7274  0.3783
  255MOL0     C33560  -1.998  11.622   8.849  0.0603  0.0464  0.0277
  255MOL0     C33561  -2.085  11.725   8.822 -0.2478  0.2700 -0.7420
  255MOL0     C33562  -2.077  11.858   8.861  0.4675  0.5554 -0.4050
  255MOL0     O33563  -2.154  11.962   8.822  0.3579 -0.4411 -1.2931
  255MOL0     C33564  -2.294  11.941   8.809 -0.7296 -0.1725  0.5378
  255MOL0     C33565  -2.349  12.021   8.922 -0.4350  0.0479 -0.0962
  255MOL0     C33566  -2.499  11.978   8.946  1.6116  0.4881  0.1162
  255MOL0     C33567  -2.583  12.082   9.017  0.6652 -0.2903  0.6226
  255MOL0     C33568  -2.729  12.052   9.050 -0.5681  0.0480 -0.0455
  255MOL0     C33569  -2.801  12.176   9.108  0.0652 -0.3866  0.1810
  255MOL0     C33570  -2.757  12.227   9.242  0.6473  0.2831  0.1735
  255MOL0     C33571  -2.865  12.278   9.334 -0.2793  0.0312  0.9462
  255MOL0    Cl33572  -2.929  12.432   9.261  0.0147 -0.2302  0.5899
  255MOL0     C33573  -1.954  11.897   8.916  0.3236  1.0368 -0.1541
  255MOL0     C33574  -1.866  11.798   8.953 -0.3249 -0.1637 -0.0022
  255MOL0     O33575  -1.700  11.553   8.751 -0.5335 -0.6835  0.7519
  255MOL0     C33576  -1.548  11.414   9.036 -0.2535 -0.9789 -0.5188
  255MOL0     C33577  -1.457  11.313   9.074  0.3190 -0.0470 -0.2141
  255MOL0     N33578  -1.223  10.621   8.969  0.9775  0.1211 -0.7132
  255MOL0     N33579  -1.153  10.527   8.926  0.6892 -0.5422  0.0948
  255MOL0     C33580  -0.189  10.850   9.809  0.6705  0.9599  0.2257
  255MOL0     C33581  -0.106  10.900   9.912 -0.1062 -0.3445 -0.5086
  255MOL0     C33582   0.088  11.094  10.261 -0.8951  0.5007  0.1544
  255MOL0     C33583   0.050  11.223  10.303 -0.0713 -0.5089  0.1114
  255MOL0     C33584   0.075  11.264  10.437  0.4590  0.3463  0.3486
  255MOL0     C33585   0.143  11.181  10.525 -0.1969 -0.3090 -0.5313
  255MOL0     O33586   0.159  11.215  10.663  0.2433  0.4810 -0.7992
  255MOL0     C33587   0.086  11.333  10.710 -0.0743 -0.3857  0.1404
  255MOL0     C33588   0.066  11.307  10.862  0.0474  0.5677 -0.5187
  255MOL0     C33589  -0.043  11.393  10.909 -0.1885  0.5542  0.1273
  255MOL0     C33590  -0.090  11.359  11.053  0.0366  0.5125  0.2926
  255MOL0     C33591  -0.143  11.221  11.065  0.6893  0.0455 -0.5919
  255MOL0     C33592  -0.188  11.110  11.047 -0.3622  1.2189  0.6499
  255MOL0     C33593   0.194  11.065  10.475  1.0269  0.2329 -0.4927
  255MOL0     C33594   0.160  11.016  10.351  0.9597 -0.7061  0.8045
  255MOL0     H33595  -0.284  11.182   9.992  0.2301 -2.1650  3.6275
  255MOL0     H33596  -0.406  11.116   9.789  2.1358  2.5970 -0.8506
  255MOL0     H33597  -0.351  10.694   9.614 -0.4013 -1.0741 -1.2746
  255MOL0     H33598  -0.296  10.809   9.498  1.5588  1.8806  1.5114
  255MOL0     H33599  -0.564  10.844   9.470 -0.3915 -1.2938 -1.5141
  255MOL0     H33600  -0.559  10.693   9.561  1.3479 -0.0794  2.2633
  255MOL0     H33601  -0.417  10.602   9.365 -0.2733 -0.4793  1.1851
  255MOL0     H33602  -0.422  10.752   9.282 -0.3548 -1.0947 -1.6869
  255MOL0     H33603  -0.663  10.582   9.369 -1.8599  1.2440 -0.0151
  255MOL0     H33604  -0.682  10.732   9.271 -0.2682 -0.9233 -1.9595
  255MOL0     H33605  -0.541  10.468   9.191  0.3838 -0.1964 -0.3101
  255MOL0     H33606  -0.578  10.597   9.084  1.6335  1.4186  1.3132
  255MOL0     H33607  -0.820  10.525   9.226 -0.3868 -2.1897 -0.3367
  255MOL0     H33608  -0.747  10.382   9.173 -2.3355 -0.2971  2.1066
  255MOL0     H33609  -0.837  10.606   8.984  2.0917  0.7047 -2.6728
  255MOL0     H33610  -0.738  10.467   8.941 -0.2424  1.4739 -0.1539
  255MOL0     H33611  -0.942  10.322   9.055 -1.3844 -1.7377 -3.1160
  255MOL0     H33612  -0.932  10.382   8.896 -1.7874 -0.0969 -0.7908
  255MOL0     H33613  -1.082  10.554   9.250 -0.9907  2.1644  0.5252
  255MOL0     H33614  -1.199  10.760   9.268 -0.7603 -0.0794  0.7636
  255MOL0     H33615  -1.339  10.645   9.272 -0.0838  0.8176  0.9275
  255MOL0     H33616  -1.420  10.869   9.216  3.5097  3.0098 -1.7375
  255MOL0     H33617  -1.434  10.761   9.063  1.7720  0.4980 -3.6676
  255MOL0     H33618  -1.188  10.940   9.108  3.7253 -1.8437 -2.5745
  255MOL0     H33619  -1.259  10.864   8.967  4.1854  1.9600  0.4764
  255MOL0     H33620  -1.434  11.043   9.141 -0.4653  0.3810 -0.4479
  255MOL0     H33621  -1.439  10.986   8.959  1.0970 -0.1982 -1.1140
  255MOL0     H33622  -1.363  11.217   8.768  1.6409  0.4729  0.6143
  255MOL0     H33623  -1.554  11.375   8.698  0.7832  3.1283  0.7325
  255MOL0     H33624  -2.011  11.518   8.818 -0.4322  0.3380 -0.7636
  255MOL0     H33625  -2.170  11.682   8.770  0.3656 -0.4889 -1.1450
  255MOL0     H33626  -2.325  11.836   8.809 -0.4060 -0.3817 -2.7152
  255MOL0     H33627  -2.338  11.983   8.718  1.2955  0.5149 -0.1789
  255MOL0     H33628  -2.337  12.128   8.902  0.4826 -0.0265 -0.0018
  255MOL0     H33629  -2.288  11.996   9.009 -3.6715 -1.8966  1.8066
  255MOL0     H33630  -2.498  11.878   8.989 -3.6016 -0.2708 -0.9638
  255MOL0     H33631  -2.559  11.956   8.858  0.8551 -0.3237  0.8230
  255MOL0     H33632  -2.526  12.113   9.105 -1.9370  2.4577  1.4816
  255MOL0     H33633  -2.579  12.169   8.952 -1.9603  0.7423  1.7029
  255MOL0     H33634  -2.721  11.972   9.124  2.5400  0.6237  0.3726
  255MOL0     H33635  -2.789  12.012   8.968 -3.4906  1.1103  1.4490
  255MOL0     H33636  -2.906  12.147   9.112  0.5729 -2.6176 -0.8525
  255MOL0     H33637  -2.794  12.256   9.035  2.5522  1.1241  1.8789
  255MOL0     H33638  -2.742  12.133   9.297 -1.0323 -0.0093  0.1622
  255MOL0     H33639  -2.672  12.297   9.241  1.7840 -1.0408  0.2837
  255MOL0     H33640  -2.826  12.298   9.434  0.8427  0.2020  0.4963
  255MOL0     H33641  -2.938  12.199   9.354 -0.4463  0.3652  1.6616
  255MOL0     H33642  -1.938  12.004   8.918  0.7884  0.9780 -0.4275
  255MOL0     H33643  -1.788  11.835   9.019 -1.4947 -2.4429  2.9173
  255MOL0     H33644  -1.582  11.471   9.122  1.7928 -3.0035  1.8010
  255MOL0     H33645  -1.437  11.293   9.178 -0.3507  2.2929  0.4230
  255MOL0     H33646  -0.162  10.762   9.751 -3.2210 -1.1585  1.2362
  255MOL0     H33647  -0.020  10.835   9.929  1.5100  2.0704  1.1155
  255MOL0     H33648   0.009  11.310  10.253  1.6407  0.8790  1.0263
  255MOL0     H33649   0.056  11.366  10.468  1.0274  0.7909 -0.6831
  255MOL0     H33650  -0.009  11.342  10.657 -0.6746  1.6532  1.4750
  255MOL0     H33651   0.139  11.425  10.684 -1.8616  0.0497 -2.3480
  255MOL0     H33652   0.046  11.199  10.868  2.1477  0.1609  0.3227
  255MOL0     H33653   0.164  11.330  10.904 -0.3552  0.8815  0.2587
  255MOL0     H33654  -0.135  11.386  10.851 -0.6212  0.1004  0.8527
  255MOL0     H33655   0.004  11.491  10.917  2.9373 -0.7541 -0.5189
  255MOL0     H33656  -0.007  11.378  11.122 -0.3172  2.2050  0.2805
  255MOL0     H33657  -0.170  11.427  11.084 -1.5003 -0.1184 -2.0377
  255MOL0     H33658  -0.242  11.017  11.038  1.4906  0.1440 -0.0332
  255MOL0     H33659   0.245  10.987  10.530  1.5876  0.6552 -0.3979
  255MOL0     H33660   0.199  10.922  10.314  1.1968  0.2209 -1.5001
  256MOL0     O33661   1.330   5.073   9.562  0.5954  0.5473  0.9648
  256MOL0     C33662   1.215   5.093   9.527 -0.5919  0.9374 -0.1106
  256MOL0     O33663   1.160   5.205   9.469 -0.9770 -0.3003 -0.5985
  256MOL0     C33664   1.249   5.289   9.413  0.6832  0.4375 -0.6544
  256MOL0     C33665   1.228   5.322   9.279  0.0879 -0.9390  0.6076
  256MOL0     C33666   1.316   5.401   9.198  0.2459 -0.9412 -0.8931
  256MOL0     C33667   1.428   5.453   9.271  0.8608 -0.0896  0.2458
  256MOL0     O33668   1.512   5.539   9.203  0.0164 -0.2110  0.1309
  256MOL0     C33669   1.651   5.520   9.168  0.4511  0.7793  0.5799
  256MOL0     C33670   1.674   5.557   9.023  0.9183  0.8834 -0.1420
  256MOL0     C33671   1.662   5.711   8.985  0.8535  0.0454  0.1518
  256MOL0     C33672   1.667   5.733   8.840  0.1539  0.0647 -0.1725
  256MOL0     C33673   1.677   5.880   8.811 -0.0217 -0.1829  0.4009
  256MOL0     C33674   1.694   5.905   8.657 -0.6584  0.2891  0.6269
  256MOL0     C33675   1.573   5.879   8.569  0.1930 -0.0660  0.7138
  256MOL0     C33676   1.487   6.010   8.559 -0.2738  0.0601 -0.5215
  256MOL0     N33677   1.554   6.107   8.483  0.1648 -1.0824  0.2444
  256MOL0     C33678   1.598   6.226   8.540 -0.2929 -0.3999  0.0324
  256MOL0     C33679   1.605   6.300   8.428 -0.1971 -0.1840  0.1423
  256MOL0     C33680   1.659   6.447   8.423  0.2112  0.2276  0.1691
  256MOL0     C33681   1.706   6.497   8.555 -0.2943  0.0613 -0.0619
  256MOL0     C33682   1.841   6.431   8.605 -0.5672 -0.6014 -0.1709
  256MOL0     C33683   1.863   6.453   8.750  0.0640  0.2978 -0.3207
  256MOL0     O33684   1.791   6.349   8.814  0.4707 -0.4021 -0.0304
  256MOL0     C33685   1.778   6.351   8.950 -0.4469  0.2031  0.8272
  256MOL0     C33686   1.691   6.251   8.999  0.3331 -0.4116 -0.7480
  256MOL0     C33687   1.674   6.226   9.133  0.4494 -1.0454 -0.0338
  256MOL0     C33688   1.762   6.288   9.225  0.5749 -0.8023 -0.7247
  256MOL0     C33689   1.759   6.252   9.372 -0.5748 -0.2235  1.0167
  256MOL0     O33690   1.848   6.315   9.454 -0.2740 -0.2641  0.3840
  256MOL0     C33691   1.849   6.275   9.580 -0.5536  0.5699  0.2786
  256MOL0     C33692   1.944   6.176   9.627 -0.1888 -0.3135 -0.4370
  256MOL0     C33693   1.952   6.145   9.764  1.0536  0.8321 -0.1421
  256MOL0     C33694   1.864   6.202   9.856  0.7672  0.3639 -0.0731
  256MOL0     O33695   1.891   6.159   9.988  0.0496 -0.0069  0.4792
  256MOL0     C33696   1.799   6.218  10.089  0.5471 -0.2419 -0.5330
  256MOL0     C33697   1.820   6.165  10.226  0.1876  0.8587 -0.4568
  256MOL0     C33698   1.741   6.247  10.319 -0.4492  0.2598 -0.0750
  256MOL0     C33699   1.781   6.215  10.461 -0.7259  0.1728 -1.1094
  256MOL0     C33700   1.706   6.304  10.572 -0.3535 -0.4472 -0.2714
  256MOL0     C33701   1.769   6.277  10.714  0.1897  0.5491  0.1136
  256MOL0     C33702   1.744   6.379  10.815 -0.0474 -0.4989  0.7583
  256MOL0     C33703   1.845   6.494  10.807 -0.1446  0.2868  0.2125
  256MOL0    Cl33704   1.796   6.646  10.892  0.2207  0.3225 -0.0155
  256MOL0     C33705   1.770   6.294   9.814  0.2889 -0.5544 -0.6296
  256MOL0     C33706   1.764   6.331   9.681 -0.0241 -0.3748 -0.2427
  256MOL0     O33707   1.674   6.167   9.405  0.4004  0.6524  0.8260
  256MOL0     C33708   1.855   6.378   9.179  0.9857 -0.6745 -0.2524
  256MOL0     C33709   1.853   6.423   9.044 -0.1569  1.4320  0.3758
  256MOL0     N33710   1.555   6.244   8.318 -0.2069  0.5397  0.7529
  256MOL0     N33711   1.524   6.126   8.348 -0.2552 -0.0499 -0.0652
  256MOL0     C33712   1.453   5.420   9.404 -0.2889 -0.7121  0.6070
  256MOL0     C33713   1.372   5.339   9.473 -0.1644 -0.5902  0.6543
  256MOL0     C33714   1.112   4.985   9.564  0.0731 -0.7952 -0.0361
  256MOL0     C33715   0.988   4.980   9.500 -1.1051  0.4009  0.1833
  256MOL0     C33716   0.901   4.872   9.524 -0.0371 -0.1442  0.1250
  256MOL0     C33717   0.931   4.771   9.610 -0.3244 -0.5833  0.2448
  256MOL0     O33718   0.831   4.696   9.659  0.1211  0.0987 -0.0003
  256MOL0     C33719   0.850   4.550   9.666 -0.6463 -0.3206  0.4113
  256MOL0     C33720   0.870   4.526   9.814 -0.8027  0.7268 -0.3379
  256MOL0     C33721   0.741   4.558   9.895 -0.1710 -1.2689  0.9205
  256MOL0     C33722   0.623   4.470   9.852 -1.0696 -0.2760  0.8039
  256MOL0     C33723   0.542   4.429   9.961  0.7287 -0.0276  0.5071
  256MOL0     C33724   0.458   4.396  10.043  1.1966 -0.4092  0.8576
  256MOL0     C33725   1.059   4.766   9.664  0.2975 -0.1584 -1.5669
  256MOL0     C33726   1.143   4.872   9.645  0.1041 -0.7461  0.0980
  256MOL0     H33727   1.131   5.295   9.237  1.1182 -2.6857 -0.7748
  256MOL0     H33728   1.296   5.424   9.094 -0.6038  6.1562  0.3261
  256MOL0     H33729   1.671   5.413   9.177 -0.5996  0.6914  2.4849
  256MOL0     H33730   1.719   5.574   9.235  0.2980  0.4368  1.0201
  256MOL0     H33731   1.597   5.511   8.960 -0.0169  0.7039  1.0977
  256MOL0     H33732   1.780   5.540   9.000  1.8164  3.0348  1.9843
  256MOL0     H33733   1.737   5.769   9.041 -0.2863  0.0860  1.7146
  256MOL0     H33734   1.560   5.741   9.012 -0.2290 -3.1411 -0.0820
  256MOL0     H33735   1.746   5.671   8.797 -0.3052 -2.5882  2.4624
  256MOL0     H33736   1.571   5.690   8.810  0.2911  0.1053 -0.6772
  256MOL0     H33737   1.765   5.926   8.857 -0.0824  0.5638 -0.2108
  256MOL0     H33738   1.589   5.931   8.852 -0.5984 -2.1589  1.7692
  256MOL0     H33739   1.780   5.843   8.628 -0.1880  1.6963 -1.1949
  256MOL0     H33740   1.743   6.003   8.648  1.0227 -0.5852 -0.2693
  256MOL0     H33741   1.600   5.849   8.467 -3.5754 -2.2413  0.1784
  256MOL0     H33742   1.517   5.797   8.614  0.1871  0.3329  1.4324
  256MOL0     H33743   1.466   6.051   8.658 -0.6863 -3.0039  0.7923
  256MOL0     H33744   1.393   5.998   8.503 -0.6254 -3.0812  0.5093
  256MOL0     H33745   1.619   6.247   8.644 -1.2016  2.5541 -0.2800
  256MOL0     H33746   1.582   6.510   8.377 -0.2053 -0.9561 -0.8112
  256MOL0     H33747   1.733   6.448   8.343 -1.2697 -1.2647 -1.3004
  256MOL0     H33748   1.629   6.481   8.631  0.4392  0.8876  0.8925
  256MOL0     H33749   1.711   6.606   8.546 -1.0721  0.1258  0.2046
  256MOL0     H33750   1.842   6.324   8.583 -2.0826 -0.6044 -0.2817
  256MOL0     H33751   1.919   6.488   8.553 -1.2229 -1.9934 -2.8400
  256MOL0     H33752   1.812   6.547   8.773 -2.4838 -0.8369 -0.9898
  256MOL0     H33753   1.968   6.442   8.778  0.3358  0.7682 -1.1251
  256MOL0     H33754   1.632   6.201   8.923  1.7779 -1.7663 -1.0387
  256MOL0     H33755   1.595   6.157   9.162 -0.3646  0.1069  0.5980
  256MOL0     H33756   2.018   6.147   9.553 -0.4101 -2.6929  0.2004
  256MOL0     H33757   2.023   6.072   9.802  1.1822 -0.6277 -2.8916
  256MOL0     H33758   1.694   6.194  10.069  0.1019 -1.2199  2.5311
  256MOL0     H33759   1.807   6.327  10.086  1.1710 -0.0877  2.8146
  256MOL0     H33760   1.927   6.173  10.246  1.0145 -2.8919 -2.4940
  256MOL0     H33761   1.782   6.063  10.228 -0.7987  1.1393  3.5868
  256MOL0     H33762   1.635   6.226  10.302 -0.9643  3.4465 -1.3817
  256MOL0     H33763   1.750   6.353  10.293  0.1019  0.0089 -0.9415
  256MOL0     H33764   1.765   6.109  10.485 -0.8653  0.4017 -0.1519
  256MOL0     H33765   1.889   6.227  10.468 -0.6930 -0.7855  0.8613
  256MOL0     H33766   1.598   6.293  10.565 -0.1351 -3.3332 -0.2037
  256MOL0     H33767   1.719   6.411  10.549  1.5781 -0.8522 -1.3132
  256MOL0     H33768   1.872   6.242  10.708 -0.8352 -2.5139 -3.1875
  256MOL0     H33769   1.701   6.204  10.759 -1.6911  0.9814 -1.8489
  256MOL0     H33770   1.644   6.420  10.800 -0.1252 -1.2212 -0.8876
  256MOL0     H33771   1.752   6.334  10.915 -0.8464 -1.6907  0.3137
  256MOL0     H33772   1.858   6.516  10.701  0.3857 -5.9408 -1.4225
  256MOL0     H33773   1.945   6.455  10.824 -0.1007  0.1416 -0.3437
  256MOL0     H33774   1.698   6.348   9.874 -0.1250  4.0241 -4.6414
  256MOL0     H33775   1.692   6.411   9.666 -1.6565 -1.6024  0.7326
  256MOL0     H33776   1.932   6.413   9.247  0.5521 -1.1853  0.5161
  256MOL0     H33777   1.936   6.479   9.001  0.4907  1.3288  1.4415
  256MOL0     H33778   1.547   5.443   9.454  0.5936 -2.6977 -0.0092
  256MOL0     H33779   1.395   5.305   9.573  1.7768 -1.5996 -0.0840
  256MOL0     H33780   0.962   5.055   9.426  0.6857 -0.9658 -1.9887
  256MOL0     H33781   0.803   4.874   9.478 -1.0264  0.1338  2.1473
  256MOL0     H33782   0.938   4.512   9.614  0.1758  2.2084 -0.1479
  256MOL0     H33783   0.764   4.497   9.623  0.5578 -0.7277 -1.5651
  256MOL0     H33784   0.893   4.419   9.818  0.1170  0.8795  4.0025
  256MOL0     H33785   0.964   4.562   9.858 -0.2216 -3.2575  2.2403
  256MOL0     H33786   0.717   4.663   9.874  2.0734 -1.0471 -1.0361
  256MOL0     H33787   0.759   4.554  10.002  4.7287  3.4994  0.7162
  256MOL0     H33788   0.562   4.516   9.774 -0.1784 -1.1674 -0.4435
  256MOL0     H33789   0.659   4.371   9.821  1.7680  0.2220  2.1486
  256MOL0     H33790   0.383   4.358  10.109  1.4998 -1.8432  0.4000
  256MOL0     H33791   1.093   4.697   9.740 -1.6177 -0.7181 -1.1719
  256MOL0     H33792   1.242   4.870   9.690  0.6074  2.3007 -0.6907
  257MOL0     O33793   3.210  10.099   7.908 -0.4308 -0.2987  0.2168
  257MOL0     C33794   3.206  10.146   8.024  0.2681 -0.2409  0.2113
  257MOL0     O33795   3.265  10.267   8.061 -0.4799  0.2114  0.7034
  257MOL0     C33796   3.282  10.362   7.959 -0.1087 -0.2152 -0.4465
  257MOL0     C33797   3.165  10.435   7.914  0.2628  0.8507 -0.0084
  257MOL0     C33798   3.190  10.526   7.810  0.7075  0.7341 -0.0454
  257MOL0     C33799   3.320  10.559   7.767  0.0236  1.1938 -0.7867
  257MOL0     O33800   3.321  10.648   7.664  0.3232  0.5854 -0.6103
  257MOL0     C33801   3.424  10.650   7.558 -0.7437  0.4744  0.1570
  257MOL0     C33802   3.458  10.516   7.496  0.5437  0.2484  0.2505
  257MOL0     C33803   3.344  10.424   7.474 -0.4711  0.2899  1.0492
  257MOL0     C33804   3.227  10.493   7.393 -0.5928  0.6153  0.4302
  257MOL0     C33805   3.115  10.396   7.353 -0.2300  0.1103  0.6802
  257MOL0     C33806   3.036  10.343   7.473 -0.3639 -0.5232 -0.3619
  257MOL0     C33807   3.047  10.196   7.493 -0.0747 -0.1118 -0.5039
  257MOL0     C33808   2.981  10.144   7.619 -0.4641 -0.5228  0.2313
  257MOL0     N33809   2.933  10.010   7.596  0.0242 -0.8352  0.0239
  257MOL0     C33810   2.996   9.897   7.652  0.3725  0.0798 -1.2547
  257MOL0     C33811   2.907   9.800   7.631 -0.5602 -0.0958 -0.1912
  257MOL0     C33812   2.901   9.668   7.700 -0.3655 -0.7290  0.1294
  257MOL0     C33813   2.875   9.684   7.856 -0.9512  0.6199  0.1936
  257MOL0     C33814   2.878   9.545   7.937  0.2936 -0.3108 -0.5401
  257MOL0     C33815   2.731   9.488   7.955  0.8558  0.9535 -0.0176
  257MOL0     O33816   2.674   9.467   7.832  0.2992 -0.0184  0.6321
  257MOL0     C33817   2.620   9.341   7.820 -0.1017  1.3115 -0.2678
  257MOL0     C33818   2.529   9.288   7.910 -0.4588 -0.4220  1.3427
  257MOL0     C33819   2.462   9.171   7.879 -0.0112  0.4911  0.4986
  257MOL0     C33820   2.488   9.091   7.767  0.0460  0.6875 -1.2128
  257MOL0     C33821   2.417   8.960   7.753 -0.1023  0.0967 -0.4712
  257MOL0     O33822   2.437   8.914   7.628 -0.1490 -0.5061 -0.5210
  257MOL0     C33823   2.410   8.781   7.599  0.8182 -0.2409 -0.0619
  257MOL0     C33824   2.274   8.731   7.601  0.0465  0.7506 -0.5023
  257MOL0     C33825   2.232   8.596   7.588 -0.3648 -0.0678  0.5132
  257MOL0     C33826   2.339   8.510   7.569  0.6456  0.1514 -0.8176
  257MOL0     O33827   2.310   8.378   7.592  0.0258  0.1630 -0.0857
  257MOL0     C33828   2.388   8.277   7.523  0.3349  0.4496 -0.5751
  257MOL0     C33829   2.298   8.165   7.468 -0.2695  0.9251  0.8104
  257MOL0     C33830   2.298   8.047   7.565 -0.7740 -0.1747  0.8297
  257MOL0     C33831   2.420   7.961   7.547  0.7502 -0.3979 -0.3733
  257MOL0     C33832   2.436   7.872   7.665 -0.0311  0.1524 -0.7773
  257MOL0     C33833   2.560   7.785   7.649 -1.1545 -0.2645 -0.2762
  257MOL0     C33834   2.570   7.695   7.767 -0.2745  0.3767 -0.9889
  257MOL0     C33835   2.680   7.597   7.739  0.8740  0.9964  1.2626
  257MOL0    Cl33836   2.627   7.466   7.616  0.1129  0.3491 -0.0323
  257MOL0     C33837   2.477   8.555   7.570 -0.2672  0.2520 -0.1955
  257MOL0     C33838   2.517   8.688   7.568 -0.0719 -0.2482 -0.7421
  257MOL0     O33839   2.348   8.905   7.838  0.8048  0.9178  0.4253
  257MOL0     C33840   2.592   9.130   7.680  0.6928 -0.0177 -0.1510
  257MOL0     C33841   2.649   9.259   7.707  0.3281 -0.4024  0.0291
  257MOL0     N33842   2.805   9.846   7.552  0.6247 -0.6769 -0.3362
  257MOL0     N33843   2.823   9.973   7.526  0.5345  0.6477  0.6152
  257MOL0     C33844   3.432  10.491   7.815 -0.3300 -1.0387 -0.3329
  257MOL0     C33845   3.413  10.397   7.919 -0.1875 -0.0660  1.3325
  257MOL0     C33846   3.147  10.066   8.130  0.8668  0.2439 -0.0230
  257MOL0     C33847   3.140  10.112   8.257  0.9604  0.0128 -0.8913
  257MOL0     C33848   3.092  10.034   8.364  0.5816 -0.1065  0.9319
  257MOL0     C33849   3.038   9.908   8.338 -0.3836  0.6755  0.3223
  257MOL0     O33850   2.970   9.844   8.440 -0.1217 -0.3816  0.0001
  257MOL0     C33851   2.953   9.886   8.574 -0.1907  0.1866 -0.0895
  257MOL0     C33852   3.068   9.837   8.662 -0.3100  0.2765 -0.2526
  257MOL0     C33853   3.079   9.902   8.793  0.1297  0.1315 -0.2245
  257MOL0     C33854   3.207   9.839   8.864 -0.5031 -0.7665  0.4468
  257MOL0     C33855   3.320   9.922   8.843  0.4825  0.7200 -0.0430
  257MOL0     C33856   3.414   9.990   8.830 -0.3756  0.1955  0.4096
  257MOL0     C33857   3.045   9.862   8.213  0.0996  1.0242  0.2171
  257MOL0     C33858   3.095   9.931   8.109 -0.5294 -0.1612  0.6229
  257MOL0     H33859   3.081  10.424   7.981  0.8138  1.4175  0.7974
  257MOL0     H33860   3.107  10.574   7.761  0.5437 -0.0589 -0.5662
  257MOL0     H33861   3.515  10.691   7.603 -1.1203  3.4967 -1.6006
  257MOL0     H33862   3.388  10.715   7.478 -2.6013 -2.1051 -1.2570
  257MOL0     H33863   3.539  10.468   7.551  1.0016  1.9478  1.1153
  257MOL0     H33864   3.502  10.538   7.399  0.9980  0.6922  0.5519
  257MOL0     H33865   3.310  10.385   7.571 -2.9226 -2.4956 -0.7466
  257MOL0     H33866   3.386  10.337   7.422  0.1494  3.4400 -4.5387
  257MOL0     H33867   3.182  10.567   7.459 -2.2561  0.2038 -0.2000
  257MOL0     H33868   3.262  10.549   7.305  1.2824 -1.8350 -0.5232
  257MOL0     H33869   3.168  10.314   7.304 -0.6908  1.4743 -2.3123
  257MOL0     H33870   3.045  10.433   7.278 -1.6200 -2.3599  0.6435
  257MOL0     H33871   2.932  10.370   7.452  0.1673  0.5299 -1.8504
  257MOL0     H33872   3.064  10.397   7.563 -0.0319  0.7033 -1.1694
  257MOL0     H33873   2.993  10.147   7.411  0.9202 -1.2200 -0.5221
  257MOL0     H33874   3.151  10.162   7.488 -0.3901 -1.1299 -0.2387
  257MOL0     H33875   2.903  10.215   7.648  1.6884  1.7259  0.8669
  257MOL0     H33876   3.051  10.135   7.703 -0.1922  1.3162  0.2608
  257MOL0     H33877   3.063   9.895   7.737 -0.7440 -1.3472 -0.3650
  257MOL0     H33878   2.998   9.620   7.682  1.0965  1.8359  0.6469
  257MOL0     H33879   2.816   9.616   7.656  2.1564 -3.9133 -1.4511
  257MOL0     H33880   2.787   9.748   7.864 -0.2928  1.5189  0.3447
  257MOL0     H33881   2.955   9.739   7.907  1.5793 -1.1858 -1.5755
  257MOL0     H33882   2.944   9.467   7.896  1.1119 -0.7443  1.4841
  257MOL0     H33883   2.921   9.564   8.036  1.6018 -3.4000 -0.3898
  257MOL0     H33884   2.673   9.555   8.019 -0.0786 -0.2937  0.4866
  257MOL0     H33885   2.748   9.400   8.018  2.2863  1.1896 -0.0472
  257MOL0     H33886   2.503   9.338   8.003  0.5032  1.1822  0.7823
  257MOL0     H33887   2.378   9.153   7.945 -1.1991  0.3798 -1.0106
  257MOL0     H33888   2.192   8.798   7.622 -0.4024  0.1432 -0.2951
  257MOL0     H33889   2.125   8.576   7.585 -0.7664  1.7740 -3.1891
  257MOL0     H33890   2.459   8.240   7.597 -0.9594  0.7986  0.9048
  257MOL0     H33891   2.434   8.324   7.436 -0.1151  3.9087  0.8888
  257MOL0     H33892   2.343   8.132   7.373  1.9472  0.5916  1.9170
  257MOL0     H33893   2.194   8.196   7.456 -1.6773 -2.8313  1.8480
  257MOL0     H33894   2.205   7.991   7.554  0.5846 -1.9310 -4.7136
  257MOL0     H33895   2.304   8.091   7.665  0.1897 -1.1147  1.2059
  257MOL0     H33896   2.407   7.886   7.468  2.9339 -0.9259 -0.3052
  257MOL0     H33897   2.511   8.020   7.536 -1.4091  3.4768  0.7995
  257MOL0     H33898   2.349   7.810   7.687 -0.0511  0.4848  0.1235
  257MOL0     H33899   2.447   7.934   7.754  1.3230 -0.5244 -0.4443
  257MOL0     H33900   2.648   7.849   7.652  0.2153 -1.9601 -2.2309
  257MOL0     H33901   2.565   7.716   7.564  3.9895 -5.5080  3.4470
  257MOL0     H33902   2.597   7.750   7.857  1.6397 -2.9742  0.7044
  257MOL0     H33903   2.480   7.636   7.787 -0.7029  1.2310 -0.3286
  257MOL0     H33904   2.709   7.550   7.833  3.3193 -1.9570 -0.7552
  257MOL0     H33905   2.764   7.646   7.689 -0.6426  2.4536  0.0254
  257MOL0     H33906   2.560   8.490   7.595  1.6473  2.1312 -1.3131
  257MOL0     H33907   2.617   8.729   7.577 -0.3812  0.0457  4.1800
  257MOL0     H33908   2.621   9.069   7.596 -2.6553 -2.1729  0.0663
  257MOL0     H33909   2.733   9.291   7.646  0.1844  0.9992  0.5118
  257MOL0     H33910   3.532  10.513   7.779 -0.8501  0.7613 -0.7622
  257MOL0     H33911   3.490  10.327   7.951 -0.6581 -0.3546  1.8626
  257MOL0     H33912   3.194  10.204   8.276 -0.8021  1.2904 -1.7778
  257MOL0     H33913   3.093  10.070   8.467 -0.5742  2.5841  0.0741
  257MOL0     H33914   2.867   9.831   8.612 -0.0515  0.6233  0.8884
  257MOL0     H33915   2.920   9.990   8.586 -2.6998 -0.5724  0.0212
  257MOL0     H33916   3.052   9.730   8.680 -0.8144  0.4877  0.6697
  257MOL0     H33917   3.162   9.849   8.608 -1.6912  0.1749 -2.8452
  257MOL0     H33918   2.989   9.875   8.849  1.0946 -1.9922  0.4201
  257MOL0     H33919   3.088  10.011   8.783  2.1067 -0.1903 -3.0904
  257MOL0     H33920   3.185   9.828   8.971 -0.7322 -1.7953  0.3050
  257MOL0     H33921   3.231   9.739   8.826  2.5950  0.0474  0.0241
  257MOL0     H33922   3.506  10.045   8.823 -1.5261  2.3776  1.3754
  257MOL0     H33923   3.016   9.761   8.187  2.4349  0.1149  0.8632
  257MOL0     H33924   3.091   9.896   8.006 -0.2271  2.2701 -0.2898
  258MOL0     O33925   8.949   4.318   2.715  0.8934 -0.0971  0.3104
  258MOL0     C33926   9.063   4.303   2.754  0.5694 -0.2462 -1.8653
  258MOL0     O33927   9.104   4.231   2.859 -0.5293  0.1037 -0.1348
  258MOL0     C33928   9.007   4.154   2.926 -0.9843 -0.1585  0.5196
  258MOL0     C33929   9.052   4.019   2.954 -0.0352 -1.2677 -0.0311
  258MOL0     C33930   8.972   3.927   3.018  0.6885 -0.2400 -0.7891
  258MOL0     C33931   8.844   3.970   3.052 -0.1755 -0.4791  0.1797
  258MOL0     O33932   8.746   3.894   3.099 -0.1353 -0.3236  0.1431
  258MOL0     C33933   8.775   3.779   3.169 -0.1533 -0.6444  0.4609
  258MOL0     C33934   8.664   3.783   3.277  0.8972 -0.8238 -0.6114
  258MOL0     C33935   8.543   3.703   3.237 -0.9812  0.2076  0.6148
  258MOL0     C33936   8.451   3.677   3.363 -0.3567  0.4481  0.7809
  258MOL0     C33937   8.452   3.529   3.397  0.0950 -0.0943  0.2479
  258MOL0     C33938   8.379   3.511   3.531 -0.6581 -0.1084 -1.2168
  258MOL0     C33939   8.474   3.546   3.655 -0.2166  0.0362 -0.9242
  258MOL0     C33940   8.402   3.555   3.787 -0.0204  0.1396  1.2911
  258MOL0     N33941   8.288   3.456   3.803  0.4715 -1.0886  1.3188
  258MOL0     C33942   8.158   3.485   3.770  0.1541  0.2743 -0.2372
  258MOL0     C33943   8.090   3.370   3.806 -0.8761  0.2694  0.1104
  258MOL0     C33944   7.942   3.361   3.779 -0.4251 -0.4628 -0.3450
  258MOL0     C33945   7.867   3.400   3.901  0.7315  0.0881 -0.4361
  258MOL0     C33946   7.717   3.399   3.884 -0.8862 -0.1038 -0.2174
  258MOL0     C33947   7.640   3.465   3.998 -0.4440 -0.3255 -0.3549
  258MOL0     O33948   7.640   3.394   4.122  0.4707  0.4224  0.1533
  258MOL0     C33949   7.572   3.271   4.126 -0.7931 -0.3663 -0.8290
  258MOL0     C33950   7.493   3.219   4.021 -0.3092  1.0385  0.1216
  258MOL0     C33951   7.433   3.088   4.033 -0.0058 -0.1944  1.1558
  258MOL0     C33952   7.454   3.015   4.145  0.2500  0.1247  0.7462
  258MOL0     C33953   7.403   2.878   4.164  0.3242  0.2793 -0.8140
  258MOL0     O33954   7.458   2.788   4.248 -0.8480  0.1709 -0.5423
  258MOL0     C33955   7.446   2.646   4.224  0.2354  0.0051  0.1051
  258MOL0     C33956   7.368   2.564   4.311 -0.3821  0.2104  0.2788
  258MOL0     C33957   7.352   2.431   4.282  0.5627 -0.1788 -0.5335
  258MOL0     C33958   7.409   2.372   4.163 -0.1329 -0.8215 -1.1836
  258MOL0     O33959   7.393   2.241   4.122 -0.0602  0.8212  0.2172
  258MOL0     C33960   7.255   2.193   4.099  0.6223 -0.6166  0.2377
  258MOL0     C33961   7.244   2.052   4.143  0.1850  0.4708  0.4462
  258MOL0     C33962   7.143   1.984   4.058  1.1608 -0.0339 -0.0716
  258MOL0     C33963   7.130   1.828   4.083  0.6343 -0.2593 -0.6193
  258MOL0     C33964   7.019   1.761   3.992 -0.2341 -0.1709  1.3227
  258MOL0     C33965   7.065   1.750   3.845 -0.5899 -0.1830 -0.6936
  258MOL0     C33966   6.976   1.648   3.765  0.9574  0.4203 -0.7628
  258MOL0     C33967   6.831   1.715   3.751 -0.3893  0.3261  0.2477
  258MOL0    Cl33968   6.833   1.895   3.682  0.4254  0.0641  0.1779
  258MOL0     C33969   7.501   2.449   4.096 -0.1761  0.1976 -0.4734
  258MOL0     C33970   7.514   2.591   4.114  0.4757  0.8747  0.4545
  258MOL0     O33971   7.317   2.855   4.073  0.7436 -0.0955 -0.3866
  258MOL0     C33972   7.523   3.079   4.257  0.8951  0.3924 -0.7197
  258MOL0     C33973   7.582   3.206   4.246  0.1363  0.3498  1.1752
  258MOL0     N33974   8.183   3.275   3.860  0.7905 -0.2242  0.1111
  258MOL0     N33975   8.302   3.331   3.857  0.4467 -0.7394  0.4082
  258MOL0     C33976   8.790   4.095   3.014 -0.1231  0.6059 -0.0796
  258MOL0     C33977   8.875   4.191   2.952  0.6155  0.2540  0.3400
  258MOL0     C33978   9.163   4.363   2.673  0.2670  0.6968 -0.3931
  258MOL0     C33979   9.142   4.492   2.619  0.4302 -0.2995  0.2801
  258MOL0     C33980   9.242   4.546   2.530  0.3559  0.0329  1.4267
  258MOL0     C33981   9.347   4.466   2.483 -0.2146 -0.1628 -0.7306
  258MOL0     O33982   9.442   4.516   2.396  0.2236  0.6782 -0.7825
  258MOL0     C33983   9.499   4.433   2.296  1.0276 -0.4276 -0.0620
  258MOL0     C33984   9.446   4.481   2.162 -0.1195  0.0123 -0.0184
  258MOL0     C33985   9.479   4.362   2.068  0.2788  0.1529  0.1160
  258MOL0     C33986   9.483   4.379   1.917 -0.3242  0.3732  0.4364
  258MOL0     C33987   9.348   4.384   1.868  0.3448 -0.1203 -0.7548
  258MOL0     C33988   9.244   4.426   1.824 -0.1050  1.1433  0.8620
  258MOL0     C33989   9.359   4.336   2.540 -0.0011  1.1516 -0.1590
  258MOL0     C33990   9.269   4.283   2.634  0.3977 -0.8634  0.6672
  258MOL0     H33991   9.149   3.992   2.913 -1.6477 -4.7648 -1.9618
  258MOL0     H33992   9.006   3.825   3.035 -2.4310 -1.1201  0.8923
  258MOL0     H33993   8.878   3.787   3.205  0.3019  1.4125 -1.0956
  258MOL0     H33994   8.755   3.696   3.100  2.3754 -1.5896  0.7659
  258MOL0     H33995   8.641   3.886   3.306  1.2081 -0.5083 -1.4380
  258MOL0     H33996   8.707   3.725   3.359  2.5340  0.7669 -0.2568
  258MOL0     H33997   8.570   3.609   3.188 -0.3447 -0.1648  1.6333
  258MOL0     H33998   8.495   3.769   3.164 -0.4744 -1.6248 -1.4753
  258MOL0     H33999   8.499   3.742   3.436  1.3289  1.3951 -1.0688
  258MOL0     H34000   8.347   3.710   3.352 -0.2857  0.7234  0.9265
  258MOL0     H34001   8.552   3.487   3.404  0.0945  0.0480  1.2560
  258MOL0     H34002   8.403   3.473   3.317 -2.0193 -0.4239  1.6747
  258MOL0     H34003   8.340   3.409   3.532  0.6242 -0.6233  0.2511
  258MOL0     H34004   8.290   3.573   3.543  1.0347  1.9220  2.9073
  258MOL0     H34005   8.558   3.477   3.671 -2.3833 -2.5139  0.3059
  258MOL0     H34006   8.504   3.650   3.637  0.3993  0.1611  0.6895
  258MOL0     H34007   8.368   3.656   3.813 -1.9448 -0.5792  1.7355
  258MOL0     H34008   8.474   3.528   3.865  1.0594 -0.3081  0.1742
  258MOL0     H34009   8.115   3.571   3.721  0.4374  1.8892  2.1536
  258MOL0     H34010   7.915   3.255   3.770 -1.2544 -0.4037  1.1453
  258MOL0     H34011   7.912   3.420   3.692 -1.8581  2.3981  1.9200
  258MOL0     H34012   7.892   3.503   3.928 -2.2534  0.7692  0.0844
  258MOL0     H34013   7.892   3.330   3.981  4.0818 -0.1099 -1.5054
  258MOL0     H34014   7.703   3.450   3.788  1.5924 -1.4968 -1.3972
  258MOL0     H34015   7.682   3.297   3.867 -0.6034  0.1950 -3.1709
  258MOL0     H34016   7.537   3.488   3.971 -0.9737 -1.1783  0.8318
  258MOL0     H34017   7.684   3.564   4.013  0.0193  0.3427 -4.8548
  258MOL0     H34018   7.481   3.266   3.925 -1.9896  2.5271  1.0076
  258MOL0     H34019   7.369   3.052   3.953  0.3368  0.6906  0.4639
  258MOL0     H34020   7.330   2.611   4.401 -1.0336 -1.6139  0.9922
  258MOL0     H34021   7.300   2.370   4.356  4.5110 -2.2666  0.8400
  258MOL0     H34022   7.229   2.200   3.993  1.0397 -1.2732  0.0856
  258MOL0     H34023   7.179   2.251   4.152  2.4650  1.6245  0.6041
  258MOL0     H34024   7.230   2.044   4.251  3.0793  4.1359  1.3045
  258MOL0     H34025   7.333   2.006   4.100 -3.4339 -3.6776 -3.7187
  258MOL0     H34026   7.138   2.008   3.951  1.4110  1.0626  0.1464
  258MOL0     H34027   7.053   2.024   4.106 -0.0685 -0.1360 -2.1732
  258MOL0     H34028   7.226   1.776   4.088  0.6594 -0.1874 -0.3132
  258MOL0     H34029   7.089   1.819   4.184  4.0140  0.2236  0.9557
  258MOL0     H34030   6.937   1.835   3.991 -2.1307 -2.1630  0.6290
  258MOL0     H34031   6.989   1.659   4.019 -0.1536 -0.5998 -0.1127
  258MOL0     H34032   7.166   1.709   3.855 -1.0356 -1.1483  0.0399
  258MOL0     H34033   7.068   1.849   3.799  0.7816  2.0839  3.6741
  258MOL0     H34034   7.023   1.629   3.667  0.2734 -0.1205 -0.9896
  258MOL0     H34035   6.984   1.550   3.812 -0.6157  0.3954 -0.5007
  258MOL0     H34036   6.791   1.731   3.852  3.3027  1.4965  1.6592
  258MOL0     H34037   6.759   1.651   3.698  0.2716 -1.1482  1.0468
  258MOL0     H34038   7.559   2.412   4.012 -2.2110 -0.2211 -1.7707
  258MOL0     H34039   7.581   2.646   4.048  1.5449 -0.7928  0.0857
  258MOL0     H34040   7.535   3.017   4.346  2.5116 -3.5683 -3.4024
  258MOL0     H34041   7.626   3.259   4.330 -0.5468 -1.4254  2.7327
  258MOL0     H34042   8.687   4.128   3.023 -0.2663 -0.0641  0.8846
  258MOL0     H34043   8.847   4.290   2.919 -0.7531  0.3552  1.6681
  258MOL0     H34044   9.059   4.558   2.644  2.7661  2.7698  0.5921
  258MOL0     H34045   9.241   4.643   2.481 -0.3436 -1.5624 -2.0637
  258MOL0     H34046   9.469   4.328   2.302 -2.8875  0.6030  1.4432
  258MOL0     H34047   9.608   4.431   2.307  0.9277 -0.2191  1.1123
  258MOL0     H34048   9.339   4.501   2.172  0.2733  2.6090 -0.4114
  258MOL0     H34049   9.486   4.579   2.134 -2.3631  1.4512  1.4897
  258MOL0     H34050   9.423   4.274   2.098  1.2903  0.4646  3.3782
  258MOL0     H34051   9.586   4.346   2.087  0.4510  2.3413  1.3762
  258MOL0     H34052   9.540   4.467   1.885  2.4218 -1.2862  0.3842
  258MOL0     H34053   9.545   4.300   1.872  1.7761  2.9023 -1.4621
  258MOL0     H34054   9.150   4.454   1.782 -1.1159 -2.1861  0.6289
  258MOL0     H34055   9.437   4.262   2.526 -3.4945 -3.0291  0.2955
  258MOL0     H34056   9.285   4.181   2.669 -0.9630 -1.2224  0.3327
  259MOL0     O34057   8.857   5.480   6.174 -0.1056 -0.8568 -0.2432
  259MOL0     C34058   8.921   5.504   6.276 -0.6762  0.4802  1.2806
  259MOL0     O34059   8.864   5.504   6.405 -0.2297  0.4673  1.1451
  259MOL0     C34060   8.745   5.435   6.425  0.8463  0.8153  0.7221
  259MOL0     C34061   8.659   5.486   6.515 -1.0146  0.3306  0.4216
  259MOL0     C34062   8.542   5.415   6.546 -0.3937 -0.2241 -0.3076
  259MOL0     C34063   8.509   5.300   6.486  0.0143  0.5829 -0.0803
  259MOL0     O34064   8.391   5.235   6.513  0.6222 -0.1203 -0.5576
  259MOL0     C34065   8.398   5.114   6.580  0.4359  0.0449  0.1333
  259MOL0     C34066   8.300   5.014   6.494 -1.0988  0.8402 -0.4959
  259MOL0     C34067   8.336   4.872   6.504  0.3135  0.2103 -0.6169
  259MOL0     C34068   8.234   4.767   6.478 -0.2872  0.1824 -0.4699
  259MOL0     C34069   8.300   4.632   6.488  0.2340  0.0907 -0.4864
  259MOL0     C34070   8.202   4.514   6.480  0.4146  0.0007 -0.6212
  259MOL0     C34071   8.277   4.377   6.452  0.0387 -0.7008 -0.1890
  259MOL0     C34072   8.205   4.247   6.500  0.0125 -1.6506 -0.5693
  259MOL0     N34073   8.079   4.205   6.436  0.7351 -0.4102 -0.6995
  259MOL0     C34074   8.038   4.263   6.317 -0.4585 -0.0078 -0.1977
  259MOL0     C34075   7.937   4.184   6.278 -1.3899  1.7557 -1.0148
  259MOL0     C34076   7.856   4.204   6.149  0.7146 -0.2428 -0.4618
  259MOL0     C34077   7.729   4.295   6.161  0.1390 -0.5558  0.2397
  259MOL0     C34078   7.783   4.442   6.170  0.4724  0.1776  1.1272
  259MOL0     C34079   7.670   4.546   6.190  0.6733 -0.9203  0.0182
  259MOL0     O34080   7.720   4.658   6.276 -0.7014 -0.0838 -0.5106
  259MOL0     C34081   7.798   4.754   6.228 -0.2017  0.1938  0.4376
  259MOL0     C34082   7.857   4.752   6.098  0.5104 -1.2950  0.5537
  259MOL0     C34083   7.950   4.857   6.061  0.3228  0.1834  0.3755
  259MOL0     C34084   7.978   4.960   6.143  0.5099  0.2147  0.2088
  259MOL0     C34085   8.071   5.067   6.098  0.3012  0.1551  0.2708
  259MOL0     O34086   8.071   5.177   6.169 -1.1746 -0.4459 -0.2708
  259MOL0     C34087   8.168   5.273   6.148  0.1465 -0.0259 -0.7885
  259MOL0     C34088   8.302   5.252   6.119 -0.3912 -0.2890  0.1115
  259MOL0     C34089   8.383   5.373   6.101 -0.7512  0.1783 -0.6837
  259MOL0     C34090   8.331   5.504   6.108 -0.1834  0.7634 -0.9056
  259MOL0     O34091   8.405   5.614   6.091  0.8785  0.0639 -0.9470
  259MOL0     C34092   8.545   5.612   6.135 -0.0320  0.1859  0.1917
  259MOL0     C34093   8.595   5.756   6.140 -1.3683 -0.4951 -0.2899
  259MOL0     C34094   8.525   5.827   6.262  1.2740 -0.2752  0.3312
  259MOL0     C34095   8.597   5.969   6.271  0.1040  0.3996  0.4712
  259MOL0     C34096   8.590   6.038   6.410  0.1666  0.6193  0.3346
  259MOL0     C34097   8.664   6.169   6.400 -0.5145  1.3502 -0.6663
  259MOL0     C34098   8.601   6.269   6.293 -0.2384  0.7126  0.9377
  259MOL0     C34099   8.652   6.409   6.320 -0.3403 -0.4188  0.0569
  259MOL0    Cl34100   8.826   6.423   6.253 -0.1635 -0.2554  0.3492
  259MOL0     C34101   8.196   5.518   6.137 -0.3944 -0.6793 -1.0568
  259MOL0     C34102   8.112   5.406   6.147 -0.3254  0.5526 -0.0220
  259MOL0     O34103   8.132   5.050   5.990  0.3533  0.3520  0.6769
  259MOL0     C34104   7.910   4.971   6.273 -1.1685 -0.4461  0.3183
  259MOL0     C34105   7.826   4.865   6.310 -0.8388  0.5764  0.5646
  259MOL0     N34106   7.911   4.091   6.379 -0.1898  0.7799 -0.7720
  259MOL0     N34107   8.006   4.098   6.460  0.4774 -0.0738  0.8433
  259MOL0     C34108   8.593   5.252   6.388 -0.5380 -0.0622  1.1795
  259MOL0     C34109   8.714   5.312   6.360  0.8270 -0.2620  0.2059
  259MOL0     C34110   9.066   5.524   6.260  0.0158 -0.5764 -0.5021
  259MOL0     C34111   9.126   5.521   6.131 -1.1840  0.7257  0.1752
  259MOL0     C34112   9.262   5.558   6.110 -0.1474  0.7065  0.1955
  259MOL0     C34113   9.347   5.580   6.224  0.3661  0.7279  0.3034
  259MOL0     O34114   9.475   5.611   6.195  0.1596 -0.2757 -0.1373
  259MOL0     C34115   9.582   5.567   6.268 -1.4825 -0.3353 -0.4259
  259MOL0     C34116   9.655   5.447   6.189 -0.8393  0.4527 -0.3476
  259MOL0     C34117   9.810   5.454   6.196 -0.2883 -0.6949  0.4447
  259MOL0     C34118   9.874   5.448   6.341 -0.6056 -0.6219  0.2364
  259MOL0     C34119   9.811   5.349   6.431  0.4179 -0.4369  0.9125
  259MOL0     C34120   9.760   5.277   6.509  0.4913 -0.3522  0.0236
  259MOL0     C34121   9.284   5.584   6.356 -0.2810 -0.1218  1.1014
  259MOL0     C34122   9.155   5.553   6.364  0.4692 -0.2345 -0.2498
  259MOL0     H34123   8.692   5.570   6.575  1.0903  0.3649 -0.6977
  259MOL0     H34124   8.463   5.461   6.604  0.3033  2.4765 -1.3243
  259MOL0     H34125   8.376   5.116   6.687 -0.8107 -3.4690  0.0739
  259MOL0     H34126   8.500   5.079   6.563  0.7203  1.7308 -2.2018
  259MOL0     H34127   8.312   5.054   6.393  1.0156  0.3523 -0.4742
  259MOL0     H34128   8.198   5.035   6.527 -0.6954 -0.5972  1.9234
  259MOL0     H34129   8.376   4.863   6.605 -0.4144 -1.5860 -0.4587
  259MOL0     H34130   8.416   4.850   6.433  0.8304  1.1820 -0.3550
  259MOL0     H34131   8.147   4.777   6.543 -0.7838  3.4201 -1.4406
  259MOL0     H34132   8.202   4.783   6.375 -0.3711  0.8649 -0.3386
  259MOL0     H34133   8.350   4.618   6.584 -2.4354 -1.4030  0.7809
  259MOL0     H34134   8.370   4.614   6.405 -1.6092 -0.2906 -2.0307
  259MOL0     H34135   8.126   4.531   6.403 -1.2348 -1.3171  0.6554
  259MOL0     H34136   8.153   4.499   6.576  1.8365 -0.5742  0.0411
  259MOL0     H34137   8.293   4.380   6.344 -2.2041  1.6510 -0.5426
  259MOL0     H34138   8.373   4.392   6.502  0.9684 -1.7625 -1.5708
  259MOL0     H34139   8.187   4.265   6.607 -0.3424  2.2794 -1.1255
  259MOL0     H34140   8.275   4.163   6.501 -1.1076 -2.6074 -0.9439
  259MOL0     H34141   8.070   4.353   6.266 -2.0418 -0.3516 -1.8864
  259MOL0     H34142   7.812   4.109   6.119  3.1704 -1.3806 -0.6971
  259MOL0     H34143   7.922   4.228   6.065  1.0466  1.7765  0.3189
  259MOL0     H34144   7.683   4.260   6.254 -1.3036 -0.6685 -0.4905
  259MOL0     H34145   7.656   4.281   6.081  3.1633 -1.8902 -2.5473
  259MOL0     H34146   7.837   4.448   6.265 -0.9392  1.9102  1.8905
  259MOL0     H34147   7.845   4.470   6.085 -0.7943 -1.7064 -0.4941
  259MOL0     H34148   7.584   4.494   6.235 -0.8381  3.7808  3.4143
  259MOL0     H34149   7.630   4.596   6.101 -0.6129  0.6164  1.3907
  259MOL0     H34150   7.821   4.675   6.030 -1.0213  0.5574 -0.8656
  259MOL0     H34151   7.994   4.850   5.962 -0.6429  1.4206 -0.1724
  259MOL0     H34152   8.330   5.148   6.123 -0.0959 -0.2574 -0.8245
  259MOL0     H34153   8.483   5.343   6.070 -1.2765 -2.7345  0.1449
  259MOL0     H34154   8.600   5.553   6.060  1.4079  1.6467  0.0455
  259MOL0     H34155   8.564   5.561   6.230  2.6845 -2.6708 -1.6854
  259MOL0     H34156   8.577   5.799   6.041 -2.9866 -0.1979  0.1055
  259MOL0     H34157   8.703   5.750   6.157 -1.0874 -3.4193 -2.3434
  259MOL0     H34158   8.540   5.767   6.352 -0.4332  2.5958  2.6971
  259MOL0     H34159   8.416   5.837   6.261  1.3567  0.8202  1.2983
  259MOL0     H34160   8.701   5.959   6.240 -0.9119 -2.1757 -2.7104
  259MOL0     H34161   8.554   6.032   6.194 -1.6924  0.2343  1.2771
  259MOL0     H34162   8.645   5.970   6.475 -0.1472  2.3813  2.5599
  259MOL0     H34163   8.488   6.055   6.447  1.2772  1.8308  3.1412
  259MOL0     H34164   8.771   6.157   6.383 -0.1599 -0.0099  1.9397
  259MOL0     H34165   8.662   6.216   6.499  0.6757  0.3455 -0.1417
  259MOL0     H34166   8.629   6.232   6.194  0.4261 -1.2702  1.8084
  259MOL0     H34167   8.492   6.267   6.303 -0.2364  0.1853  0.8922
  259MOL0     H34168   8.647   6.420   6.429 -0.2617 -3.1706  0.4234
  259MOL0     H34169   8.581   6.468   6.262 -0.9162 -1.9887 -0.9154
  259MOL0     H34170   8.152   5.617   6.136  0.1847 -0.3665  0.6516
  259MOL0     H34171   8.009   5.438   6.154  0.6488  3.6430  2.4780
  259MOL0     H34172   7.929   5.067   6.320 -0.3126  1.3151 -3.3043
  259MOL0     H34173   7.796   4.866   6.414  2.6423 -2.2552  1.7827
  259MOL0     H34174   8.554   5.162   6.342 -3.1347  1.0344  1.0646
  259MOL0     H34175   8.773   5.267   6.281 -0.6523 -2.1035  0.0754
  259MOL0     H34176   9.065   5.506   6.043  1.1792 -1.2060 -1.2863
  259MOL0     H34177   9.306   5.567   6.011  4.0534  0.4753  1.8202
  259MOL0     H34178   9.565   5.530   6.369 -0.5584  0.0315 -0.1206
  259MOL0     H34179   9.644   5.657   6.277 -2.1971 -0.0668  2.9132
  259MOL0     H34180   9.613   5.347   6.206 -1.2071 -0.8439 -6.4342
  259MOL0     H34181   9.621   5.455   6.085 -0.2736  1.5936 -0.4611
  259MOL0     H34182   9.853   5.548   6.158  1.5765 -1.1613  1.3002
  259MOL0     H34183   9.850   5.376   6.131  1.9303  1.2997 -0.7475
  259MOL0     H34184   9.979   5.417   6.336 -0.1448  1.0402 -1.7729
  259MOL0     H34185   9.867   5.548   6.385  0.9809 -0.1870 -0.4127
  259MOL0     H34186   9.712   5.211   6.579 -1.5285  2.5347  1.5516
  259MOL0     H34187   9.350   5.609   6.439 -1.3776  0.0631  1.9468
  259MOL0     H34188   9.118   5.559   6.466  1.2256  2.0982 -0.0436
  260MOL0     O34189  11.102   3.817   0.664  0.6687  0.5303 -0.2170
  260MOL0     C34190  11.129   3.810   0.542 -0.3639 -1.4619 -0.9640
  260MOL0     O34191  11.057   3.859   0.437 -0.4250 -0.4001  0.4734
  260MOL0     C34192  10.922   3.893   0.443  0.3154  0.8074 -0.3022
  260MOL0     C34193  10.837   3.896   0.556 -0.4474 -0.1428  0.7140
  260MOL0     C34194  10.719   3.966   0.546  0.9865  0.4544  0.6650
  260MOL0     C34195  10.675   4.026   0.431 -0.1247 -0.5944 -0.8126
  260MOL0     O34196  10.550   4.092   0.416  0.5181 -0.1656 -0.0702
  260MOL0     C34197  10.474   4.100   0.529  0.3403  0.7835 -0.7630
  260MOL0     C34198  10.349   4.186   0.531  0.5238 -0.2963  0.2189
  260MOL0     C34199  10.357   4.338   0.548  0.5417  1.1841  0.0422
  260MOL0     C34200  10.457   4.413   0.461  0.3315  0.3554 -0.5716
  260MOL0     C34201  10.456   4.557   0.495 -0.1967  0.6387  0.4138
  260MOL0     C34202  10.527   4.643   0.398 -0.2359 -0.4705  0.0467
  260MOL0     C34203  10.685   4.613   0.405  0.9346 -0.3349 -0.8893
  260MOL0     C34204  10.752   4.648   0.285  0.6472  0.2794  0.0301
  260MOL0     N34205  10.706   4.571   0.166 -0.6869 -0.6266 -0.0059
  260MOL0     C34206  10.705   4.435   0.164  0.7471 -1.3531 -0.5878
  260MOL0     C34207  10.715   4.402   0.035 -0.3576  0.0789  0.1605
  260MOL0     C34208  10.736   4.260  -0.023 -0.8765  1.2415 -0.0229
  260MOL0     C34209  10.870   4.242  -0.097 -0.3586  0.1789 -0.5017
  260MOL0     C34210  10.984   4.239   0.002  0.1823  0.2653  0.8716
  260MOL0     C34211  11.025   4.371   0.054  0.6870  0.0536 -0.1477
  260MOL0     O34212  11.162   4.377   0.077 -0.1944 -0.3870  0.7026
  260MOL0     C34213  11.233   4.497   0.054  0.2901 -0.2488 -0.3367
  260MOL0     C34214  11.373   4.498   0.063 -0.7125  0.7313 -0.5879
  260MOL0     C34215  11.445   4.610   0.032 -0.3384  0.2527  0.9247
  260MOL0     C34216  11.382   4.741   0.027  0.8628 -0.0658  0.1830
  260MOL0     C34217  11.463   4.858   0.016  0.7720 -0.5023  0.7690
  260MOL0     O34218  11.594   4.849   0.032  0.0893 -0.0288  0.7190
  260MOL0     C34219  11.681   4.942  -0.018  0.2980 -0.1792  0.3106
  260MOL0     C34220  11.651   5.062  -0.098 -0.0401 -0.5651  0.2591
  260MOL0     C34221  11.756   5.133  -0.148  0.3628  1.0495 -0.5383
  260MOL0     C34222  11.887   5.099  -0.126  0.1407  0.6584  0.9515
  260MOL0     O34223  12.000   5.163  -0.179 -0.3107  0.2824  0.0454
  260MOL0     C34224  11.978   5.227  -0.297 -0.4537 -0.3550  1.2793
  260MOL0     C34225  12.122   5.262  -0.350 -0.5668  0.3748 -0.4968
  260MOL0     C34226  12.128   5.384  -0.442  0.3892 -0.3196 -0.0250
  260MOL0     C34227  12.043   5.359  -0.565 -0.3426  0.2290 -0.0302
  260MOL0     C34228  12.051   5.486  -0.656 -0.1511 -0.1178  0.0892
  260MOL0     C34229  11.937   5.484  -0.761 -0.2063  0.4117 -0.2322
  260MOL0     C34230  11.933   5.351  -0.851 -0.5064 -0.9333  0.7393
  260MOL0     C34231  11.807   5.346  -0.946 -0.3771  0.8025 -0.1192
  260MOL0    Cl34232  11.801   5.487  -1.058 -0.0859  0.5796  0.1998
  260MOL0     C34233  11.918   4.990  -0.045 -0.2552  0.1771 -0.9802
  260MOL0     C34234  11.812   4.922   0.018 -1.1583  0.6137 -0.2758
  260MOL0     O34235  11.402   4.966   0.019  0.2449 -0.3573 -0.5175
  260MOL0     C34236  11.248   4.746   0.039  1.1782  0.3011  0.0636
  260MOL0     C34237  11.175   4.626   0.048  1.0759 -0.1140 -0.7345
  260MOL0     N34238  10.701   4.516  -0.035 -0.0864  0.1412 -0.1083
  260MOL0     N34239  10.695   4.622   0.044  1.1692  0.2115 -0.3083
  260MOL0     C34240  10.763   4.027   0.326 -0.2057 -0.0395  0.7964
  260MOL0     C34241  10.882   3.966   0.334 -0.3581  1.3353  0.2783
  260MOL0     C34242  11.264   3.737   0.512  0.6540 -0.3155 -0.2176
  260MOL0     C34243  11.317   3.759   0.386  0.2442 -0.5372  0.3681
  260MOL0     C34244  11.442   3.710   0.358  0.5766  0.4586  0.9010
  260MOL0     C34245  11.506   3.628   0.447  0.4887  0.4563 -0.7117
  260MOL0     O34246  11.631   3.563   0.430  0.4970 -0.1371  0.3797
  260MOL0     C34247  11.701   3.570   0.303  0.4408  0.3301 -0.6645
  260MOL0     C34248  11.792   3.692   0.305 -0.3551  0.0576 -0.1002
  260MOL0     C34249  11.869   3.717   0.168 -0.1278  0.2767 -1.1609
  260MOL0     C34250  11.972   3.833   0.195 -0.2551 -0.0458  0.8251
  260MOL0     C34251  11.891   3.949   0.234  0.8972  1.0250 -0.7377
  260MOL0     C34252  11.805   4.022   0.284 -0.8173  0.3498 -0.2073
  260MOL0     C34253  11.452   3.598   0.575  0.5546 -0.0253  0.0920
  260MOL0     C34254  11.330   3.659   0.613 -0.3047  1.0870  0.1531
  260MOL0     H34255  10.859   3.843   0.648 -3.3328 -3.1207 -0.0705
  260MOL0     H34256  10.665   3.971   0.640  1.1308  0.9648  0.7246
  260MOL0     H34257  10.514   4.126   0.627 -5.6880  1.3798  2.0434
  260MOL0     H34258  10.434   4.000   0.549 -0.2114  0.8990 -1.2526
  260MOL0     H34259  10.283   4.144   0.608 -0.6939  0.8065 -0.1822
  260MOL0     H34260  10.300   4.157   0.437  0.0422 -1.8438  0.9227
  260MOL0     H34261  10.379   4.353   0.655 -1.4061  3.2861  0.2114
  260MOL0     H34262  10.265   4.390   0.523 -1.0697  0.6911  4.1695
  260MOL0     H34263  10.553   4.362   0.471 -1.3413 -3.1253 -0.6909
  260MOL0     H34264  10.426   4.406   0.357 -0.9701 -0.9363 -0.1362
  260MOL0     H34265  10.509   4.570   0.589 -0.8516 -2.0391  1.2676
  260MOL0     H34266  10.352   4.587   0.508 -0.7075 -0.4911 -0.7808
  260MOL0     H34267  10.524   4.741   0.447 -0.9340 -0.7032  0.4865
  260MOL0     H34268  10.491   4.630   0.295  1.0440 -2.4849 -0.2128
  260MOL0     H34269  10.731   4.658   0.494 -2.0791 -1.5911  1.4677
  260MOL0     H34270  10.712   4.509   0.426 -2.3845 -1.1711 -0.3019
  260MOL0     H34271  10.858   4.628   0.305  0.1871 -2.3475  0.1691
  260MOL0     H34272  10.733   4.755   0.278  2.7199  0.6998  0.1169
  260MOL0     H34273  10.692   4.373   0.251 -1.4197  0.7188  0.6803
  260MOL0     H34274  10.657   4.248  -0.098 -0.6295  3.8718 -0.8194
  260MOL0     H34275  10.725   4.189   0.059  0.5621  1.1579  0.1219
  260MOL0     H34276  10.887   4.313  -0.180  0.0428 -1.5002 -1.9119
  260MOL0     H34277  10.878   4.151  -0.157 -2.2584 -1.1393  1.1495
  260MOL0     H34278  10.958   4.166   0.079  0.7704 -1.1785 -0.2412
  260MOL0     H34279  11.063   4.181  -0.047 -0.4551  0.5712 -0.5601
  260MOL0     H34280  10.988   4.403   0.152 -0.6768  2.3442 -1.3096
  260MOL0     H34281  10.989   4.443  -0.021 -3.8100 -0.6286  1.0809
  260MOL0     H34282  11.435   4.412   0.089  1.1482  2.2673  0.3227
  260MOL0     H34283  11.553   4.611   0.042 -0.2060 -1.6385  0.1470
  260MOL0     H34284  11.547   5.073  -0.128 -0.1130 -0.8360  0.4104
  260MOL0     H34285  11.737   5.228  -0.197  1.0411  3.4758  3.4301
  260MOL0     H34286  11.930   5.325  -0.289  0.2766  0.1442 -0.0940
  260MOL0     H34287  11.921   5.174  -0.373 -0.5008 -1.0681  1.7956
  260MOL0     H34288  12.148   5.177  -0.412 -0.8223  1.3395 -1.9694
  260MOL0     H34289  12.186   5.274  -0.262 -1.6104 -0.8879  0.4747
  260MOL0     H34290  12.232   5.399  -0.473  1.2229  0.1248  2.7322
  260MOL0     H34291  12.096   5.477  -0.395  1.5455 -0.7295  1.6598
  260MOL0     H34292  12.054   5.262  -0.612 -2.9451  0.6270 -1.6784
  260MOL0     H34293  11.942   5.357  -0.522  0.1121 -0.4106  1.0336
  260MOL0     H34294  12.145   5.488  -0.713 -1.0521 -0.5946 -1.4724
  260MOL0     H34295  12.046   5.577  -0.596  3.4993  1.4488 -1.6571
  260MOL0     H34296  11.962   5.566  -0.829 -1.9459  2.0720  1.0003
  260MOL0     H34297  11.836   5.507  -0.726  0.1763  0.6812  0.7432
  260MOL0     H34298  12.026   5.337  -0.907 -0.2156 -1.2897  1.2958
  260MOL0     H34299  11.936   5.256  -0.797  1.6073 -0.9654  0.6555
  260MOL0     H34300  11.712   5.342  -0.892 -0.2659  4.9586  0.7445
  260MOL0     H34301  11.815   5.254  -1.005 -1.7010  0.0428  0.8307
  260MOL0     H34302  12.022   4.965  -0.031  0.3667  3.0710  0.3640
  260MOL0     H34303  11.831   4.846   0.094  0.4290  1.4753  0.2223
  260MOL0     H34304  11.194   4.840   0.052 -0.6133 -0.8967  2.0361
  260MOL0     H34305  11.067   4.623   0.063  1.2274 -1.9172  0.3577
  260MOL0     H34306  10.723   4.076   0.238  1.6152  1.0628  0.5454
  260MOL0     H34307  10.945   3.953   0.246 -1.9273  3.6000 -1.2967
  260MOL0     H34308  11.262   3.829   0.324 -0.4855 -0.4080  1.1442
  260MOL0     H34309  11.490   3.732   0.263  0.0288 -1.1658  0.2150
  260MOL0     H34310  11.629   3.574   0.222  1.8423 -0.9986 -2.0320
  260MOL0     H34311  11.772   3.490   0.281  1.9690  1.7204 -1.0989
  260MOL0     H34312  11.722   3.774   0.322 -0.3658 -0.3956  2.2817
  260MOL0     H34313  11.866   3.687   0.386 -2.0169 -0.5134  1.4303
  260MOL0     H34314  11.801   3.734   0.084 -1.9036  1.7890  0.4903
  260MOL0     H34315  11.934   3.631   0.151 -0.0323 -0.2711  1.5141
  260MOL0     H34316  12.052   3.814   0.267  2.2023  0.3775 -1.6617
  260MOL0     H34317  12.010   3.859   0.096 -0.9316  0.9445  0.8010
  260MOL0     H34318  11.745   4.099   0.330  1.6219  2.4587 -0.2944
  260MOL0     H34319  11.512   3.534   0.639  0.8806  1.4932  1.3928
  260MOL0     H34320  11.285   3.646   0.711 -1.8109 -1.9112 -0.8107
  261MOL0     O34321   9.998   2.557  10.977 -0.1510  0.3172 -0.1233
  261MOL0     C34322   9.956   2.668  10.964 -0.2816  0.6003 -0.0106
  261MOL0     O34323   9.839   2.707  11.018  0.2579  0.1523 -1.3145
  261MOL0     C34324   9.788   2.639  11.126 -0.0395  0.0624 -0.0810
  261MOL0     C34325   9.834   2.670  11.256  0.5858 -0.3325 -0.4471
  261MOL0     C34326   9.774   2.618  11.367 -0.1276  0.4890 -0.6236
  261MOL0     C34327   9.674   2.520  11.353 -0.2162  0.7239  1.0906
  261MOL0     O34328   9.623   2.456  11.465 -0.0966 -0.0686  0.1196
  261MOL0     C34329   9.486   2.475  11.498  0.2295  0.1245 -0.1319
  261MOL0     C34330   9.472   2.469  11.655  0.9373  0.5029  0.0252
  261MOL0     C34331   9.332   2.446  11.701  0.1698  0.2014 -0.0741
  261MOL0     C34332   9.310   2.454  11.856  0.5441  0.1491 -1.1239
  261MOL0     C34333   9.161   2.478  11.880  0.4376 -0.7106 -1.2159
  261MOL0     C34334   9.147   2.490  12.037 -0.2636  1.6484  0.1873
  261MOL0     C34335   9.001   2.503  12.076  0.1095 -0.5079 -0.8505
  261MOL0     C34336   8.900   2.577  11.983  0.4223  0.7499 -0.3725
  261MOL0     N34337   8.951   2.706  11.928 -0.3476 -0.3607 -0.7186
  261MOL0     C34338   8.964   2.825  12.002 -0.6120 -1.1490 -0.1901
  261MOL0     C34339   8.990   2.921  11.906  0.4278 -0.4014 -0.6299
  261MOL0     C34340   9.027   3.061  11.944 -0.6430  0.7653 -0.5221
  261MOL0     C34341   8.914   3.148  11.983  0.6053 -0.6268 -0.6940
  261MOL0     C34342   8.851   3.133  12.121  0.0801  0.1304 -0.0885
  261MOL0     C34343   8.732   3.218  12.158  0.3840  1.2500  0.0477
  261MOL0     O34344   8.767   3.350  12.204 -0.0200 -0.5055 -0.4437
  261MOL0     C34345   8.663   3.429  12.246  1.1246  0.6015 -0.2230
  261MOL0     C34346   8.634   3.540  12.174  0.7929 -0.3661 -0.6236
  261MOL0     C34347   8.552   3.635  12.224  0.4298 -0.1665  0.3715
  261MOL0     C34348   8.472   3.601  12.341  0.3513 -0.2299  0.3383
  261MOL0     C34349   8.370   3.699  12.393 -0.6468  0.0912  0.4651
  261MOL0     O34350   8.280   3.656  12.483  0.2440  0.2774  0.3245
  261MOL0     C34351   8.188   3.744  12.511 -0.1916 -0.2701  0.2749
  261MOL0     C34352   8.080   3.753  12.426 -0.3342  0.5746 -0.1328
  261MOL0     C34353   7.969   3.832  12.465  0.2353  0.1393  0.5368
  261MOL0     C34354   7.965   3.900  12.584  0.4024  0.5166  0.9381
  261MOL0     O34355   7.841   3.952  12.620  0.2221 -0.4691  0.4538
  261MOL0     C34356   7.832   4.057  12.714 -0.3328 -0.1719  0.3589
  261MOL0     C34357   7.706   4.017  12.795 -0.5196 -0.9651 -0.7152
  261MOL0     C34358   7.577   4.010  12.717 -0.7112 -0.2806 -0.2415
  261MOL0     C34359   7.461   3.958  12.803 -0.0401 -0.1746  1.1066
  261MOL0     C34360   7.339   3.972  12.707  0.4636 -0.0125 -0.3894
  261MOL0     C34361   7.218   3.917  12.782 -0.2908  0.1942 -0.1036
  261MOL0     C34362   7.080   3.931  12.708 -0.3257 -0.3784 -0.7359
  261MOL0     C34363   6.967   3.876  12.811 -0.6327  0.3483  0.6807
  261MOL0    Cl34364   6.804   3.843  12.731 -0.5089  0.3671 -0.0971
  261MOL0     C34365   8.086   3.905  12.659 -1.0808  0.1099 -0.9298
  261MOL0     C34366   8.194   3.826  12.623 -0.1558  0.7952 -0.5289
  261MOL0     O34367   8.381   3.816  12.355 -0.5157 -0.2302  0.4125
  261MOL0     C34368   8.501   3.488  12.412 -0.2199  0.2318 -1.0647
  261MOL0     C34369   8.589   3.400  12.361  0.6241  1.5273  0.1678
  261MOL0     N34370   8.974   2.865  11.787  0.2652  1.2919  0.1323
  261MOL0     N34371   8.937   2.741  11.795 -0.1683  1.1131  0.1957
  261MOL0     C34372   9.631   2.482  11.229 -0.1096 -0.1879  0.7492
  261MOL0     C34373   9.696   2.538  11.114 -1.8241 -0.3072 -0.1767
  261MOL0     C34374  10.025   2.767  10.871  0.4059  0.4009 -0.4515
  261MOL0     C34375  10.144   2.742  10.816  0.0409  0.2984 -0.6452
  261MOL0     C34376  10.199   2.827  10.718  0.0018  0.2214 -0.8381
  261MOL0     C34377  10.134   2.953  10.691  0.0039  0.1673  1.1884
  261MOL0     O34378  10.190   3.058  10.616  0.1099 -0.1040  0.0635
  261MOL0     C34379  10.292   3.046  10.519 -0.1569 -0.1234  0.4131
  261MOL0     C34380  10.299   3.166  10.428  0.5405 -0.1893  0.1796
  261MOL0     C34381  10.378   3.273  10.498  0.5015  0.1530 -0.0529
  261MOL0     C34382  10.528   3.239  10.516 -0.4154 -0.1412 -0.3662
  261MOL0     C34383  10.599   3.350  10.581 -0.2454 -0.3031 -0.4083
  261MOL0     C34384  10.653   3.446  10.627 -0.2668 -0.5655 -0.1922
  261MOL0     C34385  10.012   2.979  10.747 -1.1232  0.3516 -0.0842
  261MOL0     C34386   9.958   2.888  10.837 -0.6488 -0.0545  0.3628
  261MOL0     H34387   9.925   2.729  11.264  2.5296 -3.2441  0.9420
  261MOL0     H34388   9.804   2.644  11.468  0.9410 -0.8327 -0.5763
  261MOL0     H34389   9.435   2.395  11.443  1.4770  0.2639 -1.5568
  261MOL0     H34390   9.453   2.572  11.460  2.2156  2.4697  3.5320
  261MOL0     H34391   9.506   2.569  11.684 -0.0755  0.1021  2.8522
  261MOL0     H34392   9.531   2.386  11.695 -3.2691 -2.1000  1.4789
  261MOL0     H34393   9.309   2.346  11.663 -0.3796  0.8112 -1.4142
  261MOL0     H34394   9.258   2.511  11.653 -0.2655  1.0288  1.6259
  261MOL0     H34395   9.326   2.359  11.909 -2.2539  0.7634  1.0824
  261MOL0     H34396   9.368   2.538  11.896 -3.1241  3.7288 -2.5693
  261MOL0     H34397   9.100   2.395  11.844 -0.2038 -0.9580  0.3720
  261MOL0     H34398   9.118   2.568  11.834 -2.0780 -0.8531  0.6441
  261MOL0     H34399   9.195   2.581  12.073  1.5634  0.8507 -0.1322
  261MOL0     H34400   9.202   2.415  12.095  1.0634  3.6086  1.5611
  261MOL0     H34401   8.956   2.405  12.098 -0.7647  0.0356 -0.1592
  261MOL0     H34402   8.997   2.557  12.171  0.2622  0.8443 -1.5835
  261MOL0     H34403   8.811   2.601  12.042  1.1342  0.3176  0.9173
  261MOL0     H34404   8.854   2.528  11.896  1.9821 -1.4372 -0.0442
  261MOL0     H34405   8.976   2.842  12.108  0.9379 -0.1553 -0.4833
  261MOL0     H34406   9.066   3.114  11.857  0.6819  1.8074  0.6402
  261MOL0     H34407   9.101   3.064  12.025 -0.9339  0.9166 -0.2572
  261MOL0     H34408   8.830   3.117  11.921  0.8855 -3.3410  0.1541
  261MOL0     H34409   8.948   3.252  11.975 -0.4837 -0.1617  0.3261
  261MOL0     H34410   8.816   3.029  12.127 -0.2742  0.3070  5.0224
  261MOL0     H34411   8.927   3.142  12.199 -0.6026 -1.8377  0.8637
  261MOL0     H34412   8.693   3.166  12.246  2.3818  0.0016  0.2675
  261MOL0     H34413   8.655   3.227  12.081  1.6296  5.8825 -0.9492
  261MOL0     H34414   8.690   3.555  12.083  0.6583 -2.1626 -1.0480
  261MOL0     H34415   8.532   3.725  12.167 -0.0456  0.6794  1.8313
  261MOL0     H34416   8.073   3.693  12.335 -3.7076 -4.4404  2.8825
  261MOL0     H34417   7.882   3.825  12.399 -0.6246  1.6190  1.4627
  261MOL0     H34418   7.823   4.160  12.678  0.2878 -0.1163  0.3421
  261MOL0     H34419   7.920   4.062  12.779 -0.3232  1.7196  0.2411
  261MOL0     H34420   7.694   4.083  12.881 -1.0023 -1.8762 -0.0637
  261MOL0     H34421   7.714   3.917  12.839 -2.8736  0.2594  2.9528
  261MOL0     H34422   7.591   3.942  12.633  2.3766  1.0345 -0.9130
  261MOL0     H34423   7.548   4.112  12.689 -3.4182 -0.9141 -0.0233
  261MOL0     H34424   7.495   3.858  12.831 -2.4549 -1.9781 -1.7254
  261MOL0     H34425   7.441   4.026  12.886  0.6103  1.0817  0.2714
  261MOL0     H34426   7.349   3.927  12.608 -1.2158  0.5083 -0.8288
  261MOL0     H34427   7.319   4.078  12.691 -0.3303  0.4520  2.8329
  261MOL0     H34428   7.219   3.960  12.882  2.3645  1.3469 -0.5344
  261MOL0     H34429   7.228   3.808  12.791 -4.5319 -0.3408  0.3435
  261MOL0     H34430   7.051   4.036  12.694  0.6256  0.0701  0.4557
  261MOL0     H34431   7.090   3.877  12.614 -1.3261 -0.1170 -1.0118
  261MOL0     H34432   6.958   3.949  12.893  1.4005 -0.4664  1.7057
  261MOL0     H34433   7.005   3.788  12.863  1.5594  1.2824  0.8057
  261MOL0     H34434   8.103   3.959  12.752  1.5561 -2.1271  0.0466
  261MOL0     H34435   8.280   3.826  12.689 -2.3819  0.9450  2.6150
  261MOL0     H34436   8.461   3.467  12.510  2.0522  1.3744  0.1718
  261MOL0     H34437   8.625   3.326  12.433 -5.5774  1.3907  3.8780
  261MOL0     H34438   9.557   2.403  11.218 -1.4192  1.1034 -0.1321
  261MOL0     H34439   9.664   2.516  11.013 -0.2393 -0.2293 -0.7371
  261MOL0     H34440  10.200   2.653  10.843 -0.7948 -0.3014 -0.8764
  261MOL0     H34441  10.296   2.813  10.672 -0.9378  2.0472 -3.6264
  261MOL0     H34442  10.260   2.961  10.458 -0.2490 -0.5906  1.0957
  261MOL0     H34443  10.389   3.012  10.557  0.9906  0.8581 -1.5214
  261MOL0     H34444  10.346   3.142  10.332  1.3891 -0.6496  0.6962
  261MOL0     H34445  10.195   3.199  10.416 -0.5076 -2.3042  2.4897
  261MOL0     H34446  10.329   3.290  10.594 -1.6411 -0.0275 -1.0710
  261MOL0     H34447  10.366   3.364  10.438 -0.7273  0.1631  0.1871
  261MOL0     H34448  10.539   3.150  10.578  1.8880 -0.2231 -0.8170
  261MOL0     H34449  10.567   3.226  10.415 -2.1283  2.5677 -1.5145
  261MOL0     H34450  10.703   3.534  10.663 -1.5911  2.0975 -4.2153
  261MOL0     H34451   9.961   3.071  10.722 -1.5572 -0.2476 -1.5052
  261MOL0     H34452   9.865   2.915  10.887 -0.1651 -0.9816  1.8084
  262MOL0     O34453   0.791   1.717   9.070 -0.1678  0.3822 -0.4004
  262MOL0     C34454   0.696   1.641   9.073 -0.5298 -0.4223  0.8533
  262MOL0     O34455   0.568   1.674   9.106  0.8146  0.5096  0.6156
  262MOL0     C34456   0.529   1.803   9.146 -0.5328  0.4909  0.4739
  262MOL0     C34457   0.475   1.816   9.277  0.7249 -0.1276 -0.3165
  262MOL0     C34458   0.439   1.949   9.311  0.6016  0.7999 -0.5243
  262MOL0     C34459   0.460   2.067   9.237 -0.4977 -0.7717  0.2884
  262MOL0     O34460   0.435   2.191   9.281 -0.0969 -0.3450  0.3127
  262MOL0     C34461   0.336   2.219   9.376 -0.3657  0.9910  0.4350
  262MOL0     C34462   0.295   2.361   9.395  0.1419  0.4238 -0.1539
  262MOL0     C34463   0.418   2.460   9.417 -0.6493 -0.4283  0.9403
  262MOL0     C34464   0.376   2.612   9.405  0.8009 -0.2640 -0.1854
  262MOL0     C34465   0.458   2.745   9.432 -0.6274 -0.6182  0.4314
  262MOL0     C34466   0.496   2.760   9.584  0.0047  0.1946  0.1886
  262MOL0     C34467   0.592   2.866   9.606  0.2164 -1.2651 -0.2647
  262MOL0     C34468   0.529   3.008   9.595 -0.8218 -0.0282  0.5749
  262MOL0     N34469   0.638   3.095   9.651  0.1656 -0.5828  0.3732
  262MOL0     C34470   0.763   3.118   9.602 -0.4019 -1.5151 -0.2326
  262MOL0     C34471   0.831   3.170   9.716  0.2978  0.6596  0.7540
  262MOL0     C34472   0.976   3.200   9.717 -0.5027 -0.4450 -0.2687
  262MOL0     C34473   1.026   3.307   9.610  0.8647 -0.6185  1.5988
  262MOL0     C34474   1.173   3.340   9.625 -0.5097 -0.4432  0.3592
  262MOL0     C34475   1.242   3.347   9.765 -0.4784  0.2541  0.3864
  262MOL0     O34476   1.199   3.469   9.821  0.0816 -0.2560  0.8315
  262MOL0     C34477   1.287   3.569   9.836 -0.1658  0.1032 -0.2698
  262MOL0     C34478   1.236   3.680   9.912 -0.7061  0.1235  0.0557
  262MOL0     C34479   1.311   3.800   9.920  0.2530  0.0773  0.1336
  262MOL0     C34480   1.442   3.814   9.878 -0.3290  0.4713  0.2445
  262MOL0     C34481   1.520   3.937   9.886 -0.6867 -0.2659 -0.1221
  262MOL0     O34482   1.641   3.940   9.818  0.2134 -0.6592  0.4213
  262MOL0     C34483   1.703   4.064   9.802 -0.1838  0.6515  0.0468
  262MOL0     C34484   1.641   4.180   9.731 -1.0700  0.7794 -0.1764
  262MOL0     C34485   1.720   4.291   9.698 -0.6929  0.1243 -0.1527
  262MOL0     C34486   1.862   4.293   9.725  0.0075 -0.0035 -0.0997
  262MOL0     O34487   1.946   4.398   9.690 -0.3473  1.0710 -0.5209
  262MOL0     C34488   2.041   4.439   9.794 -0.2532  0.7174 -0.9602
  262MOL0     C34489   2.124   4.565   9.775  0.1806 -0.1699 -0.5468
  262MOL0     C34490   2.098   4.667   9.882 -0.1707 -0.0842  0.1159
  262MOL0     C34491   1.967   4.737   9.851 -0.2519 -0.0557  0.1368
  262MOL0     C34492   1.989   4.875   9.796  0.2957  0.0909  0.4938
  262MOL0     C34493   1.858   4.929   9.745 -0.5470  0.2036  0.2476
  262MOL0     C34494   1.877   5.056   9.669  0.3671  0.6453 -0.3082
  262MOL0     C34495   1.750   5.140   9.655  0.3653 -0.5053 -0.6823
  262MOL0    Cl34496   1.783   5.299   9.586 -0.1649 -0.5773  0.4836
  262MOL0     C34497   1.913   4.185   9.801 -0.0666  0.1119 -0.3725
  262MOL0     C34498   1.841   4.072   9.827  0.1096  0.8229 -0.1176
  262MOL0     O34499   1.470   4.029   9.948  0.5673 -0.4041  0.5179
  262MOL0     C34500   1.493   3.700   9.818  0.5768 -0.9106 -0.0340
  262MOL0     C34501   1.421   3.578   9.796 -1.0107 -0.9334 -0.9962
  262MOL0     N34502   0.745   3.175   9.822  0.0290  0.4880 -0.7418
  262MOL0     N34503   0.632   3.141   9.781  0.5515  1.3343 -0.2268
  262MOL0     C34504   0.512   2.047   9.110 -0.2750  0.0975 -0.1785
  262MOL0     C34505   0.537   1.916   9.060 -0.6070  1.1526 -0.6319
  262MOL0     C34506   0.726   1.502   9.040 -0.5694  0.1122  0.1534
  262MOL0     C34507   0.621   1.434   8.974 -0.3634 -0.0182 -0.3060
  262MOL0     C34508   0.625   1.304   8.927  0.3515  1.1298  0.1345
  262MOL0     C34509   0.749   1.242   8.945 -0.3065  0.5800 -0.2585
  262MOL0     O34510   0.770   1.114   8.896  0.5870 -0.5716  0.0508
  262MOL0     C34511   0.654   1.025   8.882 -1.3018  0.2025 -0.1927
  262MOL0     C34512   0.723   0.897   8.883  0.9956  0.0921  0.5985
  262MOL0     C34513   0.802   0.869   9.019 -0.4237 -0.2784 -0.3528
  262MOL0     C34514   0.869   0.729   9.014  0.0129 -0.3153  0.1335
  262MOL0     C34515   0.940   0.697   9.133  0.2442 -0.1301 -0.0102
  262MOL0     C34516   1.019   0.661   9.221  0.2044  0.4719 -0.1433
  262MOL0     C34517   0.856   1.309   9.002 -0.0381 -0.4500 -0.5161
  262MOL0     C34518   0.844   1.437   9.056  0.0259  1.1168  0.5414
  262MOL0     H34519   0.467   1.724   9.334  1.6250 -1.5207 -2.2917
  262MOL0     H34520   0.401   1.963   9.411  3.3002  3.1735  0.2937
  262MOL0     H34521   0.368   2.178   9.473  2.8635 -0.3348 -1.0429
  262MOL0     H34522   0.248   2.161   9.348 -0.9354  1.1594  1.7625
  262MOL0     H34523   0.219   2.377   9.472 -1.8749  0.0854 -1.9543
  262MOL0     H34524   0.238   2.381   9.304 -0.0525 -1.6204 -0.5232
  262MOL0     H34525   0.488   2.438   9.336  0.7024 -2.8544  2.6239
  262MOL0     H34526   0.466   2.445   9.514  0.5409  1.2891  0.6617
  262MOL0     H34527   0.353   2.622   9.298  0.9754  0.4150 -0.1642
  262MOL0     H34528   0.278   2.628   9.450  0.6461  0.5699 -0.7887
  262MOL0     H34529   0.393   2.828   9.402  1.0411  1.1949  1.6567
  262MOL0     H34530   0.546   2.750   9.367 -1.5992  1.3606 -0.8255
  262MOL0     H34531   0.543   2.672   9.628 -1.9327 -0.6217  0.7252
  262MOL0     H34532   0.400   2.776   9.633  1.1647  1.5998  2.1408
  262MOL0     H34533   0.626   2.867   9.710 -0.8757 -0.1808  0.0918
  262MOL0     H34534   0.680   2.857   9.541  1.4832 -0.1386  1.2224
  262MOL0     H34535   0.439   3.025   9.655 -1.3326  4.6917 -1.0624
  262MOL0     H34536   0.504   3.035   9.491  1.8925 -1.0721 -0.4498
  262MOL0     H34537   0.796   3.102   9.499 -0.9514  0.9371 -0.8557
  262MOL0     H34538   1.016   3.100   9.699 -2.1127 -1.2132  0.2419
  262MOL0     H34539   0.994   3.234   9.820  1.8832  2.6832 -1.5200
  262MOL0     H34540   0.960   3.394   9.612 -1.2293 -2.0353 -0.4899
  262MOL0     H34541   0.993   3.273   9.512 -0.4342  2.2475  0.9319
  262MOL0     H34542   1.233   3.259   9.582  1.5412  0.4607  1.4168
  262MOL0     H34543   1.189   3.435   9.573 -1.4947 -1.6010 -2.2501
  262MOL0     H34544   1.350   3.333   9.761 -0.7962 -2.5800 -0.7461
  262MOL0     H34545   1.202   3.267   9.828 -1.1070  1.6404  1.8122
  262MOL0     H34546   1.136   3.666   9.951 -0.9463  1.4599 -0.0516
  262MOL0     H34547   1.259   3.883   9.968  0.3644 -0.8389  1.9287
  262MOL0     H34548   1.534   4.182   9.709 -0.7630  1.9637 -1.7819
  262MOL0     H34549   1.671   4.374   9.650 -1.9930 -2.2628 -3.2834
  262MOL0     H34550   2.115   4.362   9.814 -2.9083 -1.2531  2.1486
  262MOL0     H34551   1.979   4.451   9.882 -0.3034 -1.6639 -0.6039
  262MOL0     H34552   2.091   4.612   9.681  0.4298  0.2914 -0.4045
  262MOL0     H34553   2.232   4.549   9.764  0.8830  1.6652  2.5979
  262MOL0     H34554   2.190   4.726   9.889 -0.3906  0.8776 -3.2604
  262MOL0     H34555   2.095   4.633   9.986  1.0181  3.4755  1.4747
  262MOL0     H34556   1.904   4.673   9.788 -0.1815  0.7412 -0.7722
  262MOL0     H34557   1.926   4.729   9.952 -1.2467 -1.9607 -0.3612
  262MOL0     H34558   2.069   4.875   9.722  1.1108  2.0776  1.3117
  262MOL0     H34559   2.043   4.945   9.861  0.3463 -0.3579  0.9365
  262MOL0     H34560   1.804   4.939   9.840  0.9445  1.4839  1.0187
  262MOL0     H34561   1.811   4.859   9.676 -1.3894 -0.7655  1.7372
  262MOL0     H34562   1.943   5.120   9.728  1.6065 -1.5401  0.8390
  262MOL0     H34563   1.914   5.032   9.569  0.8208  0.7482 -0.1655
  262MOL0     H34564   1.710   5.155   9.756  0.5045  0.1420 -0.7213
  262MOL0     H34565   1.675   5.092   9.593 -1.5769  1.5905 -0.0883
  262MOL0     H34566   2.020   4.184   9.820 -0.2020 -1.0676  0.4096
  262MOL0     H34567   1.903   3.990   9.863 -0.4387  1.2946  2.0102
  262MOL0     H34568   1.592   3.684   9.776  0.0122 -0.9336 -1.4061
  262MOL0     H34569   1.476   3.501   9.741 -0.0376  0.1812 -1.6295
  262MOL0     H34570   0.528   2.136   9.050  1.5237 -0.9949 -1.4113
  262MOL0     H34571   0.574   1.902   8.959  1.0591 -2.0980  0.2930
  262MOL0     H34572   0.522   1.477   8.964  0.0290  1.5079  1.6855
  262MOL0     H34573   0.547   1.259   8.866  2.0732  0.3759 -1.5816
  262MOL0     H34574   0.595   1.045   8.792 -1.6786 -3.0389 -0.7908
  262MOL0     H34575   0.580   1.014   8.962 -1.3806 -1.4952 -0.4498
  262MOL0     H34576   0.652   0.819   8.854  1.7885  0.5754 -3.0792
  262MOL0     H34577   0.811   0.906   8.818  4.0816  2.6396  4.5817
  262MOL0     H34578   0.721   0.878   9.092 -1.3787 -0.7357 -1.3284
  262MOL0     H34579   0.878   0.946   9.033  2.3075 -3.0522  1.3632
  262MOL0     H34580   0.797   0.650   8.995 -1.0831  0.6835  0.0556
  262MOL0     H34581   0.942   0.725   8.932 -1.2722 -0.2172 -1.0482
  262MOL0     H34582   1.074   0.634   9.309  1.0597  0.8647 -0.5457
  262MOL0     H34583   0.954   1.262   9.003  0.9156  1.1150  3.8255
  262MOL0     H34584   0.937   1.475   9.097  0.9648  3.0133 -2.9149
  263MOL0     O34585   5.610   2.177   4.406  0.4882  0.3847  0.5759
  263MOL0     C34586   5.710   2.149   4.473  0.3324 -0.5112 -1.0278
  263MOL0     O34587   5.764   2.025   4.506 -0.0394  0.2063  0.0766
  263MOL0     C34588   5.702   1.909   4.451  1.6001 -0.0797 -0.5070
  263MOL0     C34589   5.664   1.806   4.537 -0.0801 -0.2692  0.1307
  263MOL0     C34590   5.629   1.679   4.487 -1.1266  0.2639  1.1175
  263MOL0     C34591   5.613   1.653   4.348 -0.0226  0.4348  0.5325
  263MOL0     O34592   5.584   1.529   4.290  0.0397 -0.3230 -0.2784
  263MOL0     C34593   5.599   1.414   4.384 -1.6127 -0.1778  0.0286
  263MOL0     C34594   5.548   1.295   4.290  0.7752 -0.1301  0.5208
  263MOL0     C34595   5.547   1.153   4.358  0.3029  0.3064  0.4683
  263MOL0     C34596   5.686   1.122   4.421 -0.2150 -0.3543 -0.1162
  263MOL0     C34597   5.715   0.974   4.422  0.7709  0.3058  0.8110
  263MOL0     C34598   5.743   0.920   4.283  0.1832  0.3541  0.9689
  263MOL0     C34599   5.874   0.845   4.289  0.1308  0.5072  0.2575
  263MOL0     C34600   5.886   0.712   4.357  0.8811  0.6537 -0.5804
  263MOL0     N34601   5.988   0.631   4.291  0.1400 -0.9585 -0.4979
  263MOL0     C34602   5.974   0.564   4.177  0.0888 -0.2813  0.5711
  263MOL0     C34603   6.098   0.524   4.143  0.1935 -0.8216 -0.3922
  263MOL0     C34604   6.135   0.454   4.010 -0.8068 -0.0285  0.5269
  263MOL0     C34605   6.265   0.500   3.946  0.1031  1.1133 -0.2819
  263MOL0     C34606   6.241   0.638   3.878 -0.0501  0.7754 -0.4157
  263MOL0     C34607   6.375   0.714   3.841  1.0190  0.9081 -0.0311
  263MOL0     O34608   6.442   0.663   3.727 -0.7416 -0.5673  0.1470
  263MOL0     C34609   6.384   0.674   3.602 -1.2105 -0.5030 -0.0678
  263MOL0     C34610   6.446   0.621   3.489  0.4106  0.8285 -0.7699
  263MOL0     C34611   6.409   0.637   3.362  0.1935 -0.9732  0.7524
  263MOL0     C34612   6.298   0.717   3.335 -0.1242 -0.7142 -0.3551
  263MOL0     C34613   6.270   0.766   3.203 -0.3119 -0.5434  0.6015
  263MOL0     O34614   6.223   0.899   3.191  0.5740 -0.0147  0.7195
  263MOL0     C34615   6.128   0.933   3.094  0.8519  0.6257  0.3208
  263MOL0     C34616   6.106   0.873   2.969  0.1525 -0.2457 -0.3355
  263MOL0     C34617   6.003   0.931   2.884 -0.9212 -0.7556  0.9199
  263MOL0     C34618   5.930   1.041   2.928 -0.1243 -0.7813 -0.9218
  263MOL0     O34619   5.818   1.091   2.860 -0.6151  0.2765  0.5951
  263MOL0     C34620   5.787   1.231   2.875  0.2168  0.1210  0.1508
  263MOL0     C34621   5.668   1.267   2.790 -0.7004  0.4360  0.0646
  263MOL0     C34622   5.686   1.217   2.644  0.2032  0.5257 -0.7224
  263MOL0     C34623   5.671   1.334   2.545 -0.0228 -0.3079 -0.3681
  263MOL0     C34624   5.646   1.293   2.395  0.4607 -0.5902 -0.0693
  263MOL0     C34625   5.649   1.405   2.295 -0.3985  0.4346  1.0201
  263MOL0     C34626   5.523   1.483   2.294  0.1102  0.6761 -0.1491
  263MOL0     C34627   5.507   1.541   2.154 -0.0252  0.1464  0.6623
  263MOL0    Cl34628   5.407   1.691   2.150 -0.1604  0.4698  0.2739
  263MOL0     C34629   5.958   1.097   3.054  0.6451  0.0479 -0.5302
  263MOL0     C34630   6.059   1.049   3.135 -0.0475  0.3188  0.3231
  263MOL0     O34631   6.272   0.679   3.113  0.5405  0.2665  0.3730
  263MOL0     C34632   6.230   0.765   3.446  0.1240 -0.1564 -0.1662
  263MOL0     C34633   6.274   0.753   3.580  0.8484  0.5055 -0.1059
  263MOL0     N34634   6.188   0.566   4.242 -0.0732  0.7049  0.2429
  263MOL0     N34635   6.118   0.631   4.332 -0.8807  0.4729 -0.0001
  263MOL0     C34636   5.654   1.763   4.263  1.1530 -0.8527 -0.0644
  263MOL0     C34637   5.687   1.888   4.316  1.0606 -0.0962 -0.5688
  263MOL0     C34638   5.799   2.271   4.515  0.5720 -0.1371 -0.0538
  263MOL0     C34639   5.776   2.397   4.452 -0.1458  0.7493  0.5697
  263MOL0     C34640   5.842   2.512   4.491  1.3897  0.1395  0.2005
  263MOL0     C34641   5.936   2.502   4.585 -0.5112 -0.0725  0.0137
  263MOL0     O34642   6.002   2.622   4.601  0.0586 -0.2814 -0.3039
  263MOL0     C34643   6.091   2.651   4.714  0.3960  1.2249  0.5699
  263MOL0     C34644   6.168   2.783   4.695 -0.3779  1.1654 -0.7924
  263MOL0     C34645   6.240   2.786   4.567 -0.1648 -0.6978 -0.1951
  263MOL0     C34646   6.333   2.903   4.569 -0.5350  0.4218  0.8753
  263MOL0     C34647   6.421   2.896   4.454 -0.3958 -0.5650 -0.9169
  263MOL0     C34648   6.511   2.900   4.376 -0.3804 -0.0712  0.4798
  263MOL0     C34649   5.965   2.376   4.650 -0.2439  0.3466  0.4851
  263MOL0     C34650   5.893   2.258   4.616  0.1822  0.4322 -0.7287
  263MOL0     H34651   5.671   1.827   4.644  1.4110 -1.4045  0.2830
  263MOL0     H34652   5.641   1.601   4.561  0.3780  0.4807  1.1295
  263MOL0     H34653   5.529   1.421   4.468  0.0626  0.7594  1.4059
  263MOL0     H34654   5.696   1.407   4.434 -1.9203  0.4200  0.7237
  263MOL0     H34655   5.603   1.292   4.196 -0.1834  0.9800 -0.0959
  263MOL0     H34656   5.441   1.313   4.278  1.0388  0.7390 -0.5945
  263MOL0     H34657   5.521   1.076   4.285 -0.6123  1.9930 -1.0821
  263MOL0     H34658   5.462   1.156   4.427  1.3996  1.6300  1.8310
  263MOL0     H34659   5.768   1.177   4.373 -0.5456 -0.8416 -1.2872
  263MOL0     H34660   5.688   1.155   4.525  0.8062  0.3650 -0.3538
  263MOL0     H34661   5.618   0.926   4.442 -0.5736  1.5368 -2.1136
  263MOL0     H34662   5.794   0.960   4.496  0.1038 -0.6936  1.3667
  263MOL0     H34663   5.759   0.997   4.207 -0.4472 -0.7399 -0.3310
  263MOL0     H34664   5.669   0.860   4.229  0.4226  1.4124 -0.6055
  263MOL0     H34665   5.908   0.823   4.188 -3.4858 -4.7728 -0.2172
  263MOL0     H34666   5.948   0.913   4.333 -0.7540  1.8085 -0.2106
  263MOL0     H34667   5.792   0.658   4.374  0.8621  1.1647  1.0609
  263MOL0     H34668   5.912   0.729   4.461 -0.6259 -0.0102 -0.0616
  263MOL0     H34669   5.883   0.558   4.119  0.7212 -0.7920 -0.4054
  263MOL0     H34670   6.055   0.468   3.936 -0.4347 -1.0227 -0.0794
  263MOL0     H34671   6.139   0.347   4.032 -0.2905 -0.5550 -1.8339
  263MOL0     H34672   6.289   0.430   3.866 -0.2469  1.8449 -1.0350
  263MOL0     H34673   6.344   0.508   4.022 -1.2713  0.3576  1.2712
  263MOL0     H34674   6.175   0.609   3.795  0.9980  0.2432 -1.0868
  263MOL0     H34675   6.182   0.699   3.947 -2.8014 -0.6321 -1.3793
  263MOL0     H34676   6.449   0.717   3.921  1.7424  0.1186 -0.6587
  263MOL0     H34677   6.344   0.819   3.835 -0.5995  0.5723  1.6670
  263MOL0     H34678   6.518   0.543   3.509 -0.4252  0.7226  2.3561
  263MOL0     H34679   6.468   0.589   3.285  0.1230 -3.4683  2.1557
  263MOL0     H34680   6.159   0.782   2.942 -0.8680 -0.0496 -3.4008
  263MOL0     H34681   5.982   0.899   2.783  2.2537 -0.0191 -0.0675
  263MOL0     H34682   5.870   1.291   2.838 -0.7445  1.2231 -0.2951
  263MOL0     H34683   5.771   1.263   2.978  1.2869  0.8324  0.1080
  263MOL0     H34684   5.655   1.375   2.796  1.8289  0.9425 -1.7936
  263MOL0     H34685   5.576   1.217   2.820  0.6128 -3.4285 -1.6408
  263MOL0     H34686   5.610   1.139   2.636  1.2274 -0.5302 -0.2889
  263MOL0     H34687   5.785   1.174   2.629 -0.1878 -1.0362  0.8769
  263MOL0     H34688   5.584   1.394   2.574  0.0177  0.7872 -2.3590
  263MOL0     H34689   5.757   1.402   2.552 -2.4903  3.0024  0.6996
  263MOL0     H34690   5.546   1.250   2.384 -0.3899  1.3462 -0.2717
  263MOL0     H34691   5.726   1.222   2.370  1.5545  1.4397 -2.7782
  263MOL0     H34692   5.675   1.364   2.197 -1.5319  0.7418  0.5790
  263MOL0     H34693   5.739   1.466   2.306 -0.3744  0.5507  0.2126
  263MOL0     H34694   5.440   1.413   2.304  2.5652 -2.4374  0.1464
  263MOL0     H34695   5.517   1.555   2.376  2.0219 -1.4539  1.9744
  263MOL0     H34696   5.468   1.460   2.091  2.2502  1.3375 -2.5370
  263MOL0     H34697   5.611   1.559   2.125  0.0572  0.4406  1.1474
  263MOL0     H34698   5.909   1.184   3.094  0.2101 -0.4064 -0.0592
  263MOL0     H34699   6.091   1.093   3.228 -2.2494  3.4516 -0.2293
  263MOL0     H34700   6.145   0.833   3.441  1.1477  1.2500  0.6557
  263MOL0     H34701   6.213   0.804   3.654 -1.2841 -0.6900 -0.9263
  263MOL0     H34702   5.666   1.764   4.156  1.3428  3.8072 -0.1917
  263MOL0     H34703   5.713   1.969   4.249  0.9626  2.2231  2.0253
  263MOL0     H34704   5.703   2.394   4.372 -0.8351 -0.1531  1.2109
  263MOL0     H34705   5.810   2.601   4.436 -1.8009 -1.9335 -1.6748
  263MOL0     H34706   6.158   2.568   4.738 -2.1954 -1.5711 -1.2113
  263MOL0     H34707   6.019   2.677   4.792 -2.8325 -1.1634 -1.4023
  263MOL0     H34708   6.103   2.871   4.699  0.8449  2.1231 -1.0347
  263MOL0     H34709   6.242   2.790   4.775  0.5142  0.8955 -1.5659
  263MOL0     H34710   6.168   2.800   4.486 -2.1236  1.1863  1.7372
  263MOL0     H34711   6.295   2.692   4.559  2.4728  0.6163  1.0428
  263MOL0     H34712   6.276   2.994   4.546 -0.1219 -0.0712 -2.6483
  263MOL0     H34713   6.389   2.904   4.663  0.3003 -3.7810  0.5892
  263MOL0     H34714   6.585   2.891   4.299 -1.1250 -0.2112 -0.2400
  263MOL0     H34715   6.044   2.360   4.724  1.3410 -1.6021 -1.4748
  263MOL0     H34716   5.913   2.163   4.664 -1.7018 -1.2523 -3.0320
  264MOL0     O34717   8.405   8.770   5.134 -0.2351  0.3591 -0.3416
  264MOL0     C34718   8.523   8.759   5.176 -0.0902 -0.9535 -0.0683
  264MOL0     O34719   8.578   8.816   5.279  0.4293 -0.4894  0.1903
  264MOL0     C34720   8.497   8.871   5.373  0.7366 -0.3527 -0.3583
  264MOL0     C34721   8.476   8.813   5.493  1.1516  0.5373  0.6319
  264MOL0     C34722   8.374   8.858   5.579  0.0687 -0.8077 -0.2113
  264MOL0     C34723   8.303   8.975   5.551 -0.4283  0.8356  0.5076
  264MOL0     O34724   8.217   9.026   5.644  1.0748 -0.2400  0.4865
  264MOL0     C34725   8.074   9.006   5.615 -0.5827  0.4436 -0.7779
  264MOL0     C34726   8.006   8.875   5.660  0.0613 -1.4868  0.1123
  264MOL0     C34727   8.062   8.811   5.784 -0.2556 -0.0975  0.5146
  264MOL0     C34728   8.012   8.886   5.903  0.3525  0.7803  0.1517
  264MOL0     C34729   8.055   8.828   6.036 -0.1385  0.2459 -0.8363
  264MOL0     C34730   8.050   8.949   6.133 -0.2676 -0.2397  0.4412
  264MOL0     C34731   7.916   9.009   6.187  0.5941  0.2072  0.2090
  264MOL0     C34732   7.802   8.898   6.204  0.7971  0.8690 -0.2227
  264MOL0     N34733   7.830   8.793   6.310 -0.5121  0.1881  0.7679
  264MOL0     C34734   7.892   8.817   6.426 -0.2117 -0.8068 -0.8485
  264MOL0     C34735   7.892   8.704   6.505 -0.3514  0.0158 -0.2219
  264MOL0     C34736   7.950   8.701   6.650  0.6727 -0.0027  0.0283
  264MOL0     C34737   8.045   8.578   6.673 -0.5061  0.0371  0.0480
  264MOL0     C34738   8.160   8.572   6.574 -0.7349 -0.2869  0.0054
  264MOL0     C34739   8.273   8.675   6.589  0.3247 -0.4319  0.1809
  264MOL0     O34740   8.384   8.658   6.678  0.0460 -0.3915  0.3553
  264MOL0     C34741   8.349   8.658   6.806 -0.0969 -0.0547 -0.5573
  264MOL0     C34742   8.357   8.778   6.874 -0.4386 -0.0033  0.3000
  264MOL0     C34743   8.319   8.794   7.005 -0.4971  0.7985  0.1172
  264MOL0     C34744   8.272   8.679   7.074  0.8889 -0.1781  0.1398
  264MOL0     C34745   8.231   8.699   7.209 -0.6462 -0.4411 -0.3571
  264MOL0     O34746   8.269   8.820   7.273  0.2579 -0.5248 -0.3281
  264MOL0     C34747   8.191   8.840   7.383 -0.2833 -0.5315 -0.5106
  264MOL0     C34748   8.185   8.766   7.497 -0.3186  1.0011 -0.2820
  264MOL0     C34749   8.082   8.783   7.586  0.6463 -0.2337 -0.4072
  264MOL0     C34750   7.989   8.882   7.574 -0.5335 -0.0094 -0.4135
  264MOL0     O34751   7.886   8.899   7.663 -1.0555  0.0904 -0.7142
  264MOL0     C34752   7.928   8.965   7.788  0.4007 -0.4008 -0.5288
  264MOL0     C34753   7.823   9.077   7.789 -0.1634  0.0758  0.1666
  264MOL0     C34754   7.841   9.173   7.915 -0.4299 -0.8653 -0.5675
  264MOL0     C34755   7.739   9.287   7.916 -0.3534 -0.2376  0.7801
  264MOL0     C34756   7.769   9.373   8.045  0.0160 -0.3511 -0.5243
  264MOL0     C34757   7.655   9.478   8.064  0.3139 -0.8495  0.4276
  264MOL0     C34758   7.674   9.525   8.213  0.1423  0.3302  0.7391
  264MOL0     C34759   7.582   9.640   8.255 -0.5670 -0.4084  0.1990
  264MOL0    Cl34760   7.582   9.761   8.117  0.3050 -0.4593  0.0351
  264MOL0     C34761   8.000   8.975   7.476 -0.5794  0.0577 -0.2624
  264MOL0     C34762   8.097   8.945   7.376  0.6044  0.1627 -0.4089
  264MOL0     O34763   8.180   8.598   7.256  0.1315  0.5542 -0.1825
  264MOL0     C34764   8.276   8.557   7.009 -0.2847 -0.9862 -0.0890
  264MOL0     C34765   8.315   8.541   6.882  0.8553 -0.2498  0.1963
  264MOL0     N34766   7.838   8.604   6.426  0.7573  0.5385  0.6612
  264MOL0     N34767   7.806   8.656   6.311  1.0317 -0.0866  0.5607
  264MOL0     C34768   8.327   9.038   5.444  0.0829  0.5118  0.8433
  264MOL0     C34769   8.424   8.991   5.356  0.3926  0.4590  0.1639
  264MOL0     C34770   8.605   8.662   5.092  0.0483  0.4325 -0.4285
  264MOL0     C34771   8.564   8.616   4.967 -0.4327 -0.4918  0.5866
  264MOL0     C34772   8.645   8.518   4.897  0.2908 -0.2108 -0.5396
  264MOL0     C34773   8.764   8.461   4.949 -0.0279  0.1653  0.9384
  264MOL0     O34774   8.850   8.367   4.886 -0.4540  0.6698  0.4593
  264MOL0     C34775   8.800   8.300   4.766 -1.1464  0.5693  0.2566
  264MOL0     C34776   8.814   8.397   4.645  0.6878  0.4321  0.2957
  264MOL0     C34777   8.962   8.405   4.617 -0.7007  0.0350  0.3924
  264MOL0     C34778   8.982   8.486   4.494  0.7411  0.3649 -1.3247
  264MOL0     C34779   8.939   8.626   4.516 -0.2182  0.2226 -0.5249
  264MOL0     C34780   8.919   8.740   4.533  0.4354  0.0838  1.0075
  264MOL0     C34781   8.801   8.520   5.070 -0.1735 -0.7288 -0.1915
  264MOL0     C34782   8.730   8.613   5.142 -0.0048  0.4774 -0.4265
  264MOL0     H34783   8.531   8.720   5.506 -2.1972 -1.7072  0.0781
  264MOL0     H34784   8.366   8.800   5.670  0.1724 -1.2275 -0.4660
  264MOL0     H34785   8.048   9.036   5.513 -3.5862 -1.3473 -0.6631
  264MOL0     H34786   8.023   9.084   5.671  0.8181  1.5781 -1.0116
  264MOL0     H34787   8.007   8.801   5.580 -1.0084  1.5881 -3.0259
  264MOL0     H34788   7.900   8.896   5.677 -0.6734 -0.3960 -4.4448
  264MOL0     H34789   8.171   8.817   5.779 -0.3221 -0.0516 -1.7531
  264MOL0     H34790   8.032   8.706   5.796 -1.2984  0.1892  0.5285
  264MOL0     H34791   8.047   8.990   5.904 -2.6781  1.9217  2.1106
  264MOL0     H34792   7.903   8.882   5.902  0.3806 -2.9420 -0.5840
  264MOL0     H34793   8.158   8.797   6.014 -0.1794 -0.1410 -0.4946
  264MOL0     H34794   7.994   8.746   6.076  0.5282  0.8511  1.5403
  264MOL0     H34795   8.114   9.026   6.089 -0.8892 -0.1970 -0.3968
  264MOL0     H34796   8.100   8.914   6.224 -0.4228  2.4845  1.6981
  264MOL0     H34797   7.929   9.058   6.284  0.5543 -0.5551  0.6113
  264MOL0     H34798   7.882   9.079   6.111 -1.3530 -2.5387 -1.6620
  264MOL0     H34799   7.785   8.850   6.107 -2.8029  2.3302 -0.4649
  264MOL0     H34800   7.708   8.953   6.219  1.1213  1.3650  0.0121
  264MOL0     H34801   7.926   8.913   6.464  3.2594 -1.4627 -1.9583
  264MOL0     H34802   7.861   8.692   6.712 -2.1327  1.3099 -3.4419
  264MOL0     H34803   7.994   8.795   6.683  2.0543 -1.2551  1.9567
  264MOL0     H34804   7.988   8.486   6.661  2.0695 -1.9329  1.7963
  264MOL0     H34805   8.089   8.565   6.772 -0.2920 -0.8041 -0.1514
  264MOL0     H34806   8.195   8.469   6.584 -2.8461 -1.0376  0.0977
  264MOL0     H34807   8.125   8.587   6.471  2.4955  2.2276 -0.9404
  264MOL0     H34808   8.228   8.774   6.599  0.3031 -0.4773  0.5300
  264MOL0     H34809   8.318   8.673   6.489  0.9948  0.9749  0.4164
  264MOL0     H34810   8.396   8.868   6.827  1.0555  1.6988  4.3974
  264MOL0     H34811   8.339   8.890   7.052  1.3902  0.6730 -0.3108
  264MOL0     H34812   8.258   8.686   7.492  0.2280  1.4503  0.2784
  264MOL0     H34813   8.073   8.714   7.670 -0.8203  2.3443  1.7390
  264MOL0     H34814   8.025   9.015   7.792 -0.6520  1.9862 -2.1714
  264MOL0     H34815   7.911   8.894   7.869 -0.0591  0.5604  0.2297
  264MOL0     H34816   7.724   9.032   7.798  0.1997 -0.6760  0.5031
  264MOL0     H34817   7.823   9.144   7.703 -2.7149  1.4421  1.1195
  264MOL0     H34818   7.941   9.214   7.899  0.9250 -3.8742 -0.4624
  264MOL0     H34819   7.840   9.113   8.007 -0.4070 -2.5148 -1.6129
  264MOL0     H34820   7.745   9.357   7.833 -1.1190 -1.9743 -0.8042
  264MOL0     H34821   7.637   9.248   7.911 -1.6176  2.9595 -2.3300
  264MOL0     H34822   7.857   9.432   8.018  0.7357 -0.4807  1.4441
  264MOL0     H34823   7.774   9.312   8.136 -1.8934  2.9891  2.0466
  264MOL0     H34824   7.557   9.429   8.057 -0.2436  0.0467  1.6333
  264MOL0     H34825   7.666   9.554   7.985 -2.8109 -0.2534  0.4316
  264MOL0     H34826   7.671   9.439   8.281  2.3614 -0.2405  0.2009
  264MOL0     H34827   7.777   9.555   8.235  1.1864 -2.7992  0.6106
  264MOL0     H34828   7.614   9.679   8.351 -2.4212 -3.2601  2.1237
  264MOL0     H34829   7.481   9.600   8.268 -0.8816  0.5557  0.7743
  264MOL0     H34830   7.929   9.058   7.470 -1.3532 -0.6014 -0.4513
  264MOL0     H34831   8.092   8.996   7.280 -1.4931 -1.5917 -1.3235
  264MOL0     H34832   8.267   8.473   7.077  1.1136  0.1215  1.5508
  264MOL0     H34833   8.330   8.442   6.841  0.1339  0.9680 -3.3701
  264MOL0     H34834   8.276   9.128   5.410 -1.0577 -0.7637 -0.9597
  264MOL0     H34835   8.430   9.027   5.254  3.9201 -0.7148 -0.1826
  264MOL0     H34836   8.469   8.653   4.930 -0.6316  0.4005  1.8899
  264MOL0     H34837   8.609   8.495   4.798 -0.3455  0.5049 -0.4870
  264MOL0     H34838   8.702   8.252   4.773 -0.1796 -1.6100 -0.4023
  264MOL0     H34839   8.867   8.215   4.750  0.5282  1.7003  0.9593
  264MOL0     H34840   8.755   8.369   4.557  1.4490 -2.5939  0.6277
  264MOL0     H34841   8.788   8.498   4.678  0.4075  0.2913  0.5045
  264MOL0     H34842   9.004   8.305   4.602 -4.1639 -1.6542  1.0175
  264MOL0     H34843   9.021   8.448   4.698 -0.8844  3.1368 -0.9405
  264MOL0     H34844   9.087   8.494   4.465  0.6267  4.5677 -1.1718
  264MOL0     H34845   8.934   8.435   4.410  2.3217  1.6858 -3.1017
  264MOL0     H34846   8.912   8.847   4.527 -0.6298 -0.0327 -2.8234
  264MOL0     H34847   8.900   8.498   5.107  0.4124  0.1184 -1.2026
  264MOL0     H34848   8.762   8.641   5.242  0.1915  0.6118 -0.5265
  265MOL0     O34849   4.286   3.864   1.035  0.3409  0.0920  0.2989
  265MOL0     C34850   4.188   3.839   0.970  0.7792  0.5800 -0.3069
  265MOL0     O34851   4.117   3.922   0.881 -0.0637  0.2819 -0.1209
  265MOL0     C34852   4.161   4.051   0.842 -0.7445 -0.1050 -0.5006
  265MOL0     C34853   4.128   4.094   0.718 -0.2092  0.1599 -0.4045
  265MOL0     C34854   4.184   4.203   0.658  0.1172  0.7667 -0.5717
  265MOL0     C34855   4.272   4.285   0.729 -0.5845 -0.0118 -0.4626
  265MOL0     O34856   4.339   4.384   0.648 -0.1878  0.5653 -0.3891
  265MOL0     C34857   4.424   4.481   0.720  0.2179 -0.1772 -0.7226
  265MOL0     C34858   4.483   4.577   0.618 -0.3139 -0.1657 -0.1158
  265MOL0     C34859   4.605   4.509   0.547  0.0599 -0.8948  0.2889
  265MOL0     C34860   4.727   4.580   0.498  0.4296 -0.1908 -0.2985
  265MOL0     C34861   4.822   4.480   0.433  0.6484 -0.1816 -0.9058
  265MOL0     C34862   4.960   4.558   0.421  1.4836 -1.1216 -0.6868
  265MOL0     C34863   5.081   4.473   0.374  0.0336  0.1471 -1.2459
  265MOL0     C34864   5.218   4.535   0.374  0.5019 -0.6388 -0.8690
  265MOL0     N34865   5.307   4.431   0.330  0.2679 -1.2276 -0.0771
  265MOL0     C34866   5.340   4.320   0.398 -0.1652 -0.7467  0.6780
  265MOL0     C34867   5.423   4.255   0.311 -1.1469 -1.3169  0.3975
  265MOL0     C34868   5.502   4.129   0.328  1.3698 -0.0127  0.0995
  265MOL0     C34869   5.408   4.019   0.274  0.0929  0.1041  0.3961
  265MOL0     C34870   5.376   4.025   0.116 -0.6462  0.8119 -0.5101
  265MOL0     C34871   5.489   3.948   0.043 -0.6010  0.1068 -0.1626
  265MOL0     O34872   5.456   3.921  -0.089 -0.6130  0.0890 -0.5273
  265MOL0     C34873   5.467   4.042  -0.168  0.3212  0.5596 -0.0707
  265MOL0     C34874   5.424   4.018  -0.302  0.2229  0.2758 -0.9525
  265MOL0     C34875   5.421   4.121  -0.393 -0.3569 -0.2406 -0.5718
  265MOL0     C34876   5.470   4.250  -0.359  0.0490 -0.7188 -0.6115
  265MOL0     C34877   5.484   4.355  -0.463 -0.0497  0.3011 -0.3597
  265MOL0     O34878   5.595   4.430  -0.436 -0.3406 -0.3389 -0.5638
  265MOL0     C34879   5.630   4.527  -0.526 -0.4414  0.4611 -0.1242
  265MOL0     C34880   5.546   4.619  -0.594 -0.2335  0.4152 -0.5003
  265MOL0     C34881   5.592   4.704  -0.693 -0.2062 -0.3623  0.2121
  265MOL0     C34882   5.732   4.710  -0.717  0.6129  0.4149  0.3732
  265MOL0     O34883   5.796   4.772  -0.824  0.0977  0.2243  0.0919
  265MOL0     C34884   5.740   4.744  -0.959  0.0210 -0.0692  1.1214
  265MOL0     C34885   5.717   4.874  -1.034 -0.4698 -0.7528  0.3921
  265MOL0     C34886   5.624   4.856  -1.162  0.3052 -0.1168 -0.2335
  265MOL0     C34887   5.666   4.765  -1.285  0.5877 -0.2797 -1.1731
  265MOL0     C34888   5.796   4.836  -1.340 -0.2082  0.2005 -0.5634
  265MOL0     C34889   5.842   4.786  -1.478  0.3103  0.7357  0.1998
  265MOL0     C34890   5.952   4.869  -1.525  0.7381  0.4658  0.2297
  265MOL0     C34891   6.002   4.825  -1.661 -0.1954  0.3942 -0.3663
  265MOL0    Cl34892   6.104   4.959  -1.746 -0.2448 -0.4450  0.0407
  265MOL0     C34893   5.811   4.636  -0.640 -0.3384 -0.5520  0.0120
  265MOL0     C34894   5.764   4.548  -0.542  0.8094 -0.3766 -0.4282
  265MOL0     O34895   5.426   4.353  -0.575  1.1811 -0.0847 -0.0413
  265MOL0     C34896   5.518   4.270  -0.228 -0.0760 -0.3419 -0.0506
  265MOL0     C34897   5.507   4.173  -0.135 -0.3599  0.3085 -0.4229
  265MOL0     N34898   5.455   4.330   0.204  0.3305 -0.5835 -0.5226
  265MOL0     N34899   5.377   4.434   0.213 -0.0063 -0.6777  0.1939
  265MOL0     C34900   4.293   4.251   0.867 -0.5882 -0.7186 -0.4569
  265MOL0     C34901   4.248   4.133   0.926 -0.8681 -0.5372 -0.3159
  265MOL0     C34902   4.120   3.710   1.010 -0.6055  1.3759 -0.0710
  265MOL0     C34903   4.024   3.649   0.930  0.4831  0.5468  0.6173
  265MOL0     C34904   3.972   3.519   0.960  0.2958  0.3214 -1.3008
  265MOL0     C34905   4.019   3.448   1.073 -0.0837  0.2334 -0.9545
  265MOL0     O34906   3.960   3.326   1.094 -0.0069  0.2194 -0.5898
  265MOL0     C34907   3.989   3.245   1.203  0.0756  0.6785  0.6891
  265MOL0     C34908   4.124   3.179   1.172 -0.7558  0.2357  0.5786
  265MOL0     C34909   4.114   3.063   1.066 -0.4981 -0.1426 -0.3890
  265MOL0     C34910   4.250   3.031   1.004  0.7324  0.3057 -0.9620
  265MOL0     C34911   4.282   3.128   0.899  0.1413 -0.0747 -0.1622
  265MOL0     C34912   4.317   3.208   0.818  0.3787  1.0028 -0.3572
  265MOL0     C34913   4.118   3.509   1.151 -0.6145  0.1936 -0.4643
  265MOL0     C34914   4.173   3.630   1.120  0.0562 -0.7510  0.3591
  265MOL0     H34915   4.069   4.029   0.653  2.6374 -2.1524 -0.8635
  265MOL0     H34916   4.150   4.226   0.557 -2.7839  0.4598  0.2573
  265MOL0     H34917   4.503   4.438   0.782  2.6219  5.5331  0.8152
  265MOL0     H34918   4.367   4.541   0.791 -0.0030 -1.8323  0.5643
  265MOL0     H34919   4.528   4.666   0.662  1.8416 -0.2122 -1.9923
  265MOL0     H34920   4.399   4.623   0.565 -1.3281  1.7468  2.9495
  265MOL0     H34921   4.574   4.431   0.478 -0.9032 -2.0710  1.9804
  265MOL0     H34922   4.637   4.455   0.637 -1.2806  1.2895  2.1981
  265MOL0     H34923   4.699   4.656   0.424 -1.6262 -0.1135  0.5057
  265MOL0     H34924   4.779   4.634   0.578 -1.7222  0.5942  0.6452
  265MOL0     H34925   4.788   4.434   0.339 -0.6624  0.2244 -0.6420
  265MOL0     H34926   4.839   4.398   0.504  0.3454  0.5264  0.0010
  265MOL0     H34927   4.980   4.602   0.519  0.0953  1.4769 -1.4822
  265MOL0     H34928   4.942   4.645   0.357  1.4910 -1.1087 -0.6713
  265MOL0     H34929   5.084   4.374   0.421  0.2283  0.1708 -1.2083
  265MOL0     H34930   5.048   4.441   0.274 -1.0882 -1.3798 -0.4294
  265MOL0     H34931   5.237   4.560   0.479 -1.1432 -2.8493  0.0477
  265MOL0     H34932   5.222   4.622   0.309 -1.7752 -0.3377 -0.6699
  265MOL0     H34933   5.304   4.289   0.495 -1.0737 -1.6602  0.0827
  265MOL0     H34934   5.535   4.118   0.432  2.8745  2.9242  0.0417
  265MOL0     H34935   5.599   4.129   0.278  1.2510 -0.4409 -0.1347
  265MOL0     H34936   5.314   4.028   0.328 -0.0139 -4.6381  1.4295
  265MOL0     H34937   5.461   3.928   0.306  1.2131  0.8661  0.7558
  265MOL0     H34938   5.280   3.973   0.109 -0.6608  0.9994 -2.1150
  265MOL0     H34939   5.357   4.126   0.080  0.5814  1.2698  0.0647
  265MOL0     H34940   5.486   3.848   0.088 -0.9531  0.5011  0.7235
  265MOL0     H34941   5.586   3.997   0.056 -0.1100 -0.6407 -0.8474
  265MOL0     H34942   5.389   3.927  -0.350  0.6681  0.4042 -1.5399
  265MOL0     H34943   5.396   4.104  -0.497  1.3845 -2.8565 -0.6707
  265MOL0     H34944   5.442   4.617  -0.563  0.7914 -1.0278  3.4895
  265MOL0     H34945   5.518   4.759  -0.750  0.7704  1.6906  0.8407
  265MOL0     H34946   5.646   4.687  -0.955  0.6233 -1.1564  0.4083
  265MOL0     H34947   5.807   4.675  -1.011 -3.3523 -1.3794 -1.9117
  265MOL0     H34948   5.814   4.918  -1.057 -1.6360  3.1143  2.1659
  265MOL0     H34949   5.664   4.944  -0.969  0.8696  1.6127 -0.9351
  265MOL0     H34950   5.622   4.955  -1.209  4.1597 -0.0081 -0.4956
  265MOL0     H34951   5.519   4.842  -1.137 -0.3708 -2.4137 -3.6643
  265MOL0     H34952   5.701   4.667  -1.252  2.4992 -0.1254 -2.5935
  265MOL0     H34953   5.594   4.758  -1.367 -1.3440 -3.4269  0.5970
  265MOL0     H34954   5.870   4.799  -1.268  0.4185  1.0502 -0.7610
  265MOL0     H34955   5.820   4.942  -1.332  3.8432 -0.6786  1.9452
  265MOL0     H34956   5.753   4.789  -1.541  0.2567  0.7758  0.2767
  265MOL0     H34957   5.864   4.679  -1.486 -2.5132  0.0493  0.5938
  265MOL0     H34958   5.908   4.968  -1.543  1.1330  0.7562  0.8134
  265MOL0     H34959   6.040   4.872  -1.459  4.5840  0.1829 -4.3704
  265MOL0     H34960   5.910   4.824  -1.720  1.1750  1.9939 -2.6791
  265MOL0     H34961   6.060   4.733  -1.649  0.1208  0.6245 -0.1317
  265MOL0     H34962   5.916   4.647  -0.666 -0.5852  1.1994 -0.3339
  265MOL0     H34963   5.830   4.480  -0.490  0.4138 -0.3335  0.1412
  265MOL0     H34964   5.544   4.371  -0.196 -1.2553  0.6351 -1.9623
  265MOL0     H34965   5.540   4.203  -0.036 -2.0259 -0.6029  0.4421
  265MOL0     H34966   4.354   4.310   0.934 -0.9463 -1.2203  0.3306
  265MOL0     H34967   4.251   4.113   1.033 -2.0133 -1.3638 -0.4193
  265MOL0     H34968   3.991   3.706   0.843 -0.2831  0.5800  0.9207
  265MOL0     H34969   3.895   3.481   0.893  0.2061 -1.2467 -0.3565
  265MOL0     H34970   3.914   3.165   1.212 -1.3604  1.1639 -4.1120
  265MOL0     H34971   3.998   3.304   1.295  1.0862  2.1908 -0.3270
  265MOL0     H34972   4.179   3.262   1.128  1.2026 -1.9303 -1.3423
  265MOL0     H34973   4.176   3.139   1.259 -2.8461 -0.0012  1.7680
  265MOL0     H34974   4.028   3.070   1.000 -1.6145 -2.4537  0.7101
  265MOL0     H34975   4.084   2.977   1.127  0.8035  0.0924  0.6581
  265MOL0     H34976   4.323   3.042   1.085 -2.1567  0.6997  1.8136
  265MOL0     H34977   4.245   2.932   0.959 -3.3883 -0.2865  0.3564
  265MOL0     H34978   4.353   3.262   0.733 -0.8864  2.5938  0.0611
  265MOL0     H34979   4.155   3.465   1.243  2.6011 -0.5364 -1.9386
  265MOL0     H34980   4.252   3.673   1.179 -0.8986  0.0695  1.0738
  266MOL0     O34981   3.125   2.983   7.831  0.4894  0.0092 -0.0408
  266MOL0     C34982   3.245   2.975   7.784  0.0466  0.2843  0.3663
  266MOL0     O34983   3.294   2.867   7.716 -0.9099 -0.6096 -0.4907
  266MOL0     C34984   3.233   2.743   7.688 -0.3792  0.8406 -0.0066
  266MOL0     C34985   3.133   2.679   7.762 -0.2473  0.4062  0.6528
  266MOL0     C34986   3.081   2.564   7.705  0.2649  0.5318  0.2826
  266MOL0     C34987   3.122   2.501   7.587 -0.5609 -0.3432  0.1767
  266MOL0     O34988   3.091   2.374   7.538  0.1255 -0.5767 -0.6732
  266MOL0     C34989   3.024   2.281   7.628  0.0919 -0.0986 -0.4223
  266MOL0     C34990   2.883   2.311   7.624 -0.0754  0.2163  0.7700
  266MOL0     C34991   2.794   2.186   7.622 -0.0243  0.6658  0.3465
  266MOL0     C34992   2.802   2.119   7.474  0.7514  0.2074  0.0850
  266MOL0     C34993   2.674   2.042   7.430 -0.1491 -1.0143 -0.3794
  266MOL0     C34994   2.700   1.991   7.292 -0.0466  0.6566  0.1522
  266MOL0     C34995   2.580   1.921   7.220  0.1384  0.8995  0.2214
  266MOL0     C34996   2.497   2.011   7.130 -0.2616 -0.0403 -0.0651
  266MOL0     N34997   2.395   1.921   7.058 -0.1524  0.4852  0.6602
  266MOL0     C34998   2.296   1.843   7.115  0.7803 -0.0078  0.2249
  266MOL0     C34999   2.235   1.783   7.008 -0.2731 -0.0861  1.1537
  266MOL0     C35000   2.113   1.694   7.009 -0.0278 -0.3939  0.3621
  266MOL0     C35001   2.155   1.547   7.058 -0.5028 -0.6402  0.9063
  266MOL0     C35002   2.022   1.467   7.061 -0.2453 -0.5366 -0.1895
  266MOL0     C35003   2.058   1.323   7.105  0.7500  0.1683 -0.2569
  266MOL0     O35004   1.952   1.230   7.086  0.4736  0.2485 -0.3217
  266MOL0     C35005   1.908   1.196   6.959 -0.3049  0.1808  0.8300
  266MOL0     C35006   1.970   1.234   6.831 -0.5208 -0.8895 -0.0971
  266MOL0     C35007   1.925   1.190   6.704  0.9947  0.5314  0.1537
  266MOL0     C35008   1.810   1.100   6.696  0.2339  0.2010  0.0576
  266MOL0     C35009   1.751   1.057   6.567 -0.2331  0.1676  0.1507
  266MOL0     O35010   1.769   1.136   6.448  0.6842  0.2862  0.4320
  266MOL0     C35011   1.716   1.086   6.326 -0.3961  0.4971 -0.0701
  266MOL0     C35012   1.805   1.066   6.219 -1.0094  0.4436  0.3715
  266MOL0     C35013   1.755   1.015   6.098 -0.4654  0.4525 -0.2928
  266MOL0     C35014   1.634   0.954   6.082 -0.2718 -0.3284 -1.0636
  266MOL0     O35015   1.608   0.886   5.967 -1.0149  0.6405  0.1045
  266MOL0     C35016   1.511   0.776   5.980 -0.0499 -0.0572 -0.2825
  266MOL0     C35017   1.518   0.696   5.854  0.1514  0.1759  0.0250
  266MOL0     C35018   1.471   0.784   5.736 -0.4589 -0.1498  1.3183
  266MOL0     C35019   1.471   0.723   5.593  0.2301  1.0091  0.2385
  266MOL0     C35020   1.378   0.799   5.486 -0.4478 -0.5061 -2.2883
  266MOL0     C35021   1.450   0.919   5.436 -0.6114  0.1472  0.1207
  266MOL0     C35022   1.361   1.030   5.381  0.1905  0.1753 -0.1328
  266MOL0     C35023   1.442   1.145   5.324  0.0915 -0.0013 -0.0061
  266MOL0    Cl35024   1.511   1.250   5.459 -0.4551  0.0690  0.0283
  266MOL0     C35025   1.541   0.974   6.187  0.2480 -0.2810  0.1786
  266MOL0     C35026   1.583   1.037   6.306 -0.3850 -1.6772 -0.3152
  266MOL0     O35027   1.709   0.941   6.571 -0.2015  0.6219  0.0235
  266MOL0     C35028   1.742   1.072   6.817 -0.9534  0.3475  0.3872
  266MOL0     C35029   1.800   1.116   6.940 -0.1644  0.2622 -1.3839
  266MOL0     N35030   2.306   1.820   6.896 -0.3413 -0.4698 -0.8623
  266MOL0     N35031   2.404   1.897   6.926 -0.8541  0.5005  0.4532
  266MOL0     C35032   3.231   2.558   7.531  0.0613 -0.6859 -0.4337
  266MOL0     C35033   3.280   2.682   7.567 -0.2629 -0.4995  0.0974
  266MOL0     C35034   3.326   3.103   7.789  0.8182  0.3817  0.0557
  266MOL0     C35035   3.457   3.093   7.739 -1.2368  0.0054 -0.3694
  266MOL0     C35036   3.545   3.204   7.750  0.4850  0.3781  0.7970
  266MOL0     C35037   3.495   3.330   7.804 -0.7330  0.6803 -0.6017
  266MOL0     O35038   3.563   3.450   7.790  0.3893 -0.0550 -0.0619
  266MOL0     C35039   3.695   3.456   7.727 -0.4818  0.1021 -0.6750
  266MOL0     C35040   3.718   3.606   7.698  0.8440 -0.6142 -0.9818
  266MOL0     C35041   3.763   3.670   7.830  0.3207  0.4545 -1.3690
  266MOL0     C35042   3.788   3.813   7.817 -0.2461 -0.4363  0.2548
  266MOL0     C35043   3.864   3.849   7.941  0.2174  0.8253 -0.7906
  266MOL0     C35044   3.926   3.877   8.042 -0.3127 -0.0066  0.0978
  266MOL0     C35045   3.366   3.321   7.858 -1.0026 -0.5064 -0.1955
  266MOL0     C35046   3.275   3.215   7.847 -0.0984 -0.3746  0.0489
  266MOL0     H35047   3.087   2.716   7.853 -2.1193 -0.9639  0.3107
  266MOL0     H35048   2.993   2.525   7.753  0.8628 -3.1625 -1.2784
  266MOL0     H35049   3.057   2.300   7.730  1.7338  4.4307 -1.5763
  266MOL0     H35050   3.032   2.174   7.604 -0.3617  0.5941 -4.4354
  266MOL0     H35051   2.859   2.367   7.533 -1.1511  1.3290  1.7116
  266MOL0     H35052   2.854   2.374   7.708 -1.7710 -1.5162  1.5575
  266MOL0     H35053   2.692   2.217   7.643 -0.6739  0.7617 -2.5564
  266MOL0     H35054   2.820   2.117   7.702 -0.9834 -1.8415 -1.3814
  266MOL0     H35055   2.811   2.202   7.403  2.0784  2.3367  2.5533
  266MOL0     H35056   2.889   2.056   7.455 -1.0234 -2.2509 -0.3857
  266MOL0     H35057   2.595   2.117   7.419 -0.7122 -1.1361  2.2214
  266MOL0     H35058   2.640   1.975   7.509 -1.1413  1.6958  1.6801
  266MOL0     H35059   2.775   1.913   7.308  1.8995  2.3649 -0.2290
  266MOL0     H35060   2.745   2.070   7.231 -0.9967  0.7242 -0.4835
  266MOL0     H35061   2.628   1.854   7.148 -4.4962  0.7347 -3.1821
  266MOL0     H35062   2.520   1.854   7.282 -0.6759  1.8504  0.4925
  266MOL0     H35063   2.551   2.060   7.049  2.0514 -1.8726  0.2756
  266MOL0     H35064   2.453   2.092   7.190  0.8545  0.7413 -0.2514
  266MOL0     H35065   2.279   1.848   7.222  1.2472  0.9575  0.2653
  266MOL0     H35066   2.090   1.704   6.903 -0.1538  2.8962  0.5884
  266MOL0     H35067   2.032   1.745   7.062  1.9740  0.5977  2.6532
  266MOL0     H35068   2.199   1.558   7.158 -2.0454 -1.1711  1.6799
  266MOL0     H35069   2.222   1.493   6.990 -1.6815 -1.5563  0.4439
  266MOL0     H35070   1.950   1.515   7.127 -1.0225 -1.2623 -0.4889
  266MOL0     H35071   1.981   1.457   6.960  0.0534 -3.0902 -0.1379
  266MOL0     H35072   2.099   1.308   7.205 -2.7974 -2.9964  0.9656
  266MOL0     H35073   2.140   1.288   7.042  0.0312  2.1718 -2.4471
  266MOL0     H35074   2.050   1.308   6.826 -0.5828 -0.9138 -2.7230
  266MOL0     H35075   1.969   1.225   6.612  2.6286 -0.8118  0.3787
  266MOL0     H35076   1.908   1.099   6.233  0.8193 -4.3260  0.1364
  266MOL0     H35077   1.828   1.013   6.018  2.4112 -5.1561  1.9599
  266MOL0     H35078   1.409   0.814   5.987 -1.2454 -3.0548 -0.3575
  266MOL0     H35079   1.527   0.714   6.068 -1.1198 -0.2868 -0.2418
  266MOL0     H35080   1.432   0.628   5.858  0.4951 -0.2350  0.5989
  266MOL0     H35081   1.604   0.629   5.838 -0.3490  0.1314 -3.2276
  266MOL0     H35082   1.536   0.872   5.726 -0.7535  0.4744  4.0957
  266MOL0     H35083   1.374   0.831   5.756  0.3571  2.1324  0.2388
  266MOL0     H35084   1.573   0.711   5.557 -0.5371 -1.4965 -1.3568
  266MOL0     H35085   1.424   0.625   5.581 -1.4260  1.4738  2.3173
  266MOL0     H35086   1.298   0.846   5.543  0.6868 -0.4255 -0.6722
  266MOL0     H35087   1.349   0.732   5.405  0.0574 -2.5882 -0.8417
  266MOL0     H35088   1.494   0.873   5.347 -0.8779  2.0164 -1.0317
  266MOL0     H35089   1.530   0.957   5.500 -0.0608 -1.3394  0.3460
  266MOL0     H35090   1.282   0.987   5.320 -0.4265  0.0508  0.7328
  266MOL0     H35091   1.298   1.077   5.457 -1.2370 -2.7468  0.6126
  266MOL0     H35092   1.372   1.211   5.271  0.4203  1.8248  1.7384
  266MOL0     H35093   1.520   1.111   5.256 -0.4471 -1.2297 -0.0321
  266MOL0     H35094   1.437   0.946   6.201 -0.1574  2.3428  4.2942
  266MOL0     H35095   1.507   1.051   6.381  1.0904  1.2572  0.8024
  266MOL0     H35096   1.673   0.989   6.809 -0.7008  0.2336 -1.0146
  266MOL0     H35097   1.746   1.083   7.028 -1.1312 -3.6078 -3.1731
  266MOL0     H35098   3.273   2.506   7.446  1.3739  1.1212 -0.9553
  266MOL0     H35099   3.360   2.727   7.509 -0.8453 -1.8606 -1.8719
  266MOL0     H35100   3.510   3.006   7.701 -1.2031 -0.6474  1.0957
  266MOL0     H35101   3.644   3.183   7.710  0.7145 -2.2225  2.4413
  266MOL0     H35102   3.695   3.407   7.630 -0.1076  5.1750 -3.5866
  266MOL0     H35103   3.776   3.422   7.792 -1.3089  2.3809  1.7185
  266MOL0     H35104   3.799   3.611   7.624  1.3548  0.7686 -0.3711
  266MOL0     H35105   3.629   3.655   7.655  2.0530  0.3671 -2.4973
  266MOL0     H35106   3.851   3.623   7.874 -3.2605 -3.3768  2.7233
  266MOL0     H35107   3.683   3.669   7.906  2.3692  1.0944  0.9290
  266MOL0     H35108   3.854   3.843   7.735 -0.1609 -0.6346  0.2483
  266MOL0     H35109   3.698   3.874   7.801  0.3076  0.5245  0.7286
  266MOL0     H35110   3.997   3.890   8.121  1.9157  2.2079 -2.0546
  266MOL0     H35111   3.329   3.420   7.879  1.0285  0.1992  0.3305
  266MOL0     H35112   3.170   3.228   7.869 -0.1422  1.9409 -1.2032
  267MOL0     O35113  11.213   9.216   9.212  0.4419  0.5975 -0.6785
  267MOL0     C35114  11.088   9.199   9.222  1.0376 -1.3306  0.0711
  267MOL0     O35115  11.019   9.100   9.158 -0.0556  0.0010 -0.6769
  267MOL0     C35116  11.068   8.984   9.096 -0.6080  0.1131  0.7597
  267MOL0     C35117  10.981   8.907   9.014 -0.0713 -0.0461  0.4507
  267MOL0     C35118  11.018   8.787   8.956 -0.1292  0.4872  0.1267
  267MOL0     C35119  11.155   8.740   8.974  0.1166  0.1862 -0.2866
  267MOL0     O35120  11.208   8.631   8.920  0.4767  0.5621  0.0530
  267MOL0     C35121  11.113   8.535   8.873 -1.1654 -0.0639  0.3741
  267MOL0     C35122  11.182   8.414   8.820 -1.1374 -0.8824 -0.2203
  267MOL0     C35123  11.084   8.302   8.768 -0.3764  0.1666  0.1027
  267MOL0     C35124  11.140   8.172   8.700  0.0591 -1.4969 -0.5735
  267MOL0     C35125  11.177   8.083   8.816  0.6108  0.2608 -0.4306
  267MOL0     C35126  11.217   7.946   8.742  0.5839  0.6507 -1.0712
  267MOL0     C35127  11.255   7.832   8.836  0.4261  0.4589  0.2593
  267MOL0     C35128  11.415   7.819   8.865  0.3458  0.1132 -0.3527
  267MOL0     N35129  11.500   7.759   8.766  0.6009 -0.9108 -0.3976
  267MOL0     C35130  11.538   7.819   8.653  0.1001 -0.1735 -0.5382
  267MOL0     C35131  11.627   7.735   8.602  0.5824  0.0414 -0.2118
  267MOL0     C35132  11.715   7.761   8.478  0.2997 -0.4179 -0.8341
  267MOL0     C35133  11.768   7.626   8.432  0.7704 -0.4056  0.2208
  267MOL0     C35134  11.816   7.626   8.288  0.4401 -0.6328 -0.1668
  267MOL0     C35135  11.881   7.488   8.249  0.1070  0.3309 -1.1444
  267MOL0     O35136  11.792   7.381   8.270  0.0836  0.0466 -0.0722
  267MOL0     C35137  11.686   7.357   8.186 -0.4063  0.7797 -0.0363
  267MOL0     C35138  11.596   7.257   8.228 -0.1329 -0.9476 -0.2813
  267MOL0     C35139  11.490   7.220   8.146  0.1248 -0.2044  0.2917
  267MOL0     C35140  11.461   7.286   8.030  0.1235 -0.5126  0.3715
  267MOL0     C35141  11.336   7.248   7.967 -0.0394 -0.2484 -0.5993
  267MOL0     O35142  11.287   7.122   7.994 -1.0350  0.3778 -0.7250
  267MOL0     C35143  11.167   7.083   7.933 -0.2887  0.1368  0.3101
  267MOL0     C35144  11.150   7.072   7.799 -0.1064  0.0255  0.4531
  267MOL0     C35145  11.027   7.041   7.747  0.0201  0.4139 -0.7762
  267MOL0     C35146  10.913   7.006   7.820  0.2531  0.7196 -0.3314
  267MOL0     O35147  10.794   6.968   7.758  0.1275  0.7298 -0.7691
  267MOL0     C35148  10.663   7.012   7.804  0.7900  0.1550  0.6566
  267MOL0     C35149  10.570   6.892   7.786  0.6843  0.5768 -0.4233
  267MOL0     C35150  10.568   6.854   7.632 -0.5870 -0.9091 -0.6997
  267MOL0     C35151  10.482   6.741   7.596 -0.4607  0.3809  0.3781
  267MOL0     C35152  10.469   6.733   7.441  0.4686 -0.4089 -0.5555
  267MOL0     C35153  10.408   6.594   7.403  0.3225 -0.6330  0.0845
  267MOL0     C35154  10.396   6.583   7.244 -0.0437 -0.3033  0.0704
  267MOL0     C35155  10.528   6.573   7.178  0.3302  0.2301  0.1067
  267MOL0    Cl35156  10.596   6.414   7.195 -0.3884 -0.4389 -0.2804
  267MOL0     C35157  10.929   7.018   7.958  0.2251  0.2382 -0.8758
  267MOL0     C35158  11.053   7.055   8.020 -0.3205  0.2798  0.5761
  267MOL0     O35159  11.305   7.317   7.863 -0.2969  0.4787 -0.8915
  267MOL0     C35160  11.548   7.381   7.990 -0.0210  0.2816  0.1613
  267MOL0     C35161  11.662   7.418   8.065 -0.2948  0.4066  0.7095
  267MOL0     N35162  11.643   7.626   8.688 -0.5094 -0.7286  0.3495
  267MOL0     N35163  11.571   7.648   8.786 -0.0207 -0.1586  0.1239
  267MOL0     C35164  11.238   8.813   9.059 -0.6741  0.2943  0.3200
  267MOL0     C35165  11.194   8.936   9.111 -0.1565 -0.0744 -0.6470
  267MOL0     C35166  11.022   9.293   9.318 -0.9290 -0.5334 -0.5200
  267MOL0     C35167  10.890   9.271   9.343 -0.0860 -0.3806 -0.0864
  267MOL0     C35168  10.824   9.333   9.454 -0.0550 -0.4181  0.8530
  267MOL0     C35169  10.897   9.426   9.529  0.2695  0.4895 -0.6154
  267MOL0     O35170  10.850   9.505   9.636 -0.7089  0.1098  0.7289
  267MOL0     C35171  10.719   9.468   9.684 -0.6034 -1.2687 -0.2489
  267MOL0     C35172  10.697   9.547   9.816 -0.1347  0.6026 -0.0478
  267MOL0     C35173  10.597   9.667   9.809  0.1813 -0.3616 -1.1021
  267MOL0     C35174  10.678   9.798   9.784  0.4205  0.3938 -0.9591
  267MOL0     C35175  10.589   9.915   9.749 -0.6719  0.6352 -1.3432
  267MOL0     C35176  10.518  10.016   9.737 -0.4618 -0.9249  0.4388
  267MOL0     C35177  11.035   9.447   9.512 -0.8275 -0.5401  0.6578
  267MOL0     C35178  11.090   9.389   9.400 -0.3847 -0.2283 -0.7225
  267MOL0     H35179  10.885   8.947   8.985  0.0236  2.2257  2.8154
  267MOL0     H35180  10.942   8.748   8.889 -0.8008  2.2871 -0.2167
  267MOL0     H35181  11.069   8.586   8.787 -1.1523 -1.6015 -0.5692
  267MOL0     H35182  11.054   8.503   8.959 -0.9738  0.0200  0.5410
  267MOL0     H35183  11.261   8.375   8.885 -0.3673  1.7633  0.5718
  267MOL0     H35184  11.237   8.445   8.730 -1.0224 -0.7310 -0.1011
  267MOL0     H35185  11.035   8.370   8.697  0.4338  1.5422  0.7984
  267MOL0     H35186  11.013   8.271   8.845 -0.7159  0.5327 -0.0565
  267MOL0     H35187  11.063   8.142   8.628  0.6438  2.8339 -3.3741
  267MOL0     H35188  11.231   8.187   8.642  0.3971  0.1930  0.3519
  267MOL0     H35189  11.094   8.050   8.879  0.1178 -0.1122 -1.2758
  267MOL0     H35190  11.258   8.123   8.878 -1.4436  2.3467  1.0679
  267MOL0     H35191  11.296   7.946   8.666  0.4704 -0.2127 -1.2072
  267MOL0     H35192  11.127   7.901   8.699  0.2923  0.7391 -0.5691
  267MOL0     H35193  11.202   7.836   8.932  3.3042  0.9483  1.9455
  267MOL0     H35194  11.219   7.741   8.787 -1.0880  1.1061  0.0980
  267MOL0     H35195  11.435   7.757   8.953  0.2782  2.6898  1.5781
  267MOL0     H35196  11.471   7.911   8.884  2.2266 -0.5651 -2.2137
  267MOL0     H35197  11.504   7.917   8.619  0.8549 -0.0785 -1.0463
  267MOL0     H35198  11.798   7.833   8.485  0.6502 -0.8643 -0.3280
  267MOL0     H35199  11.644   7.784   8.398 -0.4417 -1.1482 -0.4028
  267MOL0     H35200  11.685   7.555   8.433 -1.5662  2.1165 -1.5061
  267MOL0     H35201  11.854   7.593   8.491  0.9601 -2.6184 -1.1891
  267MOL0     H35202  11.728   7.646   8.228  0.1644 -0.3795  0.3169
  267MOL0     H35203  11.893   7.698   8.256 -0.5310 -0.8611 -3.3250
  267MOL0     H35204  11.963   7.483   8.322 -0.6277 -1.1154 -0.3630
  267MOL0     H35205  11.914   7.475   8.145  0.0700  1.5874 -1.3259
  267MOL0     H35206  11.602   7.223   8.331 -1.9643  2.8751  1.2821
  267MOL0     H35207  11.418   7.149   8.186  0.3109  0.2927  1.5787
  267MOL0     H35208  11.232   7.089   7.730  1.1330  3.3728  2.4950
  267MOL0     H35209  11.025   7.038   7.639  0.7469 -3.4786 -0.8375
  267MOL0     H35210  10.629   7.089   7.734 -1.6422  0.2168  1.8340
  267MOL0     H35211  10.664   7.050   7.907 -2.0253  1.4129  0.2930
  267MOL0     H35212  10.476   6.929   7.827  1.4172  1.1995  0.7563
  267MOL0     H35213  10.599   6.815   7.859 -1.4508 -1.7851 -1.9000
  267MOL0     H35214  10.669   6.820   7.608 -0.2883 -0.7955  0.3554
  267MOL0     H35215  10.546   6.942   7.570 -0.5412  0.4104  1.0840
  267MOL0     H35216  10.536   6.648   7.617 -0.8623 -0.9454 -3.7291
  267MOL0     H35217  10.385   6.748   7.645 -0.6657  0.1227  0.0010
  267MOL0     H35218  10.574   6.742   7.412  0.9870  0.8604  1.5187
  267MOL0     H35219  10.407   6.813   7.401 -1.5692 -2.1553 -1.0838
  267MOL0     H35220  10.311   6.571   7.448  0.0858  0.1656  0.0098
  267MOL0     H35221  10.474   6.515   7.440  0.4012 -3.1593 -4.6376
  267MOL0     H35222  10.346   6.489   7.218  0.6295 -1.1275  1.6344
  267MOL0     H35223  10.331   6.667   7.218  2.0501  2.8823  3.9144
  267MOL0     H35224  10.598   6.635   7.235  0.6198 -1.9504  2.3148
  267MOL0     H35225  10.515   6.599   7.072  1.8710  0.1163 -0.1271
  267MOL0     H35226  10.852   6.998   8.031  1.7920  0.2683  0.8583
  267MOL0     H35227  11.071   7.064   8.127  0.3111 -0.2104  0.5232
  267MOL0     H35228  11.530   7.450   7.908 -0.6167  1.4817  1.2690
  267MOL0     H35229  11.732   7.475   8.005 -0.2716 -1.9348 -1.7063
  267MOL0     H35230  11.336   8.771   9.076  0.3393  1.5134 -2.0170
  267MOL0     H35231  11.263   8.984   9.179  0.9860 -1.3150 -0.8797
  267MOL0     H35232  10.840   9.190   9.291 -1.7064  0.6944 -0.2802
  267MOL0     H35233  10.722   9.309   9.481 -0.9901  2.3876  0.1114
  267MOL0     H35234  10.693   9.367   9.717  1.4736 -1.0008  2.5795
  267MOL0     H35235  10.634   9.488   9.619 -1.1454 -0.7459  0.5914
  267MOL0     H35236  10.657   9.476   9.888  0.2558  0.3388 -0.0880
  267MOL0     H35237  10.791   9.583   9.859  0.1269  0.2598 -0.3222
  267MOL0     H35238  10.540   9.665   9.902  0.6374  0.5398 -0.7924
  267MOL0     H35239  10.520   9.645   9.734 -1.5225 -3.8343  1.3951
  267MOL0     H35240  10.727   9.827   9.877 -1.3110 -0.0287  0.1222
  267MOL0     H35241  10.746   9.797   9.697 -2.8761  0.0838 -3.7350
  267MOL0     H35242  10.457  10.098   9.705 -1.0936 -2.2783 -2.0898
  267MOL0     H35243  11.103   9.518   9.558 -2.0690  1.1084  0.0779
  267MOL0     H35244  11.196   9.403   9.384  0.0840 -1.7482  0.7241
  268MOL0     O35245  10.342   7.885  11.417 -0.5896 -0.9411  0.3798
  268MOL0     C35246  10.411   7.984  11.416  0.2959 -0.6425 -0.5732
  268MOL0     O35247  10.461   8.049  11.300 -0.3481 -0.9358  0.0225
  268MOL0     C35248  10.440   8.000  11.173 -0.1813  0.5315 -1.2351
  268MOL0     C35249  10.531   8.056  11.090 -0.8629  0.9451 -0.3380
  268MOL0     C35250  10.531   8.024  10.955 -0.4353 -0.4540  0.4161
  268MOL0     C35251  10.428   7.947  10.899 -0.5147  0.3331  0.2919
  268MOL0     O35252  10.437   7.929  10.764  0.6202 -1.0646  0.2674
  268MOL0     C35253  10.317   7.894  10.705  0.2784 -0.5232 -0.8473
  268MOL0     C35254  10.338   7.920  10.554 -0.8696  0.0304  0.6731
  268MOL0     C35255  10.211   7.898  10.463  0.7389  0.4823 -0.0497
  268MOL0     C35256  10.111   8.013  10.477 -0.8577  0.1470  0.5777
  268MOL0     C35257   9.975   7.955  10.467  0.0455  0.2261  0.2501
  268MOL0     C35258   9.874   8.077  10.461  0.0202 -0.0357  0.3444
  268MOL0     C35259   9.730   8.057  10.517  0.4579 -0.5406 -0.3553
  268MOL0     C35260   9.625   8.050  10.403 -0.3186  0.5601 -0.4142
  268MOL0     N35261   9.491   8.055  10.456 -0.2126  0.5121  0.4326
  268MOL0     C35262   9.429   8.163  10.522 -0.1819 -0.6512 -0.6166
  268MOL0     C35263   9.300   8.129  10.532  0.1050  0.6569 -0.6889
  268MOL0     C35264   9.203   8.231  10.593 -0.7853 -0.1739  0.4751
  268MOL0     C35265   9.096   8.158  10.651  0.6206 -0.3287  1.1132
  268MOL0     C35266   9.002   8.252  10.730 -0.6812 -0.8993  0.0695
  268MOL0     C35267   8.907   8.338  10.635  0.3324 -0.6578 -0.0311
  268MOL0     O35268   8.977   8.456  10.582 -0.4619  0.2429 -0.8836
  268MOL0     C35269   8.893   8.564  10.556 -0.1103  0.3724  0.1159
  268MOL0     C35270   8.849   8.592  10.429  0.1012 -0.6581  0.8079
  268MOL0     C35271   8.765   8.703  10.394 -0.7909 -0.1546  0.3237
  268MOL0     C35272   8.733   8.799  10.498 -0.3831 -0.1134 -0.5268
  268MOL0     C35273   8.659   8.929  10.468 -0.6939 -0.1784 -0.3645
  268MOL0     O35274   8.613   8.986  10.575  0.3032  0.4488 -0.0950
  268MOL0     C35275   8.583   9.122  10.558  0.4842 -0.3826 -1.2432
  268MOL0     C35276   8.661   9.223  10.617  0.5879  0.3230  0.4965
  268MOL0     C35277   8.621   9.353  10.610  0.2494  0.9037 -0.1487
  268MOL0     C35278   8.505   9.392  10.544  0.3131 -0.2105 -0.1023
  268MOL0     O35279   8.462   9.522  10.564  0.0015  0.2201  1.1905
  268MOL0     C35280   8.356   9.558  10.477 -0.0198  0.3643  0.2810
  268MOL0     C35281   8.221   9.533  10.541 -1.2179 -0.5017 -0.2423
  268MOL0     C35282   8.187   9.623  10.661  0.0568 -0.8543  1.0511
  268MOL0     C35283   8.128   9.757  10.637 -0.4835 -1.1225  0.3848
  268MOL0     C35284   7.982   9.767  10.669  0.7027 -0.5620  0.9204
  268MOL0     C35285   7.928   9.899  10.610 -0.1198 -0.2439 -0.3078
  268MOL0     C35286   7.779   9.920  10.638 -0.3385  0.7020 -0.1148
  268MOL0     C35287   7.744  10.044  10.560  0.3295  0.2222  0.3814
  268MOL0    Cl35288   7.728  10.025  10.379  0.2294 -0.4689  0.0977
  268MOL0     C35289   8.430   9.292  10.488  0.2837 -0.0687 -0.4814
  268MOL0     C35290   8.466   9.155  10.491  0.7884  0.2366 -0.1461
  268MOL0     O35291   8.656   8.974  10.355 -0.2323  0.0890  0.7559
  268MOL0     C35292   8.772   8.766  10.628  1.3482 -0.3094  0.0299
  268MOL0     C35293   8.850   8.657  10.649 -0.4134 -0.3348  0.0563
  268MOL0     N35294   9.279   8.002  10.478  0.1657  0.2550  1.0136
  268MOL0     N35295   9.395   7.958  10.446 -0.0572  0.2621 -1.0960
  268MOL0     C35296  10.334   7.887  10.989 -0.1750 -1.3106  0.2978
  268MOL0     C35297  10.343   7.919  11.124 -0.0301 -0.1337  0.0886
  268MOL0     C35298  10.440   8.053  11.548 -0.3054 -0.6369 -0.1772
  268MOL0     C35299  10.496   8.179  11.548 -0.2132  0.0476 -0.4310
  268MOL0     C35300  10.528   8.246  11.661 -0.6814 -0.3126  0.0546
  268MOL0     C35301  10.494   8.191  11.787 -0.3274  0.3675 -0.5275
  268MOL0     O35302  10.531   8.249  11.908 -0.1256  0.1968  0.8958
  268MOL0     C35303  10.672   8.281  11.924  0.4586 -0.3788  0.5362
  268MOL0     C35304  10.698   8.294  12.072 -0.2493  0.0549  0.6218
  268MOL0     C35305  10.844   8.326  12.085  0.1855 -0.3336  0.3390
  268MOL0     C35306  10.903   8.304  12.226 -0.5540 -0.7779 -0.4157
  268MOL0     C35307  11.050   8.340  12.227 -0.3607 -0.5089  0.1045
  268MOL0     C35308  11.174   8.355  12.218 -0.5254  0.4663  0.2110
  268MOL0     C35309  10.427   8.071  11.793 -0.4989  0.6986 -0.0335
  268MOL0     C35310  10.398   8.000  11.676 -0.4685  0.3899 -0.1515
  268MOL0     H35311  10.619   8.102  11.135 -1.0190  1.9964 -1.0584
  268MOL0     H35312  10.615   8.057  10.895  0.3120 -4.1314 -0.8421
  268MOL0     H35313  10.236   7.957  10.742  1.2533  0.3254 -0.1190
  268MOL0     H35314  10.290   7.788  10.706 -0.3010 -0.3711  0.0572
  268MOL0     H35315  10.410   7.846  10.516 -1.9792 -0.7388 -0.0017
  268MOL0     H35316  10.377   8.022  10.546 -0.8280  0.2227  2.7457
  268MOL0     H35317  10.163   7.811  10.509 -4.7918  2.0233 -2.0510
  268MOL0     H35318  10.233   7.875  10.358 -0.2101 -0.3056 -0.0994
  268MOL0     H35319  10.121   8.065  10.573 -1.0591 -1.6815  1.6314
  268MOL0     H35320  10.138   8.083  10.397  0.6374 -0.7157  0.2798
  268MOL0     H35321   9.956   7.893  10.555  0.0103  0.5374  0.4664
  268MOL0     H35322   9.958   7.896  10.376  2.5634  1.9254 -1.4582
  268MOL0     H35323   9.882   8.120  10.361  1.8895 -1.3495 -0.1443
  268MOL0     H35324   9.912   8.158  10.524  0.8911  0.9772 -1.3898
  268MOL0     H35325   9.732   7.959  10.565 -0.2420 -1.5633 -2.3081
  268MOL0     H35326   9.697   8.142  10.577 -4.2453 -1.8611 -0.6916
  268MOL0     H35327   9.637   7.968  10.332 -1.0569 -1.8391  2.0504
  268MOL0     H35328   9.632   8.145  10.350 -1.5758  0.2310 -1.2241
  268MOL0     H35329   9.460   8.264  10.545 -3.6655  0.7350 -1.3158
  268MOL0     H35330   9.161   8.293  10.514 -0.1264 -1.1235 -0.6559
  268MOL0     H35331   9.250   8.291  10.672  0.9956  0.7955 -1.2281
  268MOL0     H35332   9.114   8.079  10.724 -1.3633 -0.7459  1.2000
  268MOL0     H35333   9.035   8.110  10.574  0.8068  0.3056  0.5531
  268MOL0     H35334   8.933   8.201  10.798 -1.9540  0.3436 -0.2295
  268MOL0     H35335   9.064   8.317  10.792  2.4060 -1.2873 -2.3873
  268MOL0     H35336   8.826   8.385  10.692  0.5526 -0.5246  0.1710
  268MOL0     H35337   8.865   8.280  10.552  0.3829 -1.6716  0.6285
  268MOL0     H35338   8.871   8.526  10.345  0.2970  1.3043 -0.7552
  268MOL0     H35339   8.741   8.718  10.289  3.0688  0.2594 -0.6625
  268MOL0     H35340   8.745   9.184  10.673  0.5524 -1.8593 -0.8374
  268MOL0     H35341   8.687   9.421  10.664 -1.5457  2.7136 -0.1067
  268MOL0     H35342   8.361   9.492  10.390  2.0494 -3.5646  3.0664
  268MOL0     H35343   8.376   9.664  10.455 -0.2026 -0.2497 -3.4228
  268MOL0     H35344   8.228   9.429  10.575  0.7522 -0.6980 -1.1579
  268MOL0     H35345   8.138   9.540  10.470 -1.2869  1.2141 -0.0403
  268MOL0     H35346   8.269   9.634  10.732 -0.3222  0.4680  1.3220
  268MOL0     H35347   8.114   9.565  10.718 -0.4615 -0.7766  0.4839
  268MOL0     H35348   8.175   9.831  10.702  0.1938  0.0770 -1.3942
  268MOL0     H35349   8.143   9.780  10.531  0.9504 -3.6675 -0.0340
  268MOL0     H35350   7.964   9.768  10.777 -0.8805 -1.1802  0.6946
  268MOL0     H35351   7.935   9.679  10.623 -0.4760  0.4045  0.2344
  268MOL0     H35352   7.940   9.906  10.501 -0.2033  0.2536 -0.2860
  268MOL0     H35353   7.985   9.979  10.658 -1.6458  2.1404 -2.1900
  268MOL0     H35354   7.716   9.840  10.599  1.4472 -0.8633  0.1185
  268MOL0     H35355   7.761   9.936  10.745  2.2967  1.8091  0.2273
  268MOL0     H35356   7.824  10.116  10.574  0.0813  1.1589 -2.4768
  268MOL0     H35357   7.647  10.078  10.598 -1.1350 -3.1753  0.0607
  268MOL0     H35358   8.326   9.293  10.456 -0.7703  0.1764  2.6341
  268MOL0     H35359   8.408   9.075  10.446  0.0585 -0.0598  1.2633
  268MOL0     H35360   8.761   8.836  10.710  3.6289 -1.5470  1.4774
  268MOL0     H35361   8.894   8.642  10.748  1.3731  0.2952 -0.5939
  268MOL0     H35362  10.262   7.814  10.953  2.2934 -2.6819 -2.2831
  268MOL0     H35363  10.274   7.857  11.179 -1.0923  1.7243  0.9576
  268MOL0     H35364  10.532   8.226  11.458  2.5634 -4.1348 -1.8271
  268MOL0     H35365  10.575   8.343  11.646 -0.6536 -0.1859  0.9060
  268MOL0     H35366  10.701   8.371  11.870 -0.1677 -0.3770  0.1914
  268MOL0     H35367  10.738   8.208  11.875  2.1599  2.2074 -1.2304
  268MOL0     H35368  10.635   8.374  12.113  0.2827  1.7627 -1.6549
  268MOL0     H35369  10.679   8.204  12.131  0.3378 -0.6745 -0.2669
  268MOL0     H35370  10.868   8.423  12.040 -1.9664  0.0131 -0.2072
  268MOL0     H35371  10.902   8.253  12.027  4.4739  0.5792  3.0930
  268MOL0     H35372  10.850   8.375  12.291  3.3031  2.1323 -0.0619
  268MOL0     H35373  10.892   8.204  12.270  1.8493  0.2768  3.0960
  268MOL0     H35374  11.276   8.377  12.198 -0.4787  1.7176  1.6552
  268MOL0     H35375  10.380   8.030  11.882 -1.0756  3.9359  1.2636
  268MOL0     H35376  10.351   7.902  11.676 -0.8170  0.5473  1.0760
  269MOL0     O35377   3.803   4.396   2.471 -0.0482  0.1917  0.1022
  269MOL0     C35378   3.781   4.356   2.582 -0.5707 -0.0125  0.1187
  269MOL0     O35379   3.878   4.315   2.675  0.0041 -0.2671  0.4952
  269MOL0     C35380   4.010   4.349   2.649 -0.0552  0.6273 -0.8172
  269MOL0     C35381   4.054   4.473   2.610 -0.1172 -0.6959  0.6260
  269MOL0     C35382   4.196   4.507   2.621  0.0520 -0.0493 -0.6790
  269MOL0     C35383   4.287   4.401   2.651  0.3925 -0.0364 -0.5600
  269MOL0     O35384   4.424   4.403   2.647 -0.2757  0.0273 -0.5306
  269MOL0     C35385   4.491   4.535   2.664 -0.3403 -1.3400  0.6322
  269MOL0     C35386   4.642   4.512   2.661  0.4296 -0.4043 -0.9090
  269MOL0     C35387   4.724   4.643   2.654 -0.0996  0.1312 -0.2707
  269MOL0     C35388   4.732   4.698   2.516  0.2037 -0.3346  1.0266
  269MOL0     C35389   4.856   4.667   2.430  0.5075 -0.5756  0.7320
  269MOL0     C35390   4.835   4.728   2.291  0.8750  0.5413  0.1251
  269MOL0     C35391   4.956   4.702   2.201  0.8832  0.1896 -0.2467
  269MOL0     C35392   5.070   4.791   2.229 -1.0349  0.8444  0.0082
  269MOL0     N35393   5.052   4.933   2.249  0.1507 -0.3997  0.1493
  269MOL0     C35394   4.995   5.026   2.159 -0.2150  0.1909 -0.0591
  269MOL0     C35395   5.056   5.145   2.190 -1.0593 -1.1084 -0.1822
  269MOL0     C35396   5.029   5.276   2.112  0.3015  0.0202  0.8083
  269MOL0     C35397   5.095   5.241   1.973  0.1983 -0.1756  0.5291
  269MOL0     C35398   5.047   5.343   1.858 -0.0111  0.0174 -0.6937
  269MOL0     C35399   5.051   5.288   1.722 -0.0286 -0.2007 -0.4286
  269MOL0     O35400   4.975   5.377   1.648  0.9075 -0.0701 -0.3339
  269MOL0     C35401   4.993   5.370   1.509  1.1593 -0.0708  0.3375
  269MOL0     C35402   4.971   5.482   1.438 -0.6056  0.1999  0.7614
  269MOL0     C35403   5.000   5.493   1.298  0.9194 -1.2802 -0.0827
  269MOL0     C35404   5.058   5.384   1.235 -1.4983  0.3036  0.6929
  269MOL0     C35405   5.109   5.396   1.086  0.4499 -0.2942 -0.2737
  269MOL0     O35406   5.208   5.300   1.046  0.5254 -0.1633 -0.2631
  269MOL0     C35407   5.228   5.286   0.911 -0.5570 -1.2059 -0.6132
  269MOL0     C35408   5.125   5.261   0.819  0.0458 -0.2246 -0.1418
  269MOL0     C35409   5.154   5.266   0.678 -1.1590  0.5504 -0.0319
  269MOL0     C35410   5.286   5.283   0.638 -0.3300 -0.0984 -0.0823
  269MOL0     O35411   5.298   5.286   0.502 -0.7956  0.4510  0.3530
  269MOL0     C35412   5.404   5.352   0.441 -0.7012 -0.5901  0.0596
  269MOL0     C35413   5.339   5.421   0.320  0.3337  0.5636  0.2655
  269MOL0     C35414   5.441   5.522   0.258 -0.0945 -0.9014 -0.6101
  269MOL0     C35415   5.385   5.590   0.129  0.9049 -0.1929 -0.0934
  269MOL0     C35416   5.458   5.720   0.082  0.2219  0.3907  0.2322
  269MOL0     C35417   5.373   5.795  -0.021  0.7126  0.5942  0.2514
  269MOL0     C35418   5.302   5.709  -0.126  0.0376 -0.9076  0.8688
  269MOL0     C35419   5.214   5.785  -0.225 -0.5779 -0.7554  0.7879
  269MOL0    Cl35420   5.142   5.695  -0.352 -0.0061  0.0719 -0.0710
  269MOL0     C35421   5.389   5.290   0.732  1.2292 -0.0260  0.4653
  269MOL0     C35422   5.362   5.302   0.867 -0.2362  1.1197  0.2351
  269MOL0     O35423   5.058   5.485   1.012  0.1607  0.1530 -0.3622
  269MOL0     C35424   5.063   5.266   1.302 -0.1194  0.3988  0.4420
  269MOL0     C35425   5.038   5.258   1.438  0.5274 -0.3908  0.2027
  269MOL0     N35426   5.157   5.111   2.282  0.5251  0.0370 -0.7110
  269MOL0     N35427   5.132   4.999   2.330 -0.3132 -0.8754  0.7210
  269MOL0     C35428   4.239   4.273   2.687  0.0339 -0.0885 -0.3269
  269MOL0     C35429   4.100   4.252   2.693  0.7401  0.0881 -0.0728
  269MOL0     C35430   3.640   4.357   2.635  0.0014  0.2568  0.6882
  269MOL0     C35431   3.533   4.358   2.544  0.4723  0.2675  0.9769
  269MOL0     C35432   3.397   4.362   2.587 -0.5742  0.8800 -0.2306
  269MOL0     C35433   3.380   4.389   2.722  0.6285  0.2035 -1.0452
  269MOL0     O35434   3.247   4.410   2.772 -0.2190 -0.9042 -0.1304
  269MOL0     C35435   3.163   4.294   2.749 -0.4623 -0.1483 -0.1730
  269MOL0     C35436   3.013   4.332   2.759 -0.1129 -0.2613 -0.0037
  269MOL0     C35437   2.967   4.374   2.899 -1.5510  0.7406 -1.3116
  269MOL0     C35438   2.812   4.379   2.905 -0.3680  0.1311  0.1890
  269MOL0     C35439   2.763   4.502   2.845  0.7208 -0.3540  0.6852
  269MOL0     C35440   2.717   4.592   2.775  0.0468 -0.1969  0.3600
  269MOL0     C35441   3.485   4.389   2.810 -0.0413 -0.1765 -0.3546
  269MOL0     C35442   3.618   4.370   2.764  0.2436  0.1298  0.5458
  269MOL0     H35443   3.982   4.552   2.590  1.0177  0.2463  0.1131
  269MOL0     H35444   4.222   4.609   2.595 -0.5335  1.4095  3.6565
  269MOL0     H35445   4.452   4.579   2.757 -3.0944 -3.6618  0.7077
  269MOL0     H35446   4.453   4.599   2.584 -2.2731 -1.5753  1.2903
  269MOL0     H35447   4.661   4.447   2.575  1.6228  0.1769 -1.1138
  269MOL0     H35448   4.672   4.452   2.747 -1.0636 -1.8839 -1.3706
  269MOL0     H35449   4.821   4.625   2.700  0.5361  1.4442 -1.0381
  269MOL0     H35450   4.680   4.708   2.730 -0.7291 -2.5554  1.8137
  269MOL0     H35451   4.652   4.674   2.446  0.4212  2.0461 -0.1209
  269MOL0     H35452   4.733   4.805   2.539 -0.2554  0.1582 -1.0058
  269MOL0     H35453   4.878   4.562   2.412  0.3415 -0.5868  0.5899
  269MOL0     H35454   4.942   4.721   2.471 -1.0449  3.3762 -0.6888
  269MOL0     H35455   4.815   4.833   2.312  0.6381  0.3555  0.8337
  269MOL0     H35456   4.752   4.672   2.247 -0.2386 -0.3460  3.1541
  269MOL0     H35457   4.988   4.598   2.214 -0.5513 -0.1279  0.9370
  269MOL0     H35458   4.916   4.715   2.100  2.5122  1.3915 -0.7896
  269MOL0     H35459   5.144   4.781   2.149 -0.4489  1.6695  0.4348
  269MOL0     H35460   5.112   4.748   2.321 -0.5833  1.5346  0.1282
  269MOL0     H35461   4.919   5.009   2.084 -0.6693 -0.3924  0.5227
  269MOL0     H35462   5.089   5.355   2.158  4.5861 -2.6946  0.5026
  269MOL0     H35463   4.921   5.289   2.101 -0.0898 -3.7043 -1.7733
  269MOL0     H35464   5.066   5.141   1.941  0.0618 -1.6214  4.5878
  269MOL0     H35465   5.204   5.245   1.969  0.1768 -0.2980 -1.4071
  269MOL0     H35466   4.954   5.393   1.886 -1.0816 -1.3955 -1.5712
  269MOL0     H35467   5.119   5.424   1.841 -0.0593  0.1212 -0.3988
  269MOL0     H35468   5.007   5.188   1.724 -1.3022  0.3454  0.8978
  269MOL0     H35469   5.152   5.283   1.680  0.2175 -0.6328  0.1923
  269MOL0     H35470   4.961   5.578   1.488 -0.6285  1.3837 -1.3983
  269MOL0     H35471   4.981   5.585   1.243  2.3200 -0.2860  1.0119
  269MOL0     H35472   5.023   5.246   0.853 -0.4722 -3.9603 -2.8104
  269MOL0     H35473   5.074   5.255   0.606 -1.1566  2.6297 -0.4257
  269MOL0     H35474   5.478   5.285   0.398 -1.5870 -0.0657 -2.4749
  269MOL0     H35475   5.448   5.428   0.506 -1.3104  0.1000 -0.3142
  269MOL0     H35476   5.247   5.468   0.355  0.2364 -1.0692  2.3995
  269MOL0     H35477   5.312   5.335   0.257  0.4857  0.9610 -0.3556
  269MOL0     H35478   5.536   5.469   0.248 -0.3858 -1.5222 -0.1807
  269MOL0     H35479   5.461   5.596   0.336  1.5985  0.0705 -1.9212
  269MOL0     H35480   5.388   5.521   0.044  0.0196  2.5239 -2.4945
  269MOL0     H35481   5.277   5.601   0.141  0.0741 -1.7060 -4.3669
  269MOL0     H35482   5.558   5.710   0.039 -1.1774  0.1672 -3.2950
  269MOL0     H35483   5.451   5.794   0.162 -1.2806  0.2168  0.2840
  269MOL0     H35484   5.434   5.877  -0.060  1.9713  1.0025  2.8994
  269MOL0     H35485   5.291   5.845   0.031  0.1353  1.7126 -1.6383
  269MOL0     H35486   5.379   5.652  -0.180  1.0408  1.4142 -0.3071
  269MOL0     H35487   5.236   5.633  -0.084 -1.9758 -1.8403 -3.4126
  269MOL0     H35488   5.258   5.875  -0.270  1.6186 -0.1102  3.8844
  269MOL0     H35489   5.136   5.830  -0.162  0.0683  0.6135  0.6458
  269MOL0     H35490   5.493   5.295   0.701  1.4472 -1.5378  0.8951
  269MOL0     H35491   5.445   5.297   0.936  1.9135 -3.3354 -2.2116
  269MOL0     H35492   5.101   5.176   1.253 -1.8999 -0.0476 -0.1812
  269MOL0     H35493   5.054   5.167   1.495 -1.2146 -0.6772  0.2865
  269MOL0     H35494   4.303   4.192   2.721 -1.2432  0.1625  3.1317
  269MOL0     H35495   4.061   4.163   2.741 -0.0538  2.0279  3.1938
  269MOL0     H35496   3.542   4.348   2.436 -2.3210  2.5648  0.3936
  269MOL0     H35497   3.314   4.376   2.518 -0.6263 -0.2394 -0.4109
  269MOL0     H35498   3.201   4.214   2.812  3.7738 -0.1395 -2.3413
  269MOL0     H35499   3.171   4.263   2.644  1.7987 -2.1055  0.4846
  269MOL0     H35500   2.990   4.415   2.691  1.3701  0.3285  0.1985
  269MOL0     H35501   2.975   4.236   2.723  0.3244 -1.6947  3.0881
  269MOL0     H35502   3.011   4.469   2.928 -1.7438  0.5977 -0.5434
  269MOL0     H35503   3.008   4.299   2.968  2.8822  2.5227 -1.6635
  269MOL0     H35504   2.757   4.301   2.851 -0.7004 -1.1096  2.2382
  269MOL0     H35505   2.774   4.387   3.007 -0.3169  0.9559  0.1529
  269MOL0     H35506   2.681   4.670   2.711  0.0920 -0.7705 -0.3714
  269MOL0     H35507   3.473   4.436   2.907  4.5228  0.5765  0.0389
  269MOL0     H35508   3.705   4.391   2.825  1.9637 -2.4827 -0.8314
  270MOL0     O35509   7.790   1.716   4.189 -0.1540  0.0501 -0.4390
  270MOL0     C35510   7.678   1.681   4.174  0.4548 -0.0177  0.4333
  270MOL0     O35511   7.577   1.714   4.255  0.8234  0.1337  0.6820
  270MOL0     C35512   7.563   1.817   4.347 -0.1830  0.5313 -0.5197
  270MOL0     C35513   7.451   1.880   4.366 -0.0554 -0.6297  0.4809
  270MOL0     C35514   7.433   1.968   4.473  0.5654  0.2568  0.0588
  270MOL0     C35515   7.537   2.020   4.552 -0.0274  0.7255  1.1274
  270MOL0     O35516   7.518   2.110   4.652  0.4474  0.1401 -0.2358
  270MOL0     C35517   7.551   2.245   4.614  0.2320 -0.4695 -0.7675
  270MOL0     C35518   7.705   2.268   4.604 -1.5441 -0.1742  0.4528
  270MOL0     C35519   7.772   2.400   4.666  0.8090  0.4854  0.0882
  270MOL0     C35520   7.705   2.523   4.594 -0.1186  0.0683 -0.8539
  270MOL0     C35521   7.782   2.653   4.626  0.6085  0.1528  0.6362
  270MOL0     C35522   7.725   2.765   4.534  0.4221  0.4747  0.4542
  270MOL0     C35523   7.829   2.868   4.500 -0.2017  0.2132 -0.8710
  270MOL0     C35524   7.944   2.830   4.410  0.7665 -0.0991 -0.0751
  270MOL0     N35525   7.903   2.829   4.269  0.2575  0.3523  0.1938
  270MOL0     C35526   7.882   2.935   4.183 -0.6240 -0.2876  0.2036
  270MOL0     C35527   7.843   2.886   4.067  0.3343  0.6297  0.0477
  270MOL0     C35528   7.808   2.973   3.952  0.2698 -0.6090  0.3839
  270MOL0     C35529   7.720   2.916   3.845 -0.9545  0.1269  1.1870
  270MOL0     C35530   7.708   3.016   3.725  0.1017 -0.6032 -0.3230
  270MOL0     C35531   7.617   2.954   3.611 -0.6999  0.1284 -0.0973
  270MOL0     O35532   7.638   3.051   3.504  0.4711 -0.2256 -0.1419
  270MOL0     C35533   7.575   3.013   3.388 -0.7388  0.6942 -0.1696
  270MOL0     C35534   7.650   3.029   3.271 -0.0391  0.3625  1.5745
  270MOL0     C35535   7.595   2.991   3.145  0.4101  0.4861 -0.3741
  270MOL0     C35536   7.455   2.952   3.152 -0.1962  0.4113 -0.2351
  270MOL0     C35537   7.398   2.881   3.042 -0.0688  0.4083  0.0952
  270MOL0     O35538   7.272   2.821   3.053 -0.4475 -0.8499 -0.6323
  270MOL0     C35539   7.198   2.768   2.955 -0.3793  0.3238 -1.4116
  270MOL0     C35540   7.261   2.708   2.836  0.3187  0.2393 -0.0160
  270MOL0     C35541   7.171   2.676   2.731  0.3675 -0.2307  0.3741
  270MOL0     C35542   7.031   2.674   2.747 -0.7862  1.0869  0.3196
  270MOL0     O35543   6.939   2.623   2.657 -0.7600  0.5729  0.3494
  270MOL0     C35544   6.972   2.643   2.517 -0.2850 -0.0871 -0.3430
  270MOL0     C35545   6.840   2.641   2.441 -0.1176 -0.8513 -0.5123
  270MOL0     C35546   6.770   2.775   2.446 -0.4213  0.5282 -0.1771
  270MOL0     C35547   6.631   2.762   2.396  0.2214  0.5813  0.0440
  270MOL0     C35548   6.543   2.884   2.422  0.5160 -0.2767 -1.1886
  270MOL0     C35549   6.578   3.025   2.356  1.0256  0.2359  0.7955
  270MOL0     C35550   6.464   3.128   2.360  0.2870  0.0344  0.2421
  270MOL0     C35551   6.499   3.240   2.269 -1.1553 -1.0876 -0.0918
  270MOL0    Cl35552   6.377   3.371   2.265  0.2633 -0.2834  0.2526
  270MOL0     C35553   6.972   2.722   2.861 -0.2286 -0.0992 -1.0838
  270MOL0     C35554   7.056   2.773   2.964 -0.1621 -1.3224  0.5397
  270MOL0     O35555   7.460   2.894   2.935 -0.0420 -1.1939 -0.2585
  270MOL0     C35556   7.382   2.946   3.269 -0.3298  0.3888  0.3030
  270MOL0     C35557   7.443   2.976   3.384  0.3597  0.2647 -0.6664
  270MOL0     N35558   7.836   2.749   4.084 -0.7301  1.0377  0.0334
  270MOL0     N35559   7.869   2.717   4.198 -0.4918 -0.3402 -0.2054
  270MOL0     C35560   7.653   1.942   4.536 -0.4499 -1.1598  0.2519
  270MOL0     C35561   7.666   1.850   4.432 -0.5537  0.0820  0.1100
  270MOL0     C35562   7.641   1.607   4.052 -0.3534  0.7424 -0.4748
  270MOL0     C35563   7.508   1.578   4.025  0.2160 -0.1139 -0.1911
  270MOL0     C35564   7.482   1.522   3.904  0.9126  0.6609 -0.5503
  270MOL0     C35565   7.576   1.520   3.799 -0.0237 -0.2470 -0.1167
  270MOL0     O35566   7.542   1.481   3.666 -0.4070  0.7849 -0.0390
  270MOL0     C35567   7.418   1.532   3.618  0.5157 -1.0805 -0.4747
  270MOL0     C35568   7.396   1.487   3.475 -0.3688 -1.0629  1.1775
  270MOL0     C35569   7.410   1.337   3.450  0.2497 -0.3568 -0.2352
  270MOL0     C35570   7.296   1.244   3.496  0.2134 -0.4012 -0.3056
  270MOL0     C35571   7.161   1.304   3.508 -0.7986  1.4553 -0.7385
  270MOL0     C35572   7.049   1.353   3.515 -0.2273  0.1494 -0.3042
  270MOL0     C35573   7.700   1.569   3.820  0.2572  0.5765  0.2366
  270MOL0     C35574   7.734   1.605   3.953 -0.0378  0.9119 -0.1523
  270MOL0     H35575   7.372   1.852   4.297  0.7539 -1.1087 -0.2725
  270MOL0     H35576   7.340   2.021   4.493  1.8814  1.2796  4.6006
  270MOL0     H35577   7.522   2.304   4.702  0.0728 -2.2024  0.3833
  270MOL0     H35578   7.494   2.274   4.525 -0.8761  1.4876  0.4900
  270MOL0     H35579   7.734   2.243   4.502 -1.5650 -0.5568  0.5388
  270MOL0     H35580   7.751   2.186   4.659 -1.4422 -0.9638 -0.7779
  270MOL0     H35581   7.880   2.408   4.649  0.6854  0.6978 -0.5929
  270MOL0     H35582   7.754   2.394   4.774 -0.1929 -0.2973 -0.1048
  270MOL0     H35583   7.716   2.512   4.486 -2.6042  0.5570 -1.2294
  270MOL0     H35584   7.601   2.534   4.627  0.1948 -2.1931  1.1455
  270MOL0     H35585   7.890   2.638   4.621  0.3719 -1.5627 -0.4606
  270MOL0     H35586   7.755   2.683   4.728 -0.5460 -0.1529  0.4440
  270MOL0     H35587   7.651   2.808   4.602  0.1919  0.5759  0.1398
  270MOL0     H35588   7.672   2.733   4.444  0.3279 -0.1941  0.7331
  270MOL0     H35589   7.767   2.941   4.447 -1.9994 -2.0100 -2.0149
  270MOL0     H35590   7.861   2.906   4.597  1.7588 -1.8418 -0.6551
  270MOL0     H35591   7.989   2.733   4.434 -0.7321 -0.1430  2.9503
  270MOL0     H35592   8.024   2.906   4.411 -2.3149  3.4808 -1.3280
  270MOL0     H35593   7.883   3.039   4.216  2.1935 -0.3550  0.5584
  270MOL0     H35594   7.900   3.006   3.904 -0.2685 -2.2302 -1.9620
  270MOL0     H35595   7.763   3.059   4.002  3.5627  1.5736 -0.1120
  270MOL0     H35596   7.628   2.892   3.899 -0.2017  0.1047  2.5282
  270MOL0     H35597   7.767   2.824   3.810 -0.6511  0.0331  1.8124
  270MOL0     H35598   7.662   3.111   3.755 -3.0726 -1.0168 -3.2567
  270MOL0     H35599   7.810   3.032   3.688  1.0547 -1.1913  1.9064
  270MOL0     H35600   7.514   2.954   3.649 -2.2386  1.5949 -3.7760
  270MOL0     H35601   7.660   2.857   3.586  3.5194  1.0616  2.6473
  270MOL0     H35602   7.751   3.063   3.289  0.8860 -1.5475  0.2920
  270MOL0     H35603   7.650   3.008   3.053  0.4283  0.2762 -0.4037
  270MOL0     H35604   7.368   2.693   2.830  0.1917 -0.3260 -1.1792
  270MOL0     H35605   7.199   2.645   2.631  2.2822  1.2229  0.4035
  270MOL0     H35606   7.026   2.565   2.462  1.3764  0.1188  0.8988
  270MOL0     H35607   7.030   2.736   2.507  2.8543 -1.9092 -0.3244
  270MOL0     H35608   6.783   2.557   2.482 -2.1207  0.7303  0.0726
  270MOL0     H35609   6.874   2.619   2.340  0.5056 -1.1781 -0.2388
  270MOL0     H35610   6.838   2.835   2.384  1.0953 -0.4024  0.5384
  270MOL0     H35611   6.773   2.823   2.544  1.2699 -0.4570  0.2856
  270MOL0     H35612   6.633   2.744   2.288 -0.3422  3.3479 -0.4938
  270MOL0     H35613   6.584   2.675   2.444  3.6775 -0.1135  2.4684
  270MOL0     H35614   6.540   2.903   2.529 -0.4927 -0.4751 -1.1760
  270MOL0     H35615   6.441   2.872   2.383 -0.5994 -1.5042  1.8687
  270MOL0     H35616   6.614   3.001   2.256 -0.7778 -1.9582  0.5925
  270MOL0     H35617   6.664   3.062   2.414  0.7594  2.1173  0.0692
  270MOL0     H35618   6.371   3.084   2.322  1.4667 -0.9690 -1.6473
  270MOL0     H35619   6.454   3.167   2.462 -0.1354  0.4624  0.0401
  270MOL0     H35620   6.514   3.206   2.166 -0.3840  0.0827 -0.3850
  270MOL0     H35621   6.593   3.280   2.308 -3.4055  0.0368  5.1097
  270MOL0     H35622   6.864   2.725   2.858 -0.2221  2.8344 -4.2990
  270MOL0     H35623   7.007   2.816   3.050 -0.2413 -0.3277  0.0130
  270MOL0     H35624   7.284   2.900   3.275 -0.9614  1.5886 -0.3172
  270MOL0     H35625   7.381   2.972   3.473  2.3063 -1.0637  0.6851
  270MOL0     H35626   7.739   1.958   4.599  0.2494  0.9414 -1.1557
  270MOL0     H35627   7.759   1.795   4.421 -0.7489 -0.1882 -0.2130
  270MOL0     H35628   7.434   1.599   4.102  0.1235  1.9285 -0.7676
  270MOL0     H35629   7.380   1.489   3.887  1.6102 -1.2304 -1.3925
  270MOL0     H35630   7.441   1.639   3.620 -0.6881 -0.7880  1.8676
  270MOL0     H35631   7.332   1.509   3.683 -0.3751 -0.9305 -1.5697
  270MOL0     H35632   7.305   1.526   3.427  2.3288  2.0226 -2.0661
  270MOL0     H35633   7.479   1.539   3.427 -0.9698 -1.5175 -0.4234
  270MOL0     H35634   7.502   1.293   3.489  0.2855  0.2353  0.3439
  270MOL0     H35635   7.412   1.314   3.343  0.6782 -2.0870  0.1045
  270MOL0     H35636   7.288   1.159   3.428 -0.2982  0.4894 -1.3964
  270MOL0     H35637   7.311   1.200   3.595 -1.8271 -2.0529 -0.6530
  270MOL0     H35638   6.958   1.408   3.529  0.7316  1.1738  3.0042
  270MOL0     H35639   7.770   1.551   3.739 -0.3707 -3.6904  0.4212
  270MOL0     H35640   7.834   1.646   3.966 -1.2004  3.9627  0.1791
  271MOL0     O35641   6.828   9.728   0.035  0.2415  1.4293 -0.7204
  271MOL0     C35642   6.935   9.690   0.089  0.0846 -0.8459  0.8519
  271MOL0     O35643   6.989   9.760   0.192  0.0661  0.2267  0.3082
  271MOL0     C35644   7.039   9.686   0.295 -0.4603 -0.2986 -0.9693
  271MOL0     C35645   7.175   9.697   0.319 -0.0989  0.2081  0.1655
  271MOL0     C35646   7.242   9.615   0.418  0.4618 -0.5335 -0.3172
  271MOL0     C35647   7.173   9.523   0.485 -1.6025  0.1142 -0.6842
  271MOL0     O35648   7.245   9.460   0.585  0.3749  0.0135 -0.9861
  271MOL0     C35649   7.175   9.353   0.641 -0.4623  0.2522 -0.2959
  271MOL0     C35650   7.276   9.260   0.709 -0.6056 -0.1590 -0.4505
  271MOL0     C35651   7.358   9.346   0.803 -0.4153  1.3098  0.0827
  271MOL0     C35652   7.441   9.252   0.894 -0.0921 -1.0172  0.5586
  271MOL0     C35653   7.571   9.318   0.940  0.0381  0.5750 -0.0410
  271MOL0     C35654   7.672   9.316   0.820 -0.3869  0.5353  0.6349
  271MOL0     C35655   7.813   9.348   0.873  0.1999 -0.3263  0.0905
  271MOL0     C35656   7.903   9.348   0.753 -1.1394  0.3238 -0.9036
  271MOL0     N35657   8.045   9.316   0.792  0.0783 -0.9255 -0.2381
  271MOL0     C35658   8.135   9.411   0.835  0.3352 -0.4565  0.3623
  271MOL0     C35659   8.244   9.344   0.860 -0.0675 -1.5382  0.0002
  271MOL0     C35660   8.365   9.421   0.883  0.0307  0.9891 -0.8244
  271MOL0     C35661   8.440   9.458   0.747 -0.1796  0.0869 -0.1187
  271MOL0     C35662   8.576   9.512   0.787  0.7331  0.7273  0.4158
  271MOL0     C35663   8.661   9.530   0.657 -0.0710  0.0307  1.1785
  271MOL0     O35664   8.626   9.644   0.579 -0.0651 -0.1873  0.5621
  271MOL0     C35665   8.726   9.697   0.495 -0.0952  0.1422 -0.5874
  271MOL0     C35666   8.842   9.628   0.463 -0.5628 -0.0994 -0.2323
  271MOL0     C35667   8.945   9.686   0.392  0.2016  0.2691  0.2763
  271MOL0     C35668   8.940   9.829   0.359 -0.5535 -0.1184  0.3787
  271MOL0     C35669   9.047   9.884   0.267  0.6142 -0.1856  0.0852
  271MOL0     O35670   9.134   9.796   0.212 -0.7180  0.5682  0.9121
  271MOL0     C35671   9.219   9.835   0.112 -0.7721 -1.5286  0.4235
  271MOL0     C35672   9.256   9.742   0.022 -0.6928 -0.8298 -0.4672
  271MOL0     C35673   9.345   9.770  -0.081  0.3412  1.0398  0.5585
  271MOL0     C35674   9.389   9.901  -0.099  0.2139  0.1782  0.7022
  271MOL0     O35675   9.470   9.950  -0.205  0.1506 -0.4228 -0.1179
  271MOL0     C35676   9.519   9.864  -0.305  0.6225  0.2891  1.1475
  271MOL0     C35677   9.535   9.946  -0.433  0.0660 -0.1693  0.0183
  271MOL0     C35678   9.649  10.037  -0.415 -0.3537  1.1137 -0.0636
  271MOL0     C35679   9.671  10.114  -0.549 -0.3946  0.8066  0.1609
  271MOL0     C35680   9.817  10.177  -0.565  0.2988  0.4073 -0.5280
  271MOL0     C35681   9.818  10.276  -0.676 -0.1249  0.1980  0.5078
  271MOL0     C35682   9.724  10.397  -0.652  0.0921  0.7168 -0.7489
  271MOL0     C35683   9.750  10.514  -0.741  0.3308  1.0602 -0.7530
  271MOL0    Cl35684   9.619  10.619  -0.769  0.4161 -0.1599  0.5518
  271MOL0     C35685   9.359   9.997  -0.009  0.7476 -0.2547  0.3134
  271MOL0     C35686   9.271   9.973   0.097  0.5563  0.7255 -0.7610
  271MOL0     O35687   9.040  10.006   0.245 -0.1408 -0.3934  0.5967
  271MOL0     C35688   8.827   9.901   0.392 -0.5337  0.4162  0.2186
  271MOL0     C35689   8.723   9.832   0.454 -0.4516 -0.5427  0.2356
  271MOL0     N35690   8.225   9.212   0.848 -0.6198  0.0268 -0.1032
  271MOL0     N35691   8.093   9.197   0.815 -0.6733 -0.4410  0.2652
  271MOL0     C35692   7.040   9.504   0.457  0.1153  0.2138 -0.9603
  271MOL0     C35693   6.966   9.582   0.367 -0.4978  0.2187 -0.3798
  271MOL0     C35694   6.991   9.561   0.036 -0.5669  0.3526  0.3885
  271MOL0     C35695   7.128   9.537   0.031 -0.0212  0.8680  0.5755
  271MOL0     C35696   7.178   9.423  -0.024  0.4709 -0.5044 -0.3889
  271MOL0     C35697   7.098   9.324  -0.089  0.9877 -0.1821 -0.2819
  271MOL0     O35698   7.130   9.208  -0.155  0.7679 -0.3870  0.2536
  271MOL0     C35699   7.270   9.180  -0.161 -0.4927  0.6915  0.5527
  271MOL0     C35700   7.348   9.270  -0.268 -0.3586  0.9390 -0.9126
  271MOL0     C35701   7.500   9.277  -0.232  0.3856 -0.2581 -0.1393
  271MOL0     C35702   7.562   9.409  -0.279 -0.1159  0.1738 -0.1198
  271MOL0     C35703   7.535   9.520  -0.186  0.5050 -0.0108  0.0886
  271MOL0     C35704   7.500   9.610  -0.107  0.4202 -0.3251  0.7022
  271MOL0     C35705   6.955   9.351  -0.088 -0.5321 -0.0283  0.3534
  271MOL0     C35706   6.907   9.468  -0.026  0.3330 -0.0871 -0.0355
  271MOL0     H35707   7.236   9.765   0.259  0.3043 -1.2478 -1.1507
  271MOL0     H35708   7.346   9.643   0.431  0.8831 -1.1801 -2.0823
  271MOL0     H35709   7.111   9.291   0.578  0.5249 -2.1044  0.8977
  271MOL0     H35710   7.118   9.393   0.726  1.7421  1.8678  0.5126
  271MOL0     H35711   7.340   9.200   0.643  3.3727  1.7728  1.2765
  271MOL0     H35712   7.228   9.197   0.784 -2.4704  1.7551  0.0439
  271MOL0     H35713   7.296   9.418   0.857  1.6574  4.1716 -1.1026
  271MOL0     H35714   7.432   9.392   0.736  2.0296 -0.3491  1.5011
  271MOL0     H35715   7.395   9.209   0.984 -0.2223  0.4328  1.2179
  271MOL0     H35716   7.467   9.169   0.827 -1.2051  0.3557 -1.6998
  271MOL0     H35717   7.619   9.259   1.018  0.4803 -0.0207 -0.7507
  271MOL0     H35718   7.554   9.412   0.992 -0.3344  0.7761 -0.5085
  271MOL0     H35719   7.650   9.395   0.748 -1.2229  0.5095  0.8556
  271MOL0     H35720   7.684   9.222   0.766  5.2199  1.4968 -0.4106
  271MOL0     H35721   7.811   9.444   0.926  0.8985 -0.9393  1.2735
  271MOL0     H35722   7.837   9.276   0.952  0.9132  0.6618  0.8139
  271MOL0     H35723   7.891   9.446   0.705  0.0825  1.7081  1.4269
  271MOL0     H35724   7.869   9.269   0.685 -0.7646 -1.0770  0.4961
  271MOL0     H35725   8.114   9.517   0.841  2.7973  0.0161  3.4745
  271MOL0     H35726   8.434   9.351   0.931  0.3876  0.3312 -2.2600
  271MOL0     H35727   8.351   9.510   0.946  2.0468  1.2885 -0.7055
  271MOL0     H35728   8.374   9.529   0.695  0.3852 -0.3902 -1.5370
  271MOL0     H35729   8.455   9.364   0.694  3.9373  1.0813 -1.0451
  271MOL0     H35730   8.577   9.612   0.832  3.6026  1.5287 -1.1317
  271MOL0     H35731   8.630   9.451   0.860 -1.8137 -0.9360  1.0248
  271MOL0     H35732   8.650   9.442   0.593  1.0191  2.6544 -3.0607
  271MOL0     H35733   8.766   9.540   0.687  0.6981  0.8280 -1.5329
  271MOL0     H35734   8.857   9.529   0.505 -0.2653 -0.5888 -1.4486
  271MOL0     H35735   9.026   9.616   0.376 -0.7827 -0.5289 -1.4071
  271MOL0     H35736   9.200   9.649   0.026 -2.4325  0.1585 -0.7046
  271MOL0     H35737   9.368   9.694  -0.155  0.7371  0.3389  1.3969
  271MOL0     H35738   9.443   9.793  -0.341 -1.8180  3.4886 -0.5022
  271MOL0     H35739   9.613   9.818  -0.273 -0.1210 -0.9227  1.6601
  271MOL0     H35740   9.448  10.010  -0.449 -0.1151 -0.9834 -2.6118
  271MOL0     H35741   9.555   9.882  -0.519 -1.8302 -0.3788 -0.3008
  271MOL0     H35742   9.741   9.981  -0.398 -1.0425 -1.0787 -2.8189
  271MOL0     H35743   9.628  10.109  -0.335 -1.2359  1.4874 -0.6120
  271MOL0     H35744   9.665  10.041  -0.631 -1.8190 -4.0585  4.1235
  271MOL0     H35745   9.590  10.187  -0.563 -1.6144 -0.0695  2.1877
  271MOL0     H35746   9.900  10.114  -0.598 -2.0047 -4.1829  1.5186
  271MOL0     H35747   9.842  10.229  -0.472 -3.1835  3.4926 -1.0721
  271MOL0     H35748   9.801  10.218  -0.767  1.5719 -2.8627  1.9598
  271MOL0     H35749   9.918  10.321  -0.679 -0.4314  0.8740  0.3392
  271MOL0     H35750   9.621  10.362  -0.664  0.6657 -2.5720  2.2206
  271MOL0     H35751   9.722  10.431  -0.548 -2.2108 -0.0250 -0.5115
  271MOL0     H35752   9.777  10.468  -0.837  2.3243  1.0361 -0.2148
  271MOL0     H35753   9.836  10.574  -0.712 -0.6565  1.2820  2.0298
  271MOL0     H35754   9.397  10.098  -0.018 -1.7220  0.5560 -2.2283
  271MOL0     H35755   9.268  10.044   0.179  1.8714 -3.4121  3.3311
  271MOL0     H35756   8.806  10.003   0.361 -0.2539  1.5127  3.3430
  271MOL0     H35757   8.639   9.899   0.467  1.9491  2.4897  1.1482
  271MOL0     H35758   6.976   9.442   0.519 -0.1300  1.9885  0.6529
  271MOL0     H35759   6.860   9.566   0.352 -0.7096  1.2229 -0.0388
  271MOL0     H35760   7.195   9.607   0.079  0.5926  0.0580  0.9258
  271MOL0     H35761   7.286   9.421  -0.018  0.3928 -0.4415  2.1619
  271MOL0     H35762   7.302   9.076  -0.176 -0.5680  0.8096 -0.5314
  271MOL0     H35763   7.292   9.196  -0.055  1.1136  1.4172  0.1391
  271MOL0     H35764   7.347   9.231  -0.370  4.3500  2.7478 -1.9271
  271MOL0     H35765   7.309   9.373  -0.264  1.3628  1.5996  0.3578
  271MOL0     H35766   7.552   9.190  -0.272 -0.5620  0.0629 -2.1801
  271MOL0     H35767   7.500   9.269  -0.123  1.3861 -2.6528 -0.2521
  271MOL0     H35768   7.671   9.408  -0.277 -0.1084 -1.3483  1.4137
  271MOL0     H35769   7.529   9.425  -0.382  2.7909  3.4364 -0.7299
  271MOL0     H35770   7.454   9.688  -0.048 -2.3766  0.2679 -1.9951
  271MOL0     H35771   6.890   9.271  -0.124 -1.4889  0.3303  1.2352
  271MOL0     H35772   6.801   9.491  -0.021  0.3515  0.0774 -0.4269
  272MOL0     O35773   2.700   0.468  10.000  0.2767  0.8448  0.5417
  272MOL0     C35774   2.603   0.450  10.075 -0.8955  0.4651  0.3410
  272MOL0     O35775   2.499   0.363  10.060 -0.0616  0.0522  0.1218
  272MOL0     C35776   2.473   0.312   9.935  0.1623 -0.0511 -0.7126
  272MOL0     C35777   2.559   0.264   9.837 -0.0877  0.4063  0.5948
  272MOL0     C35778   2.522   0.202   9.716  0.1422  0.3504 -0.8558
  272MOL0     C35779   2.390   0.185   9.689 -0.0391  0.5142  0.0141
  272MOL0     O35780   2.343   0.123   9.573  0.1421  0.3420 -0.4274
  272MOL0     C35781   2.423   0.121   9.458 -0.3874  0.9002  0.4410
  272MOL0     C35782   2.333   0.129   9.341 -0.0837  0.5667  0.6173
  272MOL0     C35783   2.232   0.024   9.313 -0.0283  0.4944 -0.7117
  272MOL0     C35784   2.166   0.056   9.174 -0.3023  0.1536 -0.1368
  272MOL0     C35785   2.046   0.148   9.193  0.5469 -0.2944  0.4291
  272MOL0     C35786   1.932   0.090   9.276  0.2442 -0.4145 -0.7066
  272MOL0     C35787   1.824   0.200   9.293 -0.0024 -0.3650  0.0731
  272MOL0     C35788   1.845   0.290   9.417 -0.0765 -0.2846  0.5914
  272MOL0     N35789   1.724   0.371   9.434  0.8078 -0.2207  0.3403
  272MOL0     C35790   1.611   0.320   9.482  0.6418  0.3789 -0.0208
  272MOL0     C35791   1.512   0.408   9.454  0.3044 -0.8015  0.1751
  272MOL0     C35792   1.372   0.400   9.509 -0.3936  0.4000  0.0203
  272MOL0     C35793   1.324   0.251   9.509 -0.0303  0.8473 -0.2709
  272MOL0     C35794   1.302   0.205   9.371 -0.2292  0.4537  0.7674
  272MOL0     C35795   1.216   0.070   9.368  0.6628 -0.2242  0.1880
  272MOL0     O35796   1.085   0.085   9.412  0.0504 -0.5422  0.3192
  272MOL0     C35797   0.999   0.181   9.358  0.0113 -0.4702 -0.2305
  272MOL0     C35798   0.882   0.224   9.433  0.1704 -0.1675  0.1540
  272MOL0     C35799   0.777   0.291   9.377  0.6134 -0.7248 -0.6896
  272MOL0     C35800   0.783   0.330   9.240  0.8483 -0.3412 -0.0878
  272MOL0     C35801   0.660   0.382   9.179 -0.8457  1.2374  0.0311
  272MOL0     O35802   0.670   0.400   9.048 -0.1228 -0.4206 -0.3248
  272MOL0     C35803   0.552   0.432   8.990  0.0723 -0.1342  0.1837
  272MOL0     C35804   0.493   0.325   8.905  0.7805 -1.0000 -0.4236
  272MOL0     C35805   0.376   0.365   8.842  0.5345 -0.4487 -0.8328
  272MOL0     C35806   0.308   0.485   8.864 -0.4877 -1.0686 -0.6698
  272MOL0     O35807   0.186   0.515   8.832  0.9551 -0.2476  1.0986
  272MOL0     C35808   0.099   0.418   8.766  0.2982  0.1625  1.0164
  272MOL0     C35809  -0.028   0.499   8.754  0.5126 -0.0451  0.8060
  272MOL0     C35810  -0.102   0.519   8.886  1.0767  0.4003  0.6162
  272MOL0     C35811  -0.217   0.625   8.894  0.2532 -0.6557  0.3572
  272MOL0     C35812  -0.327   0.607   8.785 -0.1925  1.2218 -0.0483
  272MOL0     C35813  -0.455   0.697   8.792  0.5485  0.8934  0.3560
  272MOL0     C35814  -0.504   0.714   8.646  0.2753 -0.1807 -0.5795
  272MOL0     C35815  -0.660   0.746   8.647 -0.3363 -0.4994 -0.6132
  272MOL0    Cl35816  -0.675   0.924   8.690  0.1338 -0.3659 -0.4237
  272MOL0     C35817   0.375   0.584   8.938  0.6004 -1.0325  0.7474
  272MOL0     C35818   0.502   0.562   8.996 -0.5595 -0.0242 -0.5475
  272MOL0     O35819   0.563   0.383   9.257  0.1623 -0.8187 -0.0914
  272MOL0     C35820   0.901   0.303   9.163  0.6974 -0.1708  0.2638
  272MOL0     C35821   1.002   0.229   9.221 -0.7768 -0.0311 -1.3091
  272MOL0     N35822   1.565   0.508   9.382  0.5358 -0.4252  0.4397
  272MOL0     N35823   1.688   0.487   9.362  1.7487  1.0828 -0.1269
  272MOL0     C35824   2.298   0.234   9.779  0.4492  0.0249 -0.1362
  272MOL0     C35825   2.335   0.285   9.903  0.0298 -0.2734 -0.1168
  272MOL0     C35826   2.591   0.542  10.188 -0.1302  0.6417 -0.0372
  272MOL0     C35827   2.653   0.669  10.183  0.6136 -0.5282  0.2817
  272MOL0     C35828   2.657   0.744  10.300  0.1656 -0.5729  0.3285
  272MOL0     C35829   2.596   0.697  10.417  1.4505 -0.9961 -0.2141
  272MOL0     O35830   2.601   0.753  10.540 -0.6108 -0.2527 -0.9105
  272MOL0     C35831   2.663   0.874  10.558 -0.3154  0.0772  0.2318
  272MOL0     C35832   2.815   0.870  10.567  0.4400  0.1052 -1.1802
  272MOL0     C35833   2.879   1.000  10.596  0.0009  0.8588 -0.5245
  272MOL0     C35834   3.039   0.986  10.601  0.5539 -0.2481 -0.1328
  272MOL0     C35835   3.105   1.116  10.618  0.3444  0.0848  0.5064
  272MOL0     C35836   3.157   1.229  10.612  0.0825 -0.2306  0.2542
  272MOL0     C35837   2.533   0.576  10.418  0.8074 -0.3744 -0.2360
  272MOL0     C35838   2.528   0.497  10.307 -0.2978  0.3962  0.2318
  272MOL0     H35839   2.666   0.284   9.845  0.5193 -1.9391 -0.7926
  272MOL0     H35840   2.607   0.170   9.657  0.2702  0.6460 -0.8366
  272MOL0     H35841   2.477   0.027   9.450  1.1948  1.8765 -1.2645
  272MOL0     H35842   2.492   0.206   9.451  0.4793  0.0806 -2.1790
  272MOL0     H35843   2.402   0.130   9.257 -1.2070  2.3779 -0.3400
  272MOL0     H35844   2.269   0.218   9.341 -5.1542 -2.6943 -0.9005
  272MOL0     H35845   2.157   0.006   9.391  0.3594  0.9872 -0.2224
  272MOL0     H35846   2.283  -0.072   9.308 -0.0660  0.3492  0.9976
  272MOL0     H35847   2.235   0.105   9.104  0.4526 -1.2538 -0.4031
  272MOL0     H35848   2.128  -0.024   9.110 -0.3999  2.9355 -3.8979
  272MOL0     H35849   2.000   0.166   9.095 -4.0364 -2.9343  1.7817
  272MOL0     H35850   2.071   0.248   9.228 -1.0185 -0.2692  1.5376
  272MOL0     H35851   1.969   0.071   9.377  1.4890  5.2895  0.2453
  272MOL0     H35852   1.885   0.006   9.225  1.3407 -1.0530 -0.6889
  272MOL0     H35853   1.814   0.258   9.201  0.0305 -1.1471 -0.4352
  272MOL0     H35854   1.738   0.133   9.300  0.7904 -1.2720  1.5864
  272MOL0     H35855   1.922   0.359   9.383 -1.7598  0.2129 -2.5696
  272MOL0     H35856   1.867   0.245   9.515 -1.8623 -0.0722  1.1137
  272MOL0     H35857   1.608   0.229   9.541  2.6392 -0.3122 -0.8882
  272MOL0     H35858   1.314   0.468   9.445 -1.6391 -0.3854  0.2777
  272MOL0     H35859   1.357   0.431   9.613 -1.3128 -2.8360  0.9561
  272MOL0     H35860   1.232   0.236   9.567  0.6299 -2.5066  0.0945
  272MOL0     H35861   1.398   0.181   9.548 -1.2133 -1.5925 -2.1272
  272MOL0     H35862   1.257   0.282   9.308  0.0257  1.5843  1.9251
  272MOL0     H35863   1.399   0.191   9.323  0.5019  0.1354  2.2509
  272MOL0     H35864   1.259  -0.016   9.420 -1.5829  0.1623  2.9297
  272MOL0     H35865   1.214   0.046   9.262 -0.9022 -0.1444  0.1751
  272MOL0     H35866   0.869   0.187   9.534  0.8748  5.2710  2.6213
  272MOL0     H35867   0.685   0.312   9.431  0.8123  1.3294 -1.0464
  272MOL0     H35868   0.544   0.230   8.891  1.7764 -0.4689 -0.4856
  272MOL0     H35869   0.319   0.290   8.788 -1.9806  0.3935  0.5319
  272MOL0     H35870   0.092   0.322   8.817  0.8073 -0.4275 -0.0072
  272MOL0     H35871   0.121   0.393   8.662 -3.2303  1.0451 -0.0864
  272MOL0     H35872  -0.103   0.457   8.686 -0.9966  1.9020  1.1600
  272MOL0     H35873   0.003   0.592   8.706 -0.8126 -0.2619 -0.5425
  272MOL0     H35874  -0.034   0.540   8.968  1.4551  0.5482  0.2681
  272MOL0     H35875  -0.151   0.426   8.916 -1.3465  1.4602  0.2731
  272MOL0     H35876  -0.260   0.624   8.995 -2.9075  1.3170 -0.8387
  272MOL0     H35877  -0.173   0.724   8.879 -1.9915  0.6001  1.5153
  272MOL0     H35878  -0.365   0.505   8.795  0.7328  0.9299  0.6644
  272MOL0     H35879  -0.273   0.628   8.692  0.8116  0.5630  0.3674
  272MOL0     H35880  -0.443   0.791   8.846 -0.4700  0.6186  1.0965
  272MOL0     H35881  -0.528   0.638   8.848 -1.4988 -0.7005 -3.5803
  272MOL0     H35882  -0.450   0.803   8.612  2.3518 -0.8789  0.7012
  272MOL0     H35883  -0.479   0.624   8.588  3.4598 -1.1194  1.9344
  272MOL0     H35884  -0.700   0.679   8.723  2.2308 -0.9210  0.4440
  272MOL0     H35885  -0.702   0.723   8.548 -1.6599  1.2224 -0.5090
  272MOL0     H35886   0.324   0.680   8.946  1.0747 -0.6516 -0.4774
  272MOL0     H35887   0.549   0.628   9.068  1.9025 -0.4313 -1.6761
  272MOL0     H35888   0.893   0.319   9.056  3.4671 -1.1103 -0.1613
  272MOL0     H35889   1.082   0.208   9.151 -2.4001 -4.0010 -2.2454
  272MOL0     H35890   2.193   0.236   9.751  1.2621 -0.7509 -3.8294
  272MOL0     H35891   2.258   0.325   9.969  0.3210 -1.8485  1.2651
  272MOL0     H35892   2.700   0.708  10.094  0.1365 -1.8488 -0.5829
  272MOL0     H35893   2.723   0.830  10.291  0.6470 -1.0608 -1.4291
  272MOL0     H35894   2.632   0.922  10.652  0.5958 -1.3157  1.2824
  272MOL0     H35895   2.643   0.939  10.473  5.4722  0.1808 -1.4827
  272MOL0     H35896   2.846   0.795  10.641 -0.9327 -1.3917 -2.0648
  272MOL0     H35897   2.855   0.833  10.472 -2.4330  0.1288 -2.4731
  272MOL0     H35898   2.851   1.021  10.700 -0.6015 -4.0305  0.5716
  272MOL0     H35899   2.857   1.086  10.533  0.0072 -1.4253 -3.8861
  272MOL0     H35900   3.067   0.930  10.690 -1.6236  1.9199  2.0957
  272MOL0     H35901   3.078   0.934  10.513 -0.2445  1.7059 -1.7228
  272MOL0     H35902   3.206   1.324  10.619 -1.1103  0.4896 -0.7457
  272MOL0     H35903   2.498   0.540  10.514 -1.9121 -1.7475 -1.6047
  272MOL0     H35904   2.483   0.399  10.315 -0.5523  0.3839 -1.2361
  273MOL0     O35905   2.594  11.002  10.390 -0.4710 -0.6308 -0.5844
  273MOL0     C35906   2.519  11.097  10.421 -0.3013  0.2431 -0.3440
  273MOL0     O35907   2.398  11.085  10.480  0.1876  0.0923  1.0461
  273MOL0     C35908   2.330  10.969  10.510 -0.5749 -0.3610 -0.5416
  273MOL0     C35909   2.371  10.840  10.482 -0.2307  0.2645 -0.5705
  273MOL0     C35910   2.293  10.727  10.535  0.0958  0.3546 -0.9664
  273MOL0     C35911   2.180  10.757  10.620  0.0978  0.4911 -0.8085
  273MOL0     O35912   2.112  10.642  10.667  0.7228  0.6808 -0.0809
  273MOL0     C35913   2.043  10.652  10.792 -0.1797  0.0705 -0.0550
  273MOL0     C35914   2.003  10.517  10.834 -0.0049  0.6165 -0.0039
  273MOL0     C35915   1.922  10.507  10.962  0.0175 -0.3752 -0.1344
  273MOL0     C35916   1.877  10.355  10.970  0.0204 -0.5420  0.3735
  273MOL0     C35917   1.837  10.308  11.110 -0.6289 -0.5723  0.1780
  273MOL0     C35918   1.767  10.170  11.112  0.4823 -0.3167 -0.1078
  273MOL0     C35919   1.634  10.186  11.036 -0.1490  0.0557 -0.3750
  273MOL0     C35920   1.555  10.067  11.063  1.0815  0.0971 -0.2633
  273MOL0     N35921   1.438  10.089  11.155  0.4262  0.2078  0.7476
  273MOL0     C35922   1.338  10.173  11.107  1.1876 -0.2443 -0.3555
  273MOL0     C35923   1.262  10.196  11.225 -0.9085  1.8063  1.0940
  273MOL0     C35924   1.144  10.289  11.226 -0.2482 -0.0421  0.0042
  273MOL0     C35925   1.009  10.232  11.174 -0.3862  0.5934 -0.2829
  273MOL0     C35926   0.987  10.281  11.040  0.5975 -0.0443  1.4128
  273MOL0     C35927   0.871  10.223  10.969  0.3135 -0.6162 -0.5354
  273MOL0     O35928   0.895  10.222  10.830 -0.3853 -0.6072 -0.5416
  273MOL0     C35929   0.833  10.125  10.755 -0.0403  0.0802  0.8464
  273MOL0     C35930   0.849  10.149  10.613 -0.5562 -0.7193 -0.8961
  273MOL0     C35931   0.792  10.062  10.515  1.1335 -0.5641 -0.2421
  273MOL0     C35932   0.713   9.952  10.554 -0.9529 -0.0916 -0.2356
  273MOL0     C35933   0.654   9.867  10.447  0.1598  0.4559 -0.9684
  273MOL0     O35934   0.638   9.915  10.323  0.2695 -0.0397  0.4907
  273MOL0     C35935   0.590   9.835  10.220 -0.4166 -0.0437 -0.4378
  273MOL0     C35936   0.511   9.882  10.109 -0.3669 -0.4746 -0.9123
  273MOL0     C35937   0.478   9.801   9.998 -0.3224 -0.1810  0.8588
  273MOL0     C35938   0.526   9.672   9.988 -0.6246 -0.7980  0.9307
  273MOL0     O35939   0.500   9.591   9.876  0.3898  0.1658  0.4023
  273MOL0     C35940   0.425   9.630   9.763  0.3223  0.6305 -0.4843
  273MOL0     C35941   0.514   9.714   9.670  1.0014 -0.0106 -0.0209
  273MOL0     C35942   0.468   9.700   9.527 -0.6447  0.6730 -0.0199
  273MOL0     C35943   0.555   9.786   9.429  0.1961  0.1484  0.7721
  273MOL0     C35944   0.524   9.768   9.284 -0.3403  0.2792 -1.1929
  273MOL0     C35945   0.576   9.634   9.221  0.1823  0.7156 -0.8395
  273MOL0     C35946   0.502   9.566   9.110 -0.9353 -0.4207 -0.2913
  273MOL0     C35947   0.593   9.449   9.055 -0.0880  0.0029  0.5157
  273MOL0    Cl35948   0.649   9.343   9.186  0.5316  0.3460 -0.2766
  273MOL0     C35949   0.602   9.619  10.092 -0.9437 -0.1165 -0.6322
  273MOL0     C35950   0.642   9.698  10.207 -0.6326 -0.6466 -0.2753
  273MOL0     O35951   0.613   9.761  10.489 -0.6213  0.3050  0.5320
  273MOL0     C35952   0.685   9.937  10.692 -0.2138  0.0692 -0.5260
  273MOL0     C35953   0.742  10.017  10.794 -0.6739  0.0775  0.3589
  273MOL0     N35954   1.322  10.112  11.325  0.5674 -0.2750 -0.1034
  273MOL0     N35955   1.426  10.051  11.281  0.3478 -0.0056 -0.2909
  273MOL0     C35956   2.135  10.889  10.622 -0.7094  0.2004  0.4683
  273MOL0     C35957   2.204  10.998  10.565 -0.2361 -0.2234  0.6238
  273MOL0     C35958   2.556  11.235  10.388  0.6777  0.0396  0.1641
  273MOL0     C35959   2.664  11.251  10.293  0.1731 -0.3673 -0.5984
  273MOL0     C35960   2.716  11.383  10.260  0.1963  0.3160 -0.4000
  273MOL0     C35961   2.651  11.498  10.316 -0.0995  0.5292 -0.4674
  273MOL0     O35962   2.681  11.626  10.286  0.1574 -0.5465  0.0307
  273MOL0     C35963   2.816  11.671  10.270  0.3043  0.8704 -0.9795
  273MOL0     C35964   2.863  11.706  10.416  0.1840  0.0355 -0.5187
  273MOL0     C35965   2.779  11.819  10.474 -0.3514 -0.5200 -0.0543
  273MOL0     C35966   2.828  11.891  10.604  0.2742 -0.2413 -1.0191
  273MOL0     C35967   2.953  11.969  10.600 -0.0614 -0.9274  0.1220
  273MOL0     C35968   3.058  12.032  10.581  0.4050  0.3764  0.2440
  273MOL0     C35969   2.554  11.475  10.413  0.5751 -0.1558 -1.3529
  273MOL0     C35970   2.494  11.348  10.435  0.7078 -0.5757 -0.1455
  273MOL0     H35971   2.460  10.814  10.425  1.3904  1.4549  1.2496
  273MOL0     H35972   2.323  10.623  10.524  1.2352  0.8571 -3.6316
  273MOL0     H35973   1.957  10.719  10.798 -0.6213 -0.5689  0.9711
  273MOL0     H35974   2.107  10.706  10.862 -1.6962  1.7134  0.1503
  273MOL0     H35975   2.096  10.459  10.838  0.0537  0.2148 -3.6707
  273MOL0     H35976   1.941  10.471  10.756 -1.6542 -1.6221  2.4608
  273MOL0     H35977   1.829  10.565  10.962 -0.9456 -1.6885 -2.9985
  273MOL0     H35978   1.991  10.540  11.039  2.3862 -1.8030 -1.5192
  273MOL0     H35979   1.802  10.344  10.891  0.4724 -1.2547  0.0317
  273MOL0     H35980   1.967  10.303  10.934  0.8133 -0.9834  2.7793
  273MOL0     H35981   1.776  10.385  11.158 -0.9721  0.1589 -1.3830
  273MOL0     H35982   1.930  10.290  11.164 -1.1169 -1.2351  0.8234
  273MOL0     H35983   1.748  10.143  11.216 -0.8586 -0.5143 -0.3928
  273MOL0     H35984   1.837  10.092  11.082  1.1879 -0.2769  1.3312
  273MOL0     H35985   1.586  10.280  11.064  1.2525 -0.1693  3.3599
  273MOL0     H35986   1.649  10.195  10.928  0.3763 -0.0379 -0.3123
  273MOL0     H35987   1.607   9.984  11.112  3.7411  0.2064 -2.6091
  273MOL0     H35988   1.530  10.024  10.965  0.7244  0.5901 -0.3919
  273MOL0     H35989   1.332  10.220  11.009 -1.4853 -0.6357 -0.4637
  273MOL0     H35990   1.159  10.386  11.177 -2.7798 -0.3116 -1.4970
  273MOL0     H35991   1.116  10.319  11.327 -0.9311  0.2090 -0.2527
  273MOL0     H35992   0.938  10.274  11.246  0.9898  2.0063  0.3153
  273MOL0     H35993   0.998  10.124  11.187  1.6191  0.4713  0.7573
  273MOL0     H35994   0.978  10.390  11.048 -2.9842 -0.1429  0.2624
  273MOL0     H35995   1.075  10.268  10.977  0.2095 -0.6724  0.9930
  273MOL0     H35996   0.786  10.285  11.001  0.2910 -1.4275  1.0693
  273MOL0     H35997   0.864  10.119  11.000  2.4622 -1.1898 -1.7969
  273MOL0     H35998   0.916  10.229  10.584  0.1718 -1.4177 -1.1751
  273MOL0     H35999   0.809  10.069  10.408 -0.7390 -0.4750 -0.5748
  273MOL0     H36000   0.496   9.990  10.107 -0.5275 -0.4950 -0.7360
  273MOL0     H36001   0.435   9.850   9.911  1.1548 -0.5338 -0.1055
  273MOL0     H36002   0.330   9.682   9.773 -0.6850  0.4340 -6.2162
  273MOL0     H36003   0.399   9.534   9.718 -1.3788  2.4449 -3.7409
  273MOL0     H36004   0.614   9.672   9.670  0.1505 -2.1814  0.3525
  273MOL0     H36005   0.506   9.819   9.703 -1.0735 -0.9233  2.8814
  273MOL0     H36006   0.363   9.728   9.516 -0.9746  0.0036  1.3036
  273MOL0     H36007   0.462   9.597   9.492  1.1641  0.8280 -0.9233
  273MOL0     H36008   0.551   9.893   9.450 -1.0757  0.3033 -0.1661
  273MOL0     H36009   0.659   9.753   9.443  0.0975 -1.0604 -0.9950
  273MOL0     H36010   0.563   9.856   9.232 -0.9645  2.0393  1.1580
  273MOL0     H36011   0.417   9.778   9.264 -0.6509  2.0928  0.9757
  273MOL0     H36012   0.576   9.557   9.299 -1.0651  0.9328 -0.6089
  273MOL0     H36013   0.683   9.648   9.204  0.2751  1.8654  0.4274
  273MOL0     H36014   0.407   9.528   9.149 -0.2534 -0.1068  1.7988
  273MOL0     H36015   0.478   9.638   9.032  4.7157  1.9706 -0.3100
  273MOL0     H36016   0.683   9.486   9.006  0.9077 -2.3814  0.3702
  273MOL0     H36017   0.536   9.393   8.980  0.6924 -1.6663  1.0945
  273MOL0     H36018   0.644   9.519  10.087  0.4370  0.1634  2.6312
  273MOL0     H36019   0.689   9.656  10.295 -1.3144  1.8956  1.4022
  273MOL0     H36020   0.634   9.850  10.732 -1.3408  1.5724  1.5061
  273MOL0     H36021   0.707   9.996  10.894 -0.6883 -1.8024  0.0023
  273MOL0     H36022   2.053  10.921  10.685 -0.6386 -0.9187  1.1597
  273MOL0     H36023   2.161  11.097  10.561 -0.7816 -0.5094 -1.3683
  273MOL0     H36024   2.690  11.165  10.231  0.8487 -0.5370 -0.0951
  273MOL0     H36025   2.788  11.402  10.181  0.7168 -0.8210 -0.2183
  273MOL0     H36026   2.812  11.758  10.204  1.8927  0.5994 -1.4774
  273MOL0     H36027   2.883  11.599  10.223 -1.6259 -1.6239 -0.1414
  273MOL0     H36028   2.849  11.620  10.482  1.3165  0.7023  0.6446
  273MOL0     H36029   2.969  11.731  10.416 -0.2648  2.3196  1.4221
  273MOL0     H36030   2.681  11.777  10.500 -2.9178  3.5082 -2.2356
  273MOL0     H36031   2.773  11.902  10.404 -0.1817 -0.2731  0.2253
  273MOL0     H36032   2.754  11.967  10.632 -1.5361 -2.0296 -0.7619
  273MOL0     H36033   2.818  11.823  10.689 -0.4023 -0.9985 -1.6833
  273MOL0     H36034   3.142  12.098  10.579  0.1241  0.7303  0.0340
  273MOL0     H36035   2.513  11.558  10.469  1.2396 -1.8600  1.8971
  273MOL0     H36036   2.411  11.343  10.504 -0.7002 -2.5378 -1.8846
  274MOL0     O36037   2.609   3.278   2.251 -0.5225 -0.3735  0.2772
  274MOL0     C36038   2.724   3.257   2.279 -0.2251  0.4562 -0.4704
  274MOL0     O36039   2.772   3.170   2.367 -0.4444 -0.2273 -0.3078
  274MOL0     C36040   2.686   3.110   2.457 -1.1611  0.0801  0.4962
  274MOL0     C36041   2.697   2.973   2.471 -0.1208  0.6829 -1.0004
  274MOL0     C36042   2.621   2.903   2.573 -0.2841 -0.4373 -0.1428
  274MOL0     C36043   2.543   2.970   2.662  1.2238 -1.0138  0.1831
  274MOL0     O36044   2.478   2.890   2.752 -0.0243 -0.3065  0.5075
  274MOL0     C36045   2.391   2.952   2.845  1.1540  0.9036  0.4345
  274MOL0     C36046   2.245   2.942   2.798  0.5524 -0.5311  0.1237
  274MOL0     C36047   2.141   2.990   2.900  0.0373 -0.2564 -1.7261
  274MOL0     C36048   2.011   3.005   2.841  0.0272 -0.7215  0.6756
  274MOL0     C36049   1.931   3.114   2.908  0.1749  0.3105  0.5781
  274MOL0     C36050   1.872   3.067   3.052  0.5439  0.2979 -0.3832
  274MOL0     C36051   1.906   3.159   3.173 -0.6984  0.4929 -0.2452
  274MOL0     C36052   1.831   3.109   3.306  0.3533 -1.2226  0.1249
  274MOL0     N36053   1.895   3.170   3.428 -1.1294 -0.5374  1.0350
  274MOL0     C36054   1.899   3.304   3.453 -0.3264 -1.3293 -0.3988
  274MOL0     C36055   1.991   3.316   3.554 -0.0228  0.2831  0.4422
  274MOL0     C36056   2.042   3.449   3.589 -0.2458 -0.1426 -0.1220
  274MOL0     C36057   2.167   3.476   3.518 -0.8378 -0.4108 -0.2827
  274MOL0     C36058   2.215   3.611   3.567 -0.0033  0.4784 -0.7069
  274MOL0     C36059   2.362   3.645   3.517  0.2603 -0.4663  0.2527
  274MOL0     O36060   2.457   3.556   3.571  0.4272  0.2047 -0.0694
  274MOL0     C36061   2.583   3.533   3.512  0.0246  0.8624  0.4351
  274MOL0     C36062   2.631   3.591   3.396 -0.5146  0.4428 -0.0979
  274MOL0     C36063   2.731   3.530   3.313  0.0108 -0.0487  0.3078
  274MOL0     C36064   2.808   3.435   3.374  1.0072 -0.4851  0.1455
  274MOL0     C36065   2.922   3.383   3.298  0.2698 -0.8015 -0.5207
  274MOL0     O36066   2.972   3.259   3.319  0.2670  0.1369  1.0600
  274MOL0     C36067   3.104   3.240   3.299  1.0117  0.8259  0.8109
  274MOL0     C36068   3.198   3.275   3.394 -0.1602  0.0579  1.3578
  274MOL0     C36069   3.337   3.264   3.371  0.6526 -0.4712  0.1439
  274MOL0     C36070   3.391   3.211   3.247  0.8781  0.4011 -0.2129
  274MOL0     O36071   3.525   3.204   3.226 -0.5954  0.1478 -0.2091
  274MOL0     C36072   3.579   3.119   3.127  0.4156 -0.3784  0.1118
  274MOL0     C36073   3.722   3.088   3.135  0.5921  0.8027 -0.2996
  274MOL0     C36074   3.757   3.030   3.265 -0.3690  0.7744  0.0608
  274MOL0     C36075   3.910   3.031   3.291  0.0635  0.2818  0.4714
  274MOL0     C36076   3.994   2.914   3.236 -0.2860  0.1390 -0.1555
  274MOL0     C36077   3.965   2.882   3.092 -0.5886 -0.9037  0.7906
  274MOL0     C36078   4.071   2.774   3.044  0.7876  0.1992  0.4908
  274MOL0     C36079   4.014   2.705   2.925 -0.0792  0.5271  0.5488
  274MOL0    Cl36080   3.965   2.812   2.794  0.3850  0.1249  0.3938
  274MOL0     C36081   3.290   3.175   3.159 -0.4753 -0.6491 -0.3758
  274MOL0     C36082   3.149   3.178   3.180  0.3436 -0.6971 -1.0221
  274MOL0     O36083   2.963   3.460   3.204 -0.1427  0.1469 -0.6200
  274MOL0     C36084   2.766   3.379   3.491 -0.0592  0.0687  0.2522
  274MOL0     C36085   2.651   3.423   3.558 -0.3019 -0.1223  1.2993
  274MOL0     N36086   2.031   3.186   3.590 -0.4816  0.6309 -1.1723
  274MOL0     N36087   1.974   3.105   3.518  0.0910  0.3875  0.3375
  274MOL0     C36088   2.523   3.111   2.636 -0.4842  0.1644 -0.6282
  274MOL0     C36089   2.594   3.178   2.539  0.6388  0.1443 -0.7300
  274MOL0     C36090   2.821   3.339   2.208  0.1179 -0.1628  0.1064
  274MOL0     C36091   2.803   3.386   2.073 -0.0133  0.2234 -0.7925
  274MOL0     C36092   2.895   3.459   2.000  0.0666 -0.1130  0.1210
  274MOL0     C36093   3.021   3.477   2.048 -0.0566  0.3571 -0.8162
  274MOL0     O36094   3.118   3.546   1.986  0.3095  0.1838  0.4344
  274MOL0     C36095   3.265   3.532   2.029 -0.1409  0.9063 -0.4068
  274MOL0     C36096   3.349   3.577   1.911 -0.1007  0.9274  1.1149
  274MOL0     C36097   3.347   3.727   1.905 -0.8731  0.4165  0.4605
  274MOL0     C36098   3.446   3.768   1.794  0.1972 -0.1327  0.3743
  274MOL0     C36099   3.578   3.756   1.846  0.3538  0.2286 -0.5693
  274MOL0     C36100   3.689   3.751   1.883  0.4502  0.0908  0.3449
  274MOL0     C36101   3.044   3.438   2.182  0.9453 -0.5865  0.2113
  274MOL0     C36102   2.944   3.368   2.254  0.2502 -0.4722 -0.1264
  274MOL0     H36103   2.749   2.915   2.396 -1.4218 -0.7439 -0.8568
  274MOL0     H36104   2.637   2.797   2.585 -0.9054 -0.4376  0.7291
  274MOL0     H36105   2.402   3.058   2.867  0.9229  1.2541 -1.0218
  274MOL0     H36106   2.408   2.900   2.940  2.9208 -0.6517 -0.6791
  274MOL0     H36107   2.225   2.838   2.772  1.1002 -0.4363 -0.7167
  274MOL0     H36108   2.224   3.001   2.708  1.1524 -1.4730 -0.6472
  274MOL0     H36109   2.175   3.090   2.927 -1.3606  0.8498 -3.7724
  274MOL0     H36110   2.132   2.927   2.990 -1.5013  1.8365 -0.3158
  274MOL0     H36111   2.017   3.035   2.736 -2.0664  0.2909  0.7972
  274MOL0     H36112   1.956   2.911   2.853  0.7139 -1.0437  1.3820
  274MOL0     H36113   1.852   3.141   2.838  2.0752  0.2168 -1.7129
  274MOL0     H36114   2.000   3.199   2.916  0.7879 -0.3386  2.9605
  274MOL0     H36115   1.891   2.965   3.088 -2.5293  0.4552  2.0821
  274MOL0     H36116   1.764   3.074   3.036  0.5884  1.9655 -0.0666
  274MOL0     H36117   2.013   3.171   3.190 -1.3794  2.4143  4.1657
  274MOL0     H36118   1.871   3.261   3.154  0.0293  0.2572 -3.2945
  274MOL0     H36119   1.831   3.000   3.307  0.1913 -1.2515  2.2169
  274MOL0     H36120   1.726   3.139   3.301 -0.1871 -3.2017 -1.9547
  274MOL0     H36121   1.869   3.392   3.397 -0.3331  1.8188  4.0022
  274MOL0     H36122   2.055   3.431   3.696 -1.7808 -0.8641 -0.0320
  274MOL0     H36123   1.969   3.531   3.586 -0.2007 -0.0914  0.1458
  274MOL0     H36124   2.154   3.460   3.410  1.4962 -2.1685 -0.3725
  274MOL0     H36125   2.236   3.396   3.546 -0.6324 -0.6538 -1.4355
  274MOL0     H36126   2.148   3.691   3.533 -1.5471 -0.9304 -1.0641
  274MOL0     H36127   2.223   3.610   3.676 -2.1575 -0.7037 -0.5130
  274MOL0     H36128   2.402   3.739   3.557  2.4460 -0.0853 -2.5327
  274MOL0     H36129   2.349   3.656   3.409 -1.1738 -0.6947  0.3695
  274MOL0     H36130   2.571   3.668   3.350  1.6097  2.8916  0.9879
  274MOL0     H36131   2.749   3.554   3.209  2.2837  0.0779  0.6644
  274MOL0     H36132   3.161   3.339   3.474  0.5600  2.1401  0.0995
  274MOL0     H36133   3.406   3.278   3.454 -1.2766  0.6092  1.6649
  274MOL0     H36134   3.570   3.163   3.028  2.3979  1.9947  0.9016
  274MOL0     H36135   3.525   3.025   3.114 -0.5164 -0.1825  2.2026
  274MOL0     H36136   3.776   3.182   3.131  0.2664  1.3479  3.8172
  274MOL0     H36137   3.748   3.020   3.054 -1.0360  0.7922 -0.8574
  274MOL0     H36138   3.727   2.925   3.270 -1.5389  1.0512 -0.7633
  274MOL0     H36139   3.708   3.081   3.349 -1.0995  2.0984 -1.1168
  274MOL0     H36140   3.951   3.117   3.238  0.2574 -1.5276 -2.5405
  274MOL0     H36141   3.934   3.036   3.398  3.0480 -0.2597 -0.0855
  274MOL0     H36142   3.979   2.826   3.300  0.2074 -0.5357 -0.9330
  274MOL0     H36143   4.102   2.930   3.249  0.1454 -1.4523 -1.4119
  274MOL0     H36144   3.975   2.971   3.028  2.5584 -1.9014 -0.3129
  274MOL0     H36145   3.865   2.840   3.083 -1.0562  0.4288 -0.7538
  274MOL0     H36146   4.159   2.832   3.017 -1.0424  3.3589  0.7916
  274MOL0     H36147   4.100   2.703   3.121  0.0825  1.5170  2.0187
  274MOL0     H36148   3.923   2.651   2.955 -0.1516  1.4931  2.2163
  274MOL0     H36149   4.081   2.629   2.883 -3.4790 -1.7599 -1.2155
  274MOL0     H36150   3.327   3.126   3.069  2.7119  3.0016 -1.3468
  274MOL0     H36151   3.083   3.146   3.100 -2.3945 -2.7396  1.8217
  274MOL0     H36152   2.827   3.299   3.531  1.4164  1.1832  0.3008
  274MOL0     H36153   2.627   3.367   3.648  1.5399 -1.5565  0.9590
  274MOL0     H36154   2.439   3.163   2.680 -2.0378 -0.7755 -2.3069
  274MOL0     H36155   2.576   3.284   2.524  1.9102  0.3386 -0.9794
  274MOL0     H36156   2.706   3.389   2.024 -0.1711  3.2222 -0.4830
  274MOL0     H36157   2.870   3.510   1.907 -1.2105  0.6008  0.8276
  274MOL0     H36158   3.295   3.445   2.088  2.1860  2.7749  1.3424
  274MOL0     H36159   3.275   3.610   2.104  3.1001  0.7690 -0.5471
  274MOL0     H36160   3.455   3.551   1.913 -0.1152  0.9052  1.8550
  274MOL0     H36161   3.304   3.522   1.828  1.5007 -0.9945  1.4351
  274MOL0     H36162   3.365   3.775   2.002 -2.2603  2.0692 -0.0473
  274MOL0     H36163   3.249   3.767   1.880 -0.8853 -1.1737 -2.3968
  274MOL0     H36164   3.443   3.706   1.704  0.4469  2.5198 -1.5694
  274MOL0     H36165   3.418   3.872   1.774 -0.4077 -0.6184 -1.4730
  274MOL0     H36166   3.793   3.733   1.903  0.1375 -0.8913  1.1568
  274MOL0     H36167   3.135   3.457   2.238  0.2403  1.8312  0.6251
  274MOL0     H36168   2.970   3.341   2.356  1.0805  0.6908 -0.0117
  275MOL0     O36169   0.007   0.504   7.314 -0.1407  0.2567  0.7423
  275MOL0     C36170  -0.106   0.467   7.277  0.3678 -0.1015 -0.2070
  275MOL0     O36171  -0.219   0.546   7.276  0.4761  0.4803  0.2358
  275MOL0     C36172  -0.219   0.682   7.276 -0.3728 -0.3450  0.0877
  275MOL0     C36173  -0.173   0.760   7.377 -0.9016  0.0477  0.2952
  275MOL0     C36174  -0.201   0.900   7.386  0.3076  0.5715 -0.9136
  275MOL0     C36175  -0.256   0.962   7.268  0.0253 -0.0769 -0.5953
  275MOL0     O36176  -0.286   1.097   7.266 -0.0318  0.2571  0.5294
  275MOL0     C36177  -0.175   1.180   7.305 -0.4197  0.4375  0.7727
  275MOL0     C36178  -0.204   1.328   7.262 -0.4427  0.2967  0.4599
  275MOL0     C36179  -0.091   1.425   7.303  0.8891 -0.6137 -0.1410
  275MOL0     C36180  -0.055   1.521   7.186 -0.5032  0.3838 -0.0205
  275MOL0     C36181   0.086   1.586   7.212 -0.0922 -0.3136  0.1659
  275MOL0     C36182   0.138   1.686   7.105 -0.3158 -0.4960  0.0431
  275MOL0     C36183   0.085   1.827   7.128 -0.7751 -0.4438 -0.2550
  275MOL0     C36184  -0.056   1.862   7.088 -0.2077  0.0359 -0.0605
  275MOL0     N36185  -0.079   2.009   7.063 -0.5710 -0.0051 -0.1018
  275MOL0     C36186   0.014   2.105   7.064  0.4501 -0.2086  0.0039
  275MOL0     C36187  -0.051   2.211   7.004 -0.4571 -0.0668 -0.3287
  275MOL0     C36188   0.025   2.337   6.961  0.2569  0.3249  0.1300
  275MOL0     C36189   0.097   2.309   6.831 -0.3553 -0.8600  0.9368
  275MOL0     C36190   0.144   2.450   6.775  0.2203  0.2731  0.2215
  275MOL0     C36191   0.162   2.452   6.623 -0.2809  0.6342 -0.0762
  275MOL0     O36192   0.281   2.390   6.577 -0.3150  0.6462  0.9916
  275MOL0     C36193   0.356   2.471   6.499  0.5467 -0.0829 -0.3450
  275MOL0     C36194   0.466   2.539   6.555 -0.7005 -0.8941  0.3841
  275MOL0     C36195   0.551   2.615   6.475  0.8126 -0.0626  0.0627
  275MOL0     C36196   0.532   2.616   6.339  0.2812 -0.0314 -0.5818
  275MOL0     C36197   0.630   2.689   6.260  0.6930 -0.4426  0.2807
  275MOL0     O36198   0.755   2.707   6.312  0.7313 -0.4299  0.6226
  275MOL0     C36199   0.854   2.770   6.238  0.0196  0.3938 -0.4093
  275MOL0     C36200   0.870   2.798   6.101  0.2157 -0.2623  0.3127
  275MOL0     C36201   0.972   2.896   6.056  1.4614  0.3296  0.0958
  275MOL0     C36202   1.054   2.958   6.142 -0.5432  0.0657 -0.3368
  275MOL0     O36203   1.161   3.027   6.093  0.0435 -0.3550 -0.2008
  275MOL0     C36204   1.266   3.082   6.172  0.5397 -1.4468  0.1541
  275MOL0     C36205   1.337   3.197   6.103 -0.5605 -0.1061 -0.2023
  275MOL0     C36206   1.412   3.292   6.201  0.5310 -1.2214 -0.8341
  275MOL0     C36207   1.480   3.407   6.117 -0.5061  0.4650  0.6804
  275MOL0     C36208   1.618   3.469   6.157 -0.1375  0.2917  1.0088
  275MOL0     C36209   1.694   3.511   6.026  1.2037 -0.3466 -0.3689
  275MOL0     C36210   1.825   3.589   6.038  0.4762  0.4511  0.4648
  275MOL0     C36211   1.903   3.590   5.905 -0.2277 -0.5142  0.7327
  275MOL0    Cl36212   2.075   3.618   5.965 -0.1528  0.2710 -0.1043
  275MOL0     C36213   1.029   2.938   6.279  1.1733  0.8790  0.1300
  275MOL0     C36214   0.939   2.835   6.321  0.0875  0.0223  1.1223
  275MOL0     O36215   0.590   2.727   6.147  0.0503 -0.8506 -0.2850
  275MOL0     C36216   0.423   2.548   6.282  0.3220 -0.4422 -0.0035
  275MOL0     C36217   0.338   2.485   6.360  0.8011  0.7782  0.0512
  275MOL0     N36218  -0.177   2.176   6.976 -0.2671 -0.1887  0.1218
  275MOL0     N36219  -0.197   2.063   7.024  0.4960  0.1359  0.6420
  275MOL0     C36220  -0.288   0.880   7.157  0.3574  0.1117  0.3968
  275MOL0     C36221  -0.276   0.737   7.166  0.9321  0.0159  0.7344
  275MOL0     C36222  -0.124   0.334   7.223  0.2847 -0.4344  0.6045
  275MOL0     C36223  -0.010   0.275   7.168 -0.0779 -0.2027 -0.5507
  275MOL0     C36224  -0.022   0.147   7.121  0.1238 -0.4391  0.6645
  275MOL0     C36225  -0.142   0.074   7.124 -1.2089  0.4405  0.1411
  275MOL0     O36226  -0.137  -0.047   7.067 -0.9089 -0.1683  0.1065
  275MOL0     C36227  -0.248  -0.136   7.090  0.6939  0.7651  0.2672
  275MOL0     C36228  -0.265  -0.247   6.996  0.1673 -0.5060  0.6586
  275MOL0     C36229  -0.308  -0.215   6.851  0.6626  0.2856  0.1519
  275MOL0     C36230  -0.224  -0.118   6.774 -0.4225  0.1456 -0.8550
  275MOL0     C36231  -0.283  -0.080   6.644 -0.8113 -0.1392 -0.0117
  275MOL0     C36232  -0.318  -0.033   6.538  1.0414  0.3723 -0.6276
  275MOL0     C36233  -0.253   0.137   7.183  0.4460  0.3957  1.3994
  275MOL0     C36234  -0.241   0.265   7.235  0.4601  0.3441 -0.7800
  275MOL0     H36235  -0.117   0.706   7.453  0.8080  0.0889 -0.8842
  275MOL0     H36236  -0.176   0.940   7.483 -3.7417  1.0059  0.1311
  275MOL0     H36237  -0.081   1.146   7.260 -1.7151  0.8810 -2.4906
  275MOL0     H36238  -0.160   1.176   7.414 -0.3002 -1.5705  0.7149
  275MOL0     H36239  -0.295   1.374   7.302 -1.0130  0.3302 -0.8296
  275MOL0     H36240  -0.219   1.333   7.153  0.5626  0.5728  0.3319
  275MOL0     H36241  -0.001   1.367   7.324  0.5724 -0.1277  2.9024
  275MOL0     H36242  -0.113   1.489   7.389 -0.8483  2.8870 -2.8883
  275MOL0     H36243  -0.042   1.466   7.093 -1.8749 -0.7633  0.4308
  275MOL0     H36244  -0.127   1.600   7.165  0.6337  1.2120 -0.9305
  275MOL0     H36245   0.151   1.498   7.218  0.6500  0.1856 -0.4109
  275MOL0     H36246   0.089   1.628   7.313 -1.0695 -1.9321  0.9217
  275MOL0     H36247   0.114   1.635   7.011  1.3526 -1.4682  0.1048
  275MOL0     H36248   0.248   1.689   7.099 -0.3622  0.1801 -0.7291
  275MOL0     H36249   0.105   1.852   7.233 -1.6266 -0.9995  0.0459
  275MOL0     H36250   0.146   1.894   7.067  1.1196 -1.7507  0.1201
  275MOL0     H36251  -0.119   1.809   7.160  1.6146 -3.8725 -1.1029
  275MOL0     H36252  -0.070   1.811   6.993  1.2473 -1.8067  0.6502
  275MOL0     H36253   0.120   2.106   7.085  0.3355  2.1309  0.8285
  275MOL0     H36254   0.094   2.366   7.040  1.7874  1.7438 -1.6177
  275MOL0     H36255  -0.050   2.415   6.941 -0.3991 -0.5499 -0.9117
  275MOL0     H36256   0.030   2.279   6.750 -1.2203  4.0325 -0.5052
  275MOL0     H36257   0.189   2.252   6.848  0.2405  0.0285  0.7675
  275MOL0     H36258   0.072   2.532   6.784  1.3403  1.3924 -0.8113
  275MOL0     H36259   0.239   2.478   6.820  1.9625 -1.3261 -2.2399
  275MOL0     H36260   0.158   2.553   6.582 -0.2967 -0.4259 -2.8531
  275MOL0     H36261   0.085   2.398   6.567  0.6522  0.7415 -1.5039
  275MOL0     H36262   0.469   2.530   6.663 -2.2577 -1.2377  0.4217
  275MOL0     H36263   0.632   2.672   6.520 -1.3481  3.5196 -0.1331
  275MOL0     H36264   0.810   2.747   6.026  3.4174 -0.5669 -2.2345
  275MOL0     H36265   1.007   2.918   5.956  2.5141  2.6825  0.9073
  275MOL0     H36266   1.339   3.003   6.188  0.2931 -1.7814 -0.3436
  275MOL0     H36267   1.231   3.132   6.263 -0.1666  2.8096 -2.1627
  275MOL0     H36268   1.263   3.243   6.037 -2.5175 -0.6651  1.4959
  275MOL0     H36269   1.414   3.166   6.032 -2.8191 -0.1943 -2.7637
  275MOL0     H36270   1.483   3.231   6.257 -0.2080  0.8319  2.6653
  275MOL0     H36271   1.341   3.343   6.268  2.5674  1.7015 -0.7044
  275MOL0     H36272   1.476   3.377   6.012  1.3872  0.4472  0.5867
  275MOL0     H36273   1.417   3.497   6.121  1.5044  2.0677 -1.3522
  275MOL0     H36274   1.676   3.389   6.205 -0.7052  0.4085  1.8981
  275MOL0     H36275   1.612   3.554   6.225 -0.4467  1.0107  0.1001
  275MOL0     H36276   1.629   3.581   5.974 -1.1358  0.3201  3.1182
  275MOL0     H36277   1.712   3.425   5.962  1.8445 -0.5953  0.1317
  275MOL0     H36278   1.804   3.692   6.070 -4.5125  0.5023 -2.0726
  275MOL0     H36279   1.878   3.530   6.114 -1.4492 -1.4555  0.4480
  275MOL0     H36280   1.870   3.652   5.821 -0.7284 -2.3787 -0.5204
  275MOL0     H36281   1.898   3.492   5.856 -2.7318  0.7956 -1.8966
  275MOL0     H36282   1.089   2.987   6.354  1.0410  0.3141  0.6134
  275MOL0     H36283   0.928   2.817   6.428 -1.1893 -1.6302  0.7490
  275MOL0     H36284   0.407   2.552   6.174 -0.7686  2.8873  0.1702
  275MOL0     H36285   0.247   2.437   6.325  1.3748 -2.9099  2.9374
  275MOL0     H36286  -0.331   0.928   7.069  0.5462 -3.2404 -1.6774
  275MOL0     H36287  -0.326   0.681   7.088 -0.7986  0.9242  1.1318
  275MOL0     H36288   0.079   0.335   7.153  1.0471 -1.7037 -0.1409
  275MOL0     H36289   0.066   0.091   7.089  0.9826  2.1949 -2.1496
  275MOL0     H36290  -0.343  -0.082   7.090  2.2592  3.9148 -2.9718
  275MOL0     H36291  -0.228  -0.177   7.190 -0.1551 -0.9848 -0.2387
  275MOL0     H36292  -0.170  -0.299   6.988 -0.2359 -1.1632 -0.0252
  275MOL0     H36293  -0.334  -0.312   7.051  0.5384 -0.7350  0.8506
  275MOL0     H36294  -0.410  -0.178   6.862  0.8406  1.1463 -0.9794
  275MOL0     H36295  -0.308  -0.307   6.791 -0.4100  1.8413 -2.3772
  275MOL0     H36296  -0.212  -0.033   6.842 -0.6936 -1.9490  2.0220
  275MOL0     H36297  -0.125  -0.160   6.757 -0.1077 -0.1114  1.3397
  275MOL0     H36298  -0.345  -0.008   6.437 -0.1776 -1.7739 -0.8741
  275MOL0     H36299  -0.353   0.095   7.177 -0.5364  2.7578 -0.4245
  275MOL0     H36300  -0.326   0.310   7.285  1.0428  0.4581  0.1452
  276MOL0     O36301   2.447   2.660   5.106  0.3803  0.4094 -0.0621
  276MOL0     C36302   2.431   2.547   5.133 -0.8270  0.4040  0.2417
  276MOL0     O36303   2.531   2.467   5.185  0.3811  0.0054 -0.8093
  276MOL0     C36304   2.650   2.530   5.217 -0.2565  0.5387 -0.1869
  276MOL0     C36305   2.754   2.574   5.124  0.5557  0.2978  0.0167
  276MOL0     C36306   2.866   2.647   5.160 -1.8355 -0.6784 -1.0525
  276MOL0     C36307   2.879   2.693   5.298 -0.3185  1.1033  0.3097
  276MOL0     O36308   2.971   2.785   5.337 -0.3478 -0.0706  0.8966
  276MOL0     C36309   2.959   2.924   5.301  0.9286 -0.9521 -0.3791
  276MOL0     C36310   3.084   2.971   5.237  0.0220 -0.4159  0.3065
  276MOL0     C36311   3.190   3.004   5.332  0.4104 -0.7927 -0.4325
  276MOL0     C36312   3.310   3.063   5.252  0.5768 -0.4531 -0.5568
  276MOL0     C36313   3.437   3.079   5.334  0.8126 -0.5959 -0.2381
  276MOL0     C36314   3.555   3.109   5.242 -0.6364  0.0983 -0.5084
  276MOL0     C36315   3.679   3.117   5.327 -0.9641  0.4494  0.1305
  276MOL0     C36316   3.797   3.168   5.241  0.8819  0.6811 -0.7021
  276MOL0     N36317   3.930   3.128   5.287 -0.5306  0.0641 -0.4975
  276MOL0     C36318   3.954   3.130   5.423  0.0293 -0.5764 -0.5876
  276MOL0     C36319   4.086   3.113   5.424 -0.5779  0.0423 -0.0989
  276MOL0     C36320   4.168   3.072   5.543 -0.4195  0.1783 -0.5180
  276MOL0     C36321   4.182   3.177   5.658  0.9843 -0.0505 -0.1500
  276MOL0     C36322   4.272   3.128   5.776 -0.5899  0.6056  1.3757
  276MOL0     C36323   4.219   3.179   5.911  0.3853  0.4009  0.1927
  276MOL0     O36324   4.308   3.140   6.020 -0.3733 -0.5325 -0.4181
  276MOL0     C36325   4.255   3.082   6.139 -0.9495 -0.7112 -0.0874
  276MOL0     C36326   4.137   3.130   6.194  0.4266 -0.1509 -0.7190
  276MOL0     C36327   4.092   3.081   6.314 -0.6142  0.8512 -1.5009
  276MOL0     C36328   4.165   2.979   6.383  0.2429  0.8210 -0.6189
  276MOL0     C36329   4.116   2.920   6.509  1.4273  0.2339 -0.1987
  276MOL0     O36330   3.983   2.908   6.528  0.2153  1.0776 -0.0263
  276MOL0     C36331   3.925   2.821   6.617  0.1014 -0.2121 -0.7462
  276MOL0     C36332   3.800   2.770   6.582  0.1906 -0.4887 -0.0647
  276MOL0     C36333   3.726   2.690   6.672 -0.8761 -0.2278  0.1853
  276MOL0     C36334   3.785   2.659   6.801 -0.7275  0.6059  0.0307
  276MOL0     O36335   3.733   2.553   6.880 -0.5016  0.2903 -0.4533
  276MOL0     C36336   3.628   2.481   6.835 -0.6888  0.1599 -0.0396
  276MOL0     C36337   3.608   2.357   6.930 -0.1731  0.0966 -0.6004
  276MOL0     C36338   3.490   2.280   6.868  0.3968 -0.5315 -0.7552
  276MOL0     C36339   3.470   2.142   6.950  0.2881  0.7312  0.4067
  276MOL0     C36340   3.400   2.031   6.882  0.1008 -0.2954  0.5073
  276MOL0     C36341   3.472   1.967   6.770  0.6357  0.3931  0.9094
  276MOL0     C36342   3.374   1.905   6.669  1.2899  0.2137  0.1210
  276MOL0     C36343   3.347   1.754   6.713 -0.2729  0.4236  0.2305
  276MOL0    Cl36344   3.251   1.682   6.571  0.1711  0.0532 -0.3395
  276MOL0     C36345   3.913   2.714   6.838  0.2266  0.0584  0.6237
  276MOL0     C36346   3.977   2.799   6.751 -0.4591 -0.9432 -0.3210
  276MOL0     O36347   4.204   2.863   6.580  0.1308 -0.6955 -0.0723
  276MOL0     C36348   4.286   2.932   6.335 -0.4464 -0.1336 -0.1422
  276MOL0     C36349   4.337   2.993   6.218  0.0446 -0.5771  0.0923
  276MOL0     N36350   4.137   3.109   5.294 -0.4361  1.0291 -0.4205
  276MOL0     N36351   4.043   3.117   5.213  0.0117  0.3205 -0.0760
  276MOL0     C36352   2.783   2.655   5.384 -0.5255  0.0556 -0.5611
  276MOL0     C36353   2.671   2.574   5.349  0.6014  0.6466 -1.2671
  276MOL0     C36354   2.313   2.474   5.075 -0.1922 -0.4519  0.4400
  276MOL0     C36355   2.306   2.335   5.092  0.4632  0.6776 -0.3682
  276MOL0     C36356   2.192   2.256   5.076  0.7337 -1.4302 -0.2250
  276MOL0     C36357   2.070   2.321   5.040 -0.5545  0.7681 -0.4868
  276MOL0     O36358   1.958   2.243   5.032 -0.2936 -0.0877 -1.2662
  276MOL0     C36359   1.833   2.315   5.057  0.1727 -0.9540  0.7357
  276MOL0     C36360   1.704   2.234   5.056  0.1321  0.4187 -0.0383
  276MOL0     C36361   1.622   2.258   4.932 -0.1094 -0.2355  0.7943
  276MOL0     C36362   1.490   2.179   4.917  0.5154 -0.2370  0.3148
  276MOL0     C36363   1.389   2.205   5.010  0.8605 -0.7963 -0.5121
  276MOL0     C36364   1.294   2.200   5.078  0.1713 -0.1291 -0.2429
  276MOL0     C36365   2.073   2.464   5.030 -0.5811  0.7451  0.7942
  276MOL0     C36366   2.195   2.543   5.041  0.0557  0.9032 -0.3115
  276MOL0     H36367   2.745   2.537   5.023 -0.4414  0.8378 -0.1065
  276MOL0     H36368   2.931   2.694   5.087 -1.7734  0.4288 -0.3103
  276MOL0     H36369   2.938   2.986   5.388 -0.2600 -0.7078 -0.8237
  276MOL0     H36370   2.884   2.939   5.224 -1.5675 -3.4772  1.3944
  276MOL0     H36371   3.065   3.068   5.191 -2.2392 -0.6863  0.5446
  276MOL0     H36372   3.131   2.907   5.162  2.1175  0.6522  0.6436
  276MOL0     H36373   3.218   2.920   5.397  3.1070 -1.5734 -2.4337
  276MOL0     H36374   3.162   3.083   5.402 -0.6689 -1.7306  0.2166
  276MOL0     H36375   3.337   3.001   5.166 -1.1003 -2.7262  0.4492
  276MOL0     H36376   3.276   3.153   5.200  0.9147 -0.6848 -1.1856
  276MOL0     H36377   3.454   2.986   5.388 -1.7982 -2.2813 -2.0519
  276MOL0     H36378   3.420   3.161   5.404 -0.9452 -0.8812 -0.2877
  276MOL0     H36379   3.537   3.195   5.177 -1.0555 -1.2124 -2.1898
  276MOL0     H36380   3.568   3.015   5.188  0.6630 -1.4899  2.3343
  276MOL0     H36381   3.664   3.176   5.419 -3.3098 -3.0522  2.2483
  276MOL0     H36382   3.691   3.011   5.352  1.0053  1.0209  1.9339
  276MOL0     H36383   3.794   3.276   5.260  2.8428  0.3222  2.3902
  276MOL0     H36384   3.792   3.133   5.138 -0.8248 -2.2199  0.2491
  276MOL0     H36385   3.888   3.127   5.510  0.9468  0.3510  0.1564
  276MOL0     H36386   4.271   3.057   5.511  0.6685  2.2406  1.6575
  276MOL0     H36387   4.152   2.969   5.578  2.0282 -0.1349 -0.1140
  276MOL0     H36388   4.079   3.192   5.691  1.2715 -3.1845  2.6808
  276MOL0     H36389   4.224   3.263   5.604  1.0602 -1.3370 -2.2680
  276MOL0     H36390   4.265   3.019   5.770  0.4096  0.6126 -0.3084
  276MOL0     H36391   4.378   3.148   5.763 -0.1856 -1.0555  1.9095
  276MOL0     H36392   4.113   3.157   5.929  0.1600 -2.0509 -3.1001
  276MOL0     H36393   4.230   3.287   5.898 -1.7171  0.6463  0.0809
  276MOL0     H36394   4.082   3.215   6.154  3.0603  1.5825 -0.9330
  276MOL0     H36395   3.998   3.115   6.356 -1.0550 -1.4619 -0.4627
  276MOL0     H36396   3.763   2.800   6.485  0.8715  1.2268  0.1646
  276MOL0     H36397   3.634   2.650   6.631  0.2056 -0.2120 -2.4190
  276MOL0     H36398   3.632   2.457   6.728  0.7744 -0.9562  0.2309
  276MOL0     H36399   3.535   2.536   6.847 -1.9556 -2.2816  2.3701
  276MOL0     H36400   3.584   2.383   7.033  0.1165  0.7673 -0.6996
  276MOL0     H36401   3.690   2.284   6.930  0.0130  0.2577  1.2055
  276MOL0     H36402   3.510   2.268   6.762  3.0700  1.0002 -0.5234
  276MOL0     H36403   3.400   2.342   6.882  2.8495  3.1163  0.6020
  276MOL0     H36404   3.570   2.101   6.965  0.9757  1.3028 -2.1306
  276MOL0     H36405   3.411   2.158   7.041  0.0240  1.6433  0.0875
  276MOL0     H36406   3.308   2.082   6.851 -0.4683 -0.1833  2.2719
  276MOL0     H36407   3.368   1.962   6.961  2.8190 -0.2263  1.7952
  276MOL0     H36408   3.551   1.894   6.794  2.2890  1.5023 -0.8479
  276MOL0     H36409   3.533   2.043   6.721  0.0974  1.3684  1.7170
  276MOL0     H36410   3.282   1.963   6.667  0.9601 -0.2737 -2.4260
  276MOL0     H36411   3.406   1.898   6.564 -1.0428 -0.9605 -0.5848
  276MOL0     H36412   3.309   1.742   6.814  1.3329 -1.4800  0.6722
  276MOL0     H36413   3.443   1.703   6.707 -0.6065 -0.6037  2.5990
  276MOL0     H36414   3.955   2.691   6.936 -0.1510 -1.9777  0.3596
  276MOL0     H36415   4.077   2.833   6.775 -0.4582 -0.2009 -1.2979
  276MOL0     H36416   4.356   2.874   6.394 -1.3426  1.6328  2.8902
  276MOL0     H36417   4.435   2.970   6.178  0.2958 -2.9437  1.9047
  276MOL0     H36418   2.782   2.693   5.486 -0.4080 -2.7689  0.5783
  276MOL0     H36419   2.599   2.558   5.429  1.6798 -0.3353 -0.4522
  276MOL0     H36420   2.399   2.285   5.119  0.7638  0.7175 -1.2849
  276MOL0     H36421   2.195   2.151   5.103  0.7425 -1.3839 -0.0424
  276MOL0     H36422   1.818   2.405   4.996  0.3272 -1.2152  0.3064
  276MOL0     H36423   1.847   2.350   5.159 -2.9745 -1.1763  1.3200
  276MOL0     H36424   1.724   2.129   5.077  2.6898  0.9133  0.3580
  276MOL0     H36425   1.643   2.269   5.139 -1.7709 -0.6284 -0.9310
  276MOL0     H36426   1.680   2.211   4.852  0.2013  2.3264 -0.5998
  276MOL0     H36427   1.597   2.365   4.928 -0.5809 -0.3643  0.0235
  276MOL0     H36428   1.451   2.229   4.828  1.8684 -0.8272 -0.6491
  276MOL0     H36429   1.513   2.073   4.903 -2.8342 -0.7521 -2.6640
  276MOL0     H36430   1.214   2.206   5.149  3.4650 -1.0206  3.9681
  276MOL0     H36431   1.982   2.520   5.011 -2.3698 -2.1578  0.1769
  276MOL0     H36432   2.184   2.651   5.034  0.2806  0.9757  0.3780
  277MOL0     O36433   7.599   9.163   5.206  1.2078 -1.1289  0.5112
  277MOL0     C36434   7.685   9.249   5.228  0.1212  0.9722 -0.2133
  277MOL0     O36435   7.813   9.213   5.258  0.1593  0.3626 -0.0375
  277MOL0     C36436   7.856   9.081   5.257  0.5621 -0.4807  0.1503
  277MOL0     C36437   7.780   8.973   5.309 -0.0966  0.3059 -0.0651
  277MOL0     C36438   7.849   8.855   5.318 -0.5366  0.0929 -0.8636
  277MOL0     C36439   7.986   8.839   5.306  0.4846 -0.4177 -0.7064
  277MOL0     O36440   8.030   8.726   5.343 -0.0169 -0.5592  0.1557
  277MOL0     C36441   8.169   8.699   5.310 -0.1702 -0.2983  1.3133
  277MOL0     C36442   8.209   8.565   5.371  0.1128  0.9202  0.3089
  277MOL0     C36443   8.123   8.444   5.329 -0.4734 -0.3265  0.3932
  277MOL0     C36444   8.148   8.386   5.195  0.6130  0.0581 -0.2223
  277MOL0     C36445   8.292   8.340   5.159 -0.2143  0.3365  0.6819
  277MOL0     C36446   8.272   8.240   5.037  0.2272 -0.3101 -0.6811
  277MOL0     C36447   8.379   8.138   5.027  0.1958  1.0612 -0.0957
  277MOL0     C36448   8.506   8.181   4.944  0.1958  0.3617  1.0806
  277MOL0     N36449   8.589   8.063   4.925 -0.4626 -0.0475  0.3855
  277MOL0     C36450   8.679   8.007   5.020 -0.2263  0.7514 -0.3456
  277MOL0     C36451   8.763   7.925   4.929  0.3951  1.1636 -0.1431
  277MOL0     C36452   8.884   7.846   4.967 -0.5847  0.2254 -0.1874
  277MOL0     C36453   8.861   7.691   4.956  1.1345 -0.5623  0.1784
  277MOL0     C36454   8.755   7.653   5.058 -0.4208 -0.1708 -0.3579
  277MOL0     C36455   8.736   7.498   5.055 -1.0919  0.7289  0.0819
  277MOL0     O36456   8.851   7.427   5.098  0.1652  0.2853  0.8854
  277MOL0     C36457   8.869   7.306   5.028 -0.4767 -0.2117 -0.2339
  277MOL0     C36458   9.001   7.269   5.004  0.2701 -0.7694  0.4904
  277MOL0     C36459   9.049   7.145   4.960 -0.8022 -0.8381  0.1660
  277MOL0     C36460   8.951   7.042   4.946 -0.3394 -0.4498 -0.4256
  277MOL0     C36461   8.994   6.918   4.887 -0.2744  0.2620  0.7578
  277MOL0     O36462   9.130   6.890   4.853 -0.3851 -0.0441 -0.1820
  277MOL0     C36463   9.169   6.793   4.768  0.6627  0.4114  1.1705
  277MOL0     C36464   9.130   6.657   4.774 -0.8248  0.5260 -1.3289
  277MOL0     C36465   9.189   6.559   4.698 -1.0409 -0.0030 -0.0521
  277MOL0     C36466   9.290   6.591   4.606 -0.1048  0.5275 -0.2046
  277MOL0     O36467   9.373   6.491   4.538 -0.5798 -0.7226  0.8387
  277MOL0     C36468   9.345   6.356   4.529  0.1995  0.1001 -0.0845
  277MOL0     C36469   9.279   6.301   4.406 -0.0147  0.1575  0.4076
  277MOL0     C36470   9.331   6.357   4.266 -0.5959  0.3769  0.4853
  277MOL0     C36471   9.328   6.241   4.158  0.2858 -0.0515  0.7965
  277MOL0     C36472   9.404   6.270   4.029  0.9337  0.9935  0.0782
  277MOL0     C36473   9.373   6.402   3.963  0.0150 -1.2409  0.5409
  277MOL0     C36474   9.385   6.390   3.806  0.3762  0.1249 -0.8802
  277MOL0     C36475   9.530   6.389   3.771 -0.1793 -0.1587 -0.4651
  277MOL0    Cl36476   9.569   6.382   3.596  0.4011  0.0483  0.0720
  277MOL0     C36477   9.321   6.732   4.588  0.4926 -0.0194  0.1610
  277MOL0     C36478   9.261   6.827   4.663 -0.1243  0.5483 -0.7430
  277MOL0     O36479   8.901   6.837   4.860 -1.0371 -0.3379  0.5926
  277MOL0     C36480   8.813   7.076   4.973 -0.0634  0.5340 -0.3586
  277MOL0     C36481   8.776   7.207   4.998 -0.0126  0.2773  0.2618
  277MOL0     N36482   8.716   7.931   4.797 -0.1887 -0.5981 -0.2484
  277MOL0     N36483   8.622   8.023   4.801 -0.2614 -0.0086 -0.7558
  277MOL0     C36484   8.054   8.954   5.259  0.9964 -0.1181  0.0132
  277MOL0     C36485   7.988   9.067   5.223 -0.5403  0.3559 -0.1257
  277MOL0     C36486   7.661   9.387   5.193  0.0379 -0.3886 -0.2943
  277MOL0     C36487   7.533   9.432   5.150  0.4030  0.8154  0.0198
  277MOL0     C36488   7.511   9.565   5.118  0.5866  0.7646  0.2846
  277MOL0     C36489   7.611   9.662   5.138  0.2536  0.3870 -0.8153
  277MOL0     O36490   7.590   9.790   5.096 -0.2858 -0.9974  0.3381
  277MOL0     C36491   7.586   9.894   5.201  0.7826 -0.6693 -0.2881
  277MOL0     C36492   7.532  10.017   5.138  0.7339 -0.5516  0.5469
  277MOL0     C36493   7.380  10.040   5.140 -0.1434 -0.3609 -0.9470
  277MOL0     C36494   7.324  10.051   5.290  1.8675  0.8877  0.3058
  277MOL0     C36495   7.181  10.089   5.277  0.7039  0.5041 -0.4003
  277MOL0     C36496   7.061  10.115   5.261 -0.1059 -0.2693  0.5603
  277MOL0     C36497   7.730   9.627   5.189 -0.1378  0.7714  0.1888
  277MOL0     C36498   7.760   9.487   5.216  0.4857  0.3795  0.1164
  277MOL0     H36499   7.679   8.968   5.347  0.7726  2.5511  2.9523
  277MOL0     H36500   7.813   8.764   5.365  0.7791 -0.1225 -0.2404
  277MOL0     H36501   8.228   8.782   5.350  0.1544  0.8856 -1.4159
  277MOL0     H36502   8.178   8.703   5.201  3.5806  0.6496  1.5180
  277MOL0     H36503   8.198   8.592   5.477 -0.3784  2.5957 -0.1307
  277MOL0     H36504   8.314   8.545   5.349 -0.0905  2.2267 -2.1810
  277MOL0     H36505   8.020   8.478   5.341 -0.5188  0.3040 -1.5124
  277MOL0     H36506   8.141   8.361   5.399 -1.2952 -2.1120 -1.4101
  277MOL0     H36507   8.066   8.319   5.167  1.0746 -0.2324 -0.9272
  277MOL0     H36508   8.116   8.461   5.123 -0.1210  0.9200  0.9753
  277MOL0     H36509   8.333   8.297   5.251  1.8998  2.6863  0.9466
  277MOL0     H36510   8.352   8.424   5.123  2.3599 -1.4606  0.5071
  277MOL0     H36511   8.292   8.300   4.947 -2.6689  1.7551 -0.0730
  277MOL0     H36512   8.176   8.188   5.044 -2.2618  4.0096  4.0045
  277MOL0     H36513   8.411   8.116   5.129  4.3832  0.1789 -1.3751
  277MOL0     H36514   8.328   8.049   4.988  0.4748  1.0110 -0.3517
  277MOL0     H36515   8.572   8.251   4.996  2.4963 -2.8996  2.9898
  277MOL0     H36516   8.474   8.220   4.847 -2.6822  4.6397  3.4274
  277MOL0     H36517   8.690   8.015   5.127  0.3210 -4.2623  0.2469
  277MOL0     H36518   8.914   7.875   5.068 -1.4673 -3.4511  1.2942
  277MOL0     H36519   8.955   7.876   4.889 -3.2108 -2.2586 -3.8700
  277MOL0     H36520   8.955   7.636   4.969  1.1932 -1.0978 -2.1101
  277MOL0     H36521   8.829   7.656   4.857 -0.9755 -2.9857  1.5898
  277MOL0     H36522   8.796   7.674   5.157 -3.7098 -0.2134  1.1676
  277MOL0     H36523   8.659   7.705   5.051 -0.7396 -0.9190 -1.8481
  277MOL0     H36524   8.716   7.476   4.950 -1.2250  1.8177 -0.1267
  277MOL0     H36525   8.651   7.475   5.120  0.5269  1.8559  2.7317
  277MOL0     H36526   9.077   7.346   5.016 -0.6252  0.2189  0.0648
  277MOL0     H36527   9.156   7.142   4.941 -0.6106  0.0166  1.0289
  277MOL0     H36528   9.073   6.626   4.861  1.4748  2.1380  0.9292
  277MOL0     H36529   9.160   6.456   4.714  0.3572 -0.6458 -1.4252
  277MOL0     H36530   9.289   6.326   4.618  0.5767 -2.0336 -0.5251
  277MOL0     H36531   9.441   6.306   4.537 -1.0259 -2.4608 -0.5729
  277MOL0     H36532   9.172   6.313   4.386 -0.4872 -4.3372 -1.0495
  277MOL0     H36533   9.292   6.194   4.426 -3.8906 -1.5904 -4.3089
  277MOL0     H36534   9.436   6.385   4.281 -0.5885  0.5807  0.0569
  277MOL0     H36535   9.289   6.452   4.231  2.8978  1.7589 -0.3790
  277MOL0     H36536   9.372   6.149   4.198 -0.2005 -0.8874 -0.5334
  277MOL0     H36537   9.224   6.229   4.127  0.7369  0.2476 -0.9477
  277MOL0     H36538   9.380   6.192   3.956  1.5131  2.5951 -1.9290
  277MOL0     H36539   9.509   6.257   4.055  0.8024  1.1136  0.6821
  277MOL0     H36540   9.441   6.478   4.002 -1.4979  0.5373 -0.1401
  277MOL0     H36541   9.278   6.451   3.990 -0.4505 -2.5902  1.4704
  277MOL0     H36542   9.332   6.310   3.753 -0.9618  0.8915 -0.7599
  277MOL0     H36543   9.337   6.477   3.761  1.0977  0.1911 -1.5336
  277MOL0     H36544   9.571   6.294   3.806  1.4485  1.2066  1.7066
  277MOL0     H36545   9.582   6.466   3.830 -0.8618 -0.4970  0.6061
  277MOL0     H36546   9.392   6.765   4.513 -0.9389 -2.3516 -2.4255
  277MOL0     H36547   9.305   6.924   4.640 -0.1005  0.7658  0.1815
  277MOL0     H36548   8.747   6.991   4.960  3.6008 -2.8165  0.9421
  277MOL0     H36549   8.670   7.218   5.018 -0.2161  2.6516 -1.6188
  277MOL0     H36550   8.159   8.935   5.237  1.3960  2.2467 -0.3024
  277MOL0     H36551   8.050   9.138   5.171 -2.2543  2.1454  0.1530
  277MOL0     H36552   7.452   9.360   5.146  0.8057  0.3232  0.5519
  277MOL0     H36553   7.417   9.603   5.080  1.7725  1.6757 -1.9593
  277MOL0     H36554   7.689   9.915   5.232  0.9914  0.1173 -1.4359
  277MOL0     H36555   7.528   9.867   5.290  3.2677  1.7343  2.3020
  277MOL0     H36556   7.578  10.097   5.196 -2.0612  0.8520  1.0219
  277MOL0     H36557   7.577  10.038   5.040  1.8178 -0.8877  0.9643
  277MOL0     H36558   7.330   9.955   5.092 -2.4739 -0.0764  0.8208
  277MOL0     H36559   7.344  10.122   5.078 -1.9674 -0.2835  0.1494
  277MOL0     H36560   7.318   9.952   5.335  2.7485  0.1415 -1.1455
  277MOL0     H36561   7.369  10.126   5.356 -0.3771  1.9086  0.7966
  277MOL0     H36562   6.956  10.133   5.259 -0.4741 -2.1997 -0.0749
  277MOL0     H36563   7.809   9.697   5.215 -0.7729  1.7036 -0.3553
  277MOL0     H36564   7.853   9.457   5.262 -0.8072 -0.7569  2.1264
  278MOL0     O36565   4.716   5.807   3.205  0.1752 -0.0789  0.3486
  278MOL0     C36566   4.649   5.890   3.135  0.1308  0.2971 -0.1215
  278MOL0     O36567   4.591   6.002   3.174  0.2612 -0.2682 -0.1103
  278MOL0     C36568   4.626   6.057   3.288  1.2311 -0.0046  0.1563
  278MOL0     C36569   4.511   6.110   3.358 -0.9383  0.3535 -0.4660
  278MOL0     C36570   4.531   6.169   3.480 -0.1825 -0.1054  0.2483
  278MOL0     C36571   4.666   6.182   3.536  0.2147 -0.3674  0.2532
  278MOL0     O36572   4.665   6.235   3.664 -0.5706 -0.4270 -0.6009
  278MOL0     C36573   4.767   6.328   3.688  0.1479  0.2819  0.7692
  278MOL0     C36574   4.728   6.409   3.804 -0.1330  0.8631  0.5174
  278MOL0     C36575   4.784   6.339   3.935  0.8769  0.2119 -0.5982
  278MOL0     C36576   4.745   6.414   4.060 -0.3805  0.0447  0.0251
  278MOL0     C36577   4.830   6.534   4.100 -0.7218  0.5004  0.4097
  278MOL0     C36578   4.761   6.658   4.052  0.3494  0.6856 -0.0510
  278MOL0     C36579   4.863   6.771   4.051 -0.6612  0.8506  0.0428
  278MOL0     C36580   4.951   6.770   3.917 -0.2702 -0.2926  0.2110
  278MOL0     N36581   4.867   6.798   3.800 -0.3332 -0.1805  0.0922
  278MOL0     C36582   4.792   6.906   3.773 -0.0096 -0.0187  0.4063
  278MOL0     C36583   4.767   6.892   3.634 -0.3573 -1.9606 -0.4201
  278MOL0     C36584   4.673   6.972   3.545  0.1648  0.3106  0.2606
  278MOL0     C36585   4.746   7.021   3.419  0.5678  0.4991 -0.2274
  278MOL0     C36586   4.674   7.127   3.353  0.0279 -1.4145 -0.2029
  278MOL0     C36587   4.715   7.176   3.215 -0.7665 -0.3604  1.0907
  278MOL0     O36588   4.612   7.168   3.114  0.0022  0.4692 -0.1853
  278MOL0     C36589   4.508   7.250   3.095 -0.1094 -0.6964 -0.9719
  278MOL0     C36590   4.421   7.226   2.989 -0.4749  0.8590  0.6005
  278MOL0     C36591   4.324   7.323   2.956 -0.5635  0.1136 -0.4546
  278MOL0     C36592   4.304   7.433   3.040 -0.0119  0.0780 -0.1248
  278MOL0     C36593   4.194   7.525   3.004  0.6652  0.0851 -0.3580
  278MOL0     O36594   4.211   7.653   3.035 -0.2408  0.2493  1.0788
  278MOL0     C36595   4.120   7.737   2.986  1.3852 -0.6905 -0.1031
  278MOL0     C36596   3.982   7.742   3.021  0.3574  0.9358 -0.5207
  278MOL0     C36597   3.897   7.825   2.952 -0.2441  0.8792 -0.9668
  278MOL0     C36598   3.943   7.921   2.858  0.6615  1.3457  0.8306
  278MOL0     O36599   3.854   8.003   2.791 -1.0947  0.1784 -0.1066
  278MOL0     C36600   3.879   8.022   2.651  0.0504 -0.3235  0.4626
  278MOL0     C36601   3.756   8.110   2.614 -0.2868 -0.1573  1.0302
  278MOL0     C36602   3.623   8.033   2.611  0.0708  0.5975 -0.1073
  278MOL0     C36603   3.510   8.133   2.572  0.0103  0.5137  0.1693
  278MOL0     C36604   3.397   8.042   2.516  0.1505 -0.1499  0.0906
  278MOL0     C36605   3.285   8.136   2.480 -0.1611  0.6810  0.0778
  278MOL0     C36606   3.179   8.081   2.385  0.0281 -1.0332 -0.8661
  278MOL0     C36607   3.089   7.968   2.437 -0.0399 -0.4151 -0.4496
  278MOL0    Cl36608   3.009   8.011   2.588 -0.2432 -0.0996  0.3336
  278MOL0     C36609   4.078   7.917   2.826 -0.9398  0.1050  0.1349
  278MOL0     C36610   4.163   7.819   2.879 -0.2709  0.4805 -0.2387
  278MOL0     O36611   4.091   7.474   2.955 -0.1283 -0.8351  0.4682
  278MOL0     C36612   4.383   7.448   3.154 -0.3262 -1.1781 -0.1885
  278MOL0     C36613   4.490   7.364   3.181 -0.0608 -0.1469  0.4862
  278MOL0     N36614   4.835   6.782   3.587 -0.7061  0.0907 -0.5184
  278MOL0     N36615   4.901   6.729   3.690 -0.0850 -0.2505 -0.0495
  278MOL0     C36616   4.779   6.134   3.465 -0.0833 -1.0831  0.1131
  278MOL0     C36617   4.755   6.067   3.344 -0.0083  0.0273  0.4030
  278MOL0     C36618   4.633   5.860   2.985 -0.3207 -0.4052  0.3521
  278MOL0     C36619   4.575   5.953   2.904 -0.5888  0.4833  0.0782
  278MOL0     C36620   4.601   5.951   2.766  0.4800  0.5166 -0.2161
  278MOL0     C36621   4.678   5.858   2.703  0.9729  0.2793 -0.4974
  278MOL0     O36622   4.691   5.879   2.570 -0.0833 -0.4247  0.1621
  278MOL0     C36623   4.792   5.808   2.501 -0.8504 -0.1996 -0.6050
  278MOL0     C36624   4.768   5.805   2.351 -0.9131 -0.2259  0.1410
  278MOL0     C36625   4.651   5.711   2.312  1.2912 -0.4299  0.4160
  278MOL0     C36626   4.690   5.570   2.280  1.2087 -0.5587  0.2999
  278MOL0     C36627   4.760   5.561   2.147  0.1786  0.4939 -0.6067
  278MOL0     C36628   4.813   5.563   2.044 -0.6611  0.3980 -1.2664
  278MOL0     C36629   4.727   5.752   2.785  0.9881 -0.1368  0.3334
  278MOL0     C36630   4.708   5.748   2.929  0.5007 -0.5257  0.0411
  278MOL0     H36631   4.417   6.090   3.308 -0.2893  0.9189 -1.9869
  278MOL0     H36632   4.446   6.198   3.540 -1.2681 -3.7450  0.7320
  278MOL0     H36633   4.763   6.402   3.608  0.0929 -0.9204 -0.3771
  278MOL0     H36634   4.859   6.269   3.701 -1.9322 -2.8408  2.7483
  278MOL0     H36635   4.619   6.419   3.802 -0.1151  1.4093 -2.8102
  278MOL0     H36636   4.777   6.505   3.785  1.9937 -0.0631  0.9855
  278MOL0     H36637   4.892   6.325   3.932  0.7728 -0.3723 -2.2504
  278MOL0     H36638   4.742   6.238   3.935 -0.1752  0.5992  1.2825
  278MOL0     H36639   4.641   6.447   4.050  1.3150  6.0390 -2.1016
  278MOL0     H36640   4.763   6.345   4.143 -4.9465  1.6383  2.6710
  278MOL0     H36641   4.930   6.521   4.056 -0.5747 -0.7190  1.0772
  278MOL0     H36642   4.838   6.537   4.209  1.1510  0.9393  0.3022
  278MOL0     H36643   4.676   6.672   4.119  1.2084  1.0238  0.9879
  278MOL0     H36644   4.707   6.650   3.957 -0.4711 -3.1717  0.5714
  278MOL0     H36645   4.808   6.865   4.063 -1.3673  0.4325  0.1694
  278MOL0     H36646   4.920   6.768   4.145 -1.4485  1.4075  0.5504
  278MOL0     H36647   5.004   6.677   3.896 -0.0471  0.1065 -1.0788
  278MOL0     H36648   5.030   6.846   3.922 -0.6809  0.2039 -0.6740
  278MOL0     H36649   4.748   6.972   3.846 -0.4240  0.6724 -0.4535
  278MOL0     H36650   4.633   7.052   3.607 -2.2728 -0.6072 -0.0445
  278MOL0     H36651   4.584   6.913   3.521 -0.0850  0.5671  0.5551
  278MOL0     H36652   4.745   6.945   3.341 -1.9511  2.9284 -2.8321
  278MOL0     H36653   4.844   7.049   3.458  0.7001 -1.4603  0.9930
  278MOL0     H36654   4.571   7.093   3.340 -0.5257  0.4054 -0.8864
  278MOL0     H36655   4.673   7.213   3.421 -1.2137 -2.5759  1.3282
  278MOL0     H36656   4.802   7.117   3.185 -0.7546 -0.8885  2.1079
  278MOL0     H36657   4.756   7.277   3.226  1.4698 -1.4316  4.2472
  278MOL0     H36658   4.440   7.138   2.928  0.2707  1.5216 -0.1450
  278MOL0     H36659   4.263   7.299   2.871  0.6451 -3.1556 -0.5483
  278MOL0     H36660   3.940   7.666   3.086  2.7458  1.4844  1.8420
  278MOL0     H36661   3.791   7.805   2.957  0.1307 -0.9570  0.9249
  278MOL0     H36662   3.880   7.930   2.592 -4.5940 -0.0736 -0.4044
  278MOL0     H36663   3.970   8.082   2.640  3.9414 -5.4627  0.9838
  278MOL0     H36664   3.775   8.148   2.513 -0.7629  2.1693  1.7585
  278MOL0     H36665   3.738   8.191   2.685 -1.0036  0.7545 -0.1618
  278MOL0     H36666   3.619   8.011   2.718  0.7505 -0.3995 -0.2714
  278MOL0     H36667   3.636   7.943   2.550  1.5380  1.0993 -0.5691
  278MOL0     H36668   3.465   8.186   2.657  2.7671  0.2051  1.9533
  278MOL0     H36669   3.558   8.200   2.499  1.5872 -2.3846 -1.6472
  278MOL0     H36670   3.367   7.973   2.595  0.0159 -0.2854 -0.0772
  278MOL0     H36671   3.432   7.985   2.430 -4.1638  1.9566 -3.5018
  278MOL0     H36672   3.328   8.229   2.444  4.8396 -1.1192  0.5483
  278MOL0     H36673   3.246   8.162   2.579  2.2147 -2.6620  2.1064
  278MOL0     H36674   3.126   8.174   2.366 -2.3320 -2.2063 -0.4241
  278MOL0     H36675   3.245   8.058   2.300  3.9874  5.2547 -0.1116
  278MOL0     H36676   3.135   7.870   2.427  2.0579  0.3440  1.0470
  278MOL0     H36677   2.998   7.962   2.376 -2.7416 -0.4295  3.2292
  278MOL0     H36678   4.127   8.002   2.780 -1.8900  0.4995 -0.1673
  278MOL0     H36679   4.268   7.824   2.855  0.0505 -0.1743  0.9628
  278MOL0     H36680   4.371   7.540   3.210  2.0968 -2.0774  2.0291
  278MOL0     H36681   4.565   7.392   3.255  1.4449 -0.8791 -0.6961
  278MOL0     H36682   4.880   6.165   3.494 -0.8081 -0.2750  1.9387
  278MOL0     H36683   4.834   6.022   3.285 -1.9761  0.4775 -2.8602
  278MOL0     H36684   4.520   6.034   2.950  4.0650  4.8285 -1.1438
  278MOL0     H36685   4.551   6.023   2.702 -1.0216 -0.6910 -0.4637
  278MOL0     H36686   4.803   5.700   2.518 -0.8092 -0.4211 -1.8948
  278MOL0     H36687   4.890   5.851   2.522  0.7030 -3.8587  0.4021
  278MOL0     H36688   4.741   5.907   2.321 -1.3940 -1.0747 -2.6390
  278MOL0     H36689   4.867   5.785   2.308  0.1582  0.9057  1.9290
  278MOL0     H36690   4.598   5.754   2.227  0.5779  2.3508  2.1505
  278MOL0     H36691   4.579   5.711   2.395  1.2118 -1.9251  0.3888
  278MOL0     H36692   4.749   5.535   2.366 -2.1835  1.1697  3.6297
  278MOL0     H36693   4.607   5.499   2.274  0.5573  0.1834  0.3981
  278MOL0     H36694   4.867   5.572   1.952 -2.1848  0.1625 -2.2177
  278MOL0     H36695   4.796   5.680   2.744  4.4545  3.0002  0.0591
  278MOL0     H36696   4.746   5.664   2.987 -1.2366  0.5596  2.9679
  279MOL0     O36697  10.199   8.774  10.651 -0.7183  0.5815 -0.0378
  279MOL0     C36698  10.118   8.844  10.712 -0.8080  0.5196  0.0661
  279MOL0     O36699   9.997   8.807  10.753  0.3788 -0.1666  0.2109
  279MOL0     C36700   9.973   8.674  10.765  1.7222 -0.1991 -0.4530
  279MOL0     C36701   9.996   8.608  10.882  0.5170 -0.0946 -0.0437
  279MOL0     C36702   9.964   8.470  10.878  0.8130  0.2948  0.1235
  279MOL0     C36703   9.904   8.398  10.773 -0.1384  0.1377  0.1936
  279MOL0     O36704   9.877   8.270  10.771  0.1682  0.1255 -0.3756
  279MOL0     C36705   9.976   8.176  10.815  0.2334 -1.1276 -0.7588
  279MOL0     C36706   9.901   8.091  10.910 -0.0981  0.2553  0.3827
  279MOL0     C36707   9.974   7.970  10.968 -0.2663  0.5863 -0.7520
  279MOL0     C36708   9.889   7.884  11.069 -0.4834  0.4377 -0.3279
  279MOL0     C36709   9.961   7.764  11.131 -0.7817  0.7318 -0.3440
  279MOL0     C36710   9.858   7.673  11.213 -0.1499  0.2739 -0.2955
  279MOL0     C36711   9.915   7.540  11.258 -0.5232 -0.0499  1.3568
  279MOL0     C36712  10.052   7.554  11.333  0.1321  0.5534  0.6197
  279MOL0     N36713  10.015   7.600  11.467  0.6249  0.2114  0.2730
  279MOL0     C36714  10.028   7.728  11.517  0.7983 -0.2790 -0.4583
  279MOL0     C36715   9.969   7.718  11.635 -1.3462  0.1412 -0.4079
  279MOL0     C36716   9.948   7.842  11.728  1.0689 -0.2607 -0.1553
  279MOL0     C36717   9.851   7.829  11.853 -0.3876 -1.0262  0.2249
  279MOL0     C36718   9.912   7.779  11.987 -0.8439 -0.1086 -0.1057
  279MOL0     C36719  10.006   7.881  12.059  0.4798 -0.7000 -0.2106
  279MOL0     O36720  10.042   7.820  12.185 -0.8940  0.0435  0.0787
  279MOL0     C36721  10.119   7.890  12.274  0.0750  0.1525 -1.0739
  279MOL0     C36722  10.190   8.006  12.253  0.0163 -0.6809 -0.0408
  279MOL0     C36723  10.256   8.068  12.357 -1.6165  0.1428  0.6891
  279MOL0     C36724  10.272   8.014  12.486  0.3948  0.1545 -0.2641
  279MOL0     C36725  10.366   8.070  12.593  0.2199  0.3005 -0.5968
  279MOL0     O36726  10.470   8.144  12.542  0.3162 -0.0480  0.5793
  279MOL0     C36727  10.574   8.183  12.617 -0.7954  0.2081 -0.9822
  279MOL0     C36728  10.555   8.275  12.723 -0.5514 -0.2188  0.9272
  279MOL0     C36729  10.655   8.320  12.805 -0.5536 -0.1919 -0.2900
  279MOL0     C36730  10.792   8.285  12.783 -0.3215 -0.0498  0.3457
  279MOL0     O36731  10.903   8.306  12.862 -0.3555  0.2020 -0.0862
  279MOL0     C36732  10.911   8.416  12.955 -0.4526 -0.3845  0.2209
  279MOL0     C36733  10.944   8.553  12.897  0.3517 -0.8564  0.6290
  279MOL0     C36734  11.086   8.582  12.857 -1.2528  0.2413  0.2665
  279MOL0     C36735  11.127   8.484  12.745  0.2526  0.3316 -0.6302
  279MOL0     C36736  11.248   8.535  12.673  0.7608  0.3584 -0.4604
  279MOL0     C36737  11.300   8.424  12.587  0.8523  0.6922  0.6324
  279MOL0     C36738  11.435   8.486  12.524  1.3094  0.2026 -0.4761
  279MOL0     C36739  11.506   8.373  12.460 -0.2849  0.9898  0.7110
  279MOL0    Cl36740  11.636   8.443  12.361  0.1742  0.8068  0.7167
  279MOL0     C36741  10.813   8.204  12.675  0.1743 -0.9399  0.2233
  279MOL0     C36742  10.704   8.146  12.597  0.5642  0.2128 -0.1442
  279MOL0     O36743  10.356   8.041  12.709  0.1684 -0.2007  0.0020
  279MOL0     C36744  10.202   7.901  12.504 -0.2222  1.2320 -1.0550
  279MOL0     C36745  10.130   7.836  12.401  0.0912 -0.2147  1.0769
  279MOL0     N36746   9.953   7.582  11.664 -0.0489 -0.6936 -0.7007
  279MOL0     N36747   9.978   7.512  11.560  0.4501 -0.2755 -0.3678
  279MOL0     C36748   9.894   8.474  10.652 -0.0697 -0.2772 -0.1915
  279MOL0     C36749   9.921   8.606  10.653  0.1200  0.5952 -0.1344
  279MOL0     C36750  10.151   8.979  10.742  0.0758  0.4854 -0.2394
  279MOL0     C36751  10.243   9.051  10.658 -1.6104 -0.2026 -0.9046
  279MOL0     C36752  10.284   9.177  10.696  0.0544  0.0085  0.6744
  279MOL0     C36753  10.222   9.240  10.803  0.4445 -0.7248  0.7317
  279MOL0     O36754  10.264   9.368  10.857 -0.3532 -0.4045 -0.2186
  279MOL0     C36755  10.392   9.416  10.834  0.2042  0.0858 -0.4639
  279MOL0     C36756  10.413   9.553  10.917 -0.1071  0.6997  0.4390
  279MOL0     C36757  10.289   9.645  10.910 -0.1400 -0.4868  0.1570
  279MOL0     C36758  10.253   9.659  10.756 -0.1346  0.0723  0.4986
  279MOL0     C36759  10.143   9.762  10.735 -0.1154  0.6635 -0.0073
  279MOL0     C36760  10.055   9.842  10.727  0.2075  0.3637 -0.7022
  279MOL0     C36761  10.130   9.176  10.884  0.2943 -0.2191 -0.6424
  279MOL0     C36762  10.088   9.042  10.856 -0.5214 -0.9128 -0.3211
  279MOL0     H36763  10.026   8.653  10.976  1.0054 -1.0384  0.2660
  279MOL0     H36764   9.983   8.429  10.977  0.9744  0.4067  0.1392
  279MOL0     H36765  10.067   8.218  10.860  0.5065 -0.8715 -1.5368
  279MOL0     H36766  10.026   8.110  10.743  1.1632 -0.5911 -0.6247
  279MOL0     H36767   9.809   8.056  10.864  0.3024 -0.1951 -0.0908
  279MOL0     H36768   9.879   8.141  11.005  1.2430 -2.4240  2.2176
  279MOL0     H36769  10.058   8.012  11.024 -1.6842 -0.4080  2.3587
  279MOL0     H36770  10.030   7.919  10.889  2.6784  2.2524  0.1021
  279MOL0     H36771   9.852   7.947  11.151 -1.3161 -0.0604 -0.3024
  279MOL0     H36772   9.801   7.848  11.015  0.5427  0.2193 -1.8975
  279MOL0     H36773  10.040   7.796  11.200 -1.0923  0.0431  0.3515
  279MOL0     H36774  10.004   7.704  11.050  3.4288  3.3048 -0.3486
  279MOL0     H36775   9.769   7.658  11.151 -0.0191 -0.2871 -0.3549
  279MOL0     H36776   9.830   7.727  11.304  2.7999 -1.3899  1.7827
  279MOL0     H36777   9.840   7.475  11.303 -2.6739  1.5295  0.2740
  279MOL0     H36778   9.946   7.490  11.166 -0.5015 -0.8747  1.8034
  279MOL0     H36779  10.119   7.618  11.274 -1.3869 -0.2548 -2.1442
  279MOL0     H36780  10.096   7.454  11.338 -1.4438 -0.3005 -1.2430
  279MOL0     H36781  10.079   7.808  11.464  0.7210  0.0652 -0.0215
  279MOL0     H36782   9.905   7.919  11.663 -0.9418  0.2774  1.6896
  279MOL0     H36783  10.051   7.870  11.752  3.0938 -1.7872 -5.6396
  279MOL0     H36784   9.771   7.760  11.825 -0.1318 -2.4342  2.6779
  279MOL0     H36785   9.812   7.927  11.881  0.7699 -0.2130 -0.8706
  279MOL0     H36786   9.834   7.746  12.056 -2.1566 -0.5758 -1.7356
  279MOL0     H36787   9.974   7.693  11.960  0.6009  1.8829 -3.9897
  279MOL0     H36788   9.940   7.967  12.065  2.2372  0.9149 -2.3257
  279MOL0     H36789  10.091   7.909  11.996 -1.9961 -2.2784 -4.6950
  279MOL0     H36790  10.182   8.061  12.159  0.3447  2.5813  1.6845
  279MOL0     H36791  10.326   8.146  12.328 -1.4711 -0.2322  0.0254
  279MOL0     H36792  10.453   8.310  12.731 -1.0335 -1.7068  1.7766
  279MOL0     H36793  10.643   8.401  12.877 -4.5866  1.3951 -2.3944
  279MOL0     H36794  11.003   8.402  13.012  0.7015 -2.3510 -1.9328
  279MOL0     H36795  10.819   8.426  13.014 -0.2077 -0.1889  0.5671
  279MOL0     H36796  10.920   8.630  12.971 -0.4827 -0.2595 -0.2280
  279MOL0     H36797  10.868   8.574  12.821  1.7335 -3.3126 -1.6116
  279MOL0     H36798  11.156   8.576  12.941 -0.5188 -0.9398 -0.3942
  279MOL0     H36799  11.095   8.687  12.826  1.7676  0.7839  2.5369
  279MOL0     H36800  11.158   8.384  12.777  0.2213  0.5770  0.1774
  279MOL0     H36801  11.047   8.475  12.670  0.8321  1.6855 -1.4503
  279MOL0     H36802  11.331   8.551  12.742  0.8066 -2.1336  0.1479
  279MOL0     H36803  11.229   8.627  12.616 -0.8293  0.6268  0.4400
  279MOL0     H36804  11.222   8.394  12.516 -0.5005  3.1327  0.9857
  279MOL0     H36805  11.318   8.349  12.665 -0.4492 -1.4065 -0.9614
  279MOL0     H36806  11.416   8.563  12.449  0.0967 -0.8037 -1.2449
  279MOL0     H36807  11.501   8.525  12.601 -1.7829  1.9437  1.4905
  279MOL0     H36808  11.452   8.298  12.401 -2.9005  1.7630  1.9572
  279MOL0     H36809  11.548   8.316  12.544  0.0699 -2.6043 -1.6892
  279MOL0     H36810  10.913   8.163  12.671  0.9963  1.0771 -1.3960
  279MOL0     H36811  10.741   8.080  12.520  2.0280 -0.5627  1.1740
  279MOL0     H36812  10.201   7.847  12.598 -0.2091 -0.9035 -2.2070
  279MOL0     H36813  10.074   7.743  12.415  2.3312 -1.5193  1.8413
  279MOL0     H36814   9.860   8.419  10.565  0.4163 -0.0852 -0.5043
  279MOL0     H36815   9.882   8.666  10.571 -0.1450  1.4451  0.5909
  279MOL0     H36816  10.285   9.001  10.572 -0.2133 -2.5514  1.0008
  279MOL0     H36817  10.354   9.233  10.634 -3.2987  1.6238 -1.9760
  279MOL0     H36818  10.409   9.425  10.727 -1.6215 -3.1693 -1.1643
  279MOL0     H36819  10.467   9.344  10.867 -0.9351  0.1779  2.6722
  279MOL0     H36820  10.433   9.527  11.022 -1.9025 -3.3379 -0.0083
  279MOL0     H36821  10.504   9.597  10.877 -0.1262  0.1896 -0.1875
  279MOL0     H36822  10.301   9.745  10.955 -4.9465 -1.3924  4.4488
  279MOL0     H36823  10.209   9.601  10.969  0.1485 -0.9570  0.1962
  279MOL0     H36824  10.342   9.691  10.701 -0.3391  0.6902  0.5150
  279MOL0     H36825  10.211   9.565  10.718 -3.6800  0.7690  2.2330
  279MOL0     H36826   9.980   9.916  10.710 -1.2540 -1.5663 -3.4185
  279MOL0     H36827  10.095   9.233  10.969 -3.1616 -1.7039 -0.9013
  279MOL0     H36828  10.021   8.988  10.923 -3.1775  2.6668  0.2159
  280MOL0     O36829  10.417   3.212   7.583  0.0921  0.9963  0.8628
  280MOL0     C36830  10.486   3.231   7.675 -1.0787 -0.0277 -0.4765
  280MOL0     O36831  10.616   3.249   7.667 -0.2179  0.7899 -0.0134
  280MOL0     C36832  10.696   3.217   7.556 -0.5487 -0.1241 -0.8847
  280MOL0     C36833  10.783   3.317   7.522 -0.7686  0.0044 -0.5447
  280MOL0     C36834  10.892   3.296   7.442  0.0472  0.0095  0.3336
  280MOL0     C36835  10.910   3.175   7.389 -0.2350  0.0431  0.0406
  280MOL0     O36836  11.028   3.149   7.329  0.4427  0.5076 -0.0680
  280MOL0     C36837  11.046   3.211   7.196  0.6409  0.1356  0.0994
  280MOL0     C36838  11.140   3.335   7.181  0.8036 -0.4171  0.6208
  280MOL0     C36839  11.285   3.296   7.144  0.2690 -0.0017  0.6212
  280MOL0     C36840  11.361   3.209   7.249  0.1103  0.0283  0.4366
  280MOL0     C36841  11.344   3.252   7.398 -0.9233 -0.6191  0.1486
  280MOL0     C36842  11.443   3.177   7.489  0.3062  0.0995 -0.4087
  280MOL0     C36843  11.485   3.035   7.472 -0.2942 -0.1587  1.0321
  280MOL0     C36844  11.373   2.930   7.487 -0.8519  0.3926  0.5667
  280MOL0     N36845  11.389   2.884   7.623  0.3064  0.8407 -0.1968
  280MOL0     C36846  11.306   2.905   7.725  0.3900 -0.1061  0.3876
  280MOL0     C36847  11.333   2.826   7.830  0.5215  0.5332 -0.0548
  280MOL0     C36848  11.232   2.788   7.940 -0.3288  0.4438 -0.5575
  280MOL0     C36849  11.166   2.656   7.911  0.1553 -0.1460 -0.6497
  280MOL0     C36850  11.045   2.633   8.002 -0.6155  0.0432 -0.6905
  280MOL0     C36851  10.994   2.488   8.003  0.0880  0.1231  0.0837
  280MOL0     O36852  10.888   2.463   8.098  0.1475  0.1017  0.1533
  280MOL0     C36853  10.845   2.332   8.110  0.7409 -0.8020 -0.7037
  280MOL0     C36854  10.706   2.315   8.105 -0.1011  0.1517  0.7312
  280MOL0     C36855  10.648   2.190   8.121 -0.3491  0.8400  1.4433
  280MOL0     C36856  10.714   2.080   8.144 -0.0509  0.7065 -1.4066
  280MOL0     C36857  10.654   1.947   8.155 -0.0610  0.6979 -0.5820
  280MOL0     O36858  10.731   1.841   8.139 -0.6557 -0.3922  0.6354
  280MOL0     C36859  10.676   1.717   8.158 -0.5208 -0.7597 -0.1441
  280MOL0     C36860  10.623   1.672   8.288 -0.3366 -0.3793 -0.4946
  280MOL0     C36861  10.569   1.541   8.296 -0.1302 -0.6200  0.9144
  280MOL0     C36862  10.554   1.465   8.179 -0.1483  0.8616  0.4558
  280MOL0     O36863  10.516   1.337   8.184  0.2155 -0.0878  0.7256
  280MOL0     C36864  10.621   1.243   8.220  0.1328  0.1294 -0.6003
  280MOL0     C36865  10.591   1.096   8.174  0.1155 -0.0186 -0.8226
  280MOL0     C36866  10.476   1.036   8.259  0.0629  0.0021 -0.3023
  280MOL0     C36867  10.524   0.995   8.396  0.3418  0.2033 -0.5110
  280MOL0     C36868  10.398   0.964   8.476  0.2851 -1.5267 -0.0193
  280MOL0     C36869  10.423   0.839   8.574 -0.4267 -0.3828  0.0368
  280MOL0     C36870  10.292   0.799   8.645  0.3166 -0.3476  0.5328
  280MOL0     C36871  10.282   0.678   8.738 -0.4348  0.0935  0.2225
  280MOL0    Cl36872  10.353   0.714   8.892  0.1213 -0.1315  0.1356
  280MOL0     C36873  10.573   1.522   8.053 -0.2731 -0.4115  1.0548
  280MOL0     C36874  10.644   1.644   8.043  0.8733  0.4749  0.1797
  280MOL0     O36875  10.527   1.940   8.172  0.1864  0.4898  0.0898
  280MOL0     C36876  10.853   2.084   8.141  0.5630  0.0453 -0.0721
  280MOL0     C36877  10.920   2.214   8.122 -0.6658 -0.0875  0.1564
  280MOL0     N36878  11.439   2.746   7.792  0.3364  0.0860 -0.0720
  280MOL0     N36879  11.471   2.786   7.674 -0.4115 -0.8644  0.8058
  280MOL0     C36880  10.831   3.069   7.426  0.6737 -0.7490 -0.9056
  280MOL0     C36881  10.721   3.089   7.512  0.3729  0.6348  0.1431
  280MOL0     C36882  10.424   3.222   7.813  0.3560 -1.0244 -0.2016
  280MOL0     C36883  10.285   3.196   7.837  0.0890  0.5292  0.5000
  280MOL0     C36884  10.231   3.196   7.956 -0.8626 -0.4458  0.4430
  280MOL0     C36885  10.312   3.204   8.066 -0.4220  0.0576  1.6823
  280MOL0     O36886  10.252   3.190   8.185 -0.0177 -0.3098 -0.5871
  280MOL0     C36887  10.232   3.051   8.215  0.4940 -0.0899 -0.8194
  280MOL0     C36888  10.188   3.026   8.368  0.3586  0.2866 -0.0840
  280MOL0     C36889  10.179   2.876   8.398  0.7407 -0.0805 -0.5691
  280MOL0     C36890  10.119   2.826   8.528 -0.7096  0.3457  0.1492
  280MOL0     C36891  10.218   2.865   8.635 -0.1533  0.1929  0.5235
  280MOL0     C36892  10.308   2.913   8.701 -0.0933  0.8517 -0.2991
  280MOL0     C36893  10.451   3.213   8.053 -0.0932  0.0742  0.1496
  280MOL0     C36894  10.502   3.217   7.927  0.3307 -0.8264  0.5343
  280MOL0     H36895  10.764   3.419   7.556 -1.7684 -0.1803 -0.5153
  280MOL0     H36896  10.957   3.378   7.413 -0.5488  0.1753 -0.5539
  280MOL0     H36897  10.944   3.221   7.157  1.5752 -0.5031 -2.6885
  280MOL0     H36898  11.080   3.137   7.123 -6.2025  1.0123 -4.9690
  280MOL0     H36899  11.144   3.386   7.277  1.6712 -0.0510  0.4009
  280MOL0     H36900  11.095   3.406   7.110  2.6233 -0.3458 -0.5388
  280MOL0     H36901  11.351   3.383   7.142  0.9985 -0.5097  1.5892
  280MOL0     H36902  11.297   3.259   7.042 -2.3677  3.1160 -0.9883
  280MOL0     H36903  11.321   3.108   7.234 -1.6907  0.5846  1.1825
  280MOL0     H36904  11.468   3.206   7.231  0.7407  1.3208  3.4085
  280MOL0     H36905  11.242   3.229   7.428 -1.2508  1.1131  0.4741
  280MOL0     H36906  11.356   3.361   7.402  1.3393 -0.6540 -2.4079
  280MOL0     H36907  11.398   3.196   7.587  3.7852 -1.4068  1.6252
  280MOL0     H36908  11.532   3.240   7.494  0.5045 -0.2488  0.8250
  280MOL0     H36909  11.516   3.020   7.368 -0.1084 -1.7999  1.3009
  280MOL0     H36910  11.568   3.013   7.538  0.1420  1.0291  0.9135
  280MOL0     H36911  11.407   2.856   7.414 -0.0603  0.5102  0.8060
  280MOL0     H36912  11.273   2.956   7.451 -0.7583  1.1256  0.8117
  280MOL0     H36913  11.228   2.981   7.718 -1.1031 -1.4250  1.8024
  280MOL0     H36914  11.161   2.870   7.951  1.1080  1.7236 -0.4747
  280MOL0     H36915  11.292   2.782   8.032  2.1446  0.4276 -2.0927
  280MOL0     H36916  11.240   2.576   7.908  0.5752  0.2659 -1.6721
  280MOL0     H36917  11.135   2.666   7.807  3.1455  0.6731 -1.5688
  280MOL0     H36918  11.074   2.668   8.101 -0.2846  2.8959 -1.7002
  280MOL0     H36919  10.955   2.691   7.981 -1.1723 -0.6536 -0.2903
  280MOL0     H36920  11.074   2.414   8.011  1.1288  0.4906 -4.4408
  280MOL0     H36921  10.964   2.478   7.898  1.9641  1.7410 -0.6623
  280MOL0     H36922  10.652   2.409   8.103  1.8602  1.3160 -0.9695
  280MOL0     H36923  10.540   2.185   8.135 -0.1698 -1.8734  2.4366
  280MOL0     H36924  10.624   1.735   8.376 -1.1936 -1.1573  0.0934
  280MOL0     H36925  10.548   1.492   8.390 -0.6768 -1.2854  0.4492
  280MOL0     H36926  10.643   1.248   8.327  0.0547  4.1598 -0.6166
  280MOL0     H36927  10.711   1.271   8.164  0.6555  0.3739  0.3323
  280MOL0     H36928  10.684   1.041   8.189  1.8017  2.5509 -1.2173
  280MOL0     H36929  10.580   1.092   8.065  2.2841  1.1979 -1.1602
  280MOL0     H36930  10.438   0.947   8.208 -1.1659  0.9877 -1.1930
  280MOL0     H36931  10.391   1.105   8.266 -1.3883 -1.6952 -0.6846
  280MOL0     H36932  10.576   0.899   8.385 -1.7297 -1.1052  0.4977
  280MOL0     H36933  10.594   1.062   8.446  3.3836 -1.0689 -2.7609
  280MOL0     H36934  10.325   0.912   8.414  0.9887 -3.5884  0.7761
  280MOL0     H36935  10.357   1.050   8.530 -1.5111 -2.6251  0.4444
  280MOL0     H36936  10.504   0.848   8.647 -1.0666 -1.9053  0.9839
  280MOL0     H36937  10.456   0.762   8.504  0.5309  1.7924 -2.0684
  280MOL0     H36938  10.242   0.883   8.693  1.4332 -0.6186  2.2566
  280MOL0     H36939  10.227   0.771   8.562  1.2200 -0.5792 -0.1177
  280MOL0     H36940  10.327   0.588   8.695  1.6274 -0.1462  2.6928
  280MOL0     H36941  10.177   0.651   8.756 -0.2825  1.4891  4.2053
  280MOL0     H36942  10.536   1.472   7.964  1.7761  0.8668 -0.6097
  280MOL0     H36943  10.667   1.687   7.946 -1.3841  1.7974  0.1628
  280MOL0     H36944  10.902   1.988   8.155  0.3756 -0.1956 -1.0042
  280MOL0     H36945  11.028   2.208   8.128 -0.6489 -0.5484 -0.5070
  280MOL0     H36946  10.840   2.964   7.399 -0.1590 -1.1574  0.3294
  280MOL0     H36947  10.671   3.005   7.559  0.1125  0.1514 -0.9658
  280MOL0     H36948  10.219   3.189   7.751  0.0796 -3.2739  0.6539
  280MOL0     H36949  10.123   3.184   7.961 -0.5924 -3.1879  1.7375
  280MOL0     H36950  10.323   2.992   8.202  1.7019  1.8462 -1.4558
  280MOL0     H36951  10.156   3.015   8.145  0.3804  1.1001 -1.3281
  280MOL0     H36952  10.255   3.081   8.436 -1.4965  2.1981  0.3396
  280MOL0     H36953  10.091   3.076   8.361 -1.2266 -2.8573 -4.8753
  280MOL0     H36954  10.271   2.821   8.379  0.3317 -0.5794 -1.1268
  280MOL0     H36955  10.116   2.843   8.315  0.4024 -3.4977  0.8966
  280MOL0     H36956  10.018   2.867   8.542  0.1997  1.9761  2.6432
  280MOL0     H36957  10.108   2.717   8.520 -2.1060  0.5040 -0.3662
  280MOL0     H36958  10.394   2.958   8.746  1.0369 -1.2612 -0.2112
  280MOL0     H36959  10.519   3.211   8.137 -1.0255  0.4696  0.9340
  280MOL0     H36960  10.609   3.229   7.910  0.1701  0.6857  0.3842
  281MOL0     O36961   1.451   0.105   5.980  0.3875  1.4295  0.1477
  281MOL0     C36962   1.421   0.002   5.920 -0.3239  0.9362  0.3832
  281MOL0     O36963   1.351  -0.104   5.977  0.4347 -0.3725  0.3741
  281MOL0     C36964   1.327  -0.092   6.115  0.0691  0.7733  0.4328
  281MOL0     C36965   1.435  -0.084   6.214  0.1327 -0.4360  0.2907
  281MOL0     C36966   1.404  -0.064   6.344 -0.5776 -0.2448  1.0137
  281MOL0     C36967   1.276  -0.037   6.384  0.0697  0.5559 -0.3296
  281MOL0     O36968   1.239  -0.022   6.514  0.1177  0.0058 -0.7580
  281MOL0     C36969   1.339   0.004   6.614 -0.1595 -0.4456  1.3517
  281MOL0     C36970   1.281   0.045   6.755 -0.1457  1.2738 -0.5346
  281MOL0     C36971   1.277   0.193   6.776 -0.0408 -0.3213 -0.0219
  281MOL0     C36972   1.281   0.234   6.926  0.4113  0.2236 -0.0553
  281MOL0     C36973   1.160   0.176   7.015  1.5178 -0.0458  0.2055
  281MOL0     C36974   1.016   0.195   6.955  0.5321 -0.4080  0.1190
  281MOL0     C36975   0.979   0.346   6.942 -0.9292 -0.8263 -0.3014
  281MOL0     C36976   0.832   0.363   6.891 -0.3214  0.6358  1.4926
  281MOL0     N36977   0.806   0.317   6.754 -1.3330  0.5038 -0.3581
  281MOL0     C36978   0.900   0.333   6.657  0.2474 -0.0673 -0.1975
  281MOL0     C36979   0.846   0.275   6.547  0.2583  0.3681 -0.2005
  281MOL0     C36980   0.937   0.239   6.436 -0.0689 -0.1663 -1.4720
  281MOL0     C36981   0.879   0.279   6.300  0.9533  0.3829 -0.1872
  281MOL0     C36982   0.963   0.213   6.190 -1.1999 -0.8611  1.2833
  281MOL0     C36983   0.941   0.272   6.052  0.6440  0.3080 -0.5100
  281MOL0     O36984   1.028   0.212   5.958 -0.5052  0.2903  0.5287
  281MOL0     C36985   1.057   0.290   5.843 -0.0875 -0.2449 -1.0959
  281MOL0     C36986   1.189   0.279   5.786 -0.7683  0.3699  0.1902
  281MOL0     C36987   1.217   0.346   5.665 -0.2516 -0.5210  0.0576
  281MOL0     C36988   1.123   0.429   5.607 -0.0403  0.6351 -0.2325
  281MOL0     C36989   1.162   0.511   5.483  0.5145 -0.0942  0.0232
  281MOL0     O36990   1.244   0.458   5.399  0.0791 -0.6080 -0.1930
  281MOL0     C36991   1.254   0.491   5.267  1.0644 -0.3901 -0.0616
  281MOL0     C36992   1.370   0.450   5.204 -0.7041  0.6614  0.8426
  281MOL0     C36993   1.400   0.481   5.069  0.1107  0.0982 -0.4768
  281MOL0     C36994   1.316   0.559   4.999 -0.2752  0.0745  0.9823
  281MOL0     O36995   1.332   0.578   4.866  0.1539 -0.2264  0.4117
  281MOL0     C36996   1.456   0.537   4.800 -0.3014  1.0321 -0.6207
  281MOL0     C36997   1.454   0.555   4.651  0.5362  0.1603  1.2037
  281MOL0     C36998   1.340   0.456   4.598 -0.1397 -0.6224 -0.3565
  281MOL0     C36999   1.305   0.496   4.452  0.6803  0.0882 -1.0211
  281MOL0     C37000   1.269   0.373   4.369  0.7432 -0.0754 -0.4405
  281MOL0     C37001   1.147   0.302   4.425  0.2658 -0.6048 -0.1655
  281MOL0     C37002   1.089   0.199   4.317  0.7762  0.2826 -0.2387
  281MOL0     C37003   1.039   0.260   4.185 -0.4183  0.3079 -0.3104
  281MOL0    Cl37004   0.875   0.344   4.210 -0.2424  0.0178 -0.2083
  281MOL0     C37005   1.203   0.612   5.054 -0.1130 -0.0769 -0.2735
  281MOL0     C37006   1.177   0.581   5.189 -0.1084 -0.3346 -0.3723
  281MOL0     O37007   1.095   0.618   5.472 -0.0768 -0.2087  1.0233
  281MOL0     C37008   0.986   0.432   5.655  0.0899 -0.3769  0.2885
  281MOL0     C37009   0.957   0.369   5.776 -0.0554  1.1259 -0.0107
  281MOL0     N37010   0.714   0.232   6.581  0.0951 -0.7111 -0.6114
  281MOL0     N37011   0.692   0.267   6.701  0.7535 -0.2007  0.3078
  281MOL0     C37012   1.172  -0.039   6.299  0.1639 -0.3447  0.4250
  281MOL0     C37013   1.193  -0.079   6.170 -0.3521 -0.4038  0.1389
  281MOL0     C37014   1.464  -0.024   5.780  0.5746 -1.3135  0.2040
  281MOL0     C37015   1.507   0.085   5.706  0.4629 -0.0684 -0.2036
  281MOL0     C37016   1.530   0.068   5.578  0.1717  0.5605  0.1908
  281MOL0     C37017   1.527  -0.054   5.512  0.2383 -0.2340 -0.0146
  281MOL0     O37018   1.554  -0.068   5.380 -0.2086  0.4664  0.8171
  281MOL0     C37019   1.531   0.018   5.273 -0.3694 -0.1537  0.3941
  281MOL0     C37020   1.379   0.039   5.251 -1.1689  0.2591  0.2102
  281MOL0     C37021   1.357   0.114   5.114 -0.3366 -0.3606  0.1827
  281MOL0     C37022   1.218   0.144   5.091  0.6226  0.8154  0.2465
  281MOL0     C37023   1.193   0.205   4.965 -0.5218  0.0380  0.1123
  281MOL0     C37024   1.154   0.244   4.854  1.1959  0.1720  0.4095
  281MOL0     C37025   1.501  -0.169   5.587  0.3750  0.0664 -0.0461
  281MOL0     C37026   1.452  -0.157   5.719  0.3489 -0.4135  0.0484
  281MOL0     H37027   1.537  -0.089   6.178  0.1702  0.8775  0.1636
  281MOL0     H37028   1.490  -0.059   6.411  0.2450 -0.9594  0.0374
  281MOL0     H37029   1.401   0.088   6.579 -3.1756  1.4897  0.2935
  281MOL0     H37030   1.405  -0.082   6.626 -0.0330 -1.3127 -3.4324
  281MOL0     H37031   1.340  -0.001   6.835  2.0285 -0.4721 -2.9484
  281MOL0     H37032   1.178   0.009   6.751  0.2563 -0.0366 -4.9929
  281MOL0     H37033   1.184   0.223   6.726 -0.0748 -2.9153 -1.7142
  281MOL0     H37034   1.367   0.238   6.732  0.0456 -0.1614  0.3106
  281MOL0     H37035   1.381   0.206   6.962  0.3653 -0.0662 -0.1592
  281MOL0     H37036   1.276   0.344   6.927 -1.1401  0.2074 -1.7923
  281MOL0     H37037   1.173   0.217   7.116  1.0904 -1.4703  0.8643
  281MOL0     H37038   1.184   0.069   7.026  1.9108 -0.0910 -0.9964
  281MOL0     H37039   0.939   0.152   7.019 -0.8475 -1.0050 -1.8497
  281MOL0     H37040   1.008   0.154   6.854 -1.1445  2.6638 -1.1234
  281MOL0     H37041   0.983   0.388   7.042 -1.1377  0.1234 -0.6816
  281MOL0     H37042   1.047   0.389   6.868  0.4954 -2.6642 -0.1519
  281MOL0     H37043   0.821   0.472   6.899  1.8758  0.8523  2.2223
  281MOL0     H37044   0.757   0.312   6.952  0.7865 -3.3792 -0.1407
  281MOL0     H37045   1.000   0.373   6.656 -1.1080  3.6902 -0.4826
  281MOL0     H37046   0.957   0.132   6.451 -0.3732  0.0836  1.2350
  281MOL0     H37047   1.034   0.288   6.451  0.3655 -1.7374  1.7360
  281MOL0     H37048   0.885   0.387   6.288  5.2769  0.4784  1.2597
  281MOL0     H37049   0.778   0.237   6.287  0.6339  0.3282  2.0176
  281MOL0     H37050   1.071   0.221   6.207 -1.0066  0.4168 -0.3083
  281MOL0     H37051   0.935   0.107   6.189 -1.0688 -0.9599 -1.4057
  281MOL0     H37052   0.967   0.378   6.059 -3.1760  1.4087 -0.8177
  281MOL0     H37053   0.835   0.263   6.025 -0.3716 -0.0700  3.0025
  281MOL0     H37054   1.263   0.211   5.826 -3.1680 -1.4788  1.7435
  281MOL0     H37055   1.311   0.333   5.614 -0.9619 -0.6789 -1.2620
  281MOL0     H37056   1.447   0.389   5.249 -0.1787  1.0104  0.4451
  281MOL0     H37057   1.491   0.437   5.030  1.2005  1.3636  0.5291
  281MOL0     H37058   1.472   0.429   4.814 -1.4501  0.6038 -2.4017
  281MOL0     H37059   1.547   0.590   4.828  1.2152 -1.1215 -1.1681
  281MOL0     H37060   1.544   0.533   4.593 -0.3746  0.3605 -0.3486
  281MOL0     H37061   1.426   0.660   4.633  1.4187  0.7664  3.1508
  281MOL0     H37062   1.245   0.465   4.651  0.1763 -0.3157  0.1541
  281MOL0     H37063   1.381   0.355   4.590  3.6698  0.4386  2.8910
  281MOL0     H37064   1.225   0.570   4.464  0.2764 -0.6676  1.3226
  281MOL0     H37065   1.386   0.547   4.398  0.7621  0.3660 -0.6398
  281MOL0     H37066   1.341   0.291   4.368  0.7651 -0.0843 -2.8391
  281MOL0     H37067   1.250   0.405   4.266 -1.3762 -0.0969 -0.0985
  281MOL0     H37068   1.064   0.370   4.446  1.2273  1.8685 -3.5519
  281MOL0     H37069   1.167   0.238   4.512  0.2008  0.1661  0.4354
  281MOL0     H37070   1.174   0.130   4.311 -0.8853 -1.8986  0.0656
  281MOL0     H37071   1.014   0.138   4.368  1.3697 -1.8267 -1.7433
  281MOL0     H37072   1.022   0.181   4.112 -1.1696 -0.4384  0.6447
  281MOL0     H37073   1.116   0.324   4.140  1.2928 -1.5399 -0.1724
  281MOL0     H37074   1.137   0.670   4.991  0.6184 -0.2427 -1.2307
  281MOL0     H37075   1.090   0.633   5.229  0.7259  0.2904  0.6854
  281MOL0     H37076   0.905   0.486   5.609  0.8703  0.1533 -0.4914
  281MOL0     H37077   0.854   0.373   5.811 -0.7726  1.3422 -2.0170
  281MOL0     H37078   1.069  -0.025   6.329 -0.9550  1.8008 -3.6796
  281MOL0     H37079   1.118  -0.092   6.093  0.0541  0.3245 -0.3874
  281MOL0     H37080   1.509   0.184   5.750 -1.4547  0.0978 -0.3982
  281MOL0     H37081   1.571   0.153   5.524 -0.9743  0.3041 -1.1439
  281MOL0     H37082   1.571  -0.035   5.186  2.7809  1.6226  0.6152
  281MOL0     H37083   1.583   0.113   5.288 -0.8015 -0.1049  1.6598
  281MOL0     H37084   1.336  -0.062   5.245 -1.0977  0.1831  0.9847
  281MOL0     H37085   1.341   0.090   5.340  0.2413 -0.1700  1.0724
  281MOL0     H37086   1.382   0.056   5.025 -2.2161 -0.4576 -0.3135
  281MOL0     H37087   1.413   0.207   5.098  1.0498 -1.5924 -3.1636
  281MOL0     H37088   1.171   0.045   5.102  1.1892  0.8410  4.7129
  281MOL0     H37089   1.170   0.207   5.167  1.1702  1.1244  0.3399
  281MOL0     H37090   1.132   0.280   4.756  1.9340 -2.2479 -0.7215
  281MOL0     H37091   1.500  -0.264   5.534 -1.4009  1.3386 -2.4878
  281MOL0     H37092   1.416  -0.240   5.779  0.0439  1.1118  2.0703
  282MOL0     O37093   9.614   3.741   6.550 -0.4398  0.1677  0.8663
  282MOL0     C37094   9.495   3.713   6.573 -0.9445 -0.0149 -0.5686
  282MOL0     O37095   9.402   3.785   6.646  0.5332 -0.0273 -0.7183
  282MOL0     C37096   9.421   3.917   6.677 -0.4704 -0.3061 -0.3193
  282MOL0     C37097   9.504   4.007   6.607 -0.0640 -0.7251  0.1447
  282MOL0     C37098   9.520   4.146   6.642 -0.2786  0.2613 -0.6323
  282MOL0     C37099   9.460   4.191   6.759  0.4456 -0.2065 -1.1416
  282MOL0     O37100   9.499   4.318   6.803 -0.8082 -0.1551 -0.8760
  282MOL0     C37101   9.460   4.434   6.724 -0.8732 -0.2537 -0.8786
  282MOL0     C37102   9.590   4.516   6.697  0.6594  1.2200 -0.2099
  282MOL0     C37103   9.628   4.623   6.804 -0.5480 -0.2381  0.5004
  282MOL0     C37104   9.725   4.559   6.913  0.6939  0.1817 -0.2503
  282MOL0     C37105   9.799   4.658   6.995  0.3363  0.6967  0.6051
  282MOL0     C37106   9.915   4.707   6.916 -0.5111  0.4770 -0.0699
  282MOL0     C37107   9.997   4.818   6.985  0.6558  0.6850 -0.2532
  282MOL0     C37108  10.146   4.798   6.928 -0.8381 -0.7462  0.4392
  282MOL0     N37109  10.234   4.920   6.965  0.2183 -0.5223 -0.5337
  282MOL0     C37110  10.305   4.915   7.080 -0.5670 -0.5397  0.5167
  282MOL0     C37111  10.357   5.048   7.082 -0.2947  0.1779 -0.1658
  282MOL0     C37112  10.448   5.104   7.184  0.1006 -0.1653  0.0460
  282MOL0     C37113  10.599   5.108   7.149 -0.0639 -0.3209 -0.5782
  282MOL0     C37114  10.667   5.162   7.274  0.0278 -0.1123 -0.3597
  282MOL0     C37115  10.817   5.172   7.251 -0.1495  1.1311 -0.8370
  282MOL0     O37116  10.864   5.035   7.260  0.1659  0.1300  0.4233
  282MOL0     C37117  11.000   5.003   7.272 -0.1933  0.2661 -0.8361
  282MOL0     C37118  11.049   4.869   7.249  0.8839  1.7289 -0.0501
  282MOL0     C37119  11.176   4.829   7.266 -0.1240  0.2511  0.3998
  282MOL0     C37120  11.273   4.925   7.300 -0.4264  1.0969  0.5353
  282MOL0     C37121  11.413   4.881   7.314  0.0821  0.3869 -0.9481
  282MOL0     O37122  11.441   4.754   7.277 -0.6826  0.1438 -0.1930
  282MOL0     C37123  11.580   4.718   7.289  0.4932 -0.3241  0.3287
  282MOL0     C37124  11.640   4.700   7.414  0.8822 -0.5613  0.7379
  282MOL0     C37125  11.774   4.677   7.411  0.0993 -0.1746 -0.0934
  282MOL0     C37126  11.855   4.677   7.295  1.1535 -0.1740  0.3544
  282MOL0     O37127  11.991   4.665   7.325  0.5216 -0.1413 -0.3668
  282MOL0     C37128  12.091   4.661   7.227  0.2756  0.1247  1.0791
  282MOL0     C37129  12.094   4.525   7.159  0.5692 -0.3310 -0.1225
  282MOL0     C37130  12.209   4.521   7.056 -0.1047  0.1953 -0.1956
  282MOL0     C37131  12.237   4.386   6.995 -0.6647  0.3501 -0.5283
  282MOL0     C37132  12.138   4.360   6.878  0.3010  0.0034  0.0286
  282MOL0     C37133  12.150   4.209   6.821 -0.1256 -0.5685 -0.5184
  282MOL0     C37134  12.298   4.174   6.782  0.1225 -0.0660 -0.5614
  282MOL0     C37135  12.302   4.026   6.755  0.3072 -0.9192 -0.0747
  282MOL0    Cl37136  12.208   3.981   6.620  0.0767 -0.2523  0.2444
  282MOL0     C37137  11.787   4.694   7.169 -0.8014 -0.2910 -0.4983
  282MOL0     C37138  11.650   4.712   7.167  0.4257 -0.1881 -0.1111
  282MOL0     O37139  11.493   4.959   7.363  1.1429  0.0404 -0.5637
  282MOL0     C37140  11.235   5.054   7.323  0.2552 -0.4460  0.5420
  282MOL0     C37141  11.102   5.091   7.305  0.6441  0.7732 -0.1533
  282MOL0     N37142  10.302   5.113   6.975  0.1095 -0.2767 -0.0650
  282MOL0     N37143  10.229   5.038   6.907 -0.0644 -0.0946  0.9179
  282MOL0     C37144   9.376   4.100   6.838 -0.0661  0.1694 -0.3726
  282MOL0     C37145   9.352   3.971   6.790  0.1019  1.2290 -0.0578
  282MOL0     C37146   9.448   3.587   6.513 -0.7336 -0.3072  0.1215
  282MOL0     C37147   9.531   3.511   6.433 -0.2266 -0.6931  0.8173
  282MOL0     C37148   9.490   3.392   6.376 -0.6752  0.4883  0.1007
  282MOL0     C37149   9.355   3.347   6.402  0.0208 -0.1883  0.2544
  282MOL0     O37150   9.310   3.233   6.347 -1.0502 -0.7324 -0.1584
  282MOL0     C37151   9.385   3.105   6.376  0.0254 -0.5489 -0.9429
  282MOL0     C37152   9.352   2.987   6.278 -0.6755  0.4851  0.0607
  282MOL0     C37153   9.350   3.044   6.136  0.1589 -1.6641  0.6279
  282MOL0     C37154   9.299   2.953   6.031 -0.2877 -0.3837 -0.2347
  282MOL0     C37155   9.333   3.011   5.910 -0.2880 -0.8816  0.8997
  282MOL0     C37156   9.370   3.079   5.813  0.6053  0.0933 -1.1696
  282MOL0     C37157   9.272   3.416   6.488  0.3417 -0.5524 -0.0852
  282MOL0     C37158   9.318   3.532   6.540 -0.8996 -0.2459  0.1369
  282MOL0     H37159   9.558   3.970   6.521 -0.3420  1.1009 -0.8567
  282MOL0     H37160   9.584   4.225   6.603  2.9472  1.2619  5.4457
  282MOL0     H37161   9.389   4.482   6.793  2.7402  2.7468  1.1888
  282MOL0     H37162   9.412   4.409   6.629  1.2387  1.7975 -2.6207
  282MOL0     H37163   9.569   4.555   6.597 -1.8915  1.2182  0.2354
  282MOL0     H37164   9.676   4.450   6.692  0.3238  0.7605 -0.0201
  282MOL0     H37165   9.540   4.670   6.848 -1.4847 -0.9580 -0.5445
  282MOL0     H37166   9.678   4.706   6.752 -3.6670  1.8412  0.5563
  282MOL0     H37167   9.667   4.497   6.981  0.3155 -1.2691 -1.8213
  282MOL0     H37168   9.788   4.480   6.870  0.1312 -0.9873  0.9786
  282MOL0     H37169   9.852   4.619   7.083 -1.0338  0.4992  1.3794
  282MOL0     H37170   9.732   4.739   7.026 -0.3775  1.5981 -2.8912
  282MOL0     H37171   9.895   4.743   6.815  2.7892  0.5954 -0.7934
  282MOL0     H37172   9.977   4.618   6.923 -1.0440  0.0592 -0.6330
  282MOL0     H37173   9.951   4.914   6.962  2.4015  1.6388  0.0833
  282MOL0     H37174   9.992   4.803   7.093 -1.1040  1.9670 -0.1177
  282MOL0     H37175  10.139   4.787   6.820 -0.0143  0.9193  0.1887
  282MOL0     H37176  10.198   4.715   6.977 -0.7224 -0.0134  1.6148
  282MOL0     H37177  10.332   4.838   7.151  1.1908  0.5547  1.1042
  282MOL0     H37178  10.431   5.047   7.276  1.0873 -0.1672  0.2321
  282MOL0     H37179  10.405   5.203   7.201 -0.8031 -0.5770  0.1900
  282MOL0     H37180  10.611   5.173   7.062 -1.0799 -0.7523 -1.0623
  282MOL0     H37181  10.637   5.008   7.126  0.9248 -0.7055  2.2935
  282MOL0     H37182  10.636   5.266   7.291 -1.0050 -0.4810  0.0327
  282MOL0     H37183  10.649   5.095   7.358 -1.2197  0.2896 -0.2811
  282MOL0     H37184  10.852   5.235   7.334 -2.9369  2.2820 -0.4403
  282MOL0     H37185  10.850   5.214   7.156  1.6538  0.7928 -0.4004
  282MOL0     H37186  10.974   4.791   7.239  2.3297 -0.3913  3.5428
  282MOL0     H37187  11.207   4.729   7.237 -1.5112  0.7411 -3.3216
  282MOL0     H37188  11.584   4.723   7.504  0.5410  1.6493  0.0248
  282MOL0     H37189  11.832   4.671   7.503  0.5660  0.8849 -0.3034
  282MOL0     H37190  12.187   4.683   7.276  0.4706  2.3149 -0.1583
  282MOL0     H37191  12.073   4.736   7.150  0.8695  0.3226  1.1327
  282MOL0     H37192  11.994   4.510   7.116  0.7986  1.2393 -1.2960
  282MOL0     H37193  12.111   4.447   7.234  0.6326 -2.1623 -1.9437
  282MOL0     H37194  12.301   4.550   7.107  2.5819 -2.3848 -3.2080
  282MOL0     H37195  12.182   4.591   6.976 -0.6812  3.1282  2.3479
  282MOL0     H37196  12.342   4.378   6.964  0.7688 -3.0423  4.1002
  282MOL0     H37197  12.230   4.307   7.070 -2.3587 -1.1615 -2.1710
  282MOL0     H37198  12.171   4.429   6.800  1.7079  0.9537  1.3995
  282MOL0     H37199  12.034   4.382   6.905 -0.0177 -2.4917  1.0604
  282MOL0     H37200  12.084   4.195   6.736 -2.3920  0.2425  1.0137
  282MOL0     H37201  12.134   4.143   6.906  1.1274  2.3461  2.2081
  282MOL0     H37202  12.324   4.222   6.688  3.6875  1.6370  1.1181
  282MOL0     H37203  12.360   4.206   6.866 -2.6813  2.3367  0.7777
  282MOL0     H37204  12.263   3.981   6.847 -1.4830  1.1906  0.2865
  282MOL0     H37205  12.403   3.988   6.739  2.0018  2.2253  2.1435
  282MOL0     H37206  11.846   4.693   7.078  0.9728 -0.1156  0.5944
  282MOL0     H37207  11.590   4.727   7.078 -1.9561 -1.5913  1.1545
  282MOL0     H37208  11.295   5.138   7.357 -2.9614  2.5790 -0.6099
  282MOL0     H37209  11.059   5.186   7.334 -1.0304 -0.9560  3.7866
  282MOL0     H37210   9.338   4.141   6.931  2.7220  3.5594 -0.5007
  282MOL0     H37211   9.286   3.904   6.845 -1.9116  3.7426  0.7835
  282MOL0     H37212   9.625   3.539   6.387 -2.7856  1.6017 -3.8641
  282MOL0     H37213   9.561   3.337   6.316 -2.1914 -0.6303 -0.7613
  282MOL0     H37214   9.378   3.074   6.480  2.9247  0.1661 -0.4687
  282MOL0     H37215   9.492   3.127   6.365  0.2399 -1.2473 -0.2997
  282MOL0     H37216   9.427   2.907   6.288  0.0015  1.0261 -0.5881
  282MOL0     H37217   9.252   2.951   6.302 -2.2653  2.7991 -2.5463
  282MOL0     H37218   9.449   3.082   6.111  0.5187 -1.3378  2.4065
  282MOL0     H37219   9.271   3.118   6.123 -1.2989 -3.3882 -0.9985
  282MOL0     H37220   9.362   2.864   6.038  0.4713  0.2594  1.4337
  282MOL0     H37221   9.200   2.905   6.036  0.4098 -1.8201  0.1470
  282MOL0     H37222   9.402   3.142   5.732 -0.0215  2.0564  0.0547
  282MOL0     H37223   9.172   3.383   6.513 -0.1219 -0.3500 -1.6235
  282MOL0     H37224   9.263   3.596   6.607  0.1408  1.3567 -0.4694
  283MOL0     O37225   0.032   5.332   2.962 -0.7154  0.1477 -0.1323
  283MOL0     C37226   0.038   5.374   2.848  0.1091  0.0771 -0.6991
  283MOL0     O37227  -0.015   5.495   2.801  0.0307  0.2084  0.4194
  283MOL0     C37228  -0.085   5.589   2.867  1.0010 -0.3655  0.0091
  283MOL0     C37229  -0.068   5.608   3.007 -0.1059 -0.6604  1.0123
  283MOL0     C37230  -0.137   5.708   3.071 -1.0733 -0.5409 -0.0798
  283MOL0     C37231  -0.228   5.787   2.996 -0.0804  0.2911 -0.2620
  283MOL0     O37232  -0.302   5.890   3.037  0.3841 -0.7316 -0.9502
  283MOL0     C37233  -0.259   5.979   3.150 -0.2040  0.0116 -0.2376
  283MOL0     C37234  -0.339   6.105   3.126 -0.8157 -0.6001  0.6593
  283MOL0     C37235  -0.304   6.204   3.243 -0.0196  0.5689 -0.3536
  283MOL0     C37236  -0.393   6.321   3.207 -0.0266  0.6278 -0.0632
  283MOL0     C37237  -0.355   6.450   3.280 -0.5482  0.7597 -0.2763
  283MOL0     C37238  -0.459   6.573   3.251 -0.4707  0.2923 -0.4472
  283MOL0     C37239  -0.506   6.647   3.377 -0.1454  0.2579  0.4225
  283MOL0     C37240  -0.583   6.571   3.494 -0.9275  0.0276 -0.6815
  283MOL0     N37241  -0.626   6.666   3.598 -0.1906  0.0914  0.2180
  283MOL0     C37242  -0.549   6.716   3.701 -0.5841 -0.2329  0.5994
  283MOL0     C37243  -0.611   6.828   3.739 -1.3038 -0.6143  0.3753
  283MOL0     C37244  -0.564   6.921   3.843 -0.0290 -0.2911  0.5795
  283MOL0     C37245  -0.477   7.027   3.785  0.3381  0.0338  1.2842
  283MOL0     C37246  -0.325   6.980   3.779  0.6355  0.9743 -0.2234
  283MOL0     C37247  -0.233   7.089   3.749  0.4518  0.3257  0.6095
  283MOL0     O37248  -0.207   7.154   3.869  0.1858 -0.3084 -0.6062
  283MOL0     C37249  -0.229   7.286   3.849 -0.2881  0.2273  0.0371
  283MOL0     C37250  -0.153   7.367   3.761  0.1910  0.4968 -0.3150
  283MOL0     C37251  -0.167   7.504   3.756 -0.1890  0.5041  0.5548
  283MOL0     C37252  -0.264   7.577   3.819 -0.0676  0.8856  0.6610
  283MOL0     C37253  -0.276   7.719   3.792  0.3271 -0.1770 -1.2323
  283MOL0     O37254  -0.185   7.762   3.701 -0.0598  0.4039 -1.0513
  283MOL0     C37255  -0.194   7.881   3.644 -0.8737  0.1067  0.7633
  283MOL0     C37256  -0.076   7.961   3.639 -0.5965 -0.4911 -0.1965
  283MOL0     C37257  -0.079   8.088   3.577  0.5290  0.3548 -0.7921
  283MOL0     C37258  -0.199   8.146   3.533  0.2405 -0.4128 -0.3197
  283MOL0     O37259  -0.200   8.265   3.467 -0.4240  1.0494 -0.2354
  283MOL0     C37260  -0.108   8.366   3.507 -0.2555 -0.7534  0.5056
  283MOL0     C37261  -0.166   8.509   3.469 -0.8626  0.9702 -0.9715
  283MOL0     C37262  -0.056   8.620   3.444  0.6440  0.7199 -0.4835
  283MOL0     C37263   0.041   8.623   3.566  0.6619 -0.1333 -0.4507
  283MOL0     C37264   0.158   8.709   3.555  0.2142 -0.2199  0.5476
  283MOL0     C37265   0.267   8.684   3.666 -0.7258 -1.0215  0.0757
  283MOL0     C37266   0.369   8.810   3.659 -0.3959 -1.4235 -0.5382
  283MOL0     C37267   0.449   8.835   3.792  1.2050  0.3242 -0.5885
  283MOL0    Cl37268   0.492   8.684   3.868  0.1610  0.4149 -0.0793
  283MOL0     C37269  -0.319   8.065   3.538  0.0371 -0.9091  0.9467
  283MOL0     C37270  -0.315   7.938   3.592  0.3094 -0.5140  0.1308
  283MOL0     O37271  -0.370   7.784   3.842  0.3772  0.4154 -0.2583
  283MOL0     C37272  -0.328   7.502   3.922 -0.6241  0.0855 -0.0710
  283MOL0     C37273  -0.322   7.356   3.927 -0.3865  0.7858 -1.0391
  283MOL0     N37274  -0.738   6.832   3.670 -0.5594  0.0047  0.4491
  283MOL0     N37275  -0.741   6.736   3.586 -0.0749  0.1452  0.2499
  283MOL0     C37276  -0.248   5.766   2.859  0.2464  0.8730 -1.4127
  283MOL0     C37277  -0.172   5.675   2.795 -0.0417  0.5766  0.5850
  283MOL0     C37278   0.104   5.281   2.759 -0.1466  0.0089 -1.2634
  283MOL0     C37279   0.086   5.290   2.623  0.6291  0.4613 -0.8604
  283MOL0     C37280   0.166   5.212   2.543  1.0356  0.3197 -0.0982
  283MOL0     C37281   0.259   5.113   2.592 -0.0099 -0.0035 -0.0631
  283MOL0     O37282   0.347   5.034   2.514  0.2861  0.6900 -0.0844
  283MOL0     C37283   0.312   4.979   2.384  0.6563  0.8222 -0.3805
  283MOL0     C37284   0.182   4.897   2.391 -0.3111  0.0494 -0.1302
  283MOL0     C37285   0.193   4.771   2.482  1.0045 -0.9891 -0.7352
  283MOL0     C37286   0.266   4.656   2.427 -0.2115 -0.0314  0.2961
  283MOL0     C37287   0.330   4.558   2.519 -0.9564  0.2480 -0.7322
  283MOL0     C37288   0.369   4.486   2.605 -0.1976  1.1025 -0.1533
  283MOL0     C37289   0.275   5.115   2.726 -0.1004  0.0407 -0.1313
  283MOL0     C37290   0.194   5.190   2.808 -1.3114  0.1366  1.6188
  283MOL0     H37291   0.006   5.551   3.062  0.1227 -1.8074 -0.4001
  283MOL0     H37292  -0.109   5.732   3.173  1.0237  0.5356 -0.8618
  283MOL0     H37293  -0.152   6.002   3.154 -0.3706  0.8751 -0.4461
  283MOL0     H37294  -0.288   5.935   3.245 -0.8186 -1.3229 -1.0135
  283MOL0     H37295  -0.446   6.081   3.120 -0.6128 -1.2904 -0.6928
  283MOL0     H37296  -0.304   6.148   3.032 -2.4562 -0.7130 -0.0442
  283MOL0     H37297  -0.197   6.216   3.223 -0.4134 -0.4865 -3.6656
  283MOL0     H37298  -0.326   6.177   3.347 -3.0194  0.8900 -0.8148
  283MOL0     H37299  -0.375   6.334   3.099 -2.8309 -2.8659 -1.1501
  283MOL0     H37300  -0.498   6.296   3.226  0.5689 -0.1172  2.6128
  283MOL0     H37301  -0.249   6.467   3.256  0.2974 -2.2686  0.8176
  283MOL0     H37302  -0.348   6.407   3.380 -0.1887 -0.4477 -0.7953
  283MOL0     H37303  -0.550   6.551   3.194 -1.9131  1.6009  1.2187
  283MOL0     H37304  -0.399   6.643   3.192  4.5195 -2.4915  0.7317
  283MOL0     H37305  -0.417   6.695   3.419  0.8758  0.5697 -1.9196
  283MOL0     H37306  -0.572   6.725   3.340  1.6820  1.6612 -0.0605
  283MOL0     H37307  -0.526   6.489   3.537  0.1169  1.4205  0.6942
  283MOL0     H37308  -0.674   6.530   3.449 -1.0533  1.7686 -2.1400
  283MOL0     H37309  -0.460   6.668   3.739 -0.4433  0.7954  1.6245
  283MOL0     H37310  -0.513   6.870   3.926  2.2195  0.4650 -0.2495
  283MOL0     H37311  -0.644   6.968   3.901  0.4131  0.1901  0.8067
  283MOL0     H37312  -0.496   7.116   3.846 -2.7709 -0.3047  0.9978
  283MOL0     H37313  -0.503   7.055   3.683  1.3020  0.6236  1.1946
  283MOL0     H37314  -0.300   6.919   3.867 -0.5987 -0.7841 -1.0402
  283MOL0     H37315  -0.320   6.903   3.701  3.4576 -2.5776  3.0449
  283MOL0     H37316  -0.297   7.151   3.685 -1.7879 -2.7180 -0.3472
  283MOL0     H37317  -0.148   7.059   3.687 -2.2416  1.6521 -4.3611
  283MOL0     H37318  -0.069   7.321   3.711 -0.6764  0.5272 -1.8524
  283MOL0     H37319  -0.094   7.561   3.698 -1.4254  1.0835 -0.4652
  283MOL0     H37320   0.011   7.925   3.692 -1.0369 -0.6850  0.4106
  283MOL0     H37321   0.015   8.139   3.591  0.1038  0.3736  3.2409
  283MOL0     H37322  -0.013   8.358   3.454  0.3583 -2.7289  1.8013
  283MOL0     H37323  -0.074   8.360   3.611 -1.4830 -0.9931  0.9171
  283MOL0     H37324  -0.243   8.532   3.544 -0.3172  3.8034 -1.1769
  283MOL0     H37325  -0.223   8.504   3.376 -0.8511  1.1828 -0.9883
  283MOL0     H37326  -0.116   8.710   3.430 -5.0144 -2.5812 -0.3659
  283MOL0     H37327   0.001   8.607   3.351  0.6865 -2.8292 -0.0994
  283MOL0     H37328  -0.012   8.654   3.656  0.7265 -3.5250  0.8886
  283MOL0     H37329   0.082   8.526   3.596  1.1993  0.1452 -0.2621
  283MOL0     H37330   0.128   8.814   3.564 -1.1064 -0.4918 -0.3953
  283MOL0     H37331   0.201   8.693   3.456 -0.1982  0.7362  0.2058
  283MOL0     H37332   0.330   8.600   3.634  1.9249  1.0247 -0.4197
  283MOL0     H37333   0.227   8.669   3.766  0.4958 -0.9461  0.5952
  283MOL0     H37334   0.441   8.799   3.578  2.5053  1.9576  1.2798
  283MOL0     H37335   0.311   8.903   3.651  2.4105  0.8082  2.2599
  283MOL0     H37336   0.378   8.883   3.861  0.0370 -1.6749 -0.3236
  283MOL0     H37337   0.531   8.905   3.774 -1.0373  2.8775 -1.6071
  283MOL0     H37338  -0.394   8.115   3.477  0.9729 -0.9759 -0.2979
  283MOL0     H37339  -0.406   7.880   3.585 -0.4985  0.6816  0.4159
  283MOL0     H37340  -0.405   7.544   3.986 -0.5549 -0.2974  0.2704
  283MOL0     H37341  -0.372   7.301   4.005  1.3802  2.6364  1.5948
  283MOL0     H37342  -0.310   5.824   2.792 -0.7364 -1.9858 -3.1438
  283MOL0     H37343  -0.181   5.665   2.687  1.5138 -3.2884  0.6750
  283MOL0     H37344   0.024   5.367   2.577 -1.7139 -0.8445 -0.0936
  283MOL0     H37345   0.158   5.237   2.437 -4.1328 -0.6773 -0.2210
  283MOL0     H37346   0.393   4.918   2.345  0.1298  0.6260 -1.1729
  283MOL0     H37347   0.304   5.060   2.311 -0.0005  1.1818  0.0750
  283MOL0     H37348   0.099   4.957   2.431 -1.9912 -2.1270 -0.2199
  283MOL0     H37349   0.164   4.873   2.286 -0.4617  1.5766 -0.4885
  283MOL0     H37350   0.089   4.737   2.487  1.0811 -1.0113  1.5998
  283MOL0     H37351   0.212   4.799   2.586  0.2363  0.4148 -0.9501
  283MOL0     H37352   0.197   4.599   2.365  1.6153 -0.8911 -1.0244
  283MOL0     H37353   0.350   4.689   2.366  0.5595  0.6275  1.6523
  283MOL0     H37354   0.392   4.422   2.687 -0.7320  1.0254 -0.0626
  283MOL0     H37355   0.354   5.055   2.770 -0.1630  0.2767  0.3166
  283MOL0     H37356   0.234   5.195   2.909  0.4667 -1.3967  1.0410
  284MOL0     O37357  11.232   3.466   7.797 -0.2910  0.8810 -0.3898
  284MOL0     C37358  11.347   3.495   7.755  0.1590 -0.2380 -0.2204
  284MOL0     O37359  11.370   3.590   7.661  0.6695 -0.6246 -0.2241
  284MOL0     C37360  11.247   3.638   7.595 -0.3683 -1.1088 -0.5368
  284MOL0     C37361  11.156   3.556   7.519 -1.2642 -0.3223  0.2799
  284MOL0     C37362  11.052   3.633   7.455 -0.7567 -0.7668  0.4731
  284MOL0     C37363  11.033   3.774   7.469 -0.7153  0.0183 -0.2737
  284MOL0     O37364  10.931   3.832   7.393  0.8498 -0.3140 -0.1554
  284MOL0     C37365  10.907   3.976   7.399 -0.9596 -0.2592 -0.4829
  284MOL0     C37366  10.796   4.018   7.311  1.0312 -0.3281 -0.2778
  284MOL0     C37367  10.780   4.167   7.293  0.0583  0.5223 -0.3228
  284MOL0     C37368  10.680   4.213   7.178 -0.5009  0.1476 -0.9288
  284MOL0     C37369  10.667   4.355   7.186 -0.6484  0.8334  0.8428
  284MOL0     C37370  10.574   4.406   7.088 -0.7172  0.0565 -0.7045
  284MOL0     C37371  10.427   4.370   7.113 -0.3718 -0.7942  0.1345
  284MOL0     C37372  10.335   4.409   6.996 -0.6688  0.1874  0.0227
  284MOL0     N37373  10.198   4.396   7.050  0.7256  0.3494 -0.9851
  284MOL0     C37374  10.096   4.316   7.005  0.1570  0.4692 -0.5747
  284MOL0     C37375   9.992   4.331   7.089  0.1442 -0.6212 -0.8184
  284MOL0     C37376   9.874   4.243   7.087  0.8908 -0.5231 -0.5776
  284MOL0     C37377   9.772   4.257   7.207  0.5237  0.0656  0.8416
  284MOL0     C37378   9.843   4.250   7.345  0.5549 -0.0329 -0.8269
  284MOL0     C37379   9.752   4.186   7.462 -0.7292  0.0633  1.0082
  284MOL0     O37380   9.761   4.038   7.445 -0.3555 -0.4119 -0.2070
  284MOL0     C37381   9.721   3.980   7.558 -0.1060  0.2821 -0.4286
  284MOL0     C37382   9.807   3.893   7.620 -0.3145  0.2692 -0.9117
  284MOL0     C37383   9.767   3.849   7.754  0.1593 -0.4077  0.2238
  284MOL0     C37384   9.643   3.877   7.805  0.8810  0.8084  1.0743
  284MOL0     C37385   9.593   3.814   7.936 -0.1336 -0.8715  0.1376
  284MOL0     O37386   9.460   3.801   7.958  0.1751  0.0317  0.2773
  284MOL0     C37387   9.420   3.767   8.080 -0.4889  0.9021  0.6876
  284MOL0     C37388   9.452   3.637   8.126  0.3273  0.3639  0.3270
  284MOL0     C37389   9.413   3.599   8.256 -0.4144 -0.1122  0.5826
  284MOL0     C37390   9.331   3.677   8.338 -0.1170  0.3124 -0.6411
  284MOL0     O37391   9.315   3.622   8.458 -0.0125 -0.3313  0.1757
  284MOL0     C37392   9.291   3.700   8.569  0.3179 -0.1109 -1.4347
  284MOL0     C37393   9.261   3.617   8.695 -0.0216 -0.2197 -0.1130
  284MOL0     C37394   9.131   3.539   8.663 -0.4191  0.4707 -0.3984
  284MOL0     C37395   9.077   3.481   8.795  0.1056  0.4490  0.3802
  284MOL0     C37396   8.959   3.376   8.772 -0.0143 -0.4513 -0.3382
  284MOL0     C37397   8.901   3.349   8.906 -0.1278 -0.0563  0.7746
  284MOL0     C37398   8.984   3.291   9.022 -0.5250  0.5282  0.7730
  284MOL0     C37399   9.063   3.165   8.996 -0.1709  1.3948 -0.1816
  284MOL0    Cl37400   8.951   3.040   8.934 -0.4823  0.1626 -0.0154
  284MOL0     C37401   9.294   3.799   8.293  0.7050  0.5152 -0.1535
  284MOL0     C37402   9.340   3.839   8.169  0.3761  0.2614  0.8493
  284MOL0     O37403   9.683   3.791   8.013  0.4206  0.5834  0.7637
  284MOL0     C37404   9.555   3.954   7.728 -0.0122  0.9871  0.3807
  284MOL0     C37405   9.595   4.006   7.605 -0.3535  0.1176  0.8968
  284MOL0     N37406  10.034   4.433   7.179  0.0664 -0.8117  0.2868
  284MOL0     N37407  10.147   4.475   7.149  0.6415 -1.1982  0.0604
  284MOL0     C37408  11.116   3.840   7.557 -0.4363 -0.1395 -0.0506
  284MOL0     C37409  11.220   3.777   7.610  0.5633 -0.2008 -0.3053
  284MOL0     C37410  11.469   3.423   7.807  0.3211  0.3892 -0.3226
  284MOL0     C37411  11.447   3.354   7.929 -0.2751  0.6533  0.3768
  284MOL0     C37412  11.556   3.274   7.968  0.8763 -0.9597 -0.5874
  284MOL0     C37413  11.680   3.269   7.908 -0.6396  0.0345 -0.9212
  284MOL0     O37414  11.804   3.218   7.949 -0.0464  0.3282 -0.3150
  284MOL0     C37415  11.812   3.113   8.051  0.3459 -0.4354  0.7558
  284MOL0     C37416  11.741   2.981   8.018 -0.4142  1.3361 -0.0649
  284MOL0     C37417  11.791   2.927   7.889  0.5653  0.3776 -0.4860
  284MOL0     C37418  11.784   2.782   7.879  0.4969  0.7721 -0.4915
  284MOL0     C37419  11.876   2.707   7.970 -0.0993  0.8678  0.3977
  284MOL0     C37420  11.946   2.636   8.037 -0.6816 -0.1477 -0.6160
  284MOL0     C37421  11.692   3.333   7.790 -0.5579 -0.2640  0.6687
  284MOL0     C37422  11.594   3.426   7.747  1.2308  0.1609 -0.3788
  284MOL0     H37423  11.178   3.451   7.502  1.6311 -0.3204  3.1237
  284MOL0     H37424  11.002   3.578   7.376 -0.9254 -2.4966  1.7439
  284MOL0     H37425  10.993   4.035   7.367 -1.7135  0.7305 -0.7353
  284MOL0     H37426  10.887   3.994   7.505 -0.0332 -1.5554 -0.0690
  284MOL0     H37427  10.698   3.979   7.341 -0.1534  1.4049 -1.6965
  284MOL0     H37428  10.813   3.973   7.213 -3.0294 -1.4123 -0.6562
  284MOL0     H37429  10.881   4.204   7.273  1.0885  0.3236  3.7081
  284MOL0     H37430  10.756   4.204   7.393 -1.7786  0.1154 -0.5689
  284MOL0     H37431  10.717   4.180   7.081 -1.0964 -0.7231 -0.8703
  284MOL0     H37432  10.586   4.162   7.199 -0.7228  1.9039  3.5141
  284MOL0     H37433  10.764   4.402   7.166 -0.4756 -0.8112 -3.4154
  284MOL0     H37434  10.635   4.397   7.281 -4.9688  2.4700 -1.0565
  284MOL0     H37435  10.599   4.387   6.984 -1.3263  0.4820 -0.9332
  284MOL0     H37436  10.569   4.514   7.103 -4.6823 -0.3894  3.7491
  284MOL0     H37437  10.411   4.262   7.114 -0.0212 -0.8444  0.8970
  284MOL0     H37438  10.405   4.423   7.206  3.6158 -0.1556  0.8695
  284MOL0     H37439  10.349   4.333   6.918  1.6748 -0.2596  0.7901
  284MOL0     H37440  10.362   4.509   6.961 -1.7541  0.6037  0.3366
  284MOL0     H37441  10.090   4.228   6.941 -0.4075  0.2709 -0.2580
  284MOL0     H37442   9.901   4.137   7.087  1.6739 -0.3426 -1.7033
  284MOL0     H37443   9.818   4.264   6.995 -1.8263  0.8424  1.2680
  284MOL0     H37444   9.695   4.181   7.197  1.0366 -0.2777 -0.8762
  284MOL0     H37445   9.725   4.356   7.211 -0.6115 -0.3802 -0.5183
  284MOL0     H37446   9.943   4.204   7.349  1.1290  1.2808  2.1508
  284MOL0     H37447   9.886   4.348   7.368 -0.3853 -0.1321  1.6819
  284MOL0     H37448   9.651   4.224   7.445 -0.3201  0.8613  0.2170
  284MOL0     H37449   9.780   4.229   7.559 -3.9567  1.0263  1.6416
  284MOL0     H37450   9.896   3.868   7.564  2.4334 -0.2357  3.2395
  284MOL0     H37451   9.832   3.774   7.798  0.3168 -0.8786 -0.7780
  284MOL0     H37452   9.514   3.567   8.071  1.9297  0.5030  1.9006
  284MOL0     H37453   9.433   3.495   8.282 -2.1067 -0.2509  1.4976
  284MOL0     H37454   9.204   3.766   8.562  1.3310  1.7128  1.4167
  284MOL0     H37455   9.383   3.757   8.586 -1.4869  2.2791  1.1222
  284MOL0     H37456   9.241   3.681   8.782 -1.9077 -2.6062  1.3221
  284MOL0     H37457   9.349   3.558   8.721  0.3358 -0.1229 -1.0984
  284MOL0     H37458   9.158   3.472   8.581 -1.0598 -0.1694 -0.0958
  284MOL0     H37459   9.058   3.601   8.610 -0.4775 -0.1825 -1.0956
  284MOL0     H37460   9.155   3.424   8.846 -1.3200 -0.3683  1.7481
  284MOL0     H37461   9.045   3.564   8.859  0.2881 -1.0924  2.5899
  284MOL0     H37462   8.977   3.281   8.721 -3.8901 -0.8792 -1.2782
  284MOL0     H37463   8.885   3.424   8.707  0.9760  2.7018  0.6713
  284MOL0     H37464   8.812   3.288   8.893 -0.9470  1.0615  1.0105
  284MOL0     H37465   8.862   3.448   8.932  1.3862  0.6818  0.3962
  284MOL0     H37466   9.045   3.374   9.060 -1.0174  0.7953  0.9918
  284MOL0     H37467   8.913   3.262   9.099 -1.4632 -1.8947 -0.8913
  284MOL0     H37468   9.118   3.144   9.087  3.8318 -0.4419 -2.7490
  284MOL0     H37469   9.137   3.187   8.918 -0.0702 -0.8022 -0.7685
  284MOL0     H37470   9.221   3.858   8.347 -2.6256 -3.1318 -0.2294
  284MOL0     H37471   9.307   3.929   8.117 -1.4298 -2.3717 -3.0525
  284MOL0     H37472   9.457   3.984   7.763  0.1625 -0.9677  2.7402
  284MOL0     H37473   9.527   4.055   7.536  1.0876 -0.6436 -1.1540
  284MOL0     H37474  11.093   3.945   7.568 -4.9378 -0.9196  0.0578
  284MOL0     H37475  11.296   3.838   7.657  2.0370 -0.4225 -2.2811
  284MOL0     H37476  11.348   3.351   7.972  0.2643  2.1412  1.7815
  284MOL0     H37477  11.538   3.233   8.067  1.0919  0.0935 -0.1040
  284MOL0     H37478  11.764   3.154   8.140  2.2737 -0.3368  1.8008
  284MOL0     H37479  11.915   3.085   8.075 -0.3472 -2.4393  1.5773
  284MOL0     H37480  11.757   2.908   8.099  0.9761  1.0701 -0.5373
  284MOL0     H37481  11.635   3.002   8.003 -0.5906  0.6633  0.1864
  284MOL0     H37482  11.898   2.945   7.878  0.6280  0.5540  0.3290
  284MOL0     H37483  11.731   2.964   7.805  0.2152 -2.3733 -1.5586
  284MOL0     H37484  11.686   2.737   7.895  1.8719 -1.7754  1.6742
  284MOL0     H37485  11.807   2.740   7.780  1.5554 -2.1837  0.8827
  284MOL0     H37486  12.000   2.586   8.114  2.2245  1.3688 -1.5080
  284MOL0     H37487  11.788   3.319   7.742 -0.2588 -2.1718  1.7525
  284MOL0     H37488  11.602   3.474   7.650  0.7279  1.6461  0.2848
  285MOL0     O37489  10.301   6.588   8.919  0.5444  0.1824  0.1837
  285MOL0     C37490  10.393   6.512   8.929  0.1744 -0.5700  0.4129
  285MOL0     O37491  10.516   6.546   8.972 -0.0731 -0.6498 -0.0470
  285MOL0     C37492  10.539   6.671   9.039 -0.7825  0.7846  0.4393
  285MOL0     C37493  10.672   6.716   9.040  0.5428  0.9654  0.0076
  285MOL0     C37494  10.713   6.831   9.102  0.5594 -0.5521  0.2187
  285MOL0     C37495  10.620   6.916   9.166 -0.6304  0.1596 -0.0407
  285MOL0     O37496  10.662   7.021   9.243 -0.1715  0.5099 -0.0214
  285MOL0     C37497  10.762   7.100   9.186 -0.7750  0.0007  0.5213
  285MOL0     C37498  10.777   7.220   9.284 -0.6738  0.4044  0.6428
  285MOL0     C37499  10.815   7.350   9.201  0.3294  0.1337  0.1406
  285MOL0     C37500  10.887   7.440   9.310 -0.6840  0.7145  0.1607
  285MOL0     C37501  10.917   7.583   9.268 -0.1687  0.1670 -0.2945
  285MOL0     C37502  10.989   7.650   9.387  1.0050 -0.2619  0.4271
  285MOL0     C37503  11.048   7.777   9.337  0.8372 -0.5472  0.0795
  285MOL0     C37504  10.951   7.892   9.318  0.1709  0.6032  0.8446
  285MOL0     N37505  11.014   8.015   9.256 -0.2472  0.5053 -0.4425
  285MOL0     C37506  11.121   8.089   9.307  0.1867 -0.0033 -1.1583
  285MOL0     C37507  11.154   8.169   9.209  0.1341 -0.4008  0.5713
  285MOL0     C37508  11.289   8.238   9.215  0.5035  0.0429  0.4942
  285MOL0     C37509  11.281   8.394   9.221  0.0885  0.2287  0.1063
  285MOL0     C37510  11.276   8.442   9.359  0.2085  0.3625  0.1472
  285MOL0     C37511  11.273   8.596   9.370  0.1572 -0.0870  0.0710
  285MOL0     O37512  11.267   8.650   9.499 -0.2545  0.2117  0.6006
  285MOL0     C37513  11.153   8.656   9.577 -0.2357 -0.3652 -0.3846
  285MOL0     C37514  11.171   8.715   9.696  0.4759 -0.8789 -0.7936
  285MOL0     C37515  11.068   8.733   9.786 -0.8485  0.6765  0.0313
  285MOL0     C37516  10.940   8.698   9.746  0.2408 -0.6588 -0.1922
  285MOL0     C37517  10.826   8.724   9.831  0.9083 -1.0684  0.5877
  285MOL0     O37518  10.829   8.830   9.910  0.6854  0.2616 -0.3668
  285MOL0     C37519  10.722   8.841  10.003  0.6801  0.1381 -0.9128
  285MOL0     C37520  10.584   8.823   9.979 -0.4673 -0.2747 -1.0995
  285MOL0     C37521  10.494   8.817  10.078  0.5948  0.2422 -0.7265
  285MOL0     C37522  10.518   8.832  10.217 -0.4420  0.1585  0.0204
  285MOL0     O37523  10.434   8.843  10.320  0.0912  0.2879  0.0574
  285MOL0     C37524  10.295   8.793  10.298 -0.8829  0.2215 -0.5140
  285MOL0     C37525  10.210   8.902  10.233  0.2967  0.8021  0.1942
  285MOL0     C37526  10.063   8.852  10.222 -0.1839 -0.1909  0.2661
  285MOL0     C37527   9.986   8.885  10.354  0.8746  0.6855  0.7960
  285MOL0     C37528   9.834   8.853  10.316  0.4244 -0.8999 -1.1076
  285MOL0     C37529   9.792   8.707  10.311  0.2010 -0.1090  0.0138
  285MOL0     C37530   9.744   8.656  10.166  1.0962 -0.2012 -1.2540
  285MOL0     C37531   9.635   8.548  10.172  0.0326  0.1184  0.3239
  285MOL0    Cl37532   9.654   8.431  10.305  0.1977 -0.3020 -0.3045
  285MOL0     C37533  10.656   8.864  10.242 -0.0941  0.6115  0.0281
  285MOL0     C37534  10.762   8.860  10.137 -0.5299 -0.4347 -0.0505
  285MOL0     O37535  10.735   8.652   9.814 -0.5088 -0.3787  0.0399
  285MOL0     C37536  10.914   8.648   9.617 -0.6228  0.3596 -0.1588
  285MOL0     C37537  11.021   8.649   9.528  0.7347  0.4202 -0.3732
  285MOL0     N37538  11.053   8.171   9.114 -0.9246 -0.3795  0.2677
  285MOL0     N37539  10.970   8.077   9.145  0.1956  0.0982 -0.7126
  285MOL0     C37540  10.489   6.870   9.180 -0.1142 -0.3079  0.2625
  285MOL0     C37541  10.450   6.749   9.113 -0.4715 -0.5371  0.4417
  285MOL0     C37542  10.373   6.373   8.874  0.0561  0.4794 -0.7103
  285MOL0     C37543  10.258   6.333   8.808  0.7444 -0.6703  0.2260
  285MOL0     C37544  10.249   6.212   8.741  0.5606 -0.2931 -0.1856
  285MOL0     C37545  10.352   6.121   8.738 -0.5708  0.2606  0.5866
  285MOL0     O37546  10.347   6.003   8.660  1.3149  0.9278 -0.0269
  285MOL0     C37547  10.466   5.950   8.594  0.0527 -0.0914  0.4529
  285MOL0     C37548  10.408   5.855   8.480 -0.1205  0.2779  0.2781
  285MOL0     C37549  10.516   5.812   8.391 -0.0077 -0.4332 -0.5448
  285MOL0     C37550  10.479   5.719   8.272  0.3265  0.0693 -0.7395
  285MOL0     C37551  10.582   5.696   8.170  0.1249 -0.6251  0.2572
  285MOL0     C37552  10.664   5.667   8.089 -1.4766 -0.0238 -0.9990
  285MOL0     C37553  10.456   6.147   8.824  0.0714 -1.0107 -0.1629
  285MOL0     C37554  10.468   6.268   8.900 -0.2625  0.4616  0.5981
  285MOL0     H37555  10.744   6.650   8.992 -0.6297 -0.6098  0.3349
  285MOL0     H37556  10.817   6.862   9.110  0.7811 -0.4734 -2.2426
  285MOL0     H37557  10.725   7.134   9.089  0.8854  0.5653  0.0524
  285MOL0     H37558  10.858   7.051   9.167 -1.1465 -1.2982  1.8096
  285MOL0     H37559  10.862   7.219   9.351  0.5983  0.2896 -0.9178
  285MOL0     H37560  10.690   7.243   9.346 -0.9835  0.0243  0.3580
  285MOL0     H37561  10.720   7.401   9.180  0.4531  0.3108  0.0139
  285MOL0     H37562  10.875   7.326   9.113  2.1418  2.8786  0.5082
  285MOL0     H37563  10.817   7.443   9.395  0.3564 -1.2559  1.1650
  285MOL0     H37564  10.977   7.392   9.349 -0.7637 -0.3323 -0.8725
  285MOL0     H37565  10.832   7.639   9.227  0.8858  0.3960 -2.3144
  285MOL0     H37566  10.973   7.594   9.175 -2.2184  0.5676 -1.5538
  285MOL0     H37567  11.068   7.584   9.424  1.9153  0.6794  0.2358
  285MOL0     H37568  10.913   7.682   9.459  0.6531 -0.9876  0.3920
  285MOL0     H37569  11.112   7.802   9.421  2.3729  1.6176 -1.6067
  285MOL0     H37570  11.106   7.758   9.246 -0.3204 -0.9761 -0.5921
  285MOL0     H37571  10.915   7.923   9.417 -1.3581  2.8542 -0.3358
  285MOL0     H37572  10.873   7.864   9.246 -0.6735 -0.3685  2.0879
  285MOL0     H37573  11.174   8.064   9.398 -0.3961 -1.2123 -1.1266
  285MOL0     H37574  11.337   8.217   9.119 -1.6816 -1.9357 -0.2572
  285MOL0     H37575  11.355   8.202   9.294  2.2716  2.0100  0.0060
  285MOL0     H37576  11.180   8.421   9.191 -0.6954  0.7844  2.9008
  285MOL0     H37577  11.354   8.443   9.156 -1.9372  3.6521  0.1701
  285MOL0     H37578  11.193   8.404   9.420  2.4717  2.2230  4.8818
  285MOL0     H37579  11.367   8.398   9.399 -0.4400 -6.4528 -4.2742
  285MOL0     H37580  11.188   8.635   9.314 -0.1651 -0.1668  0.5089
  285MOL0     H37581  11.364   8.633   9.321  0.9418  1.3570  2.4761
  285MOL0     H37582  11.268   8.755   9.725  0.9908 -2.2076 -0.6091
  285MOL0     H37583  11.091   8.772   9.885  3.8385  1.8021 -1.2517
  285MOL0     H37584  10.550   8.794   9.880  0.5909  0.9370 -1.8446
  285MOL0     H37585  10.392   8.794  10.049 -0.8522  1.0225  3.0772
  285MOL0     H37586  10.260   8.774  10.399  1.1505 -0.9755  0.0207
  285MOL0     H37587  10.292   8.699  10.242 -0.7406 -2.2192  3.2232
  285MOL0     H37588  10.248   8.919  10.132  0.7747  0.3377  0.2941
  285MOL0     H37589  10.217   8.999  10.284 -0.8634 -0.5513  3.1393
  285MOL0     H37590  10.055   8.745  10.204  1.1351 -1.0647  3.9311
  285MOL0     H37591  10.015   8.910  10.143 -0.7082  2.4659  2.3790
  285MOL0     H37592  10.020   8.826  10.440  1.1366  1.6568  1.3837
  285MOL0     H37593   9.992   8.987  10.394  0.6271  0.2155  2.0912
  285MOL0     H37594   9.800   8.913  10.230  0.0436  0.6395  0.0754
  285MOL0     H37595   9.784   8.891  10.405 -0.9693  1.4498 -2.7661
  285MOL0     H37596   9.701   8.692  10.370 -1.6001  2.0051 -2.0235
  285MOL0     H37597   9.868   8.640  10.352 -0.5529 -2.8290 -2.6354
  285MOL0     H37598   9.719   8.746  10.110  0.3065 -0.2765 -1.0405
  285MOL0     H37599   9.825   8.612  10.106  0.9981 -0.9566 -0.8498
  285MOL0     H37600   9.618   8.506  10.072 -0.6186  3.0964 -0.9362
  285MOL0     H37601   9.539   8.600  10.185  0.2336  1.4244 -2.4990
  285MOL0     H37602  10.701   8.893  10.336  1.5044 -0.1460 -0.4683
  285MOL0     H37603  10.868   8.876  10.151  0.1272 -0.1073 -4.2189
  285MOL0     H37604  10.810   8.629   9.595 -1.9483  2.9978  2.9348
  285MOL0     H37605  11.015   8.614   9.425  0.0533 -0.8229  0.0624
  285MOL0     H37606  10.415   6.931   9.230 -3.2015 -1.3972 -2.5988
  285MOL0     H37607  10.345   6.724   9.106 -0.5623  0.3430 -3.9535
  285MOL0     H37608  10.167   6.390   8.793  1.0941 -0.0374  0.4561
  285MOL0     H37609  10.157   6.197   8.685 -0.9644  1.7379  1.6082
  285MOL0     H37610  10.538   5.889   8.649  1.2363 -5.4284 -5.7350
  285MOL0     H37611  10.527   6.028   8.548  0.1567 -0.5740 -0.2432
  285MOL0     H37612  10.363   5.761   8.513  1.3328 -0.8745 -0.8681
  285MOL0     H37613  10.338   5.911   8.418  2.3117  0.0758 -2.8713
  285MOL0     H37614  10.607   5.778   8.441  0.3635  1.9496  0.5467
  285MOL0     H37615  10.544   5.909   8.347 -2.3717  0.1073 -0.9863
  285MOL0     H37616  10.438   5.628   8.316 -1.6339  1.1651 -0.2116
  285MOL0     H37617  10.411   5.764   8.200  2.5802  1.2807 -2.2536
  285MOL0     H37618  10.745   5.641   8.024  0.7843  1.4118  1.0681
  285MOL0     H37619  10.541   6.079   8.829  1.9740  1.1980 -0.9652
  285MOL0     H37620  10.547   6.277   8.974 -0.7622 -0.4163  1.2556
  286MOL0     O37621   5.514   4.485   7.527 -0.0023 -0.1428  0.3443
  286MOL0     C37622   5.589   4.416   7.455 -0.0655 -0.2710 -0.0575
  286MOL0     O37623   5.617   4.442   7.329  0.3534  0.8990 -0.1197
  286MOL0     C37624   5.536   4.537   7.271  0.0773 -0.1321 -0.4986
  286MOL0     C37625   5.572   4.670   7.285 -0.5725 -0.0923  0.0250
  286MOL0     C37626   5.489   4.770   7.235  0.3782 -0.0197  0.2243
  286MOL0     C37627   5.387   4.738   7.146  0.4107  0.1742  0.5671
  286MOL0     O37628   5.310   4.832   7.080 -0.8398 -0.4649 -0.9309
  286MOL0     C37629   5.391   4.917   6.998 -0.3525  0.2395  0.6447
  286MOL0     C37630   5.434   4.857   6.863  0.1814  0.5844 -0.2474
  286MOL0     C37631   5.531   4.947   6.787  0.0495  0.0642  0.3815
  286MOL0     C37632   5.644   4.998   6.878  0.3879 -1.0061 -0.2530
  286MOL0     C37633   5.763   5.063   6.802 -0.8567  0.0091 -1.0735
  286MOL0     C37634   5.727   5.180   6.711 -0.4701  0.9527  0.3177
  286MOL0     C37635   5.664   5.294   6.788  0.1653 -0.1716 -0.2816
  286MOL0     C37636   5.618   5.411   6.699 -0.1021  0.5931  0.0002
  286MOL0     N37637   5.730   5.494   6.649 -0.1473 -0.4913  0.2350
  286MOL0     C37638   5.805   5.584   6.717 -0.4587  0.2042 -1.1235
  286MOL0     C37639   5.901   5.629   6.630  0.5428  0.0569  0.5360
  286MOL0     C37640   6.006   5.734   6.642  0.0398  0.4989 -0.0149
  286MOL0     C37641   5.957   5.869   6.697 -0.4329  0.6046 -0.2805
  286MOL0     C37642   5.851   5.933   6.615 -0.8531  0.4309 -0.1459
  286MOL0     C37643   5.893   5.957   6.467 -0.1361 -0.7105 -0.5472
  286MOL0     O37644   5.793   6.036   6.402 -0.2417  0.7647 -0.4646
  286MOL0     C37645   5.802   6.170   6.418 -0.2635  0.5290  0.2426
  286MOL0     C37646   5.882   6.245   6.511  0.6864 -0.2493  0.3422
  286MOL0     C37647   5.895   6.383   6.505  0.2137  0.3176  0.2461
  286MOL0     C37648   5.835   6.457   6.405  0.1548  0.7473 -0.2769
  286MOL0     C37649   5.840   6.605   6.396 -0.3781  0.3549  0.6258
  286MOL0     O37650   5.797   6.660   6.274  0.2876 -0.1915 -0.0728
  286MOL0     C37651   5.816   6.791   6.252 -0.7168  0.3213  0.6448
  286MOL0     C37652   5.941   6.855   6.225  0.4913  0.0961  0.2349
  286MOL0     C37653   5.943   6.988   6.188  1.2928 -0.0409 -0.4952
  286MOL0     C37654   5.832   7.062   6.156 -0.1695 -0.1479  0.1520
  286MOL0     O37655   5.843   7.190   6.103 -0.4728  0.1118 -0.0692
  286MOL0     C37656   5.967   7.247   6.065 -1.6386 -0.1579 -0.2349
  286MOL0     C37657   5.954   7.386   6.017  0.1873  0.1576  0.7596
  286MOL0     C37658   5.930   7.480   6.137  0.2920  0.8879 -0.3005
  286MOL0     C37659   5.872   7.611   6.101 -0.4864 -0.4610 -0.4458
  286MOL0     C37660   5.834   7.701   6.209 -0.7386 -0.6865  0.5013
  286MOL0     C37661   5.810   7.845   6.174 -0.3366 -0.9320 -0.1519
  286MOL0     C37662   5.831   7.938   6.309  0.0990  0.1601  0.0242
  286MOL0     C37663   5.805   8.080   6.270 -0.4587  0.0101 -0.4518
  286MOL0    Cl37664   5.936   8.139   6.155 -0.3028 -0.1009  0.0387
  286MOL0     C37665   5.713   7.003   6.194  0.2842  1.1376  0.3246
  286MOL0     C37666   5.702   6.869   6.244  0.6153 -0.1754  0.1667
  286MOL0     O37667   5.875   6.674   6.490 -0.4892  0.6040 -0.2207
  286MOL0     C37668   5.773   6.390   6.314  0.7257  0.1958 -0.3573
  286MOL0     C37669   5.743   6.246   6.320 -0.6613 -0.2150  0.4228
  286MOL0     N37670   5.881   5.567   6.511  0.0359 -0.1952  0.0062
  286MOL0     N37671   5.771   5.497   6.521 -0.3171  1.3154  0.4958
  286MOL0     C37672   5.354   4.602   7.117 -0.7994  0.6319  0.3149
  286MOL0     C37673   5.437   4.507   7.177 -0.5396 -0.1411 -0.3949
  286MOL0     C37674   5.658   4.301   7.508 -0.6989 -0.4894  0.8178
  286MOL0     C37675   5.754   4.234   7.429 -0.1894  0.6557  0.4286
  286MOL0     C37676   5.807   4.104   7.470  0.2888 -0.1264 -0.1765
  286MOL0     C37677   5.764   4.056   7.596  0.1297 -0.5837 -0.8571
  286MOL0     O37678   5.792   3.932   7.632  0.7164 -0.1576 -0.5671
  286MOL0     C37679   5.932   3.915   7.668 -0.6001 -0.3002 -0.8167
  286MOL0     C37680   5.977   3.770   7.660  0.0127  0.0004 -0.2542
  286MOL0     C37681   5.906   3.691   7.765 -0.3892 -0.1977 -0.1198
  286MOL0     C37682   5.943   3.732   7.906 -0.0732  0.0148  0.4559
  286MOL0     C37683   5.957   3.615   7.998  0.8705 -0.4602  0.0723
  286MOL0     C37684   5.941   3.517   8.062 -0.1873  0.1234 -0.6722
  286MOL0     C37685   5.683   4.126   7.686 -0.1001 -0.2977  0.2752
  286MOL0     C37686   5.632   4.253   7.639  0.4791  0.2994  0.9690
  286MOL0     H37687   5.641   4.676   7.369 -1.7705 -0.8066  1.0956
  286MOL0     H37688   5.499   4.873   7.268  2.3970 -0.4981  1.2521
  286MOL0     H37689   5.481   4.950   7.050  2.3808 -2.4592 -1.9217
  286MOL0     H37690   5.338   5.008   6.967 -1.0466 -0.2748  0.2869
  286MOL0     H37691   5.351   4.854   6.793 -3.5979  2.6440  3.6708
  286MOL0     H37692   5.472   4.755   6.870 -2.0616 -0.3345 -0.7018
  286MOL0     H37693   5.470   5.032   6.757 -5.0830 -2.7745  1.5720
  286MOL0     H37694   5.569   4.901   6.695 -0.6386 -0.6589  0.4480
  286MOL0     H37695   5.602   5.078   6.940 -0.7849  0.2499 -2.5277
  286MOL0     H37696   5.683   4.917   6.939  2.2487  0.0520  0.0429
  286MOL0     H37697   5.807   4.988   6.736 -1.6394  1.8089 -3.7788
  286MOL0     H37698   5.820   5.098   6.889  0.8146 -0.7308 -1.8244
  286MOL0     H37699   5.661   5.134   6.638 -0.7116  0.8901  0.5730
  286MOL0     H37700   5.817   5.213   6.659 -2.5476  2.3111 -2.6881
  286MOL0     H37701   5.574   5.256   6.837  0.7949 -0.5654  0.5991
  286MOL0     H37702   5.736   5.335   6.859 -2.3560 -1.3998  3.2506
  286MOL0     H37703   5.562   5.484   6.759  0.4507 -0.8434  2.4225
  286MOL0     H37704   5.548   5.376   6.623 -0.5021  0.6135  0.3517
  286MOL0     H37705   5.797   5.619   6.820  0.1324 -1.0230 -0.6330
  286MOL0     H37706   6.049   5.757   6.543 -1.2256 -0.6763 -0.8705
  286MOL0     H37707   6.088   5.697   6.704  1.5411  0.0479 -2.1484
  286MOL0     H37708   6.052   5.923   6.711 -0.2407  0.2940 -0.3720
  286MOL0     H37709   5.921   5.846   6.797  0.2471 -0.6893 -0.3087
  286MOL0     H37710   5.760   5.871   6.613 -2.8574  3.0249  2.5707
  286MOL0     H37711   5.820   6.026   6.662 -1.4258  1.1066 -1.8046
  286MOL0     H37712   5.905   5.864   6.411  1.5582  0.1904 -1.7850
  286MOL0     H37713   5.987   6.012   6.464  1.1231 -2.7563 -0.7629
  286MOL0     H37714   5.930   6.194   6.593  0.1159 -2.4052 -0.6028
  286MOL0     H37715   5.927   6.439   6.592  0.0480 -1.4822  1.5455
  286MOL0     H37716   6.039   6.810   6.241  0.6673  0.3158 -0.2039
  286MOL0     H37717   6.039   7.039   6.186 -0.6669  4.1620  0.3578
  286MOL0     H37718   6.012   7.175   5.996 -1.1369 -0.1099  0.0329
  286MOL0     H37719   6.041   7.252   6.146 -0.5184 -0.8128 -1.1963
  286MOL0     H37720   5.871   7.400   5.946  0.0248 -0.3870  0.8369
  286MOL0     H37721   6.043   7.417   5.962 -1.3327  2.7310 -0.4317
  286MOL0     H37722   6.023   7.493   6.193 -0.1437  1.0088  0.4051
  286MOL0     H37723   5.855   7.427   6.197 -0.1707  2.3418  0.4443
  286MOL0     H37724   5.944   7.663   6.036  0.5092 -1.5950 -0.2731
  286MOL0     H37725   5.785   7.601   6.034  0.1239  1.8280 -1.6878
  286MOL0     H37726   5.909   7.697   6.288 -0.4745 -0.8820  0.2434
  286MOL0     H37727   5.746   7.654   6.254 -0.3757 -0.2406  1.7152
  286MOL0     H37728   5.710   7.857   6.130  0.2889  0.8497 -1.2203
  286MOL0     H37729   5.879   7.887   6.100  1.4265  1.2154  2.5293
  286MOL0     H37730   5.755   7.899   6.378 -2.4647  0.2350 -2.5651
  286MOL0     H37731   5.936   7.928   6.335  0.2002  0.0917 -0.4123
  286MOL0     H37732   5.813   8.130   6.367  2.6213 -2.4535  0.7403
  286MOL0     H37733   5.700   8.094   6.242 -0.4907 -1.1176 -0.9319
  286MOL0     H37734   5.623   7.055   6.161  0.4381  1.6789  0.7418
  286MOL0     H37735   5.608   6.824   6.275 -0.6058  1.7724 -0.4756
  286MOL0     H37736   5.737   6.446   6.228 -0.1604  5.0023  2.7393
  286MOL0     H37737   5.689   6.209   6.233 -1.9388  0.9628  0.6764
  286MOL0     H37738   5.286   4.561   7.043  1.2146 -2.4561 -0.0041
  286MOL0     H37739   5.441   4.405   7.141  0.9897  0.1825 -1.2131
  286MOL0     H37740   5.793   4.270   7.334 -0.2485 -3.3788 -1.3063
  286MOL0     H37741   5.869   4.055   7.396 -3.2215  0.7169 -4.0265
  286MOL0     H37742   5.954   3.944   7.770 -3.0383  0.6821 -0.4996
  286MOL0     H37743   5.994   3.968   7.595  2.2941 -0.7662  1.1656
  286MOL0     H37744   5.954   3.740   7.557 -2.1483  3.3188 -0.8910
  286MOL0     H37745   6.083   3.763   7.684 -0.7771 -1.5105  3.3352
  286MOL0     H37746   5.923   3.587   7.735 -2.6698 -0.2712 -1.3926
  286MOL0     H37747   5.804   3.718   7.737  0.2536  1.0366 -1.3727
  286MOL0     H37748   6.031   3.796   7.902 -1.9314  2.8283  1.6219
  286MOL0     H37749   5.863   3.798   7.942  1.0324  0.9937  1.1632
  286MOL0     H37750   5.934   3.449   8.143  0.0582  2.1046  1.1045
  286MOL0     H37751   5.650   4.073   7.775 -2.3254 -1.7354 -1.3142
  286MOL0     H37752   5.564   4.305   7.706 -1.8995  0.0443 -1.0915
  287MOL0     O37753   2.870  11.453   5.486 -0.1453  0.0692 -0.1120
  287MOL0     C37754   2.915  11.398   5.586 -1.2451  0.2176 -0.8130
  287MOL0     O37755   2.887  11.276   5.626  0.4222  0.1501  0.3208
  287MOL0     C37756   2.790  11.200   5.560  0.2949  0.1463 -0.1876
  287MOL0     C37757   2.829  11.122   5.455 -0.4566 -0.4434 -0.5942
  287MOL0     C37758   2.734  11.062   5.371 -0.1743 -0.0231 -0.2272
  287MOL0     C37759   2.601  11.069   5.401  0.6828  0.6409  0.7518
  287MOL0     O37760   2.505  11.000   5.336 -0.6825  0.2193  1.2215
  287MOL0     C37761   2.442  11.066   5.226 -0.0728 -0.3550 -0.4598
  287MOL0     C37762   2.310  11.000   5.209 -0.2579 -0.9482 -0.2248
  287MOL0     C37763   2.241  11.052   5.085  0.0322 -0.1443 -0.6274
  287MOL0     C37764   2.091  11.007   5.065  0.6396 -0.6187 -1.1575
  287MOL0     C37765   2.034  11.063   4.932 -0.4751  0.3493 -0.3772
  287MOL0     C37766   1.880  11.042   4.909 -0.3070  0.3395  0.0409
  287MOL0     C37767   1.800  11.099   5.028 -0.2629 -0.4504  0.4117
  287MOL0     C37768   1.790  11.253   5.057 -0.1877 -0.2606  0.5143
  287MOL0     N37769   1.880  11.314   5.159 -0.7655 -0.2369  0.2601
  287MOL0     C37770   1.872  11.286   5.291 -0.5015  0.4847  0.1065
  287MOL0     C37771   1.977  11.357   5.358  0.2352 -0.4330 -0.6230
  287MOL0     C37772   2.007  11.351   5.507 -0.3332  0.3725 -0.6085
  287MOL0     C37773   1.993  11.479   5.597  0.0658 -0.3428 -0.6248
  287MOL0     C37774   2.068  11.473   5.729  0.5336 -0.0489  1.6483
  287MOL0     C37775   2.038  11.347   5.802  1.2950  0.4682 -0.9624
  287MOL0     O37776   1.896  11.334   5.816 -0.5308  0.2027  0.6380
  287MOL0     C37777   1.858  11.359   5.944 -0.2075 -0.4647  0.7985
  287MOL0     C37778   1.783  11.475   5.957 -0.6758 -0.9910  0.1901
  287MOL0     C37779   1.761  11.540   6.082 -0.1620  0.6147  0.0496
  287MOL0     C37780   1.799  11.475   6.199 -0.1914  0.0530  0.0875
  287MOL0     C37781   1.744  11.521   6.326 -0.3564 -0.1696  0.0464
  287MOL0     O37782   1.784  11.452   6.433 -0.7776 -0.1171 -0.5806
  287MOL0     C37783   1.767  11.527   6.547 -0.0556 -0.3703  0.2152
  287MOL0     C37784   1.669  11.475   6.637 -0.4207  0.0548 -0.5230
  287MOL0     C37785   1.654  11.533   6.767  0.5853  0.0540 -0.7668
  287MOL0     C37786   1.706  11.664   6.789 -0.3858  1.1612 -0.6276
  287MOL0     O37787   1.670  11.716   6.907  0.4780  1.0758 -0.8970
  287MOL0     C37788   1.778  11.758   6.988  0.1806 -0.5857 -0.2744
  287MOL0     C37789   1.750  11.709   7.137  0.4226 -0.4483  1.0339
  287MOL0     C37790   1.644  11.786   7.202 -0.2080  0.3313  0.3480
  287MOL0     C37791   1.590  11.722   7.339  0.2205 -0.5348  0.2556
  287MOL0     C37792   1.493  11.827   7.409  0.5251  0.3450  0.8373
  287MOL0     C37793   1.360  11.836   7.324  0.7912 -0.5459  0.3369
  287MOL0     C37794   1.255  11.895   7.399 -0.0676 -0.1061  0.3203
  287MOL0     C37795   1.137  11.942   7.316  0.0824  0.2737 -0.1770
  287MOL0    Cl37796   0.996  11.963   7.411  0.0806  0.4877 -0.7587
  287MOL0     C37797   1.796  11.717   6.705 -0.6791 -0.0692  0.9511
  287MOL0     C37798   1.835  11.648   6.589 -0.1531  1.2647 -0.3607
  287MOL0     O37799   1.668  11.616   6.333  1.3612  0.2239  0.3515
  287MOL0     C37800   1.875  11.350   6.189  0.1204 -0.3945 -0.4365
  287MOL0     C37801   1.913  11.302   6.060  0.6569 -0.0512 -0.2746
  287MOL0     N37802   2.049  11.409   5.250 -0.0746 -0.1516  0.6169
  287MOL0     N37803   1.983  11.401   5.138 -0.5858  0.1647  0.6033
  287MOL0     C37804   2.556  11.149   5.509 -0.9159  0.4473  0.1464
  287MOL0     C37805   2.653  11.214   5.587 -0.2168 -0.0119 -0.1782
  287MOL0     C37806   3.027  11.452   5.664 -0.6167  0.0623  0.7609
  287MOL0     C37807   3.052  11.424   5.801 -0.1815  0.7275 -0.2796
  287MOL0     C37808   3.171  11.480   5.859  0.0677 -0.1698  0.1326
  287MOL0     C37809   3.233  11.584   5.800 -0.5924  0.2112  1.2990
  287MOL0     O37810   3.334  11.636   5.881 -0.2413  0.2038 -0.0817
  287MOL0     C37811   3.435  11.727   5.822 -0.6155  0.1087 -0.0464
  287MOL0     C37812   3.552  11.650   5.748 -0.0080 -0.4503  0.3068
  287MOL0     C37813   3.595  11.537   5.826  0.6029 -0.3931  0.3315
  287MOL0     C37814   3.743  11.495   5.805 -0.9473  0.1945  1.9699
  287MOL0     C37815   3.776  11.433   5.680  0.6576  1.1864 -0.5541
  287MOL0     C37816   3.783  11.402   5.565  0.6704 -0.1219  0.7441
  287MOL0     C37817   3.216  11.614   5.667  0.0273  0.0244  0.4398
  287MOL0     C37818   3.115  11.549   5.600  0.1076  0.0025 -0.2840
  287MOL0     H37819   2.934  11.131   5.428 -0.0147 -0.1746  1.0622
  287MOL0     H37820   2.768  10.996   5.291 -1.1770 -0.3995 -0.3588
  287MOL0     H37821   2.507  11.035   5.143  1.1158 -1.1199  0.7037
  287MOL0     H37822   2.433  11.175   5.231 -0.4206 -0.2773 -2.3481
  287MOL0     H37823   2.242  11.026   5.291  0.1148 -1.1134  0.1436
  287MOL0     H37824   2.327  10.892   5.205  2.2570 -0.5878 -2.3392
  287MOL0     H37825   2.300  11.011   5.003  1.7716  1.5782 -0.2934
  287MOL0     H37826   2.250  11.160   5.098 -2.2529  0.1747 -1.1703
  287MOL0     H37827   2.091  10.897   5.064  2.4462 -0.6603 -0.7559
  287MOL0     H37828   2.032  11.036   5.152  0.6698 -0.7056 -1.1075
  287MOL0     H37829   2.089  11.025   4.845  1.8473 -1.0236  1.5527
  287MOL0     H37830   2.060  11.168   4.919  1.4225  0.2613  1.9726
  287MOL0     H37831   1.864  10.934   4.900  2.9535 -0.4688  2.0929
  287MOL0     H37832   1.854  11.092   4.816 -3.7247  1.4597  1.4520
  287MOL0     H37833   1.700  11.055   5.033  0.1282 -1.2559  1.3036
  287MOL0     H37834   1.838  11.042   5.113  1.3444 -2.2232 -1.3874
  287MOL0     H37835   1.684  11.274   5.078  0.7653  2.6766  3.3437
  287MOL0     H37836   1.815  11.308   4.966  0.2340 -0.7232  0.3496
  287MOL0     H37837   1.789  11.237   5.341 -0.4282 -0.0464 -0.2833
  287MOL0     H37838   2.116  11.342   5.512 -0.4894 -0.8141  1.8368
  287MOL0     H37839   1.958  11.272   5.563 -1.9067  3.4849  2.8428
  287MOL0     H37840   1.886  11.497   5.615  0.6601  0.2076  3.1577
  287MOL0     H37841   2.029  11.565   5.540  1.0896 -2.6330 -3.7375
  287MOL0     H37842   2.175  11.478   5.707  0.4210 -1.3567  0.6417
  287MOL0     H37843   2.047  11.566   5.783  1.1423  0.0319  1.7477
  287MOL0     H37844   2.095  11.337   5.895  3.2081  1.5516 -1.9677
  287MOL0     H37845   2.070  11.260   5.743  3.3944  1.2004 -0.9731
  287MOL0     H37846   1.747  11.519   5.864  0.6845  0.3173  0.2247
  287MOL0     H37847   1.702  11.631   6.085  0.4955  1.0243  0.8980
  287MOL0     H37848   1.626  11.378   6.612 -0.9481  0.5459 -1.5793
  287MOL0     H37849   1.578  11.482   6.825  0.5891 -1.1554 -1.7794
  287MOL0     H37850   1.778  11.867   6.986  0.2168 -0.5438  0.9172
  287MOL0     H37851   1.871  11.719   6.946 -0.2940 -1.7791 -0.2627
  287MOL0     H37852   1.838  11.720   7.200  1.2937 -1.7647  0.0933
  287MOL0     H37853   1.722  11.605   7.119 -1.6711  0.7026 -4.4349
  287MOL0     H37854   1.569  11.809   7.125 -3.5695 -2.3030  2.5782
  287MOL0     H37855   1.683  11.882   7.239 -0.9527  0.6682  0.2693
  287MOL0     H37856   1.541  11.626   7.321  2.9103 -1.6668 -1.6225
  287MOL0     H37857   1.672  11.710   7.409 -0.8687  0.3140  1.7379
  287MOL0     H37858   1.542  11.924   7.418 -1.6185  1.4727  0.7903
  287MOL0     H37859   1.464  11.794   7.509 -2.9475  0.9098  0.1455
  287MOL0     H37860   1.317  11.737   7.305  0.8622 -1.0324  2.4456
  287MOL0     H37861   1.379  11.877   7.225  0.0691 -1.9469 -0.4159
  287MOL0     H37862   1.215  11.823   7.471 -0.9161 -1.3831 -1.3806
  287MOL0     H37863   1.291  11.977   7.463  2.7725 -0.5560 -0.5681
  287MOL0     H37864   1.100  11.878   7.235  0.2547 -3.1666  2.2749
  287MOL0     H37865   1.162  12.041   7.278  0.6430  0.9698  1.8923
  287MOL0     H37866   1.829  11.817   6.731 -1.1284  0.5967 -0.9074
  287MOL0     H37867   1.921  11.690   6.538 -1.3072 -1.3223 -5.0000
  287MOL0     H37868   1.894  11.292   6.279 -1.2146  2.7928  2.1311
  287MOL0     H37869   1.978  11.217   6.043  1.7840  0.7447 -0.0241
  287MOL0     H37870   2.450  11.144   5.533 -0.6835  0.5424  1.2810
  287MOL0     H37871   2.611  11.280   5.662 -2.0852 -1.5314  0.1805
  287MOL0     H37872   2.993  11.350   5.854  0.1104  0.8231  0.1918
  287MOL0     H37873   3.207  11.443   5.954  1.6097 -1.4398 -0.8949
  287MOL0     H37874   3.465  11.774   5.915  1.0608  1.0224 -1.0008
  287MOL0     H37875   3.391  11.804   5.757  2.6164  0.4447 -2.0459
  287MOL0     H37876   3.513  11.620   5.651 -1.5814 -1.3280  1.1804
  287MOL0     H37877   3.631  11.725   5.736  1.2809 -1.8650 -0.3019
  287MOL0     H37878   3.520  11.460   5.807 -1.2729  1.3088  0.5687
  287MOL0     H37879   3.597  11.551   5.934 -0.0865 -2.0420  0.5759
  287MOL0     H37880   3.790  11.594   5.796 -0.7853 -0.1055 -2.0768
  287MOL0     H37881   3.764  11.428   5.889  0.8346 -0.9421  0.6861
  287MOL0     H37882   3.799  11.369   5.464 -2.5690 -0.7232  0.3208
  287MOL0     H37883   3.266  11.679   5.596 -1.6775 -1.1105 -1.9671
  287MOL0     H37884   3.107  11.570   5.494 -0.6684 -1.4591 -0.5287
  288MOL0     O37885   4.673   8.913   1.963  0.0683 -0.2943  0.0343
  288MOL0     C37886   4.640   9.002   2.045 -0.0828  1.0609 -0.0264
  288MOL0     O37887   4.631   9.137   2.026  0.4775 -0.5423  0.6398
  288MOL0     C37888   4.709   9.206   1.935  0.2418 -0.1040 -0.7081
  288MOL0     C37889   4.664   9.338   1.909 -0.6554  0.2440  0.1334
  288MOL0     C37890   4.738   9.438   1.833  0.6176 -0.0084  0.8690
  288MOL0     C37891   4.860   9.389   1.776  0.7516 -0.4194 -0.1738
  288MOL0     O37892   4.933   9.460   1.688  0.8162 -0.5968  0.3510
  288MOL0     C37893   4.924   9.607   1.677 -0.4797 -0.0195  0.0929
  288MOL0     C37894   4.989   9.652   1.555 -0.5914  0.2210 -0.2532
  288MOL0     C37895   4.905   9.627   1.428  0.4809  0.1864  0.0107
  288MOL0     C37896   4.966   9.660   1.296  0.6325 -0.3450 -0.1052
  288MOL0     C37897   4.881   9.630   1.168 -2.0259 -0.0477  0.2638
  288MOL0     C37898   4.955   9.644   1.034  0.1989 -0.7843  0.2372
  288MOL0     C37899   4.856   9.595   0.922 -0.7272 -0.7006 -0.7154
  288MOL0     C37900   4.743   9.694   0.903  0.8720  0.2625  0.7136
  288MOL0     N37901   4.778   9.784   0.791 -0.1726 -0.0089  0.4338
  288MOL0     C37902   4.768   9.742   0.670 -0.2741 -0.1169  0.4568
  288MOL0     C37903   4.819   9.840   0.593 -0.4289  0.0071  1.2934
  288MOL0     C37904   4.828   9.834   0.448 -0.0093  0.2997 -0.1589
  288MOL0     C37905   4.705   9.913   0.392  0.5369 -1.1865  0.0554
  288MOL0     C37906   4.675  10.051   0.437 -0.2046 -0.1042 -1.1114
  288MOL0     C37907   4.790  10.147   0.422  0.4982 -0.3147 -0.1349
  288MOL0     O37908   4.751  10.285   0.436 -0.0587  1.1541  0.1725
  288MOL0     C37909   4.835  10.354   0.518 -0.0821  0.1322 -0.1490
  288MOL0     C37910   4.819  10.322   0.654 -0.1714 -0.3090 -0.7516
  288MOL0     C37911   4.907  10.384   0.754  0.3543 -0.2104  0.2284
  288MOL0     C37912   4.989  10.493   0.712 -0.7433  0.4283 -0.2693
  288MOL0     C37913   5.060  10.579   0.814 -0.4114 -0.7191  0.1261
  288MOL0     O37914   4.991  10.599   0.933  0.4212  0.9750  0.2673
  288MOL0     C37915   5.058  10.662   1.038  0.4323  0.0652  1.0537
  288MOL0     C37916   5.178  10.612   1.082 -0.2560 -0.0077 -0.8201
  288MOL0     C37917   5.247  10.675   1.186  1.0466 -0.4577 -0.4007
  288MOL0     C37918   5.188  10.799   1.243  0.4735  1.0442  0.5999
  288MOL0     O37919   5.258  10.864   1.338 -0.2174 -0.1076  0.4098
  288MOL0     C37920   5.193  10.956   1.417 -0.0008  0.2462 -0.1187
  288MOL0     C37921   5.271  11.019   1.531 -1.0598 -0.0118  0.3140
  288MOL0     C37922   5.408  11.063   1.490  0.2472 -0.3504  0.1360
  288MOL0     C37923   5.448  11.177   1.585  0.0173 -0.1405  0.5376
  288MOL0     C37924   5.594  11.211   1.583  0.0311 -0.5133 -0.7517
  288MOL0     C37925   5.607  11.362   1.573 -0.1387  0.2560 -0.5494
  288MOL0     C37926   5.535  11.444   1.677 -0.1687 -0.7381  1.0747
  288MOL0     C37927   5.497  11.588   1.632  0.2957 -0.4511  0.3521
  288MOL0    Cl37928   5.632  11.698   1.599 -0.3755 -0.3303 -0.1041
  288MOL0     C37929   5.060  10.829   1.210  0.3031 -0.5998 -0.8366
  288MOL0     C37930   4.994  10.762   1.100  0.5179  1.0558 -0.0255
  288MOL0     O37931   5.176  10.627   0.789  0.5535 -0.1449  0.5518
  288MOL0     C37932   5.016  10.501   0.583  0.3253 -0.6721  0.5098
  288MOL0     C37933   4.940  10.436   0.485 -0.2882 -0.5643  0.1241
  288MOL0     N37934   4.859   9.944   0.673 -0.4679 -0.1838  0.2208
  288MOL0     N37935   4.843   9.905   0.798 -1.2263 -1.4535 -0.2491
  288MOL0     C37936   4.906   9.261   1.804  0.0937  0.6022  0.1923
  288MOL0     C37937   4.836   9.168   1.887  0.3630 -0.1079 -0.1858
  288MOL0     C37938   4.579   8.939   2.166 -0.2333  0.1362  0.1415
  288MOL0     C37939   4.506   9.024   2.253  0.6856  0.1164  0.4990
  288MOL0     C37940   4.439   8.976   2.363 -0.5350 -0.0228 -0.0689
  288MOL0     C37941   4.437   8.835   2.386  0.1632 -0.2409 -0.7186
  288MOL0     O37942   4.369   8.764   2.491 -0.3552  0.1278  0.6106
  288MOL0     C37943   4.333   8.834   2.607  0.2499 -0.6389  0.7491
  288MOL0     C37944   4.314   8.727   2.720  0.3159 -0.8709 -0.6788
  288MOL0     C37945   4.310   8.790   2.862  0.6924 -0.0053  0.2512
  288MOL0     C37946   4.267   8.696   2.978 -0.0802 -0.1378  0.0302
  288MOL0     C37947   4.136   8.638   2.966 -0.6253 -0.2301 -0.1915
  288MOL0     C37948   4.034   8.569   2.966  0.2526 -0.0171  0.1047
  288MOL0     C37949   4.520   8.753   2.314 -0.8423  0.1891 -0.5519
  288MOL0     C37950   4.591   8.801   2.204  0.2386  0.1994 -0.0397
  288MOL0     H37951   4.564   9.370   1.936 -0.9122  0.0644 -0.5823
  288MOL0     H37952   4.701   9.540   1.823  1.7889  0.4189  0.8172
  288MOL0     H37953   4.972   9.645   1.767 -1.0404  0.5113  0.1744
  288MOL0     H37954   4.823   9.646   1.692 -0.2569  0.4964  0.2477
  288MOL0     H37955   5.091   9.613   1.553  0.4185  2.7263 -1.9064
  288MOL0     H37956   5.005   9.759   1.566 -2.6379  1.2860 -4.9311
  288MOL0     H37957   4.809   9.677   1.442  1.1673  1.2519  1.1190
  288MOL0     H37958   4.869   9.524   1.428  0.0188  0.3414 -0.6988
  288MOL0     H37959   4.984   9.768   1.295 -1.0200 -0.0371 -0.0315
  288MOL0     H37960   5.061   9.606   1.288  1.6130  1.1820  0.7135
  288MOL0     H37961   4.793   9.696   1.172 -0.4912  2.1808 -0.6168
  288MOL0     H37962   4.848   9.527   1.178  1.2469 -0.9285  5.2378
  288MOL0     H37963   5.047   9.585   1.031 -0.5719 -2.0932  1.1430
  288MOL0     H37964   4.994   9.746   1.030  0.1883 -0.6919  1.7285
  288MOL0     H37965   4.914   9.599   0.829 -0.0478 -0.2088 -0.2828
  288MOL0     H37966   4.825   9.491   0.938 -1.8897 -0.6475 -2.3317
  288MOL0     H37967   4.741   9.768   0.983  1.0987  0.8157  0.2166
  288MOL0     H37968   4.643   9.650   0.890  0.5422  0.7813  1.4454
  288MOL0     H37969   4.723   9.652   0.628  0.8109 -0.2920 -0.3739
  288MOL0     H37970   4.808   9.729   0.425 -3.2873  1.1369 -1.6801
  288MOL0     H37971   4.926   9.864   0.410  0.2541 -0.0263  0.2468
  288MOL0     H37972   4.614   9.853   0.394  0.6867 -1.6115 -2.3367
  288MOL0     H37973   4.714   9.935   0.285 -2.6877  1.3171  0.1653
  288MOL0     H37974   4.593  10.083   0.372  1.1226  0.1697 -2.7212
  288MOL0     H37975   4.634  10.044   0.538 -0.5913 -1.1894 -1.3191
  288MOL0     H37976   4.835  10.146   0.322  0.0325 -2.4014 -0.3773
  288MOL0     H37977   4.860  10.113   0.499 -1.1316 -3.9977 -0.0838
  288MOL0     H37978   4.739  10.255   0.685  0.7849 -1.7017 -1.2164
  288MOL0     H37979   4.894  10.370   0.861  0.2591  0.2206  0.2743
  288MOL0     H37980   5.206  10.524   1.025 -1.7995 -0.2449 -1.2760
  288MOL0     H37981   5.349  10.641   1.204  2.1607  2.5346 -0.3875
  288MOL0     H37982   5.098  10.917   1.453 -0.0861 -0.7836 -1.3579
  288MOL0     H37983   5.168  11.039   1.351 -1.5392  1.5750  2.0238
  288MOL0     H37984   5.277  10.946   1.612 -1.0073 -1.6897 -1.1501
  288MOL0     H37985   5.209  11.101   1.569  0.3464  0.6003  1.3602
  288MOL0     H37986   5.400  11.100   1.387 -2.4360 -1.8912 -0.3007
  288MOL0     H37987   5.471  10.973   1.491  0.5060 -0.1896 -0.7517
  288MOL0     H37988   5.384  11.263   1.561  0.3771  0.2142  0.8350
  288MOL0     H37989   5.421  11.139   1.684  0.1743 -1.9317 -0.0629
  288MOL0     H37990   5.669  11.172   1.514  0.9208 -1.9674  0.9540
  288MOL0     H37991   5.630  11.181   1.682  0.0228 -0.7182 -0.8098
  288MOL0     H37992   5.569  11.397   1.477 -1.0529  0.8606  0.0190
  288MOL0     H37993   5.714  11.388   1.575 -0.3726  1.3314  2.0724
  288MOL0     H37994   5.452  11.383   1.715  1.4063 -1.7210  3.1580
  288MOL0     H37995   5.602  11.448   1.764 -1.0410 -0.9894  1.7796
  288MOL0     H37996   5.432  11.637   1.705 -0.6327 -0.0114 -0.7403
  288MOL0     H37997   5.437  11.592   1.540  1.3596  3.5012 -0.3501
  288MOL0     H37998   5.005  10.912   1.254  0.7578  2.2692 -5.0678
  288MOL0     H37999   4.897  10.790   1.062  0.5223 -1.6337 -2.3662
  288MOL0     H38000   5.096  10.573   0.565 -1.4484  0.9091 -1.7278
  288MOL0     H38001   4.952  10.457   0.379 -1.7685 -1.8751 -0.3413
  288MOL0     H38002   5.003   9.236   1.762 -0.9230  1.1942 -2.7614
  288MOL0     H38003   4.866   9.070   1.923 -1.9209 -0.8899 -0.2475
  288MOL0     H38004   4.500   9.132   2.244 -0.3339  0.0330  0.0258
  288MOL0     H38005   4.366   9.039   2.413 -2.4283 -0.4217 -2.1368
  288MOL0     H38006   4.237   8.885   2.600  0.5509  0.0323  1.3962
  288MOL0     H38007   4.400   8.918   2.625  1.3240 -0.9510 -1.4770
  288MOL0     H38008   4.221   8.673   2.698 -0.5561  0.4482 -0.3332
  288MOL0     H38009   4.404   8.665   2.720  1.7016  1.0426  0.1684
  288MOL0     H38010   4.239   8.873   2.869  1.8738  1.1939 -1.3048
  288MOL0     H38011   4.412   8.825   2.879  0.6473 -0.1688  0.9152
  288MOL0     H38012   4.338   8.613   2.988  0.7337  0.6495  0.8923
  288MOL0     H38013   4.275   8.765   3.062  0.8835  5.3341 -4.0426
  288MOL0     H38014   3.945   8.509   2.969  1.3113 -1.7978 -1.7328
  288MOL0     H38015   4.521   8.647   2.339 -0.7537  0.9978  3.6309
  288MOL0     H38016   4.663   8.746   2.144 -0.1905  1.3265 -1.6612
  289MOL0     O38017   6.429   2.649   6.011 -0.1967  0.3032 -0.2151
  289MOL0     C38018   6.535   2.594   5.963  0.9565  0.1847 -0.3938
  289MOL0     O38019   6.556   2.456   5.939 -0.9123 -0.1658  0.3734
  289MOL0     C38020   6.445   2.386   5.903  0.1820 -0.7835 -0.3067
  289MOL0     C38021   6.347   2.438   5.829 -0.2710 -1.0716 -0.6912
  289MOL0     C38022   6.231   2.375   5.782 -0.2292  0.0392  0.3976
  289MOL0     C38023   6.219   2.240   5.816 -0.6509  0.6212 -0.2947
  289MOL0     O38024   6.128   2.140   5.788  0.5884 -0.4599 -1.0288
  289MOL0     C38025   6.057   2.149   5.666 -0.4120 -0.1523  0.5687
  289MOL0     C38026   5.961   2.029   5.657 -0.8840  0.5382  0.1401
  289MOL0     C38027   6.048   1.894   5.652 -0.0039 -0.2438 -0.6901
  289MOL0     C38028   5.960   1.762   5.646 -0.1874 -0.4842  0.3169
  289MOL0     C38029   5.886   1.732   5.776  0.3569 -0.1367  0.1536
  289MOL0     C38030   5.875   1.580   5.796  0.3540 -0.2737 -0.1348
  289MOL0     C38031   5.762   1.555   5.902  0.0454 -0.2619 -0.1108
  289MOL0     C38032   5.621   1.623   5.902 -0.1903 -1.2292 -0.0676
  289MOL0     N38033   5.539   1.598   6.017  0.0101  0.1913  0.0431
  289MOL0     C38034   5.545   1.499   6.116 -0.7470 -0.3107  0.6673
  289MOL0     C38035   5.470   1.535   6.218 -0.1973 -0.0732 -0.1491
  289MOL0     C38036   5.459   1.469   6.352 -0.9450  0.1506 -0.6245
  289MOL0     C38037   5.319   1.437   6.380  0.5841 -0.4636  0.7707
  289MOL0     C38038   5.315   1.369   6.500  0.6389  1.1843  0.0560
  289MOL0     C38039   5.181   1.293   6.522  0.2324 -0.2056  0.3524
  289MOL0     O38040   5.193   1.253   6.658 -0.0871 -0.5554 -0.2831
  289MOL0     C38041   5.075   1.213   6.720  0.7142  0.3981  0.2150
  289MOL0     C38042   4.944   1.241   6.682 -0.4048 -0.1114  1.1589
  289MOL0     C38043   4.829   1.193   6.752  0.1893  1.1724 -0.1589
  289MOL0     C38044   4.848   1.117   6.870  0.3912 -1.1746 -0.0797
  289MOL0     C38045   4.733   1.066   6.936  0.1662 -0.0944 -0.1198
  289MOL0     O38046   4.751   1.019   7.063  0.2568  0.4434  1.1265
  289MOL0     C38047   4.672   0.942   7.142 -0.3398  0.6451 -1.0171
  289MOL0     C38048   4.545   0.887   7.110  0.6341  0.9282 -0.1782
  289MOL0     C38049   4.471   0.810   7.207  0.1626  0.7630  0.2143
  289MOL0     C38050   4.507   0.808   7.343 -0.5623 -0.0285 -0.8664
  289MOL0     O38051   4.447   0.744   7.450 -0.0572 -0.9561  1.0813
  289MOL0     C38052   4.300   0.751   7.472 -0.1801  0.5951  0.8810
  289MOL0     C38053   4.256   0.650   7.579  0.3043  0.9314 -0.5235
  289MOL0     C38054   4.096   0.658   7.607 -0.2215 -1.9400  0.3133
  289MOL0     C38055   4.041   0.569   7.707  0.1174 -0.0428  0.1215
  289MOL0     C38056   3.890   0.591   7.727 -0.0667 -0.2833  0.3509
  289MOL0     C38057   3.832   0.521   7.851  0.5485  0.8509  0.2440
  289MOL0     C38058   3.685   0.486   7.838 -0.6796 -0.7622 -0.3313
  289MOL0     C38059   3.633   0.389   7.946 -0.2477 -0.9611 -0.8187
  289MOL0    Cl38060   3.452   0.426   7.956 -0.0501  0.1132  0.2725
  289MOL0     C38061   4.630   0.870   7.380 -0.1158 -0.5283  0.1385
  289MOL0     C38062   4.707   0.930   7.278  0.5181  1.0582 -0.2285
  289MOL0     O38063   4.628   1.090   6.882  0.7621  0.1174 -0.2937
  289MOL0     C38064   4.983   1.092   6.918  1.1984  0.0107  0.6026
  289MOL0     C38065   5.087   1.124   6.833  0.5066 -0.5751 -0.4966
  289MOL0     N38066   5.414   1.657   6.184 -0.3103 -0.2783  0.5556
  289MOL0     N38067   5.458   1.689   6.068 -0.6805  0.0976 -0.8221
  289MOL0     C38068   6.307   2.187   5.908  0.1231  0.2278  0.7378
  289MOL0     C38069   6.414   2.262   5.956  0.5549  0.2868  0.5793
  289MOL0     C38070   6.655   2.675   5.976 -0.2065  0.8882  0.1244
  289MOL0     C38071   6.789   2.610   5.982  0.1980  1.0654  0.7898
  289MOL0     C38072   6.906   2.681   6.010 -0.0105 -0.2723  0.8657
  289MOL0     C38073   6.895   2.820   6.030  0.2902 -0.2414  0.4744
  289MOL0     O38074   7.007   2.889   6.051  0.3385 -0.6432  0.2293
  289MOL0     C38075   6.993   3.027   6.097  0.3391  0.0129 -0.7668
  289MOL0     C38076   7.130   3.084   6.135 -0.2012 -0.9056  0.0740
  289MOL0     C38077   7.194   3.013   6.250  0.0155  0.7020  0.7109
  289MOL0     C38078   7.139   3.075   6.387  0.0155  0.4201 -0.2617
  289MOL0     C38079   7.207   3.201   6.423  0.2137  0.4637  0.9777
  289MOL0     C38080   7.278   3.284   6.480  0.4085  0.1817  0.6800
  289MOL0     C38081   6.770   2.878   6.020  0.4362 -0.0639  1.6720
  289MOL0     C38082   6.652   2.805   5.999  1.1918  0.9561 -0.3255
  289MOL0     H38083   6.360   2.541   5.798  3.9844 -1.2585 -0.1267
  289MOL0     H38084   6.160   2.430   5.722 -0.2870  0.0714  0.4963
  289MOL0     H38085   6.113   2.152   5.572 -0.3990  1.3343  0.6009
  289MOL0     H38086   6.000   2.243   5.662  0.7541  0.5223 -2.4488
  289MOL0     H38087   5.907   2.025   5.562  0.1311 -0.2490 -0.4251
  289MOL0     H38088   5.891   2.019   5.740 -3.8190 -1.9258 -2.3752
  289MOL0     H38089   6.119   1.879   5.734  0.9434  0.6904 -1.3188
  289MOL0     H38090   6.096   1.904   5.555 -3.2052 -0.6896 -2.4745
  289MOL0     H38091   5.890   1.767   5.562 -1.3420  2.5209  1.3303
  289MOL0     H38092   6.033   1.684   5.621  2.0083  1.4800  0.1800
  289MOL0     H38093   5.791   1.777   5.745  0.0046 -1.5634 -0.8877
  289MOL0     H38094   5.933   1.772   5.866 -2.4154 -0.8674  2.0593
  289MOL0     H38095   5.974   1.551   5.832  0.9877  0.5105 -1.2023
  289MOL0     H38096   5.845   1.533   5.701 -1.5442  0.8298 -0.1357
  289MOL0     H38097   5.752   1.447   5.894 -2.3423  0.0268 -1.9814
  289MOL0     H38098   5.807   1.571   6.000  1.7742  0.0993 -0.9387
  289MOL0     H38099   5.573   1.603   5.805 -0.7521  4.2093 -1.2775
  289MOL0     H38100   5.642   1.730   5.901 -2.6334 -0.5942  2.3895
  289MOL0     H38101   5.597   1.404   6.104 -0.7659 -0.3728  1.0426
  289MOL0     H38102   5.503   1.530   6.431 -2.0234  0.4406 -0.2395
  289MOL0     H38103   5.518   1.377   6.356  0.4657  1.0247 -0.6619
  289MOL0     H38104   5.269   1.378   6.303 -2.3517 -0.8715  2.8096
  289MOL0     H38105   5.274   1.536   6.394 -0.0297 -0.4882 -0.8657
  289MOL0     H38106   5.390   1.290   6.501  1.4920  1.9316  2.3884
  289MOL0     H38107   5.324   1.439   6.584 -0.3420  2.8894 -1.1997
  289MOL0     H38108   5.169   1.203   6.461 -2.6907 -0.1429  0.6705
  289MOL0     H38109   5.096   1.358   6.499 -0.4754 -1.7061 -1.5545
  289MOL0     H38110   4.926   1.311   6.602 -1.3341 -0.8262  0.7287
  289MOL0     H38111   4.739   1.226   6.701 -0.5262  2.6975  1.9229
  289MOL0     H38112   4.489   0.906   7.020 -0.9352  0.8510  0.7475
  289MOL0     H38113   4.375   0.766   7.181  0.9399  0.5380 -2.6031
  289MOL0     H38114   4.238   0.727   7.385  0.4442 -0.3464  0.6718
  289MOL0     H38115   4.276   0.850   7.511 -2.9776 -1.0131  3.6543
  289MOL0     H38116   4.308   0.679   7.670 -0.3772  1.9234 -0.4426
  289MOL0     H38117   4.277   0.543   7.571  0.5326  0.9941 -0.7790
  289MOL0     H38118   4.051   0.644   7.508 -0.7061 -0.5962  0.3252
  289MOL0     H38119   4.071   0.758   7.642 -1.6050 -2.4203  0.7702
  289MOL0     H38120   4.057   0.469   7.667  2.5939 -0.1066  1.1397
  289MOL0     H38121   4.091   0.580   7.803 -0.2517 -0.6330  0.3872
  289MOL0     H38122   3.839   0.581   7.631  1.0888 -0.9083 -0.2197
  289MOL0     H38123   3.877   0.698   7.742 -1.6081  0.1169 -3.0109
  289MOL0     H38124   3.836   0.590   7.935  1.5745  1.9558 -0.6801
  289MOL0     H38125   3.890   0.436   7.889  0.6748  1.7381  2.1568
  289MOL0     H38126   3.646   0.588   7.847 -0.8130 -0.9193  0.9857
  289MOL0     H38127   3.653   0.445   7.741 -2.2442 -0.8712  0.2033
  289MOL0     H38128   3.684   0.422   8.037  4.4858  2.5381 -4.1867
  289MOL0     H38129   3.635   0.282   7.925  0.0338 -0.7315 -2.0990
  289MOL0     H38130   4.662   0.871   7.483 -2.0081  0.5740  0.7627
  289MOL0     H38131   4.795   0.985   7.310  1.0303 -0.3952  0.9859
  289MOL0     H38132   4.996   1.042   7.013  3.3727  1.6619  1.2451
  289MOL0     H38133   5.188   1.125   6.871  0.5619  2.0541 -0.5479
  289MOL0     H38134   6.301   2.080   5.928 -1.4974  0.3286  0.9337
  289MOL0     H38135   6.479   2.202   6.019 -2.8873 -0.1047  4.1362
  289MOL0     H38136   6.789   2.502   5.973  1.0557  1.1772 -1.0995
  289MOL0     H38137   7.000   2.631   6.028  1.7302  1.3493 -2.6981
  289MOL0     H38138   6.943   3.040   6.193  2.7100  3.4197  0.2043
  289MOL0     H38139   6.944   3.088   6.021 -1.1153  0.7949  0.7336
  289MOL0     H38140   7.186   3.072   6.041  0.4684  1.5184  0.0971
  289MOL0     H38141   7.121   3.193   6.139 -0.3916 -0.9107 -0.2189
  289MOL0     H38142   7.303   3.021   6.243  0.1795  1.1016  2.8224
  289MOL0     H38143   7.186   2.904   6.238 -1.2671  0.8249  0.3638
  289MOL0     H38144   7.033   3.092   6.364 -0.1639  1.2377  1.0431
  289MOL0     H38145   7.152   3.010   6.474  0.2239  3.5977  2.2640
  289MOL0     H38146   7.350   3.355   6.513 -0.5859  2.6521 -2.0214
  289MOL0     H38147   6.762   2.984   5.996 -0.2149 -0.2473  1.0200
  289MOL0     H38148   6.558   2.860   6.002  1.5265  1.5891 -1.0269
  290MOL0     O38149   7.510   3.299   7.180 -0.7154  0.0228  0.1641
  290MOL0     C38150   7.570   3.218   7.249  0.1034 -0.0659  0.4861
  290MOL0     O38151   7.509   3.136   7.352  0.1875 -0.4392 -0.9135
  290MOL0     C38152   7.378   3.149   7.383 -0.1039  0.8293 -0.5270
  290MOL0     C38153   7.338   3.158   7.516  0.4764  0.0656 -0.2930
  290MOL0     C38154   7.200   3.182   7.541 -0.4807 -0.1686 -0.5935
  290MOL0     C38155   7.103   3.190   7.436  0.5903  0.3546 -0.4156
  290MOL0     O38156   6.971   3.218   7.462  0.5223  0.8565  0.1894
  290MOL0     C38157   6.926   3.274   7.586 -0.3119  0.3202 -0.4176
  290MOL0     C38158   6.897   3.157   7.677 -0.6970 -0.1875  0.2270
  290MOL0     C38159   6.856   3.201   7.814 -0.7771  0.5646 -0.1261
  290MOL0     C38160   6.713   3.269   7.814  0.7477  0.8578  0.9860
  290MOL0     C38161   6.692   3.353   7.933  0.0623  0.6576  0.2259
  290MOL0     C38162   6.677   3.269   8.059 -0.3567  1.0730 -0.1628
  290MOL0     C38163   6.649   3.349   8.186 -0.4166  0.0262  0.1803
  290MOL0     C38164   6.732   3.311   8.305  0.3896 -0.1128  0.2203
  290MOL0     N38165   6.705   3.178   8.354  0.3530  0.1492 -0.4418
  290MOL0     C38166   6.792   3.101   8.427  1.2995 -0.0769  0.5329
  290MOL0     C38167   6.716   3.013   8.491  0.1887  0.4836  0.4119
  290MOL0     C38168   6.769   2.933   8.604 -0.7003  0.0767 -1.1935
  290MOL0     C38169   6.774   2.789   8.562 -0.2341 -0.2291  0.4456
  290MOL0     C38170   6.816   2.688   8.672  0.0512  0.1416 -0.2316
  290MOL0     C38171   6.957   2.703   8.729 -0.8748  0.1368  0.7268
  290MOL0     O38172   7.061   2.745   8.635 -0.3823  0.5712  1.1637
  290MOL0     C38173   7.142   2.652   8.573  0.3560 -0.1154 -1.0557
  290MOL0     C38174   7.114   2.516   8.545  0.4966 -0.7279  1.0945
  290MOL0     C38175   7.211   2.423   8.500 -0.1343  0.2128  0.0074
  290MOL0     C38176   7.351   2.462   8.501  0.0041  0.3415  0.1710
  290MOL0     C38177   7.462   2.371   8.460  0.8461 -0.2594 -0.2795
  290MOL0     O38178   7.581   2.405   8.474 -0.4009  0.3565 -0.2930
  290MOL0     C38179   7.672   2.312   8.512 -1.3263 -0.8083  0.2921
  290MOL0     C38180   7.723   2.317   8.642  0.1556  1.2172 -0.6757
  290MOL0     C38181   7.838   2.232   8.670 -0.1396 -1.2382 -1.0669
  290MOL0     C38182   7.899   2.151   8.573 -0.7939  0.5786  0.1326
  290MOL0     O38183   8.001   2.059   8.596 -2.1234  0.4050  0.7503
  290MOL0     C38184   8.044   2.020   8.730 -0.4092 -0.3773  0.2819
  290MOL0     C38185   7.927   1.940   8.802 -1.2162  0.5491 -1.2087
  290MOL0     C38186   7.981   1.860   8.917  0.2308  0.0847 -0.8556
  290MOL0     C38187   7.861   1.783   8.986  0.7254  0.1379  0.6946
  290MOL0     C38188   7.825   1.656   8.901 -0.3974  0.7545  0.6003
  290MOL0     C38189   7.761   1.528   8.983 -0.6342  0.2980  0.0199
  290MOL0     C38190   7.864   1.465   9.079  0.0341  0.5281  0.4775
  290MOL0     C38191   7.877   1.317   9.068 -0.2077  0.5755  0.5357
  290MOL0    Cl38192   7.959   1.284   8.912 -0.3120 -0.2298 -0.0227
  290MOL0     C38193   7.858   2.163   8.441 -0.4855  0.4845 -0.7641
  290MOL0     C38194   7.746   2.247   8.409  0.6623  0.1980  0.8664
  290MOL0     O38195   7.427   2.266   8.410 -0.6813  1.1606  0.1609
  290MOL0     C38196   7.380   2.579   8.564 -0.7436 -0.6058 -0.4165
  290MOL0     C38197   7.280   2.675   8.601  0.4177 -0.7579  0.1433
  290MOL0     N38198   6.586   3.031   8.446 -0.2704  0.6402  0.3846
  290MOL0     N38199   6.585   3.131   8.366  0.2370 -0.9780 -0.7496
  290MOL0     C38200   7.147   3.175   7.305  1.1350 -0.5139  1.3502
  290MOL0     C38201   7.284   3.156   7.287 -0.3033  0.1166  0.1822
  290MOL0     C38202   7.715   3.213   7.240 -0.0024  0.9068 -0.9253
  290MOL0     C38203   7.779   3.286   7.129  0.9022  0.2354  0.0679
  290MOL0     C38204   7.921   3.292   7.119  0.7416 -1.1113 -0.3019
  290MOL0     C38205   8.003   3.236   7.215  0.0746  0.6642 -0.0810
  290MOL0     O38206   8.145   3.228   7.219  0.0097 -0.3434  0.3053
  290MOL0     C38207   8.216   3.287   7.108 -0.4323 -0.1547 -0.7693
  290MOL0     C38208   8.377   3.295   7.142 -0.5084 -0.4264  0.2182
  290MOL0     C38209   8.407   3.401   7.244  0.2427  0.3213  0.3535
  290MOL0     C38210   8.552   3.398   7.296  0.8258  0.2274  1.0279
  290MOL0     C38211   8.647   3.419   7.187 -0.1291  0.2068  0.2193
  290MOL0     C38212   8.721   3.423   7.092  0.3975 -0.3052 -0.1736
  290MOL0     C38213   7.941   3.185   7.335 -0.0531  0.6375  0.6564
  290MOL0     C38214   7.804   3.181   7.341 -0.1734 -0.4861 -0.7670
  290MOL0     H38215   7.416   3.158   7.592  0.5726  4.7299 -0.0889
  290MOL0     H38216   7.182   3.194   7.648  0.2419 -1.1448 -0.3431
  290MOL0     H38217   6.846   3.348   7.569  1.5916  2.4919 -0.3857
  290MOL0     H38218   7.008   3.337   7.621  0.3439  0.1548 -1.6114
  290MOL0     H38219   6.983   3.092   7.691 -0.1645  0.3179 -0.6211
  290MOL0     H38220   6.821   3.092   7.632 -0.6246  0.6540 -1.1559
  290MOL0     H38221   6.928   3.278   7.842 -0.3795  1.0994 -2.3873
  290MOL0     H38222   6.869   3.115   7.880  2.2002 -0.3676 -1.7559
  290MOL0     H38223   6.696   3.324   7.721  1.1378  3.4013  2.3332
  290MOL0     H38224   6.624   3.206   7.814 -0.1720  2.0930  1.8106
  290MOL0     H38225   6.608   3.421   7.915 -0.5397  0.4769  2.1444
  290MOL0     H38226   6.781   3.415   7.941  1.8671 -1.9403  2.0191
  290MOL0     H38227   6.763   3.201   8.066 -1.4142 -0.5538 -1.9063
  290MOL0     H38228   6.590   3.205   8.038  1.6023 -1.6660 -0.4431
  290MOL0     H38229   6.661   3.456   8.168 -0.2640  0.1712  1.1271
  290MOL0     H38230   6.543   3.339   8.211 -0.2228 -1.9018  0.3796
  290MOL0     H38231   6.709   3.377   8.390 -2.7135 -2.6964  1.5903
  290MOL0     H38232   6.837   3.326   8.278  0.3378 -0.2610 -0.0644
  290MOL0     H38233   6.898   3.119   8.437  1.1477  0.6575  0.9040
  290MOL0     H38234   6.706   2.942   8.693  1.3794 -2.2063  0.6703
  290MOL0     H38235   6.869   2.972   8.626 -1.1846  1.2486 -0.9929
  290MOL0     H38236   6.835   2.780   8.471 -1.3918 -4.4300 -0.1224
  290MOL0     H38237   6.667   2.769   8.555 -0.6068  0.7594  2.5751
  290MOL0     H38238   6.746   2.702   8.755  2.6210 -1.7237  2.4721
  290MOL0     H38239   6.798   2.585   8.640 -0.6053  0.3779 -0.6467
  290MOL0     H38240   6.997   2.614   8.778  0.7432 -0.3843 -1.3545
  290MOL0     H38241   6.955   2.792   8.791  2.4419 -0.9040  2.5874
  290MOL0     H38242   7.007   2.495   8.542  0.3918 -0.2771 -2.3484
  290MOL0     H38243   7.181   2.321   8.478 -2.1716  1.1568 -2.0874
  290MOL0     H38244   7.696   2.389   8.719 -1.8924  0.4600 -0.6436
  290MOL0     H38245   7.860   2.243   8.776 -3.8179  3.0351 -0.4241
  290MOL0     H38246   8.072   2.107   8.790 -1.6360  0.0801  0.2134
  290MOL0     H38247   8.127   1.950   8.718  1.3548  2.0823 -3.6685
  290MOL0     H38248   7.870   1.887   8.725 -2.6727  3.3274 -2.1764
  290MOL0     H38249   7.857   2.011   8.847 -0.5512 -1.0778  2.8862
  290MOL0     H38250   8.006   1.935   8.993  1.5181  2.1708 -3.1760
  290MOL0     H38251   8.070   1.800   8.896 -0.1900 -0.4229 -1.2265
  290MOL0     H38252   7.894   1.750   9.085 -1.4056 -0.9307  1.1075
  290MOL0     H38253   7.768   1.839   8.999  0.8889  0.0214  2.7020
  290MOL0     H38254   7.915   1.616   8.854 -2.0276 -3.1043  0.3932
  290MOL0     H38255   7.774   1.678   8.807  4.0044 -0.5968 -2.4235
  290MOL0     H38256   7.711   1.451   8.923 -3.1697  1.7786  0.0942
  290MOL0     H38257   7.679   1.569   9.043  1.3598  1.7263  1.9515
  290MOL0     H38258   7.963   1.511   9.067  0.1831  0.0430 -0.1896
  290MOL0     H38259   7.836   1.491   9.182 -0.6321  2.5027 -0.1500
  290MOL0     H38260   7.781   1.264   9.073 -1.8375  3.3563  1.2799
  290MOL0     H38261   7.948   1.279   9.141 -0.3106  0.8346  0.7764
  290MOL0     H38262   7.901   2.098   8.365 -4.0427  0.0565 -2.5942
  290MOL0     H38263   7.710   2.261   8.307 -0.7272 -2.3837  0.9120
  290MOL0     H38264   7.481   2.607   8.593 -1.0676 -2.2425  2.7205
  290MOL0     H38265   7.295   2.772   8.649 -4.0110  1.3228 -2.0644
  290MOL0     H38266   7.075   3.177   7.224  0.3617  1.4358  2.0345
  290MOL0     H38267   7.331   3.142   7.191  0.5394  0.8649  0.4737
  290MOL0     H38268   7.724   3.324   7.044 -1.7381  1.1335  2.0516
  290MOL0     H38269   7.968   3.353   7.043  0.5407  2.9874  2.5364
  290MOL0     H38270   8.172   3.385   7.094 -0.9284 -0.1394  0.6974
  290MOL0     H38271   8.191   3.228   7.019  1.5944  0.4141 -1.7614
  290MOL0     H38272   8.408   3.193   7.167  1.7118  0.1741  0.1201
  290MOL0     H38273   8.432   3.306   7.048  1.6760 -0.6339  1.4171
  290MOL0     H38274   8.344   3.375   7.329 -1.0483 -1.7388 -1.1589
  290MOL0     H38275   8.377   3.505   7.226  1.8871  0.3467 -2.8763
  290MOL0     H38276   8.543   3.480   7.367 -0.0134 -0.7177  2.0569
  290MOL0     H38277   8.581   3.297   7.329  1.6465 -0.4517 -1.5071
  290MOL0     H38278   8.792   3.397   7.016  2.3243 -1.8816  2.0370
  290MOL0     H38279   8.017   3.148   7.404 -0.4746 -2.5442 -0.3935
  290MOL0     H38280   7.755   3.145   7.431 -1.1576 -0.3951 -1.2468
  291MOL0     O38281   9.565   9.071   9.276  0.6564  0.3232 -0.5545
  291MOL0     C38282   9.614   8.956   9.273 -0.1292  0.0863 -0.4361
  291MOL0     O38283   9.756   8.933   9.286  0.1414  0.3607 -0.1561
  291MOL0     C38284   9.825   9.047   9.313 -0.5428  0.3104 -0.3860
  291MOL0     C38285   9.880   9.059   9.442  0.4106 -0.9194 -0.5887
  291MOL0     C38286   9.934   9.177   9.481 -0.8387 -0.6434 -0.2576
  291MOL0     C38287   9.932   9.293   9.398 -1.0845  0.4165  0.1956
  291MOL0     O38288   9.998   9.409   9.447  0.4111 -0.2094 -0.7642
  291MOL0     C38289  10.059   9.509   9.365  0.3719  0.2618  0.5056
  291MOL0     C38290   9.968   9.597   9.281 -0.1214  0.5999 -0.5625
  291MOL0     C38291   9.890   9.707   9.375 -0.5447  0.8937  0.8155
  291MOL0     C38292   9.793   9.786   9.293 -0.9884 -0.6266 -0.3299
  291MOL0     C38293   9.724   9.876   9.401  0.1733  0.3513  0.4563
  291MOL0     C38294   9.623   9.970   9.323 -0.0708 -0.4623 -0.5472
  291MOL0     C38295   9.555  10.074   9.414 -0.6112  0.4808 -0.7830
  291MOL0     C38296   9.658  10.170   9.473  0.2291 -0.1675 -1.0586
  291MOL0     N38297   9.617  10.207   9.615 -0.3382 -0.0519  0.0871
  291MOL0     C38298   9.503  10.278   9.653  0.6380 -0.5256 -0.1437
  291MOL0     C38299   9.506  10.282   9.793  0.0582  0.1811 -0.0547
  291MOL0     C38300   9.415  10.350   9.888  0.7560  0.0050  0.1835
  291MOL0     C38301   9.270  10.349   9.834  0.0497 -0.6074  0.3151
  291MOL0     C38302   9.199  10.214   9.867 -0.7661 -2.1464 -1.1536
  291MOL0     C38303   9.052  10.198   9.824  0.8330 -0.5506 -0.6641
  291MOL0     O38304   9.023  10.244   9.692 -0.0479 -0.7409 -0.3557
  291MOL0     C38305   9.052  10.178   9.578 -0.3409 -0.5922 -0.9306
  291MOL0     C38306   9.040  10.257   9.466  0.5848  0.7491  0.7518
  291MOL0     C38307   9.072  10.208   9.342  0.1521  0.5624 -0.2824
  291MOL0     C38308   9.135  10.079   9.331 -0.3128 -0.1123 -0.4047
  291MOL0     C38309   9.154  10.012   9.196  0.3319  0.0089 -0.0051
  291MOL0     O38310   9.226   9.890   9.190 -0.9270 -0.0741  0.4383
  291MOL0     C38311   9.251   9.818   9.070  0.3566  0.4878 -0.8964
  291MOL0     C38312   9.303   9.686   9.083 -0.6479  0.7452 -0.5007
  291MOL0     C38313   9.304   9.599   8.975  0.3562 -0.0410  0.7015
  291MOL0     C38314   9.271   9.646   8.847 -0.0632  0.7028  1.2793
  291MOL0     O38315   9.256   9.562   8.736  0.0391 -0.4467 -0.5186
  291MOL0     C38316   9.187   9.438   8.767  0.6032 -0.4896  0.7183
  291MOL0     C38317   9.081   9.412   8.650  0.0967  1.1021 -0.9665
  291MOL0     C38318   9.014   9.270   8.672  0.3906 -0.3576  0.6567
  291MOL0     C38319   8.892   9.238   8.580 -0.3643 -1.7506 -0.3170
  291MOL0     C38320   8.828   9.102   8.614  0.5437 -0.6665 -0.2511
  291MOL0     C38321   8.732   9.057   8.512 -0.9539  0.2025  0.2020
  291MOL0     C38322   8.593   9.109   8.538 -0.4437  0.2145 -0.7254
  291MOL0     C38323   8.551   9.235   8.474 -0.7153 -0.6446  0.4054
  291MOL0    Cl38324   8.365   9.235   8.465  0.6907  0.2172  0.4485
  291MOL0     C38325   9.242   9.776   8.823 -1.4175  0.2311 -0.7826
  291MOL0     C38326   9.231   9.868   8.938 -0.5726 -0.6212  0.5571
  291MOL0     O38327   9.102  10.077   9.105  0.6404  0.7051  0.7231
  291MOL0     C38328   9.147  10.007   9.448 -0.0572  0.4253 -0.5252
  291MOL0     C38329   9.113  10.053   9.577  1.0356 -0.7602  0.6845
  291MOL0     N38330   9.638  10.257   9.830 -0.6148 -0.3974 -0.7007
  291MOL0     N38331   9.694  10.212   9.726  0.1306  0.9018 -0.0937
  291MOL0     C38332   9.893   9.277   9.268 -0.0675 -0.0328 -0.5558
  291MOL0     C38333   9.841   9.156   9.224  0.6219  0.2672 -0.4966
  291MOL0     C38334   9.517   8.839   9.243 -0.2865 -0.5742  0.1600
  291MOL0     C38335   9.374   8.846   9.231 -0.2507  0.4913 -0.2213
  291MOL0     C38336   9.294   8.744   9.188  0.9132  0.3261 -0.0327
  291MOL0     C38337   9.348   8.618   9.150  0.9653 -0.1363  0.1276
  291MOL0     O38338   9.269   8.505   9.106 -0.0779  0.1111 -0.1647
  291MOL0     C38339   9.136   8.508   9.065  0.4659 -0.0787 -0.8491
  291MOL0     C38340   9.043   8.486   9.193 -0.2482  0.3861  0.0137
  291MOL0     C38341   8.893   8.475   9.158  0.0945  0.2766 -0.3119
  291MOL0     C38342   8.819   8.480   9.294  0.2192 -0.2860 -0.3753
  291MOL0     C38343   8.673   8.456   9.286 -0.4264 -0.6684 -0.2887
  291MOL0     C38344   8.550   8.451   9.282 -0.2508  0.0494 -0.1546
  291MOL0     C38345   9.484   8.614   9.159 -0.6241 -0.0329  0.5203
  291MOL0     C38346   9.569   8.713   9.209 -0.5644 -0.3454 -0.4793
  291MOL0     H38347   9.873   8.977   9.513  0.8548  0.0839  0.6575
  291MOL0     H38348   9.956   9.188   9.587 -1.2794  0.9406 -0.3086
  291MOL0     H38349  10.132   9.454   9.305 -2.3502 -0.6402 -2.2781
  291MOL0     H38350  10.117   9.578   9.427 -0.4154  2.1904 -0.8281
  291MOL0     H38351   9.888   9.544   9.228 -2.0273  3.8471 -1.2106
  291MOL0     H38352  10.008   9.653   9.196 -4.0489 -2.3038 -4.7980
  291MOL0     H38353   9.964   9.774   9.419  1.0125 -0.7915  0.8717
  291MOL0     H38354   9.831   9.645   9.444 -4.9984 -0.7603 -3.8117
  291MOL0     H38355   9.847   9.853   9.225 -0.4218 -1.9798 -1.2420
  291MOL0     H38356   9.722   9.718   9.246 -1.1569 -0.0528 -0.9103
  291MOL0     H38357   9.799   9.927   9.462 -0.7786  1.0277  1.0976
  291MOL0     H38358   9.664   9.814   9.469 -1.0357 -0.2261 -1.0626
  291MOL0     H38359   9.553   9.898   9.281 -0.8363 -0.1127  0.1139
  291MOL0     H38360   9.674  10.027   9.245 -2.4869  2.1859 -0.3384
  291MOL0     H38361   9.474  10.125   9.362 -2.8051 -3.0319 -1.0962
  291MOL0     H38362   9.509  10.019   9.495 -0.5897  0.1785 -0.9753
  291MOL0     H38363   9.674  10.264   9.418 -1.9594  0.9508  0.1016
  291MOL0     H38364   9.757  10.125   9.481  0.1502 -0.1536  0.1799
  291MOL0     H38365   9.419  10.297   9.588 -0.5653  0.6487  1.6632
  291MOL0     H38366   9.439  10.456   9.900 -3.1712  0.9842  0.8825
  291MOL0     H38367   9.418  10.291   9.980 -0.9758  0.1461  0.3663
  291MOL0     H38368   9.274  10.372   9.727 -1.7528  3.0841  0.8796
  291MOL0     H38369   9.207  10.426   9.881 -0.8307 -1.7393  1.0414
  291MOL0     H38370   9.248  10.139   9.805  4.3201 -0.9228  0.8511
  291MOL0     H38371   9.223  10.191   9.971  1.0191 -0.4946 -1.1371
  291MOL0     H38372   8.993  10.263   9.890  2.0375 -0.9430  0.8644
  291MOL0     H38373   9.018  10.095   9.835  2.2223 -0.9827 -0.2216
  291MOL0     H38374   9.007  10.360   9.481  0.6340  0.7559  0.8128
  291MOL0     H38375   9.046  10.273   9.259 -0.6071  1.6432  0.7685
  291MOL0     H38376   9.329   9.651   9.182 -2.3247  0.9405  0.0378
  291MOL0     H38377   9.328   9.493   8.985 -1.2880 -0.3391  1.9541
  291MOL0     H38378   9.132   9.434   8.862  3.0110 -0.6954  2.2015
  291MOL0     H38379   9.262   9.359   8.777  4.0101  2.6407  2.5798
  291MOL0     H38380   9.125   9.396   8.550 -1.4131 -0.1759 -1.4669
  291MOL0     H38381   9.003   9.488   8.656  0.1321  1.0821 -0.2783
  291MOL0     H38382   8.977   9.279   8.775 -0.1030 -0.5275  0.4964
  291MOL0     H38383   9.089   9.190   8.666  1.4713  0.5617  1.3630
  291MOL0     H38384   8.826   9.325   8.587  3.4665  1.4321 -0.4911
  291MOL0     H38385   8.927   9.239   8.477  4.1380 -1.6084  1.0245
  291MOL0     H38386   8.782   9.103   8.713  0.6638 -2.9989 -0.1253
  291MOL0     H38387   8.910   9.030   8.613 -0.6006 -2.1321  2.7089
  291MOL0     H38388   8.729   8.948   8.503 -0.2659  0.3591 -3.1205
  291MOL0     H38389   8.768   9.081   8.411  2.4208  1.2835  1.5164
  291MOL0     H38390   8.524   9.029   8.510 -0.8815  1.0022 -1.9648
  291MOL0     H38391   8.587   9.113   8.647  1.8553  2.9392 -0.5629
  291MOL0     H38392   8.580   9.242   8.369 -2.6605 -1.1703 -0.2194
  291MOL0     H38393   8.599   9.321   8.521  1.8939 -1.0587 -1.2814
  291MOL0     H38394   9.228   9.792   8.716  1.0620 -0.4302 -1.2642
  291MOL0     H38395   9.196   9.967   8.911  2.9457 -0.1673 -3.4141
  291MOL0     H38396   9.188   9.909   9.427 -0.3306  0.1192  0.3582
  291MOL0     H38397   9.125   9.992   9.666  2.4095 -1.8535 -0.2168
  291MOL0     H38398   9.896   9.348   9.186 -2.8622 -0.7393 -1.3774
  291MOL0     H38399   9.795   9.153   9.126 -2.6181 -2.3747  0.9293
  291MOL0     H38400   9.329   8.944   9.243  0.0177  0.5593  0.2750
  291MOL0     H38401   9.189   8.767   9.173 -0.0059 -3.0278  0.4561
  291MOL0     H38402   9.122   8.437   8.983  0.9085  0.1324 -1.1095
  291MOL0     H38403   9.113   8.608   9.025  2.6069  0.6576 -0.3715
  291MOL0     H38404   9.060   8.385   9.230 -1.8848  0.1404  0.1396
  291MOL0     H38405   9.058   8.556   9.276  2.3290  0.7555 -0.6656
  291MOL0     H38406   8.879   8.380   9.107 -0.4846  1.2036 -1.9864
  291MOL0     H38407   8.873   8.551   9.082  3.5233 -0.3120 -1.9982
  291MOL0     H38408   8.854   8.399   9.358 -0.9112  1.0816  2.1273
  291MOL0     H38409   8.835   8.581   9.335 -1.8036 -0.7426  1.7644
  291MOL0     H38410   8.444   8.462   9.279 -0.6408 -2.6613 -3.8199
  291MOL0     H38411   9.541   8.523   9.142  1.0178  0.8644  0.9475
  291MOL0     H38412   9.674   8.692   9.228 -0.8924 -0.0787  1.8245
  292MOL0     O38413   1.555  10.202  10.679  0.4826  0.0068  0.0487
  292MOL0     C38414   1.589  10.150  10.569  0.4290 -0.9131  0.8284
  292MOL0     O38415   1.512  10.060  10.498  0.5185  0.1368  0.2629
  292MOL0     C38416   1.409  10.011  10.570 -0.0880 -0.2340  0.0287
  292MOL0     C38417   1.304  10.095  10.607 -0.3242  0.6312 -0.1980
  292MOL0     C38418   1.210  10.048  10.699  0.0599  0.4882 -0.9439
  292MOL0     C38419   1.211   9.919  10.749  0.2238  0.7452 -0.6451
  292MOL0     O38420   1.110   9.886  10.829  0.4403 -0.1714 -0.2531
  292MOL0     C38421   1.144   9.788  10.922 -0.0903 -0.1647 -0.2134
  292MOL0     C38422   1.039   9.761  11.031  0.5079 -0.7033  0.8381
  292MOL0     C38423   1.080   9.832  11.159  0.1428 -0.8390  0.1912
  292MOL0     C38424   0.966   9.834  11.263  0.5583 -0.0295  0.0445
  292MOL0     C38425   0.954   9.704  11.339  1.2102  0.1650 -0.5321
  292MOL0     C38426   0.811   9.715  11.423 -0.1864  0.8069 -0.1305
  292MOL0     C38427   0.801   9.587  11.520  0.3026 -0.2695  0.3445
  292MOL0     C38428   0.878   9.588  11.647  0.3025 -0.4900  0.2365
  292MOL0     N38429   0.866   9.718  11.715  0.7176  0.0436  0.4373
  292MOL0     C38430   0.974   9.801  11.717  0.3755 -0.0804 -1.3212
  292MOL0     C38431   0.927   9.921  11.775  0.2239  0.5218 -0.9773
  292MOL0     C38432   1.015  10.045  11.819  0.5756  0.5660 -1.7061
  292MOL0     C38433   1.098  10.100  11.699 -0.1284 -0.1655  0.0097
  292MOL0     C38434   1.191  10.211  11.741  0.7117 -0.4795 -1.1472
  292MOL0     C38435   1.257  10.270  11.625  0.1072 -0.2861 -0.7042
  292MOL0     O38436   1.318  10.389  11.680  0.0223 -0.7519 -0.3468
  292MOL0     C38437   1.354  10.483  11.583 -0.4364  0.6282  0.5151
  292MOL0     C38438   1.422  10.449  11.472 -0.5952  0.4197  1.3863
  292MOL0     C38439   1.471  10.541  11.381 -0.0973 -0.2925  0.1890
  292MOL0     C38440   1.452  10.674  11.404 -0.4745 -0.0774  0.3586
  292MOL0     C38441   1.500  10.774  11.310 -0.2976 -0.6018  0.3999
  292MOL0     O38442   1.505  10.731  11.182 -0.2107 -0.4567 -0.6119
  292MOL0     C38443   1.573  10.805  11.094  0.0265  0.3979 -0.4299
  292MOL0     C38444   1.514  10.872  10.990  0.0216  0.6655  1.0813
  292MOL0     C38445   1.588  10.933  10.893  0.3638  0.7780  0.7773
  292MOL0     C38446   1.724  10.919  10.887 -0.6933 -0.3510  0.5000
  292MOL0     O38447   1.813  10.970  10.795 -0.7008 -0.4378  0.8522
  292MOL0     C38448   1.743  11.037  10.680 -0.1688  0.0440  0.0092
  292MOL0     C38449   1.844  11.117  10.589 -1.1189  0.4894 -0.5650
  292MOL0     C38450   1.895  11.237  10.662 -0.5451 -0.1094  0.5192
  292MOL0     C38451   1.974  11.323  10.560 -0.5607 -0.6122  0.1793
  292MOL0     C38452   2.027  11.441  10.642  0.5945 -0.7545  0.1645
  292MOL0     C38453   2.085  11.559  10.563 -0.3836 -0.4732 -0.5111
  292MOL0     C38454   2.103  11.687  10.643  0.4260  0.6269  0.4531
  292MOL0     C38455   2.146  11.800  10.549 -0.4661  0.5812 -0.0683
  292MOL0    Cl38456   2.308  11.778  10.475 -0.3057 -0.3670 -0.7556
  292MOL0     C38457   1.786  10.845  10.984  0.4024  0.2979 -0.3216
  292MOL0     C38458   1.713  10.783  11.088 -0.1875 -0.2726  0.7004
  292MOL0     O38459   1.518  10.893  11.343  0.2245  0.5012  0.3761
  292MOL0     C38460   1.368  10.716  11.511  0.1644 -0.5886  1.0724
  292MOL0     C38461   1.318  10.617  11.597  0.1866  0.0557  0.5833
  292MOL0     N38462   0.797   9.893  11.825 -0.0776 -0.2041 -0.1199
  292MOL0     N38463   0.760   9.772  11.779 -0.3536  0.9494  0.1108
  292MOL0     C38464   1.315   9.830  10.692  0.4255 -0.0560  0.1654
  292MOL0     C38465   1.414   9.879  10.609 -0.1477 -0.3434  0.9102
  292MOL0     C38466   1.721  10.186  10.510  0.0577  0.3036 -0.2598
  292MOL0     C38467   1.746  10.164  10.377 -0.0763 -0.4424 -0.1359
  292MOL0     C38468   1.861  10.199  10.313 -0.1259 -1.0501  0.6226
  292MOL0     C38469   1.958  10.263  10.389 -1.0173 -0.5839  0.8304
  292MOL0     O38470   2.083  10.263  10.331 -0.3477  0.2173  0.5842
  292MOL0     C38471   2.176  10.358  10.369 -0.2542  0.6334 -0.3775
  292MOL0     C38472   2.289  10.382  10.266  0.0874  0.3318  0.5487
  292MOL0     C38473   2.353  10.253  10.237  0.6319  0.2974  0.2336
  292MOL0     C38474   2.476  10.263  10.144  0.7122 -0.7412 -0.9039
  292MOL0     C38475   2.598  10.301  10.212 -0.0198  1.1118  0.3050
  292MOL0     C38476   2.703  10.338  10.275  0.5748  0.0634 -0.0739
  292MOL0     C38477   1.933  10.300  10.519  0.5833 -0.0443 -0.4501
  292MOL0     C38478   1.815  10.262  10.584 -0.4544 -0.6378  0.3393
  292MOL0     H38479   1.292  10.196  10.567 -2.5913  1.2735  1.8805
  292MOL0     H38480   1.140  10.123  10.735 -0.1488  0.0364 -0.4063
  292MOL0     H38481   1.240   9.818  10.965 -0.5285 -0.8466  1.3343
  292MOL0     H38482   1.159   9.692  10.872  0.6846 -0.2843  0.2416
  292MOL0     H38483   1.036   9.653  11.047 -1.0778 -0.8038  0.1066
  292MOL0     H38484   0.944   9.797  10.990  2.4279  3.6441 -0.3850
  292MOL0     H38485   1.105   9.937  11.143 -1.3819 -0.0485  2.5200
  292MOL0     H38486   1.170   9.792  11.208 -0.2348 -0.9176  0.8395
  292MOL0     H38487   0.989   9.919  11.326 -1.2591  0.3956  0.2007
  292MOL0     H38488   0.868   9.854  11.217  1.0506  1.4923 -0.3702
  292MOL0     H38489   1.034   9.670  11.405 -2.4480 -1.8883  3.3388
  292MOL0     H38490   0.945   9.617  11.274  2.4655 -0.6147  0.2991
  292MOL0     H38491   0.722   9.711  11.360  0.1035  0.9968 -0.5551
  292MOL0     H38492   0.806   9.806  11.484 -0.5284  0.6940  0.0113
  292MOL0     H38493   0.700   9.560  11.550  0.4426 -4.6922 -2.3133
  292MOL0     H38494   0.842   9.507  11.458  2.7552 -0.8050  2.4738
  292MOL0     H38495   0.985   9.571  11.629  0.1517 -1.1075 -0.0760
  292MOL0     H38496   0.837   9.510  11.711  1.2670 -1.7251 -0.5932
  292MOL0     H38497   1.080   9.777  11.711  1.5925  3.3722  2.2077
  292MOL0     H38498   1.091  10.018  11.892 -2.9054 -0.4270  1.9308
  292MOL0     H38499   0.963  10.129  11.867 -0.2887 -0.7562 -0.2225
  292MOL0     H38500   1.031  10.136  11.621 -1.1893  1.3397  1.5213
  292MOL0     H38501   1.159  10.017  11.663  0.7336  1.2660 -1.9495
  292MOL0     H38502   1.133  10.288  11.792  1.3290 -1.3889  1.0529
  292MOL0     H38503   1.254  10.167  11.819 -0.2359 -1.9492 -1.1620
  292MOL0     H38504   1.184  10.305  11.551  2.4895  1.6258 -2.3207
  292MOL0     H38505   1.339  10.211  11.582 -0.4296 -1.1800 -0.4980
  292MOL0     H38506   1.450  10.345  11.459  3.4129  1.5209 -0.3964
  292MOL0     H38507   1.521  10.489  11.300  0.3706  0.6008 -0.1093
  292MOL0     H38508   1.406  10.876  10.979 -0.0353  0.4042  1.5707
  292MOL0     H38509   1.527  10.973  10.812 -1.0598 -3.5131 -0.5889
  292MOL0     H38510   1.661  11.103  10.710  0.6812  0.4401  1.5594
  292MOL0     H38511   1.698  10.966  10.610  2.2087  1.2305 -2.9601
  292MOL0     H38512   1.795  11.157  10.499 -1.8173 -1.6018 -1.1783
  292MOL0     H38513   1.929  11.055  10.558 -0.3636  1.7955 -1.1659
  292MOL0     H38514   1.959  11.206  10.746 -0.3969 -1.6420 -0.1135
  292MOL0     H38515   1.807  11.296  10.690  0.3940  1.8612 -0.4965
  292MOL0     H38516   2.050  11.277  10.497  0.0996  0.6335  0.0307
  292MOL0     H38517   1.899  11.368  10.493  2.0568  1.2344 -1.7103
  292MOL0     H38518   2.096  11.403  10.718 -1.5731  0.7031  3.0197
  292MOL0     H38519   1.947  11.488  10.699  0.3033 -0.4147 -0.5144
  292MOL0     H38520   2.014  11.581  10.483 -0.2880 -0.3368 -0.5593
  292MOL0     H38521   2.177  11.528  10.512 -0.4039  1.2221 -1.6999
  292MOL0     H38522   2.013  11.711  10.700 -1.0051  0.1629 -1.5062
  292MOL0     H38523   2.189  11.668  10.708 -0.0572  1.9942  1.5346
  292MOL0     H38524   2.160  11.893  10.605  3.5259  1.7059 -2.5554
  292MOL0     H38525   2.066  11.804  10.474 -1.0318 -3.1296  0.1715
  292MOL0     H38526   1.889  10.821  10.961  0.1499 -0.3628 -0.7702
  292MOL0     H38527   1.768  10.727  11.163  2.5653 -0.1792 -1.1034
  292MOL0     H38528   1.331  10.818  11.509  0.4038 -0.5075  0.1946
  292MOL0     H38529   1.230  10.651  11.650 -2.5288 -1.8936 -2.3208
  292MOL0     H38530   1.328   9.727  10.724 -1.8921 -1.0602 -1.7940
  292MOL0     H38531   1.501   9.825  10.572  0.2991  1.7795 -1.4464
  292MOL0     H38532   1.675  10.101  10.325 -1.9833 -0.1601  1.9921
  292MOL0     H38533   1.883  10.163  10.213 -0.4358 -0.0946  0.2007
  292MOL0     H38534   2.220  10.320  10.461  1.0801  4.0439  0.5485
  292MOL0     H38535   2.129  10.453  10.395 -1.1279  0.7836 -2.2820
  292MOL0     H38536   2.249  10.426  10.174 -1.3829  0.2275  1.1037
  292MOL0     H38537   2.361  10.446  10.316  1.1386  0.2191 -0.7802
  292MOL0     H38538   2.274  10.208  10.177  1.5085 -0.3444 -0.4657
  292MOL0     H38539   2.370  10.197  10.330  2.5004 -1.0616 -0.8522
  292MOL0     H38540   2.485  10.161  10.105  2.7655 -0.0265 -2.4803
  292MOL0     H38541   2.446  10.329  10.063 -3.1328 -0.4921  0.5118
  292MOL0     H38542   2.798  10.362  10.320  0.9087 -0.9645 -0.2015
  292MOL0     H38543   2.008  10.359  10.569  1.2004 -1.2925  0.1539
  292MOL0     H38544   1.791  10.285  10.687 -4.0995  2.8630 -1.0375
  293MOL0     O38545   1.328   9.960   9.358  0.1953  0.8164 -0.0703
  293MOL0     C38546   1.331  10.086   9.349 -0.3245 -1.2042  0.0574
  293MOL0     O38547   1.369  10.175   9.448 -0.4846  0.0174  0.5314
  293MOL0     C38548   1.406  10.132   9.572  0.2252  0.1512  0.6488
  293MOL0     C38549   1.354  10.194   9.683  0.1624  0.3915  0.0269
  293MOL0     C38550   1.416  10.174   9.811  0.3025  0.3160 -0.0195
  293MOL0     C38551   1.516  10.082   9.821 -0.5330  0.2107  0.0616
  293MOL0     O38552   1.573  10.062   9.944 -0.3235 -0.7512 -0.6448
  293MOL0     C38553   1.628   9.932   9.986 -0.1576 -0.9525 -0.0008
  293MOL0     C38554   1.512   9.831  10.015  0.4705  0.5967 -0.0041
  293MOL0     C38555   1.443   9.766   9.893  0.2869  0.1593  0.6310
  293MOL0     C38556   1.373   9.633   9.922  0.8160 -0.3175 -0.4130
  293MOL0     C38557   1.291   9.637  10.038  0.5106 -0.2653 -0.9917
  293MOL0     C38558   1.228   9.501  10.072  0.3719 -0.7568 -0.1919
  293MOL0     C38559   1.139   9.423   9.962 -0.2689  0.2553  0.5726
  293MOL0     C38560   1.074   9.304  10.026 -0.2613  1.2233  0.4533
  293MOL0     N38561   1.163   9.221  10.110  0.6095  0.6120  0.2311
  293MOL0     C38562   1.213   9.099  10.060  0.4393 -0.8497  0.9791
  293MOL0     C38563   1.309   9.053  10.150 -0.0958 -0.5191  0.8394
  293MOL0     C38564   1.371   8.916  10.148 -0.3522  0.6987  0.0228
  293MOL0     C38565   1.289   8.825  10.245 -0.6374 -0.6272  0.3778
  293MOL0     C38566   1.357   8.691  10.265 -0.2600 -0.4601  0.2104
  293MOL0     C38567   1.487   8.699  10.340 -0.0011  0.2003 -0.2515
  293MOL0     O38568   1.496   8.581  10.421 -0.3947  0.0022  0.1134
  293MOL0     C38569   1.619   8.538  10.466 -0.2841  0.4469 -0.3189
  293MOL0     C38570   1.638   8.431  10.563 -0.7875 -0.4466  0.3382
  293MOL0     C38571   1.766   8.404  10.622  0.6656  0.6124 -0.0883
  293MOL0     C38572   1.885   8.469  10.579 -0.4469  0.0505  0.3737
  293MOL0     C38573   2.019   8.446  10.644  0.4174  0.0969  0.3302
  293MOL0     O38574   2.011   8.371  10.759  0.1469 -0.3395 -0.3817
  293MOL0     C38575   2.115   8.340  10.837 -0.5044  0.1067  0.2604
  293MOL0     C38576   2.164   8.209  10.839 -0.4753  0.2974 -0.3281
  293MOL0     C38577   2.258   8.163  10.922 -0.1934  0.8513 -0.1959
  293MOL0     C38578   2.328   8.256  11.015 -0.5657 -0.3987  0.7223
  293MOL0     O38579   2.418   8.224  11.110  0.0561 -0.7093  0.0670
  293MOL0     C38580   2.515   8.120  11.072  0.4545  0.4671  0.1829
  293MOL0     C38581   2.627   8.099  11.168 -0.3709 -0.7343 -0.1149
  293MOL0     C38582   2.593   8.033  11.299 -0.3954 -0.2110  0.2171
  293MOL0     C38583   2.718   8.012  11.386  0.3279  0.0935  0.6001
  293MOL0     C38584   2.707   7.906  11.499 -0.2548  0.3426 -0.1141
  293MOL0     C38585   2.694   7.770  11.426 -0.0242 -0.2170  0.0039
  293MOL0     C38586   2.689   7.651  11.522 -0.2694 -0.6743  0.1005
  293MOL0     C38587   2.581   7.665  11.629 -0.6574  0.3794 -0.7781
  293MOL0    Cl38588   2.582   7.525  11.734 -0.0626 -0.0332  0.3846
  293MOL0     C38589   2.298   8.399  11.001 -0.5488 -0.4744 -0.4348
  293MOL0     C38590   2.190   8.433  10.919 -0.0986 -1.2422  0.5391
  293MOL0     O38591   2.128   8.484  10.592  0.5462  0.7032 -0.1376
  293MOL0     C38592   1.869   8.566  10.476  0.5434 -0.1474 -0.1040
  293MOL0     C38593   1.743   8.600  10.429 -0.6358  0.7645  0.0290
  293MOL0     N38594   1.302   9.136  10.261  0.1059  0.2849  0.0082
  293MOL0     N38595   1.206   9.228  10.239  0.1384  0.0334  0.2398
  293MOL0     C38596   1.561  10.009   9.711 -0.7103  0.6460  0.6653
  293MOL0     C38597   1.515  10.038   9.585  0.2072  0.2595  0.2308
  293MOL0     C38598   1.292  10.149   9.215  0.1091  0.4206  0.0267
  293MOL0     C38599   1.294  10.079   9.091  0.1940 -0.2275 -0.5178
  293MOL0     C38600   1.237  10.123   8.968  0.3031  0.4452 -0.7903
  293MOL0     C38601   1.185  10.256   8.967  0.6313  0.5650  0.6911
  293MOL0     O38602   1.132  10.310   8.850  0.1637 -0.0735 -0.9517
  293MOL0     C38603   1.171  10.273   8.719  0.1389  0.2393  0.1187
  293MOL0     C38604   1.083  10.173   8.656  0.0294  0.1078  0.0386
  293MOL0     C38605   1.119  10.151   8.516 -0.4629  0.3943  0.9456
  293MOL0     C38606   1.031  10.053   8.435 -0.7104  0.3463  0.2218
  293MOL0     C38607   1.036  10.069   8.289  0.0697  0.7345 -0.6536
  293MOL0     C38608   1.041  10.081   8.165  0.5136 -0.3362  0.5570
  293MOL0     C38609   1.181  10.326   9.088 -0.8793  0.0185  1.1188
  293MOL0     C38610   1.232  10.274   9.202  1.3176  0.3648  0.4705
  293MOL0     H38611   1.288  10.280   9.669 -0.1729  0.2170  0.4902
  293MOL0     H38612   1.400  10.243   9.894  3.2872  0.6733  0.4023
  293MOL0     H38613   1.688   9.956  10.075 -0.4263 -0.6782  0.1105
  293MOL0     H38614   1.686   9.891   9.903 -3.5202 -0.4676 -2.8167
  293MOL0     H38615   1.448   9.858  10.099  2.3560 -3.2703  3.0139
  293MOL0     H38616   1.556   9.743  10.062 -1.5015  0.6214  2.0517
  293MOL0     H38617   1.506   9.753   9.804 -3.1376  2.3277 -2.4432
  293MOL0     H38618   1.368   9.839   9.859  1.3214  0.0994 -2.0877
  293MOL0     H38619   1.311   9.598   9.840 -0.2781 -2.3059  1.1817
  293MOL0     H38620   1.446   9.554   9.938 -0.6379 -2.0812 -2.1314
  293MOL0     H38621   1.212   9.712  10.026 -0.7433 -1.5709 -1.2424
  293MOL0     H38622   1.350   9.664  10.127  1.1947  1.8847 -2.0218
  293MOL0     H38623   1.171   9.517  10.164  1.3090  0.0916  0.2571
  293MOL0     H38624   1.304   9.433  10.110  2.8037 -0.0897 -3.4651
  293MOL0     H38625   1.064   9.492   9.922  0.7721  2.4534  2.1878
  293MOL0     H38626   1.207   9.399   9.879  0.2056  1.0371  0.7222
  293MOL0     H38627   1.022   9.258   9.941  0.5367 -0.8234  1.0143
  293MOL0     H38628   1.007   9.343  10.103  2.1528  3.4643  1.5890
  293MOL0     H38629   1.194   9.046   9.967 -2.7014 -1.2850  1.7380
  293MOL0     H38630   1.478   8.912  10.172 -0.0959  1.7755 -0.8746
  293MOL0     H38631   1.371   8.880  10.045 -0.9252 -2.5697  1.0221
  293MOL0     H38632   1.188   8.823  10.205 -0.6161  1.8335  0.0165
  293MOL0     H38633   1.274   8.883  10.337 -2.7869  1.4152 -1.1521
  293MOL0     H38634   1.298   8.626  10.330  0.2186 -1.9714 -0.8139
  293MOL0     H38635   1.367   8.646  10.166  0.5471  1.0157 -0.4114
  293MOL0     H38636   1.462   8.782  10.406 -2.9651 -0.2919 -0.5843
  293MOL0     H38637   1.570   8.719  10.272 -0.6080  0.0027 -1.0753
  293MOL0     H38638   1.552   8.379  10.604 -0.1465 -1.7825  0.0327
  293MOL0     H38639   1.775   8.316  10.685  0.0989 -0.4661 -1.4632
  293MOL0     H38640   2.122   8.128  10.780  1.3292  0.7947 -2.4457
  293MOL0     H38641   2.273   8.057  10.933  1.2023  0.7863 -2.2974
  293MOL0     H38642   2.569   8.162  10.987  0.6124  0.7855  0.4409
  293MOL0     H38643   2.457   8.031  11.047 -4.8883  2.9278  2.2141
  293MOL0     H38644   2.686   8.189  11.187  0.2459 -0.8612 -1.3106
  293MOL0     H38645   2.684   8.021  11.117  0.8843  0.5664 -0.7861
  293MOL0     H38646   2.544   7.936  11.287 -0.5939 -0.1090  0.1905
  293MOL0     H38647   2.516   8.095  11.347 -0.6454  0.8722 -1.4828
  293MOL0     H38648   2.793   7.976  11.315 -1.4296  0.0654 -1.3577
  293MOL0     H38649   2.756   8.110  11.415 -1.5656  1.6453 -1.7170
  293MOL0     H38650   2.617   7.928  11.557 -2.1713 -1.0444 -2.3963
  293MOL0     H38651   2.793   7.896  11.566  0.2960 -1.1479 -0.9897
  293MOL0     H38652   2.786   7.754  11.370  0.5905 -5.2100  1.9266
  293MOL0     H38653   2.601   7.772  11.369  0.0766  0.3583 -0.1513
  293MOL0     H38654   2.686   7.561  11.460  0.3735 -1.1093  0.6848
  293MOL0     H38655   2.786   7.645  11.573 -0.6968 -2.4505  0.7634
  293MOL0     H38656   2.478   7.676  11.594 -1.6964  1.4116  2.2323
  293MOL0     H38657   2.597   7.750  11.696  3.3193 -1.9967  1.7333
  293MOL0     H38658   2.354   8.475  11.054  1.6904 -0.1328 -3.0905
  293MOL0     H38659   2.152   8.534  10.903 -1.4685 -1.8974 -0.5312
  293MOL0     H38660   1.963   8.610  10.445  0.2060 -1.0496 -2.6198
  293MOL0     H38661   1.750   8.679  10.355  2.3382  0.7590  0.1811
  293MOL0     H38662   1.640   9.937   9.727 -0.5314  0.7121  0.1060
  293MOL0     H38663   1.565   9.999   9.497  1.4994  1.4260  0.4062
  293MOL0     H38664   1.340   9.982   9.105  0.0165 -0.4453 -1.4229
  293MOL0     H38665   1.249  10.057   8.882 -0.0582 -0.9295  0.1687
  293MOL0     H38666   1.274  10.235   8.726 -0.0972 -0.3675  0.4198
  293MOL0     H38667   1.169  10.365   8.660 -2.5553 -0.5929 -1.2468
  293MOL0     H38668   1.098  10.080   8.711  0.2617  1.6370  2.7296
  293MOL0     H38669   0.978  10.203   8.668  0.4266  1.5327  0.1856
  293MOL0     H38670   1.219  10.107   8.522 -0.6918 -0.2069  0.5263
  293MOL0     H38671   1.131  10.248   8.467  0.0284 -0.1381 -0.0176
  293MOL0     H38672   1.053   9.948   8.459  0.1661  0.1956 -1.1645
  293MOL0     H38673   0.926  10.066   8.462 -0.1091  0.7783  2.6032
  293MOL0     H38674   1.047  10.093   8.059 -2.9521 -2.5731 -0.0465
  293MOL0     H38675   1.133  10.422   9.079  1.0571  0.9052 -0.9385
  293MOL0     H38676   1.227  10.335   9.291 -1.4256 -1.4494  1.6956
  294MOL0     O38677   5.876  11.185   5.563 -0.1954 -0.5418  0.2900
  294MOL0     C38678   5.923  11.073   5.603  0.4236 -0.7865  1.3733
  294MOL0     O38679   5.851  10.964   5.644  0.3146 -0.1943  0.1214
  294MOL0     C38680   5.715  10.960   5.610 -0.7667  0.1037 -0.4593
  294MOL0     C38681   5.636  10.987   5.715  1.0187  0.2475  0.2066
  294MOL0     C38682   5.501  10.987   5.693  1.0184 -0.1758 -0.0665
  294MOL0     C38683   5.434  10.967   5.566 -0.0357 -0.3700  0.3517
  294MOL0     O38684   5.302  10.989   5.567  0.8954 -0.2417  0.1977
  294MOL0     C38685   5.227  10.981   5.442 -0.9717  0.3749  0.0940
  294MOL0     C38686   5.080  10.959   5.469 -0.4402  0.0439 -0.0666
  294MOL0     C38687   5.000  10.933   5.342  0.0113 -0.2577  0.2836
  294MOL0     C38688   5.020  11.048   5.250 -0.1421 -0.2981 -0.7533
  294MOL0     C38689   4.895  11.052   5.166  0.0662  0.1429 -0.3395
  294MOL0     C38690   4.919  11.159   5.057 -0.3411 -0.5468 -0.1087
  294MOL0     C38691   4.789  11.182   4.974  0.7513  0.4018  0.0228
  294MOL0     C38692   4.827  11.253   4.834  0.0295  0.8801 -0.3380
  294MOL0     N38693   4.722  11.293   4.732  0.7105 -0.2441 -0.3029
  294MOL0     C38694   4.752  11.378   4.624 -1.0645  1.8307 -0.9290
  294MOL0     C38695   4.638  11.370   4.549 -0.1055  0.0590 -0.6096
  294MOL0     C38696   4.623  11.446   4.416  0.2171  0.1955  0.2896
  294MOL0     C38697   4.568  11.588   4.442  0.5486  0.2924 -1.1018
  294MOL0     C38698   4.430  11.590   4.503  0.2037  0.3030  0.5853
  294MOL0     C38699   4.377  11.727   4.536  0.7086  0.2138  0.5947
  294MOL0     O38700   4.441  11.811   4.619  0.2776 -0.0284 -0.2729
  294MOL0     C38701   4.422  11.949   4.616  0.2030  1.0314  0.0257
  294MOL0     C38702   4.484  12.018   4.724  1.1869 -0.2139  0.0265
  294MOL0     C38703   4.470  12.155   4.734 -0.2654  0.7646  0.6959
  294MOL0     C38704   4.392  12.223   4.643 -0.5022 -0.0707  0.7349
  294MOL0     C38705   4.406  12.377   4.664 -0.7775  0.0039  0.1865
  294MOL0     O38706   4.468  12.418   4.772  0.4599 -0.5063  0.2961
  294MOL0     C38707   4.494  12.549   4.776 -0.0098  0.5809  0.1894
  294MOL0     C38708   4.413  12.637   4.850 -0.6843  0.1859  1.0128
  294MOL0     C38709   4.443  12.777   4.847 -1.0375  0.4036 -0.4692
  294MOL0     C38710   4.547  12.837   4.767  0.9166  0.0360 -0.2402
  294MOL0     O38711   4.564  12.977   4.758 -0.4228  0.5742 -0.1804
  294MOL0     C38712   4.698  13.015   4.792 -0.2825  0.0868  0.2930
  294MOL0     C38713   4.686  13.162   4.812  0.4762  0.2687 -0.2986
  294MOL0     C38714   4.659  13.253   4.690  0.5210 -1.0111 -0.0872
  294MOL0     C38715   4.697  13.403   4.679  0.6201 -0.4843  0.7782
  294MOL0     C38716   4.662  13.471   4.538  0.2218  0.5472  0.0527
  294MOL0     C38717   4.771  13.455   4.429  1.0309 -0.0523  0.0668
  294MOL0     C38718   4.711  13.483   4.293 -0.0999  0.4222 -1.2396
  294MOL0     C38719   4.826  13.502   4.190  0.1244 -0.1637 -0.6440
  294MOL0    Cl38720   4.932  13.359   4.214 -0.2897 -0.0496  0.0145
  294MOL0     C38721   4.628  12.746   4.702 -0.2481  0.1193  0.0064
  294MOL0     C38722   4.594  12.610   4.697 -0.4628  0.4276 -0.3250
  294MOL0     O38723   4.371  12.445   4.569  0.5913 -0.1859  0.2526
  294MOL0     C38724   4.322  12.160   4.541  0.4723 -0.3495 -0.2704
  294MOL0     C38725   4.330  12.018   4.527 -0.1171 -0.3406 -0.8765
  294MOL0     N38726   4.542  11.287   4.612 -0.0700  0.9305 -0.1299
  294MOL0     N38727   4.603  11.226   4.719 -0.0597  0.3305 -0.5869
  294MOL0     C38728   5.519  10.941   5.460 -0.2667 -0.0625 -0.3572
  294MOL0     C38729   5.660  10.926   5.489 -0.6347  1.1366 -0.0794
  294MOL0     C38730   6.075  11.061   5.614 -0.1431 -0.3992 -0.8981
  294MOL0     C38731   6.122  10.965   5.707 -0.2182 -0.6872  0.7662
  294MOL0     C38732   6.264  10.941   5.731  0.5306  0.7018  0.8537
  294MOL0     C38733   6.355  11.022   5.668  0.4160 -0.3803  0.1706
  294MOL0     O38734   6.487  11.023   5.688 -0.3395  0.2810  0.0468
  294MOL0     C38735   6.538  10.906   5.754  0.0013 -0.5347  0.0932
  294MOL0     C38736   6.689  10.933   5.772  0.9484 -0.3949 -0.1064
  294MOL0     C38737   6.755  10.803   5.809 -0.7508  0.0830  0.4668
  294MOL0     C38738   6.796  10.695   5.698  0.3293 -0.2343  0.1909
  294MOL0     C38739   6.683  10.626   5.635  0.1527  0.0595  0.1941
  294MOL0     C38740   6.596  10.575   5.571 -0.0286 -0.3063  0.7599
  294MOL0     C38741   6.309  11.116   5.577 -0.3325 -0.0574  1.4964
  294MOL0     C38742   6.172  11.131   5.538  0.3925  0.7278  0.0591
  294MOL0     H38743   5.680  11.006   5.813  2.1943 -0.9459 -0.0631
  294MOL0     H38744   5.429  10.983   5.775  0.5552 -1.3794 -0.5055
  294MOL0     H38745   5.259  10.905   5.370 -1.9339 -0.1922  0.2522
  294MOL0     H38746   5.245  11.080   5.398 -2.4335  0.4845 -0.3151
  294MOL0     H38747   5.032  11.019   5.546 -0.4705  0.1817 -0.1904
  294MOL0     H38748   5.086  10.865   5.524  1.6588 -0.3696 -0.8894
  294MOL0     H38749   4.897  10.916   5.376  0.0246 -1.6935 -0.3307
  294MOL0     H38750   5.048  10.843   5.303  0.5703 -1.0846  2.6974
  294MOL0     H38751   5.031  11.144   5.303 -2.1152 -0.5198  0.1338
  294MOL0     H38752   5.112  11.041   5.191  0.2605  1.5203 -0.4059
  294MOL0     H38753   4.814  11.088   5.230 -1.0694 -0.6145 -1.2896
  294MOL0     H38754   4.874  10.954   5.121  2.3499  0.0362 -1.2810
  294MOL0     H38755   5.001  11.123   4.994 -1.3853 -0.8084 -1.3780
  294MOL0     H38756   4.948  11.253   5.104 -1.4331  0.3890 -1.2300
  294MOL0     H38757   4.751  11.082   4.949  4.5795 -1.8165  2.0069
  294MOL0     H38758   4.723  11.250   5.029 -0.1340 -0.7070  0.3696
  294MOL0     H38759   4.886  11.169   4.796 -0.1029 -1.4645  3.9219
  294MOL0     H38760   4.897  11.329   4.871  3.2616 -2.5837  1.3197
  294MOL0     H38761   4.843  11.434   4.604  0.8638 -0.2403  1.4053
  294MOL0     H38762   4.556  11.387   4.352 -1.3501  0.2726  1.7976
  294MOL0     H38763   4.722  11.461   4.373  0.1719 -0.2624  0.0235
  294MOL0     H38764   4.555  11.642   4.347 -0.8904 -1.8479 -2.2109
  294MOL0     H38765   4.632  11.650   4.505  0.7217 -1.1693  0.2253
  294MOL0     H38766   4.363  11.523   4.448 -2.7390  0.9976  3.0795
  294MOL0     H38767   4.430  11.544   4.602  0.2599  0.4259  0.6425
  294MOL0     H38768   4.278  11.714   4.580  0.5956 -0.1401  0.2388
  294MOL0     H38769   4.366  11.784   4.443  2.1277  1.9262  1.4125
  294MOL0     H38770   4.549  11.967   4.795  0.6364  1.7011  2.0173
  294MOL0     H38771   4.536  12.205   4.803 -1.6181  0.7036  2.0704
  294MOL0     H38772   4.329  12.590   4.900 -1.3474  1.7521  1.4464
  294MOL0     H38773   4.381  12.852   4.895 -0.2646  0.8396 -0.1343
  294MOL0     H38774   4.783  12.985   4.731 -0.0555  0.5844  0.3561
  294MOL0     H38775   4.727  12.974   4.889  1.4829 -1.6938 -0.9087
  294MOL0     H38776   4.782  13.195   4.851 -0.0588  0.2309  1.0959
  294MOL0     H38777   4.607  13.186   4.883 -0.6755 -2.5094 -0.5024
  294MOL0     H38778   4.551  13.254   4.668  0.5056  2.8778 -0.5421
  294MOL0     H38779   4.700  13.205   4.600  0.3218  0.2941 -0.9072
  294MOL0     H38780   4.654  13.458   4.763 -2.3231 -0.3970 -0.6421
  294MOL0     H38781   4.806  13.404   4.685  1.0602  0.9908 -3.7509
  294MOL0     H38782   4.656  13.577   4.566  1.1921  1.4596 -2.8823
  294MOL0     H38783   4.571  13.423   4.501 -0.2905 -0.0655  1.9825
  294MOL0     H38784   4.811  13.354   4.440 -0.2407 -0.3923  2.1888
  294MOL0     H38785   4.861  13.514   4.448  2.4935 -2.1859  0.0163
  294MOL0     H38786   4.658  13.391   4.266 -0.2162 -1.0625  3.2781
  294MOL0     H38787   4.635  13.561   4.303  0.1456  0.5089  0.0673
  294MOL0     H38788   4.869  13.599   4.216 -0.8265 -0.6309  3.3688
  294MOL0     H38789   4.786  13.489   4.089 -1.3874 -2.0934  0.1316
  294MOL0     H38790   4.715  12.797   4.661  1.5214 -1.9972  0.9498
  294MOL0     H38791   4.664  12.546   4.645  0.2235  1.1264 -0.2751
  294MOL0     H38792   4.258  12.219   4.476 -0.7407 -0.6238  0.6420
  294MOL0     H38793   4.261  11.969   4.459 -0.7606  0.8229 -1.0779
  294MOL0     H38794   5.476  10.930   5.360 -0.7970  1.3356 -0.2972
  294MOL0     H38795   5.730  10.903   5.409  0.4813 -0.5332  1.3035
  294MOL0     H38796   6.059  10.900   5.768 -1.2728  1.4084  2.0139
  294MOL0     H38797   6.292  10.858   5.795 -2.4547  0.8194  2.4754
  294MOL0     H38798   6.517  10.813   5.701 -0.4392  0.9900 -2.5700
  294MOL0     H38799   6.497  10.888   5.854 -0.5780 -2.0013 -0.3856
  294MOL0     H38800   6.725  10.971   5.676  1.4734  3.7987  1.5167
  294MOL0     H38801   6.696  11.007   5.852  2.5781 -0.8891  0.2479
  294MOL0     H38802   6.692  10.750   5.881 -0.1533  0.0249  0.9538
  294MOL0     H38803   6.842  10.825   5.871 -1.0064  4.6096 -0.3707
  294MOL0     H38804   6.843  10.740   5.610  2.7660 -1.2097  0.9007
  294MOL0     H38805   6.867  10.627   5.747  0.6488  1.4232  2.1754
  294MOL0     H38806   6.511  10.524   5.529  0.0160  1.4468 -1.6383
  294MOL0     H38807   6.384  11.164   5.515  0.9018 -2.2828  1.1483
  294MOL0     H38808   6.141  11.207   5.467 -1.6231 -1.4779 -1.6191
  295MOL0     O38809   6.198   8.654   6.938  0.3140  0.5047 -0.6292
  295MOL0     C38810   6.308   8.618   6.981 -0.3677 -0.3030  0.4990
  295MOL0     O38811   6.421   8.702   6.995 -0.0746  0.5849  0.4260
  295MOL0     C38812   6.402   8.830   6.983 -0.5740  0.0077 -0.0902
  295MOL0     C38813   6.456   8.883   6.873 -0.2967  0.1074  0.1984
  295MOL0     C38814   6.428   9.018   6.835 -0.2640  0.1173 -0.2711
  295MOL0     C38815   6.354   9.105   6.915  0.6089  1.3975 -0.0080
  295MOL0     O38816   6.338   9.227   6.878 -0.3042  0.4101  0.5761
  295MOL0     C38817   6.202   9.281   6.898 -0.4813 -0.9286  0.1370
  295MOL0     C38818   6.175   9.375   6.782 -0.2185  0.7895  0.8174
  295MOL0     C38819   6.044   9.442   6.812  0.0945  0.6713  0.2337
  295MOL0     C38820   5.998   9.521   6.682 -0.1060  0.1627 -0.8613
  295MOL0     C38821   6.047   9.664   6.679  0.5633  0.8337 -0.5836
  295MOL0     C38822   5.996   9.730   6.545  0.1145 -0.1552  0.2227
  295MOL0     C38823   5.990   9.875   6.544 -0.3244  0.1041 -0.8564
  295MOL0     C38824   5.912   9.928   6.429 -0.0615  0.4535 -0.6381
  295MOL0     N38825   5.908  10.070   6.422  1.1083 -0.4123  0.1253
  295MOL0     C38826   5.908  10.149   6.307 -0.4374 -0.2467  0.4050
  295MOL0     C38827   5.862  10.263   6.341  0.7372  0.6537 -0.0508
  295MOL0     C38828   5.812  10.359   6.238 -0.9088 -0.0446  0.6650
  295MOL0     C38829   5.664  10.344   6.218  0.5873  0.7883 -0.5267
  295MOL0     C38830   5.597  10.433   6.323  0.4314  0.4808 -0.2908
  295MOL0     C38831   5.445  10.420   6.300  0.0553  0.6969  0.2026
  295MOL0     O38832   5.381  10.469   6.427  0.1209 -0.9682 -1.2171
  295MOL0     C38833   5.255  10.512   6.421 -0.6400 -0.5240  0.7670
  295MOL0     C38834   5.197  10.577   6.529 -0.5208 -0.2865 -0.0135
  295MOL0     C38835   5.066  10.625   6.535  0.6083 -0.7866 -0.2617
  295MOL0     C38836   4.989  10.626   6.420 -0.5455  0.0780 -0.0534
  295MOL0     C38837   4.850  10.681   6.413 -0.4478  0.6429 -1.1873
  295MOL0     O38838   4.769  10.653   6.305  0.1909 -0.0959  0.3515
  295MOL0     C38839   4.632  10.690   6.313 -0.0419 -0.2139  0.6169
  295MOL0     C38840   4.537  10.648   6.410 -0.3606 -1.1554 -0.0619
  295MOL0     C38841   4.401  10.698   6.410 -0.4070 -0.2610 -0.9241
  295MOL0     C38842   4.362  10.790   6.318 -0.2260 -0.3797  0.0831
  295MOL0     O38843   4.232  10.843   6.335  0.0309  0.3370  0.8945
  295MOL0     C38844   4.236  10.986   6.343  0.4175  0.4346 -0.4572
  295MOL0     C38845   4.108  11.049   6.410  0.5485 -0.0072  0.4604
  295MOL0     C38846   3.981  11.003   6.331 -0.1577 -0.2435 -0.4551
  295MOL0     C38847   3.875  11.113   6.353  0.1980 -0.6506  0.6475
  295MOL0     C38848   3.840  11.101   6.511  0.1201 -0.9643  0.3894
  295MOL0     C38849   3.720  11.199   6.548  0.6206  0.3511 -0.2451
  295MOL0     C38850   3.764  11.341   6.534 -0.0669 -0.5131  0.1735
  295MOL0     C38851   3.660  11.431   6.472  0.2682 -0.2942 -0.2477
  295MOL0    Cl38852   3.633  11.395   6.300  0.0973  0.2506  0.4566
  295MOL0     C38853   4.456  10.823   6.212 -0.3628 -0.1946 -0.2241
  295MOL0     C38854   4.580  10.776   6.215 -0.0427 -0.3331 -0.3878
  295MOL0     O38855   4.814  10.751   6.508  0.1622 -0.5718 -0.0139
  295MOL0     C38856   5.047  10.561   6.304 -0.0058  0.5612 -0.7060
  295MOL0     C38857   5.167  10.506   6.310  0.4870  0.2322  0.1739
  295MOL0     N38858   5.828  10.253   6.484 -1.1011 -0.3052 -0.3455
  295MOL0     N38859   5.848  10.137   6.522  0.3175  0.4101 -0.4434
  295MOL0     C38860   6.298   9.048   7.030 -0.5183  0.4520 -0.6485
  295MOL0     C38861   6.317   8.917   7.057  0.4982  1.4141  0.9964
  295MOL0     C38862   6.333   8.478   7.001  1.0602 -1.3683 -0.2851
  295MOL0     C38863   6.217   8.386   6.986 -0.4046  1.0014 -0.8373
  295MOL0     C38864   6.231   8.252   7.022 -0.6925  0.2685 -0.1456
  295MOL0     C38865   6.359   8.200   7.052  0.5165 -0.8328 -0.8765
  295MOL0     O38866   6.383   8.072   7.088  0.1614  0.3122  0.3612
  295MOL0     C38867   6.294   7.978   7.033  0.3947  1.4823 -1.3011
  295MOL0     C38868   6.328   7.829   7.075 -0.2308  0.6536  0.7399
  295MOL0     C38869   6.350   7.810   7.220 -0.3073 -0.5616 -0.2199
  295MOL0     C38870   6.304   7.667   7.272 -1.2849  0.0768 -0.6834
  295MOL0     C38871   6.394   7.564   7.222  0.5340 -0.3995  0.0318
  295MOL0     C38872   6.481   7.488   7.175 -0.0719 -0.5385  0.5095
  295MOL0     C38873   6.469   8.291   7.068 -0.4775  0.9044 -0.0465
  295MOL0     C38874   6.457   8.430   7.032 -0.1775 -0.3039  0.2620
  295MOL0     H38875   6.527   8.823   6.817 -0.7652  1.4438 -1.9228
  295MOL0     H38876   6.469   9.064   6.746 -1.6298  0.7838 -0.5854
  295MOL0     H38877   6.203   9.338   6.991 -0.0676 -1.8152  0.6929
  295MOL0     H38878   6.128   9.200   6.901  0.3200 -1.6615  0.9516
  295MOL0     H38879   6.177   9.312   6.692 -1.5848  1.4711  0.2800
  295MOL0     H38880   6.246   9.458   6.774  3.8062 -2.4774 -3.1635
  295MOL0     H38881   6.052   9.508   6.898  2.7102  0.2416  0.4065
  295MOL0     H38882   5.967   9.370   6.842 -1.1879  2.0391  0.3120
  295MOL0     H38883   6.027   9.470   6.590 -5.0903  1.6209 -3.6153
  295MOL0     H38884   5.891   9.527   6.701  0.1939  2.0239  0.4823
  295MOL0     H38885   6.155   9.666   6.694  0.4557 -2.9898  1.9585
  295MOL0     H38886   6.010   9.727   6.761 -0.7359  1.1138 -1.3529
  295MOL0     H38887   5.889   9.711   6.528 -0.1597 -0.1122  1.7936
  295MOL0     H38888   6.064   9.698   6.466  1.9812  2.9815  0.3970
  295MOL0     H38889   5.944   9.913   6.636 -0.9823 -0.4119 -0.9685
  295MOL0     H38890   6.089   9.919   6.560  0.1495 -1.8235  2.6828
  295MOL0     H38891   5.809   9.891   6.434 -0.5837  1.9663  0.5732
  295MOL0     H38892   5.938   9.886   6.331  0.1800 -1.6800  0.2836
  295MOL0     H38893   5.919  10.107   6.208 -0.8278 -4.5424  2.0006
  295MOL0     H38894   5.854  10.344   6.138 -0.4830 -0.3070  0.8799
  295MOL0     H38895   5.848  10.460   6.257  0.3757 -0.5521  1.0397
  295MOL0     H38896   5.639  10.237   6.216 -2.7304  1.4144  1.2886
  295MOL0     H38897   5.626  10.387   6.125  1.7255  0.3985 -1.1975
  295MOL0     H38898   5.619  10.391   6.422  4.0473 -0.5643 -1.3860
  295MOL0     H38899   5.615  10.541   6.322  0.3151  0.4992 -0.6302
  295MOL0     H38900   5.414  10.316   6.286 -1.5060  1.0585  0.7907
  295MOL0     H38901   5.425  10.474   6.207 -0.4742 -0.2150 -0.2300
  295MOL0     H38902   5.263  10.594   6.614  1.0368 -1.5378 -0.9119
  295MOL0     H38903   5.018  10.667   6.622 -1.8018 -1.4252 -1.1955
  295MOL0     H38904   4.571  10.563   6.469  1.6974 -0.6674 -0.4708
  295MOL0     H38905   4.325  10.670   6.482  1.8290 -0.7527  1.4258
  295MOL0     H38906   4.234  11.019   6.238 -2.1789 -0.4802 -0.7747
  295MOL0     H38907   4.329  11.018   6.391  1.7892 -1.3026 -1.7805
  295MOL0     H38908   4.111  11.158   6.413 -4.9327  0.5163 -2.2200
  295MOL0     H38909   4.102  11.015   6.514  3.4887 -1.6953  0.1862
  295MOL0     H38910   3.935  10.907   6.356 -0.9104  0.7602  2.3616
  295MOL0     H38911   4.002  11.015   6.224  0.0500  2.0237 -0.2036
  295MOL0     H38912   3.924  11.209   6.330 -0.1880 -0.2539  1.4384
  295MOL0     H38913   3.795  11.085   6.284  2.0016 -6.2861  0.3414
  295MOL0     H38914   3.919  11.130   6.581 -1.9979  3.2055  1.4035
  295MOL0     H38915   3.812  10.997   6.528  0.5613 -1.2779 -0.7415
  295MOL0     H38916   3.683  11.177   6.648 -0.3649 -0.6982 -0.8180
  295MOL0     H38917   3.641  11.177   6.475  0.0155  0.8437  0.2540
  295MOL0     H38918   3.777  11.386   6.633 -3.2984  2.1198 -0.4096
  295MOL0     H38919   3.857  11.359   6.479  0.6489 -0.2646  1.4311
  295MOL0     H38920   3.691  11.536   6.471 -2.3563  0.6117 -3.0869
  295MOL0     H38921   3.569  11.416   6.530  0.7485  0.0881  0.6305
  295MOL0     H38922   4.422  10.885   6.129 -1.4563  1.0122  1.0695
  295MOL0     H38923   4.653  10.806   6.140  2.7972  1.7385  2.8673
  295MOL0     H38924   4.992  10.561   6.210 -1.6697  2.4313  0.1846
  295MOL0     H38925   5.193  10.444   6.224 -1.4567  0.5440 -0.6966
  295MOL0     H38926   6.240   9.110   7.099 -2.7091 -0.7591 -1.3225
  295MOL0     H38927   6.276   8.866   7.144  2.7519 -0.5129  1.0397
  295MOL0     H38928   6.115   8.421   6.972 -0.1513  2.7420  1.2239
  295MOL0     H38929   6.139   8.194   7.030 -0.3307 -0.2786  0.1150
  295MOL0     H38930   6.291   7.985   6.923 -0.8818  0.1353 -1.3876
  295MOL0     H38931   6.191   7.998   7.063 -0.5822 -1.6962 -2.0958
  295MOL0     H38932   6.246   7.767   7.038  0.3189  0.1007  0.4248
  295MOL0     H38933   6.423   7.804   7.026 -0.8927 -2.9224  1.0248
  295MOL0     H38934   6.294   7.884   7.277  2.3480  2.0942 -0.7965
  295MOL0     H38935   6.456   7.827   7.244 -0.4932 -0.0737  0.2775
  295MOL0     H38936   6.305   7.676   7.381  0.9866  0.0568 -0.6546
  295MOL0     H38937   6.205   7.637   7.235 -1.5162 -0.7279  0.5124
  295MOL0     H38938   6.547   7.429   7.114  0.9577 -2.2040  3.0751
  295MOL0     H38939   6.554   8.268   7.130 -0.6773  3.0446  1.1223
  295MOL0     H38940   6.538   8.500   7.050 -2.1016  1.9171  0.9218
  296MOL0     O38941   4.664   3.720   6.277  0.2771 -0.0375 -0.0641
  296MOL0     C38942   4.780   3.756   6.252  0.6639  0.2024  1.0024
  296MOL0     O38943   4.809   3.864   6.168  0.9193  0.0280 -0.3256
  296MOL0     C38944   4.716   3.928   6.094  0.9400  0.3443 -0.3147
  296MOL0     C38945   4.750   4.046   6.051  0.2028 -0.8176  0.6449
  296MOL0     C38946   4.680   4.117   5.948 -0.1534  0.0271  0.3038
  296MOL0     C38947   4.559   4.073   5.908 -1.5294  0.6141  0.6700
  296MOL0     O38948   4.490   4.143   5.816  0.3360 -0.0961 -0.2063
  296MOL0     C38949   4.554   4.152   5.690 -0.4531 -0.0598  0.8511
  296MOL0     C38950   4.504   4.280   5.612 -0.0883  0.2904  0.0885
  296MOL0     C38951   4.559   4.410   5.657 -0.3777  0.1317 -0.5191
  296MOL0     C38952   4.711   4.425   5.630 -0.2260  0.4859  0.1589
  296MOL0     C38953   4.764   4.549   5.696 -0.6025  0.3193  0.5966
  296MOL0     C38954   4.916   4.563   5.668  0.8198  0.4154 -0.0022
  296MOL0     C38955   4.985   4.686   5.737 -0.0442  0.5562 -0.1428
  296MOL0     C38956   5.118   4.715   5.678 -0.4096 -0.3163  0.0648
  296MOL0     N38957   5.228   4.751   5.761 -0.5545  0.1625 -0.0800
  296MOL0     C38958   5.309   4.668   5.835  0.2533  0.7832 -0.7059
  296MOL0     C38959   5.379   4.745   5.919  0.2687  0.0175  0.2479
  296MOL0     C38960   5.489   4.711   6.029  1.0513  0.9733 -0.4821
  296MOL0     C38961   5.418   4.689   6.161  0.0779 -0.4021  0.4556
  296MOL0     C38962   5.512   4.644   6.278 -0.6919 -0.5181  0.7963
  296MOL0     C38963   5.607   4.758   6.319  0.4276 -0.3141  0.4884
  296MOL0     O38964   5.706   4.697   6.399 -0.2161  0.7154 -0.2818
  296MOL0     C38965   5.805   4.782   6.446 -0.2423  0.1762 -0.0316
  296MOL0     C38966   5.884   4.736   6.555  0.3991 -0.4126  0.4674
  296MOL0     C38967   5.985   4.810   6.622 -0.1824 -0.3522  0.8824
  296MOL0     C38968   6.020   4.938   6.565  0.0441  0.2505 -0.6822
  296MOL0     C38969   6.117   5.030   6.633 -0.3214  0.2236 -0.0191
  296MOL0     O38970   6.139   5.015   6.767  0.5553  0.2219 -0.2752
  296MOL0     C38971   6.231   5.100   6.828  0.4628 -1.0057  0.1244
  296MOL0     C38972   6.365   5.066   6.841  0.0542 -0.7892 -0.1966
  296MOL0     C38973   6.456   5.151   6.897 -0.2154 -0.6225  0.7270
  296MOL0     C38974   6.408   5.269   6.954 -0.9757 -0.2282 -0.3585
  296MOL0     O38975   6.503   5.343   7.017  0.1873  0.5862 -0.2824
  296MOL0     C38976   6.488   5.356   7.158 -0.0386 -0.6440  0.1806
  296MOL0     C38977   6.614   5.393   7.232  0.5670 -0.6530  0.7466
  296MOL0     C38978   6.582   5.388   7.381  1.1210 -0.6152  0.6546
  296MOL0     C38979   6.711   5.377   7.459  0.0532  0.4210  0.1074
  296MOL0     C38980   6.663   5.339   7.606 -0.6304 -0.0991  0.7020
  296MOL0     C38981   6.769   5.360   7.710 -0.5326 -0.3841 -0.5306
  296MOL0     C38982   6.730   5.313   7.850 -0.5926  0.2763  0.4802
  296MOL0     C38983   6.638   5.405   7.918  1.0595  0.7330  1.0550
  296MOL0    Cl38984   6.724   5.531   8.006 -0.5040 -0.2594 -0.1203
  296MOL0     C38985   6.277   5.312   6.941 -0.3094  0.6762  0.6791
  296MOL0     C38986   6.190   5.225   6.876  0.9463 -0.1625  0.5851
  296MOL0     O38987   6.140   5.132   6.573  0.3988 -0.8060  0.0213
  296MOL0     C38988   5.939   4.984   6.457 -0.1500 -0.7317 -0.6281
  296MOL0     C38989   5.834   4.918   6.397  0.7584  0.1129  0.9630
  296MOL0     N38990   5.334   4.871   5.897  0.3174 -0.0068 -0.4155
  296MOL0     N38991   5.251   4.874   5.813  0.5565 -1.7713  0.0586
  296MOL0     C38992   4.500   3.950   5.953 -1.2498 -0.4708 -0.1469
  296MOL0     C38993   4.584   3.875   6.046 -0.1771 -0.9116 -0.2956
  296MOL0     C38994   4.893   3.674   6.304  0.1246  0.0153  0.5983
  296MOL0     C38995   5.023   3.688   6.252  0.7376 -0.4112  0.3403
  296MOL0     C38996   5.120   3.602   6.281  0.0711 -0.4804  0.1303
  296MOL0     C38997   5.109   3.498   6.367 -0.0252 -0.9247 -0.3110
  296MOL0     O38998   5.232   3.441   6.401  0.6859 -0.3928 -0.6249
  296MOL0     C38999   5.237   3.338   6.492 -0.1558  0.7029  0.0237
  296MOL0     C39000   5.268   3.206   6.422  0.1379  0.6167  0.3473
  296MOL0     C39001   5.253   3.077   6.508  0.2021 -0.2109  0.1571
  296MOL0     C39002   5.373   3.065   6.604  0.8561  0.0484  0.1654
  296MOL0     C39003   5.376   2.945   6.692 -0.1093 -0.3601  0.1381
  296MOL0     C39004   5.351   2.858   6.778 -0.2059 -0.2232  0.2540
  296MOL0     C39005   4.979   3.468   6.420  0.8333  0.3116  0.5860
  296MOL0     C39006   4.871   3.556   6.390 -0.8553 -0.0145  0.9386
  296MOL0     H39007   4.846   4.089   6.077 -1.4840  3.0412  1.1970
  296MOL0     H39008   4.721   4.215   5.924  1.1893 -0.6273 -0.1180
  296MOL0     H39009   4.512   4.067   5.635 -1.6722  1.4086 -0.5880
  296MOL0     H39010   4.663   4.145   5.693 -0.4121 -0.2375 -0.4955
  296MOL0     H39011   4.395   4.277   5.623  0.1143 -2.0998  2.8044
  296MOL0     H39012   4.536   4.266   5.509 -0.5605 -1.5107  0.1455
  296MOL0     H39013   4.539   4.410   5.764 -3.1350  2.2431 -0.9098
  296MOL0     H39014   4.503   4.497   5.619 -3.7536 -2.2678 -1.5134
  296MOL0     H39015   4.755   4.332   5.668  0.5300  2.0905  3.5749
  296MOL0     H39016   4.742   4.438   5.526  2.4953 -2.4021  0.4552
  296MOL0     H39017   4.751   4.536   5.804  1.7000 -1.2088  0.7503
  296MOL0     H39018   4.729   4.648   5.665  2.8355  1.9383  1.4134
  296MOL0     H39019   4.924   4.579   5.560 -0.3194  3.1455  0.2398
  296MOL0     H39020   4.963   4.467   5.692 -1.5874 -1.2659 -1.5659
  296MOL0     H39021   4.922   4.775   5.725  0.1406  0.5256 -1.4502
  296MOL0     H39022   4.998   4.667   5.844 -0.9957  0.1465 -0.0922
  296MOL0     H39023   5.106   4.796   5.606 -0.7373  0.7246  1.2459
  296MOL0     H39024   5.157   4.621   5.637  0.8011  0.9942 -1.9460
  296MOL0     H39025   5.328   4.563   5.815  2.0079  1.3527 -2.3393
  296MOL0     H39026   5.567   4.788   6.033  2.7082 -0.6831  2.3196
  296MOL0     H39027   5.541   4.618   6.008 -0.3612 -1.5462  5.2450
  296MOL0     H39028   5.351   4.603   6.146  1.8850 -2.0607  1.4114
  296MOL0     H39029   5.358   4.772   6.200 -0.0900 -0.6042  0.6361
  296MOL0     H39030   5.452   4.617   6.365 -2.1884 -1.1296 -0.3800
  296MOL0     H39031   5.565   4.552   6.253 -0.0760  0.7662 -3.3627
  296MOL0     H39032   5.545   4.830   6.374  1.7730  0.1009  1.5058
  296MOL0     H39033   5.657   4.802   6.232 -2.6331  0.4942 -1.0172
  296MOL0     H39034   5.867   4.632   6.581  0.3827 -0.0667  1.9253
  296MOL0     H39035   6.033   4.771   6.711 -3.1856 -1.9536  1.9443
  296MOL0     H39036   6.392   4.968   6.802  1.0622 -0.1026 -1.3102
  296MOL0     H39037   6.557   5.112   6.899  0.1514  0.3016  0.6486
  296MOL0     H39038   6.438   5.271   7.206 -1.5116  2.3844  4.6754
  296MOL0     H39039   6.418   5.438   7.177  1.6830  0.3977  2.5366
  296MOL0     H39040   6.646   5.495   7.212  2.1861 -1.3659 -0.4954
  296MOL0     H39041   6.694   5.319   7.219  0.7355 -0.3092 -0.2136
  296MOL0     H39042   6.514   5.308   7.410 -0.4410  1.5841  3.6358
  296MOL0     H39043   6.527   5.482   7.390 -1.4912 -1.8866 -1.0058
  296MOL0     H39044   6.776   5.295   7.427  0.4297 -0.2406  2.3491
  296MOL0     H39045   6.771   5.468   7.471  3.1644 -1.5898  1.1226
  296MOL0     H39046   6.644   5.232   7.610  2.2378 -0.7026  0.3250
  296MOL0     H39047   6.568   5.388   7.631  0.2612  2.4106 -0.5083
  296MOL0     H39048   6.799   5.465   7.720  2.1491 -1.1592  0.6356
  296MOL0     H39049   6.860   5.304   7.685 -0.2167 -0.7614  1.2792
  296MOL0     H39050   6.669   5.224   7.833  2.3452 -1.9577  0.7738
  296MOL0     H39051   6.824   5.286   7.899  0.7373  1.9971 -0.9692
  296MOL0     H39052   6.569   5.355   7.988 -0.1750  1.3970  0.3578
  296MOL0     H39053   6.568   5.455   7.851  0.0197  1.7544  2.8105
  296MOL0     H39054   6.245   5.410   6.976 -0.9629  0.6993  0.0409
  296MOL0     H39055   6.086   5.253   6.865  0.8354 -0.2855  1.2216
  296MOL0     H39056   5.950   5.083   6.415 -4.8966  0.8676  1.2368
  296MOL0     H39057   5.776   4.986   6.335  1.8283  2.0521  1.9896
  296MOL0     H39058   4.407   3.913   5.911 -1.6964  3.1787 -2.9461
  296MOL0     H39059   4.547   3.784   6.093  1.4148 -1.4892 -0.0918
  296MOL0     H39060   5.030   3.775   6.186 -0.2026 -1.3674 -1.0730
  296MOL0     H39061   5.224   3.619   6.259  0.2189 -0.9142  0.4743
  296MOL0     H39062   5.144   3.322   6.546 -0.7483  3.1620 -0.1628
  296MOL0     H39063   5.315   3.362   6.565 -1.0736  1.0881  0.8870
  296MOL0     H39064   5.209   3.184   6.333  1.5652 -1.4769 -0.1763
  296MOL0     H39065   5.366   3.215   6.373 -0.2832 -2.8604 -1.4553
  296MOL0     H39066   5.254   2.995   6.436 -0.7227  0.1427 -0.2658
  296MOL0     H39067   5.158   3.073   6.562  0.3613  1.3631  0.6160
  296MOL0     H39068   5.463   3.081   6.543 -0.8771  1.9565 -2.0913
  296MOL0     H39069   5.359   3.143   6.679  2.8468 -1.7967  2.6185
  296MOL0     H39070   5.329   2.783   6.851 -0.4109 -1.8849 -1.4374
  296MOL0     H39071   4.956   3.380   6.480 -1.0905 -1.6081 -2.6332
  296MOL0     H39072   4.779   3.547   6.449 -0.9640  0.9889  0.9470
  297MOL0     O39073   6.993  11.045   0.588 -0.0116  0.9813  0.1428
  297MOL0     C39074   6.989  11.004   0.470  0.2759  0.3818  0.5772
  297MOL0     O39075   7.083  10.929   0.412  0.2981 -0.3376  0.4038
  297MOL0     C39076   7.211  10.929   0.473 -0.1356  0.1749  0.6307
  297MOL0     C39077   7.311  11.012   0.423  0.0376 -0.2968  0.0389
  297MOL0     C39078   7.442  11.007   0.472  0.0543 -0.2762  0.7054
  297MOL0     C39079   7.467  10.914   0.577  0.2437 -1.0283 -0.8427
  297MOL0     O39080   7.600  10.917   0.602  0.1567 -0.5417 -0.1050
  297MOL0     C39081   7.659  10.857   0.724  1.6183 -0.1029  0.0894
  297MOL0     C39082   7.809  10.886   0.734 -0.2230 -0.8060  0.7224
  297MOL0     C39083   7.844  11.041   0.711  0.3667 -0.2320  0.9374
  297MOL0     C39084   7.805  11.131   0.827  0.1574  0.4299 -0.6585
  297MOL0     C39085   7.864  11.269   0.823  0.1788  0.0670  0.8106
  297MOL0     C39086   7.790  11.344   0.700  0.0500  0.7854 -0.2145
  297MOL0     C39087   7.817  11.493   0.676  0.4091 -0.1132 -1.0087
  297MOL0     C39088   7.967  11.539   0.638 -0.3315  0.2795 -0.3492
  297MOL0     N39089   7.956  11.687   0.613  0.7578 -0.2591  0.1741
  297MOL0     C39090   8.000  11.783   0.701  1.2430 -0.9309 -0.5248
  297MOL0     C39091   7.974  11.901   0.635 -0.1236  0.6246 -0.1796
  297MOL0     C39092   7.972  12.049   0.670  0.5166  0.9378 -0.5757
  297MOL0     C39093   8.099  12.110   0.725  0.0642  0.5438  0.4035
  297MOL0     C39094   8.210  12.097   0.626 -0.8591 -0.0962 -0.5155
  297MOL0     C39095   8.295  11.960   0.648 -0.7606  0.6148  0.5357
  297MOL0     O39096   8.361  11.963   0.777 -0.1914 -0.0871 -0.0092
  297MOL0     C39097   8.422  11.846   0.820 -0.0583  0.3453 -0.0349
  297MOL0     C39098   8.455  11.739   0.743 -0.2639 -0.5087  0.3587
  297MOL0     C39099   8.545  11.636   0.794 -0.0717 -0.2865 -0.4745
  297MOL0     C39100   8.597  11.646   0.925 -0.5395  0.3935  0.1479
  297MOL0     C39101   8.686  11.539   0.977  0.1713 -0.6615  0.9990
  297MOL0     O39102   8.675  11.429   0.910 -0.3200 -0.3431  1.1676
  297MOL0     C39103   8.762  11.328   0.947 -0.1362 -1.0694 -0.4205
  297MOL0     C39104   8.716  11.197   0.923 -0.1804 -0.5398 -0.3271
  297MOL0     C39105   8.783  11.081   0.948  0.4601  0.7549  0.6014
  297MOL0     C39106   8.906  11.091   1.015 -0.6554 -0.2770  0.4512
  297MOL0     O39107   8.969  10.978   1.042 -0.4912  0.1539 -0.7613
  297MOL0     C39108   8.949  10.905   1.162 -0.3844  0.4424 -0.4515
  297MOL0     C39109   9.078  10.815   1.178  0.4474  0.7179 -0.3005
  297MOL0     C39110   9.089  10.733   1.305  0.3594  0.6352 -0.4377
  297MOL0     C39111   9.220  10.648   1.281 -0.0270  0.0300 -0.3268
  297MOL0     C39112   9.258  10.560   1.400 -0.1071  0.7773  0.5955
  297MOL0     C39113   9.369  10.458   1.355  0.7349  0.1030 -0.0791
  297MOL0     C39114   9.321  10.356   1.249  0.2063  1.1118 -0.6018
  297MOL0     C39115   9.241  10.235   1.318  0.2663 -0.2895  0.8578
  297MOL0    Cl39116   9.233  10.096   1.201  0.0082  0.1581 -0.0062
  297MOL0     C39117   8.956  11.220   1.045 -1.8923 -0.3315 -0.3826
  297MOL0     C39118   8.890  11.331   1.003  0.0133 -0.5535  0.0037
  297MOL0     O39119   8.738  11.554   1.085 -0.0772 -0.0830 -0.9078
  297MOL0     C39120   8.563  11.753   1.002 -0.4285  0.4230 -1.5998
  297MOL0     C39121   8.475  11.850   0.952 -0.2279  0.1769 -0.0798
  297MOL0     N39122   7.922  11.875   0.511  0.1613  0.5187 -0.4354
  297MOL0     N39123   7.913  11.744   0.493  0.4631 -0.1070  0.1256
  297MOL0     C39124   7.366  10.840   0.637  1.5436  0.1871 -0.2817
  297MOL0     C39125   7.239  10.839   0.575 -0.6329 -0.2190  0.0540
  297MOL0     C39126   6.885  11.060   0.372 -0.7614 -0.2503 -0.3919
  297MOL0     C39127   6.822  11.179   0.404 -0.1841 -1.3260 -0.5074
  297MOL0     C39128   6.758  11.239   0.299 -0.3575 -0.1376 -0.3912
  297MOL0     C39129   6.724  11.188   0.173 -0.8461  0.4629 -0.9146
  297MOL0     O39130   6.645  11.271   0.091 -0.5838  0.2109  0.6832
  297MOL0     C39131   6.650  11.240  -0.057 -0.0393 -0.0072  0.3345
  297MOL0     C39132   6.784  11.262  -0.128  0.3281 -0.7532  0.5277
  297MOL0     C39133   6.769  11.341  -0.261  0.6270 -0.4192 -0.1005
  297MOL0     C39134   6.678  11.278  -0.372 -0.1435  0.2857 -0.7051
  297MOL0     C39135   6.659  11.370  -0.489  0.0215 -0.1826 -0.2280
  297MOL0     C39136   6.649  11.424  -0.597 -0.0685 -0.3750 -0.5039
  297MOL0     C39137   6.791  11.071   0.140  0.5293 -0.0238 -0.3076
  297MOL0     C39138   6.872  11.005   0.238 -0.0809 -0.9093  0.1579
  297MOL0     H39139   7.291  11.089   0.348 -1.4101  0.4709  1.1764
  297MOL0     H39140   7.527  11.068   0.443 -1.4014  0.7902 -1.5840
  297MOL0     H39141   7.653  10.748   0.733  1.5186  0.0763  3.8221
  297MOL0     H39142   7.615  10.904   0.813  0.9606 -0.8978  0.1934
  297MOL0     H39143   7.875  10.847   0.656  2.2123  2.8929  0.6739
  297MOL0     H39144   7.847  10.867   0.835 -0.5840 -0.2452  0.9667
  297MOL0     H39145   7.804  11.079   0.617  3.0833 -0.6524 -0.5050
  297MOL0     H39146   7.952  11.040   0.690 -0.1699  0.0207 -2.3119
  297MOL0     H39147   7.696  11.130   0.838  0.2727 -1.2699  1.0188
  297MOL0     H39148   7.842  11.079   0.916 -4.4617 -2.1500  0.1303
  297MOL0     H39149   7.972  11.266   0.806  0.1248 -1.0926  0.5428
  297MOL0     H39150   7.847  11.323   0.916  0.7191 -0.7478  1.4002
  297MOL0     H39151   7.683  11.348   0.722 -0.1765 -1.1429 -0.7196
  297MOL0     H39152   7.787  11.293   0.603 -3.0118 -3.3960  1.7940
  297MOL0     H39153   7.757  11.519   0.589 -1.4722  3.1087  1.0771
  297MOL0     H39154   7.787  11.552   0.763 -3.4605  2.3263 -3.7052
  297MOL0     H39155   7.989  11.491   0.543 -0.5343  0.4200 -0.4690
  297MOL0     H39156   8.037  11.506   0.715 -0.1994  0.1329 -0.5319
  297MOL0     H39157   8.039  11.784   0.802  1.4353  1.2833 -0.5787
  297MOL0     H39158   7.895  12.051   0.748 -0.8364 -1.8854 -1.7261
  297MOL0     H39159   7.936  12.107   0.585  1.4302  1.1391 -0.8260
  297MOL0     H39160   8.124  12.059   0.819 -0.9338 -1.4486 -0.3639
  297MOL0     H39161   8.101  12.217   0.750  1.9937  0.3356  1.3606
  297MOL0     H39162   8.175  12.102   0.522 -1.1763  0.5443 -0.3854
  297MOL0     H39163   8.287  12.173   0.643  0.3552 -1.5420  0.6397
  297MOL0     H39164   8.365  11.940   0.567  0.5809 -3.3527  2.4060
  297MOL0     H39165   8.219  11.881   0.648  1.0509 -1.2689  2.8625
  297MOL0     H39166   8.416  11.737   0.642 -0.4013 -0.9224  0.4185
  297MOL0     H39167   8.559  11.554   0.723 -0.0357 -1.2985  0.6635
  297MOL0     H39168   8.618  11.193   0.878 -0.5959 -1.3786  0.6022
  297MOL0     H39169   8.740  10.982   0.936  0.4632  0.7353  0.7555
  297MOL0     H39170   8.868  10.832   1.156  1.7256 -1.9416 -1.8782
  297MOL0     H39171   8.938  10.972   1.248  2.2977  2.8461 -1.8141
  297MOL0     H39172   9.167  10.879   1.184  2.7200 -2.2302 -0.3953
  297MOL0     H39173   9.077  10.742   1.097 -1.5847 -1.5267  1.5923
  297MOL0     H39174   9.001  10.670   1.319 -1.0335  2.9500  2.4540
  297MOL0     H39175   9.109  10.794   1.394  5.0334  0.4416 -1.1319
  297MOL0     H39176   9.220  10.598   1.183 -0.3275  3.7788 -2.4235
  297MOL0     H39177   9.312  10.706   1.273  1.2333 -1.9394 -1.1084
  297MOL0     H39178   9.169  10.509   1.437  1.3465 -2.7620 -0.4626
  297MOL0     H39179   9.290  10.611   1.492  2.4111 -2.5929  1.7663
  297MOL0     H39180   9.403  10.397   1.439  1.1689 -1.2992 -1.2251
  297MOL0     H39181   9.462  10.506   1.323 -0.7615  1.4958 -2.6372
  297MOL0     H39182   9.259  10.402   1.171 -0.2548  1.0037 -0.3027
  297MOL0     H39183   9.415  10.323   1.203 -0.0724 -1.0300  0.2296
  297MOL0     H39184   9.145  10.285   1.334  0.3689  1.4418 -2.9333
  297MOL0     H39185   9.289  10.209   1.413 -1.6501  2.5328  2.7385
  297MOL0     H39186   9.053  11.245   1.086 -1.1307  0.0114 -2.3154
  297MOL0     H39187   8.927  11.433   1.015 -2.3465  0.1363  2.4850
  297MOL0     H39188   8.597  11.762   1.104 -1.9970 -0.0024 -1.0157
  297MOL0     H39189   8.462  11.929   1.025 -0.2770 -0.6608  0.8354
  297MOL0     H39190   7.383  10.771   0.719  0.7213  0.6968  0.3230
  297MOL0     H39191   7.167  10.760   0.596 -0.8822 -0.1932 -0.6754
  297MOL0     H39192   6.827  11.230   0.500  1.0733  0.6612 -1.5554
  297MOL0     H39193   6.708  11.333   0.320  4.0782  1.8156  2.8653
  297MOL0     H39194   6.577  11.306  -0.104 -1.8986 -1.4996  1.0423
  297MOL0     H39195   6.623  11.134  -0.061  1.3735 -0.4114  0.6527
  297MOL0     H39196   6.841  11.331  -0.066  0.4238  3.3115 -3.6060
  297MOL0     H39197   6.844  11.171  -0.137 -0.5421 -1.2918 -0.0039
  297MOL0     H39198   6.873  11.360  -0.289  0.3903  2.1932  0.5535
  297MOL0     H39199   6.729  11.441  -0.241  2.8956  1.4594 -3.8724
  297MOL0     H39200   6.728  11.185  -0.398  0.3040  1.2287 -3.5416
  297MOL0     H39201   6.578  11.245  -0.342 -0.5294 -1.8640 -3.8661
  297MOL0     H39202   6.637  11.462  -0.696 -0.9343 -1.3893 -0.8132
  297MOL0     H39203   6.772  11.019   0.046  0.0512 -0.2720 -0.0771
  297MOL0     H39204   6.921  10.914   0.206 -1.6374 -1.8324  0.3146
  298MOL0     O39205   3.553   3.259   9.572 -0.0674 -0.6634 -0.7103
  298MOL0     C39206   3.586   3.375   9.607  0.5350  0.2977  0.0850
  298MOL0     O39207   3.649   3.406   9.725  0.2733  0.4700 -0.1131
  298MOL0     C39208   3.700   3.319   9.823  0.8173  0.0359 -0.9718
  298MOL0     C39209   3.660   3.189   9.847  0.6189 -0.9536  0.7645
  298MOL0     C39210   3.717   3.119   9.955 -0.4410 -0.3085  0.2502
  298MOL0     C39211   3.812   3.177  10.045  0.3424 -0.3688  0.9728
  298MOL0     O39212   3.850   3.112  10.154 -1.2469  0.4927 -0.0420
  298MOL0     C39213   3.881   3.196  10.273 -0.2119  0.7770  0.1874
  298MOL0     C39214   3.889   3.096  10.402  0.1374  0.1369  0.9515
  298MOL0     C39215   4.021   3.025  10.397 -0.3540  0.5585  0.1624
  298MOL0     C39216   4.051   2.969  10.535 -0.5000  0.2141  0.6407
  298MOL0     C39217   4.203   2.944  10.536 -0.2664  0.1523  0.1102
  298MOL0     C39218   4.289   3.064  10.551  0.0726  0.6033  0.9685
  298MOL0     C39219   4.225   3.182  10.633 -0.0143  0.6251  0.9623
  298MOL0     C39220   4.229   3.156  10.777 -0.1026 -0.4669  0.4549
  298MOL0     N39221   4.137   3.258  10.840 -0.4722  0.2047  0.3110
  298MOL0     C39222   4.008   3.242  10.857  0.1676  0.3659 -0.5443
  298MOL0     C39223   3.964   3.359  10.912 -0.5660  0.4093  0.7433
  298MOL0     C39224   3.824   3.385  10.967  0.3942  0.6055  0.1244
  298MOL0     C39225   3.832   3.498  11.069  0.0436 -0.4339  0.1517
  298MOL0     C39226   3.896   3.449  11.204  0.4208 -0.9956  0.7075
  298MOL0     C39227   3.826   3.327  11.266 -0.2311 -0.0024  0.3697
  298MOL0     O39228   3.865   3.300  11.404 -0.2125  0.5482  0.4407
  298MOL0     C39229   3.803   3.200  11.474 -0.0490 -0.4705 -0.2424
  298MOL0     C39230   3.723   3.100  11.422  0.0619 -0.7522  0.8994
  298MOL0     C39231   3.671   2.992  11.497  1.2339 -0.5457 -0.5195
  298MOL0     C39232   3.689   2.999  11.637  0.5229  0.0493  0.3975
  298MOL0     C39233   3.632   2.900  11.729 -0.3213  0.3323 -0.0074
  298MOL0     O39234   3.573   2.792  11.665  0.1259 -0.7408 -0.3028
  298MOL0     C39235   3.522   2.700  11.746 -0.5165 -0.0799 -0.3886
  298MOL0     C39236   3.391   2.654  11.723  0.0330  0.7246  1.4136
  298MOL0     C39237   3.341   2.552  11.803 -0.7147  0.2082 -0.0223
  298MOL0     C39238   3.414   2.486  11.905 -1.2881  0.0411  0.2870
  298MOL0     O39239   3.379   2.385  11.981 -0.4560 -0.4028  0.1013
  298MOL0     C39240   3.247   2.378  12.026  0.4336  0.6880 -1.1917
  298MOL0     C39241   3.238   2.311  12.166  0.2462  0.5706 -0.6486
  298MOL0     C39242   3.295   2.172  12.198  0.6674 -0.0896 -0.6678
  298MOL0     C39243   3.269   2.124  12.333  0.5737 -0.0209 -0.6829
  298MOL0     C39244   3.284   1.975  12.341 -0.1069  0.0629 -1.2676
  298MOL0     C39245   3.240   1.927  12.479 -0.0451  0.1441  0.2761
  298MOL0     C39246   3.194   1.781  12.466 -0.3794 -0.3351  1.7524
  298MOL0     C39247   3.162   1.714  12.597  0.2507 -0.2081 -0.1252
  298MOL0    Cl39248   3.242   1.549  12.599 -0.4235  0.1069  0.1744
  298MOL0     C39249   3.547   2.529  11.921 -0.2868  0.7996  0.0381
  298MOL0     C39250   3.595   2.633  11.847 -0.5775 -0.6638  0.8395
  298MOL0     O39251   3.646   2.912  11.852 -1.0741 -0.3043  0.0439
  298MOL0     C39252   3.751   3.105  11.690 -0.0019 -0.3796 -0.7826
  298MOL0     C39253   3.818   3.203  11.614  0.0827  0.5101  0.5331
  298MOL0     N39254   4.073   3.448  10.918 -0.3390 -0.5036  0.3242
  298MOL0     N39255   4.178   3.382  10.876 -0.1556 -0.4329 -0.4800
  298MOL0     C39256   3.869   3.301   9.999 -0.8864 -0.4534  0.6634
  298MOL0     C39257   3.807   3.365   9.891 -0.1496 -0.3680 -0.2421
  298MOL0     C39258   3.535   3.492   9.526 -0.6485  0.0782 -0.0609
  298MOL0     C39259   3.555   3.624   9.579  0.5025  0.0032 -0.1795
  298MOL0     C39260   3.498   3.734   9.514  0.3068  0.2217  0.8107
  298MOL0     C39261   3.424   3.719   9.398 -0.1772 -0.5498 -0.0657
  298MOL0     O39262   3.373   3.835   9.349  0.7490 -0.1975  0.3413
  298MOL0     C39263   3.280   3.822   9.241  0.0679  0.7696 -0.4207
  298MOL0     C39264   3.256   3.977   9.213  0.2125  0.5734 -0.4697
  298MOL0     C39265   3.137   3.978   9.115 -0.0792 -1.7656 -0.7395
  298MOL0     C39266   3.176   3.955   8.971 -0.4605  0.2371  0.3666
  298MOL0     C39267   3.266   4.060   8.920  0.4511  0.2562  0.3294
  298MOL0     C39268   3.353   4.121   8.877  1.0289 -0.1987  0.0835
  298MOL0     C39269   3.403   3.590   9.350  0.1052 -0.7234  0.2561
  298MOL0     C39270   3.464   3.477   9.405  0.6575 -0.1054 -0.2296
  298MOL0     H39271   3.587   3.152   9.775 -0.2101  2.3540 -0.2526
  298MOL0     H39272   3.680   3.018   9.966 -0.2347 -0.9111 -3.2103
  298MOL0     H39273   3.807   3.276  10.275 -1.2394 -0.0444 -2.0414
  298MOL0     H39274   3.980   3.242  10.265  1.0878 -1.7983  0.3510
  298MOL0     H39275   3.806   3.026  10.416  0.3731 -0.3594 -0.0767
  298MOL0     H39276   3.891   3.147  10.499 -2.5425  2.0501  0.1178
  298MOL0     H39277   4.105   3.088  10.366 -1.4261  3.4357  2.6554
  298MOL0     H39278   4.019   2.936  10.333  0.9698 -1.3876  2.6307
  298MOL0     H39279   4.023   3.039  10.614 -0.3136  0.2370  0.6863
  298MOL0     H39280   3.992   2.884  10.572  1.0829 -1.4415 -0.4573
  298MOL0     H39281   4.232   2.887  10.447  1.7452  0.5957  0.4176
  298MOL0     H39282   4.226   2.883  10.623 -0.8584 -0.9156 -0.4634
  298MOL0     H39283   4.305   3.101  10.450  0.3083 -0.2962  0.6720
  298MOL0     H39284   4.391   3.035  10.577  1.0853 -0.5282 -3.4267
  298MOL0     H39285   4.298   3.262  10.619  3.1318 -2.2456 -0.5869
  298MOL0     H39286   4.129   3.217  10.596 -0.3664 -0.5861  0.6727
  298MOL0     H39287   4.333   3.164  10.809 -0.6598  0.8616  2.0800
  298MOL0     H39288   4.188   3.057  10.799  0.3518 -0.6857  0.3222
  298MOL0     H39289   3.941   3.157  10.849 -0.1565  0.0420  3.4788
  298MOL0     H39290   3.794   3.290  11.013 -1.7774  0.4620 -1.4236
  298MOL0     H39291   3.747   3.405  10.891  1.4011 -2.3990 -1.8866
  298MOL0     H39292   3.733   3.544  11.082  0.8348  1.2568  0.5064
  298MOL0     H39293   3.892   3.575  11.020  0.3929 -1.2968 -0.8001
  298MOL0     H39294   4.004   3.450  11.186 -0.0495  2.2915 -3.4132
  298MOL0     H39295   3.874   3.527  11.277  1.7727  1.9794 -1.8423
  298MOL0     H39296   3.838   3.241  11.200 -2.3668  0.6455 -0.9598
  298MOL0     H39297   3.717   3.330  11.274 -0.1812 -1.6303  3.0653
  298MOL0     H39298   3.702   3.087  11.317 -1.5996  1.1245  0.9278
  298MOL0     H39299   3.616   2.905  11.462 -1.7330  0.7583  0.5733
  298MOL0     H39300   3.323   2.681  11.643 -1.0320  0.1658  2.0987
  298MOL0     H39301   3.242   2.512  11.788 -0.9727  0.9411 -0.3068
  298MOL0     H39302   3.190   2.309  11.963 -0.9962 -1.4097  2.1276
  298MOL0     H39303   3.201   2.477  12.019 -1.1542  0.3943  2.5790
  298MOL0     H39304   3.134   2.300  12.198  0.7401 -0.8608  0.5450
  298MOL0     H39305   3.287   2.372  12.242 -1.4991 -1.2831  2.1532
  298MOL0     H39306   3.403   2.177  12.184  0.7566  3.0169  0.3485
  298MOL0     H39307   3.256   2.103  12.122  0.4379 -0.5161 -0.1671
  298MOL0     H39308   3.344   2.157  12.406  1.1008 -5.0063  1.4347
  298MOL0     H39309   3.172   2.158  12.371  0.9940 -0.7464  1.1437
  298MOL0     H39310   3.387   1.940  12.326 -0.9036 -1.9627 -2.3665
  298MOL0     H39311   3.215   1.931  12.269 -2.0594  2.4404 -0.9791
  298MOL0     H39312   3.156   1.993  12.505  0.3798  0.8708 -0.1690
  298MOL0     H39313   3.328   1.946  12.541 -0.3156 -0.0586  0.7258
  298MOL0     H39314   3.107   1.775  12.398 -1.5477  1.2240  3.0333
  298MOL0     H39315   3.277   1.731  12.416 -0.0885  0.8403  1.0132
  298MOL0     H39316   3.053   1.708  12.604  0.0800  3.0464  1.7702
  298MOL0     H39317   3.195   1.769  12.685  1.4519 -0.8520 -0.1533
  298MOL0     H39318   3.621   2.485  11.986  0.7320 -0.2318 -1.7408
  298MOL0     H39319   3.702   2.646  11.840 -0.4085 -1.4908  1.6570
  298MOL0     H39320   3.766   3.113  11.797  2.3711  0.2165 -1.0998
  298MOL0     H39321   3.875   3.287  11.655 -0.3098  2.4843 -2.5925
  298MOL0     H39322   3.954   3.343  10.052 -0.0793  0.2373 -1.1067
  298MOL0     H39323   3.848   3.459   9.859 -2.4169 -0.6963 -4.8840
  298MOL0     H39324   3.608   3.651   9.670 -2.7607  6.2877  0.4615
  298MOL0     H39325   3.520   3.837   9.539 -0.3283  0.6917 -0.4806
  298MOL0     H39326   3.196   3.764   9.279  0.8732 -0.1365  0.0205
  298MOL0     H39327   3.325   3.773   9.154  0.3194 -0.6548  0.4956
  298MOL0     H39328   3.239   4.038   9.302 -0.5060  0.4060 -0.4917
  298MOL0     H39329   3.353   4.013   9.177  1.1083 -0.6223  0.6344
  298MOL0     H39330   3.085   4.074   9.106  1.3065 -0.5627  2.6642
  298MOL0     H39331   3.067   3.900   9.148 -0.3913 -1.6282 -1.0780
  298MOL0     H39332   3.230   3.860   8.972  0.1920  0.6029  1.3472
  298MOL0     H39333   3.082   3.938   8.918 -2.2870  0.5203  3.2428
  298MOL0     H39334   3.437   4.178   8.841  0.3222  0.0831 -1.1588
  298MOL0     H39335   3.352   3.575   9.255  1.9331 -1.3274 -0.6689
  298MOL0     H39336   3.437   3.377   9.372  1.4979 -0.8682  1.2495
  299MOL0     O39337   6.174   3.144   8.173 -0.6202 -0.5790 -0.4661
  299MOL0     C39338   6.086   3.172   8.248  0.6754 -0.1039  0.3074
  299MOL0     O39339   5.966   3.106   8.250  0.4945 -0.2769  0.6751
  299MOL0     C39340   5.949   2.989   8.175 -0.8304  0.5027  0.6369
  299MOL0     C39341   5.935   2.862   8.230  0.1024 -0.4774  0.3285
  299MOL0     C39342   5.931   2.743   8.161  0.2376 -0.7614  0.7550
  299MOL0     C39343   5.915   2.752   8.025  0.3220  0.7694  0.4203
  299MOL0     O39344   5.892   2.634   7.964  0.6721 -0.3207  0.8886
  299MOL0     C39345   5.964   2.620   7.835  0.1424 -0.4876 -0.0293
  299MOL0     C39346   6.114   2.619   7.869  0.8471  0.6683  0.2426
  299MOL0     C39347   6.182   2.614   7.732 -0.2767  0.2393  0.0671
  299MOL0     C39348   6.154   2.721   7.618 -1.4100 -0.5964 -0.7278
  299MOL0     C39349   6.254   2.732   7.505  0.5320  1.4179 -0.3291
  299MOL0     C39350   6.259   2.863   7.425 -0.3519  0.5928 -0.6443
  299MOL0     C39351   6.385   2.875   7.339 -0.5298 -0.7900  0.6302
  299MOL0     C39352   6.377   3.013   7.257 -1.3087  0.1651  0.8445
  299MOL0     N39353   6.395   3.134   7.343  0.1496  0.2804 -0.9872
  299MOL0     C39354   6.295   3.198   7.417  0.9235 -0.3765 -0.6373
  299MOL0     C39355   6.351   3.301   7.488 -0.2810  0.2759 -0.0727
  299MOL0     C39356   6.296   3.388   7.605  0.3304  0.3145  0.2911
  299MOL0     C39357   6.225   3.303   7.717  0.7142  0.6516 -0.5791
  299MOL0     C39358   6.293   3.169   7.740  0.8349  0.5109  0.0689
  299MOL0     C39359   6.255   3.108   7.877 -0.1135  0.5624  0.1571
  299MOL0     O39360   6.281   2.964   7.878  0.0073 -0.5306 -0.2162
  299MOL0     C39361   6.409   2.929   7.882 -0.9076 -0.3581 -0.1306
  299MOL0     C39362   6.463   2.842   7.787  0.3042 -0.1344 -0.0367
  299MOL0     C39363   6.601   2.803   7.778 -0.0472  0.0262  0.1369
  299MOL0     C39364   6.691   2.836   7.885  0.0198 -0.9281 -0.7581
  299MOL0     C39365   6.832   2.802   7.877 -0.9038  0.5927  0.1555
  299MOL0     O39366   6.872   2.718   7.779 -0.3939  0.1129  0.7589
  299MOL0     C39367   7.007   2.711   7.748 -1.3302 -0.4447  0.5953
  299MOL0     C39368   7.049   2.779   7.637 -0.6277 -0.8947  0.9648
  299MOL0     C39369   7.180   2.785   7.584  0.1684  1.1145  0.7281
  299MOL0     C39370   7.279   2.730   7.664  0.1811 -0.6403  0.5201
  299MOL0     O39371   7.414   2.747   7.629 -0.3411  0.7244 -0.4464
  299MOL0     C39372   7.484   2.627   7.617  0.1613  0.0916  0.3473
  299MOL0     C39373   7.606   2.641   7.521  0.9539 -0.7904  0.6012
  299MOL0     C39374   7.707   2.769   7.552  0.3808 -0.2448  0.2937
  299MOL0     C39375   7.748   2.784   7.693 -0.8294  0.0503 -0.3977
  299MOL0     C39376   7.834   2.917   7.708 -0.0213  0.2756 -0.5223
  299MOL0     C39377   7.975   2.917   7.657  0.8228 -0.5941 -0.1603
  299MOL0     C39378   8.070   2.825   7.718 -0.2888  0.8741 -0.2457
  299MOL0     C39379   8.077   2.847   7.868  0.2406 -0.6436 -0.9981
  299MOL0    Cl39380   8.199   2.748   7.960  0.1160  0.4228 -0.0891
  299MOL0     C39381   7.239   2.673   7.780  0.6228  0.8331 -0.9130
  299MOL0     C39382   7.107   2.659   7.827 -0.1044 -0.2939  0.3414
  299MOL0     O39383   6.904   2.851   7.965  0.0373  0.5945  0.3968
  299MOL0     C39384   6.636   2.918   7.994 -0.1112  0.2670  0.3725
  299MOL0     C39385   6.502   2.963   7.991 -0.4511 -0.0958  0.1053
  299MOL0     N39386   6.485   3.300   7.449  0.3018  0.3225 -0.1369
  299MOL0     N39387   6.514   3.202   7.373  0.3879 -0.7404  0.1375
  299MOL0     C39388   5.939   2.878   7.962  0.8204 -0.3150 -0.4119
  299MOL0     C39389   5.951   2.995   8.035 -0.3516  0.6121 -1.0734
  299MOL0     C39390   6.107   3.287   8.337 -0.3872 -0.3951  0.0828
  299MOL0     C39391   6.049   3.301   8.470  0.6329  0.5639  0.3104
  299MOL0     C39392   6.071   3.416   8.547 -0.9805 -0.8228 -0.6683
  299MOL0     C39393   6.162   3.511   8.497 -0.1656  0.2709 -0.4391
  299MOL0     O39394   6.201   3.621   8.571  0.3531 -0.0016 -0.2058
  299MOL0     C39395   6.093   3.704   8.627 -0.0455 -0.0073  0.1219
  299MOL0     C39396   5.986   3.749   8.526  0.0424 -0.0165  0.1971
  299MOL0     C39397   6.012   3.863   8.420  0.0108  0.1508 -0.5379
  299MOL0     C39398   5.892   3.886   8.321  0.3781 -0.5247 -0.9501
  299MOL0     C39399   5.750   3.905   8.377 -1.4053 -0.1032 -0.7241
  299MOL0     C39400   5.629   3.929   8.393 -1.0744 -0.6228 -1.1855
  299MOL0     C39401   6.239   3.486   8.386  0.6176  0.5876  0.0521
  299MOL0     C39402   6.214   3.371   8.303  0.0864  0.3685 -0.5797
  299MOL0     H39403   5.950   2.857   8.337  2.1579 -0.5102  0.0970
  299MOL0     H39404   5.918   2.653   8.220  0.5446 -1.4671 -0.2307
  299MOL0     H39405   5.933   2.698   7.765  2.2085 -1.1038 -1.7443
  299MOL0     H39406   5.936   2.527   7.784  1.4034 -1.2598  0.6479
  299MOL0     H39407   6.125   2.527   7.927  0.5956 -0.0291 -0.7832
  299MOL0     H39408   6.144   2.708   7.924  1.0023 -1.1653  3.3443
  299MOL0     H39409   6.173   2.511   7.695  1.4012  0.5929 -1.4481
  299MOL0     H39410   6.285   2.620   7.768 -0.2336  2.9398 -0.3175
  299MOL0     H39411   6.055   2.706   7.575 -3.2456  2.3428  2.0085
  299MOL0     H39412   6.142   2.817   7.670 -0.1714 -0.4688 -0.6467
  299MOL0     H39413   6.232   2.655   7.429  2.0091  1.7525 -1.1269
  299MOL0     H39414   6.356   2.718   7.541 -0.2208 -1.6840  0.9296
  299MOL0     H39415   6.254   2.948   7.494  0.5823  1.9770 -2.1969
  299MOL0     H39416   6.169   2.873   7.363  0.6143 -1.7178 -2.5477
  299MOL0     H39417   6.478   2.882   7.395 -0.0326 -1.7046 -0.0585
  299MOL0     H39418   6.402   2.790   7.272 -0.0791 -0.5514  0.4377
  299MOL0     H39419   6.279   3.022   7.208 -0.3774  0.6044 -1.0132
  299MOL0     H39420   6.455   3.012   7.181 -0.7231  0.9934  1.4200
  299MOL0     H39421   6.192   3.164   7.419  0.1684  1.5949  3.1233
  299MOL0     H39422   6.224   3.462   7.568 -2.4991 -0.8004  3.0637
  299MOL0     H39423   6.384   3.436   7.648  1.8043 -0.3677 -1.7652
  299MOL0     H39424   6.124   3.281   7.682  1.0366  1.6185 -2.2202
  299MOL0     H39425   6.224   3.357   7.812  2.3230 -1.0154  0.4477
  299MOL0     H39426   6.260   3.101   7.662 -2.9749  0.4531  1.5530
  299MOL0     H39427   6.401   3.187   7.732  1.0719 -0.1464  1.3773
  299MOL0     H39428   6.152   3.140   7.889  0.8086  4.5772 -1.2004
  299MOL0     H39429   6.306   3.164   7.957 -1.9244  1.4399  0.7441
  299MOL0     H39430   6.398   2.822   7.703  0.8751 -1.6515 -0.1410
  299MOL0     H39431   6.638   2.745   7.694 -3.1691 -1.1283 -0.6049
  299MOL0     H39432   6.974   2.831   7.580 -1.0370  0.3083  2.5208
  299MOL0     H39433   7.185   2.845   7.494  1.2917  2.0543  1.3859
  299MOL0     H39434   7.418   2.548   7.581  2.0516 -1.6473  0.4664
  299MOL0     H39435   7.528   2.599   7.714  0.4555  0.0146  0.1945
  299MOL0     H39436   7.550   2.658   7.428 -3.3916 -1.4742  2.8190
  299MOL0     H39437   7.668   2.551   7.514  0.6449 -0.8864 -1.8497
  299MOL0     H39438   7.662   2.864   7.521  1.9717  1.2565  2.3080
  299MOL0     H39439   7.792   2.761   7.485  0.7423 -0.4583  0.7691
  299MOL0     H39440   7.653   2.791   7.746 -2.7343 -0.9922 -3.4106
  299MOL0     H39441   7.806   2.694   7.715 -0.6886 -0.4230 -2.5051
  299MOL0     H39442   7.825   2.950   7.812  2.5516  1.3369 -0.5557
  299MOL0     H39443   7.783   2.996   7.652  1.3605 -0.2201 -2.5681
  299MOL0     H39444   8.019   3.016   7.668 -0.0180  0.0124 -1.9732
  299MOL0     H39445   7.981   2.899   7.549 -1.6896 -1.6404 -0.1795
  299MOL0     H39446   8.044   2.723   7.686  0.6825 -0.2143  2.2430
  299MOL0     H39447   8.168   2.836   7.671  0.0659  1.5459  0.6414
  299MOL0     H39448   7.983   2.831   7.921  1.1569  0.4008  1.0546
  299MOL0     H39449   8.105   2.952   7.876 -0.3500 -0.5769  0.3533
  299MOL0     H39450   7.317   2.629   7.842 -2.0597 -5.0036 -0.9695
  299MOL0     H39451   7.081   2.613   7.922  1.5901  0.5953  1.2782
  299MOL0     H39452   6.694   2.930   8.085  1.2637 -1.4126 -0.2342
  299MOL0     H39453   6.468   3.024   8.074 -0.2794 -0.4094  0.4107
  299MOL0     H39454   5.913   2.890   7.857  0.1302 -0.8224 -0.3075
  299MOL0     H39455   5.969   3.088   7.983 -0.9417  1.7292  0.6190
  299MOL0     H39456   5.987   3.219   8.504  0.1779  1.2908  1.2881
  299MOL0     H39457   6.023   3.425   8.644 -1.2204 -1.7762 -0.6925
  299MOL0     H39458   6.131   3.787   8.686  0.3065  0.2582 -0.4628
  299MOL0     H39459   6.038   3.649   8.704 -3.1628 -0.2029 -2.0479
  299MOL0     H39460   5.967   3.662   8.462  1.8890 -0.8612  0.7455
  299MOL0     H39461   5.892   3.776   8.575  0.1115  0.9896 -0.2017
  299MOL0     H39462   6.099   3.833   8.361 -1.4217  1.0879 -3.2466
  299MOL0     H39463   6.021   3.958   8.473  0.5838  0.2801 -0.8654
  299MOL0     H39464   5.911   3.970   8.253 -3.1989  0.3200 -1.0537
  299MOL0     H39465   5.912   3.797   8.260  1.2965 -2.1956  1.5955
  299MOL0     H39466   5.535   3.974   8.421 -0.1150  0.1514  1.0026
  299MOL0     H39467   6.314   3.563   8.371  0.1288  0.7280 -1.9670
  299MOL0     H39468   6.281   3.368   8.217  2.4504  1.6320  1.1091
  300MOL0     O39469   3.843   1.535   9.794  0.1242  0.2772  0.9932
  300MOL0     C39470   3.791   1.525   9.905  0.4226 -0.7347  0.3025
  300MOL0     O39471   3.854   1.518  10.025 -0.3732  0.1254  0.0657
  300MOL0     C39472   3.986   1.533  10.028  0.9218  0.5000  0.3754
  300MOL0     C39473   4.082   1.460   9.956  0.1480  0.4153 -0.2131
  300MOL0     C39474   4.213   1.484   9.965 -0.6519 -0.4035  0.2914
  300MOL0     C39475   4.257   1.593  10.042 -0.1027  0.8869  0.3983
  300MOL0     O39476   4.389   1.606  10.049 -0.5458 -0.1624 -0.1895
  300MOL0     C39477   4.436   1.684   9.941  0.0946 -0.2300 -0.4802
  300MOL0     C39478   4.580   1.737   9.977  0.5057 -0.0081  0.2773
  300MOL0     C39479   4.683   1.628  10.014  0.3447 -0.5275 -0.3684
  300MOL0     C39480   4.825   1.678  10.024 -0.6964 -0.6586 -0.4209
  300MOL0     C39481   4.913   1.564  10.078 -0.2830  0.4862 -0.2846
  300MOL0     C39482   5.067   1.575  10.064 -0.0676 -1.3431  0.7510
  300MOL0     C39483   5.137   1.639  10.194  1.2525  0.4553  0.7552
  300MOL0     C39484   5.168   1.781  10.183  0.6187 -0.1198 -0.3507
  300MOL0     N39485   5.045   1.859  10.192 -0.3438 -0.8647  0.6291
  300MOL0     C39486   4.994   1.950  10.103  0.0258 -0.4568  0.2800
  300MOL0     C39487   4.883   2.001  10.164 -0.0150 -0.9449 -0.5714
  300MOL0     C39488   4.815   2.118  10.103 -0.1347  0.4214  0.3130
  300MOL0     C39489   4.713   2.074   9.987 -0.5605 -0.2451  0.1066
  300MOL0     C39490   4.655   2.184   9.894 -0.1796 -0.0375 -0.6456
  300MOL0     C39491   4.540   2.137   9.806  0.1643 -0.5255 -0.4125
  300MOL0     O39492   4.435   2.064   9.885 -0.2444  0.1581  0.2271
  300MOL0     C39493   4.330   2.125   9.959 -0.0559  0.2922  0.4223
  300MOL0     C39494   4.262   2.045  10.053 -0.4001 -0.2289  0.3183
  300MOL0     C39495   4.138   2.094  10.108 -0.2614 -0.3713  0.1368
  300MOL0     C39496   4.100   2.228  10.080  0.9513 -0.1855 -0.2791
  300MOL0     C39497   3.968   2.272  10.124  0.4177 -0.0980 -0.0966
  300MOL0     O39498   3.889   2.187  10.198 -0.0068  0.3050  0.6673
  300MOL0     C39499   3.757   2.196  10.234 -0.1225 -0.3039 -0.3986
  300MOL0     C39500   3.695   2.079  10.286  0.6213 -0.8058 -0.0478
  300MOL0     C39501   3.570   2.085  10.350  0.0668 -1.1628  0.1367
  300MOL0     C39502   3.497   2.201  10.348 -0.4168  0.5573  0.7217
  300MOL0     O39503   3.377   2.199  10.415  0.2622  0.5124  0.5690
  300MOL0     C39504   3.268   2.284  10.360  0.0435  0.0826 -0.4461
  300MOL0     C39505   3.127   2.216  10.371 -0.0643  0.0492  0.0426
  300MOL0     C39506   3.021   2.313  10.357 -0.3841 -0.0549 -1.4327
  300MOL0     C39507   2.888   2.259  10.417  0.0922  0.7134  0.5218
  300MOL0     C39508   2.766   2.348  10.402 -0.0560  0.5342  0.1706
  300MOL0     C39509   2.739   2.415  10.272  0.0350  1.0229  0.1089
  300MOL0     C39510   2.744   2.327  10.153 -0.6377  0.5692  0.8822
  300MOL0     C39511   2.609   2.275  10.107  0.0529 -0.2640 -0.0878
  300MOL0    Cl39512   2.606   2.207   9.946  0.1331  0.3561 -0.2421
  300MOL0     C39513   3.556   2.322  10.302 -0.5395 -0.4287 -0.1757
  300MOL0     C39514   3.682   2.319  10.247 -0.1800 -0.8506  0.3068
  300MOL0     O39515   3.934   2.387  10.091 -0.4495  0.0643 -0.2947
  300MOL0     C39516   4.189   2.309  10.003  0.6439  0.5350  0.9122
  300MOL0     C39517   4.306   2.263   9.954 -0.0690 -0.3192  0.3330
  300MOL0     N39518   4.852   1.936  10.280  0.4102  0.2601 -0.6686
  300MOL0     N39519   4.952   1.849  10.297 -0.4119  0.4697 -0.0761
  300MOL0     C39520   4.169   1.664  10.118 -0.3306 -0.4976 -1.2617
  300MOL0     C39521   4.033   1.627  10.119  0.6013 -0.0782  0.2461
  300MOL0     C39522   3.641   1.537   9.905  0.2294  0.5086 -0.8564
  300MOL0     C39523   3.566   1.510   9.790  0.6716  0.7857  0.0378
  300MOL0     C39524   3.428   1.540   9.789 -1.1245 -0.6243  1.2853
  300MOL0     C39525   3.365   1.584   9.907 -0.0334  0.1282 -0.7102
  300MOL0     O39526   3.226   1.596   9.898 -0.2471 -0.6941 -0.2862
  300MOL0     C39527   3.154   1.634  10.010 -0.0333 -0.5261 -0.4062
  300MOL0     C39528   3.014   1.679   9.962 -0.4656 -0.5224  0.0795
  300MOL0     C39529   2.926   1.745  10.064  0.2624 -0.4297 -0.9308
  300MOL0     C39530   2.803   1.804  10.003  0.6338  0.1875  0.4562
  300MOL0     C39531   2.732   1.886  10.100  0.0952  0.0142 -0.4555
  300MOL0     C39532   2.691   1.961  10.186 -0.4796 -1.1215  1.0410
  300MOL0     C39533   3.443   1.603  10.025 -0.1163 -0.0523 -0.5386
  300MOL0     C39534   3.578   1.579  10.021  0.2946  0.7024 -0.6385
  300MOL0     H39535   4.043   1.369   9.913  0.2824 -1.1978  2.8306
  300MOL0     H39536   4.279   1.407   9.927  1.1077  0.6461  1.0962
  300MOL0     H39537   4.375   1.773   9.919 -0.1876 -1.3726 -5.4263
  300MOL0     H39538   4.433   1.629   9.846 -0.4867  0.1832 -0.7085
  300MOL0     H39539   4.586   1.823  10.046  0.9784  0.5146 -0.4033
  300MOL0     H39540   4.606   1.782   9.881 -1.3219 -0.0741 -0.2994
  300MOL0     H39541   4.669   1.540   9.951 -1.0526 -0.2426 -0.4945
  300MOL0     H39542   4.650   1.600  10.115 -0.5554  1.4144 -0.0631
  300MOL0     H39543   4.870   1.724   9.935 -1.4642  1.7534  0.3484
  300MOL0     H39544   4.826   1.760  10.096  5.2604 -1.9819  1.5200
  300MOL0     H39545   4.881   1.480  10.015  1.2174  0.3951 -0.9891
  300MOL0     H39546   4.872   1.548  10.178  0.6018 -0.9935 -0.1126
  300MOL0     H39547   5.091   1.633   9.974 -2.7227 -1.8656 -0.3917
  300MOL0     H39548   5.115   1.478  10.047  0.2213 -1.0800 -0.0051
  300MOL0     H39549   5.087   1.614  10.288  2.8471 -1.7682  1.0818
  300MOL0     H39550   5.235   1.590  10.189  2.5465  2.9575 -0.2824
  300MOL0     H39551   5.232   1.804  10.098  0.7239  0.9003 -0.0071
  300MOL0     H39552   5.229   1.813  10.269  0.5235  1.1701 -0.7466
  300MOL0     H39553   5.036   1.991  10.011 -2.0295  0.0942 -0.4712
  300MOL0     H39554   4.887   2.187  10.059 -0.2655  0.8830  0.8131
  300MOL0     H39555   4.770   2.189  10.173  1.0694 -0.7072  2.3246
  300MOL0     H39556   4.628   2.033  10.042  1.6529 -0.2022  3.8986
  300MOL0     H39557   4.763   1.993   9.934  1.0674 -1.2029  2.8881
  300MOL0     H39558   4.623   2.271   9.952 -0.3414 -0.3804 -0.2193
  300MOL0     H39559   4.736   2.224   9.832 -0.0222  2.7084  1.1317
  300MOL0     H39560   4.572   2.069   9.726 -2.4148 -1.2628 -0.9049
  300MOL0     H39561   4.486   2.221   9.763  1.4490 -0.8870 -2.9158
  300MOL0     H39562   4.281   1.939  10.071 -5.5664 -1.4429  0.0626
  300MOL0     H39563   4.066   2.027  10.155 -1.5425  1.7690  1.4091
  300MOL0     H39564   3.743   1.983  10.271  1.6606 -0.6318  1.8425
  300MOL0     H39565   3.504   2.004  10.378 -1.7294  0.4775  0.8551
  300MOL0     H39566   3.296   2.308  10.257  4.5702  1.3380  0.8700
  300MOL0     H39567   3.272   2.380  10.411  0.1082 -0.2199  0.1215
  300MOL0     H39568   3.110   2.162  10.464 -1.1679 -1.2895 -0.8942
  300MOL0     H39569   3.129   2.138  10.294  1.1926  0.3668 -0.2806
  300MOL0     H39570   3.008   2.343  10.252 -0.6057 -0.3140 -1.4815
  300MOL0     H39571   3.052   2.403  10.409 -1.4527 -0.7134  0.4406
  300MOL0     H39572   2.854   2.168  10.367 -0.6006  2.3357 -2.1480
  300MOL0     H39573   2.915   2.224  10.517  1.5064 -0.3924 -0.1858
  300MOL0     H39574   2.766   2.428  10.477  1.2312 -1.0518  1.9555
  300MOL0     H39575   2.679   2.283  10.415  0.5190 -0.3878 -0.4748
  300MOL0     H39576   2.820   2.487  10.255  0.9177 -0.2087 -1.1463
  300MOL0     H39577   2.637   2.454  10.275 -0.7921 -1.0783  1.4184
  300MOL0     H39578   2.789   2.389  10.074  0.8856  0.6818  1.8078
  300MOL0     H39579   2.820   2.251  10.174  0.5457  1.5937  0.4775
  300MOL0     H39580   2.541   2.361  10.105 -2.3144 -2.0422 -1.9468
  300MOL0     H39581   2.555   2.209  10.177 -0.6707 -0.3871 -0.7516
  300MOL0     H39582   3.487   2.406  10.303 -2.9974 -2.2373 -2.5551
  300MOL0     H39583   3.730   2.408  10.207 -0.4732 -1.0363 -0.4748
  300MOL0     H39584   4.177   2.413   9.974 -1.9270  0.2358  0.6738
  300MOL0     H39585   4.371   2.328   9.897 -0.0382 -2.8795 -2.8361
  300MOL0     H39586   4.213   1.742  10.179 -4.1925  0.6116  0.4240
  300MOL0     H39587   3.958   1.654  10.193 -0.4303 -1.2008 -0.3606
  300MOL0     H39588   3.612   1.484   9.694  3.3080 -0.6168  1.5463
  300MOL0     H39589   3.371   1.525   9.698  0.7519  0.8276 -0.2395
  300MOL0     H39590   3.205   1.713  10.067 -2.3055  2.5296 -2.2834
  300MOL0     H39591   3.148   1.545  10.072  1.2160 -3.1384 -3.7477
  300MOL0     H39592   3.021   1.742   9.873  0.0096  0.4801  0.8110
  300MOL0     H39593   2.968   1.589   9.921 -1.8066  1.2229 -2.5292
  300MOL0     H39594   2.987   1.827  10.104 -0.7267  0.2510 -0.8018
  300MOL0     H39595   2.905   1.686  10.154  2.3089 -0.1622 -0.2078
  300MOL0     H39596   2.827   1.855   9.909 -1.5274 -0.6565 -0.6179
  300MOL0     H39597   2.734   1.722   9.982  0.4842  0.1529  1.0603
  300MOL0     H39598   2.636   2.026  10.251  0.5469 -0.7687  1.5846
  300MOL0     H39599   3.400   1.628  10.122 -1.3142  4.2851 -1.9509
  300MOL0     H39600   3.626   1.595  10.117 -2.1448  0.5319  0.7107
  301MOL0     O39601   9.172   3.142   3.563 -0.2191 -0.1722 -0.7652
  301MOL0     C39602   9.194   3.075   3.660 -0.5711  0.6963  0.9384
  301MOL0     O39603   9.294   3.095   3.747  0.2414 -0.4327  0.1136
  301MOL0     C39604   9.409   3.162   3.709  0.1374  0.0656  0.1293
  301MOL0     C39605   9.490   3.110   3.606 -0.2578 -0.0452 -0.2768
  301MOL0     C39606   9.608   3.182   3.568 -0.0867 -0.5175 -0.8293
  301MOL0     C39607   9.654   3.296   3.639 -0.5912  0.6810  0.2164
  301MOL0     O39608   9.784   3.337   3.610  0.5015 -0.5016 -0.5186
  301MOL0     C39609   9.817   3.473   3.615 -0.8721  0.0025  0.7282
  301MOL0     C39610   9.727   3.550   3.505  0.0875 -0.3478  0.0409
  301MOL0     C39611   9.716   3.695   3.557  0.1074 -0.4206 -0.3288
  301MOL0     C39612   9.684   3.794   3.447  0.5552  0.0620  0.6417
  301MOL0     C39613   9.688   3.942   3.487 -0.6531  0.3270 -0.5255
  301MOL0     C39614   9.659   4.055   3.379  0.1621  0.0742  0.5365
  301MOL0     C39615   9.711   4.193   3.431  0.5166 -0.2177  0.0531
  301MOL0     C39616   9.698   4.316   3.344 -0.0826 -0.3736 -0.5383
  301MOL0     N39617   9.805   4.326   3.246 -0.3467  0.3956  0.7322
  301MOL0     C39618   9.781   4.272   3.119  0.2726  0.7307  0.2401
  301MOL0     C39619   9.906   4.261   3.076 -0.0587 -0.2300  1.2694
  301MOL0     C39620   9.939   4.202   2.936 -0.2437  0.2205  0.1248
  301MOL0     C39621   9.896   4.056   2.930 -0.4512 -0.1189 -0.1889
  301MOL0     C39622   9.989   3.970   3.027  0.5710  0.2210 -0.2625
  301MOL0     C39623   9.964   3.820   3.027 -0.0012 -0.6840 -0.1199
  301MOL0     O39624   9.829   3.790   3.066  0.2074 -0.0274 -0.1912
  301MOL0     C39625   9.792   3.659   3.095 -0.7755 -0.0161  0.7848
  301MOL0     C39626   9.662   3.644   3.144  0.8630 -0.0843 -0.5654
  301MOL0     C39627   9.624   3.515   3.177  0.4149 -0.3381  0.9495
  301MOL0     C39628   9.714   3.406   3.152  0.0342 -0.4705 -0.4214
  301MOL0     C39629   9.673   3.269   3.174  0.0305  0.3830 -1.0093
  301MOL0     O39630   9.537   3.244   3.208  0.1260  0.5512  0.0331
  301MOL0     C39631   9.496   3.114   3.222  0.0126  0.2976  1.2321
  301MOL0     C39632   9.521   3.006   3.128 -0.2418 -0.6524 -1.2970
  301MOL0     C39633   9.445   2.887   3.131  0.0499 -1.3028 -0.5633
  301MOL0     C39634   9.336   2.867   3.218 -0.2158 -0.3561 -0.3399
  301MOL0     O39635   9.254   2.757   3.216  0.0131  0.5948 -0.4754
  301MOL0     C39636   9.151   2.730   3.320  0.8719 -0.4712 -0.3848
  301MOL0     C39637   9.109   2.577   3.292  0.5077  0.1604  0.0701
  301MOL0     C39638   9.031   2.525   3.409  1.1039 -0.3078 -0.0611
  301MOL0     C39639   8.987   2.377   3.361 -1.1073 -0.0008  0.6841
  301MOL0     C39640   8.929   2.305   3.477 -0.8437  0.4031  0.0947
  301MOL0     C39641   8.960   2.162   3.484  0.6735  0.6197 -0.6378
  301MOL0     C39642   8.902   2.093   3.365 -0.2416 -0.1763  0.3026
  301MOL0     C39643   8.875   1.945   3.392 -0.5475  0.3607 -0.3977
  301MOL0    Cl39644   8.772   1.916   3.544  0.3800 -0.4733 -0.2610
  301MOL0     C39645   9.316   2.969   3.315  0.0511 -0.5665  0.5058
  301MOL0     C39646   9.382   3.100   3.311  0.7699  0.8758 -1.1150
  301MOL0     O39647   9.764   3.184   3.177  0.7708 -0.5198  0.4851
  301MOL0     C39648   9.848   3.427   3.113  0.7433 -0.4359  0.6324
  301MOL0     C39649   9.888   3.548   3.087 -0.5852 -0.8793  1.6225
  301MOL0     N39650  10.002   4.325   3.158 -0.4697 -0.3026 -0.4471
  301MOL0     N39651   9.939   4.355   3.275  0.5858 -0.0089  0.0808
  301MOL0     C39652   9.586   3.334   3.754  1.2718  0.3407  0.6689
  301MOL0     C39653   9.465   3.272   3.781  0.1869  0.3982  0.8230
  301MOL0     C39654   9.100   2.956   3.676  0.0450 -0.0182 -0.4013
  301MOL0     C39655   8.994   2.940   3.583 -0.5779 -0.6877 -0.3031
  301MOL0     C39656   8.920   2.825   3.600  0.5353 -0.3209 -0.4513
  301MOL0     C39657   8.937   2.730   3.690  0.2119  0.0704  1.1512
  301MOL0     O39658   8.840   2.637   3.693 -0.1137  0.1225  1.0979
  301MOL0     C39659   8.751   2.661   3.800  1.2788 -0.5316  0.5675
  301MOL0     C39660   8.647   2.548   3.836  0.3428 -0.1230  0.8592
  301MOL0     C39661   8.549   2.521   3.715 -0.6295  0.9796  0.9648
  301MOL0     C39662   8.603   2.422   3.610  0.9335 -0.5030  0.1356
  301MOL0     C39663   8.590   2.287   3.660 -0.4626 -0.4329 -0.2555
  301MOL0     C39664   8.586   2.168   3.671 -0.2692  0.4644  0.9908
  301MOL0     C39665   9.028   2.761   3.797  0.0124  0.1733  0.1389
  301MOL0     C39666   9.111   2.865   3.789 -0.1494 -0.0631  0.4475
  301MOL0     H39667   9.471   3.015   3.558 -1.8434 -0.2874  0.7533
  301MOL0     H39668   9.671   3.150   3.485  0.8953 -2.2044  0.5139
  301MOL0     H39669   9.923   3.481   3.591 -0.3171  0.7500  3.1108
  301MOL0     H39670   9.813   3.526   3.711  0.6957  0.9535  0.2995
  301MOL0     H39671   9.622   3.519   3.508 -0.9757  2.9217  0.4103
  301MOL0     H39672   9.770   3.537   3.406  0.1024 -1.6585  0.1954
  301MOL0     H39673   9.807   3.724   3.611  0.0733 -1.4195  0.3106
  301MOL0     H39674   9.633   3.698   3.628 -0.1810  2.9243 -0.6677
  301MOL0     H39675   9.753   3.788   3.362  0.6775 -1.0934  0.8053
  301MOL0     H39676   9.583   3.773   3.410 -0.8401  0.1768  4.0182
  301MOL0     H39677   9.785   3.951   3.537  0.2680 -2.1903 -1.6693
  301MOL0     H39678   9.622   3.968   3.570  1.5985  4.1056  0.3075
  301MOL0     H39679   9.552   4.054   3.356  0.4094 -1.0829 -0.6219
  301MOL0     H39680   9.714   4.014   3.294  3.5348 -0.3321  2.7232
  301MOL0     H39681   9.652   4.230   3.516  1.5436  0.9970  0.2699
  301MOL0     H39682   9.817   4.184   3.455  0.8138 -1.5555 -1.6193
  301MOL0     H39683   9.699   4.401   3.412 -0.1209 -1.9653  1.5436
  301MOL0     H39684   9.609   4.321   3.281  0.1449 -0.0430 -0.8448
  301MOL0     H39685   9.697   4.226   3.067 -0.1532 -0.9548  2.2638
  301MOL0     H39686  10.047   4.210   2.917 -0.3841  0.1639 -0.7540
  301MOL0     H39687   9.894   4.252   2.850 -1.8723  0.5261  1.1198
  301MOL0     H39688   9.913   4.023   2.827  2.4753 -2.5451  0.9112
  301MOL0     H39689   9.788   4.053   2.949 -0.6806  0.9039 -1.1875
  301MOL0     H39690  10.088   4.000   2.990  0.7320  1.6419  1.2123
  301MOL0     H39691   9.976   3.993   3.133 -0.4502 -5.1568  1.1126
  301MOL0     H39692  10.034   3.766   3.092  0.0505  1.5667  1.8100
  301MOL0     H39693   9.965   3.787   2.923 -1.4660  2.2337 -1.1748
  301MOL0     H39694   9.593   3.727   3.149 -0.0039 -0.7445 -1.1973
  301MOL0     H39695   9.536   3.475   3.227 -0.7931  0.9090 -0.0936
  301MOL0     H39696   9.603   3.011   3.058  0.1975 -3.3226 -1.0441
  301MOL0     H39697   9.455   2.827   3.040  0.6520 -0.2736 -1.2036
  301MOL0     H39698   9.066   2.794   3.293  1.9274 -0.1289 -3.2419
  301MOL0     H39699   9.177   2.748   3.425 -2.4232 -3.0397  1.0661
  301MOL0     H39700   9.204   2.523   3.287  1.2712  1.5480 -1.3484
  301MOL0     H39701   9.058   2.567   3.196 -2.4996  1.6472  1.3853
  301MOL0     H39702   8.948   2.593   3.429  3.7006  2.7016  1.3473
  301MOL0     H39703   9.098   2.515   3.495  0.9387 -0.1639  0.0847
  301MOL0     H39704   8.920   2.369   3.275  1.1039 -0.6761 -1.0624
  301MOL0     H39705   9.077   2.323   3.331 -0.4265  0.8313  1.1798
  301MOL0     H39706   8.823   2.324   3.495 -0.1224  1.7088  3.7597
  301MOL0     H39707   8.980   2.345   3.566  2.8083  1.6311 -2.2934
  301MOL0     H39708   8.917   2.122   3.576 -1.6833  1.7015 -1.1913
  301MOL0     H39709   9.067   2.142   3.483  0.5078 -0.3659  0.2460
  301MOL0     H39710   8.806   2.139   3.339  0.5538  1.4935  0.1796
  301MOL0     H39711   8.980   2.098   3.289  0.0955 -3.6276  0.2699
  301MOL0     H39712   8.967   1.891   3.417 -0.4552  1.0108  0.6957
  301MOL0     H39713   8.826   1.894   3.308 -1.9171  0.5147  0.2863
  301MOL0     H39714   9.258   2.965   3.407  1.2537 -0.5895  1.2916
  301MOL0     H39715   9.371   3.184   3.379 -2.3045 -1.3583  1.4651
  301MOL0     H39716   9.929   3.356   3.107  0.9027 -0.3382  1.5378
  301MOL0     H39717   9.993   3.544   3.059  0.6479 -2.3989  5.6561
  301MOL0     H39718   9.623   3.394   3.837 -0.8610 -0.0845  2.0182
  301MOL0     H39719   9.429   3.312   3.875 -2.2831 -0.9856  0.5670
  301MOL0     H39720   8.977   3.015   3.506  2.4341 -1.2631 -1.6654
  301MOL0     H39721   8.846   2.815   3.521 -2.4288 -1.4506  2.2559
  301MOL0     H39722   8.692   2.751   3.779 -1.2942 -2.5424 -1.6909
  301MOL0     H39723   8.802   2.683   3.893 -1.5485  1.6439  1.7557
  301MOL0     H39724   8.693   2.457   3.875 -1.1194 -1.6459 -0.7962
  301MOL0     H39725   8.581   2.590   3.912  1.9984 -1.7032  3.3060
  301MOL0     H39726   8.534   2.613   3.657 -2.2933  0.2015  0.0844
  301MOL0     H39727   8.461   2.473   3.758  1.5161 -3.7141  0.7289
  301MOL0     H39728   8.558   2.441   3.512  4.2695  2.2221 -1.0956
  301MOL0     H39729   8.706   2.456   3.592  0.5246 -0.5096 -2.6614
  301MOL0     H39730   8.585   2.062   3.687 -0.4191 -0.0534 -1.9045
  301MOL0     H39731   9.048   2.691   3.878  2.0287  1.6310  0.9792
  301MOL0     H39732   9.189   2.889   3.861 -0.9224  1.5596  0.7964
  302MOL0     O39733   4.627   0.718   0.328 -0.2423  0.5237 -0.0805
  302MOL0     C39734   4.559   0.803   0.284 -0.3625  0.1319 -0.5788
  302MOL0     O39735   4.433   0.791   0.252  0.4098 -0.6195  0.1959
  302MOL0     C39736   4.367   0.678   0.288  0.7470  0.9933 -0.2749
  302MOL0     C39737   4.364   0.567   0.209  0.3915  0.0534 -0.5773
  302MOL0     C39738   4.296   0.446   0.244 -0.0252  0.4872  0.1799
  302MOL0     C39739   4.194   0.455   0.340  0.5592 -0.4873 -0.6949
  302MOL0     O39740   4.105   0.354   0.376  0.3931  0.3511  0.5332
  302MOL0     C39741   4.037   0.300   0.260 -0.4873  0.2454 -0.0538
  302MOL0     C39742   4.061   0.151   0.254 -0.1346  0.3648  0.0986
  302MOL0     C39743   3.994   0.092   0.136  0.1726 -0.1751  0.0875
  302MOL0     C39744   3.844   0.098   0.147  0.3491 -0.4454  0.9572
  302MOL0     C39745   3.773  -0.016   0.078 -0.3669 -0.3444 -0.9262
  302MOL0     C39746   3.621  -0.030   0.089 -0.1746  0.6292  0.1637
  302MOL0     C39747   3.573  -0.094   0.217 -0.1657 -0.5624  0.7494
  302MOL0     C39748   3.418  -0.081   0.215 -0.5432  0.4581 -0.8798
  302MOL0     N39749   3.366  -0.132   0.340  0.9321 -0.4521  0.5629
  302MOL0     C39750   3.323  -0.058   0.446 -0.1245  0.4635 -0.6865
  302MOL0     C39751   3.286  -0.150   0.544 -0.6570  0.1313  0.0640
  302MOL0     C39752   3.238  -0.134   0.686  0.2014  0.8672  0.3761
  302MOL0     C39753   3.358  -0.145   0.790 -0.7522 -0.6538 -0.4491
  302MOL0     C39754   3.319  -0.157   0.932  1.2295  0.0720 -0.6590
  302MOL0     C39755   3.415  -0.229   1.032 -0.5458  1.0076 -0.1632
  302MOL0     O39756   3.334  -0.255   1.142  0.3669 -0.6637 -0.5339
  302MOL0     C39757   3.392  -0.239   1.268  0.9408  0.9106  0.3899
  302MOL0     C39758   3.390  -0.352   1.346  0.9609  0.3885 -0.0593
  302MOL0     C39759   3.434  -0.348   1.486  0.9654 -0.0261  0.5612
  302MOL0     C39760   3.484  -0.236   1.539 -0.6075 -1.7796 -0.4649
  302MOL0     C39761   3.550  -0.233   1.678 -0.5427 -1.2062 -0.6390
  302MOL0     O39762   3.588  -0.351   1.734  0.7073 -1.0046 -0.1946
  302MOL0     C39763   3.633  -0.351   1.865  1.1305 -0.8559  0.0244
  302MOL0     C39764   3.580  -0.269   1.971 -1.0363 -1.2286 -0.4560
  302MOL0     C39765   3.636  -0.292   2.101  0.4104 -1.0375 -0.0000
  302MOL0     C39766   3.731  -0.384   2.128 -0.5212 -0.1502  0.1446
  302MOL0     O39767   3.776  -0.399   2.257  0.3581 -0.1025 -0.0699
  302MOL0     C39768   3.828  -0.523   2.305 -0.3388 -0.5361  0.3671
  302MOL0     C39769   3.856  -0.487   2.446  0.7109  0.1595 -0.4806
  302MOL0     C39770   3.972  -0.380   2.471 -0.2315  0.6325  0.2466
  302MOL0     C39771   4.017  -0.376   2.613  0.8455  0.2337 -0.3130
  302MOL0     C39772   4.171  -0.357   2.605  0.1181 -0.5714  0.0967
  302MOL0     C39773   4.240  -0.343   2.745 -0.8229  0.1905 -0.3874
  302MOL0     C39774   4.396  -0.371   2.735 -0.2551 -0.1229  0.7247
  302MOL0     C39775   4.468  -0.325   2.855  0.1631 -0.5099 -0.2072
  302MOL0    Cl39776   4.634  -0.402   2.892 -0.1697 -0.4330  0.0727
  302MOL0     C39777   3.782  -0.461   2.023  0.6535 -0.6581  0.8584
  302MOL0     C39778   3.733  -0.439   1.889  0.7061  0.2304 -0.0381
  302MOL0     O39779   3.566  -0.121   1.725 -0.3001 -1.5932 -0.4834
  302MOL0     C39780   3.489  -0.125   1.454  0.7384  0.6895 -0.6180
  302MOL0     C39781   3.447  -0.127   1.321 -0.2987 -0.7371  0.0767
  302MOL0     N39782   3.293  -0.276   0.479  1.0804  0.2041 -1.4119
  302MOL0     N39783   3.337  -0.259   0.360  0.0385  0.1530  0.7803
  302MOL0     C39784   4.209   0.564   0.429  1.7368 -1.7115 -0.4880
  302MOL0     C39785   4.300   0.674   0.406  0.0388  0.6054 -0.3855
  302MOL0     C39786   4.629   0.926   0.244  0.0828  0.0108  0.0977
  302MOL0     C39787   4.580   1.004   0.140  0.5074  1.1773  0.0570
  302MOL0     C39788   4.647   1.117   0.084  1.2528  0.6424  0.2371
  302MOL0     C39789   4.769   1.160   0.144  0.5852 -0.4985  0.1213
  302MOL0     O39790   4.861   1.258   0.101 -0.5955  0.4660 -0.3086
  302MOL0     C39791   4.809   1.385   0.055 -0.9887  1.4080  0.5730
  302MOL0     C39792   4.804   1.488   0.168 -0.1550 -0.5025 -0.3435
  302MOL0     C39793   4.780   1.631   0.109 -0.2532  1.4571 -0.5588
  302MOL0     C39794   4.786   1.753   0.203 -0.5574 -0.0468 -0.0615
  302MOL0     C39795   4.862   1.870   0.152 -0.1757 -0.5670  0.7749
  302MOL0     C39796   4.934   1.962   0.113 -0.0091 -0.1471 -0.0882
  302MOL0     C39797   4.814   1.093   0.254  0.4124 -0.3104  0.0874
  302MOL0     C39798   4.742   0.975   0.303  0.2036 -0.5376  0.2412
  302MOL0     H39799   4.430   0.577   0.123  2.6854 -0.9873  0.9990
  302MOL0     H39800   4.318   0.357   0.186  0.5096  0.3055  0.6534
  302MOL0     H39801   4.050   0.357   0.167  0.8499  0.1270  0.0352
  302MOL0     H39802   3.928   0.304   0.269 -0.6358 -0.7353 -1.1333
  302MOL0     H39803   4.031   0.113   0.352  1.2479 -1.0990  0.0216
  302MOL0     H39804   4.170   0.139   0.262  0.2141  2.9899 -0.0256
  302MOL0     H39805   4.029  -0.012   0.141 -1.2801 -0.6330  1.5145
  302MOL0     H39806   4.017   0.147   0.044 -2.5229  1.3039  0.1795
  302MOL0     H39807   3.814   0.096   0.252  0.0186  0.8128  0.9011
  302MOL0     H39808   3.793   0.183   0.102 -0.2687 -2.1289 -1.7154
  302MOL0     H39809   3.828  -0.107   0.104 -0.1221  0.2696  0.8050
  302MOL0     H39810   3.790  -0.001  -0.030  3.8340  3.9456 -0.0398
  302MOL0     H39811   3.603  -0.107   0.013 -0.5987  1.1894 -0.3052
  302MOL0     H39812   3.567   0.058   0.054 -2.3869 -0.6092  0.3033
  302MOL0     H39813   3.599  -0.200   0.219  1.9912 -0.0716  1.4623
  302MOL0     H39814   3.624  -0.046   0.301  2.0898  0.0208 -0.8192
  302MOL0     H39815   3.379  -0.133   0.127  1.5060 -1.1846 -0.8950
  302MOL0     H39816   3.380   0.021   0.208 -0.3552  0.5513 -0.5497
  302MOL0     H39817   3.323   0.050   0.450 -4.2391  0.5664  0.2013
  302MOL0     H39818   3.159  -0.209   0.695 -0.7542  1.1623 -3.7477
  302MOL0     H39819   3.189  -0.037   0.700 -0.0581  0.6867  0.7440
  302MOL0     H39820   3.413  -0.051   0.784  1.1078 -1.7234 -0.8987
  302MOL0     H39821   3.427  -0.224   0.757  0.2608  0.1048 -0.1816
  302MOL0     H39822   3.304  -0.056   0.971  3.0890  0.7965 -1.7135
  302MOL0     H39823   3.221  -0.203   0.950  1.6917 -0.1064  1.7688
  302MOL0     H39824   3.503  -0.167   1.053 -0.3501  1.1500 -1.3239
  302MOL0     H39825   3.451  -0.323   0.990  1.3559  1.9523 -0.7634
  302MOL0     H39826   3.357  -0.444   1.299  1.3584 -0.1818  0.7527
  302MOL0     H39827   3.423  -0.432   1.554 -1.3253  0.7751  1.2906
  302MOL0     H39828   3.529  -0.176   1.948  1.1966  0.2098  0.0376
  302MOL0     H39829   3.598  -0.233   2.184 -1.5180 -0.1309 -1.4534
  302MOL0     H39830   3.924  -0.541   2.255 -1.0383 -2.9008 -0.2179
  302MOL0     H39831   3.764  -0.610   2.293 -1.7549  0.1229  2.5546
  302MOL0     H39832   3.884  -0.583   2.492 -1.0226 -0.1338  0.0421
  302MOL0     H39833   3.758  -0.457   2.485  1.0237 -0.5667  0.9531
  302MOL0     H39834   3.955  -0.287   2.416 -1.3275 -0.7949 -2.0112
  302MOL0     H39835   4.054  -0.430   2.418 -2.9560 -1.7288 -2.1725
  302MOL0     H39836   3.984  -0.290   2.671 -1.5648 -1.9096  1.7077
  302MOL0     H39837   3.985  -0.469   2.661  1.2750  0.2864  0.0881
  302MOL0     H39838   4.187  -0.265   2.548 -1.5667 -0.6472 -0.5538
  302MOL0     H39839   4.218  -0.435   2.544 -0.7591 -0.6326 -0.5252
  302MOL0     H39840   4.200  -0.417   2.815 -0.1710 -1.9578 -2.1866
  302MOL0     H39841   4.226  -0.242   2.784 -1.4428  0.1297 -0.4422
  302MOL0     H39842   4.402  -0.478   2.712 -1.2746 -0.1229  0.4218
  302MOL0     H39843   4.444  -0.325   2.648  0.5113  2.5337  2.4164
  302MOL0     H39844   4.403  -0.339   2.942 -1.4102  0.6642 -1.1413
  302MOL0     H39845   4.482  -0.217   2.845 -0.0346 -0.3168  1.3141
  302MOL0     H39846   3.848  -0.547   2.026 -0.8261 -1.8932 -0.3584
  302MOL0     H39847   3.768  -0.501   1.807  0.1512 -1.5602  1.0158
  302MOL0     H39848   3.523  -0.030   1.496 -0.2046  0.6560  0.2555
  302MOL0     H39849   3.441  -0.034   1.264 -0.2470 -1.5084 -1.2307
  302MOL0     H39850   4.132   0.574   0.505  1.0989 -2.0239 -1.0843
  302MOL0     H39851   4.310   0.755   0.477  0.2687 -0.5631  0.9445
  302MOL0     H39852   4.488   0.969   0.095 -0.5587  0.0493  2.9218
  302MOL0     H39853   4.600   1.157  -0.006  2.9511  3.0719  0.3676
  302MOL0     H39854   4.719   1.381  -0.007 -1.8051 -0.8563  1.8083
  302MOL0     H39855   4.884   1.430  -0.011  1.0342 -2.0049  0.2920
  302MOL0     H39856   4.717   1.454   0.225  0.2049 -1.5446 -0.3943
  302MOL0     H39857   4.896   1.477   0.227  0.7487  0.8705 -1.4618
  302MOL0     H39858   4.681   1.633   0.063 -1.0258  1.7672  1.0730
  302MOL0     H39859   4.858   1.645   0.033  2.0097  1.0833  1.5659
  302MOL0     H39860   4.690   1.780   0.248  0.2943 -1.1090  2.5830
  302MOL0     H39861   4.841   1.722   0.293  1.9863 -0.1758 -1.5700
  302MOL0     H39862   5.013   2.020   0.071  3.5514 -4.2533  0.2129
  302MOL0     H39863   4.910   1.107   0.302  2.0966 -2.9885 -2.1583
  302MOL0     H39864   4.777   0.924   0.392 -0.4566  0.1346  0.8986
  303MOL0     O39865   8.583   2.366   3.263 -0.3470  0.0513 -0.1978
  303MOL0     C39866   8.478   2.347   3.202 -0.0967  0.1323  0.4104
  303MOL0     O39867   8.435   2.225   3.150 -0.4740  0.2035 -0.4511
  303MOL0     C39868   8.523   2.116   3.138  0.6122  1.6704  0.5294
  303MOL0     C39869   8.645   2.108   3.079  0.7445  1.3991  0.2311
  303MOL0     C39870   8.713   1.985   3.066  0.0730  0.0749  0.1952
  303MOL0     C39871   8.656   1.868   3.119  0.5782  1.3668 -0.5345
  303MOL0     O39872   8.698   1.737   3.099 -0.3150 -0.1428 -0.3745
  303MOL0     C39873   8.640   1.693   2.979 -0.3641  0.0695  0.2643
  303MOL0     C39874   8.500   1.629   2.986 -0.5691  0.2898  0.1550
  303MOL0     C39875   8.506   1.491   3.063  0.0741  0.5640  0.3872
  303MOL0     C39876   8.378   1.402   3.054 -0.1151 -0.2673 -0.2677
  303MOL0     C39877   8.350   1.325   3.189  0.2692 -0.1390  0.9963
  303MOL0     C39878   8.387   1.179   3.167  0.1245  0.0107 -0.2281
  303MOL0     C39879   8.394   1.125   3.313 -0.8299 -0.8988  0.7046
  303MOL0     C39880   8.441   0.980   3.330  0.0574  0.7114  0.1986
  303MOL0     N39881   8.333   0.888   3.328 -0.3999  0.7454  0.4890
  303MOL0     C39882   8.219   0.875   3.411 -0.4701 -0.8759 -0.1398
  303MOL0     C39883   8.192   0.746   3.403 -0.6855  0.1382  0.7660
  303MOL0     C39884   8.079   0.675   3.474  0.0530  0.4544  0.5514
  303MOL0     C39885   8.091   0.684   3.628 -0.1296  0.3657  0.4495
  303MOL0     C39886   7.969   0.636   3.705  0.2336  0.6110 -0.5420
  303MOL0     C39887   7.845   0.729   3.682  0.5511  1.1337 -0.1763
  303MOL0     O39888   7.894   0.863   3.712  0.1126  1.0608  0.2304
  303MOL0     C39889   7.845   0.933   3.815 -0.0199  0.0231  0.1963
  303MOL0     C39890   7.868   0.903   3.948  0.1208 -1.4967  0.6940
  303MOL0     C39891   7.807   0.979   4.046  1.4528 -0.7217  0.0309
  303MOL0     C39892   7.731   1.097   4.011 -0.0188  0.2105  0.3144
  303MOL0     C39893   7.682   1.186   4.116 -0.2539  0.8858  0.0842
  303MOL0     O39894   7.704   1.143   4.251  0.5551  0.6404 -0.4509
  303MOL0     C39895   7.607   1.173   4.339  0.0447 -1.1536 -0.9286
  303MOL0     C39896   7.569   1.077   4.430 -0.1313 -0.6826 -0.5911
  303MOL0     C39897   7.453   1.095   4.510  0.4835  0.8615  0.5399
  303MOL0     C39898   7.379   1.217   4.521  0.5476  0.3867  0.0153
  303MOL0     O39899   7.274   1.244   4.611 -1.0946  0.2692  0.0022
  303MOL0     C39900   7.243   1.140   4.703 -0.6076  0.6712  0.4301
  303MOL0     C39901   7.204   1.197   4.849  0.7677  0.5811 -0.0692
  303MOL0     C39902   7.062   1.262   4.835 -0.4465  1.0221  0.4970
  303MOL0     C39903   7.008   1.305   4.968  0.2316  0.4856 -1.1451
  303MOL0     C39904   6.893   1.409   4.959  0.0359 -0.5308  0.7380
  303MOL0     C39905   6.941   1.551   4.930 -0.0493 -0.3969  0.0514
  303MOL0     C39906   6.819   1.643   4.933 -0.3295  0.1427  0.3123
  303MOL0     C39907   6.862   1.786   4.896 -0.8575  0.7822 -0.7896
  303MOL0    Cl39908   6.740   1.884   4.949 -0.2281 -0.5303  0.2926
  303MOL0     C39909   7.439   1.322   4.449 -0.5275 -0.3568  0.0679
  303MOL0     C39910   7.549   1.300   4.363 -0.0247 -0.5117  0.0369
  303MOL0     O39911   7.643   1.292   4.080 -0.0328 -0.6903 -0.5635
  303MOL0     C39912   7.730   1.132   3.875  0.5780  0.9048 -0.3343
  303MOL0     C39913   7.778   1.049   3.774 -0.5223 -0.7586 -0.5483
  303MOL0     N39914   8.291   0.681   3.323  0.8030  0.3359  0.1116
  303MOL0     N39915   8.366   0.770   3.273  0.3036  0.1897  0.9017
  303MOL0     C39916   8.535   1.879   3.191  0.3312  0.2289 -0.8864
  303MOL0     C39917   8.477   2.005   3.211 -0.1464  0.4803 -1.3110
  303MOL0     C39918   8.394   2.468   3.160  1.5413  0.0818 -0.7436
  303MOL0     C39919   8.365   2.583   3.248 -0.6674  0.4757 -0.7925
  303MOL0     C39920   8.315   2.700   3.196 -0.2257  0.2938 -0.2561
  303MOL0     C39921   8.271   2.700   3.067 -0.6315  0.2532 -0.8961
  303MOL0     O39922   8.198   2.813   3.026  0.5239  0.2902 -0.6083
  303MOL0     C39923   8.210   2.863   2.889 -1.4316 -0.5720  0.6029
  303MOL0     C39924   8.181   3.007   2.868  0.5313 -0.5061 -0.2747
  303MOL0     C39925   8.026   3.029   2.868  0.2344  0.3676 -0.0822
  303MOL0     C39926   7.980   3.174   2.875 -0.2655  0.0926 -0.3961
  303MOL0     C39927   7.834   3.174   2.860 -0.4304  0.1066 -0.5192
  303MOL0     C39928   7.717   3.174   2.856 -0.7282  0.3774 -0.0746
  303MOL0     C39929   8.297   2.594   2.983  0.1835 -0.6469 -0.3980
  303MOL0     C39930   8.341   2.469   3.035  0.1333 -0.9007  0.5458
  303MOL0     H39931   8.687   2.200   3.038  2.8116 -0.4371 -2.1037
  303MOL0     H39932   8.802   1.976   3.004  1.0499 -0.9439  1.6905
  303MOL0     H39933   8.714   1.623   2.938 -0.6380 -0.7866  1.1939
  303MOL0     H39934   8.646   1.774   2.905  0.1090  1.3336  1.6414
  303MOL0     H39935   8.465   1.605   2.885  0.7136  4.1137 -1.3495
  303MOL0     H39936   8.424   1.692   3.033 -0.8231  0.1394 -0.0477
  303MOL0     H39937   8.519   1.498   3.171  0.8675 -3.2481  0.7085
  303MOL0     H39938   8.590   1.433   3.023 -2.9974 -1.4239 -4.0624
  303MOL0     H39939   8.286   1.457   3.039  1.1582  2.8340  2.2281
  303MOL0     H39940   8.383   1.338   2.965 -1.1615 -0.1980 -0.3780
  303MOL0     H39941   8.244   1.343   3.211 -0.2950  1.0687 -2.1075
  303MOL0     H39942   8.412   1.359   3.273  0.7258  0.3970  0.4534
  303MOL0     H39943   8.487   1.185   3.123  0.3772  1.5348  0.5013
  303MOL0     H39944   8.318   1.135   3.095  0.0850 -0.2468 -0.0369
  303MOL0     H39945   8.480   1.179   3.353  0.4452 -1.3406 -1.2821
  303MOL0     H39946   8.299   1.150   3.360 -1.8889  2.6066 -2.7539
  303MOL0     H39947   8.498   0.968   3.423 -0.5040  2.4995  0.8143
  303MOL0     H39948   8.513   0.958   3.251 -0.1220 -2.3308  0.7774
  303MOL0     H39949   8.158   0.949   3.463  0.1055 -1.7391  1.8603
  303MOL0     H39950   8.085   0.576   3.428  2.3500  0.1129  1.4434
  303MOL0     H39951   7.984   0.716   3.439  1.1027  1.7105 -0.9558
  303MOL0     H39952   8.115   0.781   3.673  0.8332  0.3942 -0.0835
  303MOL0     H39953   8.176   0.622   3.659  0.0217  0.4283  0.1596
  303MOL0     H39954   7.938   0.531   3.695  0.8942  0.1380  1.7999
  303MOL0     H39955   7.996   0.634   3.810 -2.7503  1.9999  0.3622
  303MOL0     H39956   7.762   0.705   3.749 -0.5527 -0.1250 -1.8819
  303MOL0     H39957   7.806   0.715   3.580 -2.0875  1.4578  0.7150
  303MOL0     H39958   7.929   0.814   3.964  2.6797  0.0452  0.1276
  303MOL0     H39959   7.826   0.945   4.148  2.2330 -0.0012  0.1337
  303MOL0     H39960   7.611   0.977   4.431 -2.1044 -1.6978  4.0560
  303MOL0     H39961   7.426   1.001   4.558 -0.2512  0.0603 -1.3400
  303MOL0     H39962   7.336   1.084   4.711 -0.8204  0.5146  2.6371
  303MOL0     H39963   7.167   1.069   4.672 -0.2233 -0.8205  2.6457
  303MOL0     H39964   7.277   1.274   4.878 -0.3773  1.8849 -0.5559
  303MOL0     H39965   7.199   1.116   4.922  1.2429  0.6172  0.0087
  303MOL0     H39966   6.988   1.192   4.796 -2.0709  2.6296  0.5882
  303MOL0     H39967   7.083   1.342   4.764  1.2127 -1.3035 -1.8463
  303MOL0     H39968   6.959   1.221   5.019 -0.0987  1.4513  0.1768
  303MOL0     H39969   7.084   1.342   5.037 -0.4410  0.5158 -0.4133
  303MOL0     H39970   6.851   1.421   5.060 -0.2546  3.0218  0.3257
  303MOL0     H39971   6.818   1.374   4.887 -0.3788 -0.2180  1.0131
  303MOL0     H39972   6.981   1.566   4.830  3.0134  1.2370  1.3909
  303MOL0     H39973   7.016   1.574   5.007 -1.3392  0.1608  1.1904
  303MOL0     H39974   6.738   1.613   4.866 -0.4955 -1.3607  1.1380
  303MOL0     H39975   6.783   1.637   5.036  0.9259  2.5848  0.9727
  303MOL0     H39976   6.894   1.799   4.792 -1.9924  2.7877 -0.9306
  303MOL0     H39977   6.949   1.815   4.956 -1.3157 -0.6062  0.6236
  303MOL0     H39978   7.398   1.421   4.432  2.9698  0.8420 -2.7320
  303MOL0     H39979   7.592   1.388   4.316 -0.4851 -0.8619 -1.0694
  303MOL0     H39980   7.685   1.227   3.850 -0.2116  0.6425  0.0607
  303MOL0     H39981   7.761   1.099   3.679 -0.7322 -1.1223 -0.7068
  303MOL0     H39982   8.499   1.786   3.235  0.7967 -0.4823 -1.9693
  303MOL0     H39983   8.393   2.008   3.279  0.6823  2.7629 -0.2986
  303MOL0     H39984   8.396   2.569   3.351  1.3357 -1.5688 -1.5679
  303MOL0     H39985   8.305   2.784   3.265  0.2220  0.7741 -0.7637
  303MOL0     H39986   8.149   2.799   2.825  1.3374 -2.1675 -0.6614
  303MOL0     H39987   8.315   2.840   2.866 -1.9512 -1.9725 -0.5133
  303MOL0     H39988   8.230   3.075   2.938  1.5522 -1.2548 -0.2487
  303MOL0     H39989   8.220   3.036   2.770 -0.6354  0.7024 -0.4153
  303MOL0     H39990   7.977   2.984   2.955  2.6483  2.8362  2.7505
  303MOL0     H39991   7.984   2.996   2.772 -3.5023 -0.3173  1.5980
  303MOL0     H39992   8.011   3.232   2.962  2.5409  1.8363 -2.3717
  303MOL0     H39993   8.026   3.222   2.788  1.4651 -1.3157 -0.3135
  303MOL0     H39994   7.609   3.176   2.855 -0.7247  0.4136 -0.4419
  303MOL0     H39995   8.280   2.623   2.880 -2.2790  3.8388  0.9918
  303MOL0     H39996   8.346   2.379   2.975  3.4223 -1.7632  1.8653
  304MOL0     O39997   9.045   7.691   5.387  0.5184 -0.3812  0.4455
  304MOL0     C39998   8.950   7.613   5.418  0.5065  0.7899 -0.2357
  304MOL0     O39999   8.960   7.479   5.425  0.1165 -0.3825 -0.1859
  304MOL0     C40000   9.083   7.421   5.406  0.4534  0.9027 -0.3668
  304MOL0     C40001   9.122   7.322   5.496  1.0571 -0.0376  0.7162
  304MOL0     C40002   9.218   7.225   5.474  1.7137 -0.1565  0.0812
  304MOL0     C40003   9.293   7.243   5.361  0.2260  0.7328  0.1483
  304MOL0     O40004   9.379   7.137   5.352  0.1129  0.0662  0.4165
  304MOL0     C40005   9.479   7.131   5.244 -0.4806  0.7992 -0.1129
  304MOL0     C40006   9.421   7.083   5.112 -0.0625  0.9886  1.0666
  304MOL0     C40007   9.406   6.932   5.101 -0.0809  0.4886 -0.7035
  304MOL0     C40008   9.533   6.851   5.117  0.3506  0.2622 -0.1366
  304MOL0     C40009   9.520   6.701   5.091  0.1920 -0.6768 -0.0374
  304MOL0     C40010   9.477   6.675   4.955 -0.5220  0.6288  0.6497
  304MOL0     C40011   9.504   6.530   4.905 -1.0222  0.6571 -0.1137
  304MOL0     C40012   9.396   6.431   4.939 -0.8395  0.0550  0.0317
  304MOL0     N40013   9.409   6.305   4.870  0.1653 -0.0774 -0.4580
  304MOL0     C40014   9.523   6.236   4.858  0.7031 -0.2204 -0.0741
  304MOL0     C40015   9.477   6.115   4.826 -0.4339 -0.2104 -0.3064
  304MOL0     C40016   9.548   5.975   4.821 -0.0713 -0.6356  0.4299
  304MOL0     C40017   9.516   5.901   4.956 -0.4373  0.0139  0.5633
  304MOL0     C40018   9.560   5.760   4.941  1.0313 -0.7109  0.3804
  304MOL0     C40019   9.715   5.760   4.955  0.0803  0.1004  0.1778
  304MOL0     O40020   9.750   5.827   5.072  0.8635 -0.1447 -1.2489
  304MOL0     C40021   9.872   5.882   5.082 -0.5628  0.0627  0.4213
  304MOL0     C40022   9.981   5.798   5.050 -0.8285 -0.8298 -0.4297
  304MOL0     C40023  10.115   5.845   5.054 -0.4176  0.0650 -0.1954
  304MOL0     C40024  10.139   5.975   5.104  0.0405  0.1512 -1.6657
  304MOL0     C40025  10.275   6.022   5.129 -0.0307 -0.6428  0.6292
  304MOL0     O40026  10.337   5.983   5.250  0.7221  0.5665 -0.4570
  304MOL0     C40027  10.471   6.015   5.267 -0.0934 -1.0593 -0.8586
  304MOL0     C40028  10.580   5.983   5.169  0.3140 -0.3114 -0.0711
  304MOL0     C40029  10.720   6.013   5.204  0.7984 -0.6314  0.6609
  304MOL0     C40030  10.753   6.064   5.324  0.3585  0.1727  1.0768
  304MOL0     O40031  10.872   6.112   5.364  0.3637  0.0997 -0.0675
  304MOL0     C40032  10.959   6.031   5.444  0.3390 -0.0561 -0.3614
  304MOL0     C40033  11.079   6.113   5.485  0.0508 -0.5759 -1.5495
  304MOL0     C40034  11.052   6.220   5.594 -0.4256 -0.5208 -0.5779
  304MOL0     C40035  11.187   6.259   5.670 -0.1553  0.7823  0.7451
  304MOL0     C40036  11.310   6.294   5.584 -0.4376  0.0143  0.4628
  304MOL0     C40037  11.417   6.349   5.679 -0.5009  0.9739  0.3830
  304MOL0     C40038  11.553   6.371   5.601 -0.5556  0.5730 -0.2624
  304MOL0     C40039  11.645   6.247   5.617  0.6061  1.0879  1.2304
  304MOL0    Cl40040  11.794   6.238   5.513  0.5140 -0.0427  0.2507
  304MOL0     C40041  10.644   6.077   5.410 -0.8976  0.0676 -0.2029
  304MOL0     C40042  10.513   6.049   5.387  0.3294 -0.2797  1.2180
  304MOL0     O40043  10.327   6.076   5.038 -0.0626 -0.6322  0.1920
  304MOL0     C40044  10.038   6.053   5.158  0.7267 -0.1193  0.5309
  304MOL0     C40045   9.899   6.010   5.132 -0.7573 -0.4841 -0.1589
  304MOL0     N40046   9.341   6.118   4.816 -0.2795  0.5578 -0.5731
  304MOL0     N40047   9.300   6.233   4.838 -0.4513 -0.1930  0.2851
  304MOL0     C40048   9.273   7.348   5.270 -0.5372  0.2132 -0.1163
  304MOL0     C40049   9.170   7.434   5.294  0.3791 -0.1694 -0.1596
  304MOL0     C40050   8.815   7.679   5.441 -0.4376  0.3109 -0.1429
  304MOL0     C40051   8.781   7.812   5.408 -0.4505 -0.0370  0.3316
  304MOL0     C40052   8.646   7.848   5.417 -0.2954 -0.1322  0.2980
  304MOL0     C40053   8.538   7.765   5.459 -0.3547 -0.9315 -0.3141
  304MOL0     O40054   8.408   7.813   5.473 -0.9358 -0.1033  0.3619
  304MOL0     C40055   8.308   7.738   5.410 -1.0360 -0.7075 -0.8178
  304MOL0     C40056   8.287   7.783   5.265 -0.0067 -0.0038  0.2292
  304MOL0     C40057   8.188   7.700   5.193  0.8814 -0.1949 -0.3204
  304MOL0     C40058   8.187   7.705   5.037 -0.9709 -0.1528 -0.2434
  304MOL0     C40059   8.315   7.739   4.968 -0.0044 -0.1329 -0.4383
  304MOL0     C40060   8.422   7.752   4.913 -0.6789 -1.0547 -0.6170
  304MOL0     C40061   8.579   7.640   5.499 -0.1020 -0.0190  0.4706
  304MOL0     C40062   8.714   7.602   5.497  0.4497 -0.4715 -0.6544
  304MOL0     H40063   9.059   7.307   5.583  0.1738 -0.5528  0.0090
  304MOL0     H40064   9.208   7.146   5.547 -0.2573  1.5747  1.8040
  304MOL0     H40065   9.554   7.057   5.275 -0.6844  0.0985 -1.2412
  304MOL0     H40066   9.531   7.227   5.243  3.4999 -1.0874  1.6986
  304MOL0     H40067   9.484   7.127   5.034 -0.7421 -2.4900 -1.6899
  304MOL0     H40068   9.319   7.118   5.093 -0.8225 -2.3372 -2.0501
  304MOL0     H40069   9.361   6.919   5.002 -6.3881 -2.5260  2.0265
  304MOL0     H40070   9.327   6.895   5.166  1.2697  0.1939  0.8161
  304MOL0     H40071   9.612   6.887   5.051 -1.0550 -1.6056 -3.0388
  304MOL0     H40072   9.561   6.863   5.222 -0.7001  0.4507  0.1293
  304MOL0     H40073   9.454   6.663   5.170  2.6412  1.3864  3.2542
  304MOL0     H40074   9.616   6.656   5.116  0.0572  0.4158  2.7850
  304MOL0     H40075   9.550   6.736   4.901  0.5964  0.8159  2.3117
  304MOL0     H40076   9.377   6.709   4.926 -1.3382 -2.5247 -0.7427
  304MOL0     H40077   9.521   6.522   4.798 -0.4341  1.7415 -0.1075
  304MOL0     H40078   9.596   6.487   4.945 -2.2623 -1.0698  1.0894
  304MOL0     H40079   9.307   6.487   4.907 -1.4988 -1.8116 -1.5750
  304MOL0     H40080   9.400   6.416   5.047  0.4413 -3.5323 -0.3768
  304MOL0     H40081   9.620   6.263   4.900  0.4725  3.1101 -1.3552
  304MOL0     H40082   9.657   5.975   4.822  0.0483 -1.0388  4.3995
  304MOL0     H40083   9.529   5.915   4.732  1.9216  1.5116 -1.5931
  304MOL0     H40084   9.407   5.909   4.961 -0.6483 -2.1929  0.1549
  304MOL0     H40085   9.565   5.945   5.044 -2.5309 -1.6723  2.7344
  304MOL0     H40086   9.527   5.697   5.024  0.5078 -0.7629  0.1357
  304MOL0     H40087   9.538   5.711   4.846  1.1269 -2.8018  1.3645
  304MOL0     H40088   9.748   5.786   4.854 -5.8059  1.5693 -1.7806
  304MOL0     H40089   9.736   5.656   4.980  0.0244 -0.2392 -1.1141
  304MOL0     H40090   9.959   5.693   5.036 -3.0609 -0.3080 -1.2057
  304MOL0     H40091  10.201   5.784   5.026 -0.2002 -0.4209  1.4303
  304MOL0     H40092  10.561   5.940   5.072 -2.0630  0.0919  0.1568
  304MOL0     H40093  10.791   5.991   5.125 -2.7548 -1.3911 -2.5750
  304MOL0     H40094  10.984   5.933   5.402  1.8093  0.1650 -0.0645
  304MOL0     H40095  10.911   6.005   5.539 -0.7173  1.2323 -0.5266
  304MOL0     H40096  11.126   6.169   5.403  3.3027 -1.5983 -0.5320
  304MOL0     H40097  11.159   6.049   5.524  3.1761  1.9233 -3.3160
  304MOL0     H40098  10.990   6.176   5.673  0.6864 -0.9927  0.0623
  304MOL0     H40099  10.995   6.303   5.552  2.8789  1.9366 -0.6364
  304MOL0     H40100  11.157   6.343   5.735  0.9805  1.1625  0.7918
  304MOL0     H40101  11.215   6.177   5.737 -0.9764  0.2156  0.4176
  304MOL0     H40102  11.284   6.368   5.508  2.6878 -0.2497 -1.0074
  304MOL0     H40103  11.353   6.201   5.547  2.7770  1.3636  0.4982
  304MOL0     H40104  11.428   6.283   5.765  3.1340  2.6931  1.4589
  304MOL0     H40105  11.378   6.445   5.715 -0.6986  2.1446 -2.6077
  304MOL0     H40106  11.534   6.391   5.495  0.2245  1.7491 -0.2011
  304MOL0     H40107  11.617   6.451   5.639  1.6422 -1.2801  0.1925
  304MOL0     H40108  11.587   6.156   5.596  0.1749  0.6132  3.9934
  304MOL0     H40109  11.671   6.243   5.724  2.0318 -2.6425  0.8891
  304MOL0     H40110  10.676   6.109   5.509  2.5177  1.5181 -1.6286
  304MOL0     H40111  10.437   6.061   5.464 -1.0486 -1.9060  0.1668
  304MOL0     H40112  10.061   6.153   5.193  1.0287  0.0164 -0.0533
  304MOL0     H40113   9.824   6.083   5.163  2.0736  2.8386 -0.5325
  304MOL0     H40114   9.328   7.345   5.177  1.4738  0.3264  1.0140
  304MOL0     H40115   9.128   7.504   5.222 -1.5403  0.4898  1.4908
  304MOL0     H40116   8.857   7.879   5.368 -3.4239  3.4797  0.0492
  304MOL0     H40117   8.619   7.950   5.390  2.0167  0.3597 -0.3781
  304MOL0     H40118   8.215   7.736   5.469  1.5525  4.2944  4.4254
  304MOL0     H40119   8.338   7.633   5.402  1.9936 -0.0211  0.4908
  304MOL0     H40120   8.251   7.885   5.280  0.2825  0.1961 -0.3934
  304MOL0     H40121   8.386   7.797   5.221  0.0475  0.8300  0.6058
  304MOL0     H40122   8.088   7.719   5.236  1.1801  0.2491  0.1978
  304MOL0     H40123   8.211   7.596   5.216 -1.0318 -0.4571  0.6590
  304MOL0     H40124   8.148   7.618   4.982 -0.6047 -1.0792  0.9363
  304MOL0     H40125   8.101   7.768   5.013 -2.1364 -1.1122  1.2823
  304MOL0     H40126   8.516   7.744   4.862  0.8607 -1.8376  2.1501
  304MOL0     H40127   8.498   7.575   5.533 -1.9209  1.1229 -1.4387
  304MOL0     H40128   8.733   7.496   5.512 -0.1290 -0.8981 -2.6063
  305MOL0     O40129   1.871   8.682   8.743 -0.4703 -0.2101  1.0547
  305MOL0     C40130   1.815   8.599   8.673  0.3001 -0.0863 -0.4504
  305MOL0     O40131   1.800   8.601   8.539 -0.5378 -0.0547  0.2560
  305MOL0     C40132   1.843   8.699   8.452  1.0220  0.9445 -0.4003
  305MOL0     C40133   1.855   8.832   8.469 -0.5474  1.0992 -0.5952
  305MOL0     C40134   1.893   8.927   8.367  1.1490  0.5194  0.1657
  305MOL0     C40135   1.910   8.871   8.245 -0.3127  0.2210  0.0899
  305MOL0     O40136   1.961   8.972   8.165 -0.4880  0.4388  0.0900
  305MOL0     C40137   2.068   8.929   8.074 -0.2624  0.3734 -1.3469
  305MOL0     C40138   2.197   8.868   8.134 -0.3345 -0.2075 -0.5862
  305MOL0     C40139   2.278   8.980   8.204  0.8174  1.1218 -0.3497
  305MOL0     C40140   2.418   8.934   8.243  0.6405 -0.0624  1.0844
  305MOL0     C40141   2.490   9.035   8.326  0.3337 -0.2929  0.0996
  305MOL0     C40142   2.502   9.175   8.270  0.5301 -0.1609 -0.0959
  305MOL0     C40143   2.585   9.263   8.362 -0.1658  0.1778  0.1496
  305MOL0     C40144   2.510   9.302   8.490  0.9001  0.6706 -0.4368
  305MOL0     N40145   2.585   9.405   8.559 -0.0574 -0.5679 -0.8652
  305MOL0     C40146   2.630   9.383   8.686 -0.1670  0.7363  0.0470
  305MOL0     C40147   2.692   9.503   8.712  1.3660 -0.5049  0.1230
  305MOL0     C40148   2.760   9.544   8.836  0.3254 -0.1746 -0.1332
  305MOL0     C40149   2.878   9.461   8.877  0.5288  0.3777  1.0163
  305MOL0     C40150   2.978   9.539   8.975 -0.1742  0.3199 -0.4458
  305MOL0     C40151   3.104   9.458   8.996 -1.1977 -0.1402 -0.2421
  305MOL0     O40152   3.171   9.423   8.882  0.1238  0.4075  0.1927
  305MOL0     C40153   3.280   9.347   8.887 -0.6136 -0.0523 -1.7520
  305MOL0     C40154   3.361   9.334   9.003  0.2116  0.1715  0.2195
  305MOL0     C40155   3.476   9.252   9.010  0.0009 -0.0378 -1.1401
  305MOL0     C40156   3.515   9.174   8.913 -0.1846 -0.1342  0.4242
  305MOL0     C40157   3.639   9.096   8.927 -0.5284  0.1244  0.2951
  305MOL0     O40158   3.726   9.124   9.033  0.5583  0.5966 -0.7425
  305MOL0     C40159   3.844   9.053   9.044  0.5839 -0.5093  0.3515
  305MOL0     C40160   3.930   9.022   8.939 -0.8000  1.3063 -0.7327
  305MOL0     C40161   4.034   8.927   8.955 -0.0942 -0.0594  0.0878
  305MOL0     C40162   4.070   8.874   9.077 -0.4516 -0.1450 -0.7172
  305MOL0     O40163   4.173   8.790   9.101 -0.3999  0.4497  0.3495
  305MOL0     C40164   4.206   8.700   8.992 -0.2407 -0.3319 -0.1202
  305MOL0     C40165   4.166   8.560   9.045  0.8651  0.5148  0.3555
  305MOL0     C40166   4.175   8.465   8.927  0.4698  0.5662 -0.3333
  305MOL0     C40167   4.131   8.327   8.986  0.2985  0.1932 -0.0757
  305MOL0     C40168   4.147   8.192   8.897  0.4022 -0.1671 -0.8794
  305MOL0     C40169   4.282   8.150   8.852  0.3878 -0.5402 -0.3769
  305MOL0     C40170   4.284   8.010   8.788  0.0799 -0.1331  0.1022
  305MOL0     C40171   4.266   7.901   8.879  0.6393  0.0312 -0.2918
  305MOL0    Cl40172   4.344   7.902   9.047  0.1263  0.3294 -0.3973
  305MOL0     C40173   4.003   8.935   9.190  1.0655 -0.0529  0.3702
  305MOL0     C40174   3.885   9.012   9.166 -0.9073 -0.5221 -0.0860
  305MOL0     O40175   3.652   9.009   8.837  1.4573 -0.6003 -0.7707
  305MOL0     C40176   3.435   9.180   8.793  0.2904 -0.4405 -0.1837
  305MOL0     C40177   3.328   9.266   8.782  0.3393  0.0157  0.2019
  305MOL0     N40178   2.660   9.601   8.608 -0.5823  0.4545 -0.5893
  305MOL0     N40179   2.601   9.533   8.517 -0.5860  0.1893  0.1450
  305MOL0     C40180   1.896   8.734   8.217  0.3157  0.0557  0.0136
  305MOL0     C40181   1.855   8.649   8.326 -0.0253  0.7555  0.1918
  305MOL0     C40182   1.790   8.466   8.736  0.5516  0.4730 -0.5685
  305MOL0     C40183   1.809   8.452   8.872  0.0689 -0.0940 -0.3957
  305MOL0     C40184   1.793   8.327   8.940  0.5307  0.1480  0.4924
  305MOL0     C40185   1.766   8.211   8.865 -0.3794  0.7878  0.1938
  305MOL0     O40186   1.782   8.087   8.924  0.9629  0.5159  0.5570
  305MOL0     C40187   1.699   8.067   9.044 -0.2152 -0.1433 -0.1706
  305MOL0     C40188   1.719   7.939   9.112 -0.5238 -0.2642 -1.1286
  305MOL0     C40189   1.861   7.950   9.176  0.5252 -0.1255 -0.3742
  305MOL0     C40190   1.892   7.826   9.264  0.1762  0.1610  0.0082
  305MOL0     C40191   2.018   7.852   9.318 -0.3109 -0.2574 -0.1071
  305MOL0     C40192   2.134   7.874   9.356  0.2519 -0.5785  0.6544
  305MOL0     C40193   1.752   8.228   8.722  0.2535  0.1554 -1.0859
  305MOL0     C40194   1.774   8.349   8.662  1.0278 -0.2916 -0.0890
  305MOL0     H40195   1.834   8.876   8.566 -1.9072 -0.6287 -0.0559
  305MOL0     H40196   1.891   9.036   8.375 -0.3902  0.6077 -1.0490
  305MOL0     H40197   2.084   9.012   8.005  1.3586  3.5214  2.4404
  305MOL0     H40198   2.024   8.845   8.018 -3.9256  0.4474  1.0813
  305MOL0     H40199   2.254   8.811   8.060 -0.7970 -1.3276 -0.1028
  305MOL0     H40200   2.173   8.784   8.201  0.8711 -0.6758 -0.6994
  305MOL0     H40201   2.228   9.017   8.294 -0.3609  1.4121 -1.0899
  305MOL0     H40202   2.277   9.061   8.130 -0.3647  2.7646  1.3775
  305MOL0     H40203   2.410   8.834   8.287 -0.3214 -0.5355 -0.1035
  305MOL0     H40204   2.484   8.928   8.156 -1.6529  2.5989 -1.0175
  305MOL0     H40205   2.587   8.990   8.348  1.1085  1.5401  0.6806
  305MOL0     H40206   2.444   9.052   8.424 -0.5980 -0.2576 -0.3353
  305MOL0     H40207   2.404   9.224   8.267  1.0761  1.0004  0.3016
  305MOL0     H40208   2.544   9.179   8.169 -3.2789  1.7801 -1.8260
  305MOL0     H40209   2.672   9.208   8.397 -0.5572 -0.8336 -0.4200
  305MOL0     H40210   2.625   9.346   8.303  1.6756 -1.0538 -0.4278
  305MOL0     H40211   2.515   9.221   8.564  2.8415  0.8116 -0.3608
  305MOL0     H40212   2.409   9.337   8.468  0.3228  2.0871  3.6842
  305MOL0     H40213   2.641   9.298   8.752 -2.3636  2.0341  2.2886
  305MOL0     H40214   2.689   9.558   8.918  1.0547  2.2629  0.1444
  305MOL0     H40215   2.795   9.646   8.819  3.3735 -1.4784 -2.7573
  305MOL0     H40216   2.932   9.433   8.786  1.2632  0.6237  1.3698
  305MOL0     H40217   2.848   9.361   8.910 -1.6441  0.5943 -0.1056
  305MOL0     H40218   3.017   9.629   8.925  5.3818 -1.1074  0.6023
  305MOL0     H40219   2.930   9.563   9.070  1.7123  3.6395 -0.1729
  305MOL0     H40220   3.064   9.379   9.061 -1.2879  2.8453  3.7534
  305MOL0     H40221   3.166   9.523   9.058 -1.5163 -1.3699  1.4504
  305MOL0     H40222   3.334   9.395   9.089  0.1411  0.2577  0.1370
  305MOL0     H40223   3.531   9.253   9.104  1.6840  0.1250 -2.0978
  305MOL0     H40224   3.907   9.071   8.844  0.7676  0.6169 -1.4982
  305MOL0     H40225   4.101   8.910   8.872  3.1876 -2.2677  2.9071
  305MOL0     H40226   4.315   8.703   8.988 -0.1244 -0.0982  1.9885
  305MOL0     H40227   4.166   8.722   8.892  1.3270 -1.2705 -1.0035
  305MOL0     H40228   4.061   8.569   9.072  0.2124 -0.2715 -1.6923
  305MOL0     H40229   4.217   8.528   9.136 -1.5232 -1.0895  1.2247
  305MOL0     H40230   4.276   8.454   8.886  1.0272 -3.2666  1.6785
  305MOL0     H40231   4.114   8.492   8.840 -0.6330  1.2424  0.6246
  305MOL0     H40232   4.193   8.326   9.076 -1.8672  1.8319  1.5552
  305MOL0     H40233   4.024   8.339   9.008  0.5247  1.8029  0.3156
  305MOL0     H40234   4.085   8.211   8.809  1.6306  2.6679 -1.2417
  305MOL0     H40235   4.107   8.116   8.965  1.7889 -0.1764 -0.0232
  305MOL0     H40236   4.353   8.145   8.936  1.1085 -1.5600 -1.0276
  305MOL0     H40237   4.310   8.226   8.779 -2.8400  0.0223 -1.1723
  305MOL0     H40238   4.215   8.011   8.703  0.4662 -2.2139 -0.2965
  305MOL0     H40239   4.379   7.991   8.737 -1.2648 -0.1284 -2.5915
  305MOL0     H40240   4.299   7.812   8.824 -0.2877 -1.0189  0.8144
  305MOL0     H40241   4.160   7.880   8.892  0.3524  0.4902 -1.7017
  305MOL0     H40242   4.030   8.917   9.294  2.6549  5.5420  1.2578
  305MOL0     H40243   3.832   9.043   9.255 -1.3423  0.9415 -0.8104
  305MOL0     H40244   3.458   9.106   8.717  0.9195 -0.9578  0.4912
  305MOL0     H40245   3.273   9.272   8.689 -0.3711 -0.9821  0.5337
  305MOL0     H40246   1.889   8.701   8.114 -3.9215 -0.2929  0.2351
  305MOL0     H40247   1.845   8.541   8.325  1.8027  0.5195 -2.0975
  305MOL0     H40248   1.847   8.531   8.936  0.5351 -1.3022  0.8667
  305MOL0     H40249   1.809   8.312   9.046  0.4110 -1.3166  0.3285
  305MOL0     H40250   1.594   8.062   9.014 -1.3396  0.3883  3.2426
  305MOL0     H40251   1.707   8.141   9.124  4.3984 -0.2514 -0.2580
  305MOL0     H40252   1.642   7.920   9.188 -1.0372  2.6658 -0.7983
  305MOL0     H40253   1.715   7.862   9.035 -1.0812 -1.5075  0.0795
  305MOL0     H40254   1.870   8.037   9.242 -0.2050 -0.9028  0.7855
  305MOL0     H40255   1.936   7.968   9.099 -0.7888  0.0759 -1.6445
  305MOL0     H40256   1.807   7.815   9.332  1.2495  1.2262  1.5667
  305MOL0     H40257   1.898   7.744   9.191  0.3048  0.6801 -0.5680
  305MOL0     H40258   2.229   7.893   9.402  0.4384  1.5184 -0.4748
  305MOL0     H40259   1.751   8.139   8.660  0.8317 -0.2899 -0.4679
  305MOL0     H40260   1.788   8.362   8.555  1.2531  4.9562  0.3100
  306MOL0     O40261  11.441  10.899   3.470  0.2562  0.1001 -0.3177
  306MOL0     C40262  11.319  10.875   3.457 -0.7771 -0.2839 -0.1315
  306MOL0     O40263  11.272  10.794   3.357  0.0267  1.1413 -1.0404
  306MOL0     C40264  11.359  10.782   3.249 -1.2018 -1.0757 -1.0524
  306MOL0     C40265  11.372  10.887   3.161 -0.8720 -0.0768 -0.0118
  306MOL0     C40266  11.447  10.868   3.040 -0.4869 -0.1058 -0.2106
  306MOL0     C40267  11.511  10.747   3.017 -0.7814 -0.5411 -0.2678
  306MOL0     O40268  11.586  10.725   2.912 -0.3479  0.9327  0.5546
  306MOL0     C40269  11.715  10.680   2.916  0.1126  0.6605  1.1090
  306MOL0     C40270  11.765  10.681   2.776 -0.9482  0.0422  0.8533
  306MOL0     C40271  11.916  10.631   2.783 -0.1228  0.0002 -0.0975
  306MOL0     C40272  11.967  10.624   2.637 -0.2882 -0.3327 -0.1996
  306MOL0     C40273  12.093  10.530   2.625 -0.2216 -0.1038  0.2771
  306MOL0     C40274  12.195  10.569   2.746 -0.0297 -0.4876 -0.3361
  306MOL0     C40275  12.333  10.536   2.704 -0.5145  0.3093  0.6908
  306MOL0     C40276  12.401  10.411   2.752  0.6159  0.6331  0.7557
  306MOL0     N40277  12.435  10.422   2.895  0.0350  0.4490  0.2282
  306MOL0     C40278  12.557  10.471   2.940 -0.0757 -0.5744 -0.8842
  306MOL0     C40279  12.539  10.475   3.077 -1.0482  0.7926  0.5084
  306MOL0     C40280  12.641  10.527   3.170  0.2898  0.2750 -0.1271
  306MOL0     C40281  12.761  10.436   3.163  1.6660  0.4052 -0.5590
  306MOL0     C40282  12.861  10.470   3.265 -0.5795 -0.2959 -0.3287
  306MOL0     C40283  12.985  10.391   3.250  0.3480 -0.2908 -1.3235
  306MOL0     O40284  13.098  10.442   3.317 -0.0349 -0.6964 -0.2643
  306MOL0     C40285  13.119  10.427   3.450  0.0318  0.0196  0.2623
  306MOL0     C40286  13.226  10.498   3.503  0.2030 -0.7235 -0.0702
  306MOL0     C40287  13.254  10.516   3.634  0.0625 -0.9607 -0.4151
  306MOL0     C40288  13.173  10.452   3.731  0.4086 -0.0924  1.0654
  306MOL0     C40289  13.195  10.473   3.877 -0.7589  0.4199 -0.0833
  306MOL0     O40290  13.302  10.553   3.929  0.9264  0.1590  0.0955
  306MOL0     C40291  13.333  10.529   4.060  0.2752 -0.4011  0.1652
  306MOL0     C40292  13.373  10.400   4.104  0.0353  0.6531 -0.4883
  306MOL0     C40293  13.401  10.372   4.241  0.4716  0.3693 -0.0850
  306MOL0     C40294  13.382  10.468   4.338  0.1319  0.1566 -0.1306
  306MOL0     O40295  13.411  10.433   4.473  0.3426 -0.3534  0.2284
  306MOL0     C40296  13.316  10.460   4.580 -0.7251 -0.9691  0.4347
  306MOL0     C40297  13.207  10.356   4.576 -0.5151  0.0618  0.0547
  306MOL0     C40298  13.268  10.214   4.598 -0.1895 -0.2834  0.3156
  306MOL0     C40299  13.150  10.111   4.592  0.5433  0.1473  0.5282
  306MOL0     C40300  13.183   9.968   4.622 -0.5948  0.2066 -1.0911
  306MOL0     C40301  13.253   9.947   4.761  0.1284  0.9600  0.0047
  306MOL0     C40302  13.280   9.793   4.775  0.6511 -0.2642  0.2797
  306MOL0     C40303  13.371   9.759   4.887  0.0728  0.4517 -1.4677
  306MOL0    Cl40304  13.303   9.805   5.044 -0.3354 -0.2223  0.1126
  306MOL0     C40305  13.330  10.597   4.297  0.0022 -0.0155  0.3849
  306MOL0     C40306  13.311  10.624   4.165  0.7480 -0.9098 -0.0234
  306MOL0     O40307  13.122  10.409   3.949 -0.3259  0.4429  0.1730
  306MOL0     C40308  13.070  10.370   3.686  0.1762 -1.3309 -0.0477
  306MOL0     C40309  13.042  10.361   3.549  0.0870 -0.5115  0.1383
  306MOL0     N40310  12.412  10.424   3.102 -0.2625 -0.3216 -0.6610
  306MOL0     N40311  12.349  10.401   2.997  0.8610  0.0193 -0.2353
  306MOL0     C40312  11.497  10.644   3.105 -0.2038 -1.1837  0.6505
  306MOL0     C40313  11.419  10.660   3.217 -0.0840 -0.0340 -0.4763
  306MOL0     C40314  11.226  10.914   3.560  0.4327  0.4885 -0.2700
  306MOL0     C40315  11.263  10.964   3.686  0.7335  0.8591 -0.3254
  306MOL0     C40316  11.163  10.988   3.781 -0.0529  0.1577  0.0102
  306MOL0     C40317  11.028  10.980   3.762  0.8510 -0.0986  0.1910
  306MOL0     O40318  10.923  10.985   3.854 -0.8505  0.0045 -0.2826
  306MOL0     C40319  10.915  10.874   3.937  0.8309 -1.2510 -0.1556
  306MOL0     C40320  10.975  10.918   4.070 -0.0069  0.1698  0.1565
  306MOL0     C40321  10.881  11.015   4.146 -0.5524  0.0205  0.5047
  306MOL0     C40322  10.946  11.066   4.270  0.4081 -0.3264  0.1134
  306MOL0     C40323  10.856  11.166   4.333 -1.4421  0.4008 -0.8104
  306MOL0     C40324  10.791  11.252   4.376 -0.5778  0.2470  0.2437
  306MOL0     C40325  10.991  10.951   3.628  0.7824 -0.9227  0.5140
  306MOL0     C40326  11.084  10.907   3.533 -0.0523 -0.1854  0.0454
  306MOL0     H40327  11.333  10.984   3.191  0.7195  0.8074 -0.6306
  306MOL0     H40328  11.459  10.952   2.973 -1.1828 -0.7203 -1.1167
  306MOL0     H40329  11.736  10.582   2.960  1.6612  1.0637  1.3416
  306MOL0     H40330  11.773  10.757   2.969  0.3671 -0.6772  2.8827
  306MOL0     H40331  11.779  10.788   2.762 -0.1974 -0.1382  0.1625
  306MOL0     H40332  11.692  10.633   2.710 -0.6599  0.7756 -0.0116
  306MOL0     H40333  11.913  10.529   2.823 -3.7683  0.5710  1.4869
  306MOL0     H40334  11.977  10.705   2.835  0.9176  1.3110 -2.9787
  306MOL0     H40335  11.896  10.588   2.561  0.6138 -1.1906 -0.6530
  306MOL0     H40336  12.001  10.726   2.616  0.4397 -0.2641  1.2219
  306MOL0     H40337  12.141  10.551   2.529  0.0084 -1.6259  0.0363
  306MOL0     H40338  12.073  10.423   2.623  2.4501 -0.7138  1.3995
  306MOL0     H40339  12.157  10.530   2.841 -2.8570  2.6301  0.0108
  306MOL0     H40340  12.192  10.676   2.766  1.8743 -0.6811  1.2764
  306MOL0     H40341  12.340  10.536   2.595 -1.0280 -1.0522  0.6401
  306MOL0     H40342  12.402  10.609   2.747  1.6618 -1.0138 -0.4101
  306MOL0     H40343  12.490  10.408   2.688 -0.6393 -1.8412 -1.0532
  306MOL0     H40344  12.342  10.322   2.728 -1.2799  2.7293 -3.3316
  306MOL0     H40345  12.649  10.506   2.894  0.7912  0.1368  1.2777
  306MOL0     H40346  12.596  10.509   3.268  0.2747 -0.2712 -0.2362
  306MOL0     H40347  12.670  10.633   3.170 -0.9772  0.6904  2.5369
  306MOL0     H40348  12.809  10.451   3.066  3.2718  0.3376  0.1930
  306MOL0     H40349  12.742  10.329   3.169 -1.3420  0.8916  0.3945
  306MOL0     H40350  12.881  10.576   3.245  0.1185 -0.2627  0.5058
  306MOL0     H40351  12.818  10.470   3.366 -1.1184  2.2776 -0.4971
  306MOL0     H40352  13.015  10.382   3.145  1.0279 -3.3652 -0.9542
  306MOL0     H40353  12.961  10.290   3.282 -0.5383 -0.0379 -1.1670
  306MOL0     H40354  13.286  10.547   3.427  2.5013 -2.7082  0.3474
  306MOL0     H40355  13.339  10.578   3.657 -0.1361  0.9193 -3.9283
  306MOL0     H40356  13.367  10.322   4.029  1.9467  0.2556 -0.2796
  306MOL0     H40357  13.433  10.275   4.278 -0.6330 -0.1174 -0.3620
  306MOL0     H40358  13.273  10.561   4.574  0.8716 -0.3292 -1.5503
  306MOL0     H40359  13.379  10.452   4.669 -0.6062  0.6127  0.5222
  306MOL0     H40360  13.167  10.337   4.476  1.8103 -2.8441 -0.4546
  306MOL0     H40361  13.130  10.383   4.650  1.1676  0.6946  1.6535
  306MOL0     H40362  13.318  10.211   4.695  0.6808  4.6809  0.2918
  306MOL0     H40363  13.345  10.183   4.526  1.0401 -6.4616  3.5680
  306MOL0     H40364  13.073  10.145   4.662  1.4016  3.1168  0.1444
  306MOL0     H40365  13.108  10.112   4.491  1.0237  2.3779  0.3132
  306MOL0     H40366  13.255   9.929   4.549  0.0148 -1.2174  0.2286
  306MOL0     H40367  13.094   9.905   4.618  0.4922 -1.8017  2.5229
  306MOL0     H40368  13.188   9.980   4.842 -1.6076 -3.0529  0.4641
  306MOL0     H40369  13.346  10.004   4.767 -0.5441  2.1298 -0.4836
  306MOL0     H40370  13.185   9.746   4.799  1.2805 -1.8729 -0.2488
  306MOL0     H40371  13.330   9.759   4.684  0.8845  1.3731 -0.2515
  306MOL0     H40372  13.462   9.818   4.881  0.5070 -0.0701 -0.2233
  306MOL0     H40373  13.400   9.653   4.884  1.0544  0.6907 -0.7167
  306MOL0     H40374  13.316  10.678   4.368 -0.2636 -1.2595  1.7982
  306MOL0     H40375  13.290  10.729   4.145  2.4452  0.2118  3.4031
  306MOL0     H40376  13.004  10.332   3.764  1.2665 -2.0696  0.5466
  306MOL0     H40377  12.945  10.318   3.526  0.1260  0.4149 -2.0201
  306MOL0     H40378  11.551  10.552   3.083  0.3714 -0.0247 -3.6965
  306MOL0     H40379  11.395  10.574   3.279 -0.4238 -0.4674 -1.1870
  306MOL0     H40380  11.367  10.972   3.716  0.1556  0.4829  1.9541
  306MOL0     H40381  11.195  11.017   3.881  0.8954 -2.7545  0.6612
  306MOL0     H40382  10.966  10.786   3.899  4.4479 -0.7179  2.8770
  306MOL0     H40383  10.810  10.846   3.949  0.4586  0.5356  1.2089
  306MOL0     H40384  10.995  10.827   4.128  2.5229 -0.3973 -1.4062
  306MOL0     H40385  11.072  10.963   4.048  0.2621 -0.6687 -0.4720
  306MOL0     H40386  10.785  10.964   4.154 -0.8151 -0.1219 -2.5340
  306MOL0     H40387  10.870  11.095   4.073  3.0730  0.1688 -0.0645
  306MOL0     H40388  10.969  10.988   4.343  3.9759 -0.2592 -0.7881
  306MOL0     H40389  11.043  11.115   4.256  0.1823 -0.7127 -3.9188
  306MOL0     H40390  10.734  11.322   4.434  0.0024  0.6487  0.3279
  306MOL0     H40391  10.887  10.933   3.600  1.7306 -3.2394 -1.9777
  306MOL0     H40392  11.060  10.865   3.436  2.0894 -0.9728 -0.1842
  307MOL0     O40393  10.487   6.931   2.776 -0.6316  0.2234  0.1693
  307MOL0     C40394  10.473   6.808   2.747 -0.0405  0.7113  0.2528
  307MOL0     O40395  10.549   6.740   2.653 -0.1758  0.2200  0.3369
  307MOL0     C40396  10.662   6.799   2.602  0.8921 -0.9087  0.2187
  307MOL0     C40397  10.783   6.736   2.633 -0.7441 -0.3901 -0.3099
  307MOL0     C40398  10.904   6.789   2.598  0.5015 -0.6534 -0.6854
  307MOL0     C40399  10.899   6.888   2.506 -0.4957  0.6712  0.5412
  307MOL0     O40400  11.020   6.936   2.464  0.2535 -0.5190 -0.2006
  307MOL0     C40401  11.053   6.924   2.325  0.2624 -0.6712  0.2047
  307MOL0     C40402  11.097   6.786   2.295  0.3059 -0.7429  0.2558
  307MOL0     C40403  11.097   6.761   2.139 -0.5827  0.6924 -0.1650
  307MOL0     C40404  11.206   6.832   2.056 -0.2007 -1.0227 -0.1949
  307MOL0     C40405  11.348   6.764   2.073  0.0047 -0.4608  0.0128
  307MOL0     C40406  11.454   6.862   2.020 -0.3246 -1.6392 -0.2390
  307MOL0     C40407  11.452   6.880   1.873 -0.6090 -0.9318  0.9515
  307MOL0     C40408  11.586   6.939   1.822  0.2490 -0.7016  0.0526
  307MOL0     N40409  11.590   7.087   1.845 -0.6863  0.1134 -0.0162
  307MOL0     C40410  11.652   7.151   1.951  0.7717  0.3601  0.4988
  307MOL0     C40411  11.624   7.286   1.934  0.0916  0.2698 -0.7844
  307MOL0     C40412  11.675   7.407   2.018  0.0847 -0.1957  0.4596
  307MOL0     C40413  11.545   7.489   2.059  0.0514  0.0449 -0.1990
  307MOL0     C40414  11.577   7.631   2.112 -0.0098  0.4828  0.3803
  307MOL0     C40415  11.452   7.690   2.169 -0.2368  0.0543  1.4582
  307MOL0     O40416  11.448   7.633   2.300  0.5307 -1.0311  0.8591
  307MOL0     C40417  11.346   7.693   2.381 -0.1414  0.4363  0.6611
  307MOL0     C40418  11.359   7.653   2.517  0.0301 -0.5204 -0.3380
  307MOL0     C40419  11.256   7.679   2.608 -0.2488 -0.5500 -0.4497
  307MOL0     C40420  11.159   7.773   2.570 -0.0206 -0.4767 -0.6735
  307MOL0     C40421  11.052   7.815   2.665 -0.5092  0.8921 -1.7008
  307MOL0     O40422  10.943   7.869   2.614 -0.2602  0.5610  1.0318
  307MOL0     C40423  10.831   7.860   2.689 -0.7421 -0.4934 -1.4743
  307MOL0     C40424  10.738   7.766   2.696  0.2950  0.0835  0.4490
  307MOL0     C40425  10.613   7.774   2.759 -1.1842 -0.8188 -0.5769
  307MOL0     C40426  10.589   7.896   2.818 -0.5344 -0.6656  0.7181
  307MOL0     O40427  10.463   7.909   2.869 -0.8908  0.7762 -0.1420
  307MOL0     C40428  10.426   8.039   2.901 -0.7500  1.0349 -0.0839
  307MOL0     C40429  10.281   8.048   2.942 -0.1828  0.6394  1.0260
  307MOL0     C40430  10.241   7.984   3.075 -0.7549 -0.3941 -1.2799
  307MOL0     C40431  10.269   8.085   3.201  0.4688 -0.2122 -1.1374
  307MOL0     C40432  10.240   8.020   3.342  0.5777 -0.1229  0.2098
  307MOL0     C40433  10.278   8.103   3.471 -0.4480  0.0670 -0.1706
  307MOL0     C40434  10.435   8.130   3.512  0.5417  1.1634  0.5242
  307MOL0     C40435  10.459   8.214   3.633 -0.0569  0.8041  0.0037
  307MOL0    Cl40436  10.630   8.282   3.618 -0.1916  0.5151 -0.4300
  307MOL0     C40437  10.687   8.003   2.819  0.2255  0.4517 -0.5006
  307MOL0     C40438  10.809   7.980   2.758  0.3832  1.0570 -0.0440
  307MOL0     O40439  11.064   7.770   2.785  0.0507 -0.7916  0.3924
  307MOL0     C40440  11.159   7.823   2.442 -0.8667  0.2171 -0.5483
  307MOL0     C40441  11.240   7.776   2.345  0.6609 -0.1116 -0.5237
  307MOL0     N40442  11.534   7.300   1.824  0.0108 -0.5262  0.5311
  307MOL0     N40443  11.523   7.180   1.769  0.7511 -1.0747 -0.4348
  307MOL0     C40444  10.779   6.951   2.459 -0.4435  0.0824 -0.3164
  307MOL0     C40445  10.661   6.901   2.499  0.5032 -0.5697 -0.5550
  307MOL0     C40446  10.357   6.732   2.812 -0.6088  0.0810 -0.0268
  307MOL0     C40447  10.276   6.791   2.893  0.6561 -0.2316  0.2600
  307MOL0     C40448  10.174   6.723   2.957 -0.4294 -0.0306 -0.6295
  307MOL0     C40449  10.143   6.588   2.933  0.7390  0.0717 -0.3480
  307MOL0     O40450  10.038   6.512   2.985 -0.3779  1.1716 -0.6416
  307MOL0     C40451   9.933   6.587   3.040  0.3244 -0.0509  0.0075
  307MOL0     C40452   9.824   6.497   3.085  0.7411 -0.0665 -0.2890
  307MOL0     C40453   9.773   6.396   2.984 -0.0584  0.8247  0.6621
  307MOL0     C40454   9.641   6.333   3.030 -0.0040  0.8770 -0.1937
  307MOL0     C40455   9.655   6.277   3.166  0.4743  0.5239  0.5697
  307MOL0     C40456   9.667   6.240   3.285  0.7607 -0.1472 -0.6404
  307MOL0     C40457  10.238   6.523   2.857  0.7693  1.2319  0.0326
  307MOL0     C40458  10.340   6.590   2.791  0.3079  0.3461  0.0708
  307MOL0     H40459  10.794   6.661   2.711 -1.2379  1.5922  1.7831
  307MOL0     H40460  10.993   6.740   2.637  0.8933  1.1669  0.8794
  307MOL0     H40461  11.138   6.988   2.302  0.7550 -0.3586  2.5716
  307MOL0     H40462  10.960   6.944   2.270 -1.6450  0.6699  3.5753
  307MOL0     H40463  11.032   6.712   2.343  0.5465  0.2266  2.1246
  307MOL0     H40464  11.193   6.760   2.339  1.2070  0.2804 -1.0237
  307MOL0     H40465  10.995   6.784   2.104 -0.7042 -0.1585 -0.3887
  307MOL0     H40466  11.107   6.653   2.126 -0.7543  0.7026 -0.3950
  307MOL0     H40467  11.182   6.830   1.949  1.7869  1.0410 -0.7355
  307MOL0     H40468  11.212   6.933   2.097  3.0320 -1.4371  0.6155
  307MOL0     H40469  11.362   6.670   2.020  4.3813 -0.0301  0.0190
  307MOL0     H40470  11.370   6.743   2.178 -2.9313  0.4067  0.9046
  307MOL0     H40471  11.553   6.824   2.047 -0.8853 -0.9355  3.3895
  307MOL0     H40472  11.451   6.957   2.074  0.5000 -1.8160  0.1307
  307MOL0     H40473  11.458   6.777   1.838 -1.6922 -2.0713  3.7753
  307MOL0     H40474  11.361   6.926   1.832  0.3092  2.4209  2.3864
  307MOL0     H40475  11.599   6.925   1.714 -1.9032 -1.0709 -0.1953
  307MOL0     H40476  11.676   6.886   1.853 -0.2433 -1.9346 -0.5604
  307MOL0     H40477  11.713   7.092   2.018  0.0364 -3.6603 -2.0349
  307MOL0     H40478  11.737   7.465   1.948  2.7413 -3.0639  0.2214
  307MOL0     H40479  11.723   7.389   2.114  2.5907 -0.6998 -0.7908
  307MOL0     H40480  11.483   7.438   2.133 -2.9123  4.6015  0.7978
  307MOL0     H40481  11.472   7.506   1.979 -0.1787 -5.3500 -1.5470
  307MOL0     H40482  11.655   7.620   2.187 -0.4776  0.4802  0.8724
  307MOL0     H40483  11.613   7.693   2.029  0.6825 -0.4291 -0.0129
  307MOL0     H40484  11.364   7.680   2.104  0.7469 -1.0157  0.2235
  307MOL0     H40485  11.474   7.795   2.186  1.4620 -0.6494  4.4300
  307MOL0     H40486  11.454   7.605   2.539 -0.7421 -1.5958  0.7970
  307MOL0     H40487  11.269   7.652   2.712  0.2845 -1.9638 -0.8526
  307MOL0     H40488  10.778   7.684   2.638  2.0751  2.6813 -2.2584
  307MOL0     H40489  10.549   7.687   2.771  1.0358 -2.1798  3.0743
  307MOL0     H40490  10.457   8.105   2.820  0.5042  0.3639 -0.1715
  307MOL0     H40491  10.493   8.058   2.985 -0.5372 -1.3726  0.3776
  307MOL0     H40492  10.225   7.988   2.869  0.6553 -0.5614  1.3362
  307MOL0     H40493  10.247   8.151   2.931 -1.2740  0.0997 -1.2238
  307MOL0     H40494  10.300   7.895   3.095 -1.7625 -0.4158  2.1857
  307MOL0     H40495  10.137   7.949   3.074 -0.6608 -0.6751 -1.6370
  307MOL0     H40496  10.371   8.122   3.213 -0.3055  1.7186 -0.0415
  307MOL0     H40497  10.199   8.169   3.187 -1.6042 -1.4388  1.1622
  307MOL0     H40498  10.299   7.929   3.356 -0.3277 -0.4972  1.8311
  307MOL0     H40499  10.134   7.993   3.348 -0.1179  1.9185 -1.6296
  307MOL0     H40500  10.244   8.034   3.549 -1.7646 -0.3202 -1.0485
  307MOL0     H40501  10.236   8.204   3.469  3.1304  1.7250 -1.2546
  307MOL0     H40502  10.475   8.030   3.535 -0.8229  0.3622 -0.4334
  307MOL0     H40503  10.486   8.183   3.431  1.1994  1.1309  0.9083
  307MOL0     H40504  10.438   8.163   3.728 -0.6067  1.9137  0.4920
  307MOL0     H40505  10.391   8.299   3.620 -2.5306 -0.7095  2.0159
  307MOL0     H40506  10.675   8.099   2.868  0.3743  0.4121 -0.3874
  307MOL0     H40507  10.890   8.052   2.755  1.9718 -0.5675  1.3374
  307MOL0     H40508  11.079   7.893   2.420 -2.5784 -1.3193  0.4791
  307MOL0     H40509  11.210   7.791   2.241 -0.8389  2.5991  0.1804
  307MOL0     H40510  10.799   7.034   2.391  1.3297  1.7098  1.9996
  307MOL0     H40511  10.573   6.934   2.444  2.4220  1.4653 -2.6798
  307MOL0     H40512  10.281   6.898   2.906 -0.3743 -0.2363  0.7860
  307MOL0     H40513  10.112   6.779   3.026  2.6017  2.2354  0.5298
  307MOL0     H40514   9.902   6.653   2.959  2.6934  1.5836  0.3226
  307MOL0     H40515   9.973   6.643   3.125  0.1807 -2.0288  1.4455
  307MOL0     H40516   9.862   6.432   3.164 -0.9464 -3.0056 -1.7334
  307MOL0     H40517   9.741   6.566   3.105 -0.2454 -1.8616  2.3579
  307MOL0     H40518   9.845   6.314   2.970  1.1125  2.1017 -1.3152
  307MOL0     H40519   9.745   6.441   2.888 -0.8530  1.2724  1.1016
  307MOL0     H40520   9.567   6.414   3.030 -0.0193  0.8628 -0.8806
  307MOL0     H40521   9.626   6.257   2.953  2.2246  1.0609 -0.8870
  307MOL0     H40522   9.678   6.211   3.387  2.8072  0.2765 -0.7034
  307MOL0     H40523  10.224   6.418   2.832 -2.4200  1.1566  1.6485
  307MOL0     H40524  10.406   6.534   2.726 -0.2900 -2.6292  1.8737
  308MOL0     O40525   9.450   5.926  10.496  0.5737 -0.7085 -1.2072
  308MOL0     C40526   9.488   6.031  10.548  0.3105  0.6330  0.2595
  308MOL0     O40527   9.561   6.040  10.663 -0.5038 -0.4002 -0.2156
  308MOL0     C40528   9.619   5.932  10.727  0.0544  0.3254  0.2086
  308MOL0     C40529   9.655   5.806  10.668  0.0993  0.0160 -0.6941
  308MOL0     C40530   9.719   5.704  10.741  0.4111  0.3191  0.1202
  308MOL0     C40531   9.745   5.728  10.882  0.6482 -0.0070  0.0392
  308MOL0     O40532   9.816   5.646  10.966 -0.3956 -0.2610  0.0803
  308MOL0     C40533   9.860   5.510  10.918 -0.5455  0.1015 -0.1826
  308MOL0     C40534   9.959   5.467  11.019 -0.7128 -0.8242 -0.2596
  308MOL0     C40535  10.046   5.360  10.954  0.1959 -1.1605  0.0136
  308MOL0     C40536  10.143   5.300  11.051  0.5365 -0.3119 -0.3952
  308MOL0     C40537  10.204   5.154  11.024 -0.1059 -0.4791 -0.4922
  308MOL0     C40538  10.280   5.133  10.887 -0.3372  0.3596  0.0948
  308MOL0     C40539  10.394   5.229  10.874 -0.2816  0.4774 -0.3062
  308MOL0     C40540  10.527   5.160  10.838 -0.0993 -0.5201  0.0588
  308MOL0     N40541  10.596   5.070  10.932 -0.1930 -0.8043  0.3086
  308MOL0     C40542  10.678   4.965  10.907  0.2576  0.3121 -0.3715
  308MOL0     C40543  10.713   4.919  11.036 -0.3027 -0.3965  0.8852
  308MOL0     C40544  10.795   4.798  11.051 -0.3743  0.5322  0.6703
  308MOL0     C40545  10.819   4.766  11.197 -0.5681 -0.1246  0.4894
  308MOL0     C40546  10.899   4.641  11.216 -0.3077 -0.0704 -0.0701
  308MOL0     C40547  11.015   4.606  11.129  0.1878 -0.1270  0.0772
  308MOL0     O40548  11.065   4.472  11.157 -0.4275 -0.5242 -0.1082
  308MOL0     C40549  11.174   4.437  11.071  0.7870 -0.3249 -0.0947
  308MOL0     C40550  11.151   4.373  10.947  0.5521 -0.2402  0.6045
  308MOL0     C40551  11.255   4.338  10.868  0.6036  0.1225 -0.1075
  308MOL0     C40552  11.388   4.354  10.910  0.5096 -1.1249 -0.1132
  308MOL0     C40553  11.497   4.307  10.814 -1.2287 -0.2505 -0.4770
  308MOL0     O40554  11.466   4.218  10.710  0.8695 -0.5831 -0.6755
  308MOL0     C40555  11.570   4.199  10.629 -0.4480 -0.3490 -0.3110
  308MOL0     C40556  11.556   4.245  10.498 -1.0537  1.1621  1.6075
  308MOL0     C40557  11.654   4.232  10.401  0.7347  0.9490 -1.6194
  308MOL0     C40558  11.778   4.181  10.433 -0.5863  0.3632  0.0665
  308MOL0     O40559  11.867   4.192  10.325  0.1769 -1.0674 -0.8157
  308MOL0     C40560  12.006   4.164  10.357  0.2235  0.6386  0.1571
  308MOL0     C40561  12.045   4.012  10.375 -0.5878 -0.5250  0.4145
  308MOL0     C40562  11.946   3.917  10.305 -0.3690 -0.8428  0.5617
  308MOL0     C40563  11.988   3.907  10.157  1.0194 -0.4337  0.8840
  308MOL0     C40564  11.875   3.867  10.071 -0.3509 -0.8584  0.4903
  308MOL0     C40565  11.752   3.964  10.080 -0.4676  0.8402 -0.0823
  308MOL0     C40566  11.637   3.955   9.969 -0.0955 -0.8128 -0.0312
  308MOL0     C40567  11.568   4.092   9.973  0.0641  0.0987  1.1032
  308MOL0    Cl40568  11.499   4.115  10.130  0.3380 -0.2778 -0.2652
  308MOL0     C40569  11.802   4.140  10.565  0.0722 -0.5092 -0.0234
  308MOL0     C40570  11.693   4.141  10.660  0.0677  0.4177 -0.2892
  308MOL0     O40571  11.608   4.359  10.846  0.9621  0.0678 -0.3865
  308MOL0     C40572  11.416   4.422  11.032 -0.0542 -0.2053 -0.1898
  308MOL0     C40573  11.301   4.458  11.111 -0.6587 -0.8382  0.0921
  308MOL0     N40574  10.653   4.996  11.130  0.3761  0.0540  0.0994
  308MOL0     N40575  10.580   5.085  11.065  0.2829 -1.2541 -0.5834
  308MOL0     C40576   9.708   5.851  10.937  0.4108  0.0208 -0.4885
  308MOL0     C40577   9.641   5.950  10.865 -0.0893 -0.5978 -0.5847
  308MOL0     C40578   9.433   6.158  10.504 -0.1315 -0.4441  0.0410
  308MOL0     C40579   9.324   6.163  10.419  0.9675 -0.3477 -0.4111
  308MOL0     C40580   9.256   6.286  10.396 -0.8827  0.1607 -0.1122
  308MOL0     C40581   9.299   6.403  10.460  0.3446 -0.9342  0.1561
  308MOL0     O40582   9.238   6.536  10.439 -0.1902 -0.4245 -0.3005
  308MOL0     C40583   9.115   6.554  10.375  0.4053  0.1664 -0.7421
  308MOL0     C40584   9.141   6.571  10.226 -0.3766 -0.7059 -0.6084
  308MOL0     C40585   9.253   6.673  10.196  0.3068 -0.1388 -0.4735
  308MOL0     C40586   9.378   6.625  10.129  0.0155  0.0448  0.0849
  308MOL0     C40587   9.351   6.561  10.003 -0.0027 -0.2777 -1.0727
  308MOL0     C40588   9.321   6.563   9.887 -1.1957  0.2593 -0.1630
  308MOL0     C40589   9.415   6.398  10.536 -0.0148 -0.2284 -0.0141
  308MOL0     C40590   9.489   6.283  10.544  0.0222  0.5128 -0.3904
  308MOL0     H40591   9.635   5.784  10.563  1.2820 -3.2759 -0.3441
  308MOL0     H40592   9.751   5.625  10.674  0.9544  1.1358 -0.6073
  308MOL0     H40593   9.912   5.521  10.822 -1.5066 -1.2159 -0.8900
  308MOL0     H40594   9.776   5.442  10.901  0.3297 -1.7366  2.2669
  308MOL0     H40595   9.911   5.444  11.115  1.6996  0.4858  1.3639
  308MOL0     H40596  10.019   5.552  11.050 -1.4968 -1.1600  2.4729
  308MOL0     H40597  10.111   5.402  10.876  1.4683 -3.5876 -0.3265
  308MOL0     H40598   9.992   5.275  10.912 -1.5012  1.1058 -2.7564
  308MOL0     H40599  10.236   5.350  11.078  2.9031 -2.4790 -3.6944
  308MOL0     H40600  10.081   5.273  11.138 -3.1485  0.9910 -2.3880
  308MOL0     H40601  10.117   5.088  11.027  0.1816 -0.9298 -1.3997
  308MOL0     H40602  10.265   5.125  11.110 -1.8509  3.4355  2.3417
  308MOL0     H40603  10.214   5.144  10.801 -0.5389  0.1170  0.2144
  308MOL0     H40604  10.323   5.033  10.896  0.7797  1.0217  3.2339
  308MOL0     H40605  10.384   5.301  10.792 -0.8321 -0.9548 -1.5470
  308MOL0     H40606  10.412   5.288  10.965 -0.2358  0.1995 -0.1327
  308MOL0     H40607  10.602   5.237  10.822  1.9754 -2.3840  0.2487
  308MOL0     H40608  10.510   5.100  10.748 -1.5326 -2.0826  1.3008
  308MOL0     H40609  10.684   4.923  10.807 -3.3235 -0.3326 -0.4593
  308MOL0     H40610  10.894   4.822  11.010 -1.4519  3.3514 -0.5812
  308MOL0     H40611  10.731   4.721  11.006  0.8807  1.0204 -2.1689
  308MOL0     H40612  10.727   4.765  11.257 -0.5104 -0.5206  0.5756
  308MOL0     H40613  10.864   4.849  11.252 -1.7142  2.8468 -2.6748
  308MOL0     H40614  10.918   4.650  11.323 -0.1061  3.8121 -0.3115
  308MOL0     H40615  10.825   4.561  11.206 -3.6574  2.7318  0.2837
  308MOL0     H40616  11.082   4.692  11.135  2.0334 -1.2345 -2.4945
  308MOL0     H40617  10.978   4.614  11.026 -0.4040  0.3219  0.3157
  308MOL0     H40618  11.048   4.347  10.926  0.5162  0.2486  0.1585
  308MOL0     H40619  11.232   4.304  10.768 -0.7780 -0.2740  0.3289
  308MOL0     H40620  11.474   4.306  10.464 -0.3457 -0.4412 -3.8271
  308MOL0     H40621  11.647   4.291  10.311  0.2282  1.6571 -1.1299
  308MOL0     H40622  12.043   4.227  10.438  1.0364  0.2311  0.1100
  308MOL0     H40623  12.068   4.188  10.270  0.2675  0.3444  0.1083
  308MOL0     H40624  12.038   3.977  10.479  2.3392  1.3810  1.3791
  308MOL0     H40625  12.143   3.990  10.331 -1.6876  2.0626 -3.8846
  308MOL0     H40626  11.843   3.949  10.323 -1.4810 -3.3657 -0.7775
  308MOL0     H40627  11.948   3.818  10.351 -1.1250 -0.8350  0.6293
  308MOL0     H40628  12.018   3.997  10.102 -0.8119 -2.2031 -3.5456
  308MOL0     H40629  12.075   3.840  10.152  1.0952 -0.2910  0.1363
  308MOL0     H40630  11.829   3.768  10.073 -1.7348 -0.4637 -3.2198
  308MOL0     H40631  11.903   3.881   9.966 -1.6706  1.7020  0.4090
  308MOL0     H40632  11.794   4.064  10.090  1.0655  0.0053  3.3325
  308MOL0     H40633  11.704   3.947  10.178  3.1417  0.5019  1.7889
  308MOL0     H40634  11.683   3.942   9.871  2.8049 -2.9755  1.4838
  308MOL0     H40635  11.567   3.872   9.983 -0.1099 -0.7856  0.0584
  308MOL0     H40636  11.494   4.094   9.893  0.2668  0.3998  0.9211
  308MOL0     H40637  11.641   4.166   9.937 -0.3596 -1.6403 -4.2915
  308MOL0     H40638  11.901   4.103  10.589  0.4754 -0.6750 -1.7817
  308MOL0     H40639  11.694   4.119  10.766  1.1120  3.7098  0.5050
  308MOL0     H40640  11.513   4.441  11.077 -1.3824  1.1500  2.2965
  308MOL0     H40641  11.317   4.497  11.211 -1.2366  1.4592 -0.6449
  308MOL0     H40642   9.722   5.863  11.044  2.4847  0.3530 -0.7578
  308MOL0     H40643   9.608   6.040  10.916  1.8361 -1.6101  2.7510
  308MOL0     H40644   9.292   6.073  10.367  0.7722 -0.1394 -0.6539
  308MOL0     H40645   9.174   6.289  10.325  0.8349 -1.4670 -2.3146
  308MOL0     H40646   9.065   6.646  10.406 -4.4915 -3.2145  3.1027
  308MOL0     H40647   9.041   6.475  10.392 -0.9812  0.7786 -3.4632
  308MOL0     H40648   9.172   6.472  10.191  0.3216 -0.4418 -0.7492
  308MOL0     H40649   9.047   6.580  10.171 -1.1962  0.7115  0.9438
  308MOL0     H40650   9.281   6.736  10.281 -1.7178  1.1275 -0.6748
  308MOL0     H40651   9.217   6.748  10.125  1.9052 -0.2734 -1.4780
  308MOL0     H40652   9.452   6.702  10.108  1.4328 -1.1969  0.3068
  308MOL0     H40653   9.439   6.568  10.200  0.4650  0.0431 -0.3027
  308MOL0     H40654   9.309   6.564   9.781  1.6033  0.2902 -0.5679
  308MOL0     H40655   9.438   6.493  10.583 -2.2743 -1.1748  3.3947
  308MOL0     H40656   9.578   6.291  10.606 -0.1325 -1.0336  0.0795
  309MOL0     O40657   3.506   2.810   2.729  0.2698 -1.1764  0.6451
  309MOL0     C40658   3.483   2.899   2.640 -0.2290 -0.7371 -0.3247
  309MOL0     O40659   3.359   2.962   2.618  0.3322  0.4892 -0.5297
  309MOL0     C40660   3.251   2.956   2.708 -1.1726  0.2175  0.0869
  309MOL0     C40661   3.237   2.874   2.822  0.3270 -0.3844  0.7216
  309MOL0     C40662   3.125   2.892   2.905  0.8386 -0.2115 -0.1021
  309MOL0     C40663   3.031   2.992   2.877  0.6020 -1.1555 -0.8128
  309MOL0     O40664   2.925   3.002   2.966  0.1494  0.0446  0.1701
  309MOL0     C40665   2.813   3.078   2.928  0.1973 -0.4309 -0.6718
  309MOL0     C40666   2.705   3.075   3.040  1.0533  0.4615  0.3094
  309MOL0     C40667   2.645   3.214   3.058  0.4426  0.1736 -0.1515
  309MOL0     C40668   2.533   3.232   3.161  0.1506  0.9696 -1.0724
  309MOL0     C40669   2.552   3.157   3.305 -0.7930 -0.4129  0.3097
  309MOL0     C40670   2.437   3.191   3.407  0.0692  1.5206  0.3846
  309MOL0     C40671   2.305   3.105   3.371  0.0351  0.1574 -0.0137
  309MOL0     C40672   2.285   2.969   3.442  0.1226  0.2947  0.5950
  309MOL0     N40673   2.389   2.870   3.407  0.2306  0.0195  0.2349
  309MOL0     C40674   2.499   2.828   3.480  0.0186  0.3671  0.2297
  309MOL0     C40675   2.574   2.750   3.401  0.2851  0.9498 -0.2679
  309MOL0     C40676   2.700   2.682   3.445  0.0774  0.6783 -0.4300
  309MOL0     C40677   2.795   2.677   3.320  0.6771  1.1886 -1.2628
  309MOL0     C40678   2.945   2.637   3.362 -0.7671 -0.7439 -1.4263
  309MOL0     C40679   2.970   2.491   3.391 -0.2880  1.0140 -0.2495
  309MOL0     O40680   3.112   2.480   3.431 -0.3771 -0.2461 -0.0577
  309MOL0     C40681   3.159   2.365   3.483  0.8618  0.0882 -0.2004
  309MOL0     C40682   3.090   2.250   3.482 -0.2307 -0.8491  0.6545
  309MOL0     C40683   3.144   2.124   3.497 -0.3445 -0.1604  0.0848
  309MOL0     C40684   3.281   2.115   3.527  1.1823 -0.2776 -0.3743
  309MOL0     C40685   3.339   1.981   3.553  0.1449  0.2126 -0.1798
  309MOL0     O40686   3.473   1.982   3.539  0.4145 -1.4073 -0.3397
  309MOL0     C40687   3.539   1.869   3.509 -0.1703 -0.1912  0.2674
  309MOL0     C40688   3.505   1.766   3.412 -0.1373 -0.9521  0.4394
  309MOL0     C40689   3.594   1.658   3.398 -0.3810  0.5418  1.2366
  309MOL0     C40690   3.703   1.639   3.478 -1.0106  0.7229  0.3843
  309MOL0     O40691   3.780   1.530   3.451 -0.2792 -0.0338  0.2452
  309MOL0     C40692   3.808   1.441   3.564 -0.2601 -0.6909 -0.2909
  309MOL0     C40693   3.761   1.299   3.526  0.1216  0.0826  0.5043
  309MOL0     C40694   3.821   1.227   3.414  0.1565 -0.0953  0.4213
  309MOL0     C40695   3.967   1.244   3.387 -0.2652  0.1155  0.1326
  309MOL0     C40696   4.011   1.361   3.300  0.5642 -0.0765 -0.4373
  309MOL0     C40697   3.936   1.374   3.168  0.2369 -0.1006  0.6406
  309MOL0     C40698   3.996   1.471   3.059 -0.3242  0.2771 -0.5800
  309MOL0     C40699   3.896   1.530   2.959  0.2679 -0.6127  0.0416
  309MOL0    Cl40700   3.789   1.658   3.037 -0.1666  0.0639  0.6329
  309MOL0     C40701   3.740   1.747   3.561  0.8871  0.3079  0.3810
  309MOL0     C40702   3.656   1.853   3.580  0.5745  0.2789  0.7217
  309MOL0     O40703   3.270   1.879   3.555 -1.3825  0.4506  0.3425
  309MOL0     C40704   3.356   2.240   3.543  0.1524  0.6559 -0.3964
  309MOL0     C40705   3.291   2.359   3.517  0.4832 -0.8287 -0.7597
  309MOL0     N40706   2.505   2.736   3.281 -0.9555 -0.4209 -0.1954
  309MOL0     N40707   2.401   2.802   3.288  0.2553  0.0171  0.8415
  309MOL0     C40708   3.037   3.066   2.764 -0.6856 -0.1411 -0.2820
  309MOL0     C40709   3.151   3.054   2.685 -0.1982 -0.1263 -0.7414
  309MOL0     C40710   3.595   2.924   2.552 -1.5473  0.2095 -0.3232
  309MOL0     C40711   3.718   2.854   2.571 -0.2180 -0.2440 -0.3244
  309MOL0     C40712   3.833   2.897   2.496 -0.3033 -0.0040  0.2429
  309MOL0     C40713   3.828   2.988   2.398 -1.7679 -1.0591  0.4621
  309MOL0     O40714   3.931   3.034   2.322  0.6776 -0.0753  0.4211
  309MOL0     C40715   4.070   3.038   2.369 -0.2993 -0.6825  0.9323
  309MOL0     C40716   4.156   3.018   2.248  0.6233 -0.2627 -0.2306
  309MOL0     C40717   4.168   3.135   2.156  0.1887 -0.0403  0.5464
  309MOL0     C40718   4.245   3.118   2.025 -0.3314 -0.3000 -0.1438
  309MOL0     C40719   4.380   3.066   2.038 -1.0836  0.7492  0.4357
  309MOL0     C40720   4.484   3.009   2.054  0.1038 -0.1653 -0.3076
  309MOL0     C40721   3.707   3.056   2.369  0.3187  1.6319  0.3766
  309MOL0     C40722   3.594   3.021   2.450 -0.7185 -0.0547  0.6793
  309MOL0     H40723   3.310   2.795   2.835  0.3157 -1.1926 -3.1093
  309MOL0     H40724   3.129   2.829   2.993  2.9959  0.4034  0.2954
  309MOL0     H40725   2.775   3.041   2.832 -0.0982 -0.8881 -0.3816
  309MOL0     H40726   2.843   3.181   2.909 -0.0520  0.5560  3.4749
  309MOL0     H40727   2.754   3.038   3.131  2.1984 -2.8473 -1.4966
  309MOL0     H40728   2.624   3.003   3.023  1.9351 -0.3569 -0.5718
  309MOL0     H40729   2.602   3.264   2.971 -1.1869  2.3272  1.7533
  309MOL0     H40730   2.721   3.278   3.104 -0.3939  0.7817  0.4267
  309MOL0     H40731   2.523   3.335   3.195 -0.5243 -0.4437  3.8417
  309MOL0     H40732   2.438   3.195   3.121 -0.8091  0.3006  1.6303
  309MOL0     H40733   2.652   3.176   3.344  1.2085 -1.9690 -3.4779
  309MOL0     H40734   2.556   3.050   3.283 -0.8386 -0.1632 -0.9889
  309MOL0     H40735   2.422   3.300   3.411 -2.6877  1.3076 -1.5214
  309MOL0     H40736   2.486   3.159   3.500  3.9053 -1.3172 -2.2795
  309MOL0     H40737   2.225   3.170   3.408  1.3813  2.1149 -0.3634
  309MOL0     H40738   2.283   3.089   3.265 -0.2697  0.6150 -0.0249
  309MOL0     H40739   2.191   2.915   3.430 -0.5095  1.3479  0.7289
  309MOL0     H40740   2.294   2.980   3.550  5.8134 -3.1302  0.9170
  309MOL0     H40741   2.541   2.862   3.575  0.0809  0.8339  0.0384
  309MOL0     H40742   2.686   2.579   3.480 -0.0867  0.9492  0.3148
  309MOL0     H40743   2.735   2.738   3.532  0.4374 -0.3039  0.0789
  309MOL0     H40744   2.804   2.777   3.276  0.9850  2.9496  2.3479
  309MOL0     H40745   2.756   2.609   3.244  2.3322 -0.0738 -1.0444
  309MOL0     H40746   3.017   2.682   3.292  3.5751 -1.1226  2.3484
  309MOL0     H40747   2.969   2.690   3.455  1.9287 -1.6185 -1.5311
  309MOL0     H40748   2.963   2.438   3.296  0.9350  1.5386 -0.6577
  309MOL0     H40749   2.902   2.461   3.471 -3.0039  0.2052 -2.6833
  309MOL0     H40750   2.986   2.232   3.457  0.1984  0.3188 -2.3679
  309MOL0     H40751   3.067   2.049   3.482  0.3586 -0.7709 -0.5416
  309MOL0     H40752   3.415   1.791   3.357 -0.9377 -1.6502  1.3913
  309MOL0     H40753   3.578   1.576   3.327  1.4286  2.5189 -1.6775
  309MOL0     H40754   3.752   1.484   3.648 -3.3866  0.8640 -2.9230
  309MOL0     H40755   3.911   1.447   3.598 -0.7395 -0.4280  1.1825
  309MOL0     H40756   3.653   1.309   3.510  0.4289  2.0760 -0.7415
  309MOL0     H40757   3.768   1.241   3.619  1.0283 -1.6234 -0.5905
  309MOL0     H40758   3.758   1.242   3.326 -0.6126 -0.3487  0.9212
  309MOL0     H40759   3.798   1.123   3.437  0.5893 -0.4575 -0.7180
  309MOL0     H40760   4.022   1.245   3.482 -0.9540 -2.3991  0.6295
  309MOL0     H40761   3.984   1.153   3.330 -1.9193 -0.9020  1.1551
  309MOL0     H40762   4.113   1.338   3.268  1.1932  0.8127  0.8180
  309MOL0     H40763   4.006   1.448   3.366 -0.4345 -1.5380  1.5138
  309MOL0     H40764   3.830   1.403   3.173 -0.7931 -2.7297 -2.3724
  309MOL0     H40765   3.937   1.272   3.129  0.5451 -0.4900  1.6276
  309MOL0     H40766   4.048   1.548   3.116  0.6066  0.3753 -1.5335
  309MOL0     H40767   4.072   1.416   3.002 -1.7924 -0.8478 -1.5349
  309MOL0     H40768   3.830   1.453   2.919 -0.8926  0.4287 -0.1012
  309MOL0     H40769   3.949   1.576   2.875 -1.5664  0.3256 -0.6547
  309MOL0     H40770   3.835   1.746   3.613  1.2397 -1.9445 -0.1886
  309MOL0     H40771   3.677   1.935   3.648 -1.7834  0.5615  1.1766
  309MOL0     H40772   3.462   2.242   3.567  0.2024 -0.9312 -0.3632
  309MOL0     H40773   3.350   2.449   3.515  0.8041 -0.9801 -3.6764
  309MOL0     H40774   2.972   3.133   2.708  0.7597  0.7702 -0.9290
  309MOL0     H40775   3.165   3.116   2.597  1.1005  2.4675  1.1416
  309MOL0     H40776   3.735   2.780   2.648 -2.8970 -1.2988 -0.6443
  309MOL0     H40777   3.928   2.848   2.512  1.3984  3.8991  3.8838
  309MOL0     H40778   4.093   2.971   2.453  1.4193  0.0914  1.1045
  309MOL0     H40779   4.102   3.136   2.407  2.4954 -1.0631 -0.2102
  309MOL0     H40780   4.258   2.992   2.276  1.4673  2.6222 -0.2769
  309MOL0     H40781   4.108   2.936   2.194  0.2238 -0.5209  0.5031
  309MOL0     H40782   4.224   3.213   2.208  1.8620 -2.5909  2.8126
  309MOL0     H40783   4.070   3.176   2.127  1.4322  1.8598 -1.3167
  309MOL0     H40784   4.191   3.057   1.952  0.0934 -1.4079  0.4347
  309MOL0     H40785   4.266   3.223   2.002  3.6752 -0.5945  1.3396
  309MOL0     H40786   4.579   2.960   2.061  1.6003  2.5763 -0.2165
  309MOL0     H40787   3.706   3.133   2.293  0.0538  0.3563 -0.9625
  309MOL0     H40788   3.496   3.060   2.423  0.1216  2.8923  1.4234
  310MOL0     O40789   3.929   8.411   7.911  0.5596  0.4322 -0.3936
  310MOL0     C40790   3.995   8.338   7.842  0.2088 -0.0200  1.0412
  310MOL0     O40791   4.128   8.356   7.819  0.7986 -0.1692  0.4370
  310MOL0     C40792   4.188   8.457   7.893 -0.1509  0.4883 -0.7106
  310MOL0     C40793   4.233   8.567   7.829  0.3266  0.7358  0.5776
  310MOL0     C40794   4.304   8.675   7.894 -0.5357  0.0107 -0.9351
  310MOL0     C40795   4.330   8.670   8.031  0.7494 -0.1593 -0.5325
  310MOL0     O40796   4.389   8.763   8.107 -0.2980 -0.2788 -0.7455
  310MOL0     C40797   4.427   8.887   8.052 -0.0762  0.1498 -0.3199
  310MOL0     C40798   4.490   8.979   8.152  0.5217 -1.1396 -0.4746
  310MOL0     C40799   4.622   8.917   8.193  0.4896 -0.0564 -0.2178
  310MOL0     C40800   4.688   8.975   8.312  0.3768 -0.7358  0.3296
  310MOL0     C40801   4.820   8.909   8.335 -0.3172  0.0607  0.1761
  310MOL0     C40802   4.904   8.983   8.441  0.0023  0.3951 -0.1186
  310MOL0     C40803   5.032   8.908   8.502 -0.5512  0.2023  0.7274
  310MOL0     C40804   5.151   8.902   8.395  1.0657 -0.8019 -0.6412
  310MOL0     N40805   5.259   8.846   8.474  0.3047  0.0965 -0.1837
  310MOL0     C40806   5.281   8.715   8.511  0.7464 -0.3341  0.5080
  310MOL0     C40807   5.397   8.717   8.578  0.4810 -0.6580  0.3643
  310MOL0     C40808   5.466   8.596   8.646 -1.0464 -0.1804 -0.6417
  310MOL0     C40809   5.593   8.541   8.577  0.5302 -0.3751 -0.1519
  310MOL0     C40810   5.574   8.550   8.419 -0.9427  0.2945  0.1595
  310MOL0     C40811   5.666   8.441   8.360  0.4552 -0.1643  0.2502
  310MOL0     O40812   5.796   8.506   8.352  0.2516 -0.3219 -0.1588
  310MOL0     C40813   5.895   8.427   8.294  0.4171 -0.7552  0.0183
  310MOL0     C40814   5.907   8.286   8.301 -0.0337  0.4286  0.7714
  310MOL0     C40815   6.017   8.223   8.243  0.5815  0.1684  1.4172
  310MOL0     C40816   6.123   8.297   8.181  0.9969  0.2415  0.3185
  310MOL0     C40817   6.238   8.234   8.131  0.4579  0.0647  1.2598
  310MOL0     O40818   6.260   8.104   8.173 -0.4463 -0.2324  0.3185
  310MOL0     C40819   6.385   8.047   8.159 -0.9310  1.0612  0.6117
  310MOL0     C40820   6.503   8.124   8.187  0.6413 -0.7978  1.0710
  310MOL0     C40821   6.630   8.066   8.166 -0.2618 -0.2678 -0.0430
  310MOL0     C40822   6.643   7.930   8.130 -0.1004  0.1042  0.1377
  310MOL0     O40823   6.755   7.856   8.130  0.1648 -0.7660 -0.5542
  310MOL0     C40824   6.879   7.918   8.151 -0.1628 -0.4550  0.2776
  310MOL0     C40825   6.991   7.832   8.107 -1.1709  0.0772  0.8284
  310MOL0     C40826   7.005   7.784   7.959 -0.8850  0.5654 -0.0465
  310MOL0     C40827   7.151   7.744   7.915 -0.4600  0.7329  0.2727
  310MOL0     C40828   7.140   7.684   7.767  0.8106  0.0328  0.5280
  310MOL0     C40829   7.269   7.610   7.730 -0.2721  0.8057  0.0192
  310MOL0     C40830   7.271   7.582   7.583  0.2455 -1.0027  0.1952
  310MOL0     C40831   7.416   7.574   7.531 -0.5964 -0.2815 -0.5321
  310MOL0    Cl40832   7.514   7.472   7.643 -0.0983  0.1507  0.0659
  310MOL0     C40833   6.530   7.854   8.106 -0.3599  0.5816  0.2427
  310MOL0     C40834   6.404   7.914   8.111  1.6538  0.9768 -0.0468
  310MOL0     O40835   6.300   8.290   8.037 -0.0228 -0.4333 -0.5235
  310MOL0     C40836   6.116   8.432   8.180 -0.3851 -1.0907 -0.5306
  310MOL0     C40837   6.007   8.495   8.235  0.1874 -0.2054  0.9136
  310MOL0     N40838   5.441   8.844   8.602  0.6945  0.0452 -0.4770
  310MOL0     N40839   5.363   8.924   8.533  0.1987  0.3664  0.5587
  310MOL0     C40840   4.286   8.556   8.097  0.0870 -0.8419 -0.7471
  310MOL0     C40841   4.220   8.450   8.030  0.0385  0.2223 -1.5718
  310MOL0     C40842   3.923   8.219   7.786 -1.0446  0.6129 -0.1724
  310MOL0     C40843   3.785   8.197   7.798 -0.3667 -0.3577  0.0864
  310MOL0     C40844   3.719   8.084   7.739  0.2790 -0.6467 -0.6821
  310MOL0     C40845   3.804   7.992   7.672  0.1679 -0.1817 -1.5761
  310MOL0     O40846   3.753   7.880   7.632 -0.6845  0.6318 -0.1159
  310MOL0     C40847   3.820   7.782   7.552  0.4455  0.4746 -0.0179
  310MOL0     C40848   3.843   7.824   7.405 -0.8269  0.4428  0.4592
  310MOL0     C40849   3.932   7.711   7.349  0.6526  0.1661 -0.1427
  310MOL0     C40850   4.081   7.744   7.347 -0.3935 -0.6383  0.7215
  310MOL0     C40851   4.162   7.632   7.296  0.1647  0.4752  0.8052
  310MOL0     C40852   4.228   7.539   7.273 -1.1498  0.1159  0.5460
  310MOL0     C40853   3.937   8.007   7.672  0.4026 -1.1062 -0.7069
  310MOL0     C40854   4.004   8.120   7.730 -0.5629  0.0114  0.1165
  310MOL0     H40855   4.220   8.581   7.722  0.6479 -0.5811  0.3483
  310MOL0     H40856   4.340   8.751   7.824 -0.7338 -0.0008 -1.0502
  310MOL0     H40857   4.338   8.940   8.018 -0.5960 -1.5655 -1.7623
  310MOL0     H40858   4.504   8.868   7.976 -0.0590 -0.8879 -0.0630
  310MOL0     H40859   4.423   9.000   8.236  0.8913 -0.8961 -0.2380
  310MOL0     H40860   4.511   9.066   8.090 -0.0840 -1.6341 -1.3944
  310MOL0     H40861   4.687   8.923   8.106  1.6738 -0.8514  0.5698
  310MOL0     H40862   4.609   8.811   8.219 -0.8795 -0.6686 -3.0744
  310MOL0     H40863   4.703   9.080   8.286 -1.3147 -0.8384 -1.2239
  310MOL0     H40864   4.625   8.980   8.401  0.1476 -1.2055  0.1941
  310MOL0     H40865   4.874   8.923   8.241 -2.1689  1.6154 -0.7412
  310MOL0     H40866   4.808   8.806   8.369  1.3358 -0.2694 -0.1742
  310MOL0     H40867   4.856   9.024   8.531  0.5443  0.9848 -0.0903
  310MOL0     H40868   4.948   9.070   8.392 -1.4739  2.7776  2.4709
  310MOL0     H40869   5.069   8.958   8.592  0.5757 -3.0733  2.2431
  310MOL0     H40870   4.992   8.808   8.519 -2.6644  0.9848  0.6619
  310MOL0     H40871   5.177   8.995   8.343 -0.6274  1.9077  2.8229
  310MOL0     H40872   5.117   8.848   8.307  2.1564  0.7563 -2.0889
  310MOL0     H40873   5.224   8.622   8.503  1.2594 -1.6233  6.7917
  310MOL0     H40874   5.390   8.519   8.657 -0.4675 -0.4685  2.1330
  310MOL0     H40875   5.495   8.626   8.747 -3.7950  0.7637 -0.0518
  310MOL0     H40876   5.605   8.439   8.614 -0.2098  0.0360  1.2837
  310MOL0     H40877   5.678   8.602   8.608  0.5553 -0.2140 -0.5322
  310MOL0     H40878   5.470   8.523   8.395 -1.5159 -0.3381  2.9784
  310MOL0     H40879   5.612   8.644   8.379 -0.8100  0.5559  0.8954
  310MOL0     H40880   5.631   8.413   8.260 -0.7766 -0.0977  0.6365
  310MOL0     H40881   5.660   8.352   8.422  1.0710  1.7380  3.2700
  310MOL0     H40882   5.828   8.225   8.344  2.5493 -2.3275  1.9363
  310MOL0     H40883   6.020   8.115   8.233 -0.1242  0.0368  2.4660
  310MOL0     H40884   6.496   8.222   8.232  0.9681 -0.7194  0.9535
  310MOL0     H40885   6.715   8.127   8.191  1.1244 -3.1039  2.9120
  310MOL0     H40886   6.875   7.927   8.260 -0.4322  0.5121  0.1950
  310MOL0     H40887   6.888   8.013   8.099  0.1247 -0.9281 -0.5473
  310MOL0     H40888   6.990   7.745   8.173 -0.4167  0.1879  0.9853
  310MOL0     H40889   7.076   7.894   8.138 -2.3899  2.7170 -0.6946
  310MOL0     H40890   6.966   7.857   7.887 -1.4579  1.2010  0.8812
  310MOL0     H40891   6.944   7.694   7.946  0.4036  0.0530 -4.2619
  310MOL0     H40892   7.222   7.826   7.919  1.1901 -0.6811  1.2997
  310MOL0     H40893   7.182   7.670   7.989  1.5798  1.0117 -0.2533
  310MOL0     H40894   7.125   7.770   7.702 -0.1444  0.8490  1.7778
  310MOL0     H40895   7.060   7.608   7.762 -0.0799  0.8269  1.8642
  310MOL0     H40896   7.277   7.511   7.774  1.1670  1.2365  0.8152
  310MOL0     H40897   7.354   7.663   7.774 -0.0544 -0.3626  1.0463
  310MOL0     H40898   7.226   7.486   7.554 -1.9901  0.6030 -2.1333
  310MOL0     H40899   7.215   7.665   7.538  1.4900  1.2314  2.4943
  310MOL0     H40900   7.456   7.675   7.518 -1.9167  0.4707  0.9376
  310MOL0     H40901   7.424   7.528   7.432  0.3512  0.6337 -0.9030
  310MOL0     H40902   6.537   7.748   8.081 -0.0218  1.1112 -2.0761
  310MOL0     H40903   6.321   7.847   8.091  3.7834 -1.0202 -3.0999
  310MOL0     H40904   6.188   8.489   8.122 -0.9298 -0.0064 -0.1857
  310MOL0     H40905   6.019   8.603   8.233  1.4021 -0.2840 -2.3993
  310MOL0     H40906   4.299   8.547   8.205 -0.4428 -0.2381 -0.6287
  310MOL0     H40907   4.203   8.364   8.093 -1.1442  0.2976 -1.7547
  310MOL0     H40908   3.732   8.273   7.855  0.5687 -1.5750  2.7140
  310MOL0     H40909   3.611   8.089   7.737  0.0787  3.5968  3.1910
  310MOL0     H40910   3.747   7.702   7.537  2.2860 -1.2121 -0.3616
  310MOL0     H40911   3.910   7.745   7.601  2.5796  2.8556 -1.8577
  310MOL0     H40912   3.747   7.832   7.353 -0.3675 -3.3670 -1.2870
  310MOL0     H40913   3.893   7.921   7.396  1.8801 -0.3794  4.1227
  310MOL0     H40914   3.909   7.684   7.246  2.9403 -2.6364 -0.0345
  310MOL0     H40915   3.920   7.615   7.400 -0.2203  2.8671  5.5246
  310MOL0     H40916   4.103   7.824   7.275  0.4257 -0.5082  1.1037
  310MOL0     H40917   4.122   7.761   7.446  3.0294 -2.9704 -0.0955
  310MOL0     H40918   4.284   7.454   7.239 -1.7459  0.0178 -0.2058
  310MOL0     H40919   3.997   7.922   7.643 -2.1666 -3.2248 -0.1670
  310MOL0     H40920   4.111   8.106   7.736 -0.9773 -3.5687  2.8018
  311MOL0     O40921   9.643   7.164   4.845 -0.3043  0.4619  1.3173
  311MOL0     C40922   9.596   7.162   4.729 -0.5878 -1.0486 -0.8871
  311MOL0     O40923   9.651   7.107   4.622  0.6603 -0.7016  0.1014
  311MOL0     C40924   9.755   7.026   4.635 -0.0201 -0.2843 -1.1398
  311MOL0     C40925   9.738   6.899   4.685 -0.7360  0.0264  0.0921
  311MOL0     C40926   9.854   6.813   4.700  0.1009  0.7718 -0.4747
  311MOL0     C40927   9.985   6.870   4.666  0.0076  0.1243 -0.9765
  311MOL0     O40928  10.098   6.787   4.664 -0.5922  0.1123 -0.9027
  311MOL0     C40929  10.190   6.786   4.551 -1.1249 -0.1765  0.3196
  311MOL0     C40930  10.119   6.726   4.438 -0.4687  1.7604  0.1163
  311MOL0     C40931  10.080   6.570   4.453 -0.5405 -0.4325 -0.1160
  311MOL0     C40932  10.088   6.508   4.318 -0.1226 -0.3178  0.6294
  311MOL0     C40933  10.008   6.370   4.315 -0.1968 -0.5049  0.8555
  311MOL0     C40934  10.084   6.258   4.396  0.0655  0.3976 -0.6690
  311MOL0     C40935  10.057   6.112   4.356 -0.4803  0.2527 -0.8617
  311MOL0     C40936  10.096   6.077   4.214  0.0268 -0.1625 -0.2924
  311MOL0     N40937  10.104   5.935   4.177  0.6911  0.7025 -0.1408
  311MOL0     C40938  10.008   5.843   4.161  0.0657 -0.2697  0.1874
  311MOL0     C40939  10.074   5.739   4.100  0.7112  0.1474  0.2734
  311MOL0     C40940  10.004   5.603   4.072 -0.7413 -0.3596 -0.0585
  311MOL0     C40941  10.112   5.509   4.023 -0.0298 -0.9948  0.3504
  311MOL0     C40942  10.057   5.361   4.002 -0.1822 -0.5873 -1.1004
  311MOL0     C40943   9.964   5.330   3.894  0.1357  0.5014 -1.4395
  311MOL0     O40944   9.924   5.191   3.912  0.1062 -0.3725  0.5381
  311MOL0     C40945   9.812   5.171   3.993  0.0262 -0.4709 -0.2666
  311MOL0     C40946   9.747   5.259   4.085 -0.1272  0.2353  0.6473
  311MOL0     C40947   9.630   5.220   4.161  0.4888  0.3854  0.0039
  311MOL0     C40948   9.578   5.093   4.154 -0.0156  0.1486  0.2138
  311MOL0     C40949   9.450   5.052   4.230 -0.2730 -0.2086 -0.2393
  311MOL0     O40950   9.445   5.110   4.359  0.2129 -0.5641  0.3221
  311MOL0     C40951   9.322   5.114   4.416 -0.5777 -0.4149  0.2858
  311MOL0     C40952   9.250   5.231   4.383 -0.9458 -0.4387  0.0886
  311MOL0     C40953   9.125   5.245   4.445  0.9568  0.4741  0.1780
  311MOL0     C40954   9.063   5.149   4.529  0.4583  1.0706 -0.4191
  311MOL0     O40955   8.936   5.154   4.586  0.2566  0.7237 -0.0535
  311MOL0     C40956   8.830   5.164   4.496  0.6828  0.3643  0.6189
  311MOL0     C40957   8.780   5.312   4.496  0.4939 -0.4676  0.2006
  311MOL0     C40958   8.760   5.392   4.628  0.5394 -0.4925  0.6781
  311MOL0     C40959   8.702   5.330   4.741  0.5119  0.3239 -0.6400
  311MOL0     C40960   8.803   5.289   4.851  0.0387  0.3282 -0.1684
  311MOL0     C40961   8.817   5.395   4.963  0.2558 -0.0159 -0.2718
  311MOL0     C40962   8.854   5.344   5.099  0.5063 -0.1897 -0.1328
  311MOL0     C40963   8.975   5.262   5.099 -0.6378 -0.9086  0.4212
  311MOL0    Cl40964   9.066   5.216   5.246  0.5062 -0.6909 -0.3470
  311MOL0     C40965   9.138   5.029   4.551 -0.9605 -0.0026  1.1262
  311MOL0     C40966   9.266   5.007   4.487  0.3465 -0.0694 -0.7980
  311MOL0     O40967   9.364   4.972   4.185 -0.4179  0.2954 -0.6669
  311MOL0     C40968   9.645   4.997   4.074 -1.0695  0.4854 -0.2283
  311MOL0     C40969   9.763   5.040   3.993  0.5769  0.6586 -0.4466
  311MOL0     N40970  10.210   5.767   4.087 -0.7729  0.1823  0.2029
  311MOL0     N40971  10.226   5.882   4.134  0.3374  0.0457 -0.5176
  311MOL0     C40972   9.997   7.000   4.643 -0.7141  0.2065 -0.0878
  311MOL0     C40973   9.888   7.079   4.627  0.2282 -0.0756 -0.1185
  311MOL0     C40974   9.483   7.265   4.694 -0.1722 -0.8164 -0.1047
  311MOL0     C40975   9.388   7.303   4.788 -0.7366  0.5522  0.2048
  311MOL0     C40976   9.286   7.388   4.765  0.0900  0.2578 -0.4947
  311MOL0     C40977   9.265   7.424   4.632  0.3047  0.6701 -0.8749
  311MOL0     O40978   9.143   7.488   4.602  0.1237  0.0998 -0.0743
  311MOL0     C40979   9.145   7.626   4.639  0.5004 -0.7000  0.0181
  311MOL0     C40980   9.159   7.721   4.512  0.1665 -0.1258 -0.0280
  311MOL0     C40981   9.029   7.709   4.435 -0.0531  0.0571  0.2045
  311MOL0     C40982   9.041   7.763   4.293  0.8821 -0.6114 -0.4340
  311MOL0     C40983   8.915   7.725   4.230 -0.1758  1.0500  0.0763
  311MOL0     C40984   8.817   7.694   4.156  1.1561 -1.0549 -0.2913
  311MOL0     C40985   9.346   7.384   4.531 -0.3654  0.5426 -0.5209
  311MOL0     C40986   9.449   7.303   4.559 -1.2784  0.0864  0.6822
  311MOL0     H40987   9.640   6.854   4.674 -0.1927 -1.7824  1.9185
  311MOL0     H40988   9.848   6.711   4.736 -0.6796  1.3826  1.2395
  311MOL0     H40989  10.282   6.737   4.584 -1.6248 -0.1043  1.9006
  311MOL0     H40990  10.218   6.891   4.539 -1.0195 -0.2470 -0.0944
  311MOL0     H40991  10.172   6.750   4.346 -1.1421 -2.6621 -1.6765
  311MOL0     H40992  10.020   6.772   4.434 -1.4559 -0.1305  1.1168
  311MOL0     H40993   9.985   6.555   4.504  0.2060  0.1626  1.5063
  311MOL0     H40994  10.163   6.524   4.507  0.1154  0.1192 -0.6359
  311MOL0     H40995  10.034   6.573   4.248  2.4601 -0.9975 -2.2319
  311MOL0     H40996  10.189   6.513   4.276 -0.6430  1.0204 -0.5764
  311MOL0     H40997   9.975   6.350   4.212 -1.5587  1.0413  0.9433
  311MOL0     H40998   9.908   6.385   4.356 -0.0805 -0.5743  1.1640
  311MOL0     H40999  10.068   6.266   4.504  0.2074  1.1896 -0.6959
  311MOL0     H41000  10.193   6.270   4.387  1.0159 -4.1927  1.5859
  311MOL0     H41001  10.113   6.051   4.427  1.4709  3.2687  0.3944
  311MOL0     H41002   9.952   6.094   4.378 -0.4220  1.5459  0.7014
  311MOL0     H41003  10.191   6.122   4.186 -0.3518  0.2617 -0.9171
  311MOL0     H41004  10.017   6.123   4.153 -0.1242  1.2586  0.9275
  311MOL0     H41005   9.904   5.854   4.188  0.4783 -0.7083  2.1258
  311MOL0     H41006   9.915   5.615   4.011 -1.0764 -0.8543  0.3295
  311MOL0     H41007   9.964   5.575   4.170 -1.6944  0.3429 -0.2339
  311MOL0     H41008  10.206   5.509   4.078  1.1431  1.0387 -1.4865
  311MOL0     H41009  10.134   5.538   3.919 -0.6767  1.0814  0.7425
  311MOL0     H41010  10.140   5.291   3.994  0.7106  0.3744 -0.4956
  311MOL0     H41011  10.022   5.335   4.103  4.2766 -0.6840  0.6621
  311MOL0     H41012  10.019   5.348   3.801  4.7149 -2.1168  0.4365
  311MOL0     H41013   9.879   5.399   3.898  1.3015  1.9757 -1.1945
  311MOL0     H41014   9.785   5.358   4.104  1.4181  0.0498 -1.2201
  311MOL0     H41015   9.593   5.292   4.234 -1.3491  2.0019 -2.3433
  311MOL0     H41016   9.293   5.307   4.319 -1.2686 -0.6875 -0.4308
  311MOL0     H41017   9.085   5.345   4.444  2.9994  1.3492 -0.7763
  311MOL0     H41018   8.757   5.093   4.536  2.4255 -1.2215  1.1276
  311MOL0     H41019   8.857   5.139   4.393  2.4025 -1.4065  1.4389
  311MOL0     H41020   8.681   5.315   4.451  1.1445  1.9976 -1.2311
  311MOL0     H41021   8.839   5.372   4.427 -2.8181  1.0015 -1.5515
  311MOL0     H41022   8.689   5.470   4.600  1.0960  0.9846  3.1204
  311MOL0     H41023   8.845   5.457   4.650  0.1533  2.2099 -4.3781
  311MOL0     H41024   8.621   5.395   4.774 -0.8362 -1.0319 -1.1371
  311MOL0     H41025   8.641   5.241   4.724 -1.2981  1.5717 -1.0427
  311MOL0     H41026   8.896   5.274   4.796 -0.0423  1.3331 -0.5989
  311MOL0     H41027   8.762   5.200   4.901 -1.7478  2.1240  1.7746
  311MOL0     H41028   8.716   5.434   4.976  0.0852 -0.9066  1.3716
  311MOL0     H41029   8.889   5.469   4.928  0.7152  0.6591  1.9358
  311MOL0     H41030   8.875   5.433   5.158 -1.1300  0.0511  0.1267
  311MOL0     H41031   8.762   5.294   5.129 -0.3631  0.7103 -1.1893
  311MOL0     H41032   9.048   5.320   5.041 -0.7182 -0.0587  1.1572
  311MOL0     H41033   8.959   5.172   5.039 -0.1219 -0.9484  0.3368
  311MOL0     H41034   9.107   4.956   4.626  4.0164 -2.4111  1.2762
  311MOL0     H41035   9.304   4.906   4.497 -0.8183 -0.4304  0.0695
  311MOL0     H41036   9.611   4.894   4.079 -0.4454  0.2873  0.1174
  311MOL0     H41037   9.809   4.969   3.925  0.0786  1.8256 -2.0676
  311MOL0     H41038  10.087   7.060   4.649 -0.4033 -0.2454 -0.2176
  311MOL0     H41039   9.905   7.184   4.608 -0.7664  0.0386 -0.4352
  311MOL0     H41040   9.398   7.263   4.889 -0.2138  0.7109  0.2179
  311MOL0     H41041   9.210   7.425   4.833  0.1785  1.4219 -1.0032
  311MOL0     H41042   9.228   7.651   4.706 -0.3355 -4.2338  2.6807
  311MOL0     H41043   9.048   7.652   4.683  0.1184  2.0837 -2.1646
  311MOL0     H41044   9.152   7.824   4.550 -2.9455  0.3775 -1.6208
  311MOL0     H41045   9.243   7.686   4.452 -1.8475 -2.6514 -1.5670
  311MOL0     H41046   8.949   7.760   4.489  0.8046 -1.5717  3.2046
  311MOL0     H41047   8.998   7.605   4.422 -1.8275  0.0794  3.4007
  311MOL0     H41048   9.065   7.868   4.314 -0.6857 -0.7435  2.5221
  311MOL0     H41049   9.124   7.714   4.240  1.9823 -0.3675  1.0017
  311MOL0     H41050   8.747   7.660   4.084  1.4168 -1.6564 -0.2644
  311MOL0     H41051   9.334   7.411   4.426  1.8930 -0.0872 -0.9877
  311MOL0     H41052   9.530   7.280   4.491 -1.9030  0.7810 -0.3252
  312MOL0     O41053   3.563   3.108   3.883 -0.0482 -0.5479 -0.0700
  312MOL0     C41054   3.533   3.136   3.770 -0.7181  1.4122 -0.3149
  312MOL0     O41055   3.557   3.255   3.707 -0.3500  0.4656 -0.1636
  312MOL0     C41056   3.605   3.358   3.791  0.1605  1.5306 -0.0035
  312MOL0     C41057   3.733   3.365   3.855  1.0510 -0.2070  0.8592
  312MOL0     C41058   3.767   3.482   3.927  0.1515 -0.2028  0.3576
  312MOL0     C41059   3.674   3.586   3.940 -0.0006 -0.3473 -0.3729
  312MOL0     O41060   3.733   3.706   3.972 -0.0245 -0.0818 -0.1490
  312MOL0     C41061   3.669   3.831   3.956 -0.7026 -0.0898  0.0214
  312MOL0     C41062   3.777   3.934   4.004  0.0628  0.3633 -0.6302
  312MOL0     C41063   3.771   3.938   4.161 -0.1582 -0.3314  0.1621
  312MOL0     C41064   3.885   4.017   4.225 -0.0259 -0.2515 -0.0713
  312MOL0     C41065   3.847   4.023   4.382  0.4988  0.2498  0.0875
  312MOL0     C41066   3.957   4.103   4.464 -0.2735 -0.2563 -0.3376
  312MOL0     C41067   3.916   4.130   4.609  0.4708 -0.3829 -0.6603
  312MOL0     C41068   4.003   4.233   4.694 -0.6744  0.8672  1.0026
  312MOL0     N41069   4.131   4.162   4.725 -0.4001 -0.8356  0.0111
  312MOL0     C41070   4.155   4.046   4.783  0.0286  0.1082  0.0134
  312MOL0     C41071   4.288   4.031   4.794  0.2621  0.5582  0.0535
  312MOL0     C41072   4.370   3.922   4.865 -0.2820 -0.7427  0.2692
  312MOL0     C41073   4.364   3.789   4.795 -0.1670  0.0096 -0.0344
  312MOL0     C41074   4.472   3.761   4.681  0.0181  0.5924  0.4961
  312MOL0     C41075   4.425   3.664   4.565 -0.0621  0.3679 -0.5314
  312MOL0     O41076   4.483   3.691   4.430 -0.9245 -0.6784 -0.7599
  312MOL0     C41077   4.455   3.816   4.371 -0.3979 -0.3468  0.0311
  312MOL0     C41078   4.333   3.884   4.396 -0.5549 -0.5140  0.0335
  312MOL0     C41079   4.301   3.999   4.322 -0.6439 -0.4784 -0.2494
  312MOL0     C41080   4.379   4.039   4.217  0.2044 -0.3885  0.3251
  312MOL0     C41081   4.347   4.151   4.135 -0.4180  0.5050  0.4907
  312MOL0     O41082   4.423   4.170   4.018  0.0523 -0.0816 -1.2013
  312MOL0     C41083   4.393   4.287   3.953  1.1458 -0.7127 -0.7161
  312MOL0     C41084   4.475   4.402   3.966  0.0649  0.1914  1.3000
  312MOL0     C41085   4.430   4.525   3.898 -0.7275  0.4180  0.0219
  312MOL0     C41086   4.319   4.528   3.821  0.4636 -0.0370 -0.5079
  312MOL0     O41087   4.279   4.641   3.760  0.4071 -0.3415 -0.3957
  312MOL0     C41088   4.143   4.682   3.779  0.1170 -0.5136 -0.9611
  312MOL0     C41089   4.100   4.750   3.640  0.4650 -0.1204 -0.0517
  312MOL0     C41090   3.963   4.816   3.643  0.6926  0.8816  0.3034
  312MOL0     C41091   3.956   4.947   3.719  0.7697  0.5530 -0.7797
  312MOL0     C41092   3.818   5.018   3.719  0.5419  0.4608  0.4625
  312MOL0     C41093   3.792   5.068   3.577 -0.2543  0.0402 -0.2337
  312MOL0     C41094   3.650   5.127   3.560 -0.1714 -0.8834  0.2951
  312MOL0     C41095   3.663   5.278   3.552  0.4348  0.4216 -0.9400
  312MOL0    Cl41096   3.507   5.344   3.505  0.0516  0.1016  0.2246
  312MOL0     C41097   4.245   4.412   3.796 -1.0247 -0.0229  0.1440
  312MOL0     C41098   4.281   4.295   3.867 -0.5996 -0.6270  0.9728
  312MOL0     O41099   4.256   4.221   4.165 -0.6626 -0.0730  0.0081
  312MOL0     C41100   4.491   3.964   4.193  0.2857 -0.5430  0.0939
  312MOL0     C41101   4.526   3.862   4.265 -0.8552  0.1827  0.3271
  312MOL0     N41102   4.339   4.134   4.723 -0.2828 -0.2062 -0.3586
  312MOL0     N41103   4.248   4.218   4.693  0.6559  0.0852 -0.2428
  312MOL0     C41104   3.544   3.570   3.885 -0.5089  0.2410 -1.3553
  312MOL0     C41105   3.513   3.455   3.811  0.1755 -0.5409  0.2746
  312MOL0     C41106   3.488   3.020   3.688 -0.4681  0.9646  0.4607
  312MOL0     C41107   3.440   2.894   3.733 -1.0346 -0.7213  0.3738
  312MOL0     C41108   3.395   2.799   3.646  0.2090  0.9344 -0.5447
  312MOL0     C41109   3.396   2.812   3.501 -0.2235  0.0399 -0.1665
  312MOL0     O41110   3.344   2.715   3.411  0.0431  0.2886  0.0647
  312MOL0     C41111   3.323   2.751   3.278 -0.5359 -0.7173  0.5467
  312MOL0     C41112   3.445   2.720   3.196 -0.9557  0.3335 -0.6562
  312MOL0     C41113   3.476   2.565   3.201  0.5214 -0.2750 -0.4715
  312MOL0     C41114   3.621   2.531   3.231 -0.1092 -0.9555 -0.0391
  312MOL0     C41115   3.638   2.538   3.375  0.2014  1.6621  0.6955
  312MOL0     C41116   3.642   2.533   3.497 -0.8305 -0.2336  1.0355
  312MOL0     C41117   3.449   2.943   3.462 -0.3181  0.0831 -0.5118
  312MOL0     C41118   3.505   3.035   3.548 -0.2397  0.3277 -0.0989
  312MOL0     H41119   3.815   3.295   3.844 -1.1062 -2.7647 -0.2653
  312MOL0     H41120   3.868   3.487   3.966  0.9429 -0.3974 -1.5188
  312MOL0     H41121   3.574   3.835   4.011  0.5122  0.3691  2.1709
  312MOL0     H41122   3.650   3.859   3.851 -0.2313  2.4087  0.5426
  312MOL0     H41123   3.775   4.032   3.955  1.5794  0.9280  0.3865
  312MOL0     H41124   3.873   3.897   3.968  1.7949  2.9937  0.9133
  312MOL0     H41125   3.785   3.841   4.209 -0.9447  0.1011  1.3078
  312MOL0     H41126   3.672   3.973   4.189 -0.1748  2.5990 -2.8924
  312MOL0     H41127   3.986   3.977   4.208  0.2536  0.5119 -0.2496
  312MOL0     H41128   3.887   4.121   4.190  3.0751 -1.2435 -3.5725
  312MOL0     H41129   3.846   3.917   4.410 -1.5971  0.0676 -0.4679
  312MOL0     H41130   3.746   4.062   4.399 -0.1509 -0.4699 -1.8720
  312MOL0     H41131   3.985   4.198   4.417 -1.4256  0.8459  1.0933
  312MOL0     H41132   4.038   4.030   4.475  1.4521  1.0367 -3.2210
  312MOL0     H41133   3.812   4.164   4.617  0.2477 -0.8597 -1.4693
  312MOL0     H41134   3.914   4.032   4.657  2.5815 -0.1409  0.0159
  312MOL0     H41135   3.951   4.266   4.784 -1.2091  1.6676  0.4187
  312MOL0     H41136   4.028   4.314   4.625 -2.5205 -1.1892 -2.3163
  312MOL0     H41137   4.084   3.969   4.810 -1.4650  1.5902  0.4492
  312MOL0     H41138   4.320   3.909   4.961  0.3336 -0.7814  0.5902
  312MOL0     H41139   4.470   3.961   4.883 -0.4080  0.3119 -1.0649
  312MOL0     H41140   4.265   3.775   4.751 -0.9166  1.2382  1.1854
  312MOL0     H41141   4.386   3.713   4.870  1.7373  1.2043  0.6831
  312MOL0     H41142   4.484   3.852   4.621 -2.6804  0.1861 -0.8062
  312MOL0     H41143   4.567   3.728   4.723 -0.0534 -1.5680 -0.8991
  312MOL0     H41144   4.317   3.683   4.560 -0.1413 -0.0174 -0.2341
  312MOL0     H41145   4.436   3.560   4.596 -3.4383  0.2398  0.6046
  312MOL0     H41146   4.254   3.843   4.458 -3.3775 -0.1560 -2.9828
  312MOL0     H41147   4.211   4.058   4.336 -1.3907 -0.6923 -3.3909
  312MOL0     H41148   4.563   4.409   4.030 -0.0574 -4.7716  2.3796
  312MOL0     H41149   4.482   4.620   3.907  0.7451  0.3208 -4.5823
  312MOL0     H41150   4.152   4.768   3.846  2.9374 -0.8150 -0.8151
  312MOL0     H41151   4.066   4.615   3.817  1.2974 -0.2573  2.2521
  312MOL0     H41152   4.086   4.675   3.562 -1.0372  2.6285 -2.5885
  312MOL0     H41153   4.180   4.817   3.611  2.3971 -1.8247  1.0502
  312MOL0     H41154   3.903   4.744   3.700  0.0338  0.2616 -1.1248
  312MOL0     H41155   3.928   4.823   3.540 -2.6650 -2.2214  1.0090
  312MOL0     H41156   3.961   4.919   3.825 -0.9313  0.3177 -0.7353
  312MOL0     H41157   4.040   5.014   3.697  0.0462  0.8921 -2.5978
  312MOL0     H41158   3.813   5.111   3.777 -0.0139  1.3680 -0.9769
  312MOL0     H41159   3.743   4.947   3.756  0.7686  0.1249  0.2872
  312MOL0     H41160   3.798   4.983   3.508 -0.8734  0.6200 -1.0306
  312MOL0     H41161   3.866   5.141   3.543 -1.7381  0.4204 -2.9928
  312MOL0     H41162   3.606   5.090   3.467 -2.6752 -0.0353  1.0747
  312MOL0     H41163   3.586   5.102   3.645  2.9117 -1.9995  2.4374
  312MOL0     H41164   3.738   5.292   3.474  0.7167 -3.0088 -1.4386
  312MOL0     H41165   3.688   5.328   3.647 -3.5805  0.0349  0.5184
  312MOL0     H41166   4.152   4.399   3.741  0.2061 -2.0653 -1.6314
  312MOL0     H41167   4.234   4.199   3.848 -2.8169 -0.0083  2.8363
  312MOL0     H41168   4.546   3.984   4.102 -2.9800 -2.3778 -2.5517
  312MOL0     H41169   4.617   3.806   4.250 -0.6933 -1.1324  4.7392
  312MOL0     H41170   3.467   3.646   3.884 -0.4496  0.3113 -0.8220
  312MOL0     H41171   3.414   3.452   3.768  0.1469  0.6694  0.2321
  312MOL0     H41172   3.461   2.867   3.836 -1.7006 -1.4891  0.3190
  312MOL0     H41173   3.351   2.706   3.681  3.2536 -0.5973 -0.4621
  312MOL0     H41174   3.305   2.859   3.272  1.9251 -0.3240 -1.2159
  312MOL0     H41175   3.242   2.688   3.238  0.2611 -0.1779 -2.0545
  312MOL0     H41176   3.432   2.754   3.093 -1.4772 -0.4652 -0.8622
  312MOL0     H41177   3.523   2.778   3.246  0.2894  0.2176 -2.3825
  312MOL0     H41178   3.446   2.524   3.104 -2.5538 -0.8501  0.6057
  312MOL0     H41179   3.411   2.503   3.264  1.8123 -0.3903  0.8094
  312MOL0     H41180   3.656   2.434   3.197  2.3704 -1.0710  2.4736
  312MOL0     H41181   3.675   2.611   3.179 -0.9671 -0.0373  0.4398
  312MOL0     H41182   3.641   2.519   3.603  3.9237 -0.0540  1.3234
  312MOL0     H41183   3.470   2.982   3.363  1.2246  0.9188  0.0980
  312MOL0     H41184   3.563   3.119   3.513 -1.4829  1.4430  0.4121
  313MOL0     O41185   3.166   5.636   7.350 -0.7217 -0.1133 -0.4435
  313MOL0     C41186   3.088   5.659   7.259 -0.0558 -0.1798 -0.1433
  313MOL0     O41187   2.990   5.747   7.266 -0.4885  0.3721 -0.2550
  313MOL0     C41188   2.944   5.807   7.378 -0.7719 -0.7127 -0.3324
  313MOL0     C41189   2.836   5.752   7.441 -0.4945  0.3230 -0.6572
  313MOL0     C41190   2.782   5.816   7.557  0.2730  0.1597  0.4682
  313MOL0     C41191   2.846   5.928   7.607 -0.1194  0.0809 -0.8636
  313MOL0     O41192   2.807   5.982   7.725  0.1691  0.5559 -0.2527
  313MOL0     C41193   2.893   5.953   7.831 -0.7112 -0.7689 -0.2528
  313MOL0     C41194   2.889   6.089   7.899 -1.0502  0.3323 -0.2525
  313MOL0     C41195   3.004   6.084   8.005 -0.3865 -0.1797 -0.0695
  313MOL0     C41196   2.995   6.213   8.096 -0.5876 -1.5500 -0.1884
  313MOL0     C41197   3.082   6.215   8.216 -0.4811 -0.3908 -0.2342
  313MOL0     C41198   3.231   6.193   8.186  0.0302  0.5105 -0.0599
  313MOL0     C41199   3.311   6.304   8.109  0.2140 -0.4113 -0.2286
  313MOL0     C41200   3.325   6.422   8.199 -0.2376 -0.7569  0.3504
  313MOL0     N41201   3.419   6.516   8.142 -0.3732  0.5289  0.6030
  313MOL0     C41202   3.420   6.653   8.158  0.4087  0.3288 -0.1230
  313MOL0     C41203   3.510   6.706   8.072  0.4810  0.9158  0.5497
  313MOL0     C41204   3.503   6.854   8.025 -0.3640 -0.5044 -0.9780
  313MOL0     C41205   3.634   6.937   8.033  0.1102 -0.9379  0.5294
  313MOL0     C41206   3.633   7.068   7.959  0.0524  0.1089 -0.8767
  313MOL0     C41207   3.510   7.143   7.952 -0.3550 -0.2215  0.5943
  313MOL0     O41208   3.525   7.268   7.867 -0.5362  0.5764 -0.8337
  313MOL0     C41209   3.624   7.354   7.909 -0.0835 -0.4924 -0.6673
  313MOL0     C41210   3.639   7.398   8.049 -0.0182  0.2585  0.1036
  313MOL0     C41211   3.722   7.500   8.091 -0.0536 -0.1894 -0.0078
  313MOL0     C41212   3.800   7.562   7.995 -0.3756 -0.7261  0.7144
  313MOL0     C41213   3.898   7.672   8.042  0.2682  0.3438 -1.0798
  313MOL0     O41214   3.870   7.734   8.167 -0.8448  0.2524  0.8225
  313MOL0     C41215   3.914   7.860   8.191  0.1977 -0.0019  0.0675
  313MOL0     C41216   3.898   7.901   8.318  0.1541  0.0164 -0.4620
  313MOL0     C41217   3.944   8.026   8.355 -0.0538 -0.4435  0.9670
  313MOL0     C41218   4.010   8.118   8.266 -0.1611  0.0650 -0.4127
  313MOL0     O41219   4.096   8.227   8.300  0.2104 -0.3525 -0.6489
  313MOL0     C41220   4.098   8.286   8.431  0.3618 -1.2342  0.5336
  313MOL0     C41221   3.963   8.347   8.458  0.2487 -0.4943  0.0151
  313MOL0     C41222   3.964   8.438   8.586  0.9117 -0.1396  1.2443
  313MOL0     C41223   3.823   8.511   8.606  0.6869  0.6605  1.2345
  313MOL0     C41224   3.815   8.604   8.719  0.2636 -0.2459  0.5591
  313MOL0     C41225   3.791   8.545   8.852  0.0277  0.8025 -0.6576
  313MOL0     C41226   3.757   8.654   8.947  0.2081  0.1555 -0.0006
  313MOL0     C41227   3.732   8.597   9.082  1.3649  0.0878 -0.0737
  313MOL0    Cl41228   3.692   8.730   9.189  0.6616 -0.1785 -0.1196
  313MOL0     C41229   4.006   8.082   8.129 -0.4580 -0.5920  0.7328
  313MOL0     C41230   3.965   7.949   8.098 -0.5660 -0.3377 -0.0725
  313MOL0     O41231   4.002   7.685   7.981 -0.5579  0.3820  0.4795
  313MOL0     C41232   3.777   7.530   7.862 -1.3224 -0.8686 -0.7291
  313MOL0     C41233   3.704   7.416   7.819 -0.6177  0.0688 -1.1839
  313MOL0     N41234   3.570   6.600   8.014  0.0818 -0.3377 -0.5168
  313MOL0     N41235   3.523   6.491   8.053 -0.0553 -0.4566  0.4181
  313MOL0     C41236   2.945   5.993   7.531  0.1055  0.7023 -0.4404
  313MOL0     C41237   2.998   5.927   7.412  0.2251 -0.0325  0.2414
  313MOL0     C41238   3.103   5.596   7.125  0.0154  0.3235  0.0723
  313MOL0     C41239   2.990   5.569   7.044 -0.1844 -0.4489 -0.9564
  313MOL0     C41240   2.996   5.503   6.917 -0.2940  0.9513  0.1379
  313MOL0     C41241   3.126   5.487   6.860 -0.5167 -0.0594  0.3712
  313MOL0     O41242   3.151   5.460   6.732  0.4343  0.2179 -0.1939
  313MOL0     C41243   3.045   5.369   6.681  0.4455 -0.1349 -0.5095
  313MOL0     C41244   3.114   5.295   6.567 -0.0815 -0.3020 -1.1678
  313MOL0     C41245   3.230   5.206   6.609  0.2200 -0.1433  0.2015
  313MOL0     C41246   3.365   5.240   6.540 -0.0272  0.3161 -1.3121
  313MOL0     C41247   3.469   5.133   6.549  0.5352 -0.0421 -0.0045
  313MOL0     C41248   3.572   5.070   6.567 -0.4938 -0.9370  0.5201
  313MOL0     C41249   3.243   5.532   6.940  0.1602  0.9431  0.0179
  313MOL0     C41250   3.221   5.579   7.068  0.1606 -0.4819  0.3995
  313MOL0     H41251   2.805   5.663   7.388  1.5151  0.1466 -1.6054
  313MOL0     H41252   2.702   5.767   7.612 -0.2533 -2.1679 -2.1221
  313MOL0     H41253   2.996   5.937   7.797 -0.1660 -0.7276  1.3117
  313MOL0     H41254   2.852   5.884   7.905  0.6329 -3.5453 -1.9398
  313MOL0     H41255   2.785   6.094   7.934 -1.9644  0.1564 -2.7222
  313MOL0     H41256   2.916   6.167   7.828  3.0691 -1.0352 -0.4212
  313MOL0     H41257   3.104   6.065   7.964 -0.5365 -2.0062  0.3230
  313MOL0     H41258   2.988   6.009   8.083 -2.6125  1.7281  1.4325
  313MOL0     H41259   3.032   6.304   8.047 -0.6625 -0.8962  0.9321
  313MOL0     H41260   2.894   6.219   8.139 -0.1706 -2.8761  1.0063
  313MOL0     H41261   3.040   6.132   8.274 -2.9725  0.2356 -1.0078
  313MOL0     H41262   3.072   6.307   8.273 -0.3057 -0.8145  0.4972
  313MOL0     H41263   3.238   6.106   8.120 -0.2986  1.7272 -1.7546
  313MOL0     H41264   3.281   6.163   8.279 -0.6729 -1.8110 -0.3641
  313MOL0     H41265   3.409   6.264   8.084  1.7387  1.9986  1.4358
  313MOL0     H41266   3.255   6.333   8.019 -1.6481  0.3689  1.1212
  313MOL0     H41267   3.358   6.399   8.300  0.5074 -1.1257  0.0316
  313MOL0     H41268   3.224   6.460   8.213 -1.1751 -2.1258 -2.1188
  313MOL0     H41269   3.352   6.708   8.222 -0.8712 -1.6745  0.3509
  313MOL0     H41270   3.430   6.913   8.082  0.0279 -1.4346  0.5610
  313MOL0     H41271   3.468   6.855   7.922 -0.3949  0.9591 -0.9751
  313MOL0     H41272   3.715   6.873   7.995 -0.4687 -1.5548  0.3101
  313MOL0     H41273   3.663   6.963   8.135  4.2066  2.3877 -1.1627
  313MOL0     H41274   3.706   7.134   8.007 -0.5982  1.6397 -1.9176
  313MOL0     H41275   3.670   7.041   7.860 -1.3310  0.9661 -1.6556
  313MOL0     H41276   3.469   7.158   8.053  1.3367  0.9392  1.1543
  313MOL0     H41277   3.440   7.080   7.897  2.4203 -2.4511 -0.5867
  313MOL0     H41278   3.570   7.360   8.124  0.2595 -0.1132  0.1749
  313MOL0     H41279   3.739   7.534   8.192  1.9318  1.1072 -0.7259
  313MOL0     H41280   3.848   7.836   8.389 -2.5582  1.6658 -0.7414
  313MOL0     H41281   3.922   8.048   8.459  2.3820 -4.4563  2.5706
  313MOL0     H41282   4.163   8.374   8.424 -1.6651  0.2773 -0.5956
  313MOL0     H41283   4.133   8.234   8.520  1.4952 -1.0774  0.2049
  313MOL0     H41284   3.892   8.265   8.476 -0.9109  0.6626  0.8637
  313MOL0     H41285   3.924   8.403   8.374  1.5923 -0.7411 -0.7992
  313MOL0     H41286   4.034   8.517   8.560  0.3280  0.0030  0.0363
  313MOL0     H41287   4.000   8.394   8.680  0.0060  0.4610  1.8959
  313MOL0     H41288   3.787   8.551   8.511 -2.8393 -3.3433  0.5448
  313MOL0     H41289   3.748   8.434   8.629 -1.6296  2.8794  1.4953
  313MOL0     H41290   3.727   8.664   8.693  0.1721  1.0946  3.6032
  313MOL0     H41291   3.907   8.663   8.717 -0.9298  1.6877  0.3828
  313MOL0     H41292   3.876   8.489   8.892 -1.5216 -1.8190 -0.7975
  313MOL0     H41293   3.707   8.475   8.841 -0.2057  1.1563 -1.1864
  313MOL0     H41294   3.838   8.728   8.954  2.3751 -1.9975 -0.7139
  313MOL0     H41295   3.674   8.710   8.903  0.1351  0.2302  0.2254
  313MOL0     H41296   3.824   8.546   9.112  2.0178 -1.4560 -4.1036
  313MOL0     H41297   3.645   8.532   9.074  0.1110  1.9465 -3.3106
  313MOL0     H41298   4.068   8.130   8.054  0.3149 -0.6792  1.3038
  313MOL0     H41299   3.991   7.923   7.995 -2.8551 -3.3177 -0.0266
  313MOL0     H41300   3.865   7.563   7.808 -1.2606 -1.3118 -0.9007
  313MOL0     H41301   3.703   7.390   7.714 -2.3487 -0.8204 -0.9873
  313MOL0     H41302   2.985   6.085   7.571  2.6227 -1.0558  1.4147
  313MOL0     H41303   3.063   5.984   7.346 -3.0842  2.3929 -1.2169
  313MOL0     H41304   2.890   5.589   7.082  0.3852 -1.3192  1.1405
  313MOL0     H41305   2.903   5.494   6.861  0.3207  1.8598 -1.0682
  313MOL0     H41306   2.970   5.430   6.629 -1.5993 -0.9178  1.3731
  313MOL0     H41307   2.985   5.304   6.745 -1.6368 -1.1592 -3.2869
  313MOL0     H41308   3.042   5.233   6.511  0.6318 -1.5337 -0.7614
  313MOL0     H41309   3.146   5.373   6.498 -0.9245  0.5446 -0.6247
  313MOL0     H41310   3.203   5.101   6.593 -1.6233 -0.1457  2.7060
  313MOL0     H41311   3.248   5.212   6.717 -1.4622 -0.8837  0.5534
  313MOL0     H41312   3.348   5.267   6.435  0.4812  1.2771 -1.1607
  313MOL0     H41313   3.403   5.324   6.599 -3.1387 -0.8725  2.8313
  313MOL0     H41314   3.655   5.003   6.582 -0.9638 -1.2874  1.6418
  313MOL0     H41315   3.341   5.517   6.897  0.4643 -2.0934  1.5413
  313MOL0     H41316   3.311   5.592   7.127 -0.6962 -0.5829  1.7861
  314MOL0     O41317   9.251  10.264   3.914 -0.1404  0.4898 -0.3570
  314MOL0     C41318   9.332  10.340   3.866 -0.9238 -0.2142 -0.1716
  314MOL0     O41319   9.316  10.427   3.756  0.5957  0.7530 -0.0263
  314MOL0     C41320   9.192  10.453   3.698 -0.2782  0.4534  0.8127
  314MOL0     C41321   9.068  10.439   3.761  1.1430 -0.4547  0.4958
  314MOL0     C41322   8.941  10.462   3.704  0.6849 -1.2767  0.0149
  314MOL0     C41323   8.929  10.517   3.570 -0.6303  0.5551  0.8805
  314MOL0     O41324   8.810  10.555   3.515  0.0776 -1.3914 -0.4203
  314MOL0     C41325   8.699  10.464   3.502 -0.0433 -1.0015  0.5227
  314MOL0     C41326   8.743  10.357   3.399 -0.4149 -0.8592  0.0805
  314MOL0     C41327   8.641  10.242   3.387  0.3718 -0.3587 -0.1741
  314MOL0     C41328   8.698  10.123   3.311 -0.0509  0.0759 -0.1542
  314MOL0     C41329   8.592  10.037   3.238  0.1749 -0.3085  0.1919
  314MOL0     C41330   8.515   9.951   3.329  0.3313  0.1568 -0.0534
  314MOL0     C41331   8.380   9.920   3.256  1.4153  0.3586 -0.1726
  314MOL0     C41332   8.297   9.835   3.358  0.3996  0.5166 -0.4380
  314MOL0     N41333   8.244   9.906   3.479  0.3641 -0.6158 -0.1550
  314MOL0     C41334   8.126   9.976   3.486  0.2630 -1.1953  0.5709
  314MOL0     C41335   8.105   9.996   3.615  1.4769 -0.9980 -0.8629
  314MOL0     C41336   7.980  10.069   3.675 -1.1425  1.3967 -1.1461
  314MOL0     C41337   7.850  10.046   3.597 -0.1377  0.0609 -0.5727
  314MOL0     C41338   7.739  10.082   3.693 -1.4260 -0.4202 -0.1918
  314MOL0     C41339   7.604  10.053   3.633 -0.2417 -0.2585 -0.1510
  314MOL0     O41340   7.579  10.141   3.516  0.3961 -0.5270  0.7435
  314MOL0     C41341   7.461  10.110   3.441 -0.3360 -0.5076  0.0452
  314MOL0     C41342   7.445  10.180   3.320  0.1273  0.6549 -0.2265
  314MOL0     C41343   7.332  10.161   3.242  0.2064  0.4408 -0.0738
  314MOL0     C41344   7.233  10.070   3.281 -0.4735  0.4065  0.2026
  314MOL0     C41345   7.113  10.050   3.194 -0.7670 -0.5233 -0.5818
  314MOL0     O41346   7.000   9.992   3.251 -0.5552  0.0166 -0.3324
  314MOL0     C41347   6.882   9.999   3.173 -0.3340  0.3333  0.3679
  314MOL0     C41348   6.790   9.894   3.195  0.0634 -0.3504 -0.1489
  314MOL0     C41349   6.666   9.892   3.125 -0.2579 -0.2081  0.8129
  314MOL0     C41350   6.642   9.994   3.037 -0.4137 -0.5340  0.9613
  314MOL0     O41351   6.530   9.999   2.952 -0.1982 -0.2408  0.1624
  314MOL0     C41352   6.543   9.912   2.837 -0.1225 -0.5057 -0.4185
  314MOL0     C41353   6.420   9.931   2.748  0.3472  0.7210  0.3849
  314MOL0     C41354   6.426  10.038   2.643  0.3479 -0.4302  0.0110
  314MOL0     C41355   6.303  10.029   2.562  0.7840 -0.3204 -0.7538
  314MOL0     C41356   6.339  10.092   2.424 -0.0152  0.3910 -0.3384
  314MOL0     C41357   6.368  10.241   2.433  0.6656  0.4388 -0.2350
  314MOL0     C41358   6.368  10.322   2.309  0.6052  1.4948 -0.1921
  314MOL0     C41359   6.390  10.470   2.315  0.1593 -0.6427 -0.4168
  314MOL0    Cl41360   6.260  10.532   2.421  0.4539 -0.0797 -0.7017
  314MOL0     C41361   6.726  10.104   3.021  0.6193  1.3159  0.4836
  314MOL0     C41362   6.841  10.113   3.101  0.4854  0.4332 -0.1904
  314MOL0     O41363   7.140  10.056   3.077 -0.5691  0.6791 -0.2488
  314MOL0     C41364   7.247  10.012   3.406 -0.2113  0.4466  0.2862
  314MOL0     C41365   7.359  10.034   3.486 -0.1985 -0.8793  0.1627
  314MOL0     N41366   8.208   9.937   3.697  0.4409 -0.1619 -0.2759
  314MOL0     N41367   8.286   9.891   3.607  0.3971 -0.4572  0.2040
  314MOL0     C41368   9.059  10.538   3.505 -0.9885  0.2529  0.2729
  314MOL0     C41369   9.185  10.505   3.571 -0.8921  0.5531  0.1436
  314MOL0     C41370   9.469  10.362   3.929  0.4453  0.6870  1.0620
  314MOL0     C41371   9.558  10.466   3.890 -0.2872  0.2310 -0.0019
  314MOL0     C41372   9.675  10.490   3.960  1.2277  0.2465 -0.1188
  314MOL0     C41373   9.710  10.406   4.065 -0.4438 -0.3712 -0.7998
  314MOL0     O41374   9.823  10.427   4.137  0.1310 -0.0106  0.4308
  314MOL0     C41375   9.795  10.444   4.278  0.7948  0.6439 -0.3779
  314MOL0     C41376   9.906  10.516   4.352 -1.6380  0.9401 -0.4802
  314MOL0     C41377  10.039  10.427   4.364 -0.6973 -0.6120  0.5002
  314MOL0     C41378  10.017  10.283   4.409 -0.1190  0.0133 -0.2427
  314MOL0     C41379  10.131  10.233   4.486  0.3406  1.3888  0.5788
  314MOL0     C41380  10.228  10.175   4.529 -0.6105  0.0880  0.5437
  314MOL0     C41381   9.621  10.303   4.103 -0.5169  0.1209  0.7596
  314MOL0     C41382   9.502  10.293   4.047  1.3319  0.4403  0.5277
  314MOL0     H41383   9.069  10.397   3.861  1.7938  0.8277  1.0461
  314MOL0     H41384   8.859  10.452   3.774 -1.0766  2.3744 -1.2407
  314MOL0     H41385   8.608  10.510   3.461 -2.1059 -2.6323  3.0046
  314MOL0     H41386   8.675  10.424   3.601  1.3295 -1.8201  0.5520
  314MOL0     H41387   8.835  10.311   3.434 -1.7041 -3.4600  0.2449
  314MOL0     H41388   8.750  10.418   3.308 -0.2065  1.2477  1.4263
  314MOL0     H41389   8.542  10.270   3.349  0.6641 -0.6217 -1.1650
  314MOL0     H41390   8.629  10.209   3.491  2.1724 -0.6717 -0.0379
  314MOL0     H41391   8.769  10.156   3.234  1.6964  0.4535  1.5371
  314MOL0     H41392   8.754  10.065   3.385 -2.7925  0.6489  2.5626
  314MOL0     H41393   8.643   9.982   3.159  0.5597 -1.7484  1.4050
  314MOL0     H41394   8.525  10.114   3.197 -0.3364 -0.6280  0.4100
  314MOL0     H41395   8.502  10.013   3.418  4.3914 -1.3158  1.8138
  314MOL0     H41396   8.570   9.858   3.343  1.7142 -0.0223 -4.8304
  314MOL0     H41397   8.323  10.008   3.224  1.8749  1.0805  0.9400
  314MOL0     H41398   8.408   9.869   3.164 -0.2119  0.2580 -0.6465
  314MOL0     H41399   8.354   9.750   3.394 -0.7303  0.1512  0.5370
  314MOL0     H41400   8.212   9.785   3.310 -0.9949 -0.0937  2.4914
  314MOL0     H41401   8.061  10.003   3.403 -0.1174 -3.1444  0.1795
  314MOL0     H41402   8.000  10.177   3.681  1.5687  1.0259 -1.9504
  314MOL0     H41403   7.976  10.042   3.780  2.2565  1.4487 -0.8921
  314MOL0     H41404   7.836   9.946   3.556 -1.0976  0.9920 -2.7146
  314MOL0     H41405   7.854  10.118   3.515  0.4551 -1.2832 -1.7719
  314MOL0     H41406   7.751  10.036   3.792 -2.1056  4.4981  2.5239
  314MOL0     H41407   7.736  10.188   3.717 -0.6305 -0.0832 -1.4947
  314MOL0     H41408   7.527  10.097   3.697  1.7012  4.1667 -0.4561
  314MOL0     H41409   7.604   9.944   3.629  0.7503 -0.5121  3.3838
  314MOL0     H41410   7.529  10.238   3.283  2.9950 -1.7146  2.0813
  314MOL0     H41411   7.334  10.213   3.147  0.5129 -0.1088 -0.3777
  314MOL0     H41412   6.814   9.824   3.274 -2.6951  1.2604  2.3436
  314MOL0     H41413   6.587   9.824   3.157 -0.1303 -1.3790 -1.2344
  314MOL0     H41414   6.549   9.812   2.881 -1.0183  0.1487  1.2850
  314MOL0     H41415   6.631   9.941   2.779  0.1952  1.9176  1.1537
  314MOL0     H41416   6.332   9.944   2.812 -0.7583  1.3778 -1.1915
  314MOL0     H41417   6.412   9.834   2.699  0.5265 -0.5106  2.6642
  314MOL0     H41418   6.517  10.027   2.584 -0.1486  0.6314 -0.9800
  314MOL0     H41419   6.433  10.137   2.690  1.8693  0.1063 -1.2753
  314MOL0     H41420   6.282   9.921   2.555 -2.7297  0.2460 -0.9225
  314MOL0     H41421   6.211  10.070   2.605 -0.4432 -1.6767 -1.9810
  314MOL0     H41422   6.253  10.069   2.359 -1.5874  0.9412  1.4755
  314MOL0     H41423   6.418  10.025   2.389 -0.9288 -1.4441  0.9261
  314MOL0     H41424   6.469  10.254   2.471  1.3552  1.4246 -2.2404
  314MOL0     H41425   6.293  10.283   2.500  0.8875 -0.7565  0.8021
  314MOL0     H41426   6.435  10.267   2.242  0.6137  0.8237  0.3469
  314MOL0     H41427   6.268  10.306   2.268  1.5837 -1.2993 -1.8155
  314MOL0     H41428   6.382  10.503   2.211 -2.3183 -0.4272 -0.2251
  314MOL0     H41429   6.481  10.494   2.370 -0.6650 -2.1821  1.7892
  314MOL0     H41430   6.681  10.167   2.945  0.2714  1.0647  0.4788
  314MOL0     H41431   6.890  10.209   3.107  1.2126  0.0893 -0.4369
  314MOL0     H41432   7.164   9.955   3.447  0.6813 -0.6094  0.6732
  314MOL0     H41433   7.362   9.999   3.589 -0.7556  1.4188  1.0405
  314MOL0     H41434   9.056  10.575   3.403 -1.9116 -0.6374 -0.0346
  314MOL0     H41435   9.277  10.516   3.515  0.4188 -1.1022  1.8354
  314MOL0     H41436   9.546  10.526   3.801 -3.9228  1.1629  0.9499
  314MOL0     H41437   9.737  10.576   3.936  2.1909 -0.2422  0.5460
  314MOL0     H41438   9.780  10.349   4.331  3.4751  0.2620 -0.1463
  314MOL0     H41439   9.711  10.511   4.298 -0.6861 -0.5954 -2.1062
  314MOL0     H41440   9.933  10.610   4.303  0.5277  0.7303  0.2384
  314MOL0     H41441   9.876  10.530   4.456  0.7333 -0.6313  0.5058
  314MOL0     H41442  10.105  10.475   4.438  0.6094 -3.5243  1.3827
  314MOL0     H41443  10.107  10.427   4.278 -0.1507  1.1462  0.8856
  314MOL0     H41444   9.929  10.279   4.473 -0.4704  2.1630 -0.5101
  314MOL0     H41445   9.993  10.223   4.321 -1.7748  1.1152 -0.5914
  314MOL0     H41446  10.317  10.130   4.569  0.1477  1.3174  0.3046
  314MOL0     H41447   9.649  10.232   4.180 -1.3310 -0.3828  0.6090
  314MOL0     H41448   9.432  10.221   4.088 -0.4448  0.9625 -1.4176
  315MOL0     O41449   0.644   0.341   1.468 -0.4520 -0.0462 -0.3362
  315MOL0     C41450   0.531   0.369   1.497  0.0876  0.0431 -0.0999
  315MOL0     O41451   0.491   0.404   1.627  0.3707 -0.1984  0.4391
  315MOL0     C41452   0.575   0.464   1.719  0.8703  1.7018 -0.2522
  315MOL0     C41453   0.681   0.549   1.680 -0.2811  0.4862 -0.5256
  315MOL0     C41454   0.783   0.600   1.761 -0.4575 -0.7173  0.3708
  315MOL0     C41455   0.781   0.569   1.894  0.7320  0.0571  0.4246
  315MOL0     O41456   0.870   0.599   1.991 -0.2795 -0.2444  0.1680
  315MOL0     C41457   0.983   0.690   1.960  0.6408  0.5350 -0.2434
  315MOL0     C41458   1.066   0.703   2.080  0.0596  0.0526  0.1676
  315MOL0     C41459   1.195   0.772   2.042  0.5325 -0.5241 -0.8428
  315MOL0     C41460   1.265   0.818   2.169  0.5438  0.6114  0.9172
  315MOL0     C41461   1.391   0.907   2.138 -0.4169  0.7074  0.9262
  315MOL0     C41462   1.445   0.954   2.277 -0.6489  0.9746 -0.0407
  315MOL0     C41463   1.518   0.843   2.358  0.0662  0.2815  1.1036
  315MOL0     C41464   1.619   0.773   2.281 -0.1920 -0.2109 -0.0692
  315MOL0     N41465   1.723   0.708   2.370  1.0059 -0.1941 -0.2747
  315MOL0     C41466   1.820   0.621   2.319  0.9135 -0.5031 -0.6472
  315MOL0     C41467   1.882   0.565   2.429  0.5013 -0.6523  0.3164
  315MOL0     C41468   1.984   0.450   2.407 -0.4120  0.5827  0.2538
  315MOL0     C41469   1.930   0.348   2.304  0.2942  0.4519 -0.4613
  315MOL0     C41470   2.019   0.222   2.282 -0.1929 -0.2308 -0.6551
  315MOL0     C41471   1.970   0.121   2.181 -1.3540  0.0901  0.3996
  315MOL0     O41472   1.925   0.172   2.057 -0.1282  0.1261 -0.2773
  315MOL0     C41473   1.887   0.088   1.959  0.6706  0.8458  0.6731
  315MOL0     C41474   1.814   0.152   1.851 -0.1003  1.2015  0.3494
  315MOL0     C41475   1.770   0.067   1.744  0.7691  0.1759  0.6424
  315MOL0     C41476   1.776  -0.074   1.750  0.0959  0.1985 -0.2756
  315MOL0     C41477   1.717  -0.151   1.640  1.2829 -0.3173 -0.5395
  315MOL0     O41478   1.697  -0.281   1.662 -1.2706 -0.5906  0.1128
  315MOL0     C41479   1.623  -0.350   1.570  0.5898  0.4335  0.9457
  315MOL0     C41480   1.649  -0.491   1.580  0.3704 -0.2806  0.1542
  315MOL0     C41481   1.568  -0.574   1.501  0.5307  0.0507 -0.3792
  315MOL0     C41482   1.468  -0.528   1.422 -0.6259  0.4842 -0.4275
  315MOL0     O41483   1.409  -0.624   1.353  0.1498  0.2201  0.5710
  315MOL0     C41484   1.280  -0.601   1.299  0.4210 -0.8137 -0.2276
  315MOL0     C41485   1.288  -0.515   1.170 -0.1412 -0.3215  0.1858
  315MOL0     C41486   1.337  -0.597   1.045 -0.6974 -0.0567  0.1998
  315MOL0     C41487   1.241  -0.691   0.979  0.0188 -0.0573 -0.3329
  315MOL0     C41488   1.278  -0.739   0.842 -0.5143  0.5689  0.7405
  315MOL0     C41489   1.168  -0.823   0.793 -0.4324  0.7323 -0.5651
  315MOL0     C41490   1.183  -0.879   0.645 -0.3963 -0.1614 -0.7607
  315MOL0     C41491   1.065  -0.980   0.607  0.2190 -0.7809  0.5488
  315MOL0    Cl41492   1.068  -1.145   0.682  0.3096  0.1945  0.3562
  315MOL0     C41493   1.434  -0.393   1.424  0.1080 -0.1506  0.5143
  315MOL0     C41494   1.510  -0.308   1.500  0.1058 -0.7168  0.0698
  315MOL0     O41495   1.683  -0.089   1.538 -0.5631  0.3176  0.2555
  315MOL0     C41496   1.837  -0.136   1.863  0.5532  0.5133  0.2166
  315MOL0     C41497   1.882  -0.052   1.971 -0.2265  0.4574 -0.2857
  315MOL0     N41498   1.813   0.620   2.540 -0.9890  0.5761 -0.1236
  315MOL0     N41499   1.716   0.689   2.509 -0.0488 -0.2519  1.1175
  315MOL0     C41500   0.674   0.494   1.943  0.4299  0.4794 -0.8943
  315MOL0     C41501   0.575   0.437   1.858  0.0915  0.0450  0.2626
  315MOL0     C41502   0.425   0.361   1.389  0.1564  0.2508 -0.5453
  315MOL0     C41503   0.440   0.406   1.260 -0.3876  0.7020 -0.6317
  315MOL0     C41504   0.334   0.399   1.175 -1.6008 -0.2851 -0.1285
  315MOL0     C41505   0.218   0.343   1.210 -0.4812 -0.6064 -1.2559
  315MOL0     O41506   0.112   0.362   1.116  0.0163  0.1173 -0.2150
  315MOL0     C41507  -0.016   0.298   1.132 -0.1021  0.3582 -0.2328
  315MOL0     C41508  -0.082   0.309   1.000 -0.5633  0.5334 -0.2792
  315MOL0     C41509  -0.216   0.236   0.999  1.2422 -0.3748  0.2270
  315MOL0     C41510  -0.298   0.258   0.866 -0.1328 -0.0895 -0.8867
  315MOL0     C41511  -0.343   0.392   0.848  0.0596  0.4736 -0.2758
  315MOL0     C41512  -0.361   0.508   0.842  0.8292 -0.3252 -0.5267
  315MOL0     C41513   0.198   0.288   1.337  0.2162  0.4356  1.1614
  315MOL0     C41514   0.301   0.304   1.426  0.7283 -0.0599  0.5004
  315MOL0     H41515   0.686   0.559   1.572 -1.3637  1.0341 -0.5366
  315MOL0     H41516   0.853   0.672   1.720 -3.1132  3.4011  2.3992
  315MOL0     H41517   0.935   0.781   1.922 -0.5790  0.8940  1.9854
  315MOL0     H41518   1.040   0.652   1.874 -0.4800 -1.6797 -0.0899
  315MOL0     H41519   1.082   0.610   2.134  0.3165 -0.3183 -0.5421
  315MOL0     H41520   1.006   0.764   2.149  2.2209  1.9448  0.4792
  315MOL0     H41521   1.175   0.861   1.982 -0.4276 -1.0885 -1.3727
  315MOL0     H41522   1.255   0.699   1.987  1.4333  0.4910 -1.2451
  315MOL0     H41523   1.192   0.869   2.232 -1.9724 -1.9771  0.3028
  315MOL0     H41524   1.290   0.730   2.229  0.6876 -0.0679 -0.1075
  315MOL0     H41525   1.370   1.003   2.090  2.5799  0.8287 -0.3332
  315MOL0     H41526   1.467   0.857   2.076 -0.6524 -0.2282  1.3724
  315MOL0     H41527   1.362   0.994   2.336 -1.6677 -2.1502  0.8207
  315MOL0     H41528   1.521   1.029   2.251 -0.2848  0.2445 -1.1518
  315MOL0     H41529   1.582   0.878   2.440  3.1367 -2.6489  0.1938
  315MOL0     H41530   1.442   0.776   2.398 -0.1885  0.4152  0.8445
  315MOL0     H41531   1.666   0.847   2.216  0.1848  0.8924  1.4238
  315MOL0     H41532   1.562   0.700   2.221 -3.5026  2.2242 -0.1594
  315MOL0     H41533   1.841   0.603   2.214  3.1746 -2.3021  0.0106
  315MOL0     H41534   2.007   0.404   2.503 -1.4448 -3.2341 -1.1306
  315MOL0     H41535   2.074   0.492   2.363 -0.7674 -0.7030 -1.8589
  315MOL0     H41536   1.915   0.383   2.202  3.9017 -1.4104 -1.8301
  315MOL0     H41537   1.837   0.302   2.338  0.8994 -2.1823 -2.0221
  315MOL0     H41538   2.114   0.269   2.254  0.3951 -1.3183 -0.5361
  315MOL0     H41539   2.040   0.174   2.378  0.6635 -1.8972 -1.6385
  315MOL0     H41540   1.882   0.067   2.218 -2.2384  0.3401 -1.2461
  315MOL0     H41541   2.052   0.049   2.173 -1.7810 -0.2693 -0.9391
  315MOL0     H41542   1.811   0.260   1.847 -1.4120  1.3275  2.6820
  315MOL0     H41543   1.734   0.114   1.653 -2.5007  0.8729  2.1528
  315MOL0     H41544   1.736  -0.526   1.634 -0.3277 -2.4507  0.0050
  315MOL0     H41545   1.574  -0.683   1.496 -0.4158 -0.1266  1.5040
  315MOL0     H41546   1.230  -0.544   1.379  2.2936  2.9860 -1.5283
  315MOL0     H41547   1.228  -0.697   1.289 -0.9877 -0.5262  2.9468
  315MOL0     H41548   1.361  -0.435   1.185  0.0965 -0.6013  0.5502
  315MOL0     H41549   1.200  -0.455   1.147  2.6501  3.0607 -3.0780
  315MOL0     H41550   1.428  -0.655   1.066 -1.8199 -1.0641  2.7233
  315MOL0     H41551   1.374  -0.518   0.979 -1.7870 -0.6077 -1.1016
  315MOL0     H41552   1.237  -0.781   1.041  0.2219 -0.4457 -0.8719
  315MOL0     H41553   1.136  -0.660   0.985  0.2304  0.8017 -0.8881
  315MOL0     H41554   1.362  -0.809   0.848 -1.1715 -0.0833  3.3874
  315MOL0     H41555   1.290  -0.655   0.772 -1.5430 -0.9232 -1.3042
  315MOL0     H41556   1.071  -0.772   0.789 -0.4293  0.6596 -2.3626
  315MOL0     H41557   1.162  -0.904   0.866  4.1663 -0.0077 -0.7201
  315MOL0     H41558   1.177  -0.792   0.579  0.9243  0.3302 -0.2685
  315MOL0     H41559   1.280  -0.930   0.643  0.5310  1.4225  0.5285
  315MOL0     H41560   1.050  -0.980   0.498 -1.8771  1.4797  0.7521
  315MOL0     H41561   0.976  -0.932   0.649  0.1730 -0.1317 -0.2551
  315MOL0     H41562   1.350  -0.348   1.372 -0.1313  0.5374  1.4765
  315MOL0     H41563   1.469  -0.209   1.513  3.5598  1.1439 -1.6321
  315MOL0     H41564   1.836  -0.244   1.864 -2.0973  0.4915  0.6808
  315MOL0     H41565   1.929  -0.088   2.062 -2.9804 -0.0887  1.0047
  315MOL0     H41566   0.672   0.456   2.045 -1.0578 -2.2082 -1.8424
  315MOL0     H41567   0.499   0.369   1.894 -1.1339  1.5071  0.5287
  315MOL0     H41568   0.537   0.440   1.226 -0.7564  1.0646 -1.3559
  315MOL0     H41569   0.362   0.426   1.074  2.7823  0.1564  0.9993
  315MOL0     H41570  -0.087   0.336   1.206 -0.4840 -1.6533  0.4992
  315MOL0     H41571  -0.005   0.192   1.158 -1.5982  0.4684  1.0037
  315MOL0     H41572  -0.105   0.414   0.977  1.2237  0.8750 -0.6031
  315MOL0     H41573  -0.010   0.266   0.930 -1.5797 -1.9163  0.0796
  315MOL0     H41574  -0.287   0.266   1.076 -1.0936 -0.4635 -1.7718
  315MOL0     H41575  -0.196   0.131   1.019 -3.3623 -1.3828  0.6224
  315MOL0     H41576  -0.237   0.228   0.780 -0.7704 -1.6282 -0.8372
  315MOL0     H41577  -0.382   0.188   0.859  0.0465 -0.2910 -1.0493
  315MOL0     H41578  -0.376   0.611   0.818 -0.8785 -0.5460 -0.5353
  315MOL0     H41579   0.104   0.238   1.362  0.4458 -2.2387 -2.4934
  315MOL0     H41580   0.286   0.270   1.528  0.3167 -2.4415 -0.2946
  316MOL0     O41581  10.040   7.307   6.958 -0.0645  0.6066  0.2292
  316MOL0     C41582  10.016   7.338   7.068 -0.3993  0.1712  0.0480
  316MOL0     O41583  10.078   7.300   7.186  0.1806  1.2004  0.6002
  316MOL0     C41584  10.178   7.208   7.172 -1.1957 -0.1452  0.6694
  316MOL0     C41585  10.153   7.082   7.138  1.2583  0.4889  1.1976
  316MOL0     C41586  10.253   6.985   7.127 -0.1203  0.3468  0.1905
  316MOL0     C41587  10.385   7.025   7.148  0.3280  0.0663 -0.3403
  316MOL0     O41588  10.482   6.931   7.174  0.1041  0.3595  0.6696
  316MOL0     C41589  10.601   6.926   7.083 -0.2131 -0.5514  0.5237
  316MOL0     C41590  10.556   6.877   6.942  0.9321 -0.2274  0.0706
  316MOL0     C41591  10.677   6.842   6.852 -0.5160 -0.2360  0.4637
  316MOL0     C41592  10.770   6.731   6.913 -1.2285 -0.4748  0.5577
  316MOL0     C41593  10.873   6.685   6.807  0.2522  0.0083 -1.3924
  316MOL0     C41594  10.960   6.574   6.871 -1.4059  0.7837  0.9037
  316MOL0     C41595  11.084   6.540   6.785 -0.1908 -0.1847 -0.5754
  316MOL0     C41596  11.149   6.417   6.843  0.0706 -0.0990  0.3640
  316MOL0     N41597  11.193   6.437   6.984 -0.7416  0.8132  0.5329
  316MOL0     C41598  11.292   6.537   7.013  0.3872  0.4696 -0.4553
  316MOL0     C41599  11.334   6.504   7.138 -0.2822 -0.0554 -0.7314
  316MOL0     C41600  11.440   6.574   7.222  0.7169  0.3146  0.0505
  316MOL0     C41601  11.541   6.471   7.263 -0.8129 -0.1153  0.0805
  316MOL0     C41602  11.682   6.529   7.302  0.6227  0.3279 -0.0925
  316MOL0     C41603  11.661   6.654   7.387  0.2719 -0.1896 -0.3979
  316MOL0     O41604  11.777   6.665   7.483  0.1078  0.1384 -0.2628
  316MOL0     C41605  11.905   6.700   7.445 -0.4191 -0.3957 -0.2772
  316MOL0     C41606  11.926   6.819   7.374 -0.7076  0.0048 -0.0357
  316MOL0     C41607  12.053   6.870   7.351  0.5831 -0.4641  0.4103
  316MOL0     C41608  12.161   6.799   7.394 -0.3932  1.0229  0.3240
  316MOL0     C41609  12.292   6.847   7.352  0.1043 -0.1544 -0.1350
  316MOL0     O41610  12.398   6.770   7.384  0.0000 -0.6640 -0.5004
  316MOL0     C41611  12.528   6.804   7.360 -0.3149  0.5432  1.2927
  316MOL0     C41612  12.577   6.869   7.250 -0.3447 -0.4063 -0.7295
  316MOL0     C41613  12.714   6.884   7.243  0.2701 -0.3526 -0.5688
  316MOL0     C41614  12.807   6.855   7.351  0.1233 -0.6177  0.1820
  316MOL0     O41615  12.939   6.888   7.331  0.1322  0.1081  0.4758
  316MOL0     C41616  13.031   6.827   7.427  0.2185  0.3901  0.2171
  316MOL0     C41617  13.173   6.843   7.384 -0.9262  0.3548 -0.0115
  316MOL0     C41618  13.261   6.813   7.505 -0.5474 -0.2696  0.4581
  316MOL0     C41619  13.263   6.941   7.588 -0.7061 -0.4180 -0.6687
  316MOL0     C41620  13.354   6.929   7.706 -0.2160 -0.1883 -0.7682
  316MOL0     C41621  13.268   6.867   7.818  0.6980  0.1894 -0.1276
  316MOL0     C41622  13.316   6.882   7.964 -0.7457 -0.4236  0.4632
  316MOL0     C41623  13.242   6.800   8.068  1.1283  0.4959 -0.0398
  316MOL0    Cl41624  13.292   6.632   8.044 -0.0069 -0.0385 -0.2337
  316MOL0     C41625  12.748   6.804   7.463 -0.5017 -0.5968 -1.6609
  316MOL0     C41626  12.617   6.761   7.460 -0.4630 -0.1359 -0.1860
  316MOL0     O41627  12.298   6.956   7.295  0.4921  0.4480  0.3049
  316MOL0     C41628  12.141   6.677   7.464 -0.1437  0.3406  0.5029
  316MOL0     C41629  12.013   6.631   7.488  0.6831 -1.2309 -1.5407
  316MOL0     N41630  11.269   6.382   7.166 -0.1157  1.0789 -0.0002
  316MOL0     N41631  11.178   6.348   7.078 -0.2887 -0.0248 -0.3835
  316MOL0     C41632  10.410   7.161   7.187 -0.1863  0.4623 -0.0988
  316MOL0     C41633  10.309   7.249   7.201  0.7879  0.0412  0.3233
  316MOL0     C41634   9.889   7.424   7.067 -0.1795  1.3548  0.4734
  316MOL0     C41635   9.821   7.457   7.181  0.1778 -0.9215  0.5002
  316MOL0     C41636   9.686   7.499   7.175  1.1510 -0.1724  0.0250
  316MOL0     C41637   9.621   7.504   7.054 -0.4062  0.0004 -0.8712
  316MOL0     O41638   9.486   7.522   7.048  0.0705 -0.2703  0.0543
  316MOL0     C41639   9.407   7.497   6.933  0.1008  0.1946  0.0888
  316MOL0     C41640   9.297   7.392   6.977  0.1894 -0.0749  0.2171
  316MOL0     C41641   9.170   7.451   7.038  0.0688  0.0416  0.1371
  316MOL0     C41642   9.079   7.522   6.946  0.1797  0.0378  0.2515
  316MOL0     C41643   9.038   7.435   6.838 -1.1477 -1.3108 -0.6228
  316MOL0     C41644   9.003   7.380   6.735 -0.3963 -0.1357 -0.7430
  316MOL0     C41645   9.695   7.499   6.935 -1.0060  0.3954  0.5349
  316MOL0     C41646   9.830   7.460   6.941  0.0125 -0.2690  0.0225
  316MOL0     H41647  10.049   7.051   7.140  0.6965  2.3071  2.1812
  316MOL0     H41648  10.242   6.882   7.095 -1.4112  1.2784 -2.7070
  316MOL0     H41649  10.663   6.844   7.120  2.7026  1.1065 -0.4313
  316MOL0     H41650  10.663   7.016   7.086 -1.7802  0.5444  1.8123
  316MOL0     H41651  10.502   6.956   6.888  0.1811 -0.0559  1.0638
  316MOL0     H41652  10.491   6.789   6.945 -0.6469  0.9026  0.2275
  316MOL0     H41653  10.734   6.932   6.823  1.3789 -2.0216 -1.6902
  316MOL0     H41654  10.635   6.808   6.757 -1.4040 -0.9394  1.0916
  316MOL0     H41655  10.823   6.772   7.000 -0.9632  1.0483 -0.2945
  316MOL0     H41656  10.701   6.649   6.938 -1.2576 -0.6948 -0.2262
  316MOL0     H41657  10.940   6.771   6.794 -0.0408  0.5919  0.5375
  316MOL0     H41658  10.824   6.654   6.715 -0.8207 -0.9207 -0.5251
  316MOL0     H41659  10.896   6.488   6.893 -0.4523  0.1252  1.1400
  316MOL0     H41660  10.985   6.623   6.966 -1.6575 -0.3677  1.5829
  316MOL0     H41661  11.069   6.519   6.679  0.8022 -1.1862 -0.5462
  316MOL0     H41662  11.155   6.623   6.794  0.6432 -0.9422  0.0204
  316MOL0     H41663  11.241   6.394   6.788 -0.5911 -0.6833 -0.5140
  316MOL0     H41664  11.080   6.335   6.823 -0.5890  1.2766 -3.9365
  316MOL0     H41665  11.312   6.628   6.957  0.4033  1.2128  0.7159
  316MOL0     H41666  11.385   6.631   7.297 -1.3213  1.6936 -2.3094
  316MOL0     H41667  11.482   6.651   7.156 -0.6490  0.3830 -0.7898
  316MOL0     H41668  11.553   6.397   7.183  0.0495 -1.1049  1.1023
  316MOL0     H41669  11.503   6.406   7.343  3.8522 -0.8052  2.0276
  316MOL0     H41670  11.728   6.448   7.360 -1.3321  1.0760  2.7136
  316MOL0     H41671  11.737   6.536   7.208  4.3768  2.9928  2.0373
  316MOL0     H41672  11.575   6.633   7.452  1.4355  0.0889  1.3160
  316MOL0     H41673  11.654   6.740   7.321 -2.2881 -1.4427 -1.9181
  316MOL0     H41674  11.841   6.878   7.340 -2.1985  0.1909  3.5614
  316MOL0     H41675  12.060   6.960   7.291  1.0587 -1.2531 -0.7461
  316MOL0     H41676  12.511   6.905   7.172 -0.8427 -2.7658 -1.4942
  316MOL0     H41677  12.760   6.921   7.152  0.8543 -0.5616 -0.3638
  316MOL0     H41678  13.008   6.720   7.425  0.1368  0.3272  2.1498
  316MOL0     H41679  13.011   6.854   7.531  0.2373  2.5275 -0.2912
  316MOL0     H41680  13.213   6.935   7.343 -1.7952  1.6463  1.8767
  316MOL0     H41681  13.193   6.768   7.307 -0.3392 -1.6538  1.9739
  316MOL0     H41682  13.361   6.795   7.463 -0.4743  1.7082 -0.3166
  316MOL0     H41683  13.233   6.730   7.571  2.7433  1.4776  4.5431
  316MOL0     H41684  13.289   7.024   7.522  1.5981 -0.4592  0.1080
  316MOL0     H41685  13.158   6.965   7.609 -0.2685  1.1707 -0.1975
  316MOL0     H41686  13.397   7.020   7.748  0.1067 -1.5985  2.2226
  316MOL0     H41687  13.439   6.862   7.693  0.9627  0.1546  3.5123
  316MOL0     H41688  13.285   6.761   7.799  0.1933  0.1582 -0.3994
  316MOL0     H41689  13.165   6.903   7.826  0.2891 -1.0539  6.6883
  316MOL0     H41690  13.424   6.871   7.965 -0.0913  3.4898 -2.0620
  316MOL0     H41691  13.309   6.989   7.989  2.9233 -0.1439  0.7888
  316MOL0     H41692  13.134   6.818   8.068  0.4517 -2.8497 -1.6488
  316MOL0     H41693  13.274   6.819   8.171 -0.6000  0.8852  0.4485
  316MOL0     H41694  12.801   6.784   7.556 -1.9239  1.0949 -0.4313
  316MOL0     H41695  12.567   6.712   7.543  0.0826  0.3907  0.4792
  316MOL0     H41696  12.225   6.623   7.506 -1.2217 -2.9081 -1.1792
  316MOL0     H41697  12.008   6.544   7.552 -0.4477 -0.3565 -0.3795
  316MOL0     H41698  10.512   7.188   7.209 -0.3354  0.8398  0.1287
  316MOL0     H41699  10.315   7.355   7.222 -1.3764  1.0377 -3.1984
  316MOL0     H41700   9.873   7.437   7.274 -0.5230 -1.4390  0.7893
  316MOL0     H41701   9.629   7.521   7.265  2.8719  2.3089  0.6380
  316MOL0     H41702   9.464   7.451   6.851 -1.1762 -0.3540 -0.5209
  316MOL0     H41703   9.356   7.588   6.900 -1.6320 -0.6752  0.2264
  316MOL0     H41704   9.259   7.329   6.896 -1.4720  1.8158 -0.5721
  316MOL0     H41705   9.350   7.324   7.044  0.4809  0.4609  0.5436
  316MOL0     H41706   9.200   7.511   7.125 -1.8961  0.1075  0.8209
  316MOL0     H41707   9.115   7.371   7.088 -2.0580  1.2900 -0.0816
  316MOL0     H41708   9.005   7.578   7.003 -0.4486 -2.0663  1.6377
  316MOL0     H41709   9.144   7.590   6.890 -0.4593 -1.4889 -2.5336
  316MOL0     H41710   8.981   7.325   6.646  0.8388 -0.9655 -0.5495
  316MOL0     H41711   9.656   7.521   6.836 -1.7387  1.3743  1.0242
  316MOL0     H41712   9.887   7.444   6.850  1.3614 -1.4304  1.0159
  317MOL0     O41713   0.693   9.031  10.317 -0.3007 -0.3551 -0.2559
  317MOL0     C41714   0.743   8.987  10.213  0.2670  0.0319 -0.7899
  317MOL0     O41715   0.797   8.863  10.194  0.2427  0.4936 -0.2655
  317MOL0     C41716   0.817   8.776  10.298  1.4495 -0.9824  0.3200
  317MOL0     C41717   0.711   8.679  10.318  0.5348  0.7825  0.7603
  317MOL0     C41718   0.741   8.574  10.409  0.6668  0.3328  0.4394
  317MOL0     C41719   0.867   8.563  10.471 -0.4582  2.2277 -1.0657
  317MOL0     O41720   0.878   8.466  10.563 -0.2583  0.0926  0.2598
  317MOL0     C41721   0.994   8.414  10.625  0.0964  0.1170 -0.6955
  317MOL0     C41722   1.037   8.495  10.759  0.3139  0.0255 -1.1048
  317MOL0     C41723   1.183   8.457  10.804  1.1045  0.1699 -0.3528
  317MOL0     C41724   1.209   8.521  10.939  0.2884  0.2906 -1.1380
  317MOL0     C41725   1.350   8.494  10.983 -0.1492  0.4558  0.7084
  317MOL0     C41726   1.458   8.547  10.887 -0.9934  0.6144 -0.7217
  317MOL0     C41727   1.596   8.582  10.958  0.6035 -0.1012  0.0392
  317MOL0     C41728   1.651   8.481  11.063  0.1372 -0.2828  0.0582
  317MOL0     N41729   1.680   8.347  10.999  0.6755 -0.8128 -0.0486
  317MOL0     C41730   1.786   8.267  11.027 -0.3186  0.6314  0.5038
  317MOL0     C41731   1.770   8.154  10.953  0.4347 -0.7362 -0.6681
  317MOL0     C41732   1.876   8.043  10.947  0.7972 -0.2852 -0.0452
  317MOL0     C41733   1.803   7.910  10.960  0.1835  0.8267  0.0300
  317MOL0     C41734   1.727   7.915  11.099  0.0360  0.1091  0.0897
  317MOL0     C41735   1.664   7.786  11.143 -0.4505  0.1522  0.4229
  317MOL0     O41736   1.778   7.689  11.160  0.1071 -0.3017  0.5378
  317MOL0     C41737   1.747   7.562  11.187  0.2806 -0.7998 -0.2262
  317MOL0     C41738   1.648   7.478  11.126  0.4907  0.0735  0.3356
  317MOL0     C41739   1.642   7.342  11.142  0.1632  0.4155 -0.2716
  317MOL0     C41740   1.733   7.271  11.228 -0.6657 -0.0329  1.0867
  317MOL0     C41741   1.733   7.127  11.229  0.8773  0.4573 -1.0565
  317MOL0     O41742   1.646   7.071  11.140  0.8182  0.4078  0.2857
  317MOL0     C41743   1.596   6.945  11.155 -0.4322 -0.0866 -0.1521
  317MOL0     C41744   1.584   6.880  11.282 -0.0585  1.0885  0.0402
  317MOL0     C41745   1.531   6.750  11.275 -0.1467 -0.5150 -0.3182
  317MOL0     C41746   1.482   6.689  11.164  0.4119 -0.0919 -0.3289
  317MOL0     O41747   1.401   6.573  11.184 -0.1231  0.1321  0.3747
  317MOL0     C41748   1.323   6.521  11.070  0.3350 -0.2918  0.4063
  317MOL0     C41749   1.395   6.444  10.962 -0.9576 -0.6506  0.5616
  317MOL0     C41750   1.322   6.408  10.835 -1.4169 -0.6054  0.8282
  317MOL0     C41751   1.277   6.541  10.761 -0.1887 -0.1756 -0.0478
  317MOL0     C41752   1.250   6.546  10.614  0.2769  0.1762 -0.5981
  317MOL0     C41753   1.220   6.693  10.564  0.8468 -0.1080  0.1772
  317MOL0     C41754   1.162   6.695  10.419 -0.1836  0.1949 -0.4098
  317MOL0     C41755   1.023   6.748  10.399  0.1290  0.3034 -0.0146
  317MOL0    Cl41756   1.007   6.796  10.228  0.7650  0.6435  0.4146
  317MOL0     C41757   1.499   6.755  11.044 -0.7912 -0.4306  0.2090
  317MOL0     C41758   1.553   6.885  11.039 -0.4048 -1.1366  0.3561
  317MOL0     O41759   1.805   7.065  11.307  0.1707  0.0184  0.3858
  317MOL0     C41760   1.828   7.356  11.291 -0.3646 -0.0709  0.3073
  317MOL0     C41761   1.830   7.497  11.275 -0.3267 -0.3282  0.2088
  317MOL0     N41762   1.655   8.169  10.874 -0.3431  0.9065  0.2740
  317MOL0     N41763   1.617   8.284  10.898  0.1164 -0.4304  0.0445
  317MOL0     C41764   0.976   8.648  10.438  0.4562 -0.2875 -0.0446
  317MOL0     C41765   0.943   8.751  10.357 -1.0045  0.2927 -0.0282
  317MOL0     C41766   0.731   9.074  10.083 -0.0361  0.0510 -0.7049
  317MOL0     C41767   0.641   9.182  10.072 -0.5024 -0.5047 -0.3799
  317MOL0     C41768   0.647   9.258   9.956 -0.2280  0.4266  0.4687
  317MOL0     C41769   0.736   9.236   9.854 -1.2797 -0.4985  0.6647
  317MOL0     O41770   0.743   9.326   9.752 -0.0739  0.6773 -0.4670
  317MOL0     C41771   0.806   9.300   9.622  0.2811  1.2550 -0.2029
  317MOL0     C41772   0.828   9.428   9.549 -0.1157  0.4927 -0.5379
  317MOL0     C41773   0.901   9.527   9.650  0.2840 -0.4048 -1.0007
  317MOL0     C41774   0.945   9.647   9.576 -0.8125 -0.6970  0.4734
  317MOL0     C41775   1.074   9.641   9.510  0.2910 -0.4776 -0.0280
  317MOL0     C41776   1.176   9.649   9.453  0.1713 -0.9954 -0.4643
  317MOL0     C41777   0.820   9.125   9.864  0.4167 -0.1422 -0.6922
  317MOL0     C41778   0.820   9.049   9.979 -0.7843  0.7404 -0.6607
  317MOL0     H41779   0.611   8.687  10.277  0.4280  0.1693  0.8876
  317MOL0     H41780   0.666   8.501  10.435  0.6509  1.0747  2.6829
  317MOL0     H41781   1.082   8.420  10.560  1.4433  1.1492  1.1319
  317MOL0     H41782   0.993   8.308  10.655  1.0154  1.5608  6.2373
  317MOL0     H41783   0.964   8.471  10.836  0.4585 -1.0868 -1.2863
  317MOL0     H41784   1.026   8.603  10.749 -0.3018  0.2938  1.6719
  317MOL0     H41785   1.252   8.486  10.724 -1.7881 -2.4741 -4.2018
  317MOL0     H41786   1.200   8.349  10.798  3.4220  0.2626  2.3573
  317MOL0     H41787   1.182   8.623  10.912 -4.0187 -0.8137 -1.7810
  317MOL0     H41788   1.140   8.491  11.019 -1.1320  1.6750 -1.7980
  317MOL0     H41789   1.366   8.386  10.989  2.2125  0.7838  1.4684
  317MOL0     H41790   1.367   8.545  11.079  0.4567  1.9537 -0.1598
  317MOL0     H41791   1.425   8.643  10.846 -1.1212  0.7268 -0.3600
  317MOL0     H41792   1.471   8.487  10.796 -1.5129  2.4267 -2.0576
  317MOL0     H41793   1.665   8.616  10.879 -0.3716  0.7258 -0.4827
  317MOL0     H41794   1.571   8.670  11.018  0.4430  1.4889 -2.2107
  317MOL0     H41795   1.567   8.474  11.133  1.1190 -2.0375  1.1446
  317MOL0     H41796   1.741   8.524  11.108  0.5717  0.7757 -1.7309
  317MOL0     H41797   1.869   8.272  11.097  0.5851 -2.0555 -0.2727
  317MOL0     H41798   1.941   8.057  11.034 -1.3732  2.9260  1.2638
  317MOL0     H41799   1.919   8.053  10.847 -1.5045  0.7032 -1.0109
  317MOL0     H41800   1.868   7.822  10.954 -1.3889 -0.2910 -1.3398
  317MOL0     H41801   1.728   7.886  10.884 -0.7341 -2.5334  1.7978
  317MOL0     H41802   1.790   7.958  11.178 -1.1393 -1.9241  2.2742
  317MOL0     H41803   1.639   7.980  11.088 -0.5508 -0.8624 -1.1856
  317MOL0     H41804   1.591   7.757  11.067  0.8626  1.6048 -1.4713
  317MOL0     H41805   1.616   7.811  11.238  2.0134 -0.0091  1.7823
  317MOL0     H41806   1.592   7.523  11.044 -1.7845 -0.8387  1.3233
  317MOL0     H41807   1.569   7.285  11.085 -0.5636  1.4684 -0.4190
  317MOL0     H41808   1.612   6.921  11.378 -0.8035 -0.1331  0.8127
  317MOL0     H41809   1.502   6.702  11.368 -0.7896  2.4923  1.1427
  317MOL0     H41810   1.278   6.612  11.029  0.8895  0.5264  1.5498
  317MOL0     H41811   1.239   6.462  11.108 -0.0667 -0.9545 -1.4220
  317MOL0     H41812   1.434   6.348  10.997 -0.8317 -1.5431 -1.8226
  317MOL0     H41813   1.485   6.503  10.944 -0.6941 -1.5430 -1.2224
  317MOL0     H41814   1.233   6.346  10.849 -1.4401 -0.0561  3.8769
  317MOL0     H41815   1.386   6.355  10.765  0.8906  4.1116 -1.0847
  317MOL0     H41816   1.194   6.586  10.817  0.1214  0.3273  0.0137
  317MOL0     H41817   1.366   6.603  10.769 -1.1573  0.9811  4.6735
  317MOL0     H41818   1.170   6.475  10.590  0.6706 -0.4855 -0.0015
  317MOL0     H41819   1.336   6.512  10.555  1.0579  2.0390 -0.6169
  317MOL0     H41820   1.309   6.754  10.582  0.9981 -0.1979 -0.2578
  317MOL0     H41821   1.155   6.738  10.640  2.8951  3.8216 -0.1297
  317MOL0     H41822   1.233   6.759  10.367  1.1740 -1.7695 -1.0663
  317MOL0     H41823   1.161   6.589  10.394  0.8628 -0.0374  0.4541
  317MOL0     H41824   1.004   6.831  10.468 -0.8964  2.9578 -3.2171
  317MOL0     H41825   0.949   6.671  10.422 -1.9123  2.3944  0.8944
  317MOL0     H41826   1.470   6.713  10.949  2.7707  1.4277 -1.9541
  317MOL0     H41827   1.588   6.921  10.943  2.9257 -0.0258  1.8116
  317MOL0     H41828   1.898   7.302  11.353 -0.0987 -3.0518 -2.3177
  317MOL0     H41829   1.906   7.557  11.323  1.5740 -0.6085 -2.2616
  317MOL0     H41830   1.071   8.629  10.487  2.0240 -0.9031 -3.1259
  317MOL0     H41831   1.020   8.824  10.331  1.8773 -2.5962 -0.1618
  317MOL0     H41832   0.564   9.193  10.147 -0.7742 -2.7008 -0.2572
  317MOL0     H41833   0.583   9.345   9.963  1.7959  1.8703  2.4565
  317MOL0     H41834   0.742   9.229   9.568 -1.5800 -0.5669  3.9073
  317MOL0     H41835   0.906   9.256   9.625  0.8502  1.9033 -4.3297
  317MOL0     H41836   0.883   9.422   9.454 -0.1838 -0.5611 -0.5238
  317MOL0     H41837   0.731   9.477   9.531  0.7328  1.7391 -1.9809
  317MOL0     H41838   0.983   9.476   9.701  0.9674  0.7755 -0.9001
  317MOL0     H41839   0.822   9.552   9.721 -1.9228 -1.3409 -2.9895
  317MOL0     H41840   0.872   9.686   9.505 -1.7893  1.7320  2.6494
  317MOL0     H41841   0.951   9.727   9.651  0.7741  0.6478 -1.0025
  317MOL0     H41842   1.275   9.645   9.411  1.8572 -2.8400  3.1963
  317MOL0     H41843   0.887   9.096   9.783  1.2183 -2.1795  0.6261
  317MOL0     H41844   0.897   8.973   9.985 -0.5085  0.9879 -0.9990
  318MOL0     O41845  11.279   5.303   6.921 -0.2526  0.0445 -0.2342
  318MOL0     C41846  11.297   5.336   6.806 -0.9064  0.0370 -0.3062
  318MOL0     O41847  11.377   5.438   6.763 -0.6420 -0.1229 -0.3396
  318MOL0     C41848  11.451   5.520   6.844  0.4550 -0.0828 -0.5900
  318MOL0     C41849  11.381   5.606   6.927 -0.6719 -0.2127  0.6194
  318MOL0     C41850  11.457   5.679   7.024 -0.6623 -0.8680 -0.6123
  318MOL0     C41851  11.599   5.672   7.029  0.0183 -0.7780 -0.9117
  318MOL0     O41852  11.662   5.736   7.125 -0.2941  0.2800 -0.5317
  318MOL0     C41853  11.754   5.833   7.075 -0.0396  0.9569  0.7670
  318MOL0     C41854  11.716   5.959   7.139  0.3190 -0.4525  0.2128
  318MOL0     C41855  11.574   6.012   7.096 -0.6534 -1.2173  0.2804
  318MOL0     C41856  11.596   6.121   6.986  0.4124 -0.0484 -0.6845
  318MOL0     C41857  11.471   6.162   6.912  0.0521 -0.3793  0.3132
  318MOL0     C41858  11.442   6.063   6.801  0.5174  0.0717  0.2567
  318MOL0     C41859  11.289   6.065   6.764  0.1302 -0.7439 -0.2700
  318MOL0     C41860  11.189   6.028   6.875  0.3244  0.4953 -1.1105
  318MOL0     N41861  11.057   6.011   6.819  0.3808  0.7601  0.0616
  318MOL0     C41862  11.015   5.909   6.742  0.4772 -0.3750  0.9273
  318MOL0     C41863  10.894   5.933   6.697 -0.3093  0.0264 -0.6029
  318MOL0     C41864  10.807   5.858   6.614 -0.7131  0.1717  0.3378
  318MOL0     C41865  10.737   5.947   6.515  0.1936 -0.8937  0.4709
  318MOL0     C41866  10.583   5.938   6.545  0.2262 -0.3022  0.3175
  318MOL0     C41867  10.539   6.010   6.669  0.5960  0.2981  0.4383
  318MOL0     O41868  10.396   6.003   6.667 -0.3287  0.0334 -1.2723
  318MOL0     C41869  10.328   6.070   6.768 -0.4267  0.8718 -0.0245
  318MOL0     C41870  10.390   6.144   6.871 -0.6014 -0.6326  0.4626
  318MOL0     C41871  10.307   6.207   6.967 -0.0239 -0.4493  0.1251
  318MOL0     C41872  10.166   6.188   6.963  0.2087 -0.4127  0.3748
  318MOL0     C41873  10.092   6.249   7.079  0.1462  0.5260  0.2704
  318MOL0     O41874  10.161   6.298   7.185 -0.3592 -1.4663 -0.0597
  318MOL0     C41875  10.082   6.392   7.259  0.4033  0.4706  0.0700
  318MOL0     C41876  10.049   6.514   7.204  0.3271  0.9006 -0.2003
  318MOL0     C41877   9.969   6.613   7.266  0.2873 -0.5136 -0.2913
  318MOL0     C41878   9.943   6.602   7.401 -0.2801 -0.2540  0.1527
  318MOL0     O41879   9.898   6.724   7.458  0.3079  0.1014 -0.3679
  318MOL0     C41880   9.918   6.742   7.602  0.3052 -0.2730  1.2307
  318MOL0     C41881   9.957   6.885   7.616  0.0617  0.5031 -0.4227
  318MOL0     C41882  10.084   6.930   7.542  0.4341 -0.1816  0.1922
  318MOL0     C41883  10.099   7.073   7.513 -0.1302  0.6282 -0.4717
  318MOL0     C41884  10.055   7.167   7.636  0.6559 -0.0547  0.8066
  318MOL0     C41885  10.059   7.300   7.568 -0.1346  0.2185  0.8874
  318MOL0     C41886  10.038   7.411   7.668 -0.4650 -0.6023  0.2063
  318MOL0     C41887  10.038   7.556   7.604  0.5922 -0.3386  0.1341
  318MOL0    Cl41888   9.908   7.571   7.487 -0.2375 -0.2687  0.3360
  318MOL0     C41889   9.981   6.485   7.466 -0.1338  0.1646 -0.8711
  318MOL0     C41890  10.046   6.380   7.396 -0.1394 -0.0951  0.0092
  318MOL0     O41891   9.973   6.250   7.072  0.9945  0.3355 -0.2217
  318MOL0     C41892  10.115   6.113   6.866  0.3099  0.4937 -0.3281
  318MOL0     C41893  10.191   6.055   6.761  1.0822  0.3696 -0.3845
  318MOL0     N41894  10.847   6.050   6.769 -1.1280  0.0058 -0.2390
  318MOL0     N41895  10.950   6.095   6.831  0.2085 -0.5731  0.0956
  318MOL0     C41896  11.665   5.595   6.940  0.4676  0.4316  0.8524
  318MOL0     C41897  11.590   5.517   6.849  0.1977  0.9500 -0.2354
  318MOL0     C41898  11.263   5.237   6.699  0.2541  0.3668 -0.1761
  318MOL0     C41899  11.168   5.135   6.731  0.3054 -0.5309  0.4736
  318MOL0     C41900  11.143   5.040   6.640 -1.0189  0.3555 -0.6288
  318MOL0     C41901  11.198   5.047   6.507 -0.0591 -0.2911 -0.2733
  318MOL0     O41902  11.158   4.973   6.404 -0.0639 -0.3320  0.1339
  318MOL0     C41903  11.173   4.831   6.425  0.0026  0.8443  0.7372
  318MOL0     C41904  11.059   4.751   6.359 -0.0346  0.1903 -1.0233
  318MOL0     C41905  10.923   4.802   6.405  0.4981 -0.9686  1.1172
  318MOL0     C41906  10.821   4.737   6.307 -0.5177  0.6697  0.0457
  318MOL0     C41907  10.677   4.741   6.347 -0.6520 -0.3345 -0.9937
  318MOL0     C41908  10.556   4.749   6.372 -0.2587 -0.4252  0.0210
  318MOL0     C41909  11.263   5.159   6.469 -1.2590  0.4042 -0.4703
  318MOL0     C41910  11.310   5.247   6.569  0.2819 -0.4516  0.6616
  318MOL0     H41911  11.276   5.625   6.908 -0.9083 -0.5959  1.4798
  318MOL0     H41912  11.415   5.750   7.094 -0.4129 -0.9752 -0.3502
  318MOL0     H41913  11.748   5.820   6.967 -2.8075 -1.5574  1.0835
  318MOL0     H41914  11.859   5.822   7.105  0.0978  0.5861  0.1637
  318MOL0     H41915  11.788   6.038   7.118 -1.5094  0.7275 -2.0028
  318MOL0     H41916  11.710   5.940   7.247  1.3694  3.3560  1.0890
  318MOL0     H41917  11.521   6.054   7.182  1.2884 -3.1911  2.6175
  318MOL0     H41918  11.530   5.926   7.043  0.3813  0.4846 -3.7203
  318MOL0     H41919  11.634   6.210   7.037  1.0677 -1.3941  1.2870
  318MOL0     H41920  11.676   6.083   6.922  3.1800  2.5508  0.9945
  318MOL0     H41921  11.488   6.261   6.869  0.1274  0.6582  2.5918
  318MOL0     H41922  11.387   6.168   6.982  0.9738 -0.0931  1.4209
  318MOL0     H41923  11.463   5.964   6.843 -1.1166  0.7198  2.8368
  318MOL0     H41924  11.507   6.073   6.714 -0.9087 -0.1234 -0.8769
  318MOL0     H41925  11.269   6.161   6.715 -0.6482 -2.3451 -3.3389
  318MOL0     H41926  11.275   5.997   6.680  0.6658 -0.8680 -0.2653
  318MOL0     H41927  11.186   6.083   6.969  2.5065 -4.0543  1.9758
  318MOL0     H41928  11.215   5.925   6.901  2.2517  1.4042  0.9091
  318MOL0     H41929  11.071   5.823   6.705  2.7306  2.1820 -2.2295
  318MOL0     H41930  10.731   5.818   6.682 -0.4842  1.5726  1.4655
  318MOL0     H41931  10.858   5.771   6.571  1.7628  0.4331  2.4806
  318MOL0     H41932  10.763   5.925   6.411  2.2693  4.2970 -0.4359
  318MOL0     H41933  10.768   6.052   6.518 -1.2030 -0.4159 -0.5500
  318MOL0     H41934  10.531   5.979   6.457  0.6506  2.2466  1.1617
  318MOL0     H41935  10.552   5.834   6.541 -0.1021 -0.3866  3.3503
  318MOL0     H41936  10.566   6.116   6.671  1.1857  0.1996 -0.9832
  318MOL0     H41937  10.583   5.971   6.761  3.3257  2.4357  0.1859
  318MOL0     H41938  10.497   6.157   6.886 -0.7699 -1.6940  2.9310
  318MOL0     H41939  10.360   6.267   7.041  0.7113 -1.0213  0.0762
  318MOL0     H41940  10.094   6.538   7.109  0.6616  2.7757  0.3917
  318MOL0     H41941   9.950   6.701   7.205  2.7800  1.6243  1.7817
  318MOL0     H41942   9.996   6.677   7.642 -1.4954 -3.1675  0.4246
  318MOL0     H41943   9.826   6.734   7.661 -1.8410  2.6500 -1.3989
  318MOL0     H41944   9.978   6.887   7.724  0.6097  0.3108 -0.5259
  318MOL0     H41945   9.864   6.941   7.600 -0.0304  0.5966  0.3655
  318MOL0     H41946  10.089   6.887   7.442 -0.6636  0.0445  0.0359
  318MOL0     H41947  10.172   6.903   7.602 -1.2792  2.7818  4.5549
  318MOL0     H41948  10.199   7.106   7.484  0.9295 -0.3725  1.7261
  318MOL0     H41949  10.031   7.090   7.429 -1.7001 -1.8564  0.1807
  318MOL0     H41950  10.137   7.167   7.708  1.4548  1.3452 -0.0513
  318MOL0     H41951   9.957   7.140   7.676  0.6851 -2.8292 -0.7189
  318MOL0     H41952   9.978   7.301   7.493  1.8296 -1.0030 -1.3801
  318MOL0     H41953  10.156   7.311   7.519  0.6100 -2.2700  1.6982
  318MOL0     H41954   9.937   7.399   7.710 -0.3154 -0.8200  0.5039
  318MOL0     H41955  10.114   7.392   7.745 -1.9829 -2.2153  1.3869
  318MOL0     H41956  10.125   7.564   7.537  0.6112 -0.7470  0.1114
  318MOL0     H41957  10.036   7.627   7.688 -0.7434  0.0533 -0.2057
  318MOL0     H41958   9.946   6.470   7.567 -0.7673  0.9935 -0.9558
  318MOL0     H41959  10.059   6.280   7.438 -1.4450 -0.1395  0.3550
  318MOL0     H41960  10.009   6.093   6.871  0.6679 -1.5026  0.1545
  318MOL0     H41961  10.152   6.004   6.674  2.6111  2.2664 -2.2881
  318MOL0     H41962  11.771   5.572   6.945  0.2415 -0.9447 -0.1753
  318MOL0     H41963  11.627   5.446   6.776  1.5193  1.1487  0.2154
  318MOL0     H41964  11.134   5.132   6.834  0.9663 -1.6654  0.6777
  318MOL0     H41965  11.070   4.961   6.653 -0.9302  0.0684 -1.8093
  318MOL0     H41966  11.179   4.795   6.528 -0.9880 -1.0439  0.1886
  318MOL0     H41967  11.269   4.809   6.378  1.0788  4.3849  0.9965
  318MOL0     H41968  11.069   4.762   6.251  1.2812 -1.6223 -1.1292
  318MOL0     H41969  11.069   4.644   6.374 -0.3003  0.0116 -2.0569
  318MOL0     H41970  10.910   4.911   6.399 -0.7197 -1.1194  0.8224
  318MOL0     H41971  10.918   4.760   6.506 -1.4001 -1.8126  0.7095
  318MOL0     H41972  10.828   4.782   6.208 -0.3365 -2.3434 -1.4459
  318MOL0     H41973  10.848   4.631   6.305 -1.4477  0.3363  1.9061
  318MOL0     H41974  10.450   4.742   6.387 -0.5602  1.1996 -1.1451
  318MOL0     H41975  11.296   5.180   6.368  1.1432 -1.7050 -0.2116
  318MOL0     H41976  11.354   5.340   6.536  0.6842 -1.0070 -0.4007
  319MOL0     O41977   0.255  10.425   4.338 -0.1686  0.2798 -0.1110
  319MOL0     C41978   0.216  10.408   4.227  0.4871 -0.0353 -0.2235
  319MOL0     O41979   0.258  10.480   4.121 -0.1429  0.3477 -0.1315
  319MOL0     C41980   0.377  10.553   4.136  0.7615 -0.6841 -0.5312
  319MOL0     C41981   0.452  10.554   4.020  0.3321  0.7042  0.7984
  319MOL0     C41982   0.568  10.629   4.012  0.4635  0.6039 -0.0971
  319MOL0     C41983   0.622  10.702   4.124  0.5372  0.7873  0.0840
  319MOL0     O41984   0.733  10.786   4.113  0.2311 -0.0119  0.1443
  319MOL0     C41985   0.804  10.810   4.238  0.0579  0.0121  0.4255
  319MOL0     C41986   0.954  10.777   4.228 -0.3210  0.3114  0.0994
  319MOL0     C41987   1.027  10.887   4.161  0.9734  0.7823  0.2228
  319MOL0     C41988   1.061  11.008   4.251  0.3038 -0.6482  0.3624
  319MOL0     C41989   1.160  11.108   4.179  0.0094  0.6584 -0.0500
  319MOL0     C41990   1.085  11.188   4.070  0.3631  0.6216 -0.3443
  319MOL0     C41991   1.178  11.293   4.008  0.7635  0.3264  0.0076
  319MOL0     C41992   1.108  11.374   3.898  0.6278 -0.0375  0.5803
  319MOL0     N41993   1.198  11.488   3.851  1.1231 -1.0019 -1.4490
  319MOL0     C41994   1.319  11.491   3.788  0.5549  0.0645  0.3985
  319MOL0     C41995   1.355  11.618   3.756 -0.3140 -0.0546  0.0979
  319MOL0     C41996   1.481  11.658   3.684 -0.7599  0.3097  0.4949
  319MOL0     C41997   1.614  11.616   3.748  0.2267 -0.5568 -0.0465
  319MOL0     C41998   1.600  11.579   3.900 -0.1419 -0.4004 -0.8684
  319MOL0     C41999   1.729  11.607   3.986 -0.3221 -0.7809  0.0036
  319MOL0     O42000   1.830  11.505   3.963 -0.2204  0.2150 -0.8151
  319MOL0     C42001   1.960  11.513   4.009  0.9971 -0.9700 -0.0732
  319MOL0     C42002   1.987  11.541   4.146 -0.6392 -0.1739 -0.1551
  319MOL0     C42003   2.123  11.537   4.199  0.9543  0.2993  0.4377
  319MOL0     C42004   2.225  11.516   4.109  0.1293 -0.1929  0.4665
  319MOL0     C42005   2.368  11.520   4.158  0.9426 -0.5032 -0.4310
  319MOL0     O42006   2.396  11.537   4.288  0.0840  0.0899  0.0052
  319MOL0     C42007   2.535  11.527   4.314  0.1899  0.3783  0.4442
  319MOL0     C42008   2.604  11.645   4.340  0.0618 -0.5840 -0.6628
  319MOL0     C42009   2.730  11.638   4.399  0.4991  0.2372 -0.0489
  319MOL0     C42010   2.794  11.509   4.415 -0.0251 -0.1010 -0.1138
  319MOL0     O42011   2.922  11.502   4.480  0.7455 -0.7241  0.4926
  319MOL0     C42012   2.907  11.445   4.615  0.0026 -0.0812 -0.0848
  319MOL0     C42013   2.904  11.559   4.712  0.5942  0.0238  0.2941
  319MOL0     C42014   3.032  11.641   4.698 -0.5621  0.1378  0.1823
  319MOL0     C42015   3.086  11.687   4.833 -0.4096  0.5232  0.4936
  319MOL0     C42016   3.223  11.751   4.813  1.1944 -0.4537 -0.6925
  319MOL0     C42017   3.340  11.658   4.778  0.0447 -0.4382  0.0716
  319MOL0     C42018   3.347  11.523   4.833 -0.9493  0.3889 -0.0066
  319MOL0     C42019   3.487  11.459   4.838 -0.9591 -0.2058 -0.6294
  319MOL0    Cl42020   3.591  11.575   4.926  0.5012  0.1361 -0.3454
  319MOL0     C42021   2.713  11.396   4.390  0.0097 -0.1254 -0.2109
  319MOL0     C42022   2.585  11.404   4.337  1.1489  0.3417  0.5270
  319MOL0     O42023   2.449  11.492   4.062  0.3860 -0.4199 -0.6927
  319MOL0     C42024   2.194  11.498   3.977 -0.0584 -0.6845  0.0882
  319MOL0     C42025   2.067  11.489   3.929  0.9369  0.7325 -0.2267
  319MOL0     N42026   1.250  11.698   3.791  0.4077 -0.0588 -0.8442
  319MOL0     N42027   1.151  11.621   3.848  0.1578 -0.6174 -0.1654
  319MOL0     C42028   0.540  10.700   4.240 -0.3869  0.4277  0.1944
  319MOL0     C42029   0.418  10.634   4.242  0.3035 -0.4265  0.0370
  319MOL0     C42030   0.092  10.321   4.214 -1.0327  0.1396  0.1279
  319MOL0     C42031   0.024  10.267   4.334 -0.9693  0.8048  0.5827
  319MOL0     C42032  -0.085  10.192   4.311  0.5827 -0.2274 -0.7015
  319MOL0     C42033  -0.132  10.151   4.180 -0.1757 -0.5076 -0.5016
  319MOL0     O42034  -0.229  10.067   4.153  0.5870  0.0705  0.2707
  319MOL0     C42035  -0.303  10.005   4.256 -0.3057  1.0169  0.0231
  319MOL0     C42036  -0.214   9.878   4.307  0.0922 -1.0969  0.4911
  319MOL0     C42037  -0.298   9.782   4.396 -0.4031 -0.2858  0.6039
  319MOL0     C42038  -0.360   9.821   4.532 -0.1186 -0.2128 -0.0048
  319MOL0     C42039  -0.255   9.857   4.629 -0.1974 -0.4461 -0.6831
  319MOL0     C42040  -0.161   9.895   4.702 -0.2035  0.6724  0.0208
  319MOL0     C42041  -0.070  10.216   4.070  0.8992 -0.6941 -0.0278
  319MOL0     C42042   0.042  10.299   4.089 -0.1651  0.3784 -0.0202
  319MOL0     H42043   0.418  10.490   3.939 -2.0606 -1.4046  3.2725
  319MOL0     H42044   0.612  10.639   3.913  1.5592  1.6411  0.4650
  319MOL0     H42045   0.769  10.750   4.322 -0.8522  0.7591  0.5884
  319MOL0     H42046   0.802  10.914   4.269  2.5007 -0.2385  1.7313
  319MOL0     H42047   0.959  10.677   4.185  1.8312 -0.8348  2.7588
  319MOL0     H42048   1.005  10.764   4.323 -1.0479  0.6763  0.5486
  319MOL0     H42049   0.967  10.929   4.079  1.2875 -0.5317 -0.7185
  319MOL0     H42050   1.124  10.851   4.125  1.1362  3.1644 -2.1020
  319MOL0     H42051   0.966  11.052   4.280  0.0506 -0.7772 -0.2496
  319MOL0     H42052   1.109  10.975   4.343  1.6228  2.1738  0.8041
  319MOL0     H42053   1.228  11.043   4.123 -1.9853  0.5521 -2.5440
  319MOL0     H42054   1.204  11.177   4.252 -0.2553 -0.6879  1.4521
  319MOL0     H42055   0.996  11.232   4.116  0.4458 -0.1288  0.5591
  319MOL0     H42056   1.056  11.122   3.989  3.5032  1.0291 -1.9728
  319MOL0     H42057   1.208  11.362   4.087 -4.4301  3.6426 -0.3907
  319MOL0     H42058   1.263  11.238   3.968  1.0192 -1.0658  2.3163
  319MOL0     H42059   1.011  11.411   3.933 -0.1108 -1.7504  0.4659
  319MOL0     H42060   1.060  11.308   3.825 -4.2708  3.5251  0.1172
  319MOL0     H42061   1.377  11.401   3.773  1.0802  0.0774  2.1418
  319MOL0     H42062   1.492  11.766   3.669 -1.3742  0.0698 -2.1799
  319MOL0     H42063   1.470  11.601   3.591 -1.2683  0.3791  0.5067
  319MOL0     H42064   1.682  11.701   3.753 -1.9121  1.2035  2.8493
  319MOL0     H42065   1.667  11.539   3.692  0.1572 -0.6045 -0.0479
  319MOL0     H42066   1.521  11.645   3.937 -0.2632 -0.6834 -0.6242
  319MOL0     H42067   1.577  11.474   3.915  1.0400 -0.6465 -0.6595
  319MOL0     H42068   1.701  11.612   4.092 -2.4157  2.3001 -0.5674
  319MOL0     H42069   1.774  11.704   3.962 -1.3540 -0.3096 -0.0885
  319MOL0     H42070   1.909  11.549   4.222 -2.2169 -4.1107 -1.0762
  319MOL0     H42071   2.140  11.542   4.306  1.5172 -0.2007  0.3823
  319MOL0     H42072   2.547  11.736   4.319  1.4682  0.7052  0.7983
  319MOL0     H42073   2.787  11.729   4.418 -0.7424  1.4008 -1.5876
  319MOL0     H42074   2.999  11.388   4.633  0.1797  0.1722 -0.1850
  319MOL0     H42075   2.818  11.382   4.624 -0.2600  0.3223  0.1310
  319MOL0     H42076   2.892  11.511   4.809  1.1033  0.4507  0.5758
  319MOL0     H42077   2.810  11.614   4.708 -1.6296 -3.3052  2.0585
  319MOL0     H42078   3.008  11.722   4.628 -1.6156  1.0550  1.5570
  319MOL0     H42079   3.107  11.586   4.641 -0.4706  0.1756  0.2657
  319MOL0     H42080   3.005  11.752   4.869 -1.0319  1.1157 -1.8317
  319MOL0     H42081   3.107  11.604   4.901 -1.8563 -0.5559 -0.3074
  319MOL0     H42082   3.250  11.793   4.911  1.3620 -0.6925 -0.6349
  319MOL0     H42083   3.214  11.828   4.736  1.2504 -1.3021 -1.5563
  319MOL0     H42084   3.429  11.718   4.800 -1.0895  0.2493  3.3702
  319MOL0     H42085   3.335  11.641   4.670 -0.7700 -1.3021  0.2357
  319MOL0     H42086   3.320  11.529   4.939 -0.7400  0.0472  0.0678
  319MOL0     H42087   3.294  11.454   4.767  1.1867 -0.2057 -1.2092
  319MOL0     H42088   3.522  11.447   4.735  0.7682 -0.7571 -0.0179
  319MOL0     H42089   3.477  11.369   4.899  1.2914 -0.1723 -0.1058
  319MOL0     H42090   2.738  11.301   4.435 -4.8639 -2.0066 -0.8575
  319MOL0     H42091   2.519  11.318   4.333  2.3786 -0.6908  1.3110
  319MOL0     H42092   2.269  11.486   3.899  0.0626  1.4561 -0.1843
  319MOL0     H42093   2.055  11.477   3.822  2.0569 -0.4712 -0.2389
  319MOL0     H42094   0.559  10.755   4.332  4.1806 -2.8673  1.5567
  319MOL0     H42095   0.364  10.653   4.334  1.3276 -1.5869  0.9119
  319MOL0     H42096   0.064  10.279   4.434  1.3930 -2.8215  0.2575
  319MOL0     H42097  -0.135  10.167   4.403  0.7316  2.5389  0.2313
  319MOL0     H42098  -0.399   9.974   4.214  0.8254 -1.7345 -0.7774
  319MOL0     H42099  -0.314  10.059   4.351  1.7327 -0.8113  1.4138
  319MOL0     H42100  -0.188   9.833   4.211 -5.0209 -0.0452 -1.6843
  319MOL0     H42101  -0.124   9.913   4.358  0.1942 -2.1407  1.0580
  319MOL0     H42102  -0.221   9.708   4.419 -0.5558  0.2413  3.0728
  319MOL0     H42103  -0.380   9.726   4.350 -1.1323  0.5223  0.8868
  319MOL0     H42104  -0.417   9.913   4.523 -0.9379 -0.6719  0.4414
  319MOL0     H42105  -0.425   9.738   4.562  0.5304 -1.7613 -2.5734
  319MOL0     H42106  -0.071   9.922   4.754  2.6295 -0.8396 -3.6361
  319MOL0     H42107  -0.103  10.209   3.967 -0.4950  2.3612  0.1054
  319MOL0     H42108   0.085  10.332   3.995 -2.2580 -1.9763 -1.9369
  320MOL0     O42109   6.286  11.108   7.650 -0.0965 -0.6899 -0.4962
  320MOL0     C42110   6.364  11.191   7.704 -0.9572  0.5198  0.4801
  320MOL0     O42111   6.335  11.269   7.813 -0.8705 -0.0411 -0.2918
  320MOL0     C42112   6.222  11.236   7.880 -1.0533  0.0247 -0.1458
  320MOL0     C42113   6.249  11.183   8.007 -0.4900  0.4344 -0.1345
  320MOL0     C42114   6.157  11.196   8.101  0.1526 -0.7869  0.0625
  320MOL0     C42115   6.028  11.251   8.069 -0.7397  0.5081 -0.5033
  320MOL0     O42116   5.940  11.274   8.167 -0.7832 -0.5123  0.0881
  320MOL0     C42117   5.836  11.376   8.148  0.2273 -0.8273  0.7339
  320MOL0     C42118   5.790  11.441   8.282 -0.1267  0.2288 -0.9800
  320MOL0     C42119   5.675  11.544   8.260 -0.2427 -0.8498 -0.4570
  320MOL0     C42120   5.541  11.486   8.211  0.7215 -0.4997 -0.0971
  320MOL0     C42121   5.437  11.598   8.185  0.7171 -0.3073 -0.0085
  320MOL0     C42122   5.343  11.547   8.073  0.0835 -1.5598  0.4856
  320MOL0     C42123   5.216  11.635   8.050 -0.0699  0.1758 -0.5979
  320MOL0     C42124   5.133  11.673   8.178 -0.8639 -0.4029  0.2297
  320MOL0     N42125   5.068  11.564   8.256  0.1654  0.1620  0.1150
  320MOL0     C42126   4.955  11.496   8.204 -0.6966  0.5594 -0.0078
  320MOL0     C42127   4.958  11.381   8.275 -0.4677  0.4690 -0.6604
  320MOL0     C42128   4.855  11.273   8.259 -0.6088 -0.0584 -0.3585
  320MOL0     C42129   4.906  11.155   8.173 -0.0946 -0.9076 -0.9707
  320MOL0     C42130   4.818  11.031   8.202  0.2867 -0.3339 -1.0769
  320MOL0     C42131   4.668  11.047   8.211 -0.0379 -0.0521 -0.0378
  320MOL0     O42132   4.604  10.937   8.278 -0.3800  0.4983  0.5106
  320MOL0     C42133   4.469  10.945   8.291  0.1559  0.1928  0.0573
  320MOL0     C42134   4.391  11.010   8.191  0.4177  0.5379  0.0180
  320MOL0     C42135   4.248  11.019   8.204 -0.7066  0.8168 -0.1157
  320MOL0     C42136   4.186  10.948   8.310  0.4709 -0.6141  0.3822
  320MOL0     C42137   4.035  10.950   8.316  0.1535  0.3495  0.2531
  320MOL0     O42138   3.972  10.943   8.188 -0.0769  0.3914 -0.1025
  320MOL0     C42139   3.835  10.915   8.181  0.2810 -0.5765 -0.8327
  320MOL0     C42140   3.764  11.016   8.125 -0.7864 -0.4295  0.4918
  320MOL0     C42141   3.626  11.001   8.119 -0.1505  0.6411  0.3055
  320MOL0     C42142   3.565  10.884   8.162  0.1322  0.4578 -0.4803
  320MOL0     O42143   3.427  10.878   8.162 -0.7986 -0.3929 -0.5250
  320MOL0     C42144   3.384  10.763   8.089 -0.8370 -0.0724 -0.6359
  320MOL0     C42145   3.228  10.778   8.075 -1.1880  0.0299 -0.0748
  320MOL0     C42146   3.205  10.866   7.951  1.3410 -0.4049 -0.5502
  320MOL0     C42147   3.053  10.867   7.932  0.4967  0.6379 -0.3204
  320MOL0     C42148   3.020  10.987   7.863 -0.8180 -1.5306 -0.6549
  320MOL0     C42149   2.873  10.995   7.850 -0.2940  0.1114  0.3004
  320MOL0     C42150   2.809  11.077   7.734  0.3198  0.3423 -0.1077
  320MOL0     C42151   2.655  11.069   7.722 -1.0231  0.7708 -0.1656
  320MOL0    Cl42152   2.585  11.143   7.863  0.3425  0.5310  0.1555
  320MOL0     C42153   3.642  10.775   8.215 -0.8148 -0.7182 -0.3958
  320MOL0     C42154   3.776  10.802   8.231 -0.1427  0.7251  0.0739
  320MOL0     O42155   3.980  10.912   8.421  0.0302  0.4249 -0.4422
  320MOL0     C42156   4.260  10.891   8.411 -0.5122 -0.6716 -0.0015
  320MOL0     C42157   4.401  10.895   8.397  0.3833 -0.0169  0.0632
  320MOL0     N42158   5.067  11.377   8.357  0.1649  0.2161  0.3633
  320MOL0     N42159   5.136  11.487   8.350 -0.0375 -0.4287 -0.6488
  320MOL0     C42160   6.008  11.286   7.934 -0.6604  0.1767  0.5028
  320MOL0     C42161   6.104  11.281   7.836 -0.1659 -0.6923 -0.0324
  320MOL0     C42162   6.501  11.213   7.640  0.1407  0.3337  0.3784
  320MOL0     C42163   6.553  11.132   7.540  0.0620  0.7969 -0.2714
  320MOL0     C42164   6.689  11.133   7.494  0.1821  0.5593  0.6049
  320MOL0     C42165   6.775  11.232   7.542 -0.6195 -0.3642 -0.4847
  320MOL0     O42166   6.908  11.242   7.514  0.4571 -0.1634 -0.3538
  320MOL0     C42167   6.936  11.209   7.376  0.1174  0.1597 -0.0579
  320MOL0     C42168   7.073  11.272   7.339 -0.4078  0.1512 -0.4102
  320MOL0     C42169   7.073  11.422   7.310 -0.4982 -0.0994 -0.3833
  320MOL0     C42170   7.018  11.468   7.183  0.3457  0.0995  1.1178
  320MOL0     C42171   7.107  11.439   7.071 -0.9700 -0.2349  0.5815
  320MOL0     C42172   7.144  11.407   6.962 -0.4679 -0.5832  0.1235
  320MOL0     C42173   6.720  11.321   7.635  0.4689 -0.6818  0.2809
  320MOL0     C42174   6.587  11.309   7.686 -0.1584 -0.0927  0.3128
  320MOL0     H42175   6.350  11.145   8.020  0.1782  2.2100  0.1405
  320MOL0     H42176   6.174  11.149   8.197  0.9698 -0.4477  0.0903
  320MOL0     H42177   5.761  11.308   8.105  1.6995 -2.3409  0.4386
  320MOL0     H42178   5.849  11.453   8.072 -2.3049 -0.6967  0.3512
  320MOL0     H42179   5.884  11.484   8.319 -0.9196  0.3100  1.0720
  320MOL0     H42180   5.766  11.366   8.358 -0.6247 -0.7710 -2.0897
  320MOL0     H42181   5.710  11.624   8.194 -2.0693  0.3654 -0.0239
  320MOL0     H42182   5.657  11.589   8.358  0.9721  1.3607 -1.1605
  320MOL0     H42183   5.562  11.439   8.114  0.2157 -1.4899  0.2598
  320MOL0     H42184   5.499  11.417   8.285 -1.9657  1.4425  0.3571
  320MOL0     H42185   5.494  11.687   8.155  2.0238 -1.0068  0.3295
  320MOL0     H42186   5.376  11.611   8.276  1.2807  2.3608  0.0897
  320MOL0     H42187   5.300  11.448   8.093 -0.2565 -1.4343  0.3865
  320MOL0     H42188   5.391  11.557   7.975  0.6477 -2.6467  0.6336
  320MOL0     H42189   5.240  11.725   7.992 -3.2902  1.2930 -0.4099
  320MOL0     H42190   5.147  11.569   7.997  2.4762 -2.8982 -0.3601
  320MOL0     H42191   5.051  11.745   8.164  0.3324  0.8697 -0.4206
  320MOL0     H42192   5.203  11.725   8.244 -3.6572 -0.6831  3.7900
  320MOL0     H42193   4.897  11.514   8.115  2.3894  2.0913 -1.9013
  320MOL0     H42194   4.767  11.318   8.211  0.8621  2.6617 -0.7407
  320MOL0     H42195   4.833  11.248   8.363  1.8218  2.2711  0.8491
  320MOL0     H42196   5.012  11.131   8.185  0.1740  0.5558 -0.1593
  320MOL0     H42197   4.898  11.194   8.071 -0.9344 -0.4326 -0.7294
  320MOL0     H42198   4.838  10.949   8.132 -1.2252 -1.4522 -0.2702
  320MOL0     H42199   4.857  10.999   8.299 -3.9791  0.8050  1.2465
  320MOL0     H42200   4.629  11.047   8.108  1.1927  0.2571 -0.5205
  320MOL0     H42201   4.646  11.138   8.267  4.3580  2.4572 -1.9124
  320MOL0     H42202   4.435  11.056   8.102 -3.0014  2.6837 -0.7336
  320MOL0     H42203   4.195  11.085   8.137 -4.0582 -0.7310  0.7926
  320MOL0     H42204   3.815  11.103   8.083 -2.7434  0.6840  0.2659
  320MOL0     H42205   3.558  11.073   8.074 -0.0686  0.2283 -0.5066
  320MOL0     H42206   3.404  10.676   8.151  3.1369  1.1337  0.0882
  320MOL0     H42207   3.436  10.760   7.993  1.2518  1.3060  0.3685
  320MOL0     H42208   3.189  10.810   8.172  0.0107  3.1640 -0.5118
  320MOL0     H42209   3.180  10.682   8.049 -0.5987  0.2642 -2.2077
  320MOL0     H42210   3.256  10.815   7.868 -1.7206 -1.7525 -1.7417
  320MOL0     H42211   3.250  10.962   7.977 -0.1259 -0.0055  0.6027
  320MOL0     H42212   3.015  10.779   7.880  0.1580  0.2057  0.6331
  320MOL0     H42213   2.999  10.870   8.027 -2.2568  0.2637 -1.7831
  320MOL0     H42214   3.076  10.995   7.769  1.3742  0.5873  0.7161
  320MOL0     H42215   3.056  11.074   7.919 -0.2672 -2.0246 -0.2335
  320MOL0     H42216   2.839  11.051   7.937  2.6473  2.1709  0.2403
  320MOL0     H42217   2.829  10.895   7.853  0.2756 -0.1100  2.1684
  320MOL0     H42218   2.837  11.181   7.752  1.9466 -0.2541  1.0159
  320MOL0     H42219   2.860  11.044   7.643 -1.1440 -0.4987 -0.6721
  320MOL0     H42220   2.611  10.969   7.720  0.1450  0.1953  1.1243
  320MOL0     H42221   2.623  11.133   7.639 -0.2896  0.1784 -0.9301
  320MOL0     H42222   3.596  10.680   8.241 -0.2066 -1.3948 -1.7029
  320MOL0     H42223   3.844  10.726   8.268  1.6116  2.4613  0.5872
  320MOL0     H42224   4.221  10.864   8.508 -2.1998 -0.6700 -0.6436
  320MOL0     H42225   4.451  10.835   8.472  1.2195  0.2071 -0.3075
  320MOL0     H42226   5.912  11.328   7.906 -0.9540 -0.7088  0.1350
  320MOL0     H42227   6.093  11.322   7.736  0.9173  1.5454  0.6841
  320MOL0     H42228   6.488  11.062   7.489 -3.4390  1.1758  3.2385
  320MOL0     H42229   6.734  11.063   7.425  0.7372  0.1583  1.3499
  320MOL0     H42230   6.863  11.243   7.303  1.8999  1.7179 -1.2393
  320MOL0     H42231   6.947  11.103   7.351  1.4875  0.2346  0.0989
  320MOL0     H42232   7.142  11.255   7.422  1.5231 -1.0204 -2.1605
  320MOL0     H42233   7.125  11.225   7.255  1.9518 -0.8104  1.4848
  320MOL0     H42234   7.177  11.454   7.322 -0.5967 -0.7009  3.4865
  320MOL0     H42235   7.026  11.475   7.394 -0.4844  1.3152 -1.2289
  320MOL0     H42236   6.925  11.417   7.156  0.2271  1.7225 -1.9525
  320MOL0     H42237   6.995  11.575   7.186 -1.6435 -0.1876 -1.2355
  320MOL0     H42238   7.171  11.362   6.869  3.5118 -0.1942  0.9240
  320MOL0     H42239   6.784  11.399   7.676 -1.5227  0.2764  1.7574
  320MOL0     H42240   6.553  11.372   7.769 -0.0875  1.0558 -0.5068
  321MOL0     O42241   6.237   5.845  10.872 -0.2282 -0.0263 -0.1836
  321MOL0     C42242   6.135   5.843  10.799 -0.6089 -0.5290  0.2506
  321MOL0     O42243   6.096   5.941  10.724  0.0030 -0.6626 -0.5765
  321MOL0     C42244   6.154   6.063  10.746 -0.3389 -0.0167 -0.3190
  321MOL0     C42245   6.212   6.129  10.647  0.3662  0.6543 -0.2686
  321MOL0     C42246   6.258   6.261  10.662  0.0852  0.8510  0.0724
  321MOL0     C42247   6.272   6.319  10.791 -0.4788 -0.1015  1.2654
  321MOL0     O42248   6.324   6.445  10.825 -0.0063  0.5787  0.6081
  321MOL0     C42249   6.419   6.495  10.727 -0.5088  0.0007 -0.4170
  321MOL0     C42250   6.497   6.620  10.781 -0.8860  0.1868  0.1004
  321MOL0     C42251   6.402   6.719  10.835  0.9690 -0.7340  0.6854
  321MOL0     C42252   6.449   6.858  10.843 -0.6409 -0.6699  0.0186
  321MOL0     C42253   6.340   6.958  10.873 -0.2992  0.7702 -0.0748
  321MOL0     C42254   6.392   7.105  10.855  0.2862 -0.3829 -0.1083
  321MOL0     C42255   6.273   7.203  10.890 -0.9795  0.7167  0.3057
  321MOL0     C42256   6.314   7.299  10.997 -1.4996 -1.7813  0.5987
  321MOL0     N42257   6.254   7.431  11.011 -0.4585 -0.6409 -0.3552
  321MOL0     C42258   6.131   7.462  11.051  0.6975  0.4462  0.8555
  321MOL0     C42259   6.115   7.597  11.028  0.0618  0.2290  0.1133
  321MOL0     C42260   5.982   7.663  11.060 -0.5680 -0.5875 -0.3960
  321MOL0     C42261   5.963   7.732  11.195 -1.0258  0.4797  0.3855
  321MOL0     C42262   5.992   7.641  11.323  0.5820  0.1950  0.5886
  321MOL0     C42263   6.139   7.592  11.343  0.6686 -0.9182 -0.2640
  321MOL0     O42264   6.195   7.632  11.471  0.4685 -0.0516  0.0063
  321MOL0     C42265   6.226   7.769  11.474 -0.1683  0.6491  0.2099
  321MOL0     C42266   6.193   7.839  11.589 -0.3396 -0.7097 -0.3263
  321MOL0     C42267   6.221   7.983  11.593  0.4558  0.3892  0.8930
  321MOL0     C42268   6.275   8.052  11.483  0.4148 -0.0340  0.9325
  321MOL0     C42269   6.281   8.190  11.489  0.1868  0.5030  0.5000
  321MOL0     O42270   6.210   8.247  11.593  0.6946 -0.2805  0.6729
  321MOL0     C42271   6.162   8.374  11.567  0.1908 -0.7977 -0.0477
  321MOL0     C42272   6.247   8.480  11.604 -0.2519  1.6198  0.3664
  321MOL0     C42273   6.199   8.618  11.577  0.3241 -1.1938  0.9515
  321MOL0     C42274   6.082   8.643  11.493  1.3320  0.5116  0.5456
  321MOL0     O42275   6.029   8.771  11.496  0.3471  0.0108 -0.3403
  321MOL0     C42276   5.895   8.795  11.436 -0.7356  0.2724  0.1691
  321MOL0     C42277   5.856   8.932  11.479  0.5508 -0.5111 -0.8632
  321MOL0     C42278   5.708   8.965  11.432  0.1711 -0.9503 -0.6428
  321MOL0     C42279   5.664   9.113  11.473  0.0003  0.5780 -0.1682
  321MOL0     C42280   5.582   9.173  11.363  0.0127 -0.0916  0.4234
  321MOL0     C42281   5.555   9.318  11.376  0.0736  0.2984 -0.3071
  321MOL0     C42282   5.528   9.387  11.515 -0.8626  0.1392  0.8596
  321MOL0     C42283   5.434   9.503  11.494 -0.4887 -0.3442 -1.1542
  321MOL0    Cl42284   5.274   9.433  11.485 -0.2613  0.2089 -0.1963
  321MOL0     C42285   6.001   8.532  11.452  0.6189  0.3241  0.3338
  321MOL0     C42286   6.036   8.403  11.507  0.6171  0.5485  1.2080
  321MOL0     O42287   6.363   8.248  11.408 -0.0572  0.3447  0.4844
  321MOL0     C42288   6.328   7.974  11.375 -0.2688 -0.1554  0.5194
  321MOL0     C42289   6.308   7.834  11.379  0.4482  0.6071 -0.5969
  321MOL0     N42290   6.234   7.648  10.978 -0.2068 -0.6544  0.5481
  321MOL0     N42291   6.306   7.545  10.960 -0.5545  0.5614  0.0591
  321MOL0     C42292   6.214   6.251  10.904 -0.6435  1.0183 -0.6655
  321MOL0     C42293   6.167   6.123  10.877  0.6036  0.0592 -0.3402
  321MOL0     C42294   6.052   5.713  10.781 -0.3143  0.1904 -0.3867
  321MOL0     C42295   5.968   5.696  10.679  0.5657 -0.7989  0.7282
  321MOL0     C42296   5.887   5.583  10.669  0.3050 -1.2331  0.8657
  321MOL0     C42297   5.903   5.482  10.772  0.2564  0.7636  0.5041
  321MOL0     O42298   5.833   5.364  10.771  0.5122 -0.4968  0.3890
  321MOL0     C42299   5.715   5.347  10.690  0.5846 -0.0866  0.2292
  321MOL0     C42300   5.631   5.244  10.765 -0.2140 -0.3950  0.2100
  321MOL0     C42301   5.520   5.191  10.677 -0.3629  0.7263  0.0605
  321MOL0     C42302   5.446   5.055  10.713  0.8457  0.4834 -0.2829
  321MOL0     C42303   5.368   5.036  10.596  0.3148 -0.3959 -0.5578
  321MOL0     C42304   5.314   5.019  10.494  1.0197  0.3624 -0.4141
  321MOL0     C42305   5.991   5.508  10.878  1.0507  0.7938 -0.3373
  321MOL0     C42306   6.065   5.623  10.884 -0.1969  0.2022  1.0277
  321MOL0     H42307   6.210   6.077  10.552 -2.2198  1.7023 -0.8654
  321MOL0     H42308   6.286   6.327  10.580 -1.1652 -0.1635 -1.2236
  321MOL0     H42309   6.363   6.517  10.635  0.0251  2.0107 -0.3089
  321MOL0     H42310   6.487   6.416  10.692 -0.0114  0.0197  0.4784
  321MOL0     H42311   6.559   6.651  10.696 -1.4169  0.7727 -0.0848
  321MOL0     H42312   6.564   6.593  10.863 -1.1322  0.0475  0.2600
  321MOL0     H42313   6.363   6.692  10.933 -4.5461  1.7460 -0.4292
  321MOL0     H42314   6.321   6.724  10.761 -0.2756 -1.0729  1.9853
  321MOL0     H42315   6.533   6.860  10.914  1.7049 -0.5286 -2.6199
  321MOL0     H42316   6.500   6.895  10.754  1.4750 -1.3615  0.8804
  321MOL0     H42317   6.302   6.946  10.975 -0.0588 -3.3104 -0.2779
  321MOL0     H42318   6.264   6.932  10.799  1.8006  1.2801 -2.5678
  321MOL0     H42319   6.414   7.112  10.748  1.5266  1.0272  0.1932
  321MOL0     H42320   6.479   7.125  10.919 -0.0788  2.2132 -0.3204
  321MOL0     H42321   6.247   7.257  10.798 -0.8745  1.1644  0.5393
  321MOL0     H42322   6.188   7.140  10.915 -0.9172  0.0155 -1.1210
  321MOL0     H42323   6.419   7.318  10.974 -1.9553 -0.1074 -0.2541
  321MOL0     H42324   6.318   7.250  11.095 -2.4108 -1.2923  0.8891
  321MOL0     H42325   6.043   7.400  11.068 -0.3672  1.7074  0.1618
  321MOL0     H42326   5.905   7.588  11.040  2.0307 -3.1157 -1.6252
  321MOL0     H42327   5.975   7.750  10.994  1.5931 -0.5591 -0.6516
  321MOL0     H42328   5.860   7.768  11.207 -1.7524 -0.5877 -2.0862
  321MOL0     H42329   6.039   7.810  11.205  1.5869 -1.9371  0.5776
  321MOL0     H42330   5.964   7.699  11.411 -2.0263 -2.2037  1.4706
  321MOL0     H42331   5.923   7.556  11.322  0.9391 -0.1038 -0.6086
  321MOL0     H42332   6.192   7.630  11.255 -1.6183  3.9654  0.1398
  321MOL0     H42333   6.144   7.483  11.338  0.6288 -0.9307 -0.0254
  321MOL0     H42334   6.156   7.789  11.678  0.2575 -2.3156 -0.9426
  321MOL0     H42335   6.185   8.023  11.687  0.9215  0.6784  0.9503
  321MOL0     H42336   6.349   8.469  11.641  0.1928  1.5180 -0.8346
  321MOL0     H42337   6.268   8.701  11.588 -1.7644  1.1933 -2.1475
  321MOL0     H42338   5.821   8.720  11.463 -0.2648 -0.3713 -0.2884
  321MOL0     H42339   5.907   8.789  11.327  2.1740 -1.2921  0.4646
  321MOL0     H42340   5.933   9.002  11.447  1.3567 -1.7322 -1.6656
  321MOL0     H42341   5.853   8.936  11.589  0.0477 -4.1374 -0.6285
  321MOL0     H42342   5.636   8.899  11.480 -0.9137  0.7873  0.2436
  321MOL0     H42343   5.688   8.950  11.325 -2.3241 -1.1543 -0.2123
  321MOL0     H42344   5.615   9.117  11.571  2.7092  0.9959  1.2582
  321MOL0     H42345   5.747   9.182  11.491 -1.3361  1.8685  1.4224
  321MOL0     H42346   5.490   9.114  11.364 -1.1599  1.5758 -0.9235
  321MOL0     H42347   5.630   9.159  11.265 -1.8349 -0.5165 -0.4725
  321MOL0     H42348   5.485   9.348  11.297  0.4540  0.6241 -0.5231
  321MOL0     H42349   5.649   9.362  11.342  0.0650 -0.3711 -1.2197
  321MOL0     H42350   5.492   9.315  11.588  1.4496 -1.4265  0.5510
  321MOL0     H42351   5.624   9.420  11.555 -0.1372 -0.4654 -0.3136
  321MOL0     H42352   5.464   9.556  11.403 -0.1575  1.4870 -0.0150
  321MOL0     H42353   5.439   9.577  11.574 -0.9019 -0.1313 -1.3254
  321MOL0     H42354   5.916   8.534  11.385  1.3968 -0.6950 -0.7456
  321MOL0     H42355   5.972   8.323  11.472 -0.7562  2.4815 -1.0279
  321MOL0     H42356   6.366   8.028  11.290 -1.1819  2.9899  1.9665
  321MOL0     H42357   6.348   7.777  11.296  4.1865 -1.1650  2.1628
  321MOL0     H42358   6.195   6.305  10.996  1.0346  0.0077  0.3094
  321MOL0     H42359   6.121   6.068  10.959 -1.3656  2.1254  0.0541
  321MOL0     H42360   5.961   5.779  10.609 -0.8043  0.4433  2.2368
  321MOL0     H42361   5.820   5.560  10.587  0.8667  2.1446 -0.7277
  321MOL0     H42362   5.761   5.306  10.600 -0.8132 -3.9081  1.0739
  321MOL0     H42363   5.656   5.435  10.664 -2.0187 -1.6518  0.4749
  321MOL0     H42364   5.694   5.164  10.804  1.4184  1.0001  0.5658
  321MOL0     H42365   5.590   5.296  10.852 -1.2773 -0.9992  0.0942
  321MOL0     H42366   5.561   5.186  10.576  1.2293 -1.4404  0.7435
  321MOL0     H42367   5.453   5.277  10.667 -0.3204  0.7008 -0.5060
  321MOL0     H42368   5.514   4.970  10.722  2.1127  1.4455 -0.5168
  321MOL0     H42369   5.384   5.066  10.803 -1.7372  2.0947 -2.1325
  321MOL0     H42370   5.288   4.993  10.393  1.3998 -1.8993  0.0112
  321MOL0     H42371   6.009   5.432  10.953  2.9689 -1.0669 -2.4949
  321MOL0     H42372   6.123   5.648  10.972 -0.0048 -0.0167  0.9626
  322MOL0     O42373   6.739   4.476   2.253  0.1931 -0.1244  0.2546
  322MOL0     C42374   6.798   4.380   2.298 -0.2405 -0.5555 -0.8697
  322MOL0     O42375   6.906   4.391   2.375 -0.5958  0.0457 -0.0346
  322MOL0     C42376   6.954   4.509   2.414  0.0050  0.4686 -0.1284
  322MOL0     C42377   6.866   4.592   2.498 -1.1291  0.0710  0.0866
  322MOL0     C42378   6.915   4.699   2.579 -0.4805  0.0759 -0.1725
  322MOL0     C42379   7.057   4.723   2.564 -0.3756  0.1813 -0.0964
  322MOL0     O42380   7.098   4.834   2.632  0.3704  0.0771  1.3016
  322MOL0     C42381   7.152   4.933   2.538  0.4053 -0.7490  0.8204
  322MOL0     C42382   7.240   5.030   2.610 -0.0274  0.1994  0.2400
  322MOL0     C42383   7.153   5.145   2.661  0.3217 -0.3207 -0.9498
  322MOL0     C42384   7.231   5.255   2.724  0.0499  0.0478  0.2021
  322MOL0     C42385   7.307   5.213   2.846 -0.3893  0.0378  0.2498
  322MOL0     C42386   7.365   5.344   2.905  0.3919  0.4312  1.0499
  322MOL0     C42387   7.439   5.301   3.036  1.0884 -0.6006  0.8096
  322MOL0     C42388   7.498   5.426   3.105 -0.4180 -0.3823  0.4221
  322MOL0     N42389   7.386   5.528   3.138 -0.1199  0.3753 -0.4047
  322MOL0     C42390   7.276   5.502   3.215  0.1324 -0.0518  0.1699
  322MOL0     C42391   7.188   5.603   3.197 -0.0518  0.4632 -0.0585
  322MOL0     C42392   7.049   5.601   3.256  0.8222  0.3149 -0.9432
  322MOL0     C42393   6.996   5.738   3.291 -0.1723 -0.4247 -0.9729
  322MOL0     C42394   6.933   5.741   3.426  0.4195 -1.4573  0.3800
  322MOL0     C42395   6.921   5.885   3.474  0.5016 -0.1370 -0.4947
  322MOL0     O42396   6.867   5.881   3.610  0.8905 -0.1093 -0.3511
  322MOL0     C42397   6.830   6.005   3.657 -0.3110  0.0703 -0.0577
  322MOL0     C42398   6.810   6.002   3.799  0.2944 -0.6396 -0.7459
  322MOL0     C42399   6.788   6.119   3.873 -0.4056 -0.1946  0.7840
  322MOL0     C42400   6.792   6.243   3.811 -0.2232 -0.4400 -0.2600
  322MOL0     C42401   6.773   6.370   3.886  0.0518  1.3126  0.0754
  322MOL0     O42402   6.744   6.476   3.802 -1.1770  0.0694 -0.8376
  322MOL0     C42403   6.714   6.600   3.845 -0.1137  0.1356  0.0643
  322MOL0     C42404   6.700   6.686   3.734 -0.4755  0.0514  0.2445
  322MOL0     C42405   6.673   6.822   3.755  0.1012  0.3234  0.6633
  322MOL0     C42406   6.641   6.880   3.881 -0.0266 -0.3248 -0.3527
  322MOL0     O42407   6.613   7.015   3.881  0.8598 -0.4050 -0.6889
  322MOL0     C42408   6.701   7.099   3.807 -0.3277  0.5201 -0.1635
  322MOL0     C42409   6.663   7.243   3.833 -0.2466 -0.1957  0.3793
  322MOL0     C42410   6.520   7.270   3.787 -0.9440 -0.1829  0.7368
  322MOL0     C42411   6.431   7.284   3.905  0.3397 -0.3824 -0.4548
  322MOL0     C42412   6.314   7.379   3.873 -0.3890  0.7869  0.3767
  322MOL0     C42413   6.234   7.402   3.995  1.2679 -0.5988  0.3098
  322MOL0     C42414   6.118   7.495   3.961 -0.1722 -0.2443  0.4598
  322MOL0     C42415   6.022   7.506   4.083  0.0021  0.7702 -0.0347
  322MOL0    Cl42416   5.933   7.660   4.066 -0.9026  0.1770 -0.4588
  322MOL0     C42417   6.669   6.796   3.992 -0.0418 -0.2936 -0.3622
  322MOL0     C42418   6.693   6.651   3.977 -0.5560  0.2469  0.1088
  322MOL0     O42419   6.772   6.370   4.005  0.1318 -0.7436  0.3957
  322MOL0     C42420   6.815   6.246   3.680 -0.2413  0.8174  0.1363
  322MOL0     C42421   6.822   6.129   3.595  0.5541  0.3006 -0.0761
  322MOL0     N42422   7.245   5.701   3.119  0.1578 -0.2015 -0.1121
  322MOL0     N42423   7.367   5.660   3.100  0.0159  0.2630  0.6787
  322MOL0     C42424   7.138   4.653   2.472  0.6926 -0.3801 -0.7684
  322MOL0     C42425   7.090   4.542   2.401  0.7090  0.4885 -0.3536
  322MOL0     C42426   6.741   4.244   2.279  0.1122 -0.6158 -0.9068
  322MOL0     C42427   6.646   4.210   2.183 -0.4561  1.2128 -0.1356
  322MOL0     C42428   6.626   4.070   2.160 -0.0429  0.0576 -0.9608
  322MOL0     C42429   6.690   3.968   2.234 -0.4505  1.3972  0.8870
  322MOL0     O42430   6.674   3.843   2.176  0.1302 -0.6004 -0.7911
  322MOL0     C42431   6.727   3.722   2.234 -0.1028 -0.1712 -1.1179
  322MOL0     C42432   6.654   3.685   2.361  0.1552  0.3669 -0.4604
  322MOL0     C42433   6.727   3.551   2.423  0.2244 -0.1124 -0.7338
  322MOL0     C42434   6.865   3.573   2.472 -0.1594  0.4340  0.3757
  322MOL0     C42435   6.876   3.671   2.586  0.0372 -0.6017  0.0943
  322MOL0     C42436   6.886   3.752   2.673  0.0847 -0.8169  0.0436
  322MOL0     C42437   6.774   3.999   2.342  0.2821 -0.3840 -0.0699
  322MOL0     C42438   6.808   4.133   2.361 -0.1890  0.1207  0.4267
  322MOL0     H42439   6.760   4.569   2.495 -1.3348  0.6978  1.5132
  322MOL0     H42440   6.851   4.762   2.640 -0.5290  0.4696 -0.6241
  322MOL0     H42441   7.060   4.978   2.500  0.0307 -0.9258  1.5051
  322MOL0     H42442   7.214   4.910   2.451  0.1907 -0.1321  0.4974
  322MOL0     H42443   7.318   5.069   2.544 -0.5886  2.1715  0.6842
  322MOL0     H42444   7.291   4.978   2.692 -0.0225 -0.2679 -0.0500
  322MOL0     H42445   7.089   5.105   2.739 -0.9762  0.6815 -1.4648
  322MOL0     H42446   7.080   5.186   2.590 -1.7778 -3.0022 -0.5028
  322MOL0     H42447   7.294   5.288   2.641 -0.6332 -0.1447 -0.4040
  322MOL0     H42448   7.174   5.346   2.743  1.1204  0.8284 -0.2501
  322MOL0     H42449   7.385   5.140   2.821 -2.0247 -1.7130  0.0406
  322MOL0     H42450   7.251   5.151   2.917  2.6885 -0.1215  2.7515
  322MOL0     H42451   7.293   5.426   2.904  0.5881  0.7299 -2.4025
  322MOL0     H42452   7.438   5.376   2.830 -2.2920 -0.1642 -2.0725
  322MOL0     H42453   7.364   5.256   3.102  2.1759 -1.9036  1.2060
  322MOL0     H42454   7.517   5.231   3.005  0.0108 -1.0798 -0.9568
  322MOL0     H42455   7.572   5.468   3.036  0.1929 -0.1863  1.1877
  322MOL0     H42456   7.540   5.388   3.199  0.4432 -1.5311 -0.3916
  322MOL0     H42457   7.257   5.406   3.261  0.4143 -1.3570 -2.2934
  322MOL0     H42458   7.058   5.546   3.351 -0.0042  2.4537  0.4611
  322MOL0     H42459   6.973   5.541   3.206 -0.3318  0.5507  0.4398
  322MOL0     H42460   6.933   5.777   3.210 -0.7107 -0.6749 -0.6762
  322MOL0     H42461   7.077   5.812   3.284 -2.0124  1.7366 -0.5311
  322MOL0     H42462   6.826   5.718   3.427 -0.6152  2.5189  0.9406
  322MOL0     H42463   6.987   5.678   3.498  1.9703 -0.2990  0.2971
  322MOL0     H42464   6.852   5.926   3.400 -1.3792 -0.8033  0.8291
  322MOL0     H42465   7.014   5.942   3.480  0.1024  0.8269 -2.5793
  322MOL0     H42466   6.817   5.908   3.852 -1.0558 -0.1094  0.4250
  322MOL0     H42467   6.784   6.114   3.982 -0.3303 -1.1140  0.7464
  322MOL0     H42468   6.715   6.672   3.628 -5.1580 -0.2017 -0.6217
  322MOL0     H42469   6.678   6.895   3.675  0.2699 -1.8613 -1.4198
  322MOL0     H42470   6.686   7.086   3.699 -5.0021  1.1171  0.1974
  322MOL0     H42471   6.804   7.081   3.838 -0.9710 -0.6418  1.4204
  322MOL0     H42472   6.730   7.308   3.776 -2.5587  1.8679 -0.1846
  322MOL0     H42473   6.674   7.270   3.938 -0.9278 -1.2572  0.7395
  322MOL0     H42474   6.483   7.192   3.720 -1.1865  0.4029  0.1843
  322MOL0     H42475   6.534   7.360   3.727 -0.6559 -0.0090  1.0617
  322MOL0     H42476   6.412   7.179   3.932  2.3696 -1.3525 -2.4472
  322MOL0     H42477   6.485   7.334   3.986 -1.4692 -0.7113  1.0266
  322MOL0     H42478   6.249   7.343   3.792 -2.3543  0.2178  2.0988
  322MOL0     H42479   6.355   7.477   3.848 -2.5818  1.3083 -1.5251
  322MOL0     H42480   6.298   7.435   4.078  1.1900 -1.7176  0.8307
  322MOL0     H42481   6.184   7.309   4.024 -1.0128  0.8031  1.1279
  322MOL0     H42482   6.138   7.602   3.951 -1.6246  0.2047  1.8460
  322MOL0     H42483   6.063   7.445   3.880  1.6817 -0.6361 -0.6086
  322MOL0     H42484   6.070   7.506   4.181 -1.1537 -0.2910  0.5703
  322MOL0     H42485   5.955   7.419   4.079  1.4501 -0.3988  0.1015
  322MOL0     H42486   6.665   6.836   4.093 -1.0653 -0.7434 -0.2188
  322MOL0     H42487   6.719   6.585   4.059  1.3472 -0.1351 -0.7459
  322MOL0     H42488   6.800   6.341   3.629 -0.0773  0.9117  0.2630
  322MOL0     H42489   6.831   6.143   3.488  2.5327  2.1296  0.2657
  322MOL0     H42490   7.241   4.687   2.467  0.3749  0.8574  0.1873
  322MOL0     H42491   7.147   4.474   2.338 -0.9630  0.0229 -1.4429
  322MOL0     H42492   6.594   4.287   2.127  0.6913  2.1671  0.0630
  322MOL0     H42493   6.551   4.033   2.090 -0.6845 -0.9402  0.2132
  322MOL0     H42494   6.836   3.725   2.247 -0.0433 -2.0417 -1.0010
  322MOL0     H42495   6.705   3.637   2.169  4.6601 -3.4741  0.9967
  322MOL0     H42496   6.658   3.763   2.438 -0.3266  0.9961 -1.0514
  322MOL0     H42497   6.548   3.667   2.342  0.2974  0.3565 -1.2604
  322MOL0     H42498   6.721   3.472   2.347  1.2555  2.2366 -3.4578
  322MOL0     H42499   6.658   3.524   2.503  1.4244  0.2335  0.4545
  322MOL0     H42500   6.905   3.474   2.495  2.4477  0.4855 -3.1666
  322MOL0     H42501   6.931   3.607   2.391  0.6912 -0.5013  0.6535
  322MOL0     H42502   6.873   3.828   2.748 -2.0861 -1.5566  0.4791
  322MOL0     H42503   6.824   3.923   2.401 -1.5509 -0.7820  1.0719
  322MOL0     H42504   6.881   4.154   2.438  0.2607 -0.1920  0.0951
  323MOL0     O42505   2.495  11.077   4.652 -0.0760 -0.9284  0.5956
  323MOL0     C42506   2.426  10.978   4.671 -0.3494  0.8452  0.7080
  323MOL0     O42507   2.463  10.865   4.737  0.3234 -0.3765 -0.5447
  323MOL0     C42508   2.575  10.875   4.818 -0.1623  0.5617 -0.5368
  323MOL0     C42509   2.606  10.980   4.914 -0.4399  0.1001  0.4161
  323MOL0     C42510   2.715  10.957   5.001  0.0971 -0.0168 -0.4032
  323MOL0     C42511   2.804  10.850   4.997  0.0404  0.0853  0.2724
  323MOL0     O42512   2.901  10.846   5.087 -0.0258  0.4607 -0.1588
  323MOL0     C42513   2.972  10.730   5.096 -0.1741  1.2444  0.9756
  323MOL0     C42514   3.075  10.741   5.204  0.2390 -0.3595  1.0013
  323MOL0     C42515   3.062  10.624   5.309 -0.6749  0.0704  0.6687
  323MOL0     C42516   3.156  10.632   5.440  0.8183 -0.2933  0.0863
  323MOL0     C42517   3.309  10.601   5.432  0.6628  0.0507 -0.3584
  323MOL0     C42518   3.357  10.485   5.350  0.1984  0.4624 -0.1160
  323MOL0     C42519   3.304  10.354   5.407 -0.4728 -0.7943  0.0215
  323MOL0     C42520   3.345  10.237   5.311  0.6327  0.5609 -0.2673
  323MOL0     N42521   3.263  10.237   5.192 -0.0448  0.3606 -0.1693
  323MOL0     C42522   3.123  10.232   5.184  0.5203  0.4963 -0.9067
  323MOL0     C42523   3.101  10.174   5.061 -0.4406 -0.2350 -0.6117
  323MOL0     C42524   2.972  10.125   5.011  0.0291  0.3110 -0.1416
  323MOL0     C42525   2.896  10.237   4.937 -0.7409 -1.0067  0.6442
  323MOL0     C42526   2.746  10.205   4.918 -0.5466 -0.2308  0.6755
  323MOL0     C42527   2.695  10.207   4.769  0.5681  0.3121 -0.0102
  323MOL0     O42528   2.769  10.115   4.691 -0.0327  0.4726  0.2129
  323MOL0     C42529   2.717  10.093   4.568 -0.1071  0.1492 -0.3725
  323MOL0     C42530   2.590  10.036   4.552 -0.4126  1.0942  0.0637
  323MOL0     C42531   2.540  10.026   4.421  0.3520  0.5360  0.1062
  323MOL0     C42532   2.605  10.075   4.308 -0.4636  0.8438 -0.0110
  323MOL0     C42533   2.540  10.052   4.183 -0.2588  0.4114 -0.1142
  323MOL0     O42534   2.408  10.059   4.179  0.2739 -1.0630 -0.3336
  323MOL0     C42535   2.344  10.059   4.062  0.6484  0.3967  0.6675
  323MOL0     C42536   2.351   9.971   3.948 -0.6616  0.0637  0.5182
  323MOL0     C42537   2.293  10.000   3.822 -0.9098  0.4060  0.2623
  323MOL0     C42538   2.208  10.112   3.811 -0.7839  0.1028  0.4703
  323MOL0     O42539   2.155  10.131   3.688 -0.3860  0.7653 -0.1058
  323MOL0     C42540   2.014  10.174   3.686  0.0336  0.1316  0.7304
  323MOL0     C42541   1.966  10.174   3.544 -0.6796 -0.3309  0.1712
  323MOL0     C42542   2.061  10.236   3.438  0.6181  0.0748  0.0626
  323MOL0     C42543   2.182  10.154   3.390 -0.1133  0.5319 -0.1065
  323MOL0     C42544   2.263  10.222   3.276  0.2452  1.1393 -0.1102
  323MOL0     C42545   2.297  10.368   3.309 -0.7936  0.2961  0.2107
  323MOL0     C42546   2.389  10.427   3.201 -0.1520  0.5136  1.0298
  323MOL0     C42547   2.316  10.497   3.080  1.1652 -0.0349 -0.1626
  323MOL0    Cl42548   2.246  10.387   2.957 -0.1057  0.1635 -0.0847
  323MOL0     C42549   2.202  10.197   3.918 -0.7794 -0.5918 -0.0097
  323MOL0     C42550   2.257  10.172   4.044  0.4273  0.1420 -0.9731
  323MOL0     O42551   2.617  10.044   4.084  0.3391  0.3298 -0.0270
  323MOL0     C42552   2.738  10.124   4.331  0.0663 -0.1190  0.7565
  323MOL0     C42553   2.785  10.147   4.460  0.2608 -0.1163  0.3593
  323MOL0     N42554   3.220  10.157   4.991 -0.0503 -0.6194 -0.1400
  323MOL0     N42555   3.314  10.196   5.072  0.6184  0.1212 -0.5831
  323MOL0     C42556   2.790  10.758   4.881  0.3517 -1.4324 -0.5115
  323MOL0     C42557   2.675  10.776   4.792 -0.4804 -0.2767 -0.3342
  323MOL0     C42558   2.297  10.975   4.610  0.1035 -0.1594  0.8967
  323MOL0     C42559   2.222  10.858   4.614 -0.0078 -0.5135 -1.2976
  323MOL0     C42560   2.094  10.863   4.555  0.7276 -0.2891  0.4049
  323MOL0     C42561   2.050  10.981   4.479  0.2150 -0.7356  0.6468
  323MOL0     O42562   1.938  10.964   4.397  0.5788 -0.3917  1.0044
  323MOL0     C42563   1.877  11.079   4.342  0.6917  0.4048  0.8879
  323MOL0     C42564   1.737  11.045   4.274 -0.3505  0.2751 -1.0121
  323MOL0     C42565   1.669  11.168   4.216  0.1072 -1.0241 -0.1744
  323MOL0     C42566   1.560  11.226   4.312 -0.0684 -0.1566  0.4460
  323MOL0     C42567   1.522  11.362   4.281 -0.5812 -0.3048  0.1301
  323MOL0     C42568   1.466  11.468   4.247  0.5476 -0.4394  0.3681
  323MOL0     C42569   2.130  11.099   4.480  0.1075  0.0059  0.6035
  323MOL0     C42570   2.260  11.089   4.530 -0.3037 -1.0434  0.0326
  323MOL0     H42571   2.541  11.068   4.912 -2.1263 -1.0581 -2.1295
  323MOL0     H42572   2.735  11.018   5.089  0.4450 -2.3438  1.2537
  323MOL0     H42573   3.031  10.701   5.008 -0.1467  1.4267  0.9343
  323MOL0     H42574   2.909  10.643   5.120 -0.1915  1.6521  2.4982
  323MOL0     H42575   3.049  10.833   5.256  1.7075  0.9380 -0.4428
  323MOL0     H42576   3.175  10.758   5.163 -0.1454  1.5524  0.7468
  323MOL0     H42577   3.073  10.525   5.263 -1.2631 -0.7201  2.1496
  323MOL0     H42578   2.963  10.621   5.356  0.2692  0.3357  2.7941
  323MOL0     H42579   3.160  10.737   5.469 -0.2981 -0.2374  0.0766
  323MOL0     H42580   3.109  10.566   5.514  0.9676 -0.2314  0.2371
  323MOL0     H42581   3.347  10.595   5.534 -1.4189  1.2622  0.5424
  323MOL0     H42582   3.362  10.687   5.389  0.8061 -0.2943 -0.8802
  323MOL0     H42583   3.466  10.491   5.349  0.2298  0.1652  0.6680
  323MOL0     H42584   3.312  10.484   5.250  0.1939  0.9642 -0.1233
  323MOL0     H42585   3.348  10.329   5.504  1.8100 -0.2097 -0.7983
  323MOL0     H42586   3.195  10.356   5.402 -0.4734 -1.9194 -0.8613
  323MOL0     H42587   3.329  10.137   5.353  0.7206  0.7222  0.1459
  323MOL0     H42588   3.450  10.236   5.282  0.8381  2.1050  0.3779
  323MOL0     H42589   3.045  10.263   5.252  0.2913 -1.1326 -0.3816
  323MOL0     H42590   2.909  10.106   5.099  2.5076  1.8709  2.1558
  323MOL0     H42591   2.989  10.040   4.944  2.3164  1.1955 -0.7739
  323MOL0     H42592   2.945  10.256   4.841 -0.8705 -1.9338  0.3946
  323MOL0     H42593   2.894  10.324   5.004 -0.0292 -0.7113  0.2895
  323MOL0     H42594   2.718  10.108   4.961  0.3537  0.0251  1.9247
  323MOL0     H42595   2.680  10.274   4.970 -5.3714 -0.8889 -3.8444
  323MOL0     H42596   2.697  10.307   4.725 -0.9529  0.1793 -0.4501
  323MOL0     H42597   2.588  10.183   4.766  1.1814 -2.8178 -3.0532
  323MOL0     H42598   2.551   9.985   4.640  3.0616  0.1806  1.2078
  323MOL0     H42599   2.448   9.970   4.407  0.9125 -0.2045 -0.7796
  323MOL0     H42600   2.412   9.883   3.967 -1.0930 -0.3258  0.1136
  323MOL0     H42601   2.313   9.937   3.736 -0.3640  2.6564 -1.3312
  323MOL0     H42602   2.002  10.271   3.734  1.2648  0.2598  0.8265
  323MOL0     H42603   1.954  10.100   3.740  1.2952 -1.4356  0.0999
  323MOL0     H42604   1.875  10.233   3.547 -0.0321  0.6976  3.1071
  323MOL0     H42605   1.945  10.072   3.511  3.5933 -0.4408 -3.0941
  323MOL0     H42606   2.085  10.338   3.468 -0.1944  1.4478 -3.4172
  323MOL0     H42607   1.994  10.250   3.353 -0.7569  1.0857  1.2729
  323MOL0     H42608   2.257  10.136   3.468  1.0708  2.6981 -0.6654
  323MOL0     H42609   2.155  10.052   3.360 -0.8883 -1.2759  5.5276
  323MOL0     H42610   2.203  10.219   3.185  1.9993 -1.1142 -1.2951
  323MOL0     H42611   2.349  10.159   3.252 -1.1264 -0.0084 -2.3268
  323MOL0     H42612   2.357  10.362   3.400 -3.1137  0.2229  1.8206
  323MOL0     H42613   2.206  10.425   3.331 -0.5012  0.4788  0.9831
  323MOL0     H42614   2.446  10.508   3.246 -0.6351  0.6234  1.4573
  323MOL0     H42615   2.460  10.350   3.171  0.3191  0.5240  2.0651
  323MOL0     H42616   2.383  10.570   3.034 -1.0545  0.9771 -2.0581
  323MOL0     H42617   2.224  10.537   3.126  0.8433 -2.8195  1.8700
  323MOL0     H42618   2.158  10.295   3.909  0.0082 -0.1680  0.5822
  323MOL0     H42619   2.244  10.245   4.123  2.8884 -0.1911 -0.1583
  323MOL0     H42620   2.788  10.158   4.241 -3.1161 -2.7679 -2.3615
  323MOL0     H42621   2.888  10.179   4.477  0.1209 -0.5112  2.1341
  323MOL0     H42622   2.856  10.673   4.869  1.9061 -0.4592  0.6598
  323MOL0     H42623   2.669  10.714   4.703  5.7207  0.9145 -2.0639
  323MOL0     H42624   2.247  10.787   4.692 -1.0253 -1.6758 -2.0066
  323MOL0     H42625   2.037  10.770   4.558 -2.2465  1.0374 -4.2725
  323MOL0     H42626   1.949  11.124   4.273 -1.7283  1.3121 -1.2012
  323MOL0     H42627   1.858  11.148   4.425  0.1763  0.0465  1.0762
  323MOL0     H42628   1.745  10.967   4.197 -0.5560 -2.7358  1.7994
  323MOL0     H42629   1.673  10.995   4.347  2.7412 -2.8038 -0.1055
  323MOL0     H42630   1.624  11.146   4.119  1.7101 -2.8279 -0.5832
  323MOL0     H42631   1.749  11.243   4.209  1.6219 -2.5088  0.3797
  323MOL0     H42632   1.471  11.165   4.330 -0.3549  0.2490  0.4221
  323MOL0     H42633   1.614  11.233   4.407  3.5061  0.5160 -1.4524
  323MOL0     H42634   1.408  11.547   4.204 -1.2718 -0.8450  1.9500
  323MOL0     H42635   2.111  11.175   4.405 -0.9329 -0.1405  0.7010
  323MOL0     H42636   2.326  11.175   4.522 -0.6881 -0.8774 -1.5039
  324MOL0     O42637   9.557   4.224   1.535  0.0882 -0.4986 -0.1505
  324MOL0     C42638   9.483   4.265   1.438 -0.3054 -0.7457  0.0338
  324MOL0     O42639   9.352   4.221   1.407 -0.8874 -0.1489 -0.5039
  324MOL0     C42640   9.303   4.111   1.474 -0.0646 -0.7125  0.6440
  324MOL0     C42641   9.347   3.980   1.451  0.1797 -0.2861  0.0498
  324MOL0     C42642   9.308   3.879   1.531  0.1720  0.2094  0.4585
  324MOL0     C42643   9.206   3.900   1.621  0.5934  0.8108  0.4360
  324MOL0     O42644   9.159   3.791   1.683  0.1318 -0.1918 -0.2688
  324MOL0     C42645   9.047   3.733   1.619 -0.2181  0.4259 -1.4510
  324MOL0     C42646   8.983   3.635   1.715  0.6601  0.2483 -0.0741
  324MOL0     C42647   9.045   3.493   1.703 -0.6311 -0.6458  0.6206
  324MOL0     C42648   8.954   3.381   1.748  0.1211 -0.9256  0.7306
  324MOL0     C42649   8.895   3.405   1.880  0.6432 -0.7050  0.5867
  324MOL0     C42650   8.855   3.265   1.953 -0.5238 -1.2738  1.2420
  324MOL0     C42651   8.733   3.197   1.897 -0.6019  0.5040 -0.2441
  324MOL0     C42652   8.608   3.283   1.913  0.9098  0.9828  0.2823
  324MOL0     N42653   8.475   3.216   1.878 -0.4571  0.4490  0.7170
  324MOL0     C42654   8.371   3.198   1.969 -0.8985  0.3119  0.4048
  324MOL0     C42655   8.277   3.135   1.890 -0.2015 -0.4711  0.3962
  324MOL0     C42656   8.135   3.109   1.944 -0.2367 -1.0726 -0.0190
  324MOL0     C42657   8.061   3.228   1.996 -0.5291  0.6174  0.0324
  324MOL0     C42658   7.926   3.178   2.026  1.6292 -0.2976  0.5877
  324MOL0     C42659   7.818   3.293   2.005 -0.6734  1.0382 -0.0859
  324MOL0     O42660   7.695   3.243   2.051  0.7846  0.1604 -0.9735
  324MOL0     C42661   7.584   3.327   2.040 -0.1797 -0.4218  0.2337
  324MOL0     C42662   7.558   3.440   2.114 -0.6855 -0.4759  1.4260
  324MOL0     C42663   7.445   3.519   2.081 -0.1870  0.4595 -0.3911
  324MOL0     C42664   7.336   3.470   2.015 -0.1293 -1.2046 -0.5034
  324MOL0     C42665   7.216   3.549   1.991 -0.0370  1.0449  0.0927
  324MOL0     O42666   7.151   3.518   1.873  0.1457  0.1575  0.3975
  324MOL0     C42667   7.032   3.578   1.824 -0.1322 -0.2346  0.2787
  324MOL0     C42668   6.985   3.537   1.697  0.9310 -0.0093 -0.7864
  324MOL0     C42669   6.872   3.598   1.637 -0.2846 -0.0447 -0.6031
  324MOL0     C42670   6.790   3.681   1.714 -0.6837  0.5501 -0.2761
  324MOL0     O42671   6.677   3.738   1.660 -0.1334  0.4749  0.0519
  324MOL0     C42672   6.691   3.869   1.645 -0.2494 -0.5562 -0.5220
  324MOL0     C42673   6.589   3.954   1.726  0.3710  0.2573 -0.1752
  324MOL0     C42674   6.595   4.096   1.678  0.7250 -1.0233  0.1871
  324MOL0     C42675   6.488   4.184   1.742  0.0621  0.5239  0.0931
  324MOL0     C42676   6.519   4.335   1.725  0.7375  0.3141  0.2032
  324MOL0     C42677   6.410   4.428   1.786  0.2950 -0.5850 -0.9715
  324MOL0     C42678   6.459   4.578   1.766  0.3373 -0.1433  0.3038
  324MOL0     C42679   6.351   4.689   1.772  0.4489  0.0787 -0.5415
  324MOL0    Cl42680   6.289   4.707   1.941 -0.0433 -0.3165 -0.1938
  324MOL0     C42681   6.828   3.709   1.849  0.6426 -0.1717 -0.3643
  324MOL0     C42682   6.943   3.654   1.899 -0.4775 -1.2889  0.7171
  324MOL0     O42683   7.186   3.633   2.074  0.8850 -0.4086  0.3344
  324MOL0     C42684   7.356   3.349   1.950  0.9313  0.4025  0.8997
  324MOL0     C42685   7.479   3.280   1.960 -0.1127 -0.2305  0.4643
  324MOL0     N42686   8.324   3.134   1.754  0.0182  0.0325  0.1835
  324MOL0     N42687   8.441   3.186   1.747  0.6034 -0.2520  0.1763
  324MOL0     C42688   9.159   4.032   1.653  0.1643 -0.9344 -0.2810
  324MOL0     C42689   9.213   4.139   1.577 -0.8793 -0.2122  0.2384
  324MOL0     C42690   9.538   4.366   1.354  0.1721 -0.2628 -0.7355
  324MOL0     C42691   9.672   4.391   1.357 -0.8904  0.5542  0.6910
  324MOL0     C42692   9.726   4.487   1.276 -0.1389  0.6014  0.0716
  324MOL0     C42693   9.659   4.564   1.183 -0.0678 -0.0367 -0.1644
  324MOL0     O42694   9.733   4.667   1.133  0.6939 -0.1132 -0.3721
  324MOL0     C42695   9.673   4.781   1.060  0.4850 -0.6812  0.6632
  324MOL0     C42696   9.579   4.878   1.132  0.3534 -0.1528  0.4734
  324MOL0     C42697   9.499   4.980   1.042  0.1852 -0.7987  0.1765
  324MOL0     C42698   9.502   5.135   1.092  0.1973 -1.1826  0.2612
  324MOL0     C42699   9.372   5.196   1.066  0.3239  1.1991 -0.2216
  324MOL0     C42700   9.274   5.264   1.039  0.5504  0.1324  0.5386
  324MOL0     C42701   9.515   4.530   1.171 -0.1890  0.5301 -0.3382
  324MOL0     C42702   9.454   4.451   1.267  0.1073 -0.5361 -0.0748
  324MOL0     H42703   9.431   3.977   1.382 -0.9968  0.7311 -1.4796
  324MOL0     H42704   9.345   3.777   1.533 -3.4970 -1.2873  0.1525
  324MOL0     H42705   9.070   3.673   1.530 -4.2346 -2.5544 -0.7419
  324MOL0     H42706   8.973   3.806   1.589  1.3751  2.1812 -1.2953
  324MOL0     H42707   8.877   3.622   1.693  0.8561 -1.8644 -0.0311
  324MOL0     H42708   8.995   3.665   1.820  3.2955 -0.1271 -0.2008
  324MOL0     H42709   9.126   3.502   1.776 -0.7315  1.6156  0.5276
  324MOL0     H42710   9.073   3.474   1.599 -0.8927 -0.3730  0.4963
  324MOL0     H42711   8.881   3.403   1.671  2.2833  1.7980 -0.7193
  324MOL0     H42712   9.002   3.282   1.746 -2.3458 -2.1709 -0.5903
  324MOL0     H42713   8.817   3.481   1.869  2.4309  0.9927 -1.6349
  324MOL0     H42714   8.965   3.456   1.947 -0.4144  1.7253 -0.0529
  324MOL0     H42715   8.837   3.273   2.060  1.5623 -1.5428  1.6588
  324MOL0     H42716   8.946   3.206   1.937  0.0034 -0.9025  2.7277
  324MOL0     H42717   8.765   3.179   1.794  0.7456  0.0296  0.2368
  324MOL0     H42718   8.722   3.101   1.950 -3.2813  0.5062 -0.6337
  324MOL0     H42719   8.606   3.364   1.839 -2.4778 -0.7478 -1.7657
  324MOL0     H42720   8.593   3.335   2.008 -0.5748  0.5445  0.3084
  324MOL0     H42721   8.369   3.226   2.074  0.5047 -0.8678  0.7803
  324MOL0     H42722   8.148   3.028   2.017  0.9074  0.3205  1.4080
  324MOL0     H42723   8.084   3.061   1.860 -0.5743 -0.0888 -0.3853
  324MOL0     H42724   8.054   3.309   1.924 -2.7930 -0.3441 -0.9105
  324MOL0     H42725   8.109   3.258   2.090 -0.6874  0.9230  0.0173
  324MOL0     H42726   7.897   3.083   1.979  0.6195  0.1268  0.3456
  324MOL0     H42727   7.923   3.159   2.134 -0.5931 -1.3649  0.3792
  324MOL0     H42728   7.820   3.307   1.897  2.8374 -3.2802 -0.8662
  324MOL0     H42729   7.856   3.375   2.067 -1.1202 -0.7302  2.7243
  324MOL0     H42730   7.643   3.473   2.173  0.8610 -2.1166  0.2060
  324MOL0     H42731   7.442   3.623   2.112  5.0131  0.6593  0.5023
  324MOL0     H42732   7.058   3.473   1.650  1.9188  0.0579  0.6086
  324MOL0     H42733   6.847   3.586   1.533 -4.1475 -1.3537  0.3233
  324MOL0     H42734   6.682   3.899   1.541  2.0584 -1.2699 -0.9699
  324MOL0     H42735   6.793   3.899   1.667 -1.0699  1.8775  0.3528
  324MOL0     H42736   6.606   3.947   1.834  0.2339  1.4057 -0.0651
  324MOL0     H42737   6.488   3.917   1.706  0.1416  0.3051  0.8285
  324MOL0     H42738   6.586   4.093   1.569  0.8284  3.2811 -0.0968
  324MOL0     H42739   6.691   4.138   1.710  2.6897 -3.7813 -1.5944
  324MOL0     H42740   6.385   4.166   1.709 -0.1360  1.7059  0.0233
  324MOL0     H42741   6.496   4.167   1.850  0.4281  1.4744  0.2230
  324MOL0     H42742   6.520   4.353   1.617 -2.6256  1.9050  0.3041
  324MOL0     H42743   6.622   4.349   1.758  1.0611 -0.3767 -0.4906
  324MOL0     H42744   6.384   4.428   1.892 -0.8454  3.6460 -1.0682
  324MOL0     H42745   6.315   4.422   1.733 -0.1642  4.3401 -1.2252
  324MOL0     H42746   6.550   4.609   1.819  1.7486  1.2862 -2.6750
  324MOL0     H42747   6.489   4.576   1.661  2.2879 -0.5574  0.8116
  324MOL0     H42748   6.266   4.646   1.719 -0.5973 -2.5991  2.9593
  324MOL0     H42749   6.385   4.775   1.713  0.6156 -1.4695 -2.7839
  324MOL0     H42750   6.764   3.762   1.919  0.8718  0.0324 -0.3077
  324MOL0     H42751   6.974   3.665   2.002  0.3017 -1.2823  0.4882
  324MOL0     H42752   7.277   3.317   1.882 -0.4996  0.2225  2.5535
  324MOL0     H42753   7.495   3.186   1.909 -0.0046 -0.6305  1.2245
  324MOL0     H42754   9.090   4.048   1.735 -0.4167 -1.7521 -0.5895
  324MOL0     H42755   9.183   4.241   1.599 -0.5635  0.6272 -2.7462
  324MOL0     H42756   9.739   4.339   1.424  1.7012  1.9793 -0.6357
  324MOL0     H42757   9.831   4.511   1.287  0.7492 -3.4765  2.7310
  324MOL0     H42758   9.622   4.740   0.972 -1.2988 -0.9551  1.7602
  324MOL0     H42759   9.757   4.841   1.024  0.1120 -0.9563 -0.7130
  324MOL0     H42760   9.504   4.821   1.188  0.2404 -1.1375 -0.6249
  324MOL0     H42761   9.629   4.926   1.216 -4.1773  0.7438  2.9696
  324MOL0     H42762   9.394   4.952   1.044  0.1105 -0.6588 -1.0358
  324MOL0     H42763   9.537   4.966   0.940 -1.0613 -1.6858 -0.1873
  324MOL0     H42764   9.521   5.157   1.197  1.3231  2.3102 -0.5210
  324MOL0     H42765   9.576   5.188   1.031  0.8032 -2.1288  0.1498
  324MOL0     H42766   9.184   5.310   1.003  0.3140 -2.7029 -3.1656
  324MOL0     H42767   9.455   4.568   1.090  0.9299  3.4160  0.0784
  324MOL0     H42768   9.348   4.425   1.261  0.0790 -1.2339  2.4953
  325MOL0     O42769   3.363  10.641   4.008  0.3509 -0.6050  0.2598
  325MOL0     C42770   3.253  10.619   4.058  0.2481 -1.1215  1.0046
  325MOL0     O42771   3.235  10.558   4.182  0.3781 -0.3566  0.1845
  325MOL0     C42772   3.352  10.492   4.225  0.2770  0.3765 -0.1601
  325MOL0     C42773   3.411  10.526   4.351 -0.6192 -0.0626  0.1384
  325MOL0     C42774   3.526  10.450   4.381  0.1970  0.4315 -0.0805
  325MOL0     C42775   3.581  10.353   4.298  0.1924  0.2082  1.0670
  325MOL0     O42776   3.680  10.273   4.332  0.1595  1.2459  0.3737
  325MOL0     C42777   3.772  10.309   4.439 -0.1909 -0.3693  0.0168
  325MOL0     C42778   3.872  10.197   4.460 -0.5856 -0.2783 -1.2770
  325MOL0     C42779   3.970  10.170   4.349  0.9260 -1.4024  0.1491
  325MOL0     C42780   4.099  10.115   4.415 -0.3583 -0.3418  0.2815
  325MOL0     C42781   4.197  10.222   4.475 -0.3343 -0.5549  0.2933
  325MOL0     C42782   4.328  10.159   4.517 -0.3368 -0.2667  0.5373
  325MOL0     C42783   4.428  10.133   4.407 -0.8443  0.6397 -0.2314
  325MOL0     C42784   4.570  10.080   4.459  1.0978 -0.4759 -0.4530
  325MOL0     N42785   4.566   9.945   4.510 -0.2725  0.2842 -0.5082
  325MOL0     C42786   4.550   9.836   4.424  1.1250  0.6545 -0.2599
  325MOL0     C42787   4.571   9.735   4.517 -0.1232  0.7111 -0.3029
  325MOL0     C42788   4.556   9.588   4.500  0.2044  0.2255  0.2923
  325MOL0     C42789   4.676   9.506   4.558  0.0174  0.1914  0.5033
  325MOL0     C42790   4.814   9.511   4.487  0.1423  0.6256 -0.1825
  325MOL0     C42791   4.887   9.653   4.493  0.6068  0.9991  0.6879
  325MOL0     O42792   4.929   9.667   4.358 -0.8453 -0.8213  0.1621
  325MOL0     C42793   5.024   9.766   4.343  0.3376  0.0937  0.7070
  325MOL0     C42794   5.154   9.734   4.305 -0.0532 -0.6517  0.2706
  325MOL0     C42795   5.247   9.833   4.272  0.4109 -0.2458 -0.2067
  325MOL0     C42796   5.211   9.972   4.274 -0.9845  0.2972  0.2710
  325MOL0     C42797   5.302  10.073   4.236  0.1577  0.4933  1.0169
  325MOL0     O42798   5.242  10.182   4.186 -0.1856  0.3269 -0.5061
  325MOL0     C42799   5.323  10.291   4.176  0.1690 -1.5902 -0.5491
  325MOL0     C42800   5.304  10.402   4.254 -0.6059  0.1983  0.0976
  325MOL0     C42801   5.381  10.519   4.244  0.0562 -0.0005  0.3990
  325MOL0     C42802   5.482  10.524   4.148 -0.2197 -0.0752 -0.2524
  325MOL0     O42803   5.554  10.644   4.128  0.0718 -0.2221  0.2317
  325MOL0     C42804   5.508  10.713   4.015 -1.1142 -1.2757  0.7393
  325MOL0     C42805   5.608  10.817   3.979  0.0059 -0.8664  1.0859
  325MOL0     C42806   5.597  10.885   3.835  0.2355 -0.4419  0.2299
  325MOL0     C42807   5.723  10.959   3.799  0.3841  0.4780 -0.6946
  325MOL0     C42808   5.688  11.056   3.691  0.6961 -0.2073  0.4036
  325MOL0     C42809   5.809  11.137   3.634 -0.1746  0.3318  0.3001
  325MOL0     C42810   5.776  11.221   3.515  0.0984  0.3826  0.2558
  325MOL0     C42811   5.893  11.324   3.485  0.9734 -0.2330 -0.2236
  325MOL0    Cl42812   6.046  11.227   3.502  0.0081  0.2284  0.4465
  325MOL0     C42813   5.503  10.412   4.059 -0.1243 -0.3690  0.8629
  325MOL0     C42814   5.418  10.299   4.076  1.2305  0.0020  0.2738
  325MOL0     O42815   5.414  10.055   4.264 -0.1706  0.3397  0.3959
  325MOL0     C42816   5.080  10.000   4.308  0.1857  0.0336  0.1119
  325MOL0     C42817   4.991   9.899   4.348  0.0582  0.3839  0.9760
  325MOL0     N42818   4.600   9.783   4.641  0.0869  0.0611 -0.4335
  325MOL0     N42819   4.602   9.904   4.633  0.2625  0.6717  0.5799
  325MOL0     C42820   3.505  10.312   4.192  0.6270  0.2921  0.3564
  325MOL0     C42821   3.391  10.381   4.146  0.2491 -0.3780 -0.7364
  325MOL0     C42822   3.129  10.649   3.992 -0.4824  0.2074  0.8760
  325MOL0     C42823   3.014  10.688   4.071  0.0045 -0.2397 -0.2513
  325MOL0     C42824   2.896  10.704   4.006  0.3544  0.1131 -0.0242
  325MOL0     C42825   2.880  10.675   3.866 -0.0825 -0.5751 -0.0456
  325MOL0     O42826   2.752  10.669   3.819  0.1176 -1.1188  0.4947
  325MOL0     C42827   2.674  10.557   3.854  0.9949 -0.5466 -0.3193
  325MOL0     C42828   2.535  10.594   3.793  0.2201 -0.9437 -0.0329
  325MOL0     C42829   2.401  10.546   3.863  0.3595 -0.3136  0.6497
  325MOL0     C42830   2.283  10.562   3.768  0.5360  0.2907 -0.1763
  325MOL0     C42831   2.258  10.702   3.736  0.4768  0.4144  1.6001
  325MOL0     C42832   2.244  10.816   3.694 -0.6255 -0.6362  0.3025
  325MOL0     C42833   2.997  10.661   3.786  0.1755  0.0451  0.2960
  325MOL0     C42834   3.122  10.649   3.848 -0.5334  0.0272 -0.6678
  325MOL0     H42835   3.375  10.613   4.405 -4.1619 -1.5147  0.3801
  325MOL0     H42836   3.574  10.473   4.476 -0.4991  0.3188  0.3099
  325MOL0     H42837   3.722  10.331   4.534 -2.9419  1.7626 -1.7623
  325MOL0     H42838   3.823  10.400   4.407  0.9015 -1.0405 -0.1917
  325MOL0     H42839   3.807  10.110   4.474 -0.1138 -0.3804  0.6382
  325MOL0     H42840   3.921  10.211   4.557 -1.1324  0.5830 -1.1176
  325MOL0     H42841   3.988  10.264   4.297  1.6269 -0.8238  1.3978
  325MOL0     H42842   3.915  10.101   4.284 -2.6703 -0.4571  1.9561
  325MOL0     H42843   4.076  10.043   4.494 -0.7534 -0.0635  0.4231
  325MOL0     H42844   4.162  10.067   4.339  0.8112 -1.9213  2.1387
  325MOL0     H42845   4.150  10.271   4.561 -2.5944  1.8530 -2.1556
  325MOL0     H42846   4.216  10.305   4.406  0.0271 -2.7919 -2.4599
  325MOL0     H42847   4.312  10.063   4.566  0.5173 -2.0146 -2.4069
  325MOL0     H42848   4.381  10.236   4.574  2.5229 -2.2039  0.7084
  325MOL0     H42849   4.395  10.055   4.338 -0.7563  1.8205 -1.6563
  325MOL0     H42850   4.434  10.226   4.349 -1.6056  1.8019  1.4897
  325MOL0     H42851   4.605  10.148   4.538 -0.6249 -1.4624  1.2622
  325MOL0     H42852   4.643  10.077   4.378 -0.0493  0.7515 -1.5791
  325MOL0     H42853   4.516   9.812   4.324 -0.6073  0.2129  0.4047
  325MOL0     H42854   4.536   9.560   4.396 -1.7253 -0.2904  0.7702
  325MOL0     H42855   4.468   9.554   4.554  1.6496 -3.5582  0.5623
  325MOL0     H42856   4.640   9.404   4.548 -1.3514  0.2709  3.5630
  325MOL0     H42857   4.680   9.536   4.663 -2.3103  1.1022  0.3829
  325MOL0     H42858   4.874   9.441   4.546 -0.4157  0.3879  0.1065
  325MOL0     H42859   4.803   9.473   4.385 -3.9856  1.7934 -0.3288
  325MOL0     H42860   4.964   9.650   4.570 -1.2737 -1.5149  2.6701
  325MOL0     H42861   4.819   9.733   4.524 -0.9828 -0.8913  2.3399
  325MOL0     H42862   5.179   9.630   4.292  1.2015 -0.8602  3.5347
  325MOL0     H42863   5.350   9.807   4.249 -0.0370 -0.6255 -1.9158
  325MOL0     H42864   5.227  10.402   4.330  0.0734  0.0229  0.8059
  325MOL0     H42865   5.364  10.611   4.299 -4.2430  0.9948 -2.1260
  325MOL0     H42866   5.407  10.755   4.022 -0.7783  0.5185 -2.9355
  325MOL0     H42867   5.497  10.644   3.930 -2.4964  0.5314 -0.6410
  325MOL0     H42868   5.706  10.771   3.995  0.2498  0.1130  2.6307
  325MOL0     H42869   5.614  10.888   4.063 -1.1801  2.3187 -1.3195
  325MOL0     H42870   5.513  10.954   3.823  0.1513 -0.0953  2.3694
  325MOL0     H42871   5.576  10.806   3.763  3.6672 -1.3814  0.0688
  325MOL0     H42872   5.745  11.008   3.895 -1.7251 -1.7153  1.0407
  325MOL0     H42873   5.807  10.898   3.766  0.2416 -0.3676  0.4332
  325MOL0     H42874   5.615  11.122   3.739 -2.0518 -2.0261 -0.9826
  325MOL0     H42875   5.639  11.008   3.605 -0.6193  3.4633 -1.0660
  325MOL0     H42876   5.883  11.062   3.605  1.3679  2.5491 -1.9695
  325MOL0     H42877   5.851  11.211   3.704 -2.7302  2.0002  0.1771
  325MOL0     H42878   5.777  11.154   3.429  0.0808  1.1492 -0.3490
  325MOL0     H42879   5.679  11.268   3.531  0.5781  0.5257  3.5715
  325MOL0     H42880   5.890  11.411   3.551  0.1428  0.0201 -0.5881
  325MOL0     H42881   5.889  11.357   3.381 -0.8499  0.7659  0.1137
  325MOL0     H42882   5.564  10.414   3.970 -2.9742  0.2919 -1.2329
  325MOL0     H42883   5.426  10.220   4.003 -1.9030  0.2446 -0.4663
  325MOL0     H42884   5.047  10.104   4.312  1.2296  0.5346 -2.3007
  325MOL0     H42885   4.884   9.916   4.353  0.1037  1.7131 -1.1493
  325MOL0     H42886   3.548  10.234   4.130  2.5988  0.1374  1.8375
  325MOL0     H42887   3.337  10.370   4.053  0.4097  0.1904 -0.9029
  325MOL0     H42888   3.014  10.711   4.176  0.3271 -2.9301  0.4260
  325MOL0     H42889   2.804  10.733   4.057 -0.4128  3.9317 -3.1235
  325MOL0     H42890   2.660  10.551   3.963  1.1310  1.4288 -0.1603
  325MOL0     H42891   2.715  10.463   3.816 -0.9831 -1.4689 -0.2827
  325MOL0     H42892   2.531  10.703   3.779  0.9634 -0.5798  2.1439
  325MOL0     H42893   2.534  10.564   3.688  0.7433  0.9471 -0.6136
  325MOL0     H42894   2.396  10.602   3.956  5.0143 -1.4494  1.8114
  325MOL0     H42895   2.412  10.442   3.894  2.0782 -0.0278  1.0963
  325MOL0     H42896   2.299  10.498   3.680  3.1074 -4.5725  3.3436
  325MOL0     H42897   2.193  10.527   3.818  0.8622 -0.5752 -0.1729
  325MOL0     H42898   2.222  10.918   3.671 -1.1463 -1.2750 -2.2894
  325MOL0     H42899   2.983  10.646   3.679 -1.1080 -1.5278  0.6594
  325MOL0     H42900   3.215  10.618   3.801 -0.1931 -1.8074  1.0782
  326MOL0     O42901   1.543   7.604   0.452 -0.1142 -0.4495 -0.3047
  326MOL0     C42902   1.539   7.483   0.460  0.1842 -0.3771  0.3904
  326MOL0     O42903   1.622   7.403   0.541  0.9711 -0.2656 -1.5946
  326MOL0     C42904   1.707   7.462   0.632  0.5680 -0.2832 -0.3033
  326MOL0     C42905   1.675   7.577   0.703 -0.4938  0.3113 -0.0153
  326MOL0     C42906   1.776   7.632   0.783 -0.1350 -0.4253 -1.0344
  326MOL0     C42907   1.905   7.571   0.789  0.0376 -0.2659 -0.0897
  326MOL0     O42908   1.987   7.626   0.888  0.2343  0.0718 -0.7950
  326MOL0     C42909   2.126   7.634   0.855 -0.3173 -0.0269 -0.6213
  326MOL0     C42910   2.204   7.763   0.890 -0.5721  0.3812  0.2505
  326MOL0     C42911   2.178   7.821   1.031 -0.3802 -0.9035 -0.9776
  326MOL0     C42912   2.036   7.842   1.075 -0.0818  0.7250  0.1876
  326MOL0     C42913   2.030   7.950   1.184  0.3475 -0.1642  0.9106
  326MOL0     C42914   1.913   8.039   1.172 -0.8230  0.8104  0.3128
  326MOL0     C42915   1.902   8.155   1.273 -0.4970 -0.3879 -0.5681
  326MOL0     C42916   1.752   8.213   1.270 -0.5639 -0.6299  0.3876
  326MOL0     N42917   1.745   8.341   1.336 -0.6970  0.4147 -0.5714
  326MOL0     C42918   1.760   8.459   1.281 -0.7657  0.7629 -0.7071
  326MOL0     C42919   1.768   8.543   1.386  0.5574 -0.4607 -0.7602
  326MOL0     C42920   1.763   8.689   1.364 -1.2655  0.2168 -0.2259
  326MOL0     C42921   1.654   8.776   1.433  0.2339 -0.7223 -0.4951
  326MOL0     C42922   1.661   8.924   1.400  0.9819 -0.0138  0.3956
  326MOL0     C42923   1.526   8.988   1.346 -0.5098  1.2119 -0.3209
  326MOL0     O42924   1.540   9.128   1.336 -0.6712  0.2016  0.3551
  326MOL0     C42925   1.532   9.216   1.442  0.2304 -0.1278  0.8760
  326MOL0     C42926   1.520   9.172   1.577  0.2486 -0.4655  0.1292
  326MOL0     C42927   1.528   9.261   1.684 -0.6939 -0.6194 -0.1279
  326MOL0     C42928   1.555   9.398   1.658 -0.5119 -0.4040  0.2175
  326MOL0     C42929   1.556   9.483   1.777 -0.4317 -0.9215  0.1147
  326MOL0     O42930   1.581   9.419   1.902 -0.0756 -0.8558 -0.1071
  326MOL0     C42931   1.599   9.490   2.017 -0.8401 -0.5349 -1.1559
  326MOL0     C42932   1.696   9.443   2.117  0.0253  0.2491  1.0914
  326MOL0     C42933   1.721   9.509   2.236  0.9532 -0.2218  1.0602
  326MOL0     C42934   1.640   9.621   2.263 -0.5722 -0.6399 -0.8584
  326MOL0     O42935   1.666   9.681   2.385  0.2718  0.5275  0.2733
  326MOL0     C42936   1.771   9.781   2.360 -0.5836 -0.5773  0.3193
  326MOL0     C42937   1.791   9.885   2.474  0.5604 -0.5650  0.0877
  326MOL0     C42938   1.833   9.830   2.611 -0.6138 -0.3084  0.5989
  326MOL0     C42939   1.969   9.736   2.619 -0.4253  0.1034 -0.5202
  326MOL0     C42940   1.970   9.660   2.747 -0.2275 -0.4720  0.0467
  326MOL0     C42941   1.918   9.518   2.727  0.7052  0.2269 -0.9588
  326MOL0     C42942   1.929   9.439   2.854  0.4990 -0.3188  0.8071
  326MOL0     C42943   1.879   9.302   2.843 -0.2522  0.4106 -0.2766
  326MOL0    Cl42944   1.916   9.216   2.985  0.3580 -0.4932  0.1347
  326MOL0     C42945   1.546   9.667   2.178 -0.2984  1.2909  0.3787
  326MOL0     C42946   1.527   9.605   2.054 -0.5899 -1.2659  0.7829
  326MOL0     O42947   1.543   9.603   1.763 -0.6540  0.1755  0.1371
  326MOL0     C42948   1.571   9.451   1.525  0.6463  0.9092  0.8079
  326MOL0     C42949   1.557   9.356   1.416 -0.6041  0.0859 -0.6833
  326MOL0     N42950   1.736   8.481   1.507  0.1698 -0.3903 -0.2578
  326MOL0     N42951   1.716   8.359   1.469  0.5160  0.2548 -0.4715
  326MOL0     C42952   1.929   7.449   0.719  0.6419 -0.4765  0.4246
  326MOL0     C42953   1.831   7.401   0.641 -0.0748 -0.1254  0.8122
  326MOL0     C42954   1.415   7.425   0.407 -0.4677 -0.1996 -0.5295
  326MOL0     C42955   1.302   7.503   0.377 -0.1101 -0.6365 -0.5279
  326MOL0     C42956   1.187   7.445   0.322 -0.0774  0.5706 -0.0524
  326MOL0     C42957   1.174   7.308   0.316 -0.3124  0.4359  0.0656
  326MOL0     O42958   1.077   7.236   0.256  0.9549  0.8260  0.5016
  326MOL0     C42959   0.938   7.272   0.261 -1.2076 -0.9183 -0.4910
  326MOL0     C42960   0.859   7.158   0.189  0.0588 -0.9321  0.8421
  326MOL0     C42961   0.902   7.024   0.251  0.3141  0.3850  0.3612
  326MOL0     C42962   0.803   6.910   0.232  1.1741  0.2994 -0.0059
  326MOL0     C42963   0.768   6.886   0.080  0.2609 -0.4546  0.1567
  326MOL0     C42964   0.744   6.858  -0.034  0.0844 -0.5615 -0.2211
  326MOL0     C42965   1.282   7.233   0.361 -0.6002  0.1156 -0.6357
  326MOL0     C42966   1.400   7.282   0.415  0.0397  0.8814 -0.5234
  326MOL0     H42967   1.578   7.624   0.712 -0.7320  0.0607 -1.1438
  326MOL0     H42968   1.770   7.728   0.833  1.5189 -0.8474  0.0713
  326MOL0     H42969   2.137   7.601   0.751  0.2763 -0.3548 -0.4600
  326MOL0     H42970   2.174   7.555   0.913  1.5728  1.9724  0.7121
  326MOL0     H42971   2.182   7.822   0.800  2.1559 -1.7920 -2.0404
  326MOL0     H42972   2.310   7.749   0.869 -1.3380 -2.1336 -2.7086
  326MOL0     H42973   2.227   7.918   1.020  1.1453 -1.6302 -0.8912
  326MOL0     H42974   2.230   7.753   1.099 -0.0594  0.0296 -0.2760
  326MOL0     H42975   1.976   7.876   0.991 -0.9687 -2.6948 -0.7245
  326MOL0     H42976   2.005   7.745   1.114 -1.4612  0.9985 -0.1729
  326MOL0     H42977   2.115   8.019   1.178  0.6196 -0.6512 -2.3389
  326MOL0     H42978   2.035   7.911   1.287  1.5353 -0.4528  0.7570
  326MOL0     H42979   1.823   7.979   1.190  0.7773 -0.6418  4.5994
  326MOL0     H42980   1.906   8.088   1.074 -0.6695 -2.6054 -1.5705
  326MOL0     H42981   1.938   8.119   1.370 -0.9489 -0.8616 -0.5762
  326MOL0     H42982   1.959   8.235   1.224 -0.5883 -0.4180 -0.7217
  326MOL0     H42983   1.666   8.158   1.308 -0.3543  0.9091  3.3893
  326MOL0     H42984   1.727   8.228   1.164  0.5534 -1.3297  0.0159
  326MOL0     H42985   1.774   8.477   1.175 -1.4181  3.7073 -0.3851
  326MOL0     H42986   1.760   8.701   1.255 -1.1741 -0.7635 -0.3486
  326MOL0     H42987   1.861   8.727   1.394 -1.4386 -1.2235  2.4255
  326MOL0     H42988   1.667   8.771   1.542 -0.2815  0.7865 -0.3461
  326MOL0     H42989   1.555   8.740   1.406  0.3373 -1.0573 -0.4321
  326MOL0     H42990   1.684   8.974   1.495  0.0112  0.9214  0.1683
  326MOL0     H42991   1.749   8.942   1.338  1.1088  1.1334  0.8713
  326MOL0     H42992   1.441   8.967   1.412  0.3707 -0.8991  0.2245
  326MOL0     H42993   1.492   8.940   1.254  1.1582  0.8144 -0.7600
  326MOL0     H42994   1.493   9.067   1.585 -3.7861  0.4658  1.2933
  326MOL0     H42995   1.514   9.237   1.789 -0.5352  2.8102  0.7960
  326MOL0     H42996   1.748   9.353   2.086 -2.6649 -1.1847  0.4132
  326MOL0     H42997   1.789   9.480   2.315  0.4870  0.0512  1.5682
  326MOL0     H42998   1.738   9.843   2.276 -0.2994 -1.2362 -0.2881
  326MOL0     H42999   1.867   9.737   2.332  0.8734  1.9555  0.9779
  326MOL0     H43000   1.695   9.932   2.497  0.1715 -1.5776  0.5726
  326MOL0     H43001   1.867   9.960   2.448  0.1761 -0.1194  0.2487
  326MOL0     H43002   1.750   9.762   2.630 -2.2233  0.9829 -1.3095
  326MOL0     H43003   1.844   9.913   2.681  0.2693  1.1541 -1.1584
  326MOL0     H43004   1.967   9.667   2.534  0.5057 -0.8127  0.1776
  326MOL0     H43005   2.052   9.803   2.594 -0.1362  0.2297  0.7263
  326MOL0     H43006   1.903   9.717   2.813 -3.6571 -1.4525 -2.3238
  326MOL0     H43007   2.062   9.652   2.806 -1.2333  0.2458  1.8284
  326MOL0     H43008   1.973   9.464   2.649  1.3808  0.0873 -0.3993
  326MOL0     H43009   1.815   9.526   2.690  1.5084  2.6084 -3.0144
  326MOL0     H43010   2.036   9.436   2.879  1.0108  2.1186 -0.7695
  326MOL0     H43011   1.870   9.484   2.934  0.7324 -0.4987  1.0802
  326MOL0     H43012   1.925   9.248   2.759  0.9872 -2.0977  1.8636
  326MOL0     H43013   1.771   9.300   2.828 -0.0724  0.0540 -1.7065
  326MOL0     H43014   1.490   9.757   2.203 -0.3867  0.9998  1.2757
  326MOL0     H43015   1.445   9.633   1.990  1.3548  2.0738 -0.5142
  326MOL0     H43016   1.593   9.556   1.511  0.1336  1.0134  0.7513
  326MOL0     H43017   1.587   9.391   1.318  0.9351  1.9072  0.3706
  326MOL0     H43018   2.029   7.408   0.724  0.3983 -1.7809 -2.8836
  326MOL0     H43019   1.850   7.300   0.605 -3.5416 -0.0925 -1.5908
  326MOL0     H43020   1.321   7.609   0.388  0.9112 -0.8297 -0.2984
  326MOL0     H43021   1.097   7.501   0.298 -2.6180 -1.5493  3.5268
  326MOL0     H43022   0.913   7.371   0.220  1.0594  0.3341  0.9804
  326MOL0     H43023   0.912   7.280   0.367  2.9175  2.3514  0.4964
  326MOL0     H43024   0.751   7.172   0.195 -0.6660 -3.8453 -2.4004
  326MOL0     H43025   0.880   7.154   0.082 -3.2121  2.2571 -0.1456
  326MOL0     H43026   0.925   7.035   0.357  0.3030 -1.2410  0.5590
  326MOL0     H43027   0.996   7.000   0.200  0.6736 -0.9880  1.5847
  326MOL0     H43028   0.839   6.819   0.280  1.6526 -1.0348 -2.7057
  326MOL0     H43029   0.716   6.942   0.292 -0.0723 -2.2480 -0.3225
  326MOL0     H43030   0.742   6.825  -0.136  0.5370  0.2250 -0.4927
  326MOL0     H43031   1.292   7.128   0.336  4.3658  0.1216  0.2230
  326MOL0     H43032   1.478   7.212   0.442 -1.9036 -0.8469  0.8840
  327MOL0     O43033   1.549   2.624   7.245 -0.5611 -0.3365 -0.3455
  327MOL0     C43034   1.521   2.738   7.206  0.1210 -0.9950 -0.2652
  327MOL0     O43035   1.613   2.842   7.219  0.1820  0.3248 -0.1753
  327MOL0     C43036   1.736   2.806   7.251 -0.9372 -0.1302 -1.0755
  327MOL0     C43037   1.841   2.798   7.166 -0.5402  0.2329 -0.1256
  327MOL0     C43038   1.980   2.785   7.201  0.0169  0.3566  0.3552
  327MOL0     C43039   2.024   2.785   7.329 -0.5855 -0.5701  0.0184
  327MOL0     O43040   2.160   2.774   7.364  0.1576  0.8659 -0.0413
  327MOL0     C43041   2.203   2.781   7.499  0.3325 -0.2696 -0.1348
  327MOL0     C43042   2.244   2.918   7.560 -0.6371 -0.2250 -0.9939
  327MOL0     C43043   2.319   2.997   7.457  0.0634 -0.1293 -0.2264
  327MOL0     C43044   2.382   3.128   7.512 -0.9096 -0.5838 -0.1123
  327MOL0     C43045   2.463   3.117   7.649 -0.0338 -0.0418 -0.1557
  327MOL0     C43046   2.560   3.237   7.681  0.0132  0.0072  0.1397
  327MOL0     C43047   2.700   3.211   7.620 -0.3789 -0.5852 -0.8503
  327MOL0     C43048   2.803   3.324   7.664  0.1646 -0.5093  0.8661
  327MOL0     N43049   2.919   3.312   7.570 -0.0876 -0.3964  0.9444
  327MOL0     C43050   2.987   3.198   7.539 -0.1328 -0.2041 -0.2039
  327MOL0     C43051   3.109   3.226   7.481  0.2579 -0.6965  0.1524
  327MOL0     C43052   3.212   3.127   7.446  0.0003 -0.8968  0.9720
  327MOL0     C43053   3.196   3.090   7.300 -0.0000 -0.2407 -0.4195
  327MOL0     C43054   3.296   2.977   7.266  0.4806  0.1655  0.4184
  327MOL0     C43055   3.427   3.040   7.251  0.2191 -0.1467  0.4834
  327MOL0     O43056   3.531   2.954   7.193  0.0964  0.7148  0.4711
  327MOL0     C43057   3.553   2.837   7.260  0.5306 -0.2197 -0.2176
  327MOL0     C43058   3.529   2.717   7.197 -0.5327  0.4232  0.0671
  327MOL0     C43059   3.548   2.596   7.260 -0.3057 -0.0872 -0.7436
  327MOL0     C43060   3.592   2.581   7.390  0.3942 -0.3425 -1.0016
  327MOL0     C43061   3.630   2.447   7.442 -0.6006  0.3224 -0.0365
  327MOL0     O43062   3.641   2.346   7.346 -0.0661  0.2060  0.3255
  327MOL0     C43063   3.693   2.224   7.384 -0.2733 -0.7192  0.0456
  327MOL0     C43064   3.823   2.219   7.453  0.1552 -1.0921  0.0905
  327MOL0     C43065   3.885   2.106   7.482 -0.1317  0.8600  0.0323
  327MOL0     C43066   3.839   1.984   7.422  0.6607  0.5159 -0.5821
  327MOL0     O43067   3.906   1.862   7.447  0.6363  0.1198  0.0224
  327MOL0     C43068   3.860   1.754   7.375 -0.0189  0.4799  0.3977
  327MOL0     C43069   3.947   1.639   7.438  0.4733  0.8594 -0.3763
  327MOL0     C43070   3.940   1.504   7.374  0.5394 -0.9672 -0.6306
  327MOL0     C43071   3.808   1.442   7.415  0.3087 -0.4022 -0.1617
  327MOL0     C43072   3.796   1.324   7.323  1.0978 -0.0550  1.0397
  327MOL0     C43073   3.693   1.217   7.379  0.2239  0.5433 -0.1912
  327MOL0     C43074   3.741   1.078   7.330 -0.0736  0.8282 -0.4357
  327MOL0     C43075   3.667   0.959   7.402  0.5504  0.2315 -1.0987
  327MOL0    Cl43076   3.491   0.968   7.411  0.3148  0.0653  0.0615
  327MOL0     C43077   3.735   1.994   7.330 -0.7399 -0.1757  0.1685
  327MOL0     C43078   3.660   2.113   7.318 -0.0228 -0.2732 -0.1573
  327MOL0     O43079   3.637   2.434   7.562 -0.1731 -0.6532 -0.4654
  327MOL0     C43080   3.618   2.711   7.448 -0.5450  1.3141 -0.0609
  327MOL0     C43081   3.596   2.830   7.391  0.7579  0.4182  0.4908
  327MOL0     N43082   3.112   3.361   7.459  0.2114  0.4831 -0.3200
  327MOL0     N43083   3.001   3.407   7.522  0.1222 -0.3173  0.0431
  327MOL0     C43084   1.914   2.781   7.421  0.2073  0.4714 -0.2665
  327MOL0     C43085   1.784   2.798   7.383  0.9582 -0.4844  0.0427
  327MOL0     C43086   1.387   2.766   7.167 -0.0879  0.3014  0.1795
  327MOL0     C43087   1.287   2.671   7.183  0.6813  0.1513  0.2743
  327MOL0     C43088   1.154   2.695   7.150  0.0533  0.1000  0.1256
  327MOL0     C43089   1.118   2.822   7.103 -0.0138  0.3720  1.0681
  327MOL0     O43090   0.992   2.839   7.065  0.4124  0.1721  0.1496
  327MOL0     C43091   0.886   2.843   7.168 -0.7585  0.2642  0.5680
  327MOL0     C43092   0.802   2.715   7.158  0.2825  0.3220  0.4917
  327MOL0     C43093   0.683   2.744   7.260 -0.8147  0.2957 -0.5863
  327MOL0     C43094   0.582   2.634   7.245 -0.0369  0.6580  1.2175
  327MOL0     C43095   0.467   2.650   7.329 -0.6785 -0.8229 -0.0431
  327MOL0     C43096   0.389   2.667   7.419 -0.0158  0.2039 -0.0668
  327MOL0     C43097   1.220   2.918   7.081  0.0387  0.5570 -0.9715
  327MOL0     C43098   1.355   2.886   7.111 -0.0172  0.5393  0.4628
  327MOL0     H43099   1.815   2.813   7.062 -1.0605  4.1162  0.4204
  327MOL0     H43100   2.051   2.777   7.120 -0.6310 -1.3586 -0.0868
  327MOL0     H43101   2.294   2.720   7.508  1.4124  1.4818  1.6761
  327MOL0     H43102   2.125   2.738   7.563 -1.3957  1.3012 -1.1028
  327MOL0     H43103   2.303   2.890   7.647  1.7945 -0.0408 -2.5056
  327MOL0     H43104   2.157   2.976   7.592 -1.6468 -1.9146 -0.5129
  327MOL0     H43105   2.235   3.027   7.395 -1.2372 -1.1310  0.9689
  327MOL0     H43106   2.395   2.938   7.404  0.4910  1.2677 -1.2128
  327MOL0     H43107   2.450   3.167   7.436 -1.1332 -1.2996 -0.6908
  327MOL0     H43108   2.309   3.203   7.542 -3.2014 -2.1823 -1.4585
  327MOL0     H43109   2.522   3.025   7.646  0.7459  0.4534 -2.9350
  327MOL0     H43110   2.382   3.106   7.722 -0.2475 -0.1636 -0.4121
  327MOL0     H43111   2.574   3.250   7.789 -2.2309 -0.9107  0.5914
  327MOL0     H43112   2.522   3.330   7.637 -2.0663 -2.1027 -2.9735
  327MOL0     H43113   2.744   3.119   7.660  0.5661  0.5796  0.9376
  327MOL0     H43114   2.684   3.209   7.512  0.9059  1.4539 -1.1220
  327MOL0     H43115   2.831   3.311   7.768  1.8428 -1.6574  0.3085
  327MOL0     H43116   2.747   3.418   7.662 -0.5676 -0.9236  1.4782
  327MOL0     H43117   2.939   3.106   7.572 -1.5301  0.6067  0.0891
  327MOL0     H43118   3.219   3.034   7.503  1.2150 -1.6639 -0.3754
  327MOL0     H43119   3.301   3.189   7.463  0.3614 -0.6550 -1.4883
  327MOL0     H43120   3.202   3.174   7.231  2.5480  1.3397  1.5354
  327MOL0     H43121   3.098   3.041   7.300 -0.5270  0.7290 -1.9674
  327MOL0     H43122   3.311   2.894   7.335  2.9882 -0.6039 -0.9197
  327MOL0     H43123   3.278   2.921   7.174  2.6073 -0.3699  0.2917
  327MOL0     H43124   3.470   3.082   7.343  0.5854 -0.1314  0.3033
  327MOL0     H43125   3.401   3.122   7.184  0.5281  0.7468  1.4223
  327MOL0     H43126   3.499   2.725   7.094 -3.0607 -0.1019  0.7128
  327MOL0     H43127   3.532   2.508   7.197  2.7757 -1.7679  0.5981
  327MOL0     H43128   3.860   2.312   7.494  2.7873 -2.0148 -0.0331
  327MOL0     H43129   3.983   2.105   7.529  0.5925 -1.0393 -1.4247
  327MOL0     H43130   3.890   1.775   7.271 -0.5363 -0.2222  0.0958
  327MOL0     H43131   3.754   1.728   7.375  0.7096 -3.0724  0.5384
  327MOL0     H43132   3.902   1.622   7.537  0.0984 -0.6086 -0.7735
  327MOL0     H43133   4.052   1.666   7.445  1.0452 -1.2468 -0.2096
  327MOL0     H43134   4.020   1.438   7.409 -1.0988 -1.1587  3.2014
  327MOL0     H43135   3.947   1.525   7.267 -1.4000  0.0941 -0.6006
  327MOL0     H43136   3.787   1.416   7.519  2.4086  0.2211  0.4569
  327MOL0     H43137   3.730   1.511   7.380  1.5250  0.2142 -1.7581
  327MOL0     H43138   3.893   1.274   7.314  0.2761 -1.6038  0.4007
  327MOL0     H43139   3.768   1.351   7.221 -3.0509 -2.3541  1.3705
  327MOL0     H43140   3.600   1.235   7.323  0.6298 -0.5601 -1.2662
  327MOL0     H43141   3.671   1.203   7.485 -1.7810 -3.6087 -0.9513
  327MOL0     H43142   3.729   1.070   7.222  3.8513 -0.6389 -0.9645
  327MOL0     H43143   3.849   1.068   7.347 -0.4061 -2.2762  0.5506
  327MOL0     H43144   3.712   0.952   7.502  0.4458 -0.3717 -1.0877
  327MOL0     H43145   3.691   0.866   7.348  0.7284 -0.6650  0.4733
  327MOL0     H43146   3.691   1.914   7.273 -2.3793  1.9033 -1.6774
  327MOL0     H43147   3.585   2.130   7.241 -1.7190 -0.9346  1.2875
  327MOL0     H43148   3.668   2.712   7.545  3.5210  1.0051 -1.9552
  327MOL0     H43149   3.620   2.921   7.446  1.4230  0.6675 -0.1937
  327MOL0     H43150   1.919   2.796   7.529  3.5857 -1.3678 -0.0308
  327MOL0     H43151   1.711   2.826   7.458  0.6447 -0.8549 -0.1168
  327MOL0     H43152   1.314   2.571   7.216 -2.5540 -1.2444 -0.8856
  327MOL0     H43153   1.070   2.628   7.164 -1.0516  1.5584  0.6849
  327MOL0     H43154   0.821   2.922   7.129 -1.6511 -0.8334 -0.2407
  327MOL0     H43155   0.915   2.862   7.272  1.3176 -2.4297  0.5718
  327MOL0     H43156   0.758   2.714   7.058  1.3284  1.2940 -0.0158
  327MOL0     H43157   0.856   2.625   7.188 -0.6015 -0.5765 -0.5446
  327MOL0     H43158   0.638   2.844   7.249  1.3784  1.7284  2.0790
  327MOL0     H43159   0.715   2.743   7.364 -3.2488  1.4918  0.2707
  327MOL0     H43160   0.551   2.635   7.140  0.6625  4.2695  0.9281
  327MOL0     H43161   0.620   2.533   7.261 -1.7510 -0.3989 -0.9306
  327MOL0     H43162   0.326   2.676   7.506 -1.0039 -0.0024 -0.7393
  327MOL0     H43163   1.189   3.018   7.051 -2.4016  0.8384  2.0736
  327MOL0     H43164   1.423   2.970   7.108  0.6753  0.0040  0.8733
  328MOL0     O43165   7.282  10.027   1.218  0.5748 -0.0300 -0.3902
  328MOL0     C43166   7.185  10.019   1.302 -0.7274 -0.9194 -0.0980
  328MOL0     O43167   7.047  10.029   1.278 -0.2653 -0.4002 -0.0973
  328MOL0     C43168   7.014  10.101   1.165 -0.9539  0.8448  0.4469
  328MOL0     C43169   7.081  10.222   1.136 -0.3475  0.6001 -0.4321
  328MOL0     C43170   7.072  10.282   1.011 -0.4237  0.4251  1.0650
  328MOL0     C43171   6.985  10.219   0.909 -0.1477  0.0751  0.1272
  328MOL0     O43172   6.956  10.268   0.795 -0.3327 -0.1230 -0.2733
  328MOL0     C43173   7.051  10.368   0.745  0.0001  0.7462 -1.0605
  328MOL0     C43174   7.037  10.384   0.593 -1.0560  0.5453 -0.1415
  328MOL0     C43175   6.958  10.511   0.561  0.2827 -0.5697  0.4163
  328MOL0     C43176   6.932  10.534   0.409 -0.3266  0.9416  0.0837
  328MOL0     C43177   6.831  10.440   0.360  0.5699  0.2082  0.3530
  328MOL0     C43178   6.827  10.400   0.207 -0.4397 -0.0493  0.4068
  328MOL0     C43179   6.806  10.537   0.126 -0.7888  0.4458 -0.3310
  328MOL0     C43180   6.764  10.512  -0.024 -0.2019  0.3752 -0.4457
  328MOL0     N43181   6.697  10.623  -0.090 -1.1309 -0.5568 -0.3047
  328MOL0     C43182   6.758  10.692  -0.195  0.2360 -0.5701  0.0934
  328MOL0     C43183   6.675  10.789  -0.214  0.5353  0.6997  0.1622
  328MOL0     C43184   6.686  10.896  -0.312 -0.1555  1.1239  0.7882
  328MOL0     C43185   6.685  10.837  -0.444  0.3235 -0.1353  0.0813
  328MOL0     C43186   6.719  10.935  -0.549 -0.5837 -0.0556 -0.1883
  328MOL0     C43187   6.736  10.888  -0.692 -0.2513  0.4145  0.8934
  328MOL0     O43188   6.613  10.841  -0.762 -1.0402  0.0296  0.4888
  328MOL0     C43189   6.616  10.809  -0.894 -0.2252  1.0432  0.5349
  328MOL0     C43190   6.499  10.758  -0.946 -0.0039  0.1246  0.1990
  328MOL0     C43191   6.495  10.706  -1.076 -1.0195 -0.6319 -0.0272
  328MOL0     C43192   6.611  10.709  -1.159  0.5224 -1.5448 -0.5439
  328MOL0     C43193   6.616  10.646  -1.296  0.6720  0.8624 -0.6773
  328MOL0     O43194   6.493  10.598  -1.341  0.5690 -0.0597  0.0424
  328MOL0     C43195   6.486  10.588  -1.480 -0.1234 -0.1345 -0.3441
  328MOL0     C43196   6.469  10.465  -1.552 -0.1750 -0.3555 -0.1755
  328MOL0     C43197   6.445  10.468  -1.689  0.4375  0.1124 -0.1767
  328MOL0     C43198   6.459  10.590  -1.761 -0.2662  1.1495  0.1686
  328MOL0     O43199   6.450  10.573  -1.897 -0.4598  0.6530 -0.0771
  328MOL0     C43200   6.442  10.683  -1.983  0.3326 -0.1776  0.2722
  328MOL0     C43201   6.435  10.630  -2.127  0.5681 -0.1121  0.7526
  328MOL0     C43202   6.564  10.572  -2.168  0.0667  0.4877 -0.5224
  328MOL0     C43203   6.553  10.536  -2.307 -0.6721  0.3147 -0.7446
  328MOL0     C43204   6.692  10.525  -2.375  0.6172  0.8757  1.0247
  328MOL0     C43205   6.686  10.505  -2.532  0.1712 -0.5031  1.0978
  328MOL0     C43206   6.825  10.494  -2.597  0.1700  0.7860 -0.1034
  328MOL0     C43207   6.892  10.622  -2.630  0.8425 -0.9684 -0.0379
  328MOL0    Cl43208   6.967  10.616  -2.785  0.3156 -0.2523  0.1658
  328MOL0     C43209   6.471  10.706  -1.691 -0.2893 -0.0857  1.7350
  328MOL0     C43210   6.474  10.707  -1.558  0.6834 -0.1057  0.5019
  328MOL0     O43211   6.714  10.665  -1.364  0.1411 -0.9983 -0.0625
  328MOL0     C43212   6.723  10.778  -1.113  0.5827 -0.5648  0.3882
  328MOL0     C43213   6.723  10.832  -0.985 -0.2292  0.1341 -0.5155
  328MOL0     N43214   6.577  10.797  -0.114 -0.3963  0.5577 -0.1144
  328MOL0     N43215   6.586  10.689  -0.044 -0.6993  0.8930 -0.0539
  328MOL0     C43216   6.918  10.100   0.945  1.1717 -0.0771  0.0932
  328MOL0     C43217   6.939  10.041   1.069 -0.3291 -0.1011  0.2182
  328MOL0     C43218   7.228  10.019   1.443 -0.0878  0.7209  0.1602
  328MOL0     C43219   7.356   9.982   1.482  0.1999 -0.5893 -0.7778
  328MOL0     C43220   7.394   9.995   1.621 -0.2842  0.6090  0.1839
  328MOL0     C43221   7.311  10.043   1.721 -0.3295  0.2682  0.6659
  328MOL0     O43222   7.354  10.065   1.851 -0.4637 -0.1119  0.0054
  328MOL0     C43223   7.274  10.005   1.951  0.2619 -0.3519 -0.0488
  328MOL0     C43224   7.328   9.998   2.089  1.6069 -0.1741 -0.6474
  328MOL0     C43225   7.437   9.889   2.110 -0.0226  0.2097  0.1280
  328MOL0     C43226   7.564   9.914   2.015 -0.3103  0.9312 -0.5273
  328MOL0     C43227   7.674   9.816   2.070 -0.1127 -1.7704  0.3840
  328MOL0     C43228   7.758   9.738   2.115 -0.2212 -0.0284 -1.2153
  328MOL0     C43229   7.175  10.068   1.678 -0.4223  0.7555 -0.9782
  328MOL0     C43230   7.132  10.055   1.547 -0.3230  0.4841  1.2567
  328MOL0     H43231   7.149  10.279   1.199 -1.2580 -0.2795  1.4161
  328MOL0     H43232   7.124  10.374   0.984 -3.4716  2.1199  0.5623
  328MOL0     H43233   7.147  10.319   0.763 -2.1550 -2.5720  3.2455
  328MOL0     H43234   7.033  10.460   0.801  0.2470 -1.1431  2.3598
  328MOL0     H43235   6.997  10.296   0.541  1.0921 -1.7057  1.7593
  328MOL0     H43236   7.134  10.392   0.543 -1.0056 -3.8774 -1.1704
  328MOL0     H43237   7.025  10.590   0.596  0.0186 -2.2912  5.6484
  328MOL0     H43238   6.864  10.516   0.617  1.1412 -0.0610  1.8513
  328MOL0     H43239   6.900  10.635   0.380  1.0391  0.3043 -4.4955
  328MOL0     H43240   7.029  10.510   0.364 -0.1605 -2.0333  1.7682
  328MOL0     H43241   6.730  10.478   0.376 -0.5696 -2.9044  1.3253
  328MOL0     H43242   6.831  10.346   0.415 -0.9753 -0.8518 -1.3296
  328MOL0     H43243   6.740  10.338   0.184 -0.9266  0.0522  1.8533
  328MOL0     H43244   6.920  10.353   0.174 -1.4970 -1.0858 -1.2735
  328MOL0     H43245   6.728  10.595   0.176 -1.0633 -2.3810  2.9337
  328MOL0     H43246   6.899  10.595   0.130 -1.5879  1.7028  0.7784
  328MOL0     H43247   6.693  10.430  -0.040  1.0173 -0.4855 -1.5716
  328MOL0     H43248   6.852  10.472  -0.074 -0.8962 -0.5921 -0.9241
  328MOL0     H43249   6.857  10.678  -0.236  0.6012 -1.9766  1.3775
  328MOL0     H43250   6.787  10.930  -0.286  0.6461 -1.0318  0.6989
  328MOL0     H43251   6.608  10.971  -0.300  0.9428  2.3112  0.7262
  328MOL0     H43252   6.580  10.808  -0.457 -0.1127  0.6465  1.5938
  328MOL0     H43253   6.748  10.748  -0.453 -0.4639 -0.7284  0.3105
  328MOL0     H43254   6.636  11.004  -0.562 -0.9196 -0.8626 -2.7843
  328MOL0     H43255   6.812  10.986  -0.521  0.9613 -2.2800 -0.9490
  328MOL0     H43256   6.809  10.808  -0.682  0.4128  0.6535 -1.4236
  328MOL0     H43257   6.781  10.963  -0.757  1.7032 -0.7482  0.8327
  328MOL0     H43258   6.410  10.743  -0.885  0.3937 -2.8418  0.1881
  328MOL0     H43259   6.402  10.662  -1.112 -0.9121 -0.6141 -0.3185
  328MOL0     H43260   6.454  10.366  -1.510 -1.3553  0.5708  1.7580
  328MOL0     H43261   6.425  10.381  -1.751 -1.9208 -0.4814  1.3076
  328MOL0     H43262   6.527  10.749  -1.959  0.5448 -0.7117  1.0493
  328MOL0     H43263   6.352  10.738  -1.953  0.7146  0.0831  0.9782
  328MOL0     H43264   6.409  10.711  -2.195 -0.7163 -0.7634  0.4451
  328MOL0     H43265   6.350  10.561  -2.131 -0.4846  1.2440 -1.4819
  328MOL0     H43266   6.579  10.484  -2.106 -2.5717 -1.0475 -1.8825
  328MOL0     H43267   6.650  10.640  -2.165 -0.3273  1.0431 -1.2040
  328MOL0     H43268   6.500  10.442  -2.322 -1.9767  0.8709  0.1462
  328MOL0     H43269   6.505  10.618  -2.361  0.5666  0.7553 -1.2068
  328MOL0     H43270   6.743  10.433  -2.345 -0.0822 -0.3491 -1.2337
  328MOL0     H43271   6.755  10.610  -2.348 -0.2096  1.8550 -0.0294
  328MOL0     H43272   6.632  10.579  -2.592 -0.2550 -1.0810  0.7519
  328MOL0     H43273   6.638  10.407  -2.542 -1.0255  0.2103 -0.6204
  328MOL0     H43274   6.886  10.438  -2.525  0.4672  0.0956 -0.8754
  328MOL0     H43275   6.814  10.431  -2.686  2.8879 -0.7192  0.4982
  328MOL0     H43276   6.960  10.652  -2.550 -0.1568 -0.1516  0.5196
  328MOL0     H43277   6.810  10.691  -2.651 -1.2014 -2.9005  1.1963
  328MOL0     H43278   6.470  10.798  -1.750  0.3014 -1.0293  0.2040
  328MOL0     H43279   6.458  10.802  -1.507  1.9984  0.3537  0.1143
  328MOL0     H43280   6.818  10.788  -1.165 -0.5165 -1.2410 -1.8633
  328MOL0     H43281   6.819  10.877  -0.963  1.0742 -2.6371 -0.1945
  328MOL0     H43282   6.846  10.052   0.880  1.6474 -3.5947  1.9082
  328MOL0     H43283   6.888   9.948   1.091 -2.9468  1.2593  0.3238
  328MOL0     H43284   7.419   9.948   1.401  1.0251  1.1956 -0.9452
  328MOL0     H43285   7.493   9.956   1.642  0.1357  0.4581 -1.8412
  328MOL0     H43286   7.234   9.909   1.916 -2.8460 -0.7248  3.8463
  328MOL0     H43287   7.189  10.074   1.955  0.8313  0.3791 -0.2933
  328MOL0     H43288   7.350  10.104   2.107  1.1877 -0.0753 -0.6971
  328MOL0     H43289   7.248   9.965   2.156 -1.1121  0.3815 -3.4228
  328MOL0     H43290   7.387   9.794   2.089  0.5641 -0.2115  0.6038
  328MOL0     H43291   7.467   9.890   2.215  2.2342  2.1565 -0.4568
  328MOL0     H43292   7.562   9.897   1.907  1.2363  1.0410 -0.5992
  328MOL0     H43293   7.598  10.016   2.033 -1.0216  0.7613  2.2639
  328MOL0     H43294   7.835   9.677   2.159 -0.6193 -0.4753 -1.1343
  328MOL0     H43295   7.096  10.092   1.749 -2.3793 -1.6651 -2.2142
  328MOL0     H43296   7.029  10.067   1.512 -1.2586 -4.0623  1.7925
  329MOL0     O43297   8.000   1.062   5.846 -0.5428 -0.4986 -0.0196
  329MOL0     C43298   7.970   0.956   5.899 -0.0732  1.1726 -0.1201
  329MOL0     O43299   8.004   0.916   6.022  0.5078 -0.2271  0.7293
  329MOL0     C43300   8.091   1.003   6.080 -0.2892 -1.3111 -0.6963
  329MOL0     C43301   8.229   1.018   6.044  0.2754 -0.4461 -0.4190
  329MOL0     C43302   8.311   1.106   6.104  0.2488  0.5182  0.7432
  329MOL0     C43303   8.264   1.191   6.204 -0.2413 -0.0736  0.1630
  329MOL0     O43304   8.340   1.278   6.269 -0.4681 -0.8031 -0.0803
  329MOL0     C43305   8.474   1.316   6.252 -0.4983 -1.5040 -0.1671
  329MOL0     C43306   8.562   1.207   6.297 -0.1598  0.2729  0.6901
  329MOL0     C43307   8.709   1.261   6.290 -0.0959 -0.2907  0.2960
  329MOL0     C43308   8.814   1.156   6.340 -0.2116  0.1414  0.1346
  329MOL0     C43309   8.800   1.143   6.495  0.3391 -1.1375 -0.5957
  329MOL0     C43310   8.796   1.272   6.579  0.4775  0.1781 -0.6737
  329MOL0     C43311   8.821   1.239   6.725  0.1234  0.7071 -0.1065
  329MOL0     C43312   8.681   1.218   6.791  0.3679 -0.0664  0.4816
  329MOL0     N43313   8.608   1.346   6.798  0.0614  0.9132 -0.5484
  329MOL0     C43314   8.482   1.358   6.747  0.0705  0.7859  0.3820
  329MOL0     C43315   8.430   1.467   6.809 -0.3780 -0.2579  0.1483
  329MOL0     C43316   8.305   1.530   6.764  0.8824  0.4329 -0.0833
  329MOL0     C43317   8.192   1.504   6.862 -0.3794  0.4427 -1.2366
  329MOL0     C43318   8.220   1.569   7.004  0.5671 -0.5987  0.1329
  329MOL0     C43319   8.108   1.549   7.106 -0.1879  0.3599  0.1780
  329MOL0     O43320   8.159   1.595   7.232  0.4780 -0.3024 -0.4925
  329MOL0     C43321   8.083   1.581   7.341  0.3234  0.0311  0.3057
  329MOL0     C43322   7.966   1.498   7.337 -0.6981  0.8905 -0.0079
  329MOL0     C43323   7.882   1.475   7.452  0.3146  0.2702  1.3313
  329MOL0     C43324   7.919   1.538   7.574  0.5318  0.5174 -0.1898
  329MOL0     C43325   7.845   1.529   7.701  0.3380 -0.3287 -0.1295
  329MOL0     O43326   7.838   1.638   7.781 -0.7797  0.2627  0.4766
  329MOL0     C43327   7.735   1.640   7.866  0.5530 -0.2339  0.1984
  329MOL0     C43328   7.633   1.732   7.849  0.5269 -0.0752  0.2210
  329MOL0     C43329   7.524   1.750   7.932 -0.8492  0.3812  0.0261
  329MOL0     C43330   7.513   1.662   8.041 -0.1850  0.4286 -0.5917
  329MOL0     O43331   7.408   1.668   8.141  0.1293  0.8806  0.2164
  329MOL0     C43332   7.325   1.780   8.134 -0.7406 -0.2910  0.5648
  329MOL0     C43333   7.228   1.773   8.258 -0.0407  1.2304  0.4074
  329MOL0     C43334   7.181   1.624   8.300 -0.5760 -0.4239  0.3365
  329MOL0     C43335   7.076   1.627   8.411  0.3591  0.0598  0.6249
  329MOL0     C43336   6.997   1.491   8.404  0.5425 -0.2117 -0.2450
  329MOL0     C43337   6.876   1.496   8.506 -1.2181 -0.2405  0.6287
  329MOL0     C43338   6.834   1.353   8.557 -0.3798  0.0936  0.1361
  329MOL0     C43339   6.703   1.350   8.641  0.2026  0.3878 -0.9262
  329MOL0    Cl43340   6.709   1.186   8.694  0.4483  0.3058  0.0232
  329MOL0     C43341   7.614   1.568   8.055  1.3254  0.1970  0.4009
  329MOL0     C43342   7.723   1.553   7.975  0.6525  0.0049  0.1096
  329MOL0     O43343   7.767   1.428   7.711 -0.4483 -0.2569 -0.0628
  329MOL0     C43344   8.037   1.617   7.580  0.4351  0.4672  1.0786
  329MOL0     C43345   8.116   1.640   7.465 -0.3499  1.3910  0.1315
  329MOL0     N43346   8.536   1.518   6.886  0.3383 -0.3200 -0.7139
  329MOL0     N43347   8.630   1.434   6.892 -0.3011 -0.1675  0.1603
  329MOL0     C43348   8.129   1.181   6.251  0.1422  0.2146  0.4402
  329MOL0     C43349   8.051   1.079   6.185  1.0201  0.5571 -1.3422
  329MOL0     C43350   7.900   0.856   5.815  0.2792  1.0676 -0.1030
  329MOL0     C43351   7.959   0.806   5.701 -0.6525 -0.6672  0.6286
  329MOL0     C43352   7.896   0.695   5.639 -0.6529 -0.6069  0.7323
  329MOL0     C43353   7.768   0.646   5.676 -0.2962 -0.3240  0.0892
  329MOL0     O43354   7.717   0.542   5.601 -0.1098  0.5826 -0.1115
  329MOL0     C43355   7.583   0.525   5.641 -0.6065 -1.0062  1.0348
  329MOL0     C43356   7.527   0.415   5.544 -0.5539  0.0501  0.3467
  329MOL0     C43357   7.597   0.289   5.588 -0.6073  1.4633 -0.6815
  329MOL0     C43358   7.517   0.175   5.518 -0.4727 -0.0124  0.1126
  329MOL0     C43359   7.546   0.142   5.374 -0.0072 -0.2658  0.0196
  329MOL0     C43360   7.566   0.118   5.261 -0.6475 -1.1322  0.3560
  329MOL0     C43361   7.710   0.700   5.792  0.4165  0.3188 -0.6845
  329MOL0     C43362   7.781   0.801   5.858  0.2536 -1.2933 -0.4994
  329MOL0     H43363   8.265   0.949   5.969 -0.8924  1.6571 -3.0534
  329MOL0     H43364   8.412   1.091   6.067 -0.0060 -2.4314  1.0322
  329MOL0     H43365   8.486   1.397   6.324 -1.5584 -2.9544  1.7304
  329MOL0     H43366   8.496   1.342   6.148 -2.2944 -4.9267 -1.5784
  329MOL0     H43367   8.534   1.121   6.235  2.6741  1.5794 -2.7062
  329MOL0     H43368   8.547   1.175   6.401  5.5968 -0.2455  1.6720
  329MOL0     H43369   8.704   1.351   6.351 -1.4682  0.1152 -0.3793
  329MOL0     H43370   8.732   1.295   6.188  0.2998  0.7487  0.7201
  329MOL0     H43371   8.799   1.060   6.291 -1.6770 -0.0918  0.9752
  329MOL0     H43372   8.915   1.189   6.313 -1.0014  1.6698 -1.0912
  329MOL0     H43373   8.890   1.097   6.537  2.1645  0.8889 -2.0586
  329MOL0     H43374   8.712   1.084   6.521  0.2296  0.0999  2.1937
  329MOL0     H43375   8.706   1.331   6.561  0.7918  0.2819 -1.9862
  329MOL0     H43376   8.875   1.338   6.541  0.2389  0.8272 -0.0852
  329MOL0     H43377   8.883   1.151   6.743 -0.1744 -0.0418 -2.3977
  329MOL0     H43378   8.884   1.322   6.761  1.2702  0.0550 -0.5479
  329MOL0     H43379   8.700   1.168   6.886  1.1748 -2.4910 -0.8640
  329MOL0     H43380   8.623   1.138   6.745  0.6414  0.6529 -1.2106
  329MOL0     H43381   8.444   1.307   6.659  1.0585  1.1186 -0.2495
  329MOL0     H43382   8.273   1.488   6.668 -1.2137  1.9135 -0.0987
  329MOL0     H43383   8.320   1.638   6.758 -0.1682  0.7232  1.7253
  329MOL0     H43384   8.191   1.396   6.879  0.4164  0.1647 -2.7999
  329MOL0     H43385   8.093   1.528   6.824 -1.9621 -0.5420  1.8917
  329MOL0     H43386   8.315   1.538   7.049  0.4202 -2.3639 -0.7185
  329MOL0     H43387   8.216   1.678   6.997 -2.1785 -0.3634  3.1363
  329MOL0     H43388   8.087   1.442   7.111 -1.0837  0.4082 -1.5415
  329MOL0     H43389   8.015   1.603   7.086 -0.4571 -0.0554  0.2985
  329MOL0     H43390   7.933   1.451   7.245  0.2099  0.2465 -0.0177
  329MOL0     H43391   7.793   1.414   7.458  0.0367  0.4587 -0.2919
  329MOL0     H43392   7.652   1.811   7.777  0.3100  1.0632  1.3764
  329MOL0     H43393   7.453   1.833   7.935 -2.4524 -0.9624  1.1881
  329MOL0     H43394   7.276   1.770   8.036  3.2155 -0.6458 -1.5962
  329MOL0     H43395   7.392   1.867   8.141  1.2434 -1.4686 -1.9953
  329MOL0     H43396   7.138   1.824   8.222 -0.7931 -1.0014 -1.1058
  329MOL0     H43397   7.273   1.825   8.343  0.1426  4.0976 -1.3196
  329MOL0     H43398   7.268   1.561   8.319  1.2328  2.5607  2.5867
  329MOL0     H43399   7.140   1.579   8.209 -2.6274 -1.6413  1.7592
  329MOL0     H43400   7.124   1.646   8.507 -2.2085  1.8780  1.6704
  329MOL0     H43401   7.010   1.712   8.389  0.1783 -0.3954 -0.7060
  329MOL0     H43402   7.069   1.413   8.430  2.4470  1.8484  0.9276
  329MOL0     H43403   6.960   1.480   8.302 -0.1892 -0.2376  0.0114
  329MOL0     H43404   6.789   1.543   8.458 -1.0816 -0.2562  0.3655
  329MOL0     H43405   6.909   1.551   8.594  0.9365 -1.1180  0.4342
  329MOL0     H43406   6.828   1.281   8.474  1.6544 -1.7570  1.4831
  329MOL0     H43407   6.926   1.324   8.608  0.7287 -2.4671 -2.9591
  329MOL0     H43408   6.608   1.391   8.603 -0.2353  2.4989  2.0912
  329MOL0     H43409   6.720   1.407   8.732  1.5086  0.1581 -1.0137
  329MOL0     H43410   7.609   1.508   8.145 -4.5774 -0.0100  0.3262
  329MOL0     H43411   7.795   1.475   7.993  0.4782  0.1751  1.6948
  329MOL0     H43412   8.063   1.667   7.673  0.6938  0.9646  0.7453
  329MOL0     H43413   8.208   1.692   7.491  1.1107 -1.9897  2.4931
  329MOL0     H43414   8.088   1.247   6.327 -0.9605  0.3750 -0.2784
  329MOL0     H43415   7.955   1.056   6.230  2.2921 -0.0917  1.2409
  329MOL0     H43416   8.057   0.841   5.671 -0.1558  0.3437  3.2022
  329MOL0     H43417   7.949   0.653   5.554 -0.5933  1.6736 -0.4395
  329MOL0     H43418   7.542   0.618   5.601  1.6062  0.3181  1.7172
  329MOL0     H43419   7.553   0.501   5.744 -1.1211 -0.8219  0.9318
  329MOL0     H43420   7.418   0.405   5.547 -0.4872 -0.7087  0.5633
  329MOL0     H43421   7.547   0.438   5.439  4.9925  0.9861  1.2822
  329MOL0     H43422   7.578   0.269   5.694  0.6743 -1.1278 -0.8641
  329MOL0     H43423   7.704   0.289   5.565 -0.0358  0.2041  1.5947
  329MOL0     H43424   7.547   0.085   5.572  0.8757 -0.3064 -1.0692
  329MOL0     H43425   7.409   0.193   5.520 -0.4448  0.2523 -0.7101
  329MOL0     H43426   7.564   0.097   5.156 -4.9045  3.5205 -0.9415
  329MOL0     H43427   7.613   0.671   5.831  1.0299 -1.3593 -0.3411
  329MOL0     H43428   7.729   0.852   5.939  3.7834  0.5026  0.8025
  330MOL0     O43429   8.759   4.823   0.662  0.2529 -0.2068  0.8187
  330MOL0     C43430   8.727   4.939   0.641 -0.3161 -0.0737 -0.0582
  330MOL0     O43431   8.711   5.027   0.734  0.5944  1.1458 -0.3807
  330MOL0     C43432   8.667   4.992   0.865 -0.4071 -0.2893 -0.5442
  330MOL0     C43433   8.732   4.887   0.940 -0.3289 -0.1772  0.4275
  330MOL0     C43434   8.701   4.870   1.074 -0.4307 -0.2798 -0.1704
  330MOL0     C43435   8.623   4.963   1.145 -0.7013 -0.4283  0.1958
  330MOL0     O43436   8.593   4.939   1.273 -0.0864  0.6879 -0.7811
  330MOL0     C43437   8.473   4.985   1.335  0.5026 -1.0395  0.3124
  330MOL0     C43438   8.464   4.891   1.460 -0.6132  0.3501  0.6709
  330MOL0     C43439   8.408   4.749   1.421 -0.5599 -0.0899  0.4012
  330MOL0     C43440   8.354   4.653   1.534 -0.6255  0.2878 -0.7352
  330MOL0     C43441   8.305   4.521   1.481 -0.5233  1.1794 -0.6894
  330MOL0     C43442   8.230   4.455   1.598 -0.1688  0.1529  0.3310
  330MOL0     C43443   8.196   4.306   1.566  0.1060 -0.0603  0.0425
  330MOL0     C43444   8.132   4.231   1.687 -0.2038 -0.2603 -1.0915
  330MOL0     N43445   8.084   4.098   1.652  0.3797  0.5460  0.2232
  330MOL0     C43446   8.162   3.983   1.630 -0.5779  0.5895 -0.2784
  330MOL0     C43447   8.069   3.891   1.593 -0.5307  0.1073  0.1504
  330MOL0     C43448   8.099   3.754   1.558 -0.3204 -0.4472 -0.3672
  330MOL0     C43449   8.108   3.656   1.678  1.3128 -0.7961 -0.5621
  330MOL0     C43450   7.975   3.572   1.695  1.1956 -0.7230  0.1330
  330MOL0     C43451   7.983   3.440   1.614  0.7308  0.0183  0.5152
  330MOL0     O43452   7.883   3.358   1.670  0.1009 -0.6203 -0.1216
  330MOL0     C43453   7.800   3.289   1.582  0.6477 -0.2595 -0.4424
  330MOL0     C43454   7.668   3.274   1.611  0.1274  0.8745 -1.0181
  330MOL0     C43455   7.573   3.206   1.528  0.2149 -0.1723 -0.6966
  330MOL0     C43456   7.618   3.147   1.413  0.5080  0.6175  0.5391
  330MOL0     C43457   7.527   3.090   1.318 -0.2930  0.1488  0.0366
  330MOL0     O43458   7.578   2.976   1.257  0.0620 -0.0268 -0.2391
  330MOL0     C43459   7.545   2.943   1.125 -1.2436 -1.0600  0.7103
  330MOL0     C43460   7.576   2.809   1.101 -0.6389 -0.8984 -1.3357
  330MOL0     C43461   7.545   2.749   0.981  0.5578  0.0964 -0.1683
  330MOL0     C43462   7.494   2.823   0.874  0.0907 -0.5247 -0.2365
  330MOL0     O43463   7.489   2.769   0.749 -0.1121 -0.5951 -0.2482
  330MOL0     C43464   7.411   2.647   0.736  0.2539  0.5922  0.2660
  330MOL0     C43465   7.441   2.569   0.610  0.1674 -0.3372  0.3773
  330MOL0     C43466   7.565   2.493   0.622  0.0573  0.1755 -0.5889
  330MOL0     C43467   7.571   2.375   0.526  0.6215 -0.1989  0.0701
  330MOL0     C43468   7.698   2.293   0.539 -0.1917 -0.7281 -0.0965
  330MOL0     C43469   7.706   2.200   0.416 -0.6458 -0.0309  0.2593
  330MOL0     C43470   7.823   2.097   0.401 -0.4298  0.4972  0.7178
  330MOL0     C43471   7.956   2.132   0.438  0.0470 -0.7664 -0.0043
  330MOL0    Cl43472   8.059   1.986   0.439 -0.5352 -0.0529 -0.0310
  330MOL0     C43473   7.477   2.962   0.893  0.2260  0.3234 -0.2018
  330MOL0     C43474   7.501   3.021   1.020  0.5587  0.0568 -0.1966
  330MOL0     O43475   7.423   3.149   1.293  0.7137 -0.6244 -0.1260
  330MOL0     C43476   7.755   3.163   1.379  0.3284 -0.8046 -1.4862
  330MOL0     C43477   7.846   3.233   1.468  0.4278 -0.1993  1.0112
  330MOL0     N43478   7.934   3.943   1.608 -0.1818 -0.1855 -0.1088
  330MOL0     N43479   7.953   4.070   1.638 -0.2799  0.0037 -0.5282
  330MOL0     C43480   8.565   5.071   1.077  0.0419 -0.4453 -0.0821
  330MOL0     C43481   8.596   5.090   0.933 -0.4725 -0.1256 -0.7801
  330MOL0     C43482   8.718   4.981   0.493  0.1464 -0.6639  0.3122
  330MOL0     C43483   8.729   5.120   0.464 -0.2207 -0.2508 -0.0671
  330MOL0     C43484   8.716   5.156   0.326  0.5073 -0.1151  0.0579
  330MOL0     C43485   8.697   5.069   0.217 -0.7450  0.4481  0.1540
  330MOL0     O43486   8.672   5.094   0.086  0.3151  0.6571 -0.2517
  330MOL0     C43487   8.742   5.208   0.021  0.1398  0.3811  0.4948
  330MOL0     C43488   8.630   5.311  -0.005  0.8824 -0.1432  0.1992
  330MOL0     C43489   8.664   5.389  -0.126  0.5875  0.5780  0.3633
  330MOL0     C43490   8.598   5.522  -0.139 -0.3200  0.0666  0.1353
  330MOL0     C43491   8.626   5.571  -0.270 -0.0042  0.6466 -0.2691
  330MOL0     C43492   8.656   5.624  -0.377  0.0484  0.5415 -0.5031
  330MOL0     C43493   8.689   4.933   0.259  0.3724 -0.0411 -0.0285
  330MOL0     C43494   8.708   4.892   0.390  0.0798  0.6993 -0.0978
  330MOL0     H43495   8.795   4.815   0.889 -0.0591  0.7220 -0.5586
  330MOL0     H43496   8.738   4.791   1.139 -3.0479  0.2115  2.1087
  330MOL0     H43497   8.384   4.961   1.277  0.3788  1.7962 -0.7987
  330MOL0     H43498   8.479   5.090   1.364  1.2919 -1.6770  2.7776
  330MOL0     H43499   8.387   4.930   1.527 -2.7755 -0.0830 -1.3992
  330MOL0     H43500   8.560   4.875   1.509  0.1113 -0.2656 -0.8906
  330MOL0     H43501   8.484   4.695   1.365  2.2243  3.4914  0.3103
  330MOL0     H43502   8.322   4.766   1.355  0.8480 -1.8432 -2.0404
  330MOL0     H43503   8.439   4.644   1.603 -0.6110  2.6969 -0.3491
  330MOL0     H43504   8.274   4.705   1.588 -0.2079 -2.3145  2.7818
  330MOL0     H43505   8.379   4.457   1.432 -0.7310 -2.6407  3.2962
  330MOL0     H43506   8.227   4.526   1.404 -1.1319 -1.3888 -0.3427
  330MOL0     H43507   8.147   4.517   1.635 -0.9226 -1.2822  1.1520
  330MOL0     H43508   8.294   4.459   1.686 -0.6731 -1.9060  0.8474
  330MOL0     H43509   8.125   4.294   1.483 -2.1385  0.1161  1.8183
  330MOL0     H43510   8.285   4.248   1.543  1.8290  1.3198  2.7454
  330MOL0     H43511   8.052   4.289   1.732  0.4994  1.4273 -1.9152
  330MOL0     H43512   8.212   4.204   1.757 -1.3898 -1.6727 -0.2352
  330MOL0     H43513   8.270   3.971   1.626 -0.3395  2.5368 -0.9284
  330MOL0     H43514   8.193   3.747   1.502  1.1626 -0.3383  1.9588
  330MOL0     H43515   8.013   3.717   1.503  0.3534 -0.9329 -1.1226
  330MOL0     H43516   8.144   3.720   1.759  3.6677 -0.5226 -1.7349
  330MOL0     H43517   8.177   3.577   1.648  1.5030 -0.1794 -1.8171
  330MOL0     H43518   7.965   3.547   1.801 -0.3713 -3.2583 -0.5268
  330MOL0     H43519   7.888   3.633   1.671  2.5076  1.2610  0.1461
  330MOL0     H43520   8.077   3.386   1.627  1.7088  1.7519  0.9404
  330MOL0     H43521   7.975   3.453   1.506 -0.1511  0.1158  0.5871
  330MOL0     H43522   7.639   3.326   1.702 -2.6181 -1.1752 -0.5643
  330MOL0     H43523   7.470   3.225   1.557  0.5152  0.6519 -0.1286
  330MOL0     H43524   7.621   2.750   1.180 -0.2487  1.6642  0.4949
  330MOL0     H43525   7.559   2.642   0.970 -0.0546  0.2501 -3.7063
  330MOL0     H43526   7.313   2.690   0.716  1.2585  1.9694 -2.2240
  330MOL0     H43527   7.410   2.589   0.829  1.7893  0.1624  0.0514
  330MOL0     H43528   7.442   2.637   0.524  3.4256 -1.0252 -0.2484
  330MOL0     H43529   7.361   2.502   0.577 -0.4695  0.4332  0.3086
  330MOL0     H43530   7.576   2.448   0.722  0.2037  2.1216  0.3066
  330MOL0     H43531   7.646   2.563   0.601  3.0081 -3.3674 -2.2440
  330MOL0     H43532   7.484   2.308   0.524 -0.7560  1.5365 -1.2604
  330MOL0     H43533   7.573   2.421   0.427 -0.9308  1.6122  0.8031
  330MOL0     H43534   7.697   2.236   0.633  0.5740  2.1918  1.8223
  330MOL0     H43535   7.785   2.357   0.557 -2.7148  2.5375  1.6236
  330MOL0     H43536   7.720   2.267   0.330 -3.7012 -1.8674 -1.8719
  330MOL0     H43537   7.613   2.147   0.398 -0.4871 -0.2391  0.0569
  330MOL0     H43538   7.789   2.016   0.466 -0.2471 -0.9354 -0.8954
  330MOL0     H43539   7.829   2.053   0.301 -3.5963  2.5597 -0.5538
  330MOL0     H43540   7.961   2.184   0.534  0.0940  0.4481 -0.6375
  330MOL0     H43541   8.002   2.197   0.362 -0.1211 -2.0394 -1.2339
  330MOL0     H43542   7.439   3.023   0.812 -0.5589 -0.0116 -0.0992
  330MOL0     H43543   7.484   3.127   1.034 -1.9293 -0.3205  0.1324
  330MOL0     H43544   7.800   3.124   1.288  3.4958 -2.5073  0.6320
  330MOL0     H43545   7.953   3.230   1.447  0.1520  0.0026 -0.4856
  330MOL0     H43546   8.482   5.133   1.109 -1.4678 -1.0224 -2.6573
  330MOL0     H43547   8.563   5.175   0.874 -2.6618 -2.2444 -2.8375
  330MOL0     H43548   8.732   5.191   0.546  3.2651 -2.3233  1.7928
  330MOL0     H43549   8.690   5.258   0.301  1.6005 -0.0718 -0.9513
  330MOL0     H43550   8.796   5.181  -0.070 -0.6879  4.2142 -1.3480
  330MOL0     H43551   8.816   5.249   0.090  1.8626  0.9497 -1.5722
  330MOL0     H43552   8.535   5.264  -0.031 -1.2930  3.8361  0.3103
  330MOL0     H43553   8.621   5.381   0.078 -2.3448 -0.3663  0.1606
  330MOL0     H43554   8.634   5.325  -0.210 -4.4829  2.0614  0.7049
  330MOL0     H43555   8.772   5.404  -0.117  0.7101  0.1764 -0.3171
  330MOL0     H43556   8.488   5.521  -0.138 -0.3175 -0.6330  0.1961
  330MOL0     H43557   8.630   5.588  -0.058 -0.6518  3.9006 -2.5662
  330MOL0     H43558   8.683   5.665  -0.472 -0.3544  0.1416 -0.7922
  330MOL0     H43559   8.666   4.860   0.183  0.4498  0.1127 -0.2022
  330MOL0     H43560   8.707   4.789   0.423 -0.5457  1.2995  1.9044
  331MOL0     O43561   1.019   6.532   4.438 -0.0878 -0.4391  0.1173
  331MOL0     C43562   0.925   6.566   4.503 -0.1934 -0.1219 -0.0636
  331MOL0     O43563   0.799   6.571   4.467  0.0062  0.0170  0.2019
  331MOL0     C43564   0.751   6.515   4.351  1.1135 -0.7495  0.2254
  331MOL0     C43565   0.637   6.573   4.294  0.4526  0.2021  0.3425
  331MOL0     C43566   0.566   6.505   4.183 -0.4022 -1.0190  0.0493
  331MOL0     C43567   0.618   6.396   4.132 -0.0163 -0.9534  0.0051
  331MOL0     O43568   0.562   6.332   4.023 -0.0029 -0.1860  0.7187
  331MOL0     C43569   0.438   6.380   3.969  0.0033  0.1287  0.1594
  331MOL0     C43570   0.328   6.321   4.050 -0.4575  0.2535 -0.3111
  331MOL0     C43571   0.190   6.352   4.003 -1.0382  0.3518  0.9107
  331MOL0     C43572   0.079   6.350   4.115 -0.8439  0.0033  0.7819
  331MOL0     C43573   0.078   6.207   4.190  0.3032  0.3669  0.0663
  331MOL0     C43574   0.039   6.094   4.092  0.5978 -0.7209 -0.4169
  331MOL0     C43575  -0.043   5.989   4.175  0.3663 -0.4500 -0.7129
  331MOL0     C43576  -0.108   5.880   4.091 -0.1111  0.6082 -0.6563
  331MOL0     N43577  -0.004   5.801   4.025  0.4278  0.3360  0.4526
  331MOL0     C43578   0.045   5.685   4.071 -0.0185  1.3008  0.4952
  331MOL0     C43579   0.109   5.625   3.970  0.0018  0.8106  0.8686
  331MOL0     C43580   0.201   5.507   3.980  0.3056  0.4632  0.1982
  331MOL0     C43581   0.114   5.381   4.000 -0.4797  0.0892  0.2725
  331MOL0     C43582   0.040   5.332   3.870 -0.9841  0.2957 -0.1445
  331MOL0     C43583  -0.094   5.402   3.847  0.1656  0.5975 -0.1553
  331MOL0     O43584  -0.184   5.386   3.960  1.1824 -1.1104  0.3082
  331MOL0     C43585  -0.265   5.272   3.951  0.4387 -0.4118 -0.8097
  331MOL0     C43586  -0.261   5.182   4.059 -0.4633 -0.0230 -0.6189
  331MOL0     C43587  -0.336   5.067   4.060  0.0946  0.4414 -0.9765
  331MOL0     C43588  -0.430   5.039   3.957 -0.3274  0.5906 -0.3907
  331MOL0     C43589  -0.543   4.943   3.973  0.4557  0.4660  0.2680
  331MOL0     O43590  -0.647   4.930   3.887 -0.7130 -0.6727  0.1058
  331MOL0     C43591  -0.729   4.821   3.879 -0.5615  0.9685 -0.8607
  331MOL0     C43592  -0.859   4.823   3.928 -0.4728  0.7491 -0.1190
  331MOL0     C43593  -0.947   4.717   3.901  0.1252  0.5406  0.5653
  331MOL0     C43594  -0.884   4.598   3.837  0.1201  0.3018 -0.9449
  331MOL0     O43595  -0.932   4.470   3.848 -0.4521  0.1908 -0.0768
  331MOL0     C43596  -0.996   4.435   3.967  0.3374  0.2817  0.2618
  331MOL0     C43597  -1.030   4.282   3.953  0.2045  0.0310 -0.5129
  331MOL0     C43598  -1.114   4.236   4.069 -0.2345 -0.2491 -0.1666
  331MOL0     C43599  -1.171   4.096   4.052  0.1187 -1.2041 -0.7466
  331MOL0     C43600  -1.206   4.030   4.179  0.2484  0.7461  0.4109
  331MOL0     C43601  -1.332   4.075   4.247 -0.1578 -0.1335  0.6795
  331MOL0     C43602  -1.382   3.971   4.346  0.5122  0.0530 -0.5857
  331MOL0     C43603  -1.496   4.025   4.431 -0.2131  0.5421  0.3822
  331MOL0    Cl43604  -1.578   3.886   4.497  0.0593  0.3188 -0.4809
  331MOL0     C43605  -0.750   4.599   3.790 -1.1291 -0.6855 -0.6839
  331MOL0     C43606  -0.670   4.709   3.818  0.6946  0.4697  0.1225
  331MOL0     O43607  -0.538   4.868   4.077 -0.1567 -0.8189  0.6170
  331MOL0     C43608  -0.443   5.137   3.866 -0.5487  1.1833  0.1847
  331MOL0     C43609  -0.360   5.248   3.851  1.3441 -0.1134 -0.5955
  331MOL0     N43610   0.107   5.723   3.868 -0.0428 -0.3830 -0.2318
  331MOL0     N43611   0.048   5.825   3.906 -0.4364 -0.0451 -0.6817
  331MOL0     C43612   0.730   6.337   4.194  0.1620  0.4073 -0.0421
  331MOL0     C43613   0.796   6.390   4.307  0.6409 -0.1653 -0.5286
  331MOL0     C43614   0.950   6.619   4.630  0.1442 -0.5048  0.4202
  331MOL0     C43615   0.845   6.675   4.706  0.3416 -0.9487 -0.1411
  331MOL0     C43616   0.862   6.727   4.835  0.0671 -0.3380  0.0987
  331MOL0     C43617   0.991   6.717   4.904  0.2981  0.2875  0.5602
  331MOL0     O43618   1.026   6.743   5.031 -0.2735  1.0858  0.2190
  331MOL0     C43619   0.933   6.789   5.132 -0.2956  0.1145  0.3782
  331MOL0     C43620   0.984   6.807   5.277 -0.4976  0.5320 -0.0426
  331MOL0     C43621   1.083   6.922   5.286 -0.2388 -0.8622 -0.6767
  331MOL0     C43622   1.114   6.949   5.435 -0.0560 -0.6352 -0.5910
  331MOL0     C43623   1.182   6.837   5.502  0.7884 -0.0355  1.2136
  331MOL0     C43624   1.249   6.741   5.537  0.3395 -0.0144  0.4398
  331MOL0     C43625   1.087   6.675   4.820 -0.0231  0.4025  0.4646
  331MOL0     C43626   1.071   6.610   4.697  0.3213 -0.0929  0.1591
  331MOL0     H43627   0.590   6.662   4.335 -2.4573 -1.4230  0.8438
  331MOL0     H43628   0.470   6.541   4.146 -0.0867  1.7013  1.5391
  331MOL0     H43629   0.437   6.355   3.863 -0.8966 -1.0099  0.4229
  331MOL0     H43630   0.433   6.489   3.961  1.3092  0.1252 -1.2189
  331MOL0     H43631   0.342   6.352   4.154 -0.5072 -2.9480  0.7646
  331MOL0     H43632   0.333   6.213   4.068 -2.3623  0.4510  1.9461
  331MOL0     H43633   0.165   6.278   3.927 -2.0874 -2.2111  3.5496
  331MOL0     H43634   0.184   6.457   3.973 -1.1477  0.1296  0.1208
  331MOL0     H43635   0.098   6.434   4.182  1.4121  3.0358 -3.2138
  331MOL0     H43636  -0.018   6.366   4.068  1.0070  1.6911 -2.8475
  331MOL0     H43637   0.003   6.221   4.268  3.1882 -1.8054  3.5101
  331MOL0     H43638   0.169   6.172   4.239 -0.2053 -2.4104 -0.7945
  331MOL0     H43639   0.132   6.047   4.055  0.9833 -0.0172 -0.3508
  331MOL0     H43640  -0.026   6.129   4.012  1.9615  0.2421 -1.1391
  331MOL0     H43641   0.019   5.960   4.261 -1.4967 -4.2974 -0.4597
  331MOL0     H43642  -0.121   6.040   4.233  1.4965 -2.0417  2.4829
  331MOL0     H43643  -0.171   5.911   4.006  1.0088 -2.8802 -3.0002
  331MOL0     H43644  -0.165   5.813   4.156  1.0830  1.3557  1.2497
  331MOL0     H43645   0.024   5.628   4.161 -3.1927 -1.1091 -1.5509
  331MOL0     H43646   0.271   5.523   4.062  2.3728 -0.5656 -1.2573
  331MOL0     H43647   0.260   5.494   3.888 -3.4744 -0.2112 -2.3585
  331MOL0     H43648   0.043   5.404   4.080  0.6308 -0.0561  1.3329
  331MOL0     H43649   0.174   5.303   4.047 -2.9440 -0.8777  2.0646
  331MOL0     H43650   0.104   5.356   3.785  1.6827  0.7380  1.8619
  331MOL0     H43651   0.023   5.224   3.877 -1.4807  0.3082 -0.9577
  331MOL0     H43652  -0.135   5.362   3.754  0.9958  0.6172 -0.5440
  331MOL0     H43653  -0.069   5.508   3.845 -0.1336  0.7103  1.1632
  331MOL0     H43654  -0.193   5.201   4.142 -2.2879 -3.9377  2.0824
  331MOL0     H43655  -0.308   5.002   4.142  3.4014  3.4215  0.5131
  331MOL0     H43656  -0.891   4.891   4.006 -0.4158 -2.6909  3.1919
  331MOL0     H43657  -1.053   4.721   3.921 -0.0359  1.2293 -0.3955
  331MOL0     H43658  -1.090   4.487   3.989 -0.9017 -1.2282 -1.1339
  331MOL0     H43659  -0.931   4.457   4.052 -1.7475  2.0740  1.4941
  331MOL0     H43660  -0.939   4.224   3.934  0.8728  0.4244  1.2777
  331MOL0     H43661  -1.097   4.271   3.867 -0.1416  0.6409 -0.3255
  331MOL0     H43662  -1.203   4.299   4.086 -0.1345 -0.0624 -0.3236
  331MOL0     H43663  -1.050   4.242   4.157  1.4545 -0.2944 -1.3488
  331MOL0     H43664  -1.273   4.095   4.012 -0.3440 -0.3021  0.3554
  331MOL0     H43665  -1.105   4.023   4.004 -0.1406 -1.7978 -0.2166
  331MOL0     H43666  -1.120   4.026   4.246  0.0236  3.2158  0.9578
  331MOL0     H43667  -1.229   3.928   4.148 -2.5360  1.4167 -0.0333
  331MOL0     H43668  -1.406   4.098   4.170  1.9117 -2.5821 -2.2869
  331MOL0     H43669  -1.291   4.165   4.293  1.8437 -1.1405  0.9579
  331MOL0     H43670  -1.411   3.879   4.294  2.4264 -0.1569 -1.3666
  331MOL0     H43671  -1.311   3.950   4.427  2.9451  1.2238 -2.3369
  331MOL0     H43672  -1.571   4.085   4.379  1.3634  1.8720 -0.4615
  331MOL0     H43673  -1.461   4.101   4.503 -0.5546  3.0908 -1.9571
  331MOL0     H43674  -0.685   4.516   3.763  4.7951  2.9657  0.4511
  331MOL0     H43675  -0.562   4.692   3.820  0.2802 -2.4935  1.3117
  331MOL0     H43676  -0.538   5.142   3.813  0.1663  0.9956 -1.1608
  331MOL0     H43677  -0.374   5.302   3.758  0.1381 -1.7043 -1.4028
  331MOL0     H43678   0.770   6.241   4.164 -1.0418 -0.3550  0.6950
  331MOL0     H43679   0.873   6.331   4.355  0.5127 -1.6274 -2.0184
  331MOL0     H43680   0.741   6.678   4.674 -1.0706  1.1486  3.9063
  331MOL0     H43681   0.786   6.791   4.879  0.5172  1.1058 -1.1516
  331MOL0     H43682   0.848   6.725   5.153 -0.6003  0.6237  0.7297
  331MOL0     H43683   0.888   6.880   5.092 -3.1252 -0.8609  1.1503
  331MOL0     H43684   0.904   6.828   5.349  3.1237  1.6096  4.0823
  331MOL0     H43685   1.023   6.709   5.305 -0.0503  1.3910  2.6223
  331MOL0     H43686   1.041   7.009   5.235  2.0449  2.2477  2.2179
  331MOL0     H43687   1.170   6.908   5.221  0.1770  4.9042 -1.8921
  331MOL0     H43688   1.172   7.043   5.436  0.6238 -1.0372  1.3563
  331MOL0     H43689   1.016   6.955   5.482  1.7670 -3.7435  4.3409
  331MOL0     H43690   1.307   6.666   5.587  1.3204  0.1359 -0.4296
  331MOL0     H43691   1.186   6.676   4.865  0.3754  1.6000 -0.3906
  331MOL0     H43692   1.161   6.559   4.663  0.6587 -1.8227  3.2583
  332MOL0     O43693   7.911  10.703   4.791  0.0320  0.1047 -0.0353
  332MOL0     C43694   7.808  10.724   4.723 -0.3359 -0.4679  0.5058
  332MOL0     O43695   7.764  10.654   4.620 -0.4719  0.1603  0.1235
  332MOL0     C43696   7.842  10.549   4.581 -0.4742 -0.5259  0.4344
  332MOL0     C43697   7.901  10.545   4.452 -0.6596 -0.0181  0.5393
  332MOL0     C43698   7.960  10.423   4.403 -0.0006 -0.2379 -0.8971
  332MOL0     C43699   7.964  10.306   4.484 -0.0249  0.3574 -0.1576
  332MOL0     O43700   8.015  10.191   4.430  0.6786 -0.3147  0.4813
  332MOL0     C43701   8.039  10.080   4.521 -0.3524  1.0681 -0.5722
  332MOL0     C43702   8.118   9.978   4.446 -0.3061 -0.2703 -0.5631
  332MOL0     C43703   8.096   9.834   4.497 -0.0103 -0.3598  0.2945
  332MOL0     C43704   8.160   9.810   4.636  0.7584  0.2313 -0.8134
  332MOL0     C43705   8.208   9.672   4.647  0.3377 -0.1051 -0.2554
  332MOL0     C43706   8.342   9.649   4.569 -0.1923  0.1473  1.1627
  332MOL0     C43707   8.359   9.518   4.487 -0.1584  0.0490 -0.2775
  332MOL0     C43708   8.475   9.518   4.392 -1.0762 -0.3264  0.1663
  332MOL0     N43709   8.460   9.622   4.292 -0.3097  0.8662  0.7371
  332MOL0     C43710   8.378   9.602   4.181  0.3698 -0.1116 -1.0310
  332MOL0     C43711   8.412   9.696   4.088  0.0375  0.0270 -0.3661
  332MOL0     C43712   8.352   9.722   3.955  0.3837  0.3658  0.0025
  332MOL0     C43713   8.457   9.672   3.856 -0.6080 -0.1971  0.2119
  332MOL0     C43714   8.580   9.764   3.850 -0.1399  0.1760  0.4484
  332MOL0     C43715   8.661   9.755   3.725 -0.1752  0.2191  0.0317
  332MOL0     O43716   8.679   9.620   3.680 -0.5585  0.3576  0.3319
  332MOL0     C43717   8.698   9.607   3.548  0.4898  0.7389  0.0291
  332MOL0     C43718   8.603   9.519   3.494  0.5894 -0.1545  1.1793
  332MOL0     C43719   8.592   9.516   3.349  0.1889 -0.2391  0.4095
  332MOL0     C43720   8.688   9.577   3.269 -0.0739  0.6902  0.8705
  332MOL0     C43721   8.681   9.552   3.121  0.6904 -0.5993 -0.1338
  332MOL0     O43722   8.577   9.482   3.078  0.1815 -0.2514  0.0811
  332MOL0     C43723   8.543   9.494   2.945  0.4733 -0.2650 -0.5127
  332MOL0     C43724   8.448   9.596   2.908  1.0248 -1.0372 -0.7649
  332MOL0     C43725   8.428   9.617   2.769  0.2948 -0.6721 -0.9651
  332MOL0     C43726   8.493   9.534   2.671  0.7407 -1.0349 -0.1998
  332MOL0     O43727   8.460   9.570   2.539  0.2020  0.9636  0.5117
  332MOL0     C43728   8.568   9.554   2.445 -0.9306  0.1047 -0.9102
  332MOL0     C43729   8.512   9.578   2.307 -0.1533  0.4598 -1.3896
  332MOL0     C43730   8.624   9.576   2.202 -0.4224 -0.9641 -0.1838
  332MOL0     C43731   8.568   9.632   2.073  0.2353  0.2964 -0.0141
  332MOL0     C43732   8.677   9.703   1.983  1.2836  0.7102 -0.0271
  332MOL0     C43733   8.616   9.742   1.851  0.3669  0.4778  0.3913
  332MOL0     C43734   8.691   9.865   1.792  0.6019 -0.3984 -0.0788
  332MOL0     C43735   8.620   9.903   1.664  0.0419  0.2503 -0.3256
  332MOL0    Cl43736   8.661   9.784   1.532  0.3624  0.3933  0.3457
  332MOL0     C43737   8.563   9.419   2.710  0.7311  0.1090  0.3103
  332MOL0     C43738   8.592   9.404   2.849  0.5974  0.5827 -0.1168
  332MOL0     O43739   8.767   9.599   3.052 -0.3231 -0.1894 -0.4132
  332MOL0     C43740   8.796   9.638   3.326 -1.0119 -0.2876 -0.4560
  332MOL0     C43741   8.793   9.661   3.469 -0.3229  0.0016 -0.4143
  332MOL0     N43742   8.522   9.763   4.139 -0.3361  0.3401 -0.1251
  332MOL0     N43743   8.556   9.718   4.257 -0.0752  1.1839  0.0481
  332MOL0     C43744   7.896  10.308   4.603  0.5191 -0.0371  0.1730
  332MOL0     C43745   7.841  10.428   4.655 -0.1412  0.0408 -0.4685
  332MOL0     C43746   7.724  10.844   4.754 -0.5930  0.6163  0.4746
  332MOL0     C43747   7.747  10.902   4.879 -0.1888  0.0205  0.6520
  332MOL0     C43748   7.651  10.988   4.935  0.2262 -0.2315 -0.4933
  332MOL0     C43749   7.536  11.020   4.858  0.3128 -0.4714 -0.1436
  332MOL0     O43750   7.444  11.104   4.918 -1.1767  0.2496  0.0698
  332MOL0     C43751   7.315  11.129   4.865  0.8332 -1.0220 -0.6455
  332MOL0     C43752   7.211  11.015   4.878 -0.0861 -0.1278  0.0628
  332MOL0     C43753   7.086  11.033   4.797  0.7804 -0.8430 -0.4692
  332MOL0     C43754   6.972  10.945   4.843 -0.1614 -0.4581  0.0899
  332MOL0     C43755   6.946  10.948   4.992  0.9707  0.8782 -0.1180
  332MOL0     C43756   6.916  10.972   5.112 -0.6795 -1.1118  0.4351
  332MOL0     C43757   7.516  10.961   4.730  0.0671  0.0097 -0.5097
  332MOL0     C43758   7.608  10.873   4.686  0.7360 -0.8427  0.2199
  332MOL0     H43759   7.899  10.625   4.379  0.3128  3.6938  4.2639
  332MOL0     H43760   8.010  10.415   4.307  2.1552  0.9344  0.0596
  332MOL0     H43761   7.945  10.047   4.567 -1.4253  0.4962 -3.0239
  332MOL0     H43762   8.093  10.118   4.608 -0.6755  3.2237 -1.2456
  332MOL0     H43763   8.224  10.005   4.448 -0.3701  0.2507 -2.3428
  332MOL0     H43764   8.088   9.996   4.342 -1.6130 -0.3550 -0.2204
  332MOL0     H43765   8.131   9.768   4.417 -1.5673  1.1960 -1.7950
  332MOL0     H43766   7.989   9.810   4.497 -0.1240  0.1108 -0.5324
  332MOL0     H43767   8.248   9.875   4.648 -0.2878  1.5494  0.1393
  332MOL0     H43768   8.094   9.830   4.722  0.2713 -1.7373 -0.6795
  332MOL0     H43769   8.135   9.594   4.623 -0.4257  0.0599  1.3923
  332MOL0     H43770   8.241   9.659   4.751 -2.2226 -2.4008  0.3964
  332MOL0     H43771   8.417   9.642   4.648  0.7470 -0.4166  0.2384
  332MOL0     H43772   8.364   9.740   4.512 -2.7139 -0.5471 -1.1133
  332MOL0     H43773   8.380   9.437   4.557  0.8187 -1.2767 -2.0441
  332MOL0     H43774   8.266   9.506   4.431  0.1774  0.9821 -1.0498
  332MOL0     H43775   8.474   9.422   4.339 -0.3924  0.2408 -0.8916
  332MOL0     H43776   8.567   9.527   4.450 -0.7249  3.3317 -0.7117
  332MOL0     H43777   8.302   9.524   4.171  1.1281 -1.2374  1.3026
  332MOL0     H43778   8.325   9.827   3.938 -3.0448 -0.4858 -0.7736
  332MOL0     H43779   8.260   9.665   3.937 -0.2605  1.6093 -0.8218
  332MOL0     H43780   8.403   9.686   3.761 -2.1638  1.6589  1.2869
  332MOL0     H43781   8.488   9.567   3.862 -1.9219 -0.8319 -2.4738
  332MOL0     H43782   8.546   9.868   3.841  0.6237  0.3511 -0.5337
  332MOL0     H43783   8.650   9.739   3.930 -1.3629 -1.0371  1.1903
  332MOL0     H43784   8.761   9.793   3.748  0.3033 -1.5680  1.1147
  332MOL0     H43785   8.610   9.814   3.649  0.3626 -0.8274 -1.1778
  332MOL0     H43786   8.527   9.464   3.549  0.6609 -2.5254 -0.9294
  332MOL0     H43787   8.506   9.468   3.304  1.5638 -1.8499 -0.6299
  332MOL0     H43788   8.404   9.668   2.977  0.9196 -1.6790 -0.1509
  332MOL0     H43789   8.375   9.699   2.722  1.8955 -0.4269 -2.4394
  332MOL0     H43790   8.596   9.448   2.442  0.0289  0.3503 -0.9967
  332MOL0     H43791   8.657   9.615   2.464 -0.5312 -0.9826  0.9542
  332MOL0     H43792   8.481   9.683   2.308 -2.9659 -0.2857 -0.9667
  332MOL0     H43793   8.420   9.527   2.277  0.3248  0.2653 -2.5707
  332MOL0     H43794   8.660   9.472   2.203 -0.2391 -0.9297  2.1535
  332MOL0     H43795   8.711   9.632   2.236  1.3733 -1.8210 -3.0275
  332MOL0     H43796   8.553   9.542   2.012  3.5266 -1.4554  1.4666
  332MOL0     H43797   8.481   9.696   2.089  0.3196  0.4342 -0.1094
  332MOL0     H43798   8.757   9.629   1.971  0.4278 -0.3078  0.3194
  332MOL0     H43799   8.708   9.794   2.036  0.0398  1.3384 -0.3384
  332MOL0     H43800   8.518   9.784   1.876  0.1818 -0.7598  1.8980
  332MOL0     H43801   8.598   9.657   1.784  2.4789 -1.5039  2.2229
  332MOL0     H43802   8.677   9.950   1.860  1.2836  1.5890 -2.2796
  332MOL0     H43803   8.799   9.859   1.776  0.8093 -2.4217  1.6880
  332MOL0     H43804   8.660   9.996   1.623 -0.4149  0.8067  0.4727
  332MOL0     H43805   8.512   9.918   1.663 -0.0307 -0.2428 -1.5720
  332MOL0     H43806   8.603   9.358   2.629 -0.8127  0.5986 -0.8649
  332MOL0     H43807   8.640   9.315   2.890 -1.4266 -0.1196  0.8659
  332MOL0     H43808   8.870   9.687   3.263 -1.8160 -1.2617 -2.2380
  332MOL0     H43809   8.873   9.714   3.519 -0.7521 -1.5424  2.0647
  332MOL0     H43810   7.892  10.224   4.671  1.7643  0.7618  1.2930
  332MOL0     H43811   7.788  10.431   4.750  0.5152  0.2774 -0.1015
  332MOL0     H43812   7.827  10.880   4.949  1.4160  2.8537 -0.1187
  332MOL0     H43813   7.654  11.037   5.032 -2.0048 -0.3206 -0.3231
  332MOL0     H43814   7.329  11.156   4.760  3.0149  0.3984 -0.0497
  332MOL0     H43815   7.273  11.217   4.915 -2.4332 -3.1316  0.6407
  332MOL0     H43816   7.248  10.921   4.836 -0.9923  0.4802 -2.2178
  332MOL0     H43817   7.202  11.006   4.987  2.0694  2.3680  0.5479
  332MOL0     H43818   7.120  11.009   4.696 -2.1268 -2.4877 -1.1561
  332MOL0     H43819   7.048  11.135   4.806  0.1969 -1.2245  2.5080
  332MOL0     H43820   6.883  10.964   4.782  0.9888 -3.0725 -2.6772
  332MOL0     H43821   7.010  10.844   4.822 -0.9492 -0.6903 -0.2603
  332MOL0     H43822   6.915  10.990   5.218  1.7854 -2.7367  0.8277
  332MOL0     H43823   7.421  10.983   4.683  1.7437  0.7157 -3.8847
  332MOL0     H43824   7.584  10.821   4.593  0.3540 -0.0506 -0.1327
  333MOL0     O43825   7.469   1.037  10.455  0.0636  0.5295  0.3997
  333MOL0     C43826   7.488   1.058  10.337  0.1826 -0.0360  0.0453
  333MOL0     O43827   7.589   1.001  10.269  0.9171 -0.3768  0.3186
  333MOL0     C43828   7.695   0.957  10.337  0.5938  0.4906  0.1506
  333MOL0     C43829   7.810   1.030  10.322  0.2991 -0.2871  0.3484
  333MOL0     C43830   7.921   0.983  10.390 -0.0270  0.2752 -0.7104
  333MOL0     C43831   7.921   0.869  10.467  1.0542 -1.2927  0.1023
  333MOL0     O43832   8.026   0.851  10.546 -0.0660  0.3203  0.3515
  333MOL0     C43833   8.060   0.712  10.563 -1.6427 -1.0395  0.3785
  333MOL0     C43834   8.207   0.677  10.599 -1.1066 -0.1127 -0.1416
  333MOL0     C43835   8.270   0.733  10.724 -0.5709 -0.1744 -0.1304
  333MOL0     C43836   8.334   0.872  10.705  0.8020 -0.3601 -0.4353
  333MOL0     C43837   8.450   0.903  10.797  0.5623  0.1824  0.0557
  333MOL0     C43838   8.410   0.903  10.941  0.4739 -1.0952  0.3795
  333MOL0     C43839   8.512   0.978  11.028  0.5099 -0.9809  0.1783
  333MOL0     C43840   8.485   0.952  11.172  0.2179  0.2310  0.0292
  333MOL0     N43841   8.534   0.830  11.241 -0.1916  0.7048  0.1566
  333MOL0     C43842   8.557   0.837  11.365  0.7113  0.1104 -0.0624
  333MOL0     C43843   8.586   0.712  11.402 -0.5469 -0.1732 -0.2562
  333MOL0     C43844   8.584   0.668  11.550 -0.4935  0.0500 -0.5725
  333MOL0     C43845   8.723   0.675  11.621  0.7272 -0.1485  0.4714
  333MOL0     C43846   8.708   0.629  11.761 -1.1859 -0.4058 -0.4538
  333MOL0     C43847   8.833   0.686  11.839  0.7002 -0.5062  0.7760
  333MOL0     O43848   8.954   0.617  11.801  0.0094  0.1131  0.3855
  333MOL0     C43849   9.048   0.677  11.711 -0.1421  0.2409  0.0826
  333MOL0     C43850   9.140   0.589  11.664 -0.3668  0.8272  0.8673
  333MOL0     C43851   9.241   0.632  11.574 -0.2635  0.7495 -0.5970
  333MOL0     C43852   9.241   0.764  11.530  0.5358 -0.4066  1.6674
  333MOL0     C43853   9.336   0.806  11.414 -0.3267 -0.1792 -0.7885
  333MOL0     O43854   9.330   0.944  11.386 -0.0265 -0.8539  0.0928
  333MOL0     C43855   9.424   1.014  11.312 -1.2099  0.5015  0.4323
  333MOL0     C43856   9.382   1.137  11.262 -0.7861 -0.3186  0.0620
  333MOL0     C43857   9.467   1.207  11.182 -1.3331  0.0214 -0.2248
  333MOL0     C43858   9.599   1.171  11.152  0.9928 -0.7583  0.3181
  333MOL0     O43859   9.664   1.251  11.068  0.5077 -0.3282  0.9170
  333MOL0     C43860   9.808   1.239  11.070  0.5838  0.8951  0.4231
  333MOL0     C43861   9.869   1.347  10.983 -0.5971 -0.4697  0.7928
  333MOL0     C43862  10.025   1.348  10.984  0.2275  0.8698 -0.6543
  333MOL0     C43863  10.079   1.475  10.918  0.3334  1.2681  0.3341
  333MOL0     C43864  10.077   1.608  11.004 -0.8991  0.1400 -0.4500
  333MOL0     C43865  10.086   1.732  10.906 -0.6727 -0.3252 -0.8349
  333MOL0     C43866  10.108   1.860  10.983 -0.1180 -0.1931 -0.4509
  333MOL0     C43867  10.140   1.977  10.891  0.1434  1.4989 -1.5435
  333MOL0    Cl43868  10.280   1.940  10.796 -0.0122 -0.1045  0.4344
  333MOL0     C43869   9.644   1.060  11.223 -0.1498  0.1127 -0.1364
  333MOL0     C43870   9.557   0.972  11.292 -0.7094  0.1063  0.5081
  333MOL0     O43871   9.424   0.734  11.380 -0.3908 -0.5857  0.5847
  333MOL0     C43872   9.144   0.852  11.574  0.3707 -0.6419 -0.0685
  333MOL0     C43873   9.046   0.815  11.670  0.1479 -0.0661  0.1857
  333MOL0     N43874   8.587   0.635  11.287  0.1967  0.5750 -0.1977
  333MOL0     N43875   8.552   0.710  11.189 -0.0323  0.8239 -0.1804
  333MOL0     C43876   7.807   0.789  10.482 -0.1598  0.0875 -0.8030
  333MOL0     C43877   7.694   0.842  10.421 -0.0302  0.7060 -0.2373
  333MOL0     C43878   7.386   1.129  10.263  0.1300 -0.2639 -0.2513
  333MOL0     C43879   7.279   1.186  10.319 -0.0707 -0.1169  0.5794
  333MOL0     C43880   7.177   1.264  10.255  0.4594 -0.8822 -0.6748
  333MOL0     C43881   7.185   1.270  10.117 -0.9353 -0.8009 -0.0506
  333MOL0     O43882   7.065   1.314  10.053  0.3568  0.0352 -0.7988
  333MOL0     C43883   7.067   1.329   9.909 -0.0681 -0.5036  0.4996
  333MOL0     C43884   6.931   1.370   9.865 -0.4393  0.1386 -0.0830
  333MOL0     C43885   6.925   1.387   9.717  0.3392 -1.1083 -0.7370
  333MOL0     C43886   6.782   1.383   9.660 -0.1013 -0.5151 -0.3583
  333MOL0     C43887   6.726   1.250   9.659  0.8951 -1.0432  0.1485
  333MOL0     C43888   6.654   1.152   9.653  0.9611  0.6352 -0.0340
  333MOL0     C43889   7.299   1.220  10.058  0.6761 -0.8341 -0.4996
  333MOL0     C43890   7.401   1.159  10.126  0.1045 -0.7840  0.6787
  333MOL0     H43891   7.806   1.123  10.266  0.3077  1.0963  2.5606
  333MOL0     H43892   8.012   1.042  10.390  1.0556 -1.3554 -0.4492
  333MOL0     H43893   8.037   0.673  10.463 -0.5999  2.3012 -1.3419
  333MOL0     H43894   7.994   0.660  10.632 -0.7221 -0.5494  1.6669
  333MOL0     H43895   8.278   0.703  10.520  1.3955 -0.5195  1.8542
  333MOL0     H43896   8.205   0.568  10.609 -2.1222 -0.1771 -0.8850
  333MOL0     H43897   8.347   0.670  10.769 -0.9226  0.4172  1.3335
  333MOL0     H43898   8.189   0.754  10.794 -3.2212  3.2754 -3.7293
  333MOL0     H43899   8.371   0.858  10.603 -3.2145 -0.2882 -2.0896
  333MOL0     H43900   8.255   0.946  10.695  0.5231 -0.4770  0.7205
  333MOL0     H43901   8.481   0.999  10.756  0.1546  1.7710  3.1437
  333MOL0     H43902   8.534   0.833  10.793  1.6141  1.0659  3.4965
  333MOL0     H43903   8.405   0.800  10.977  1.0220 -1.9195 -1.7276
  333MOL0     H43904   8.313   0.954  10.944  1.3560  0.6729  0.1088
  333MOL0     H43905   8.617   0.957  11.008  0.3741 -0.6218 -1.0445
  333MOL0     H43906   8.503   1.086  11.009  1.2171 -1.4155 -3.2288
  333MOL0     H43907   8.376   0.939  11.177  0.4790 -2.1544  0.8611
  333MOL0     H43908   8.506   1.045  11.226  2.2142 -0.9010  1.3375
  333MOL0     H43909   8.535   0.917  11.435 -1.0967 -1.7582  1.6504
  333MOL0     H43910   8.532   0.573  11.540  0.2904 -0.1031 -5.3342
  333MOL0     H43911   8.519   0.727  11.616  1.1449 -2.4116  3.6774
  333MOL0     H43912   8.751   0.781  11.620 -0.1031  0.1122  2.0522
  333MOL0     H43913   8.795   0.617  11.563  2.5003  3.5157 -1.3165
  333MOL0     H43914   8.615   0.673  11.797  0.0773  1.7691  0.3409
  333MOL0     H43915   8.706   0.520  11.774 -0.8305 -0.0939  3.2785
  333MOL0     H43916   8.817   0.672  11.946 -3.3883 -2.1479  0.1388
  333MOL0     H43917   8.846   0.793  11.822  1.6936 -0.9754 -2.1378
  333MOL0     H43918   9.148   0.483  11.689  1.9831  0.9909  1.0130
  333MOL0     H43919   9.310   0.557  11.538  0.3826  0.3062  1.4482
  333MOL0     H43920   9.279   1.172  11.264  0.2979  3.2148  0.4026
  333MOL0     H43921   9.413   1.288  11.133 -2.8074 -1.1170 -0.5582
  333MOL0     H43922   9.841   1.138  11.041 -0.2787  0.4770  0.8798
  333MOL0     H43923   9.834   1.247  11.176 -2.3118 -2.5116  1.6182
  333MOL0     H43924   9.831   1.442  11.020  0.6407  0.8535 -1.1746
  333MOL0     H43925   9.825   1.341  10.883 -2.4608 -0.7053  1.5996
  333MOL0     H43926  10.063   1.260  10.932  3.3503  0.4200  2.0941
  333MOL0     H43927  10.063   1.330  11.085  0.5068 -2.0572 -1.1777
  333MOL0     H43928  10.176   1.460  10.870  1.1492  0.9479  2.0058
  333MOL0     H43929  10.010   1.491  10.834 -0.9007  2.6443  1.5536
  333MOL0     H43930  10.166   1.599  11.068  0.0446  0.2024 -1.7224
  333MOL0     H43931   9.987   1.614  11.065 -1.6253 -0.2083 -1.4676
  333MOL0     H43932  10.005   1.733  10.833  0.3748  0.9731 -2.0202
  333MOL0     H43933  10.168   1.704  10.840 -2.0117 -0.5543 -2.4712
  333MOL0     H43934  10.020   1.887  11.043  0.6403  0.7060  0.2983
  333MOL0     H43935  10.190   1.839  11.052 -3.2933 -4.7502  2.5140
  333MOL0     H43936  10.163   2.066  10.951  2.2774 -1.1871  1.9529
  333MOL0     H43937  10.056   1.991  10.822  0.6673  0.5409 -2.4010
  333MOL0     H43938   9.742   1.020  11.198 -0.1774  0.0097 -0.0813
  333MOL0     H43939   9.600   0.881  11.330  0.1959  1.0081  1.7161
  333MOL0     H43940   9.149   0.949  11.526  0.5287 -1.3486 -1.5193
  333MOL0     H43941   8.978   0.895  11.697  1.2882  0.7823  0.5993
  333MOL0     H43942   7.802   0.704  10.549 -3.4625  1.2009  0.5710
  333MOL0     H43943   7.604   0.781  10.427 -0.0404  0.6874 -0.5267
  333MOL0     H43944   7.262   1.150  10.420  1.7250 -1.1393  0.5644
  333MOL0     H43945   7.090   1.298  10.311 -0.3328  0.5342 -2.6570
  333MOL0     H43946   7.102   1.240   9.857 -0.1251 -0.5213  0.4909
  333MOL0     H43947   7.134   1.408   9.875  0.8586 -1.8416 -0.9081
  333MOL0     H43948   6.861   1.292   9.898 -0.6889 -0.6437 -2.3125
  333MOL0     H43949   6.909   1.458   9.926  2.3027  0.7459  0.1544
  333MOL0     H43950   6.990   1.314   9.669  0.7686 -0.6502 -0.8670
  333MOL0     H43951   6.960   1.489   9.700  0.7918 -1.0861  0.2230
  333MOL0     H43952   6.730   1.463   9.713 -0.4075  0.8392 -2.5625
  333MOL0     H43953   6.780   1.422   9.558  1.4360 -0.3782 -0.3681
  333MOL0     H43954   6.569   1.088   9.638  0.0016  1.4304  1.6718
  333MOL0     H43955   7.305   1.238   9.951  1.6037  2.6357 -0.0125
  333MOL0     H43956   7.489   1.128  10.070 -0.1321 -1.6020  0.7432
  334MOL0     O43957   3.542   0.996   3.320 -0.7800 -0.0986  1.1058
  334MOL0     C43958   3.506   1.114   3.336 -0.4755  0.2298 -0.2797
  334MOL0     O43959   3.465   1.164   3.454  0.0683  0.5086  0.3051
  334MOL0     C43960   3.394   1.096   3.554  1.0408 -0.1592 -0.2519
  334MOL0     C43961   3.397   1.147   3.687 -0.5184  0.8833  0.9619
  334MOL0     C43962   3.342   1.063   3.786  0.6474 -0.0196 -0.3133
  334MOL0     C43963   3.279   0.950   3.758  0.2019 -0.4071  0.0952
  334MOL0     O43964   3.235   0.881   3.869 -0.7778  0.2065 -0.5681
  334MOL0     C43965   3.149   0.773   3.848  0.3285 -0.0023  0.2253
  334MOL0     C43966   3.125   0.700   3.983  0.8046 -0.1943  0.1994
  334MOL0     C43967   3.260   0.628   4.015  0.6300 -0.9534 -0.2091
  334MOL0     C43968   3.249   0.555   4.142 -0.0870  0.3057  0.4454
  334MOL0     C43969   3.371   0.463   4.149 -0.6375 -0.0519 -0.2271
  334MOL0     C43970   3.336   0.349   4.253  0.0037  0.8513  0.5504
  334MOL0     C43971   3.435   0.232   4.273 -0.7712  0.7009 -0.8325
  334MOL0     C43972   3.575   0.296   4.312 -0.0535 -0.3339  0.0318
  334MOL0     N43973   3.585   0.349   4.452 -0.5833 -0.1485  0.2308
  334MOL0     C43974   3.579   0.479   4.496  0.3867 -0.1749 -0.4079
  334MOL0     C43975   3.617   0.476   4.620  0.7509 -0.0036  0.7906
  334MOL0     C43976   3.614   0.597   4.712  0.1819  0.1741  0.3079
  334MOL0     C43977   3.758   0.652   4.725  0.0145  0.1898 -0.2282
  334MOL0     C43978   3.763   0.776   4.805  0.5526 -0.4236 -0.2440
  334MOL0     C43979   3.872   0.858   4.752  0.3517 -0.2811  0.7123
  334MOL0     O43980   3.867   0.974   4.833  0.2869  0.3814 -0.0282
  334MOL0     C43981   3.928   1.091   4.796 -0.7508 -0.3512 -0.8292
  334MOL0     C43982   4.039   1.090   4.707  0.4013  0.5481  0.7169
  334MOL0     C43983   4.104   1.208   4.672 -0.2967 -1.3034  0.3677
  334MOL0     C43984   4.058   1.326   4.725  0.2806  0.6328  1.2253
  334MOL0     C43985   4.115   1.447   4.669 -1.2038 -0.7861  0.1452
  334MOL0     O43986   4.116   1.461   4.538 -0.2132  0.6460  0.1755
  334MOL0     C43987   4.177   1.584   4.490  0.4513  0.4709 -0.0353
  334MOL0     C43988   4.087   1.677   4.440  0.5133  0.1959 -0.0416
  334MOL0     C43989   4.135   1.793   4.384  0.2857 -0.9560  1.1226
  334MOL0     C43990   4.271   1.839   4.390  0.1185  0.3806  0.1304
  334MOL0     O43991   4.319   1.962   4.359 -0.5719 -0.1595  0.3109
  334MOL0     C43992   4.228   2.062   4.307 -0.1779  0.0256 -0.1186
  334MOL0     C43993   4.320   2.160   4.220  0.2193  0.7789  0.2988
  334MOL0     C43994   4.380   2.079   4.100  0.9128 -0.5711 -0.2184
  334MOL0     C43995   4.489   2.164   4.026  0.0448 -0.5462  0.0534
  334MOL0     C43996   4.437   2.260   3.913  0.0331  1.0336  1.2263
  334MOL0     C43997   4.538   2.366   3.861 -0.7244  0.0758 -0.0323
  334MOL0     C43998   4.540   2.503   3.929  0.0028 -0.4496  0.2569
  334MOL0     C43999   4.600   2.607   3.827 -0.9837 -0.4736  0.5015
  334MOL0    Cl44000   4.770   2.564   3.790 -0.1738 -0.2029 -0.1940
  334MOL0     C44001   4.356   1.733   4.446  1.0749 -0.2276 -0.3301
  334MOL0     C44002   4.311   1.615   4.488 -0.1294 -1.0753 -0.2741
  334MOL0     O44003   4.139   1.542   4.752 -0.3129 -0.1066  0.8312
  334MOL0     C44004   3.949   1.334   4.799  0.3007 -0.4294 -0.1805
  334MOL0     C44005   3.881   1.222   4.835 -0.2260 -0.5453 -0.2024
  334MOL0     N44006   3.647   0.349   4.649  1.2162  1.1554 -0.5454
  334MOL0     N44007   3.631   0.269   4.551 -0.6537  0.0359 -0.2523
  334MOL0     C44008   3.275   0.906   3.620  0.7515 -0.1786 -0.5731
  334MOL0     C44009   3.349   0.973   3.527 -0.3943 -0.0210 -1.1745
  334MOL0     C44010   3.496   1.198   3.229  0.1752  0.2956  0.8347
  334MOL0     C44011   3.461   1.333   3.252  0.4773 -0.4422  0.0554
  334MOL0     C44012   3.437   1.430   3.152 -0.2547 -0.3451 -0.3088
  334MOL0     C44013   3.482   1.402   3.017  1.1064 -0.0572  0.2465
  334MOL0     O44014   3.462   1.503   2.917 -0.0723  0.0801 -0.1658
  334MOL0     C44015   3.482   1.481   2.773  0.9789  0.8561 -0.6478
  334MOL0     C44016   3.622   1.489   2.727 -0.2283  0.1295 -0.4222
  334MOL0     C44017   3.633   1.486   2.576 -0.0499  0.0778  0.3371
  334MOL0     C44018   3.634   1.341   2.517  0.0254  0.4340 -0.3919
  334MOL0     C44019   3.626   1.363   2.370  0.6138  0.0481 -0.2554
  334MOL0     C44020   3.609   1.406   2.250  0.5842 -0.2548 -0.0529
  334MOL0     C44021   3.525   1.263   2.990 -0.3327 -0.0107  0.4822
  334MOL0     C44022   3.526   1.166   3.093  0.0094  0.5745  0.2967
  334MOL0     H44023   3.446   1.238   3.720  2.3525 -0.9112  2.1319
  334MOL0     H44024   3.344   1.103   3.887 -2.9783  0.0999 -0.1761
  334MOL0     H44025   3.184   0.690   3.786  1.4062 -0.9084  1.9628
  334MOL0     H44026   3.054   0.803   3.803 -1.1259  0.6811  3.4522
  334MOL0     H44027   3.041   0.633   3.963 -0.2874  1.3496 -0.5650
  334MOL0     H44028   3.087   0.768   4.060 -0.0071  0.2831 -0.6068
  334MOL0     H44029   3.342   0.700   4.018  0.6436 -0.7434 -3.1570
  334MOL0     H44030   3.269   0.560   3.930 -0.8489  1.6839 -2.6096
  334MOL0     H44031   3.236   0.621   4.228  1.6245 -1.3166  2.0327
  334MOL0     H44032   3.158   0.494   4.145 -2.6877  3.6430  6.1430
  334MOL0     H44033   3.462   0.522   4.164 -2.6054  3.1331  0.2217
  334MOL0     H44034   3.383   0.407   4.056 -0.3036 -2.1793  1.0373
  334MOL0     H44035   3.244   0.298   4.222  0.7509 -0.7827  0.9184
  334MOL0     H44036   3.311   0.393   4.350  0.4489  3.1362 -0.2971
  334MOL0     H44037   3.399   0.163   4.350  1.0376  0.6806  0.0609
  334MOL0     H44038   3.442   0.181   4.176 -3.1914  1.2483 -1.3540
  334MOL0     H44039   3.597   0.380   4.246 -0.7693 -0.0182  0.1961
  334MOL0     H44040   3.659   0.227   4.297  0.4847  0.1179  0.8801
  334MOL0     H44041   3.543   0.569   4.449 -1.1138  0.0972  1.1771
  334MOL0     H44042   3.564   0.571   4.806 -1.7622 -1.5453 -1.1324
  334MOL0     H44043   3.553   0.678   4.670  0.8440 -0.9438 -3.0943
  334MOL0     H44044   3.793   0.656   4.621 -0.0599 -4.6989 -0.6624
  334MOL0     H44045   3.819   0.576   4.775 -1.7877 -0.5854  0.8745
  334MOL0     H44046   3.666   0.825   4.789  1.1395  1.0943  0.6000
  334MOL0     H44047   3.781   0.758   4.912  1.6790  0.4471 -0.2676
  334MOL0     H44048   3.861   0.884   4.646  0.1439 -0.3578  0.7159
  334MOL0     H44049   3.968   0.806   4.766  0.5388 -1.4323 -3.3405
  334MOL0     H44050   4.059   0.997   4.656 -5.0870 -1.1166  0.8938
  334MOL0     H44051   4.186   1.213   4.600 -0.2020 -1.3568  0.4728
  334MOL0     H44052   3.982   1.655   4.456  0.7901  0.8441  3.4409
  334MOL0     H44053   4.062   1.861   4.340  1.4974  2.4514  3.8964
  334MOL0     H44054   4.191   2.121   4.392 -0.5235  1.6931 -1.3826
  334MOL0     H44055   4.149   2.021   4.245 -1.2737  0.6883  0.8094
  334MOL0     H44056   4.400   2.212   4.273 -0.0863  2.9742 -1.2464
  334MOL0     H44057   4.248   2.232   4.180 -1.0452 -0.7286 -0.2616
  334MOL0     H44058   4.304   2.038   4.033 -2.4990  4.5755 -0.0497
  334MOL0     H44059   4.453   2.009   4.142  3.0687  2.6664  1.8344
  334MOL0     H44060   4.554   2.209   4.101 -1.7565  0.2819  1.1897
  334MOL0     H44061   4.562   2.100   3.976 -0.3673 -0.0033 -1.2912
  334MOL0     H44062   4.351   2.319   3.947 -0.0928  1.0081  0.9531
  334MOL0     H44063   4.406   2.198   3.828 -1.4927  0.4817  2.1243
  334MOL0     H44064   4.523   2.390   3.755 -0.6392  0.0621 -0.0473
  334MOL0     H44065   4.638   2.324   3.868 -1.2192 -1.0784  0.2491
  334MOL0     H44066   4.439   2.535   3.956  0.6881  0.4730  1.8454
  334MOL0     H44067   4.592   2.509   4.025 -0.2588  1.6975  0.3086
  334MOL0     H44068   4.590   2.703   3.877 -0.2731  0.4801 -1.0925
  334MOL0     H44069   4.553   2.612   3.728  2.1076 -2.6689 -1.2639
  334MOL0     H44070   4.462   1.756   4.454  1.7346 -3.2284  0.9710
  334MOL0     H44071   4.380   1.540   4.526  0.7387 -0.9751 -1.5989
  334MOL0     H44072   3.905   1.428   4.831 -2.3824 -1.7982  0.4038
  334MOL0     H44073   3.785   1.215   4.885  0.4986 -7.4938  1.2741
  334MOL0     H44074   3.239   0.807   3.595  0.1601 -0.0099 -0.4264
  334MOL0     H44075   3.336   0.926   3.430  2.8739 -2.7025 -0.4989
  334MOL0     H44076   3.445   1.371   3.353 -1.9182  0.3493 -0.5438
  334MOL0     H44077   3.401   1.526   3.190 -0.3990 -0.2972 -0.5662
  334MOL0     H44078   3.418   1.548   2.715 -0.7710 -1.8262 -2.0501
  334MOL0     H44079   3.431   1.387   2.749 -4.5661  3.0626  0.8868
  334MOL0     H44080   3.665   1.586   2.758  1.8511 -0.2955 -1.7846
  334MOL0     H44081   3.686   1.411   2.769 -1.7616 -2.1322 -2.1016
  334MOL0     H44082   3.729   1.536   2.555  0.1658 -1.1453 -1.8284
  334MOL0     H44083   3.546   1.530   2.527 -2.9467 -4.1604  1.1449
  334MOL0     H44084   3.724   1.286   2.545 -1.1899 -0.3918  2.1173
  334MOL0     H44085   3.544   1.291   2.552 -1.1067  3.9756  2.3841
  334MOL0     H44086   3.599   1.457   2.156  1.7703  1.1262  0.5171
  334MOL0     H44087   3.560   1.236   2.891  2.9779  4.1987  0.1939
  334MOL0     H44088   3.538   1.060   3.072  0.7332 -0.5561  5.0819
  335MOL0     O44089  11.092  10.472   6.181  0.1501 -1.0875  0.1521
  335MOL0     C44090  11.125  10.384   6.257 -0.1055  0.2693 -0.3278
  335MOL0     O44091  11.080  10.364   6.381  0.4037  0.0947 -0.2454
  335MOL0     C44092  10.980  10.448   6.412 -0.0488 -1.0334  0.1779
  335MOL0     C44093  10.848  10.406   6.395  0.4196  0.9036  0.1199
  335MOL0     C44094  10.747  10.488   6.413  0.0020  0.5654 -0.1011
  335MOL0     C44095  10.772  10.616   6.462 -0.3834 -0.1297  0.0017
  335MOL0     O44096  10.671  10.708   6.487  0.2352 -0.0707  0.1519
  335MOL0     C44097  10.532  10.686   6.450 -0.1156 -0.1611  0.0999
  335MOL0     C44098  10.441  10.802   6.494  0.9378 -0.1050  0.5533
  335MOL0     C44099  10.443  10.926   6.408  0.4641 -0.2285 -0.0634
  335MOL0     C44100  10.341  11.032   6.456 -0.1186  0.9591  0.7210
  335MOL0     C44101  10.353  11.165   6.372 -0.9812 -0.7551 -0.5953
  335MOL0     C44102  10.242  11.257   6.407  0.9888  0.0994  0.4528
  335MOL0     C44103  10.104  11.219   6.351 -0.4099 -0.1065  0.1745
  335MOL0     C44104   9.991  11.285   6.426  0.2365  0.4827 -0.0066
  335MOL0     N44105   9.916  11.401   6.361 -0.1984 -0.5761 -0.0638
  335MOL0     C44106   9.977  11.518   6.315 -0.2299 -0.8636 -0.2465
  335MOL0     C44107   9.874  11.570   6.236 -0.0852  0.4896 -0.3440
  335MOL0     C44108   9.870  11.698   6.173  0.4277 -0.2585  0.7891
  335MOL0     C44109   9.965  11.806   6.224  0.5441  0.5073 -0.6279
  335MOL0     C44110   9.924  11.860   6.369 -0.2065 -1.0083  0.1406
  335MOL0     C44111   9.796  11.944   6.376 -0.1356 -0.7756 -0.0969
  335MOL0     O44112   9.777  11.999   6.511 -0.2263  0.3055  0.3484
  335MOL0     C44113   9.662  12.060   6.557  0.0262 -0.6663 -0.7938
  335MOL0     C44114   9.560  12.109   6.481  0.4657  0.4148 -0.3508
  335MOL0     C44115   9.440  12.159   6.539  0.0210 -1.2577  0.4036
  335MOL0     C44116   9.424  12.168   6.670 -0.7824 -0.1870  0.0687
  335MOL0     C44117   9.307  12.230   6.733  0.0005 -0.1212  0.7225
  335MOL0     O44118   9.273  12.211   6.860  0.4061 -0.9255 -0.5485
  335MOL0     C44119   9.158  12.276   6.919 -0.2749  0.3021  2.0733
  335MOL0     C44120   9.035  12.319   6.858  0.0421  0.1835  0.0809
  335MOL0     C44121   8.935  12.393   6.929 -0.5784  0.0579  0.8930
  335MOL0     C44122   8.952  12.415   7.064 -0.6175 -0.1550  0.1504
  335MOL0     O44123   8.854  12.493   7.130 -0.3297 -0.0380 -0.7659
  335MOL0     C44124   8.914  12.625   7.158 -0.0321 -0.9688 -0.0482
  335MOL0     C44125   8.811  12.704   7.255 -0.5021  0.2899  0.4937
  335MOL0     C44126   8.668  12.718   7.201  0.2177  0.2796  0.0200
  335MOL0     C44127   8.588  12.798   7.297  0.3101  0.8467  0.2725
  335MOL0     C44128   8.438  12.763   7.306 -0.0465 -0.5750  0.5099
  335MOL0     C44129   8.385  12.790   7.444 -0.4002  0.5446 -0.3374
  335MOL0     C44130   8.256  12.720   7.482  0.2492  1.1179 -0.4421
  335MOL0     C44131   8.285  12.565   7.482 -0.2338  0.1635 -0.1691
  335MOL0    Cl44132   8.149  12.466   7.541 -0.0232 -0.1362  0.6063
  335MOL0     C44133   9.066  12.352   7.127 -0.7114 -0.8140  0.1886
  335MOL0     C44134   9.169  12.299   7.054  0.6761 -0.1330 -0.4006
  335MOL0     O44135   9.263  12.326   6.676  0.4058  0.2440 -0.6875
  335MOL0     C44136   9.524  12.119   6.753  0.3575  0.1069 -0.4686
  335MOL0     C44137   9.645  12.063   6.699  0.1336  0.3220 -0.1863
  335MOL0     N44138   9.763  11.492   6.244  0.2773  0.2230 -0.2138
  335MOL0     N44139   9.790  11.387   6.318 -0.4229  0.5216  0.0898
  335MOL0     C44140  10.903  10.662   6.475  0.4918  0.0209  0.6614
  335MOL0     C44141  11.008  10.576   6.454 -0.9794 -0.3128 -0.4503
  335MOL0     C44142  11.228  10.281   6.209 -0.1544  0.5328  0.7662
  335MOL0     C44143  11.299  10.316   6.093  0.3709  0.5881  0.0948
  335MOL0     C44144  11.377  10.215   6.023 -0.3806 -0.7191  0.1475
  335MOL0     C44145  11.384  10.082   6.069 -0.2761 -0.4267  0.2776
  335MOL0     O44146  11.472   9.995   5.996 -0.5480 -0.5280  0.2096
  335MOL0     C44147  11.505   9.872   6.058 -0.5425  0.6630  0.2764
  335MOL0     C44148  11.627   9.797   5.988 -0.9179  0.0201  0.7178
  335MOL0     C44149  11.756   9.876   6.006  0.9748  0.2123  0.6159
  335MOL0     C44150  11.865   9.791   5.941 -0.4854 -0.2644 -0.0507
  335MOL0     C44151  11.999   9.856   5.943  0.0803 -0.1846 -1.0324
  335MOL0     C44152  12.105   9.909   5.940 -0.3227  0.2907  0.1497
  335MOL0     C44153  11.309  10.044   6.188  0.3551  0.5149  0.8512
  335MOL0     C44154  11.235  10.146   6.257 -0.1559 -0.7888  0.2627
  335MOL0     H44155  10.818  10.304   6.371  1.8177 -1.0470  5.2496
  335MOL0     H44156  10.646  10.452   6.429 -0.3242  0.1336 -2.7194
  335MOL0     H44157  10.496  10.596   6.501  0.7302  0.4523  1.8636
  335MOL0     H44158  10.529  10.667   6.343  1.4663 -3.9957  0.5679
  335MOL0     H44159  10.453  10.829   6.599  0.2393 -1.5098  1.0098
  335MOL0     H44160  10.344  10.753   6.485 -0.2572  2.2558 -0.4666
  335MOL0     H44161  10.426  10.900   6.303 -2.5280  3.2176 -0.6442
  335MOL0     H44162  10.543  10.970   6.407  0.5754 -0.2255  2.7875
  335MOL0     H44163  10.241  10.988   6.452  0.5979 -0.8216 -3.4861
  335MOL0     H44164  10.356  11.055   6.561  2.6377  4.6886 -0.2780
  335MOL0     H44165  10.371  11.145   6.266 -1.3006  1.0831 -1.0286
  335MOL0     H44166  10.438  11.223   6.408 -0.1413 -1.1543 -1.8339
  335MOL0     H44167  10.278  11.352   6.365  1.2903 -0.2570 -0.0975
  335MOL0     H44168  10.229  11.252   6.516  0.7878 -0.5297  0.4028
  335MOL0     H44169  10.091  11.244   6.245  0.0652 -0.2384  0.0813
  335MOL0     H44170  10.093  11.110   6.355  1.4152 -0.3575 -0.4089
  335MOL0     H44171  10.027  11.311   6.526  0.5519 -0.5632  0.1671
  335MOL0     H44172   9.921  11.203   6.442 -0.0857  0.1745 -2.6087
  335MOL0     H44173  10.079  11.548   6.333 -0.2282 -0.9493 -0.1116
  335MOL0     H44174   9.766  11.729   6.183  0.6055  0.8627 -0.5888
  335MOL0     H44175   9.904  11.686   6.070 -0.4112  0.4579  0.4206
  335MOL0     H44176   9.962  11.893   6.158  1.3707  3.0464  2.3982
  335MOL0     H44177  10.069  11.772   6.230  0.8998  0.9495 -3.1062
  335MOL0     H44178   9.907  11.776   6.436 -0.3820  0.4079  1.9411
  335MOL0     H44179  10.013  11.915   6.403 -1.3143  0.5366  0.6614
  335MOL0     H44180   9.703  11.891   6.351 -2.4474  2.9150 -0.2058
  335MOL0     H44181   9.808  12.027   6.306 -0.2464 -0.6046  0.0856
  335MOL0     H44182   9.584  12.116   6.376  0.0500 -0.8408 -0.5482
  335MOL0     H44183   9.370  12.191   6.464  0.7497  0.2259  0.3151
  335MOL0     H44184   9.030  12.283   6.755  2.4845  1.9747 -0.7663
  335MOL0     H44185   8.846  12.424   6.875 -0.8191 -1.2910  0.4781
  335MOL0     H44186   8.939  12.684   7.069 -1.5508  2.2485  1.4743
  335MOL0     H44187   9.016  12.614   7.196 -0.2488  0.0402  0.8839
  335MOL0     H44188   8.850  12.804   7.279 -1.5256  0.7694  0.1936
  335MOL0     H44189   8.805  12.655   7.352  1.2186  3.6966  2.4990
  335MOL0     H44190   8.629  12.618   7.182 -0.2393  0.1613  1.4295
  335MOL0     H44191   8.678  12.772   7.106  1.3491 -1.1811 -0.7295
  335MOL0     H44192   8.630  12.778   7.396  2.7998 -3.2229 -1.2936
  335MOL0     H44193   8.603  12.905   7.284 -0.7955  0.9478 -0.2396
  335MOL0     H44194   8.415  12.668   7.258  0.0370 -0.8668  1.0449
  335MOL0     H44195   8.392  12.842   7.245  1.3531 -0.9668 -1.1368
  335MOL0     H44196   8.368  12.896   7.462 -3.2343 -0.0549  1.1318
  335MOL0     H44197   8.448  12.749   7.524 -2.0586 -1.3777  0.0644
  335MOL0     H44198   8.217  12.772   7.570 -0.5977  0.5621 -0.4866
  335MOL0     H44199   8.186  12.739   7.401 -0.2563 -1.2128 -0.6438
  335MOL0     H44200   8.374  12.547   7.543 -0.0691 -2.9374 -1.1430
  335MOL0     H44201   8.321  12.544   7.381  1.7638  2.5231 -0.0236
  335MOL0     H44202   9.075  12.390   7.229  0.7846 -2.1926  0.6041
  335MOL0     H44203   9.265  12.269   7.096  0.2308 -1.3233 -0.2043
  335MOL0     H44204   9.494  12.127   6.857 -0.5918 -2.4927 -0.4693
  335MOL0     H44205   9.711  11.991   6.748 -1.1798 -0.7481  0.0614
  335MOL0     H44206  10.934  10.763   6.499 -1.3885  0.7859  0.0516
  335MOL0     H44207  11.112  10.603   6.464 -0.6760 -2.3889  4.6653
  335MOL0     H44208  11.287  10.414   6.049 -0.8452  0.7080  0.6550
  335MOL0     H44209  11.427  10.243   5.931  1.0258  1.6970  1.5275
  335MOL0     H44210  11.421   9.803   6.053  0.3477 -0.5809  1.5793
  335MOL0     H44211  11.530   9.893   6.162 -3.9839  1.3687  1.0750
  335MOL0     H44212  11.624   9.703   6.044 -4.3434  0.2932  1.2449
  335MOL0     H44213  11.607   9.776   5.883  1.3680  1.2572 -0.0218
  335MOL0     H44214  11.769   9.882   6.114  1.4278  0.0536  0.5756
  335MOL0     H44215  11.751   9.975   5.960  1.8578  0.6767  1.4815
  335MOL0     H44216  11.883   9.693   5.986 -0.2656  0.4675  1.5155
  335MOL0     H44217  11.827   9.783   5.839  1.1921  2.8715 -1.0719
  335MOL0     H44218  12.204   9.948   5.923 -0.2244  0.0082  0.0637
  335MOL0     H44219  11.304   9.941   6.221 -0.5946 -0.3424 -1.7166
  335MOL0     H44220  11.195  10.106   6.350  3.0379 -1.0399  1.6492
  336MOL0     O44221  10.246   9.367   6.325  0.2713 -0.6015  0.1350
  336MOL0     C44222  10.144   9.432   6.299 -0.0523 -0.6220 -0.2317
  336MOL0     O44223  10.129   9.560   6.327 -0.6262 -0.2469  0.4521
  336MOL0     C44224  10.238   9.637   6.351  0.7267 -0.6508  0.3743
  336MOL0     C44225  10.370   9.634   6.282  0.5748  0.3354  0.3698
  336MOL0     C44226  10.467   9.724   6.314  0.1470  0.2840  0.7991
  336MOL0     C44227  10.450   9.818   6.418 -0.0655  0.4393  0.4196
  336MOL0     O44228  10.543   9.913   6.458  0.1262 -0.0681  0.2396
  336MOL0     C44229  10.647   9.948   6.369 -0.3944  0.3499 -0.1969
  336MOL0     C44230  10.732  10.050   6.446 -0.0602  0.0212  0.4179
  336MOL0     C44231  10.797   9.984   6.561  0.5120  0.2818 -0.3199
  336MOL0     C44232  10.936  10.040   6.597  0.0787 -0.8268  1.3947
  336MOL0     C44233  11.014   9.973   6.716  0.0166 -0.6449  0.3439
  336MOL0     C44234  11.054   9.823   6.699  0.3319  0.1395  0.0981
  336MOL0     C44235  11.154   9.792   6.583 -0.3774 -0.6650  0.6929
  336MOL0     C44236  11.278   9.880   6.580  0.4478  0.8306  0.3759
  336MOL0     N44237  11.390   9.822   6.501 -0.0067 -0.2435  0.1034
  336MOL0     C44238  11.519   9.843   6.512  0.1943  0.1089 -1.5231
  336MOL0     C44239  11.578   9.763   6.424 -0.5842  0.2365  0.1194
  336MOL0     C44240  11.724   9.761   6.409  0.1587 -0.1158 -0.3896
  336MOL0     C44241  11.806   9.686   6.518 -0.9165 -0.4178 -0.1803
  336MOL0     C44242  11.954   9.693   6.492 -0.5794 -0.2607 -0.4225
  336MOL0     C44243  12.009   9.623   6.365  0.6789 -0.3379  0.4074
  336MOL0     O44244  11.972   9.490   6.393 -0.3024 -0.4799  0.1421
  336MOL0     C44245  11.864   9.437   6.332  0.2500  1.1932 -0.3818
  336MOL0     C44246  11.794   9.483   6.222  0.5984 -0.6597  0.0977
  336MOL0     C44247  11.703   9.406   6.165 -0.1437 -0.1178  0.1488
  336MOL0     C44248  11.679   9.274   6.202  0.7569  0.3744 -1.0675
  336MOL0     C44249  11.578   9.200   6.121 -0.1682 -0.0728  0.0601
  336MOL0     O44250  11.517   9.265   6.017  0.4482  0.8557 -0.5251
  336MOL0     C44251  11.402   9.212   5.979  0.7839  0.5115 -0.2809
  336MOL0     C44252  11.277   9.263   6.028 -0.0414  0.5391  1.0873
  336MOL0     C44253  11.163   9.203   5.991  0.8794 -0.3148 -0.1546
  336MOL0     C44254  11.163   9.086   5.919 -0.8240  0.9838 -0.7896
  336MOL0     O44255  11.046   9.018   5.909  0.2900 -0.1477  0.4437
  336MOL0     C44256  11.013   8.933   5.793 -0.6501 -0.0772 -0.0616
  336MOL0     C44257  10.877   8.950   5.762 -0.0159  0.7146 -0.3513
  336MOL0     C44258  10.840   9.099   5.718 -0.2068 -0.0505 -0.6144
  336MOL0     C44259  10.696   9.133   5.726 -0.6805 -1.1575 -0.2713
  336MOL0     C44260  10.653   9.259   5.649 -0.0076  0.1743 -0.3508
  336MOL0     C44261  10.497   9.260   5.653 -0.3128 -0.3925  0.8661
  336MOL0     C44262  10.448   9.393   5.579 -0.0985 -0.0884  0.5608
  336MOL0     C44263  10.428   9.367   5.425 -0.0390  0.0803 -0.8290
  336MOL0    Cl44264  10.374   9.518   5.339  0.6914 -0.4883 -0.2569
  336MOL0     C44265  11.281   9.035   5.860  0.9874  0.0400 -0.6183
  336MOL0     C44266  11.407   9.097   5.899  0.5173  0.8570 -0.1066
  336MOL0     O44267  11.555   9.083   6.157  0.5551  0.2457  0.2704
  336MOL0     C44268  11.750   9.222   6.315 -0.5016  0.7550  0.1147
  336MOL0     C44269  11.843   9.301   6.375  0.9139  0.8348 -0.3321
  336MOL0     N44270  11.491   9.677   6.363 -0.3236  0.0679 -0.2977
  336MOL0     N44271  11.381   9.718   6.410  0.3409 -0.1306 -0.8270
  336MOL0     C44272  10.335   9.817   6.491 -0.4853 -1.0020  0.2448
  336MOL0     C44273  10.220   9.739   6.448  0.1532 -0.3710 -0.0730
  336MOL0     C44274  10.039   9.370   6.227  0.3186  1.4989  0.2437
  336MOL0     C44275  10.065   9.232   6.174 -0.3732  0.5663 -1.0473
  336MOL0     C44276   9.977   9.163   6.111  0.8192  1.0101  0.3800
  336MOL0     C44277   9.845   9.187   6.110  0.8299  0.1023  0.6432
  336MOL0     O44278   9.758   9.094   6.046 -0.1500  0.7948 -0.1140
  336MOL0     C44279   9.619   9.115   6.086 -0.1706  0.2422  0.2825
  336MOL0     C44280   9.549   8.975   6.092  0.5844  0.1848 -0.2484
  336MOL0     C44281   9.559   8.910   5.957 -0.3762  0.2686  0.1675
  336MOL0     C44282   9.485   8.988   5.850  0.4525 -0.3446  0.3673
  336MOL0     C44283   9.355   9.041   5.893 -0.4982  1.0969 -0.7032
  336MOL0     C44284   9.243   9.089   5.938 -0.9942  0.0374  0.4507
  336MOL0     C44285   9.812   9.318   6.159 -0.0463  0.0063 -0.6751
  336MOL0     C44286   9.903   9.410   6.212  0.8853 -0.1468 -0.8601
  336MOL0     H44287  10.395   9.566   6.200 -2.6950  2.0133 -2.3043
  336MOL0     H44288  10.557   9.708   6.256 -0.4005 -4.7766  0.8593
  336MOL0     H44289  10.596   9.985   6.279  1.6846  6.2649  0.6325
  336MOL0     H44290  10.715   9.874   6.325 -0.8192  0.3343 -0.8360
  336MOL0     H44291  10.666  10.122   6.495 -0.4179 -0.8998  1.3397
  336MOL0     H44292  10.816  10.088   6.388  1.1478  0.4905  2.3673
  336MOL0     H44293  10.813   9.878   6.539 -5.0824 -0.7980 -0.4347
  336MOL0     H44294  10.720   9.977   6.638  0.3810 -1.7425 -0.5751
  336MOL0     H44295  10.998  10.034   6.507  0.8262 -1.9096  1.9600
  336MOL0     H44296  10.916  10.146   6.613  0.9630 -0.1321 -1.5757
  336MOL0     H44297  10.962  10.000   6.809 -1.4656  1.7226 -1.0682
  336MOL0     H44298  11.101  10.039   6.728  0.4468 -1.3399  1.1987
  336MOL0     H44299  10.972   9.750   6.701  0.6363 -0.2273 -0.4779
  336MOL0     H44300  11.094   9.806   6.799 -2.1517  0.1796  1.1666
  336MOL0     H44301  11.187   9.690   6.602 -4.4304 -2.5108 -0.9153
  336MOL0     H44302  11.121   9.776   6.480  1.6424  3.1125 -0.7020
  336MOL0     H44303  11.293   9.900   6.686 -0.1748  2.1278  0.2454
  336MOL0     H44304  11.250   9.977   6.538 -2.6839 -1.6342 -4.1908
  336MOL0     H44305  11.571   9.903   6.587 -0.3329 -0.4179 -0.7263
  336MOL0     H44306  11.763   9.863   6.413 -1.4694  0.4942  1.4827
  336MOL0     H44307  11.749   9.713   6.314  1.8994 -2.0972  0.9452
  336MOL0     H44308  11.774   9.582   6.518 -0.6407 -0.5099  0.6224
  336MOL0     H44309  11.782   9.729   6.616  1.3233  0.1343  0.1837
  336MOL0     H44310  11.975   9.800   6.479 -3.5419  0.5567  0.6682
  336MOL0     H44311  12.006   9.665   6.584 -1.5288  1.5887  0.7462
  336MOL0     H44312  12.116   9.645   6.371  0.5199  0.4403  0.5681
  336MOL0     H44313  11.965   9.670   6.276 -0.2780 -1.0800  0.4693
  336MOL0     H44314  11.803   9.580   6.174  0.4213 -2.1299 -3.0988
  336MOL0     H44315  11.661   9.458   6.079 -2.3328 -0.2776  1.0545
  336MOL0     H44316  11.264   9.366   6.059  0.1311  1.0522 -0.4572
  336MOL0     H44317  11.071   9.250   6.026  1.5773  1.7962 -1.0205
  336MOL0     H44318  11.026   8.827   5.819 -0.5124  0.6598  3.4287
  336MOL0     H44319  11.072   8.968   5.708 -0.2723 -0.5711 -0.0083
  336MOL0     H44320  10.814   8.909   5.841  0.9925  2.7408  1.6221
  336MOL0     H44321  10.852   8.881   5.681 -0.5883 -2.6443  2.4682
  336MOL0     H44322  10.870   9.112   5.614 -1.8556  1.8022 -0.9223
  336MOL0     H44323  10.893   9.178   5.772 -3.0708  2.4113 -1.1320
  336MOL0     H44324  10.629   9.052   5.694 -1.3036 -2.1347  3.1034
  336MOL0     H44325  10.680   9.138   5.834 -0.4274 -4.2451  0.0056
  336MOL0     H44326  10.691   9.262   5.546  2.5472  0.7092  0.5250
  336MOL0     H44327  10.691   9.345   5.704  1.1906 -1.1982  1.0817
  336MOL0     H44328  10.467   9.254   5.758  1.7539 -6.0364  1.4676
  336MOL0     H44329  10.448   9.177   5.602 -2.2504  1.0523  0.2418
  336MOL0     H44330  10.351   9.413   5.624 -0.8595 -2.7128  0.2300
  336MOL0     H44331  10.514   9.477   5.603  2.6432 -2.9212  4.0173
  336MOL0     H44332  10.362   9.287   5.392  1.4178 -0.5383 -2.3903
  336MOL0     H44333  10.529   9.345   5.388  0.3161  1.7344 -0.9228
  336MOL0     H44334  11.285   8.935   5.819  3.7137 -0.6053  0.9945
  336MOL0     H44335  11.504   9.056   5.874  0.2710  1.2525 -1.8603
  336MOL0     H44336  11.753   9.118   6.349 -0.4659  0.6933 -0.0759
  336MOL0     H44337  11.912   9.264   6.450  2.5287  4.5125  0.1668
  336MOL0     H44338  10.326   9.885   6.575  0.8143 -1.0608  0.4428
  336MOL0     H44339  10.120   9.759   6.486  0.0978  1.6674 -1.1410
  336MOL0     H44340  10.164   9.190   6.187 -1.5500 -1.7691  1.2714
  336MOL0     H44341  10.014   9.066   6.080  0.5179  0.7165  0.9301
  336MOL0     H44342   9.567   9.178   6.012 -1.1869 -0.5212  0.3195
  336MOL0     H44343   9.616   9.153   6.188  1.0979  1.5511 -0.1269
  336MOL0     H44344   9.599   8.919   6.172 -1.2448 -1.6377 -0.3043
  336MOL0     H44345   9.448   8.985   6.134  2.0347  1.1985  3.3919
  336MOL0     H44346   9.507   8.814   5.963 -0.7832  0.4426 -0.3872
  336MOL0     H44347   9.662   8.883   5.932 -0.7456 -1.9241  0.8448
  336MOL0     H44348   9.544   9.070   5.808 -1.5831  1.4971  0.9258
  336MOL0     H44349   9.464   8.917   5.768 -1.4173  0.4862  0.0667
  336MOL0     H44350   9.152   9.140   5.962 -0.2915  1.3906  0.3453
  336MOL0     H44351   9.714   9.353   6.131 -0.0468  0.6977  0.1481
  336MOL0     H44352   9.872   9.507   6.250 -1.4491 -0.3802 -1.9799
  337MOL0     O44353   9.035   6.537   7.064 -0.2932 -0.6745 -0.2437
  337MOL0     C44354   9.121   6.476   7.133 -0.4578  0.5017 -0.6023
  337MOL0     O44355   9.153   6.502   7.268  0.0359  0.3217  1.0310
  337MOL0     C44356   9.076   6.597   7.328  0.3025 -0.0586  0.6841
  337MOL0     C44357   9.140   6.696   7.402  0.4489  0.2411 -1.2398
  337MOL0     C44358   9.061   6.778   7.482  0.4937 -1.4114  0.0995
  337MOL0     C44359   8.927   6.788   7.464  0.6909 -0.9277  0.6616
  337MOL0     O44360   8.860   6.904   7.508 -0.1807  0.2522 -0.2726
  337MOL0     C44361   8.746   6.945   7.432 -0.1982  0.6327 -0.1362
  337MOL0     C44362   8.662   7.044   7.499 -0.3950 -0.2807  0.2850
  337MOL0     C44363   8.623   6.988   7.641  0.0685  0.7430 -0.3834
  337MOL0     C44364   8.492   6.896   7.650 -1.2057 -0.0976 -0.2098
  337MOL0     C44365   8.362   6.972   7.631  0.0997  0.4349  0.1989
  337MOL0     C44366   8.241   6.879   7.642  0.3287 -0.5222 -0.4937
  337MOL0     C44367   8.244   6.747   7.559 -0.5005 -0.7207  0.3099
  337MOL0     C44368   8.267   6.773   7.411  0.0876  0.1606 -0.8348
  337MOL0     N44369   8.157   6.824   7.334 -0.5583  0.1986 -0.2302
  337MOL0     C44370   8.076   6.759   7.247 -0.8689  0.0477  0.8916
  337MOL0     C44371   7.972   6.835   7.218  0.3638 -0.0748 -0.4785
  337MOL0     C44372   7.848   6.767   7.166  1.0208  0.3581  0.7569
  337MOL0     C44373   7.716   6.812   7.224 -0.1947 -0.1681  1.0005
  337MOL0     C44374   7.596   6.773   7.133 -0.2588 -0.0796 -0.6964
  337MOL0     C44375   7.509   6.666   7.196 -0.4553  0.1910  0.2328
  337MOL0     O44376   7.382   6.715   7.240 -0.8293 -0.0382  0.9776
  337MOL0     C44377   7.334   6.650   7.351  0.9685  0.4833 -0.6040
  337MOL0     C44378   7.319   6.511   7.351 -0.4003  0.0195 -0.5841
  337MOL0     C44379   7.249   6.451   7.453  0.3377  0.4969 -0.5367
  337MOL0     C44380   7.209   6.527   7.565 -0.0772  0.6864 -0.6163
  337MOL0     C44381   7.144   6.468   7.676  0.0995 -0.1579  0.0062
  337MOL0     O44382   7.183   6.518   7.810 -0.3363 -0.9727  0.0105
  337MOL0     C44383   7.125   6.447   7.916 -1.0545 -0.2668  0.4569
  337MOL0     C44384   7.185   6.335   7.966  0.5045  0.0800 -0.0621
  337MOL0     C44385   7.128   6.255   8.072 -0.1080 -0.2798 -0.3222
  337MOL0     C44386   7.002   6.292   8.119  0.1432 -0.3191  0.0434
  337MOL0     O44387   6.939   6.228   8.218  0.3095 -0.4116 -0.5912
  337MOL0     C44388   7.011   6.228   8.346  0.6129 -0.3299 -0.2646
  337MOL0     C44389   6.966   6.362   8.415 -1.0891  0.3596  0.5854
  337MOL0     C44390   6.811   6.359   8.425 -0.5216 -0.6716 -1.2774
  337MOL0     C44391   6.744   6.482   8.497  0.7217  0.3325  0.5614
  337MOL0     C44392   6.756   6.473   8.642  1.5993 -0.4094  0.4389
  337MOL0     C44393   6.692   6.581   8.722 -0.6479 -0.0801 -0.0219
  337MOL0     C44394   6.536   6.601   8.707 -0.6231  0.0628 -0.0790
  337MOL0     C44395   6.447   6.478   8.735 -0.0254 -0.3563  0.6675
  337MOL0    Cl44396   6.456   6.439   8.905 -0.8515  0.3446  0.3905
  337MOL0     C44397   6.944   6.406   8.059 -0.1268  0.0994 -0.0462
  337MOL0     C44398   7.003   6.485   7.969  0.2859  0.7971  0.7913
  337MOL0     O44399   7.061   6.378   7.663  0.2440 -0.3883  0.0907
  337MOL0     C44400   7.238   6.670   7.567  1.0480  0.1402 -0.3318
  337MOL0     C44401   7.301   6.730   7.463 -0.7957  0.1928  0.8296
  337MOL0     N44402   7.991   6.960   7.290 -0.5195  0.6348  0.0008
  337MOL0     N44403   8.106   6.952   7.357 -0.4226  0.5336  0.0279
  337MOL0     C44404   8.864   6.689   7.390  0.3144 -0.3438 -0.3802
  337MOL0     C44405   8.937   6.583   7.338 -0.5059  0.4011 -0.2223
  337MOL0     C44406   9.202   6.364   7.067 -0.5579 -0.1340  0.2226
  337MOL0     C44407   9.174   6.325   6.933  0.6207 -0.4740 -0.4873
  337MOL0     C44408   9.226   6.211   6.875  1.0874  0.4866 -0.0895
  337MOL0     C44409   9.319   6.136   6.949 -0.6698 -0.2930  0.5898
  337MOL0     O44410   9.379   6.028   6.889 -0.4700 -0.4314 -0.3697
  337MOL0     C44411   9.385   6.012   6.753 -0.2390  0.3758 -0.2282
  337MOL0     C44412   9.467   5.896   6.736  0.4147  0.2500  1.1662
  337MOL0     C44413   9.368   5.777   6.724 -0.5573  0.9111  0.3372
  337MOL0     C44414   9.445   5.643   6.695 -0.2337  0.1461 -0.1840
  337MOL0     C44415   9.455   5.551   6.808  0.3944  0.0541 -0.2697
  337MOL0     C44416   9.470   5.469   6.896 -0.5570 -0.1926 -0.5922
  337MOL0     C44417   9.351   6.177   7.079 -0.7272 -0.3120 -0.0519
  337MOL0     C44418   9.291   6.286   7.138  1.3863  0.1953  0.7225
  337MOL0     H44419   9.248   6.705   7.394  0.6384  1.3442  1.6276
  337MOL0     H44420   9.120   6.846   7.544 -0.0673 -0.2517 -0.6069
  337MOL0     H44421   8.675   6.867   7.403  0.3075  0.3191 -0.5488
  337MOL0     H44422   8.780   6.998   7.342  1.5361 -0.3976 -0.1320
  337MOL0     H44423   8.579   7.048   7.427 -1.0641 -1.5565  0.9359
  337MOL0     H44424   8.699   7.146   7.507  3.3532 -1.3289 -1.5313
  337MOL0     H44425   8.608   7.071   7.711  2.3107  1.3781 -0.5622
  337MOL0     H44426   8.709   6.935   7.683  0.2723  0.4256 -1.1778
  337MOL0     H44427   8.506   6.815   7.577  0.9731  0.1827 -0.1839
  337MOL0     H44428   8.495   6.835   7.741 -0.7471 -0.1561 -0.2598
  337MOL0     H44429   8.364   7.023   7.534 -0.4607  1.1113  0.5272
  337MOL0     H44430   8.350   7.054   7.703 -1.0617  3.4056 -3.0866
  337MOL0     H44431   8.154   6.936   7.607  0.9733 -0.6230 -2.3355
  337MOL0     H44432   8.237   6.860   7.750  0.7647  1.3596 -0.1077
  337MOL0     H44433   8.329   6.686   7.592 -0.2780 -0.3251  0.4763
  337MOL0     H44434   8.148   6.695   7.567 -1.8360  1.3865 -1.0491
  337MOL0     H44435   8.301   6.684   7.358  1.2719  1.4710 -2.3785
  337MOL0     H44436   8.353   6.840   7.400 -0.2700  0.6068 -0.9089
  337MOL0     H44437   8.093   6.656   7.219 -1.4356 -0.4095  2.1803
  337MOL0     H44438   7.853   6.658   7.163 -1.2794  0.2241 -0.9157
  337MOL0     H44439   7.835   6.805   7.064 -1.3268 -1.4327  0.3079
  337MOL0     H44440   7.724   6.921   7.217 -4.3946  0.4440  2.9072
  337MOL0     H44441   7.700   6.766   7.321  0.6694 -2.9421 -0.0704
  337MOL0     H44442   7.533   6.863   7.124 -1.3823 -0.8033 -0.3274
  337MOL0     H44443   7.638   6.738   7.038  1.8582 -0.8940  0.4838
  337MOL0     H44444   7.566   6.629   7.281 -1.6377 -1.4795  0.3559
  337MOL0     H44445   7.492   6.581   7.130  0.1805 -1.3674  1.9848
  337MOL0     H44446   7.352   6.446   7.270  1.1294  1.1841 -0.9421
  337MOL0     H44447   7.218   6.347   7.461  2.0341 -0.0226 -0.1538
  337MOL0     H44448   7.278   6.304   7.919 -1.1117  0.1509 -3.6315
  337MOL0     H44449   7.187   6.171   8.108 -2.8259 -0.9839  3.0457
  337MOL0     H44450   7.119   6.238   8.333  0.6890 -0.6143  0.1510
  337MOL0     H44451   6.988   6.148   8.416 -1.5133  0.3545 -0.1026
  337MOL0     H44452   6.996   6.449   8.356 -0.1210 -1.2439 -1.3842
  337MOL0     H44453   7.016   6.360   8.512  2.6517 -2.7259 -1.1768
  337MOL0     H44454   6.780   6.267   8.474  0.2100  0.0759  0.7160
  337MOL0     H44455   6.767   6.364   8.325  1.7512  4.3171 -2.3899
  337MOL0     H44456   6.787   6.577   8.466  0.0145  0.7613  0.8662
  337MOL0     H44457   6.639   6.485   8.468  0.5624  1.4909  1.2041
  337MOL0     H44458   6.860   6.494   8.670  0.7581  4.4053  0.8616
  337MOL0     H44459   6.724   6.377   8.682  1.5997 -0.2557  0.8143
  337MOL0     H44460   6.744   6.677   8.708 -1.1495  0.6549  2.6654
  337MOL0     H44461   6.709   6.564   8.829 -1.5683  0.8749  0.2909
  337MOL0     H44462   6.502   6.690   8.760  1.2044  2.4858 -2.6789
  337MOL0     H44463   6.507   6.632   8.606 -1.1653 -1.5374 -0.4469
  337MOL0     H44464   6.461   6.399   8.660 -5.6701 -0.1906 -1.0876
  337MOL0     H44465   6.346   6.514   8.713  1.3641  2.3418 -2.1237
  337MOL0     H44466   6.850   6.447   8.094  0.7135 -0.3901  3.0454
  337MOL0     H44467   6.943   6.564   7.926 -3.9869 -2.4933 -0.0533
  337MOL0     H44468   7.205   6.746   7.637  2.2255  0.3469  0.0286
  337MOL0     H44469   7.315   6.837   7.457  1.1581 -0.0092  1.2152
  337MOL0     H44470   8.758   6.670   7.394  0.2375  0.3295  1.2140
  337MOL0     H44471   8.889   6.500   7.286  0.9220 -0.0890 -0.8067
  337MOL0     H44472   9.102   6.387   6.880 -1.3971  0.8344  3.3835
  337MOL0     H44473   9.194   6.169   6.780 -0.1909 -0.6843  0.8051
  337MOL0     H44474   9.421   6.097   6.694 -1.2460  2.0540  1.4610
  337MOL0     H44475   9.285   5.987   6.717 -2.7144  4.2415  3.0461
  337MOL0     H44476   9.526   5.889   6.644 -2.8608  2.7420 -1.4114
  337MOL0     H44477   9.536   5.895   6.820  1.0146  1.2646  0.7074
  337MOL0     H44478   9.291   5.793   6.648  1.1465  0.4182 -1.5983
  337MOL0     H44479   9.307   5.757   6.813  0.3521 -2.7537  0.3170
  337MOL0     H44480   9.397   5.579   6.620  4.7722 -2.7894 -1.4174
  337MOL0     H44481   9.546   5.662   6.656 -0.3063  0.2888 -0.3058
  337MOL0     H44482   9.492   5.410   6.982  2.9173  0.2839 -1.0029
  337MOL0     H44483   9.414   6.106   7.131 -2.6594 -1.1084  1.3083
  337MOL0     H44484   9.317   6.295   7.244  3.1498  2.5811  0.1790
  338MOL0     O44485   8.287  11.355   6.580  0.9425 -0.4305  0.2359
  338MOL0     C44486   8.232  11.251   6.613  0.4419 -0.4717 -0.6288
  338MOL0     O44487   8.278  11.126   6.583  0.0604 -0.3694 -0.1504
  338MOL0     C44488   8.402  11.105   6.530 -0.6796 -0.5246  1.3610
  338MOL0     C44489   8.504  11.057   6.605  0.9272 -0.0506 -0.8046
  338MOL0     C44490   8.631  11.035   6.558 -0.0420  0.0909  0.1703
  338MOL0     C44491   8.649  11.037   6.421 -0.0837  0.1609 -0.2055
  338MOL0     O44492   8.775  11.016   6.367 -0.2812  0.7837  0.4873
  338MOL0     C44493   8.821  11.071   6.238  0.4494 -0.1319  0.3240
  338MOL0     C44494   8.970  11.090   6.240 -0.1790  0.3008  0.8009
  338MOL0     C44495   9.008  11.155   6.103 -0.2737  0.2298 -0.3201
  338MOL0     C44496   9.162  11.168   6.087  0.1801  1.0574  0.1909
  338MOL0     C44497   9.222  11.264   6.189  0.2091  0.5049 -0.4279
  338MOL0     C44498   9.322  11.189   6.278  0.0823 -0.1004  0.4725
  338MOL0     C44499   9.413  11.287   6.358  0.0408  1.5753  0.0474
  338MOL0     C44500   9.338  11.399   6.421  0.6651  0.5280 -0.0902
  338MOL0     N44501   9.429  11.456   6.520 -0.3052 -0.6643 -0.9579
  338MOL0     C44502   9.536  11.525   6.487 -1.2515  0.2996  0.2747
  338MOL0     C44503   9.580  11.571   6.605  0.2360 -0.4521  0.4791
  338MOL0     C44504   9.680  11.672   6.631  0.3301 -1.3387 -0.6343
  338MOL0     C44505   9.829  11.637   6.651  0.1044  0.3067 -0.1003
  338MOL0     C44506   9.841  11.528   6.765 -0.0284 -0.0925 -0.0429
  338MOL0     C44507   9.991  11.531   6.819  0.5188  0.3177  0.2651
  338MOL0     O44508  10.090  11.486   6.724  0.4799 -0.5842  0.0417
  338MOL0     C44509  10.210  11.514   6.775  0.0239 -0.9674 -0.3005
  338MOL0     C44510  10.268  11.457   6.892  0.5598  0.6514 -0.1607
  338MOL0     C44511  10.401  11.505   6.929  0.4589 -0.5005 -0.4535
  338MOL0     C44512  10.476  11.596   6.850  0.0613  0.1814  0.5331
  338MOL0     C44513  10.616  11.637   6.892  0.6540  0.0026 -0.1876
  338MOL0     O44514  10.702  11.694   6.808  0.4142  0.6957  0.0788
  338MOL0     C44515  10.825  11.743   6.846  0.8680  0.2320  0.1349
  338MOL0     C44516  10.847  11.836   6.954  0.4415  1.4142 -0.1379
  338MOL0     C44517  10.976  11.891   6.966 -0.0427 -0.1360 -0.3219
  338MOL0     C44518  11.085  11.853   6.887 -1.0624 -0.6797 -0.5548
  338MOL0     O44519  11.206  11.916   6.914  0.4942  0.4320  0.5142
  338MOL0     C44520  11.326  11.870   6.844 -0.7277 -0.2920  0.5947
  338MOL0     C44521  11.439  11.977   6.881  1.4027 -0.5048 -0.3743
  338MOL0     C44522  11.566  11.979   6.805  0.4472 -0.2105 -0.3985
  338MOL0     C44523  11.698  11.958   6.880 -0.2843  0.1397  0.0847
  338MOL0     C44524  11.824  12.002   6.797  0.3086 -0.2404  0.8847
  338MOL0     C44525  11.960  11.996   6.873  0.7945  0.0986  0.9140
  338MOL0     C44526  11.966  12.079   6.992  0.3792  0.1807 -1.1591
  338MOL0     C44527  12.100  12.071   7.067 -0.4541 -0.3418 -1.2018
  338MOL0    Cl44528  12.127  11.911   7.141 -0.3136 -0.1790  0.1330
  338MOL0     C44529  11.065  11.742   6.785 -0.4413 -0.5568 -0.2650
  338MOL0     C44530  10.938  11.702   6.765 -0.1088 -0.0774 -0.4256
  338MOL0     O44531  10.648  11.602   7.008 -0.3784  0.0442 -0.0458
  338MOL0     C44532  10.417  11.637   6.731  0.3697  0.8145 -0.4046
  338MOL0     C44533  10.286  11.600   6.690  0.1436 -0.0296 -0.1090
  338MOL0     N44534   9.510  11.505   6.707  0.5330  0.1432 -0.0960
  338MOL0     N44535   9.409  11.447   6.654 -0.0250 -0.0588 -0.5411
  338MOL0     C44536   8.539  11.078   6.340  0.2680  0.4115  0.0097
  338MOL0     C44537   8.420  11.115   6.391  0.7575  0.5114 -0.7048
  338MOL0     C44538   8.111  11.264   6.698  0.1870 -0.2243  0.0799
  338MOL0     C44539   8.095  11.390   6.762  0.7400  0.1328 -0.6687
  338MOL0     C44540   7.990  11.393   6.856  0.1492 -0.7283 -0.8891
  338MOL0     C44541   7.896  11.280   6.883 -0.3800  1.7582 -0.2525
  338MOL0     O44542   7.789  11.274   6.964  0.8441  0.3155  0.0891
  338MOL0     C44543   7.757  11.390   7.039  0.0031 -0.3080  0.1901
  338MOL0     C44544   7.685  11.354   7.168  0.2812 -0.9091  0.5739
  338MOL0     C44545   7.542  11.320   7.159 -0.3132  0.7252 -0.1737
  338MOL0     C44546   7.472  11.281   7.288  0.3181 -0.1313 -0.0794
  338MOL0     C44547   7.488  11.369   7.401 -1.2140 -0.1053  0.0712
  338MOL0     C44548   7.522  11.434   7.500  0.3411  1.2645 -0.4351
  338MOL0     C44549   7.910  11.169   6.803 -0.8704  0.7034 -1.1542
  338MOL0     C44550   8.018  11.163   6.717 -0.3313 -0.6864 -0.8071
  338MOL0     H44551   8.481  11.036   6.710 -0.5521 -0.4473 -1.1818
  338MOL0     H44552   8.719  11.006   6.615  1.3888 -2.8041 -3.1307
  338MOL0     H44553   8.778  11.171   6.235 -0.4579 -0.3004  3.7588
  338MOL0     H44554   8.796  11.011   6.150  2.0981 -0.4583  0.0542
  338MOL0     H44555   9.033  11.005   6.269  1.0222  0.9519  0.1818
  338MOL0     H44556   8.998  11.165   6.315 -1.7450  0.7754  0.9445
  338MOL0     H44557   8.950  11.248   6.110  1.5439  1.3948  0.0165
  338MOL0     H44558   8.977  11.094   6.018  0.5488  0.9980 -1.1883
  338MOL0     H44559   9.206  11.069   6.099 -3.4806 -1.3196 -3.4799
  338MOL0     H44560   9.201  11.177   5.985  1.6438 -0.7709  0.5254
  338MOL0     H44561   9.131  11.301   6.239 -0.7112  0.6997 -2.1515
  338MOL0     H44562   9.263  11.352   6.138 -0.1689  2.6945  2.7325
  338MOL0     H44563   9.377  11.114   6.221 -1.2255 -1.9754  1.5394
  338MOL0     H44564   9.266  11.125   6.348 -4.2259  1.4070 -1.2217
  338MOL0     H44565   9.465  11.226   6.432  0.2626 -0.0793 -1.3896
  338MOL0     H44566   9.496  11.316   6.293  1.7463 -0.8399  1.0212
  338MOL0     H44567   9.246  11.357   6.462  1.1507 -0.1554  0.3115
  338MOL0     H44568   9.306  11.473   6.346  1.0207  2.3755  1.5159
  338MOL0     H44569   9.566  11.542   6.384 -4.6580  2.0456 -0.5580
  338MOL0     H44570   9.641  11.733   6.713 -1.2221 -1.2619 -1.3863
  338MOL0     H44571   9.669  11.743   6.548 -1.5676  0.6124  1.1742
  338MOL0     H44572   9.887  11.728   6.664  1.6563 -0.6264 -0.2721
  338MOL0     H44573   9.871  11.586   6.563  1.7435  0.2449  0.6838
  338MOL0     H44574   9.782  11.553   6.853  0.1564 -1.8035  0.6096
  338MOL0     H44575   9.827  11.424   6.732 -2.1439  0.8624 -2.4468
  338MOL0     H44576   9.991  11.458   6.901 -1.3837  0.0610  0.0829
  338MOL0     H44577   9.994  11.634   6.855  0.5817  0.1693  0.6839
  338MOL0     H44578  10.213  11.377   6.939 -0.7377 -0.4505 -3.3256
  338MOL0     H44579  10.433  11.474   7.028 -2.8683  1.2906  1.3722
  338MOL0     H44580  10.769  11.858   7.026  1.1204  1.2744  0.6487
  338MOL0     H44581  10.993  11.971   7.038 -1.4606 -0.7919  0.7765
  338MOL0     H44582  11.303  11.871   6.737  0.8950 -1.1348  0.2132
  338MOL0     H44583  11.347  11.766   6.867 -0.2803 -1.0320 -2.6474
  338MOL0     H44584  11.461  11.966   6.988  2.1867  1.2320 -0.3122
  338MOL0     H44585  11.392  12.075   6.869  5.0246  1.7839  1.9828
  338MOL0     H44586  11.581  12.076   6.755  3.1281 -0.8010 -0.8908
  338MOL0     H44587  11.561  11.898   6.732  2.2856 -1.0537  0.3478
  338MOL0     H44588  11.688  12.012   6.975 -2.3604 -2.5241  1.5275
  338MOL0     H44589  11.708  11.851   6.901  0.2461  0.3287  0.8433
  338MOL0     H44590  11.802  12.095   6.743 -1.0787 -1.3920 -0.6234
  338MOL0     H44591  11.829  11.924   6.720  0.0741  0.3317  0.2844
  338MOL0     H44592  12.027  12.043   6.801 -0.4658  0.3414 -0.1278
  338MOL0     H44593  11.990  11.892   6.886 -0.6490 -0.6892 -1.3971
  338MOL0     H44594  11.960  12.185   6.967  0.1658  0.4004 -0.1981
  338MOL0     H44595  11.890  12.052   7.066  1.7927 -0.7075  0.0207
  338MOL0     H44596  12.113  12.145   7.146 -0.8014 -1.1461 -0.3796
  338MOL0     H44597  12.179  12.087   6.993  0.4518 -2.3920 -0.7271
  338MOL0     H44598  11.140  11.695   6.722 -0.4670 -0.0725 -0.6671
  338MOL0     H44599  10.925  11.634   6.681  1.6584 -1.1662  0.1210
  338MOL0     H44600  10.476  11.710   6.676  2.5955 -2.5294 -2.8426
  338MOL0     H44601  10.245  11.644   6.600  1.2968  0.1792 -0.5530
  338MOL0     H44602   8.548  11.063   6.233  2.1276  2.1704 -0.1361
  338MOL0     H44603   8.327  11.148   6.346 -2.9277 -2.3495  3.8735
  338MOL0     H44604   8.152  11.479   6.737  1.0335  0.0635 -0.2554
  338MOL0     H44605   7.971  11.485   6.910 -0.2994  0.0762 -2.3580
  338MOL0     H44606   7.695  11.458   6.980  0.0776 -1.4770 -1.3099
  338MOL0     H44607   7.848  11.445   7.065 -1.5054  3.3603 -1.6426
  338MOL0     H44608   7.741  11.274   7.217  4.3088  0.0640 -1.9235
  338MOL0     H44609   7.702  11.435   7.239  0.5457 -0.0098 -0.4950
  338MOL0     H44610   7.536  11.246   7.078 -1.5807  2.0551 -1.3566
  338MOL0     H44611   7.492  11.410   7.124 -1.1226  0.1852 -0.4364
  338MOL0     H44612   7.365  11.279   7.266  0.2004  0.6613  0.4015
  338MOL0     H44613   7.506  11.178   7.305 -0.9235 -0.2970  1.5896
  338MOL0     H44614   7.548  11.485   7.591 -1.3279  2.8443 -0.7830
  338MOL0     H44615   7.848  11.080   6.809 -0.2091  0.2854  3.5234
  338MOL0     H44616   8.021  11.077   6.652 -0.4315 -4.5486  3.7587
  339MOL0     O44617   3.846   2.104   3.360 -0.0470  0.2378 -0.2820
  339MOL0     C44618   3.796   2.011   3.296 -0.4690  0.2034  0.6055
  339MOL0     O44619   3.864   1.902   3.274 -0.0330 -0.1084 -1.1334
  339MOL0     C44620   3.996   1.877   3.312  0.1845 -0.3110  0.1898
  339MOL0     C44621   4.099   1.968   3.334  0.1209 -0.7802 -0.5394
  339MOL0     C44622   4.228   1.921   3.343 -0.3537 -1.2485 -0.0367
  339MOL0     C44623   4.263   1.792   3.339 -0.7611 -1.0124 -0.3984
  339MOL0     O44624   4.401   1.755   3.362  0.5832  0.5164 -0.0030
  339MOL0     C44625   4.455   1.756   3.503  0.0702  0.4615  0.2631
  339MOL0     C44626   4.602   1.702   3.502  0.2239  0.0289  0.0335
  339MOL0     C44627   4.615   1.553   3.455  1.0105  0.1952 -0.2028
  339MOL0     C44628   4.734   1.523   3.376 -0.7730 -0.2092 -0.0283
  339MOL0     C44629   4.817   1.407   3.437  0.7156  0.7055  0.3211
  339MOL0     C44630   4.745   1.264   3.398  0.2127 -0.0731  0.7195
  339MOL0     C44631   4.765   1.217   3.252 -0.0559  0.1901 -0.3079
  339MOL0     C44632   4.885   1.125   3.251 -0.6254  0.5706  0.1838
  339MOL0     N44633   4.903   1.072   3.117 -0.4174  0.2961  0.1066
  339MOL0     C44634   4.999   1.101   3.031  0.4315  0.0642  0.0553
  339MOL0     C44635   4.978   1.007   2.933 -0.0915  0.1678 -0.2159
  339MOL0     C44636   5.083   0.992   2.828 -0.7452  0.6118  0.0833
  339MOL0     C44637   5.126   1.125   2.761  0.0701 -0.3767 -0.3533
  339MOL0     C44638   5.167   1.101   2.614  0.5983 -0.6909  0.1739
  339MOL0     C44639   5.163   1.230   2.551  0.0382  0.1992 -0.0506
  339MOL0     O44640   5.031   1.283   2.536  0.2997  0.1756 -1.1040
  339MOL0     C44641   5.017   1.399   2.460 -1.0579  0.5020 -1.3784
  339MOL0     C44642   5.116   1.492   2.448 -0.9464 -0.7045 -1.1926
  339MOL0     C44643   5.089   1.596   2.359  0.2968  0.4590  0.6758
  339MOL0     C44644   4.972   1.610   2.281 -0.1137  0.1197 -0.2066
  339MOL0     C44645   4.966   1.719   2.179  0.6710 -0.3707  0.1573
  339MOL0     O44646   5.078   1.797   2.149 -0.7414 -0.3570 -1.3179
  339MOL0     C44647   5.062   1.890   2.047 -0.1401 -0.3435 -0.4440
  339MOL0     C44648   5.145   2.007   2.043  1.1232  0.2263 -0.7090
  339MOL0     C44649   5.132   2.107   1.947  0.2109  0.4414 -0.0018
  339MOL0     C44650   5.048   2.093   1.848  0.0595  0.2881 -0.5277
  339MOL0     O44651   5.034   2.196   1.750  0.3677  0.5543 -0.5024
  339MOL0     C44652   5.144   2.236   1.680 -0.1135  0.0737  0.3233
  339MOL0     C44653   5.113   2.336   1.577  0.1594 -0.0570  0.2077
  339MOL0     C44654   5.219   2.363   1.484 -0.2315  0.2061  0.0782
  339MOL0     C44655   5.292   2.245   1.428  0.2812  0.1318  0.4037
  339MOL0     C44656   5.423   2.216   1.503 -0.1205 -0.1773  0.1243
  339MOL0     C44657   5.521   2.123   1.420 -0.3205  0.5058 -0.8702
  339MOL0     C44658   5.665   2.128   1.484  0.7180 -0.3026  0.7278
  339MOL0     C44659   5.760   2.048   1.403 -0.4103  0.2340  0.4834
  339MOL0    Cl44660   5.728   1.877   1.425  0.3609 -0.1792  0.1314
  339MOL0     C44661   4.958   1.985   1.843 -0.4351 -0.4618  0.2187
  339MOL0     C44662   4.966   1.880   1.940  0.0283 -0.7239  0.2833
  339MOL0     O44663   4.850   1.758   2.154 -0.3658 -0.4607 -0.1307
  339MOL0     C44664   4.873   1.512   2.301  0.3913  0.5549 -0.3820
  339MOL0     C44665   4.893   1.412   2.385 -0.2472  0.7071 -0.4518
  339MOL0     N44666   4.882   0.928   2.969 -0.2602  0.1219 -0.8813
  339MOL0     N44667   4.830   0.968   3.082 -1.4986 -0.5896 -0.5310
  339MOL0     C44668   4.157   1.699   3.317 -0.4232 -0.9140  0.3352
  339MOL0     C44669   4.021   1.743   3.310 -0.2994 -0.0400 -1.2991
  339MOL0     C44670   3.674   2.045   3.220  0.2995 -0.0057  0.3011
  339MOL0     C44671   3.609   2.165   3.240 -0.2148  0.4055  0.2890
  339MOL0     C44672   3.483   2.194   3.187  0.1347 -0.2185  0.0878
  339MOL0     C44673   3.411   2.093   3.121 -0.0002  0.3608 -0.3014
  339MOL0     O44674   3.285   2.108   3.077 -0.0854 -0.8358 -0.6647
  339MOL0     C44675   3.196   2.210   3.106  0.7361 -0.5732  0.5267
  339MOL0     C44676   3.225   2.310   2.994 -0.3393  0.5742 -0.2057
  339MOL0     C44677   3.115   2.416   2.986  0.0841  0.8934  0.9547
  339MOL0     C44678   2.977   2.368   2.927 -0.6142 -0.2689 -0.4142
  339MOL0     C44679   2.890   2.481   2.899 -0.5795  0.4265  0.2191
  339MOL0     C44680   2.828   2.584   2.878 -0.7296 -0.1361  0.4050
  339MOL0     C44681   3.475   1.970   3.108 -0.3912  0.0980  0.5225
  339MOL0     C44682   3.605   1.945   3.158  0.2076 -0.8492  0.1357
  339MOL0     H44683   4.074   2.073   3.339 -0.1255 -0.8875  0.8483
  339MOL0     H44684   4.305   1.997   3.346 -1.8836  0.3487  2.8740
  339MOL0     H44685   4.389   1.695   3.566  0.3098  0.9066  0.9648
  339MOL0     H44686   4.459   1.855   3.549  1.4876  0.1049  0.9585
  339MOL0     H44687   4.648   1.722   3.599  0.6997  3.3709 -0.7667
  339MOL0     H44688   4.662   1.769   3.440  0.9447  1.0239  1.7261
  339MOL0     H44689   4.527   1.521   3.397  1.9503 -0.4514 -1.3079
  339MOL0     H44690   4.607   1.493   3.545 -0.5730 -0.9915 -1.0823
  339MOL0     H44691   4.707   1.503   3.272  0.5799 -0.0810 -0.4343
  339MOL0     H44692   4.803   1.608   3.386  0.8129 -1.3323 -0.9707
  339MOL0     H44693   4.830   1.416   3.545  0.5438  0.1246  0.3953
  339MOL0     H44694   4.916   1.398   3.392  0.4810 -1.8001  0.1179
  339MOL0     H44695   4.640   1.292   3.404  0.1337 -0.4584  1.1600
  339MOL0     H44696   4.772   1.188   3.472 -0.5772 -1.8898 -0.7797
  339MOL0     H44697   4.678   1.179   3.198 -1.6607  0.7784  1.7554
  339MOL0     H44698   4.776   1.308   3.192 -3.3461  1.1772  0.3868
  339MOL0     H44699   4.861   1.038   3.313  2.6370  0.7240  1.9037
  339MOL0     H44700   4.987   1.159   3.269  0.3989 -2.6231  1.1772
  339MOL0     H44701   5.068   1.186   3.035  3.0173 -1.8633 -0.5804
  339MOL0     H44702   5.049   0.921   2.752  2.1612  0.7253 -1.4694
  339MOL0     H44703   5.173   0.940   2.860  1.1384  2.5723 -1.6574
  339MOL0     H44704   5.214   1.150   2.819 -0.6717 -0.7689  0.9849
  339MOL0     H44705   5.037   1.189   2.769 -0.1157 -0.8719  2.7572
  339MOL0     H44706   5.265   1.057   2.594  1.0176  0.1515  0.3408
  339MOL0     H44707   5.109   1.021   2.568  2.5225 -1.7917 -0.4456
  339MOL0     H44708   5.216   1.211   2.457 -0.1448  0.7494 -0.2673
  339MOL0     H44709   5.229   1.295   2.609  2.0768 -1.6041 -0.2250
  339MOL0     H44710   5.209   1.489   2.504 -2.7418  1.5021  2.2341
  339MOL0     H44711   5.159   1.675   2.337 -2.0340  1.5732 -4.2404
  339MOL0     H44712   5.226   2.017   2.115  1.3292 -1.8560 -0.5983
  339MOL0     H44713   5.189   2.199   1.944  0.4949  0.3170  1.0615
  339MOL0     H44714   5.177   2.144   1.629 -1.8854 -0.5048  0.1692
  339MOL0     H44715   5.217   2.280   1.749  1.4519 -0.1020 -1.1522
  339MOL0     H44716   5.096   2.434   1.623  2.6149  0.8694 -0.6545
  339MOL0     H44717   5.025   2.300   1.524 -1.2314  1.3100  1.5159
  339MOL0     H44718   5.288   2.432   1.533 -1.8760  1.6784  0.4111
  339MOL0     H44719   5.172   2.417   1.401  1.2440 -0.4292 -1.1995
  339MOL0     H44720   5.233   2.153   1.422 -2.5224  1.7994  0.5026
  339MOL0     H44721   5.324   2.278   1.329  1.8056 -1.3278  0.3637
  339MOL0     H44722   5.388   2.154   1.585  0.9657 -2.1813 -0.8477
  339MOL0     H44723   5.468   2.314   1.521 -2.8420  1.4755 -1.3484
  339MOL0     H44724   5.525   2.152   1.314  4.2917 -1.0774 -1.3583
  339MOL0     H44725   5.472   2.025   1.427  0.4216  0.2783  2.6547
  339MOL0     H44726   5.704   2.230   1.491  1.8797 -0.6434 -0.4022
  339MOL0     H44727   5.663   2.095   1.588  3.7730 -2.6041  0.2306
  339MOL0     H44728   5.859   2.069   1.446  0.1821  0.4573 -0.9538
  339MOL0     H44729   5.766   2.079   1.299  4.6531  0.8291  0.7131
  339MOL0     H44730   4.883   1.984   1.765 -1.1164 -3.8333  0.7700
  339MOL0     H44731   4.901   1.795   1.924 -0.9655  0.2503 -1.1354
  339MOL0     H44732   4.784   1.509   2.239 -0.6412 -1.4619  1.1002
  339MOL0     H44733   4.823   1.330   2.399  1.8092 -1.6412 -2.8769
  339MOL0     H44734   4.189   1.597   3.298 -0.1771 -1.0515  1.4276
  339MOL0     H44735   3.940   1.672   3.303 -0.5012 -0.1873  1.3900
  339MOL0     H44736   3.652   2.227   3.318 -0.9232 -0.8448  1.7230
  339MOL0     H44737   3.432   2.289   3.206 -4.1948 -2.2472 -0.1498
  339MOL0     H44738   3.206   2.265   3.200  2.1870 -1.2298  0.7875
  339MOL0     H44739   3.096   2.166   3.104  0.8373 -0.7899 -0.8388
  339MOL0     H44740   3.317   2.362   3.021 -0.8206  0.3698  2.0436
  339MOL0     H44741   3.237   2.258   2.899 -5.3021 -0.3021 -0.6532
  339MOL0     H44742   3.155   2.503   2.932 -0.5889 -0.3663 -1.7266
  339MOL0     H44743   3.096   2.452   3.087 -1.3490 -1.3697  1.5713
  339MOL0     H44744   2.992   2.312   2.835 -0.1977 -1.7282  0.5055
  339MOL0     H44745   2.921   2.310   3.001 -0.7731 -2.2099 -1.9793
  339MOL0     H44746   2.778   2.671   2.842 -0.2037  0.6075  1.4434
  339MOL0     H44747   3.424   1.895   3.048  0.1549  0.5138 -0.5019
  339MOL0     H44748   3.655   1.851   3.137 -0.9371 -0.6234 -5.2945
  340MOL0     O44749   1.298   3.072   6.526  0.2009  0.9255  0.7637
  340MOL0     C44750   1.310   3.071   6.645 -0.5300  0.4575  0.4620
  340MOL0     O44751   1.212   3.080   6.743 -0.3276  0.5300  0.0289
  340MOL0     C44752   1.084   3.103   6.707 -0.1381  0.9210 -0.8628
  340MOL0     C44753   1.033   3.198   6.620  0.4562 -0.1813  0.4326
  340MOL0     C44754   0.898   3.209   6.575  0.7349 -0.2612 -0.1919
  340MOL0     C44755   0.799   3.115   6.626 -0.4124  0.7240 -1.1446
  340MOL0     O44756   0.667   3.103   6.579  0.8244 -0.4627  0.2347
  340MOL0     C44757   0.619   3.187   6.475  0.1440 -0.5068  0.4436
  340MOL0     C44758   0.464   3.149   6.457 -0.9605  0.4526  0.2297
  340MOL0     C44759   0.385   3.174   6.591  0.4852  0.2902  0.2743
  340MOL0     C44760   0.240   3.182   6.560 -0.0247 -0.7858  0.3923
  340MOL0     C44761   0.169   3.169   6.693  0.1294  0.3798 -0.6219
  340MOL0     C44762   0.036   3.228   6.664  0.2817 -0.6726  0.9139
  340MOL0     C44763  -0.048   3.161   6.551  0.3545  0.1737  0.6933
  340MOL0     C44764  -0.187   3.216   6.534  0.6578 -0.8156 -0.1724
  340MOL0     N44765  -0.264   3.200   6.655  0.3564 -0.3607  0.3127
  340MOL0     C44766  -0.364   3.101   6.680 -0.2975 -0.2492  0.4865
  340MOL0     C44767  -0.427   3.155   6.790 -0.3337 -0.3483  0.1879
  340MOL0     C44768  -0.545   3.088   6.844 -0.8311  0.5447 -0.2211
  340MOL0     C44769  -0.679   3.145   6.796  1.4445  0.1465 -0.7322
  340MOL0     C44770  -0.796   3.075   6.861 -1.1487  1.2478  0.2960
  340MOL0     C44771  -0.928   3.156   6.850  0.6511  0.3868  0.8456
  340MOL0     O44772  -0.910   3.278   6.932 -0.1029  0.6438 -0.2434
  340MOL0     C44773  -1.029   3.313   6.990  0.0143 -0.0843  0.1346
  340MOL0     C44774  -1.094   3.409   6.924  0.8293  0.2132  0.4106
  340MOL0     C44775  -1.217   3.452   6.968  0.0976 -0.8239  0.5509
  340MOL0     C44776  -1.267   3.427   7.092  0.7629 -1.2125 -0.3543
  340MOL0     C44777  -1.403   3.475   7.131 -0.2491 -0.5823  0.9627
  340MOL0     O44778  -1.465   3.408   7.227  1.1409 -0.0578 -0.2067
  340MOL0     C44779  -1.573   3.457   7.305 -0.8569  0.5472  0.2585
  340MOL0     C44780  -1.603   3.590   7.324  1.2335  0.0364  0.4732
  340MOL0     C44781  -1.717   3.626   7.399 -0.3374  0.1711  0.1526
  340MOL0     C44782  -1.796   3.532   7.460 -0.1192 -0.0819  0.1202
  340MOL0     O44783  -1.897   3.579   7.540  0.3057 -1.0146  0.2137
  340MOL0     C44784  -1.949   3.493   7.634 -0.0902  0.4257  0.6334
  340MOL0     C44785  -2.059   3.551   7.719  0.0097  1.8497  0.4492
  340MOL0     C44786  -2.092   3.444   7.828  0.1646  0.8244 -0.9023
  340MOL0     C44787  -2.220   3.489   7.896 -0.4518  0.1249 -0.2000
  340MOL0     C44788  -2.238   3.410   8.029  1.2804 -1.4527 -0.5114
  340MOL0     C44789  -2.366   3.462   8.109 -0.1686 -0.5286  0.0554
  340MOL0     C44790  -2.392   3.351   8.218  0.3418  0.4424 -0.6534
  340MOL0     C44791  -2.515   3.381   8.302 -0.1975  0.6492 -1.5657
  340MOL0    Cl44792  -2.564   3.213   8.364 -0.4276 -0.0357  0.4927
  340MOL0     C44793  -1.771   3.404   7.432 -0.3480  0.9037 -0.3058
  340MOL0     C44794  -1.663   3.367   7.353  0.3380  1.1937 -0.2392
  340MOL0     O44795  -1.452   3.564   7.054 -0.1551 -0.2941  0.3866
  340MOL0     C44796  -1.188   3.336   7.174 -0.0720  0.7975  0.1844
  340MOL0     C44797  -1.069   3.283   7.122  0.5340  0.1773 -0.0248
  340MOL0     N44798  -0.369   3.268   6.835 -0.6386  0.6588 -0.5269
  340MOL0     N44799  -0.276   3.294   6.749 -0.4462 -0.4748  0.0231
  340MOL0     C44800   0.851   3.018   6.719 -0.1715 -0.5035 -0.0730
  340MOL0     C44801   0.979   3.015   6.758  0.5450 -0.5891  1.0925
  340MOL0     C44802   1.449   3.042   6.685 -0.9359 -0.6690 -0.1266
  340MOL0     C44803   1.468   3.025   6.821 -0.2094 -0.5509 -0.9722
  340MOL0     C44804   1.590   2.995   6.872  0.1342 -0.0926 -0.0499
  340MOL0     C44805   1.701   2.980   6.791 -0.7834  1.1271 -0.0454
  340MOL0     O44806   1.828   2.943   6.837  0.4007  0.0307  0.4418
  340MOL0     C44807   1.936   2.992   6.760  0.3336 -0.3909 -0.4925
  340MOL0     C44808   2.062   2.976   6.848  0.0121 -0.2390 -0.6322
  340MOL0     C44809   2.100   3.117   6.915  0.9757  0.1334 -0.4121
  340MOL0     C44810   2.003   3.141   7.031  0.9518 -0.2450  0.6991
  340MOL0     C44811   1.973   3.283   7.067 -0.4601 -0.1590 -0.4801
  340MOL0     C44812   1.962   3.397   7.119 -0.3804 -0.3898  0.1801
  340MOL0     C44813   1.674   2.990   6.650 -0.3830 -0.1119 -0.1388
  340MOL0     C44814   1.553   3.019   6.595  0.0915  0.3804 -0.6974
  340MOL0     H44815   1.105   3.271   6.586  1.2549 -1.9100 -1.8687
  340MOL0     H44816   0.866   3.294   6.516 -1.0968  1.4653  3.0471
  340MOL0     H44817   0.675   3.146   6.390  0.6490 -1.4656  1.2225
  340MOL0     H44818   0.647   3.292   6.491  1.0886 -0.5312 -0.8677
  340MOL0     H44819   0.450   3.045   6.429  0.4144 -0.0274  1.2120
  340MOL0     H44820   0.426   3.224   6.387 -0.0166 -0.6033 -1.4717
  340MOL0     H44821   0.402   3.277   6.624 -2.8297  0.7438  0.9129
  340MOL0     H44822   0.422   3.094   6.656  0.4510  0.5439  0.6077
  340MOL0     H44823   0.213   3.271   6.503  0.8304  0.6713  2.1595
  340MOL0     H44824   0.211   3.096   6.499 -1.6022 -0.0885  0.1176
  340MOL0     H44825   0.221   3.209   6.779 -0.4384 -3.3176  1.6883
  340MOL0     H44826   0.146   3.066   6.723 -0.7983  1.1853  1.6389
  340MOL0     H44827   0.049   3.330   6.629 -3.5176 -0.0584  0.9231
  340MOL0     H44828  -0.012   3.234   6.762  1.5682  0.0206  1.5274
  340MOL0     H44829   0.006   3.179   6.458 -0.3677 -1.8750 -0.1684
  340MOL0     H44830  -0.065   3.054   6.564 -2.0451  0.6440  2.1708
  340MOL0     H44831  -0.236   3.172   6.446 -0.7333  1.1825 -0.4605
  340MOL0     H44832  -0.166   3.322   6.518 -0.6954 -0.2068  1.6895
  340MOL0     H44833  -0.403   3.014   6.630 -2.7867  2.7973 -3.4498
  340MOL0     H44834  -0.549   3.084   6.953 -1.2597 -2.6542 -0.2833
  340MOL0     H44835  -0.542   2.987   6.803 -2.0703  1.2993 -2.3215
  340MOL0     H44836  -0.687   3.134   6.687 -0.3217 -2.9579 -0.4039
  340MOL0     H44837  -0.688   3.250   6.828  1.3902 -0.4897  1.5296
  340MOL0     H44838  -0.808   2.972   6.826 -2.6379  1.2098  0.8436
  340MOL0     H44839  -0.771   3.061   6.967 -1.4898  0.3803  0.2756
  340MOL0     H44840  -1.010   3.089   6.877  1.9421 -1.0555  1.3700
  340MOL0     H44841  -0.951   3.184   6.747 -1.6842 -3.2992  0.1823
  340MOL0     H44842  -1.052   3.441   6.829 -0.9844  1.6819  0.0596
  340MOL0     H44843  -1.272   3.519   6.903  3.3883 -0.2948 -1.9484
  340MOL0     H44844  -1.534   3.673   7.314  0.4757  0.5707 -0.5432
  340MOL0     H44845  -1.764   3.723   7.411 -1.0676 -0.3254  1.5868
  340MOL0     H44846  -1.871   3.457   7.701  0.5545 -0.3164 -0.4735
  340MOL0     H44847  -1.994   3.405   7.587  0.1217 -0.0716  1.3419
  340MOL0     H44848  -2.142   3.574   7.651  1.4050  0.8396 -1.7218
  340MOL0     H44849  -2.023   3.636   7.777  3.2787  1.0837 -0.2510
  340MOL0     H44850  -2.018   3.440   7.908 -2.4113  0.1091  1.5901
  340MOL0     H44851  -2.111   3.348   7.778 -0.9397  0.6728 -0.2172
  340MOL0     H44852  -2.222   3.596   7.918  0.1538 -0.1494  1.3100
  340MOL0     H44853  -2.314   3.463   7.845  0.0808 -2.4403 -0.0115
  340MOL0     H44854  -2.149   3.423   8.091  1.1409  0.0859 -0.6049
  340MOL0     H44855  -2.246   3.301   8.019 -1.0665 -1.5001  1.1279
  340MOL0     H44856  -2.457   3.471   8.050 -0.2663  2.2449  0.5134
  340MOL0     H44857  -2.354   3.561   8.154 -1.1013 -1.1759  1.8280
  340MOL0     H44858  -2.401   3.254   8.168  0.9366 -0.5786  1.1411
  340MOL0     H44859  -2.321   3.327   8.298 -1.2907  1.0734  1.0574
  340MOL0     H44860  -2.590   3.417   8.231 -2.1761 -0.3457 -0.0593
  340MOL0     H44861  -2.484   3.452   8.379 -0.0170  0.3503 -1.3579
  340MOL0     H44862  -1.817   3.315   7.475  0.1499  1.5677  1.6866
  340MOL0     H44863  -1.633   3.264   7.338  1.7430  1.7333 -1.3272
  340MOL0     H44864  -1.237   3.302   7.265  0.3552 -2.6146 -0.7266
  340MOL0     H44865  -1.036   3.206   7.191 -0.1699  1.2152  1.5253
  340MOL0     H44866   0.785   2.949   6.770 -0.7939 -0.3164 -0.6226
  340MOL0     H44867   1.008   2.931   6.821  1.9947 -2.2683 -1.6222
  340MOL0     H44868   1.383   3.047   6.884 -1.6143 -0.5355 -2.8101
  340MOL0     H44869   1.609   2.974   6.977 -0.2341 -2.3527 -0.3997
  340MOL0     H44870   1.916   3.095   6.728 -0.4895 -0.6239 -0.7368
  340MOL0     H44871   1.957   2.920   6.680  1.2909 -2.2650  1.3655
  340MOL0     H44872   2.051   2.884   6.906  2.1629  0.3675  0.8352
  340MOL0     H44873   2.140   2.970   6.772  1.2686  4.4737 -0.0638
  340MOL0     H44874   2.091   3.203   6.847  2.7148  1.0386  0.4274
  340MOL0     H44875   2.203   3.124   6.951  0.8163 -1.2607  0.3956
  340MOL0     H44876   1.915   3.079   7.014  3.2950 -3.3660 -1.1705
  340MOL0     H44877   2.051   3.106   7.123  1.6867 -2.3217 -0.4066
  340MOL0     H44878   1.951   3.488   7.176 -1.6411 -0.5015  0.1438
  340MOL0     H44879   1.754   2.969   6.580 -0.2284 -0.1871  0.0565
  340MOL0     H44880   1.546   3.031   6.487 -2.0571 -0.4467 -0.7143
  341MOL0     O44881   1.995   0.249  10.033 -0.6597 -0.0582  0.2522
  341MOL0     C44882   1.982   0.172  10.125 -0.2096  1.2732 -0.2378
  341MOL0     O44883   1.898   0.190  10.232  0.4155  0.4375  0.3077
  341MOL0     C44884   1.821   0.299  10.228  0.3557 -0.3985 -0.9156
  341MOL0     C44885   1.681   0.285  10.250  0.4289 -0.5240  0.5884
  341MOL0     C44886   1.600   0.404  10.268 -0.2347 -0.0587  0.1840
  341MOL0     C44887   1.657   0.532  10.268 -0.1869  0.6684 -0.3206
  341MOL0     O44888   1.588   0.637  10.311  0.0750  0.6396  0.0150
  341MOL0     C44889   1.464   0.661  10.255 -0.4175  0.3155  0.6330
  341MOL0     C44890   1.486   0.699  10.108 -0.2213 -0.4349 -0.3678
  341MOL0     C44891   1.345   0.742  10.051 -0.1823  0.8500  0.2731
  341MOL0     C44892   1.361   0.751   9.901  1.0728 -0.2412 -0.4869
  341MOL0     C44893   1.218   0.785   9.860 -0.6707  0.3375  0.8262
  341MOL0     C44894   1.203   0.801   9.705  0.5884 -0.2611  0.1199
  341MOL0     C44895   1.075   0.883   9.655 -0.6749  1.4504  0.0383
  341MOL0     C44896   1.056   0.879   9.500  0.5426 -1.0776  0.7277
  341MOL0     N44897   0.970   0.984   9.453 -0.9964  0.2420 -0.4791
  341MOL0     C44898   0.981   1.114   9.484  0.5191 -0.3441  0.1176
  341MOL0     C44899   0.900   1.183   9.401  0.1429 -0.4277  0.7419
  341MOL0     C44900   0.889   1.333   9.397 -0.6053  0.7965 -0.1325
  341MOL0     C44901   0.750   1.370   9.432  0.1045 -0.6390 -0.1587
  341MOL0     C44902   0.644   1.322   9.338 -0.3931 -0.2221  0.0852
  341MOL0     C44903   0.522   1.405   9.351  0.6738  0.8841  0.2726
  341MOL0     O44904   0.413   1.354   9.271 -0.6458  0.3198  0.0470
  341MOL0     C44905   0.326   1.434   9.207  0.5619 -0.1460 -0.2357
  341MOL0     C44906   0.267   1.539   9.279 -0.5892 -0.8585  0.6221
  341MOL0     C44907   0.201   1.640   9.207  0.5507  0.0106  0.6344
  341MOL0     C44908   0.177   1.628   9.067  0.6007 -0.7521 -0.5637
  341MOL0     C44909   0.100   1.736   8.995  0.4799  0.1403 -0.6322
  341MOL0     O44910   0.085   1.854   9.063  0.6292 -0.6818 -0.3136
  341MOL0     C44911   0.065   1.971   8.991 -0.6776  0.2871 -0.1598
  341MOL0     C44912  -0.022   1.996   8.888 -0.1350  0.3273  0.3632
  341MOL0     C44913  -0.020   2.114   8.807  0.4256 -0.7637  0.2878
  341MOL0     C44914   0.064   2.221   8.829 -1.2711 -0.2301  0.3036
  341MOL0     O44915   0.065   2.344   8.765  0.6385  0.2700  0.6748
  341MOL0     C44916  -0.053   2.394   8.699 -0.2882 -0.7184 -0.8837
  341MOL0     C44917  -0.076   2.543   8.732  0.2207 -0.6137  0.2755
  341MOL0     C44918  -0.074   2.573   8.887  0.9576  0.0835  0.5073
  341MOL0     C44919  -0.128   2.719   8.903 -0.4441  0.0188  0.2627
  341MOL0     C44920  -0.017   2.824   8.906 -0.5451  0.3717 -0.2443
  341MOL0     C44921  -0.068   2.959   8.858 -0.9585  0.5747  0.0827
  341MOL0     C44922   0.034   3.065   8.891  0.5796  0.8198  0.7592
  341MOL0     C44923   0.038   3.118   9.032  0.5702 -0.1659  0.8385
  341MOL0    Cl44924  -0.115   3.175   9.100  0.1697 -0.6125  0.6823
  341MOL0     C44925   0.152   2.201   8.936 -0.3016 -0.0574  0.0475
  341MOL0     C44926   0.145   2.087   9.017 -0.8815  0.3619 -0.4934
  341MOL0     O44927   0.081   1.723   8.872 -0.5522  0.3826 -0.4462
  341MOL0     C44928   0.215   1.513   9.001 -0.5231  1.3296  0.6859
  341MOL0     C44929   0.289   1.415   9.074  0.2311 -0.3753  0.4721
  341MOL0     N44930   0.840   1.086   9.320 -0.5181  0.5509  0.4918
  341MOL0     N44931   0.885   0.967   9.352  0.2693 -0.1797 -0.4978
  341MOL0     C44932   1.796   0.536  10.239  0.1080  0.1236 -1.0293
  341MOL0     C44933   1.877   0.424  10.227  0.0687 -0.0668  0.5222
  341MOL0     C44934   2.052   0.045  10.114 -0.4483 -0.0767 -0.6287
  341MOL0     C44935   2.052  -0.047  10.223 -0.1145  1.1329  0.4614
  341MOL0     C44936   2.128  -0.169  10.218  0.2453  0.3633  0.7706
  341MOL0     C44937   2.209  -0.186  10.105  0.3240 -0.2618  0.3191
  341MOL0     O44938   2.280  -0.303  10.099  0.2571 -0.3355 -0.1033
  341MOL0     C44939   2.377  -0.328   9.996 -0.8417  0.0319  0.7528
  341MOL0     C44940   2.398  -0.481   9.982 -0.2011  0.3516 -0.2780
  341MOL0     C44941   2.446  -0.542  10.118  0.7090 -0.5269 -0.5432
  341MOL0     C44942   2.507  -0.683  10.098 -0.0448  0.9031 -0.1182
  341MOL0     C44943   2.409  -0.777  10.035 -0.0524 -0.1319  0.1119
  341MOL0     C44944   2.346  -0.852   9.963  0.7766  0.3121 -0.4388
  341MOL0     C44945   2.220  -0.090  10.006 -0.3560  1.1613  0.6671
  341MOL0     C44946   2.140   0.025  10.011  0.8248  0.5768  1.0312
  341MOL0     H44947   1.648   0.183  10.263  0.3354 -0.5066  0.4901
  341MOL0     H44948   1.495   0.386  10.291  0.0308  1.3461  2.8246
  341MOL0     H44949   1.416   0.745  10.306 -0.5781 -0.2191  1.3809
  341MOL0     H44950   1.402   0.572  10.271  0.7525 -0.6141  0.1299
  341MOL0     H44951   1.528   0.610  10.061  1.0392  0.2783 -0.6321
  341MOL0     H44952   1.552   0.786  10.102 -3.2974  2.1970  1.0212
  341MOL0     H44953   1.316   0.840  10.090  3.4132  2.7859 -1.4492
  341MOL0     H44954   1.282   0.655  10.075  1.2082 -0.0096  0.9218
  341MOL0     H44955   1.435   0.829   9.879  1.6521 -1.2843 -2.4606
  341MOL0     H44956   1.410   0.665   9.855 -1.7968 -0.4472 -3.5426
  341MOL0     H44957   1.186   0.877   9.910  2.1244  1.2173  1.1689
  341MOL0     H44958   1.150   0.701   9.878 -1.2819  0.8363  0.8461
  341MOL0     H44959   1.200   0.700   9.661  0.9957 -0.2560  0.0791
  341MOL0     H44960   1.288   0.847   9.653 -0.5672 -2.0817 -3.8134
  341MOL0     H44961   0.985   0.843   9.702 -1.6411  0.3532 -2.5788
  341MOL0     H44962   1.079   0.988   9.684  0.6230  1.3692  0.2340
  341MOL0     H44963   1.009   0.787   9.464  0.2792 -0.7322  0.1759
  341MOL0     H44964   1.155   0.889   9.454  0.1990  2.3328  0.4917
  341MOL0     H44965   1.056   1.165   9.543 -1.7290  4.4453 -0.6149
  341MOL0     H44966   0.923   1.358   9.296 -0.9863 -1.7891 -0.9786
  341MOL0     H44967   0.959   1.386   9.462  0.9142  2.1206 -2.6725
  341MOL0     H44968   0.734   1.478   9.439  1.7109 -0.3176 -1.0276
  341MOL0     H44969   0.715   1.331   9.528 -2.8124 -0.5863 -1.1052
  341MOL0     H44970   0.672   1.334   9.233 -0.4356  4.2685  0.4057
  341MOL0     H44971   0.636   1.215   9.358  0.7391 -0.4124 -0.3674
  341MOL0     H44972   0.544   1.508   9.322  0.6745  0.9286  0.4332
  341MOL0     H44973   0.495   1.399   9.457 -0.2282  1.0528  0.0596
  341MOL0     H44974   0.308   1.550   9.380 -0.6253  1.6581  0.4251
  341MOL0     H44975   0.173   1.732   9.257  3.6530  0.9533  0.8733
  341MOL0     H44976  -0.097   1.924   8.856 -0.7104  1.3123 -0.5968
  341MOL0     H44977  -0.090   2.125   8.725  1.5797 -0.8531 -0.7280
  341MOL0     H44978  -0.145   2.353   8.742 -0.6368  0.1735 -0.7667
  341MOL0     H44979  -0.036   2.365   8.594 -0.6732  1.7296 -1.6881
  341MOL0     H44980  -0.172   2.575   8.691  0.3017  1.6703  1.6959
  341MOL0     H44981   0.008   2.599   8.690 -0.3606 -0.4837 -0.7616
  341MOL0     H44982   0.027   2.569   8.928  2.1458  2.7678 -1.7959
  341MOL0     H44983  -0.139   2.504   8.942 -1.1766  3.5107  2.6532
  341MOL0     H44984  -0.193   2.756   8.823 -2.5686 -1.2225  1.3117
  341MOL0     H44985  -0.187   2.725   8.996 -1.0404 -0.4575 -0.0790
  341MOL0     H44986   0.075   2.800   8.850 -0.7841 -0.5017 -0.2776
  341MOL0     H44987   0.012   2.831   9.011 -0.3902  0.0430 -0.2627
  341MOL0     H44988  -0.165   2.980   8.905 -1.4211  1.5476 -1.2364
  341MOL0     H44989  -0.067   2.954   8.748  2.1366 -2.5303  0.0899
  341MOL0     H44990   0.132   3.019   8.873 -1.2367 -3.0943 -0.1873
  341MOL0     H44991   0.017   3.148   8.821 -0.1968  0.9722  1.1228
  341MOL0     H44992   0.108   3.202   9.036 -0.9572  1.4914 -2.4519
  341MOL0     H44993   0.068   3.037   9.099  0.1943 -0.5672  0.5312
  341MOL0     H44994   0.203   2.293   8.965 -0.0695 -0.3625  0.6353
  341MOL0     H44995   0.222   2.078   9.093  0.2670  1.0470 -1.5489
  341MOL0     H44996   0.183   1.501   8.898  0.3435  2.5148  0.2462
  341MOL0     H44997   0.323   1.329   9.017 -1.8838  1.0085 -3.2335
  341MOL0     H44998   1.853   0.627  10.254  1.2972 -1.0291  2.3394
  341MOL0     H44999   1.983   0.447  10.221 -0.3442  1.5377 -1.6148
  341MOL0     H45000   2.001  -0.034  10.318 -2.4527 -0.1568 -0.5269
  341MOL0     H45001   2.125  -0.247  10.293  1.6855 -1.4436 -0.9297
  341MOL0     H45002   2.475  -0.288  10.024  1.5456 -1.8705 -3.8114
  341MOL0     H45003   2.352  -0.287   9.898 -2.8161 -1.6516  0.4930
  341MOL0     H45004   2.299  -0.523   9.960  1.4796 -3.1463 -2.0471
  341MOL0     H45005   2.473  -0.509   9.907  2.2155  2.4413  1.1929
  341MOL0     H45006   2.380  -0.543  10.205  2.6922 -3.1257  1.0694
  341MOL0     H45007   2.529  -0.476  10.146 -0.9433  1.2956  0.3417
  341MOL0     H45008   2.589  -0.667  10.028  0.2692 -1.7675 -0.4634
  341MOL0     H45009   2.543  -0.721  10.194 -1.6245 -2.5156 -0.7105
  341MOL0     H45010   2.277  -0.901   9.897  0.9351  0.8971 -1.0452
  341MOL0     H45011   2.289  -0.087   9.923 -0.5884 -0.7723  0.3518
  341MOL0     H45012   2.136   0.096   9.929 -0.7013 -1.7978 -1.0912
  342MOL0     O45013   4.025   2.147   2.007 -0.0645  0.0565  0.0786
  342MOL0     C45014   4.108   2.093   1.931  0.1789 -0.7812  0.2679
  342MOL0     O45015   4.068   2.038   1.809  0.1463  0.1762  0.4820
  342MOL0     C45016   3.937   2.015   1.790  0.0027 -0.0712 -0.4026
  342MOL0     C45017   3.888   1.903   1.851  1.3602  0.7605 -0.6227
  342MOL0     C45018   3.750   1.872   1.841  0.2900  0.3007  0.5362
  342MOL0     C45019   3.667   1.948   1.750  0.0124 -0.3356  0.3035
  342MOL0     O45020   3.532   1.930   1.728  0.1472 -0.0371 -0.0172
  342MOL0     C45021   3.480   1.793   1.740 -0.7855 -0.4201  0.5059
  342MOL0     C45022   3.394   1.782   1.617  0.0529  0.4648 -0.0976
  342MOL0     C45023   3.324   1.906   1.558  0.8582 -0.0932  0.5107
  342MOL0     C45024   3.207   1.944   1.654 -0.0997  0.1285 -0.2880
  342MOL0     C45025   3.162   2.086   1.655 -0.4564 -0.8951  0.1655
  342MOL0     C45026   3.271   2.172   1.729  1.3479  0.4886  1.2996
  342MOL0     C45027   3.229   2.323   1.721 -0.6120  0.3929 -0.1055
  342MOL0     C45028   3.329   2.413   1.803  0.5831  0.1538  0.5759
  342MOL0     N45029   3.333   2.548   1.750 -0.0782 -0.0198  0.3407
  342MOL0     C45030   3.268   2.662   1.800 -0.3729 -0.0277 -0.0571
  342MOL0     C45031   3.304   2.757   1.706 -0.2798 -0.3451  0.0615
  342MOL0     C45032   3.240   2.895   1.700  0.8840 -0.3387  0.4595
  342MOL0     C45033   3.283   2.990   1.586  0.6613  1.0512  0.3122
  342MOL0     C45034   3.414   3.056   1.610 -0.0358  0.2971  0.5820
  342MOL0     C45035   3.467   3.126   1.484 -0.0168  0.1841  0.7100
  342MOL0     O45036   3.574   3.211   1.518  0.0144  0.2827  0.6159
  342MOL0     C45037   3.592   3.333   1.454  0.9493  0.4014  1.3475
  342MOL0     C45038   3.503   3.401   1.364  0.6242 -0.2670  0.1183
  342MOL0     C45039   3.530   3.515   1.291 -0.8194  0.7198 -0.5909
  342MOL0     C45040   3.658   3.579   1.307 -0.1732 -0.0140 -0.4549
  342MOL0     C45041   3.684   3.709   1.238 -0.1602  0.2249 -0.9281
  342MOL0     O45042   3.790   3.782   1.279 -0.4971  0.4075  0.3631
  342MOL0     C45043   3.819   3.908   1.222  0.0786  0.3321  1.0120
  342MOL0     C45044   3.839   3.934   1.084 -0.0322 -0.7008  1.0212
  342MOL0     C45045   3.876   4.070   1.035 -0.4773 -0.6993 -0.1132
  342MOL0     C45046   3.895   4.174   1.133 -0.3415  0.6523  0.1482
  342MOL0     O45047   3.928   4.299   1.097  0.3871  0.0226  0.0362
  342MOL0     C45048   3.837   4.411   1.124 -0.2508  0.1467 -0.4551
  342MOL0     C45049   3.688   4.382   1.116 -0.0564  0.3347 -0.4051
  342MOL0     C45050   3.599   4.492   1.178 -0.5625  1.2073  0.3425
  342MOL0     C45051   3.637   4.533   1.322  0.3047 -0.0200 -0.2215
  342MOL0     C45052   3.527   4.615   1.403  0.2468 -0.5415  0.3530
  342MOL0     C45053   3.454   4.734   1.328 -0.5738  0.1508 -0.9234
  342MOL0     C45054   3.555   4.844   1.294  0.5484  0.2384  0.5610
  342MOL0     C45055   3.488   4.966   1.226 -0.5588 -1.0569  0.0100
  342MOL0    Cl45056   3.398   4.925   1.074  0.3147  0.0803 -0.2355
  342MOL0     C45057   3.873   4.155   1.265  0.3762  0.5661  0.6314
  342MOL0     C45058   3.840   4.019   1.308 -0.1271  0.6303  0.4556
  342MOL0     O45059   3.602   3.751   1.153 -0.0116 -0.8570  0.5345
  342MOL0     C45060   3.753   3.519   1.393 -0.6496  0.8758  0.7025
  342MOL0     C45061   3.714   3.392   1.457 -0.0871  0.4347 -0.4173
  342MOL0     N45062   3.382   2.701   1.606 -0.4166 -0.6086 -0.1077
  342MOL0     N45063   3.398   2.569   1.629  0.1160  0.1351 -0.4578
  342MOL0     C45064   3.714   2.072   1.702  0.3102 -0.0553  0.6073
  342MOL0     C45065   3.851   2.102   1.722  0.7081 -0.4634 -0.1525
  342MOL0     C45066   4.250   2.106   1.975 -0.2101  0.9178 -0.2366
  342MOL0     C45067   4.350   2.004   1.939 -0.3932 -0.3779  0.5952
  342MOL0     C45068   4.481   2.022   1.988 -0.1961  0.0232  0.2756
  342MOL0     C45069   4.513   2.140   2.058  1.1267 -0.6866  0.6067
  342MOL0     O45070   4.639   2.156   2.110  0.6840  0.8797  0.6476
  342MOL0     C45071   4.709   2.280   2.074 -0.1303  0.8734 -0.2436
  342MOL0     C45072   4.822   2.296   2.171 -0.4532 -0.3904  0.5771
  342MOL0     C45073   4.774   2.350   2.301 -0.5024 -0.3612 -0.2813
  342MOL0     C45074   4.717   2.493   2.296  0.1849 -0.1211  0.6980
  342MOL0     C45075   4.719   2.577   2.413  0.4606 -0.2834  0.2774
  342MOL0     C45076   4.725   2.632   2.515  0.2856  0.1760  0.5469
  342MOL0     C45077   4.419   2.227   2.099 -0.3942  0.5268  0.8304
  342MOL0     C45078   4.289   2.214   2.055  0.3268  0.7305 -0.0275
  342MOL0     H45079   3.953   1.840   1.910 -0.7482  1.3525  2.6104
  342MOL0     H45080   3.718   1.784   1.895  2.1309 -0.4099  0.5238
  342MOL0     H45081   3.427   1.786   1.835  0.8498  1.5012  1.6337
  342MOL0     H45082   3.554   1.713   1.732  0.0595  0.2966  1.0338
  342MOL0     H45083   3.326   1.702   1.645 -0.7118  1.9708  2.6634
  342MOL0     H45084   3.453   1.736   1.536 -1.6965 -1.5769 -0.3172
  342MOL0     H45085   3.278   1.867   1.467 -1.9713 -1.3137  2.3365
  342MOL0     H45086   3.396   1.987   1.542  5.7316 -2.9067  5.0044
  342MOL0     H45087   3.120   1.879   1.638  0.2258  0.0457 -1.8737
  342MOL0     H45088   3.239   1.927   1.757  1.1856  2.3088 -0.2622
  342MOL0     H45089   3.067   2.100   1.706 -0.7059  0.8883 -0.6930
  342MOL0     H45090   3.140   2.115   1.551 -0.3057 -2.0522 -0.2001
  342MOL0     H45091   3.360   2.144   1.671  0.4982 -1.9593  1.0829
  342MOL0     H45092   3.276   2.131   1.830  1.8900 -5.7886 -0.8597
  342MOL0     H45093   3.236   2.357   1.618  1.5294 -0.8074 -0.4220
  342MOL0     H45094   3.128   2.342   1.758 -0.4544 -0.9544  1.1317
  342MOL0     H45095   3.430   2.374   1.792  1.0464  1.6612 -0.8940
  342MOL0     H45096   3.298   2.419   1.908 -1.0424 -0.5714  0.1698
  342MOL0     H45097   3.201   2.683   1.882 -2.9164  0.9307 -2.2353
  342MOL0     H45098   3.261   2.941   1.797 -2.1995 -1.8752  1.9981
  342MOL0     H45099   3.134   2.877   1.680  0.7159  1.8653 -1.0866
  342MOL0     H45100   3.201   3.062   1.581 -1.3908 -1.1158  1.1843
  342MOL0     H45101   3.286   2.947   1.485  0.2368 -0.8511  1.0767
  342MOL0     H45102   3.390   3.134   1.683 -3.0993  0.9701 -0.9809
  342MOL0     H45103   3.493   2.985   1.637  2.5708  1.2516 -3.6851
  342MOL0     H45104   3.384   3.187   1.447  1.2757  1.2044 -0.6509
  342MOL0     H45105   3.508   3.061   1.406 -0.5965 -0.7302  1.1596
  342MOL0     H45106   3.406   3.357   1.341  0.8292 -0.7543  0.1752
  342MOL0     H45107   3.455   3.562   1.228  1.2227  4.5035 -0.4697
  342MOL0     H45108   3.820   3.856   1.011  0.1762  0.0517  0.1442
  342MOL0     H45109   3.895   4.116   0.939  3.3621 -1.0901  0.2722
  342MOL0     H45110   3.868   4.498   1.066 -3.0423  0.8655 -1.0038
  342MOL0     H45111   3.873   4.421   1.227  0.4764 -1.8323 -0.4639
  342MOL0     H45112   3.668   4.290   1.171  2.3515 -0.7367 -1.2235
  342MOL0     H45113   3.651   4.362   1.015 -0.7486  2.8297 -0.7232
  342MOL0     H45114   3.497   4.452   1.177  1.0239 -3.5268  1.4590
  342MOL0     H45115   3.598   4.584   1.119  0.4036 -0.0917 -1.7948
  342MOL0     H45116   3.666   4.450   1.387 -0.6042 -0.4669 -0.3757
  342MOL0     H45117   3.724   4.594   1.297 -1.8881  3.3942 -0.1849
  342MOL0     H45118   3.583   4.637   1.495  1.9221 -2.4289 -0.1476
  342MOL0     H45119   3.444   4.550   1.433  0.2027 -1.6337 -1.9491
  342MOL0     H45120   3.372   4.779   1.384  0.2866 -1.4885  1.8755
  342MOL0     H45121   3.414   4.695   1.234 -0.0295 -0.5509 -0.8759
  342MOL0     H45122   3.595   4.879   1.390  0.8391 -3.4448  1.9335
  342MOL0     H45123   3.638   4.810   1.232 -0.2323  1.2948 -1.1273
  342MOL0     H45124   3.565   5.038   1.194 -1.9902  0.0936 -0.9578
  342MOL0     H45125   3.425   5.024   1.294  1.3461  2.2208 -0.7400
  342MOL0     H45126   3.877   4.235   1.338  1.0027  1.2949 -0.1767
  342MOL0     H45127   3.841   4.010   1.416  2.6819  0.3324  0.4910
  342MOL0     H45128   3.846   3.571   1.416 -0.6404  1.8932 -1.4441
  342MOL0     H45129   3.791   3.345   1.517  0.5007 -0.9626 -2.1874
  342MOL0     H45130   3.640   2.117   1.637 -0.1730 -3.9998 -1.9270
  342MOL0     H45131   3.881   2.195   1.675  0.3651 -0.0519  0.4361
  342MOL0     H45132   4.346   1.935   1.855  0.1425  3.0063 -2.4894
  342MOL0     H45133   4.547   1.940   1.963 -1.2712 -1.0110  0.7213
  342MOL0     H45134   4.651   2.373   2.071 -1.4553  0.0864  0.1378
  342MOL0     H45135   4.756   2.267   1.976  1.1877 -2.1072  0.6667
  342MOL0     H45136   4.878   2.203   2.186  2.4126  0.9692 -1.0087
  342MOL0     H45137   4.883   2.372   2.122 -0.7299 -0.4403  0.1487
  342MOL0     H45138   4.864   2.359   2.363  1.8835  0.8806 -3.6187
  342MOL0     H45139   4.704   2.284   2.353  2.7125 -1.1448  3.5428
  342MOL0     H45140   4.762   2.546   2.211 -7.0478  3.7902 -1.5414
  342MOL0     H45141   4.612   2.487   2.268 -0.7090  0.7957  3.5040
  342MOL0     H45142   4.722   2.716   2.581  0.4185  2.5316 -2.2212
  342MOL0     H45143   4.436   2.312   2.164 -2.3742 -0.9077  3.4326
  342MOL0     H45144   4.215   2.291   2.077 -2.2613 -1.5599 -0.0985
  343MOL0     O45145   6.720  11.433   9.115  0.2648  0.5378  0.1485
  343MOL0     C45146   6.618  11.367   9.115 -0.6265 -0.3500  0.0414
  343MOL0     O45147   6.548  11.335   9.007 -0.2361  0.3467 -0.7730
  343MOL0     C45148   6.584  11.383   8.884  0.0233 -0.2743  0.4109
  343MOL0     C45149   6.581  11.309   8.762  0.5619 -0.7930 -0.7527
  343MOL0     C45150   6.600  11.371   8.645  0.7027 -0.2798  0.5834
  343MOL0     C45151   6.639  11.506   8.625 -0.8921  0.8245  0.0782
  343MOL0     O45152   6.670  11.556   8.509 -0.3153  0.1589 -0.9518
  343MOL0     C45153   6.553  11.579   8.425 -0.2455 -0.2561  0.0546
  343MOL0     C45154   6.604  11.570   8.274 -0.7369  0.9507 -1.0967
  343MOL0     C45155   6.640  11.431   8.234  0.0345 -0.1650  0.5811
  343MOL0     C45156   6.710  11.412   8.101  0.7642 -0.2214 -0.7858
  343MOL0     C45157   6.776  11.262   8.101 -0.7051 -0.0810 -0.9393
  343MOL0     C45158   6.872  11.232   7.985 -0.5748  0.2461  0.0669
  343MOL0     C45159   6.950  11.099   8.006  0.3670  0.6458 -0.0097
  343MOL0     C45160   7.062  11.108   8.100 -0.7862  0.6969  0.4872
  343MOL0     N45161   7.115  10.968   8.113 -1.2774 -0.6852  0.2803
  343MOL0     C45162   7.079  10.873   8.201 -0.3032 -0.4476  0.3046
  343MOL0     C45163   7.152  10.760   8.171  0.6759 -1.2129  0.2556
  343MOL0     C45164   7.113  10.624   8.233 -0.8163 -0.7054 -0.0325
  343MOL0     C45165   7.125  10.510   8.134 -1.4397  0.0346  0.4047
  343MOL0     C45166   7.004  10.496   8.040 -0.3383  0.4187 -1.4209
  343MOL0     C45167   7.034  10.385   7.941  0.4540  0.0113 -0.3774
  343MOL0     O45168   6.922  10.361   7.846 -1.5431 -0.1544 -0.7490
  343MOL0     C45169   6.799  10.334   7.900 -0.0729  0.8044 -0.4975
  343MOL0     C45170   6.771  10.282   8.029  1.1384  0.1794 -0.1826
  343MOL0     C45171   6.642  10.255   8.073 -0.4033 -0.1157 -0.8681
  343MOL0     C45172   6.531  10.294   7.996  0.2016  0.6752  0.9283
  343MOL0     C45173   6.401  10.263   8.051  0.2875  0.2329  0.6492
  343MOL0     O45174   6.385  10.179   8.171 -0.6055 -0.4105 -0.0964
  343MOL0     C45175   6.259  10.142   8.201  0.1144  0.6041  0.0448
  343MOL0     C45176   6.212  10.014   8.160 -0.1344  0.0987 -0.4437
  343MOL0     C45177   6.074   9.984   8.170 -0.6468 -0.7381  0.4605
  343MOL0     C45178   5.978  10.080   8.223 -0.4429 -0.7794 -0.5662
  343MOL0     O45179   5.845  10.039   8.223  0.0796  0.5145  0.7246
  343MOL0     C45180   5.739  10.122   8.267  0.6519  0.3691  0.2007
  343MOL0     C45181   5.616  10.028   8.270  0.5390  0.3114  0.8812
  343MOL0     C45182   5.497  10.124   8.278  0.5622  0.5710  0.4421
  343MOL0     C45183   5.372  10.044   8.295 -0.2446  0.1733  0.3259
  343MOL0     C45184   5.251  10.151   8.299 -0.5383 -0.4268 -0.4093
  343MOL0     C45185   5.134  10.065   8.336 -0.0545  0.6853 -0.9145
  343MOL0     C45186   4.996  10.134   8.353 -0.5992  0.4302  0.1537
  343MOL0     C45187   4.981  10.229   8.480  0.0581  0.0750 -0.0925
  343MOL0    Cl45188   4.977  10.160   8.631 -0.0262 -0.0964 -0.1527
  343MOL0     C45189   6.033  10.216   8.252  0.4189  0.0580 -0.4952
  343MOL0     C45190   6.166  10.244   8.238 -0.1379 -0.9751  0.8812
  343MOL0     O45191   6.305  10.301   7.973  0.1668  0.0096  0.1857
  343MOL0     C45192   6.563  10.350   7.867  0.5258 -0.3622 -0.5447
  343MOL0     C45193   6.690  10.359   7.819 -0.9492  0.9909 -0.6356
  343MOL0     N45194   7.243  10.788   8.073 -0.3932 -1.1059 -0.5799
  343MOL0     N45195   7.220  10.921   8.040  0.4436  0.3366  0.3596
  343MOL0     C45196   6.640  11.577   8.747 -0.1397  0.2720  0.1526
  343MOL0     C45197   6.605  11.525   8.869  0.3378 -0.3030 -1.0611
  343MOL0     C45198   6.568  11.330   9.248  0.7902 -1.1282  0.6382
  343MOL0     C45199   6.645  11.355   9.362 -0.5903  1.0346 -0.2986
  343MOL0     C45200   6.591  11.324   9.484  0.0597 -0.0470 -0.9628
  343MOL0     C45201   6.462  11.267   9.504  0.6086  0.0272  0.3615
  343MOL0     O45202   6.407  11.223   9.626  0.0494 -0.1333  0.0664
  343MOL0     C45203   6.472  11.264   9.747 -0.3705  0.2708  0.6212
  343MOL0     C45204   6.396  11.214   9.873  0.1955 -0.2549 -0.0593
  343MOL0     C45205   6.468  11.221  10.007 -1.4430  0.6705  0.3269
  343MOL0     C45206   6.362  11.223  10.123  0.5397  0.3199  0.6548
  343MOL0     C45207   6.274  11.102  10.127 -0.5936 -0.2431 -0.3731
  343MOL0     C45208   6.195  11.011  10.114  0.0027  1.0330  0.1608
  343MOL0     C45209   6.387  11.244   9.389  0.8064  0.9346 -0.0546
  343MOL0     C45210   6.437  11.278   9.260 -0.2564  0.4188  0.2923
  343MOL0     H45211   6.554  11.204   8.766 -3.8850  0.1681 -0.4069
  343MOL0     H45212   6.616  11.302   8.563  0.4434  2.1558 -1.6636
  343MOL0     H45213   6.520  11.681   8.447  0.5109  0.0289 -0.1206
  343MOL0     H45214   6.465  11.516   8.444 -1.7487  1.9912  1.0112
  343MOL0     H45215   6.694  11.631   8.259  1.9078 -1.9960  1.3793
  343MOL0     H45216   6.522  11.605   8.210 -1.1983  0.3722 -0.8344
  343MOL0     H45217   6.553  11.366   8.224  0.0344 -0.0883  0.0397
  343MOL0     H45218   6.715  11.400   8.307 -1.1524  0.1849  1.9715
  343MOL0     H45219   6.635  11.424   8.023 -1.1858  1.2469  1.1843
  343MOL0     H45220   6.786  11.490   8.090  1.0535 -0.0581  1.7635
  343MOL0     H45221   6.703  11.184   8.125  0.9568 -1.4548 -0.1132
  343MOL0     H45222   6.853  11.263   8.179  1.5470  1.0901 -3.0256
  343MOL0     H45223   6.946  11.312   7.970 -0.1225 -0.1541  0.1146
  343MOL0     H45224   6.806  11.229   7.898 -2.0649 -0.3664  1.1864
  343MOL0     H45225   6.884  11.024   8.050 -0.7146  1.6284  0.0895
  343MOL0     H45226   6.979  11.061   7.908  2.2560  1.1904  0.3016
  343MOL0     H45227   7.029  11.149   8.196  0.5665  2.7486  0.1423
  343MOL0     H45228   7.144  11.161   8.050 -0.0760 -1.7744 -1.1486
  343MOL0     H45229   7.002  10.874   8.277 -0.6780 -3.9693  0.1780
  343MOL0     H45230   7.013  10.630   8.275 -2.4103 -2.3623 -3.2290
  343MOL0     H45231   7.186  10.603   8.312  0.8251  1.7396 -0.7482
  343MOL0     H45232   7.147  10.413   8.180 -1.2252  0.1275  0.4977
  343MOL0     H45233   7.205  10.525   8.061 -1.6918  1.6517  0.4223
  343MOL0     H45234   6.921  10.491   8.111  0.2189  2.4833 -0.5303
  343MOL0     H45235   6.985  10.586   7.981 -0.7961 -0.3113 -2.4050
  343MOL0     H45236   7.051  10.289   7.990 -0.5089 -0.4341 -0.8840
  343MOL0     H45237   7.128  10.413   7.893  2.1928  0.1306  2.8285
  343MOL0     H45238   6.852  10.250   8.093  0.7319  3.0588  2.0261
  343MOL0     H45239   6.629  10.209   8.171  0.5541 -1.8621 -1.5139
  343MOL0     H45240   6.279   9.940   8.119 -0.6380  0.5457 -2.1700
  343MOL0     H45241   6.044   9.880   8.155  2.7918 -2.2468  2.7491
  343MOL0     H45242   5.723  10.192   8.184 -1.4427 -2.1832 -1.7134
  343MOL0     H45243   5.753  10.166   8.366 -0.5548 -0.5289  0.8003
  343MOL0     H45244   5.617   9.974   8.365 -0.0566  3.1844  2.6658
  343MOL0     H45245   5.613   9.953   8.190  1.5144  0.6254  0.5369
  343MOL0     H45246   5.488  10.195   8.194  0.7435  0.5794  0.4291
  343MOL0     H45247   5.511  10.181   8.370  3.0482  3.1737 -1.3738
  343MOL0     H45248   5.366   9.977   8.209  2.5064 -1.1320  1.0274
  343MOL0     H45249   5.364   9.983   8.386 -0.3433 -0.4922 -0.1234
  343MOL0     H45250   5.240  10.185   8.195  0.0191  0.6656 -0.1176
  343MOL0     H45251   5.274  10.231   8.370  1.3186 -0.6094 -0.7424
  343MOL0     H45252   5.149  10.016   8.433 -4.3946 -0.0192 -0.4142
  343MOL0     H45253   5.133  10.005   8.244  3.5721  2.8272 -2.5346
  343MOL0     H45254   4.985  10.203   8.269  2.1326  1.6065  0.6612
  343MOL0     H45255   4.921  10.055   8.353  0.9045 -1.1830 -3.0153
  343MOL0     H45256   4.883  10.272   8.460  0.0595 -0.9053 -2.7306
  343MOL0     H45257   5.056  10.309   8.472  0.0536 -0.0334 -1.6535
  343MOL0     H45258   5.959  10.293   8.272  0.3511 -0.5830  2.1293
  343MOL0     H45259   6.202  10.341   8.268  0.8438 -0.4218 -1.7845
  343MOL0     H45260   6.489  10.372   7.791  2.8166  1.4836 -2.3792
  343MOL0     H45261   6.710  10.389   7.717  2.3523  0.4515 -0.2401
  343MOL0     H45262   6.676  11.679   8.736 -1.3280  0.5519 -1.6994
  343MOL0     H45263   6.616  11.597   8.949 -0.2683  1.8343 -2.8070
  343MOL0     H45264   6.743  11.402   9.366  2.6957 -4.7316 -2.1590
  343MOL0     H45265   6.649  11.344   9.573 -1.3944 -1.3930  0.3436
  343MOL0     H45266   6.493  11.371   9.744  3.1373 -0.3372 -0.4594
  343MOL0     H45267   6.569  11.216   9.761 -1.5353 -1.5733  3.2295
  343MOL0     H45268   6.315  11.284   9.891 -0.6538 -1.2452  0.0636
  343MOL0     H45269   6.357  11.113   9.855 -1.8809  0.7499 -1.5961
  343MOL0     H45270   6.540  11.303  10.006 -0.7759  0.1158  1.0410
  343MOL0     H45271   6.519  11.124  10.016  1.5504  2.2467  1.7979
  343MOL0     H45272   6.419  11.222  10.216  2.1478 -0.7691 -0.2865
  343MOL0     H45273   6.300  11.313  10.123 -1.2165 -0.8184 -0.2269
  343MOL0     H45274   6.125  10.931  10.106  0.0813  1.0624 -0.8348
  343MOL0     H45275   6.283  11.218   9.404  1.2299  0.0602  1.6754
  343MOL0     H45276   6.372  11.263   9.174 -0.1984  0.0104  0.3189
  344MOL0     O45277   4.183   3.055   8.896  0.0799  0.2540 -0.5497
  344MOL0     C45278   4.242   3.067   8.786 -0.6655  1.1172  0.0420
  344MOL0     O45279   4.214   3.170   8.696  0.6489  0.6468  0.4587
  344MOL0     C45280   4.083   3.199   8.689  0.6352  0.7343  0.2468
  344MOL0     C45281   3.999   3.257   8.788 -0.5991 -0.7125 -0.0257
  344MOL0     C45282   3.865   3.284   8.763  0.5554 -0.0179  0.7378
  344MOL0     C45283   3.799   3.247   8.651  0.5445  0.4123  0.1127
  344MOL0     O45284   3.665   3.257   8.659  0.7451 -0.1141  0.4679
  344MOL0     C45285   3.575   3.260   8.545 -0.1087  0.0107 -0.1507
  344MOL0     C45286   3.503   3.116   8.553  0.0490 -0.0631  0.1118
  344MOL0     C45287   3.482   3.053   8.409 -0.0691 -0.4961 -0.3631
  344MOL0     C45288   3.412   3.130   8.297  0.2727  0.9508 -0.0276
  344MOL0     C45289   3.255   3.129   8.315  0.2196  0.2390  0.1461
  344MOL0     C45290   3.188   3.158   8.186  0.0491  0.1290  0.4448
  344MOL0     C45291   3.044   3.110   8.179  0.7631  0.2511  0.2290
  344MOL0     C45292   2.946   3.216   8.242  0.7367  0.5281  0.0926
  344MOL0     N45293   2.806   3.170   8.229 -0.2741 -0.3314  0.7489
  344MOL0     C45294   2.696   3.227   8.284  0.0938 -0.5168  0.5023
  344MOL0     C45295   2.603   3.131   8.285 -0.0538 -0.6837  0.5819
  344MOL0     C45296   2.473   3.141   8.347 -1.0012 -0.1040 -0.2153
  344MOL0     C45297   2.467   3.049   8.466  0.4690  0.6125 -0.2950
  344MOL0     C45298   2.332   2.984   8.454 -0.1041 -0.5189 -0.4692
  344MOL0     C45299   2.305   2.878   8.560 -0.0714 -0.2949 -0.1956
  344MOL0     O45300   2.300   2.932   8.701  0.6833  0.1577  0.0379
  344MOL0     C45301   2.192   3.017   8.729 -0.5653  0.1783  1.1911
  344MOL0     C45302   2.065   3.002   8.668 -1.0621 -0.6026 -0.8287
  344MOL0     C45303   1.956   3.087   8.701  0.2027 -1.2519  0.0806
  344MOL0     C45304   1.973   3.179   8.807 -0.6093 -0.1353 -1.1014
  344MOL0     C45305   1.875   3.290   8.836  0.3397  0.3292  0.1362
  344MOL0     O45306   1.777   3.309   8.750 -0.3081 -0.3020 -0.6057
  344MOL0     C45307   1.665   3.394   8.778  0.3660  0.0484  0.1839
  344MOL0     C45308   1.642   3.462   8.901 -0.1642  0.4534  0.7258
  344MOL0     C45309   1.521   3.546   8.918 -0.2973 -0.3863  0.7561
  344MOL0     C45310   1.425   3.540   8.815  0.4902 -0.2131 -0.4410
  344MOL0     O45311   1.303   3.600   8.837 -0.4298  0.2173  1.3188
  344MOL0     C45312   1.237   3.556   8.953  0.5940 -0.4884  0.1910
  344MOL0     C45313   1.121   3.645   8.985  0.2896  0.0197 -0.6325
  344MOL0     C45314   1.007   3.638   8.889 -0.0889 -0.5528 -0.0291
  344MOL0     C45315   0.869   3.675   8.957  0.2989  0.4623  0.5322
  344MOL0     C45316   0.816   3.586   9.063 -0.4192 -0.7922  0.2823
  344MOL0     C45317   0.833   3.436   9.032  0.5947  1.3470 -0.3014
  344MOL0     C45318   0.759   3.358   9.152 -0.0962  0.2206  0.3361
  344MOL0     C45319   0.772   3.203   9.141  0.4187 -0.1800 -0.7685
  344MOL0    Cl45320   0.900   3.152   9.260  0.0159  0.1265  0.1772
  344MOL0     C45321   1.451   3.473   8.699  0.3774  0.4162 -0.3202
  344MOL0     C45322   1.571   3.408   8.674  0.4838  1.0269 -0.0409
  344MOL0     O45323   1.905   3.348   8.942 -0.3934  0.4995  0.0963
  344MOL0     C45324   2.107   3.201   8.859 -0.5374 -1.3712  0.1437
  344MOL0     C45325   2.208   3.109   8.827  0.0475 -0.6731 -0.5767
  344MOL0     N45326   2.651   3.020   8.210  0.4206  0.7350 -0.7754
  344MOL0     N45327   2.772   3.046   8.184 -0.7248 -1.1327  0.5268
  344MOL0     C45328   3.880   3.189   8.556  1.1972 -0.2719  1.3126
  344MOL0     C45329   4.015   3.178   8.572 -0.4600 -0.9907  0.1605
  344MOL0     C45330   4.367   2.981   8.766  0.0411 -0.3559  0.5590
  344MOL0     C45331   4.438   3.002   8.645 -0.1753  1.0228 -0.0163
  344MOL0     C45332   4.552   2.925   8.616  0.1404  0.9621 -0.2265
  344MOL0     C45333   4.601   2.834   8.714  0.3177  0.6622  0.7855
  344MOL0     O45334   4.716   2.762   8.675  0.9304 -0.0482 -0.6434
  344MOL0     C45335   4.763   2.676   8.771  0.1440 -0.5893 -0.6661
  344MOL0     C45336   4.881   2.584   8.717  0.2345  0.2666 -0.5530
  344MOL0     C45337   4.912   2.475   8.823  0.6223  0.7615  1.0268
  344MOL0     C45338   5.029   2.382   8.796  0.9873 -0.5136  0.6630
  344MOL0     C45339   4.987   2.273   8.706  0.8393 -0.2187 -0.3212
  344MOL0     C45340   4.956   2.170   8.643 -0.0991 -0.5183 -0.6881
  344MOL0     C45341   4.529   2.819   8.833 -0.5889 -0.4942 -0.6277
  344MOL0     C45342   4.422   2.903   8.866 -0.3519  0.0357 -0.3811
  344MOL0     H45343   4.049   3.307   8.870  1.8171  2.6518 -3.1773
  344MOL0     H45344   3.818   3.335   8.847  3.3677  0.7161  2.0121
  344MOL0     H45345   3.623   3.269   8.447 -1.8187 -0.1100 -1.0302
  344MOL0     H45346   3.505   3.343   8.554  0.9164  1.2040 -2.3030
  344MOL0     H45347   3.409   3.143   8.603  0.6901  0.5562  1.0207
  344MOL0     H45348   3.566   3.043   8.605  1.6600  1.3432  0.2170
  344MOL0     H45349   3.422   2.966   8.437 -1.4817  0.6059  0.2127
  344MOL0     H45350   3.585   3.033   8.379 -0.1858 -1.9770  0.1467
  344MOL0     H45351   3.447   3.233   8.287  0.1232  0.8208 -2.3726
  344MOL0     H45352   3.422   3.077   8.202 -3.5247 -0.4054  0.1272
  344MOL0     H45353   3.229   3.197   8.396 -5.6430 -1.1046 -0.1689
  344MOL0     H45354   3.225   3.027   8.340 -0.8892  0.1936 -1.2107
  344MOL0     H45355   3.227   3.098   8.103 -2.9616  0.6871 -1.5379
  344MOL0     H45356   3.197   3.261   8.149 -0.7799 -0.0659 -0.3423
  344MOL0     H45357   3.025   3.095   8.072  1.9368  1.1939 -0.1461
  344MOL0     H45358   3.051   3.019   8.239  3.8373  0.9268  1.0865
  344MOL0     H45359   2.962   3.312   8.190  1.2830 -0.6532 -2.0329
  344MOL0     H45360   2.965   3.225   8.350  0.8337 -3.0678  0.4921
  344MOL0     H45361   2.698   3.330   8.318  1.1303 -1.1672  2.6085
  344MOL0     H45362   2.404   3.117   8.265 -1.4135 -0.2141  0.1606
  344MOL0     H45363   2.450   3.244   8.375 -0.6184  0.6372 -2.4157
  344MOL0     H45364   2.470   3.117   8.551  2.1190  0.4743 -0.2090
  344MOL0     H45365   2.546   2.973   8.474  0.7054  1.0006  1.4596
  344MOL0     H45366   2.260   3.065   8.465  0.9861  0.8961 -2.8552
  344MOL0     H45367   2.323   2.937   8.355  1.0775 -0.8691 -0.4261
  344MOL0     H45368   2.397   2.820   8.551  0.4958  0.4834  0.4896
  344MOL0     H45369   2.221   2.813   8.536  1.1501 -2.2809  0.7123
  344MOL0     H45370   2.045   2.915   8.606 -2.0344 -2.5151  1.9660
  344MOL0     H45371   1.855   3.078   8.664  0.5019 -2.0770 -0.5474
  344MOL0     H45372   1.712   3.470   8.984 -0.4566 -0.6841  1.0986
  344MOL0     H45373   1.499   3.623   8.992 -2.6021  3.0093 -3.0446
  344MOL0     H45374   1.310   3.559   9.035 -1.2603  0.9213  1.8883
  344MOL0     H45375   1.208   3.455   8.924  4.4455 -1.2285 -1.8106
  344MOL0     H45376   1.146   3.750   9.006  1.2899 -0.2769 -0.2804
  344MOL0     H45377   1.076   3.607   9.077 -0.1938  1.8860 -0.0458
  344MOL0     H45378   1.011   3.532   8.860  2.1045 -0.5380  0.0606
  344MOL0     H45379   1.023   3.702   8.802 -0.7697  1.2270  1.1007
  344MOL0     H45380   0.894   3.774   8.994  2.0984 -0.2456  1.3288
  344MOL0     H45381   0.789   3.679   8.882 -0.6710  1.0112  1.5625
  344MOL0     H45382   0.709   3.607   9.060 -0.6300 -1.9534 -1.6659
  344MOL0     H45383   0.840   3.609   9.167 -2.0242  1.6326  0.1946
  344MOL0     H45384   0.937   3.401   9.031  0.5230  1.1443 -1.1084
  344MOL0     H45385   0.795   3.405   8.935  1.2906 -1.4300  0.2043
  344MOL0     H45386   0.791   3.398   9.249 -0.0149 -0.5058  0.6100
  344MOL0     H45387   0.657   3.393   9.136  0.2601  1.6181  0.9205
  344MOL0     H45388   0.807   3.179   9.040 -0.9214 -2.4222 -0.7727
  344MOL0     H45389   0.680   3.146   9.161  0.0019  0.8331  0.3181
  344MOL0     H45390   1.374   3.467   8.623  1.2677  0.5925 -1.2609
  344MOL0     H45391   1.589   3.365   8.577 -1.0534  0.3624 -0.0597
  344MOL0     H45392   2.131   3.279   8.931 -1.0451 -1.2941  0.2321
  344MOL0     H45393   2.310   3.131   8.859 -1.1065  4.4370  0.4293
  344MOL0     H45394   3.837   3.138   8.470  3.6711 -1.0272  0.4204
  344MOL0     H45395   4.064   3.107   8.505 -0.3375 -3.1461  2.3846
  344MOL0     H45396   4.414   3.088   8.584 -5.0221 -0.1128 -0.1237
  344MOL0     H45397   4.606   2.944   8.524  1.8990 -1.2920  0.2272
  344MOL0     H45398   4.685   2.608   8.808 -1.2476  0.8908 -0.8053
  344MOL0     H45399   4.789   2.736   8.859  0.6963 -1.3345 -0.3072
  344MOL0     H45400   4.857   2.536   8.622 -0.6783 -2.3871  0.9262
  344MOL0     H45401   4.968   2.648   8.696 -0.0295 -0.4010 -4.2820
  344MOL0     H45402   4.821   2.415   8.836  1.2255 -0.9897 -1.9729
  344MOL0     H45403   4.936   2.529   8.915 -3.6963  0.2614  2.6760
  344MOL0     H45404   5.120   2.435   8.767 -0.4194  1.9888  0.5494
  344MOL0     H45405   5.049   2.327   8.889  0.2613 -0.0564  1.1045
  344MOL0     H45406   4.930   2.085   8.583 -1.1801 -0.7466  0.0883
  344MOL0     H45407   4.563   2.753   8.912  1.2066  0.1457 -0.8167
  344MOL0     H45408   4.373   2.907   8.964  1.4553  2.6449  0.5230
  345MOL0     O45409   4.633   9.365   8.202  0.4671  0.9524 -0.1622
  345MOL0     C45410   4.697   9.327   8.300  0.0731 -0.7948  0.2604
  345MOL0     O45411   4.834   9.326   8.310 -0.8284  0.0290  0.4829
  345MOL0     C45412   4.905   9.366   8.197  0.4982  0.4782 -1.0486
  345MOL0     C45413   4.887   9.494   8.156  0.9466 -0.4035  0.1231
  345MOL0     C45414   4.960   9.538   8.047  0.3613 -0.0414  0.2490
  345MOL0     C45415   5.040   9.457   7.968  0.7948 -0.7611  0.5020
  345MOL0     O45416   5.109   9.523   7.865  0.0978 -0.3706 -0.1299
  345MOL0     C45417   5.160   9.447   7.763 -0.5423  0.1792  0.5887
  345MOL0     C45418   5.225   9.532   7.657 -0.0166 -0.0250  0.1328
  345MOL0     C45419   5.296   9.444   7.554 -0.4052  0.3613  0.3125
  345MOL0     C45420   5.332   9.530   7.438  0.4675  0.3893 -0.0280
  345MOL0     C45421   5.450   9.462   7.367 -1.1075 -0.0097 -1.3702
  345MOL0     C45422   5.430   9.324   7.316 -0.0128  0.5757  0.1118
  345MOL0     C45423   5.565   9.249   7.283  0.3826 -0.2998  0.0041
  345MOL0     C45424   5.651   9.336   7.188  0.3465  0.1073  0.3543
  345MOL0     N45425   5.761   9.260   7.137  0.5388 -0.1572  0.3331
  345MOL0     C45426   5.760   9.162   7.039 -0.4245 -0.2033  0.4729
  345MOL0     C45427   5.893   9.129   7.033  0.3902  0.5516  0.1096
  345MOL0     C45428   5.940   9.017   6.947 -0.8742  0.9884 -0.6639
  345MOL0     C45429   5.890   9.031   6.795  0.2217 -0.5698 -0.4229
  345MOL0     C45430   5.951   8.928   6.701 -0.7785 -0.6974 -0.0714
  345MOL0     C45431   5.935   8.969   6.552 -0.1705  0.3794  0.0682
  345MOL0     O45432   5.792   8.952   6.520 -0.5169 -0.3764  0.0974
  345MOL0     C45433   5.757   8.963   6.389  0.7900  0.6420  0.5151
  345MOL0     C45434   5.835   8.965   6.272  0.1028 -0.8998 -0.0739
  345MOL0     C45435   5.768   8.956   6.140  0.4807 -0.4146 -0.4845
  345MOL0     C45436   5.627   8.937   6.138  0.6516  0.5212 -0.1434
  345MOL0     C45437   5.572   8.900   6.003 -0.1607 -0.0854  0.2148
  345MOL0     O45438   5.661   8.895   5.898 -0.5325 -0.9432 -0.1388
  345MOL0     C45439   5.624   8.863   5.770 -0.2208  0.3064  0.6306
  345MOL0     C45440   5.613   8.734   5.742  1.2273  0.9686 -0.1660
  345MOL0     C45441   5.574   8.687   5.607 -0.1487 -0.9149 -0.1165
  345MOL0     C45442   5.585   8.780   5.500  0.2221 -0.2099  0.3474
  345MOL0     O45443   5.582   8.720   5.380  0.2236 -0.3767  0.2777
  345MOL0     C45444   5.531   8.796   5.263  0.3482  0.3618  0.5106
  345MOL0     C45445   5.641   8.797   5.145  0.6028  0.9008  0.2902
  345MOL0     C45446   5.709   8.933   5.126  0.2666 -0.0455 -1.2388
  345MOL0     C45447   5.818   8.934   5.012  0.9118 -0.3323 -0.2422
  345MOL0     C45448   5.758   8.956   4.867  0.6072  0.7469  0.0169
  345MOL0     C45449   5.856   8.936   4.758 -0.1853 -0.3809  0.6996
  345MOL0     C45450   5.838   9.021   4.624 -0.7372  1.1738 -0.5568
  345MOL0     C45451   5.911   8.961   4.509 -0.4657  0.6041  0.7335
  345MOL0    Cl45452   6.095   8.990   4.524  0.1769  0.0332  0.6428
  345MOL0     C45453   5.604   8.923   5.535 -0.1413 -0.4343  0.0216
  345MOL0     C45454   5.617   8.957   5.664  0.1099 -0.9295 -0.4306
  345MOL0     O45455   5.449   8.875   5.996 -0.7097  0.0849 -0.9135
  345MOL0     C45456   5.550   8.935   6.255 -0.3166 -0.0972 -0.3755
  345MOL0     C45457   5.620   8.948   6.372  0.7745 -0.2024  0.0816
  345MOL0     N45458   5.967   9.203   7.126  0.1495 -0.0710  0.7346
  345MOL0     N45459   5.884   9.274   7.194 -0.2579  0.0041  0.1758
  345MOL0     C45460   5.057   9.321   8.013  0.6160 -0.0038  0.1131
  345MOL0     C45461   4.987   9.277   8.131 -0.2970  0.1575  0.6322
  345MOL0     C45462   4.629   9.289   8.421  0.5544  0.7934 -0.9067
  345MOL0     C45463   4.490   9.285   8.413  0.0482  0.0763 -0.7699
  345MOL0     C45464   4.398   9.251   8.523  0.2673  0.5237  0.4166
  345MOL0     C45465   4.459   9.209   8.641 -0.3066  0.3504  0.3023
  345MOL0     O45466   4.395   9.178   8.759  0.3077 -0.2431 -0.0320
  345MOL0     C45467   4.253   9.176   8.768  0.1988 -0.1931 -0.5631
  345MOL0     C45468   4.174   9.311   8.766 -0.2761 -0.2403  0.0230
  345MOL0     C45469   4.249   9.412   8.849 -0.0733  0.2092 -0.4559
  345MOL0     C45470   4.251   9.377   9.001  0.2016 -0.4565 -0.0498
  345MOL0     C45471   4.112   9.425   9.040 -0.3342  0.8417 -0.8985
  345MOL0     C45472   3.994   9.449   9.055 -0.0295 -0.4068 -1.1391
  345MOL0     C45473   4.594   9.219   8.657 -0.3401  0.4453 -0.7146
  345MOL0     C45474   4.678   9.258   8.551 -0.1289 -0.8046  0.1490
  345MOL0     H45475   4.823   9.563   8.210  1.8843 -1.1127  2.2244
  345MOL0     H45476   4.951   9.634   7.999 -5.3618  0.7047  2.0717
  345MOL0     H45477   5.098   9.377   7.707  3.9796 -5.7250  1.9849
  345MOL0     H45478   5.238   9.385   7.808  0.2055 -0.6935 -1.7459
  345MOL0     H45479   5.295   9.599   7.707 -1.3244 -0.1595  2.2802
  345MOL0     H45480   5.148   9.596   7.613 -3.8059 -2.2804  2.8180
  345MOL0     H45481   5.238   9.355   7.527 -1.0570 -0.1816  3.1703
  345MOL0     H45482   5.383   9.419   7.615 -0.1736  2.1767  0.7794
  345MOL0     H45483   5.253   9.564   7.371 -0.2602 -0.0200  0.6124
  345MOL0     H45484   5.369   9.625   7.478  1.1632 -0.1557  0.6610
  345MOL0     H45485   5.538   9.468   7.431 -0.8285  1.5411 -1.8542
  345MOL0     H45486   5.466   9.528   7.281 -3.6172 -0.3361 -2.1956
  345MOL0     H45487   5.375   9.334   7.222  1.6303 -0.7177 -1.0512
  345MOL0     H45488   5.380   9.254   7.384 -2.2195 -1.4384 -3.2266
  345MOL0     H45489   5.624   9.234   7.374  2.4324  0.5335 -1.1268
  345MOL0     H45490   5.548   9.148   7.245  0.3687  0.2997 -1.6874
  345MOL0     H45491   5.677   9.430   7.237 -1.7252  0.9773 -0.0972
  345MOL0     H45492   5.583   9.368   7.108 -1.3959 -1.0044  1.3191
  345MOL0     H45493   5.674   9.115   6.992  0.7439 -0.1618 -1.8988
  345MOL0     H45494   5.902   8.925   6.992  1.9862 -0.4715 -0.9820
  345MOL0     H45495   6.050   9.022   6.950 -0.8878  1.1672 -0.4827
  345MOL0     H45496   5.927   9.131   6.768 -0.9426 -0.3862 -1.4088
  345MOL0     H45497   5.781   9.024   6.792  0.1792 -2.9653  2.5499
  345MOL0     H45498   6.060   8.926   6.713 -0.7879  1.9553  1.3682
  345MOL0     H45499   5.907   8.833   6.731  0.9401 -1.8747 -1.1384
  345MOL0     H45500   5.988   8.891   6.497 -2.6350 -0.6035 -1.0896
  345MOL0     H45501   5.979   9.066   6.530  1.6117 -0.4069  0.0212
  345MOL0     H45502   5.939   8.980   6.299  0.7861 -1.8790 -1.9503
  345MOL0     H45503   5.834   8.963   6.054  1.0388  0.5542  0.0099
  345MOL0     H45504   5.617   8.674   5.832  1.0270  2.4755  0.8853
  345MOL0     H45505   5.571   8.581   5.583  0.0637 -0.7689 -0.8371
  345MOL0     H45506   5.491   8.896   5.282  1.7960  1.3298 -1.2614
  345MOL0     H45507   5.442   8.742   5.230  0.9917  0.7309 -2.0534
  345MOL0     H45508   5.602   8.768   5.047  0.7158 -1.0879  0.7868
  345MOL0     H45509   5.710   8.713   5.160 -0.8019 -0.8958 -2.3068
  345MOL0     H45510   5.768   8.967   5.212 -0.2211 -0.3175 -0.7892
  345MOL0     H45511   5.651   9.024   5.108  0.2099  0.1860  0.0090
  345MOL0     H45512   5.876   9.025   5.029 -2.3541  1.6718  1.0817
  345MOL0     H45513   5.886   8.848   5.018  1.7907  0.3125 -0.7788
  345MOL0     H45514   5.724   9.059   4.856  0.9253  0.7672 -0.8490
  345MOL0     H45515   5.671   8.895   4.839  0.6879  1.6920 -2.5550
  345MOL0     H45516   5.855   8.831   4.726 -1.0126 -1.2889  3.4345
  345MOL0     H45517   5.960   8.958   4.786 -0.3017  0.9203  0.1533
  345MOL0     H45518   5.731   9.007   4.607 -0.7686  0.9036 -0.1703
  345MOL0     H45519   5.861   9.127   4.637  1.1207  0.4988  3.1341
  345MOL0     H45520   5.876   8.998   4.412  0.0116  2.5326  1.2536
  345MOL0     H45521   5.892   8.854   4.523  2.8129 -0.1504  0.3733
  345MOL0     H45522   5.610   9.004   5.463 -0.6286  1.2042  1.7602
  345MOL0     H45523   5.640   9.062   5.676  0.0647 -1.1504  1.9387
  345MOL0     H45524   5.442   8.945   6.247 -0.5384 -0.1949  1.9104
  345MOL0     H45525   5.561   8.955   6.463 -0.5635 -0.9137 -0.7101
  345MOL0     H45526   5.129   9.250   7.972  0.5945 -0.4189  0.7740
  345MOL0     H45527   5.007   9.178   8.170  0.1764 -0.9106 -2.1070
  345MOL0     H45528   4.445   9.314   8.318 -0.4067  0.0886 -0.5579
  345MOL0     H45529   4.291   9.239   8.509  0.0787  0.1762  1.9923
  345MOL0     H45530   4.237   9.120   8.860  2.2654 -2.2993 -1.3887
  345MOL0     H45531   4.222   9.111   8.685 -1.2689 -1.0432  0.6108
  345MOL0     H45532   4.161   9.341   8.662  1.8257  1.1932  0.0990
  345MOL0     H45533   4.074   9.293   8.807  2.0416 -5.0253  4.8931
  345MOL0     H45534   4.220   9.517   8.842  0.5133  0.3017 -1.7952
  345MOL0     H45535   4.349   9.427   8.807 -1.3445 -1.1379 -4.3731
  345MOL0     H45536   4.254   9.272   9.029 -3.4884 -0.1713  1.9581
  345MOL0     H45537   4.321   9.442   9.055 -2.0066  2.0014  0.0325
  345MOL0     H45538   3.890   9.468   9.072 -0.4685 -3.3047  0.0584
  345MOL0     H45539   4.642   9.192   8.750 -1.6190 -0.4129 -0.2922
  345MOL0     H45540   4.784   9.275   8.569  0.1637 -2.4075  0.1028
  346MOL0     O45541   2.646  10.663   2.933 -0.2511  0.6517 -0.1453
  346MOL0     C45542   2.704  10.553   2.931 -0.5892  0.1999  0.5032
  346MOL0     O45543   2.723  10.468   2.828  0.4629 -0.4620  0.3386
  346MOL0     C45544   2.632  10.483   2.730  0.1289  0.0117 -0.4350
  346MOL0     C45545   2.648  10.559   2.616 -1.2988 -0.2266  0.6921
  346MOL0     C45546   2.556  10.550   2.516 -0.7366 -0.5710  0.1001
  346MOL0     C45547   2.428  10.488   2.537 -1.4949 -0.8917  0.5028
  346MOL0     O45548   2.322  10.507   2.453  0.1474  0.2093 -0.4814
  346MOL0     C45549   2.293  10.643   2.440 -0.1961 -0.8285  0.1192
  346MOL0     C45550   2.136  10.652   2.451 -0.4099  0.5298 -0.0184
  346MOL0     C45551   2.094  10.789   2.408  0.4089  0.0416 -0.5272
  346MOL0     C45552   1.942  10.810   2.425 -0.8959 -0.7569 -0.2581
  346MOL0     C45553   1.869  10.711   2.337  0.2616 -0.3573 -0.8955
  346MOL0     C45554   1.728  10.752   2.293 -0.0668  0.0916  0.1450
  346MOL0     C45555   1.636  10.786   2.405 -0.3013 -1.0485  0.1436
  346MOL0     C45556   1.579  10.667   2.485 -0.6002 -0.1617 -0.5178
  346MOL0     N45557   1.583  10.694   2.626 -0.1790 -0.3344  0.0845
  346MOL0     C45558   1.683  10.668   2.710  0.1474 -1.7013 -0.3335
  346MOL0     C45559   1.631  10.640   2.831 -0.1413 -0.1579  0.8227
  346MOL0     C45560   1.694  10.589   2.958  0.6936  0.2921 -0.1593
  346MOL0     C45561   1.779  10.701   3.014  0.2268 -0.0949 -0.2996
  346MOL0     C45562   1.877  10.642   3.115  0.9894  0.7850 -0.6897
  346MOL0     C45563   1.916  10.753   3.217  0.0906  0.3143  0.2442
  346MOL0     O45564   2.040  10.717   3.288  0.3591 -0.2972  0.5186
  346MOL0     C45565   2.165  10.748   3.260 -0.3433  0.9238 -0.0091
  346MOL0     C45566   2.259  10.722   3.354 -0.3341 -0.1798 -0.6552
  346MOL0     C45567   2.389  10.770   3.342  0.7485  0.7212 -0.2891
  346MOL0     C45568   2.415  10.851   3.228  0.0374 -0.2568 -0.0422
  346MOL0     C45569   2.552  10.922   3.211 -0.3714  0.2187  0.5683
  346MOL0     O45570   2.587  10.968   3.085  0.1555  0.1559 -0.0916
  346MOL0     C45571   2.709  11.029   3.077  0.5436  0.0099 -0.2667
  346MOL0     C45572   2.819  10.971   3.017  0.1283 -0.1590  0.3549
  346MOL0     C45573   2.935  11.044   3.004 -0.3714 -0.1905 -0.3037
  346MOL0     C45574   2.937  11.181   3.063 -0.7865  0.5245 -0.3263
  346MOL0     O45575   3.048  11.264   3.081 -0.3963 -0.1249  0.8514
  346MOL0     C45576   3.178  11.214   3.045  0.5126  0.2771 -0.1342
  346MOL0     C45577   3.286  11.330   3.066 -0.2065 -0.2709 -0.0086
  346MOL0     C45578   3.265  11.465   2.979 -0.1771 -0.6535 -0.2929
  346MOL0     C45579   3.387  11.561   2.984  0.1809  0.3502 -0.4362
  346MOL0     C45580   3.352  11.684   2.911 -0.4049 -0.8375  1.1382
  346MOL0     C45581   3.484  11.748   2.848  0.8099 -0.0872 -0.1138
  346MOL0     C45582   3.540  11.670   2.723  0.6157  0.4933  0.1840
  346MOL0     C45583   3.635  11.755   2.643 -0.3529  0.0962 -1.1648
  346MOL0    Cl45584   3.753  11.811   2.760 -0.3965 -0.0316 -0.4905
  346MOL0     C45585   2.828  11.237   3.116 -0.4189 -0.1020 -0.2172
  346MOL0     C45586   2.713  11.165   3.122 -0.0641  0.8348  0.7693
  346MOL0     O45587   2.621  10.930   3.316  0.5379  0.0110  0.4502
  346MOL0     C45588   2.326  10.881   3.129  0.5886  1.4065  0.1981
  346MOL0     C45589   2.206  10.823   3.146 -0.3071  0.9982  0.0902
  346MOL0     N45590   1.498  10.652   2.814 -0.0375 -0.2722 -1.4610
  346MOL0     N45591   1.462  10.696   2.694  0.0824  0.1365  0.4193
  346MOL0     C45592   2.405  10.410   2.657  0.2167 -0.1775  0.0801
  346MOL0     C45593   2.511  10.407   2.741  0.3285 -0.8657 -0.3422
  346MOL0     C45594   2.757  10.510   3.062 -1.0122  0.1563 -1.0181
  346MOL0     C45595   2.757  10.378   3.095  0.5636 -0.9318  0.2215
  346MOL0     C45596   2.815  10.351   3.225  0.0167 -0.9969  0.3093
  346MOL0     C45597   2.857  10.448   3.317  0.2612  0.7387 -0.1070
  346MOL0     O45598   2.918  10.420   3.434 -0.1504  0.2442 -0.2632
  346MOL0     C45599   2.887  10.292   3.492 -0.8742 -0.3169  0.5575
  346MOL0     C45600   2.938  10.299   3.633 -0.6254  0.1310 -0.9856
  346MOL0     C45601   2.854  10.214   3.739 -0.2771  1.2760 -0.4972
  346MOL0     C45602   2.895  10.229   3.888  0.2883  0.9210  0.1727
  346MOL0     C45603   3.023  10.161   3.921 -0.6506 -0.7192  0.6191
  346MOL0     C45604   3.134  10.115   3.944  0.4670  0.4868  0.2895
  346MOL0     C45605   2.837  10.578   3.274  0.4380 -0.3661  0.2520
  346MOL0     C45606   2.800  10.613   3.156  0.6050  0.7581 -0.0254
  346MOL0     H45607   2.738  10.619   2.613 -1.6252  0.3681  2.1295
  346MOL0     H45608   2.589  10.599   2.425  1.5070  1.3659  1.8362
  346MOL0     H45609   2.331  10.680   2.344  0.4640 -2.1228 -0.1445
  346MOL0     H45610   2.322  10.709   2.522 -5.8007  0.8222  1.1681
  346MOL0     H45611   2.106  10.637   2.555 -0.6211 -4.8673 -0.5462
  346MOL0     H45612   2.097  10.580   2.379  3.4874 -2.9660  0.9238
  346MOL0     H45613   2.130  10.802   2.305  4.2409 -0.0885  0.6463
  346MOL0     H45614   2.152  10.868   2.457  0.6382 -2.2640  3.2660
  346MOL0     H45615   1.914  10.798   2.531 -2.8292  1.6907 -0.4014
  346MOL0     H45616   1.923  10.913   2.394 -0.7150  0.1913  2.4592
  346MOL0     H45617   1.865  10.612   2.383  2.3102  0.2572  0.7596
  346MOL0     H45618   1.925  10.696   2.244  1.7248 -1.8864  0.1828
  346MOL0     H45619   1.687  10.670   2.235 -3.3850  0.2030  2.0581
  346MOL0     H45620   1.729  10.840   2.228  2.7568  0.0202 -0.0114
  346MOL0     H45621   1.684  10.849   2.480 -1.6444 -0.2540  0.3570
  346MOL0     H45622   1.555  10.847   2.364  1.6648  1.4042 -0.3185
  346MOL0     H45623   1.645  10.580   2.478  1.7108  1.1573  2.3514
  346MOL0     H45624   1.484  10.630   2.447 -0.0141 -0.0669 -2.1766
  346MOL0     H45625   1.788  10.681   2.685 -0.1653  1.1810 -0.5406
  346MOL0     H45626   1.757  10.500   2.948 -2.4904 -2.6878  3.1838
  346MOL0     H45627   1.611  10.560   3.024  0.5338 -4.3549 -2.0093
  346MOL0     H45628   1.710  10.778   3.051 -1.4612 -0.8304 -1.8163
  346MOL0     H45629   1.837  10.753   2.937 -2.9346  1.0117 -2.0928
  346MOL0     H45630   1.841  10.554   3.168  1.8262  1.0843  0.4106
  346MOL0     H45631   1.963  10.610   3.055  1.2763  1.5185 -0.6890
  346MOL0     H45632   1.840  10.754   3.296  1.7558  0.8574  1.9396
  346MOL0     H45633   1.926  10.852   3.172  0.6878  2.0156  3.7479
  346MOL0     H45634   2.228  10.693   3.455  1.1038  0.9782  0.1580
  346MOL0     H45635   2.466  10.757   3.416  0.0129  2.2767  0.8083
  346MOL0     H45636   2.802  10.881   2.958 -1.7387  2.0245 -2.7445
  346MOL0     H45637   3.027  11.012   2.955 -0.2401  1.6285 -1.3515
  346MOL0     H45638   3.184  11.165   2.947  3.8455 -2.1959  1.1048
  346MOL0     H45639   3.197  11.136   3.120 -3.6421 -0.3803  0.4582
  346MOL0     H45640   3.383  11.287   3.039  1.0987  1.8538  1.0783
  346MOL0     H45641   3.277  11.350   3.173 -2.0948 -2.3702  0.3026
  346MOL0     H45642   3.176  11.521   3.009 -2.0035 -1.2324 -3.9722
  346MOL0     H45643   3.247  11.439   2.874 -1.9091  1.6108 -0.6438
  346MOL0     H45644   3.414  11.575   3.089  1.8940 -2.9986 -0.3204
  346MOL0     H45645   3.469  11.504   2.940 -0.5982 -1.4266  0.3113
  346MOL0     H45646   3.304  11.756   2.978  0.1608  2.1568 -1.4408
  346MOL0     H45647   3.275  11.662   2.836 -1.4726  1.8106  1.3539
  346MOL0     H45648   3.556  11.731   2.929  0.6850 -2.7636 -0.4499
  346MOL0     H45649   3.449  11.849   2.829 -2.3249 -0.8696  0.8096
  346MOL0     H45650   3.589  11.574   2.746 -0.2693 -0.0937 -0.3299
  346MOL0     H45651   3.451  11.642   2.667 -0.1863 -0.5422  1.8920
  346MOL0     H45652   3.581  11.844   2.609 -0.9549  0.9980  1.8985
  346MOL0     H45653   3.682  11.699   2.561  4.6492 -1.5485  2.3767
  346MOL0     H45654   2.822  11.338   3.156  1.8399 -0.0224  0.0279
  346MOL0     H45655   2.623  11.212   3.162 -0.6467 -0.1783  0.6608
  346MOL0     H45656   2.334  10.940   3.038 -0.9086  0.5243 -0.5550
  346MOL0     H45657   2.131  10.845   3.071  1.5257 -0.0848 -2.1629
  346MOL0     H45658   2.309  10.369   2.686 -0.2228  0.8214  0.0897
  346MOL0     H45659   2.492  10.343   2.827 -0.2407 -0.2873 -0.0280
  346MOL0     H45660   2.738  10.306   3.015  1.8167  1.7525 -2.7132
  346MOL0     H45661   2.824  10.246   3.250  1.2855 -1.3826 -1.5658
  346MOL0     H45662   2.945  10.218   3.435 -1.3486  1.3117 -2.2537
  346MOL0     H45663   2.780  10.269   3.490 -0.3811 -2.9329 -1.3136
  346MOL0     H45664   3.041  10.261   3.635 -1.2431 -1.6589 -1.0588
  346MOL0     H45665   2.946  10.403   3.665 -2.2306  0.0172 -0.1303
  346MOL0     H45666   2.842  10.105   3.732 -0.9260  0.7577  4.6615
  346MOL0     H45667   2.753  10.254   3.727 -1.0752 -0.5084 -0.1087
  346MOL0     H45668   2.913  10.336   3.897  0.2410  0.9281  0.1786
  346MOL0     H45669   2.817  10.204   3.961 -1.0145  2.0693 -0.7692
  346MOL0     H45670   3.222  10.067   3.981 -0.5133 -0.1216  1.9451
  346MOL0     H45671   2.871  10.658   3.338  3.8313 -1.2167 -0.3075
  346MOL0     H45672   2.757  10.713   3.144 -1.2944  0.1248  1.0463
  347MOL0     O45673  11.403   7.875   7.828  0.3870 -0.2153  0.5897
  347MOL0     C45674  11.366   7.799   7.919  0.1843 -0.0512  0.4712
  347MOL0     O45675  11.440   7.745   8.017 -0.1341  0.4557 -0.3825
  347MOL0     C45676  11.570   7.789   8.030  0.4360  0.3250  0.8082
  347MOL0     C45677  11.678   7.733   7.953  0.1204 -0.2804  0.2431
  347MOL0     C45678  11.800   7.785   7.955  0.2066 -0.0519  0.4773
  347MOL0     C45679  11.826   7.888   8.049 -0.2285 -0.0192  0.2879
  347MOL0     O45680  11.951   7.937   8.074  0.7054  0.7743 -0.7201
  347MOL0     C45681  12.012   8.015   7.966 -0.4441 -0.0925 -0.0991
  347MOL0     C45682  12.154   8.069   8.013  0.2334 -0.0839  1.1065
  347MOL0     C45683  12.243   7.944   8.040  0.1807  0.0086  0.1241
  347MOL0     C45684  12.388   7.983   8.084  0.1952 -0.7251 -0.7706
  347MOL0     C45685  12.460   8.042   7.962 -0.5087  1.3556  0.6534
  347MOL0     C45686  12.582   8.106   8.031 -0.1820  0.4274  0.4228
  347MOL0     C45687  12.672   8.181   7.932  0.2165  0.3205 -0.6925
  347MOL0     C45688  12.810   8.225   7.982  0.3793 -0.8316  0.1926
  347MOL0     N45689  12.903   8.287   7.883  0.0809  0.2029  0.4941
  347MOL0     C45690  13.020   8.347   7.909  0.4780  0.7242 -0.0672
  347MOL0     C45691  13.070   8.377   7.786  0.7213  0.8889 -0.4455
  347MOL0     C45692  13.197   8.454   7.765 -0.4719  0.1874  0.0150
  347MOL0     C45693  13.315   8.355   7.766  0.2549 -0.6748 -0.2986
  347MOL0     C45694  13.367   8.327   7.906 -0.8178 -0.0722 -0.7731
  347MOL0     C45695  13.483   8.220   7.902  0.7330 -0.3673  0.2302
  347MOL0     O45696  13.421   8.091   7.915  0.5309  0.1540  0.2968
  347MOL0     C45697  13.515   7.989   7.933  1.1270 -0.6957  0.1514
  347MOL0     C45698  13.655   8.004   7.935  1.5880  0.3483 -1.0934
  347MOL0     C45699  13.733   7.896   7.982  0.0432 -0.0744  0.3914
  347MOL0     C45700  13.680   7.772   8.016  0.5121  0.0819 -0.8887
  347MOL0     C45701  13.769   7.655   8.055  0.1883 -0.0851 -0.8213
  347MOL0     O45702  13.697   7.535   8.055 -0.2509 -0.4627  0.0197
  347MOL0     C45703  13.768   7.413   8.045  0.7783 -0.2384  0.1817
  347MOL0     C45704  13.689   7.295   8.057  0.2186  0.0187  0.5096
  347MOL0     C45705  13.740   7.156   8.046 -0.0820 -0.0139 -0.7086
  347MOL0     C45706  13.875   7.139   8.013 -0.2572 -0.4884  0.8509
  347MOL0     O45707  13.913   7.012   7.986 -0.1508  0.3961 -0.3317
  347MOL0     C45708  14.015   6.988   7.881 -0.4800 -0.5656 -1.1546
  347MOL0     C45709  13.974   6.872   7.797  0.2583 -0.5874  0.1977
  347MOL0     C45710  13.852   6.904   7.713 -1.0436  1.0627  0.5535
  347MOL0     C45711  13.819   6.758   7.657  0.3177  0.8435 -1.2486
  347MOL0     C45712  13.745   6.763   7.531 -0.0759 -0.1151  0.3620
  347MOL0     C45713  13.844   6.775   7.418  0.1075  0.2516 -0.6019
  347MOL0     C45714  13.775   6.742   7.288 -0.1772 -1.1560  0.2162
  347MOL0     C45715  13.800   6.598   7.250  0.1038  0.5139 -0.2330
  347MOL0    Cl45716  13.964   6.566   7.184 -0.2403 -0.1547  0.0284
  347MOL0     C45717  13.954   7.255   8.000 -0.3107 -0.1907  0.7920
  347MOL0     C45718  13.902   7.386   8.025  0.2419  0.9553  0.1876
  347MOL0     O45719  13.891   7.668   8.053  0.4336  0.2596  0.1184
  347MOL0     C45720  13.546   7.759   7.999 -0.8624 -0.2003 -0.0263
  347MOL0     C45721  13.465   7.863   7.961  0.4417 -0.6931  0.0102
  347MOL0     N45722  12.972   8.338   7.692 -0.0988 -0.5305 -1.5269
  347MOL0     N45723  12.874   8.282   7.755 -0.6547 -0.5231  0.6028
  347MOL0     C45724  11.729   7.942   8.136 -0.0940  0.5368  0.1504
  347MOL0     C45725  11.599   7.893   8.121 -0.6841  0.1382  0.4992
  347MOL0     C45726  11.230   7.752   7.928 -0.0202  0.3237  0.9391
  347MOL0     C45727  11.203   7.621   7.965 -0.4887 -0.0372  0.4864
  347MOL0     C45728  11.081   7.568   7.944 -0.4578  0.0100  0.1024
  347MOL0     C45729  10.971   7.644   7.902  0.6110  0.2700 -0.5970
  347MOL0     O45730  10.849   7.594   7.881 -0.2749 -0.4045  0.1036
  347MOL0     C45731  10.759   7.615   7.984  0.0943 -0.7954  0.6238
  347MOL0     C45732  10.623   7.578   7.938 -0.1592  0.0225  0.7266
  347MOL0     C45733  10.594   7.449   7.854 -0.2105 -0.2968 -0.4652
  347MOL0     C45734  10.487   7.349   7.900  0.0494 -0.8321 -0.5031
  347MOL0     C45735  10.441   7.293   7.777  0.7530  1.0121  0.7272
  347MOL0     C45736  10.403   7.252   7.668  1.1329  0.1458 -0.0769
  347MOL0     C45737  10.999   7.774   7.866  0.2719 -0.4920  0.2582
  347MOL0     C45738  11.126   7.831   7.880 -0.5208  0.9419  0.3212
  347MOL0     H45739  11.660   7.640   7.901 -1.9593 -1.8960  3.5078
  347MOL0     H45740  11.878   7.740   7.895  0.3808  0.7332  0.1040
  347MOL0     H45741  11.943   8.090   7.926  1.9411  1.4223 -1.5780
  347MOL0     H45742  12.038   7.942   7.889 -1.0057  0.9547 -1.3177
  347MOL0     H45743  12.145   8.135   8.100 -0.7993 -1.1752  1.8539
  347MOL0     H45744  12.190   8.130   7.929  1.2445 -1.9725  0.1202
  347MOL0     H45745  12.257   7.889   7.947 -0.9773 -1.8179  0.9542
  347MOL0     H45746  12.204   7.872   8.113  2.4852  1.2034  2.7319
  347MOL0     H45747  12.385   8.049   8.171  1.8844 -1.7467  0.1124
  347MOL0     H45748  12.447   7.898   8.119  0.6809 -0.1464 -0.1534
  347MOL0     H45749  12.404   8.113   7.901  0.1544 -2.0234 -4.4909
  347MOL0     H45750  12.484   7.966   7.888  0.6009  0.1433  2.1822
  347MOL0     H45751  12.647   8.032   8.078  0.5249 -0.3242 -1.6277
  347MOL0     H45752  12.555   8.188   8.098  3.0676  0.5387  1.7558
  347MOL0     H45753  12.685   8.125   7.839  2.4547  2.3046 -1.6695
  347MOL0     H45754  12.605   8.260   7.896 -2.6923 -2.0471 -0.9328
  347MOL0     H45755  12.853   8.139   8.033 -0.8123 -2.6640 -1.7387
  347MOL0     H45756  12.798   8.311   8.049  0.0331 -1.2871  0.7231
  347MOL0     H45757  13.066   8.374   8.003  2.5095 -1.1751 -0.4309
  347MOL0     H45758  13.217   8.535   7.835  1.4385  0.6637 -1.0353
  347MOL0     H45759  13.192   8.492   7.663 -0.3781 -1.2253 -0.5493
  347MOL0     H45760  13.398   8.399   7.711 -0.2358 -0.9570 -1.2820
  347MOL0     H45761  13.291   8.264   7.710  0.9182  0.5057 -2.6270
  347MOL0     H45762  13.401   8.424   7.944 -2.9647 -0.2851  2.0092
  347MOL0     H45763  13.287   8.296   7.974  0.1118  0.9013  0.8542
  347MOL0     H45764  13.544   8.227   7.993 -2.1915 -1.1027  2.4096
  347MOL0     H45765  13.547   8.228   7.814 -0.1364 -1.9813 -0.5934
  347MOL0     H45766  13.703   8.098   7.908  1.8168  1.5623  2.7947
  347MOL0     H45767  13.841   7.902   7.983  0.2152 -2.1896 -0.2299
  347MOL0     H45768  13.583   7.298   8.083 -0.0801 -0.9262 -0.5023
  347MOL0     H45769  13.682   7.065   8.035 -0.1207  0.0772 -1.3369
  347MOL0     H45770  14.101   6.941   7.929 -0.0190 -0.9273 -2.3116
  347MOL0     H45771  14.035   7.072   7.814 -2.4396 -2.2464 -4.0849
  347MOL0     H45772  13.952   6.782   7.856 -0.2098 -3.6941 -4.1704
  347MOL0     H45773  14.055   6.845   7.727 -0.7819  0.8686 -1.6722
  347MOL0     H45774  13.867   6.972   7.629 -1.8563  1.7812  0.9709
  347MOL0     H45775  13.775   6.951   7.775  1.5941  1.4762  3.7824
  347MOL0     H45776  13.901   6.685   7.654  0.1978 -0.3372  6.1817
  347MOL0     H45777  13.752   6.713   7.731 -1.6983  2.9491 -1.6843
  347MOL0     H45778  13.678   6.849   7.532  1.1487  0.8811 -0.5068
  347MOL0     H45779  13.690   6.670   7.516 -0.6437  0.1798  0.6068
  347MOL0     H45780  13.924   6.703   7.439 -2.0658 -1.9018  0.8334
  347MOL0     H45781  13.891   6.874   7.419  0.0270  0.2851 -0.1534
  347MOL0     H45782  13.667   6.760   7.295 -0.2423 -1.9988  2.2085
  347MOL0     H45783  13.815   6.811   7.213  2.6794 -1.3207  1.4673
  347MOL0     H45784  13.732   6.582   7.166 -0.2199  1.4800 -0.1680
  347MOL0     H45785  13.778   6.537   7.338  1.9178 -2.4457 -1.6696
  347MOL0     H45786  14.056   7.237   7.967 -0.5924 -2.3821  0.9966
  347MOL0     H45787  13.979   7.463   8.026  1.3604 -0.0529  3.1770
  347MOL0     H45788  13.502   7.667   8.037 -1.8318  0.1915 -0.1664
  347MOL0     H45789  13.356   7.860   7.956  0.1737  0.6901  2.8108
  347MOL0     H45790  11.754   8.026   8.199 -4.4469  1.9264  0.3472
  347MOL0     H45791  11.523   7.933   8.187 -2.4449  0.1323 -1.4480
  347MOL0     H45792  11.285   7.558   8.002 -0.9477 -1.2163 -0.4434
  347MOL0     H45793  11.060   7.468   7.979 -0.9560  0.0018 -0.2092
  347MOL0     H45794  10.764   7.718   8.021 -1.7238 -0.1139 -0.8912
  347MOL0     H45795  10.787   7.550   8.067 -1.6557 -1.3400  0.8150
  347MOL0     H45796  10.553   7.570   8.022 -0.3260 -0.2966  0.5592
  347MOL0     H45797  10.596   7.670   7.884  5.8015  0.3239 -2.5198
  347MOL0     H45798  10.687   7.394   7.841  0.8313  1.6006 -1.4084
  347MOL0     H45799  10.567   7.488   7.756  2.1886 -0.8397 -1.4071
  347MOL0     H45800  10.521   7.271   7.968 -0.3315  0.7837  1.6360
  347MOL0     H45801  10.400   7.382   7.958  1.1066 -0.4273  0.8838
  347MOL0     H45802  10.367   7.221   7.572  1.2697  1.0571 -0.4316
  347MOL0     H45803  10.926   7.834   7.813 -0.2082 -1.5325 -0.2944
  347MOL0     H45804  11.152   7.931   7.848 -1.2493  1.0374  0.0194
  348MOL0     O45805  10.695   4.671   0.848  0.9851 -0.1772  0.0442
  348MOL0     C45806  10.688   4.780   0.910  0.9022  0.4373 -0.0066
  348MOL0     O45807  10.685   4.792   1.043  0.3044 -0.5784 -0.7176
  348MOL0     C45808  10.684   4.678   1.118 -1.3158  0.6288  0.1201
  348MOL0     C45809  10.615   4.555   1.082  0.3942  0.6111  0.7785
  348MOL0     C45810  10.641   4.439   1.157  0.9646 -0.6042  0.4020
  348MOL0     C45811  10.715   4.440   1.276  0.8015  0.3596 -0.8160
  348MOL0     O45812  10.716   4.345   1.368 -0.3480  1.4525 -0.8737
  348MOL0     C45813  10.841   4.302   1.419 -0.7161  0.5505 -0.0536
  348MOL0     C45814  10.838   4.297   1.573  0.8702 -0.5865 -0.6946
  348MOL0     C45815  10.827   4.166   1.641 -0.7475  0.2755 -0.3415
  348MOL0     C45816  10.959   4.088   1.667  0.2109  0.0170 -0.0105
  348MOL0     C45817  10.930   3.943   1.679 -0.6019 -0.2471 -0.2425
  348MOL0     C45818  11.061   3.845   1.679 -0.4779  0.1354  1.1581
  348MOL0     C45819  11.010   3.705   1.673  0.4136 -0.7032  1.3758
  348MOL0     C45820  10.965   3.655   1.811  0.4430 -1.2576  0.0042
  348MOL0     N45821  10.915   3.521   1.816  0.4020 -0.0220  0.2490
  348MOL0     C45822  10.987   3.408   1.833  0.1870 -0.4111  0.2436
  348MOL0     C45823  10.893   3.309   1.833  0.4997  0.5208 -0.8088
  348MOL0     C45824  10.919   3.161   1.825 -0.5006  0.2543  0.4280
  348MOL0     C45825  10.914   3.092   1.963 -0.7448 -1.7263  0.4767
  348MOL0     C45826  11.055   3.067   2.012  0.7101 -0.0374  0.6637
  348MOL0     C45827  11.065   3.043   2.173 -0.8214 -0.3074 -1.0847
  348MOL0     O45828  11.187   2.981   2.211  0.8320  0.0230  0.0250
  348MOL0     C45829  11.288   3.057   2.257 -0.6863 -0.1299 -1.1914
  348MOL0     C45830  11.377   2.986   2.332 -0.7891  0.5666 -0.1867
  348MOL0     C45831  11.475   3.045   2.405 -0.7575 -0.0553  0.0460
  348MOL0     C45832  11.494   3.181   2.405 -0.2124  0.8222 -0.7612
  348MOL0     C45833  11.596   3.245   2.483 -0.8025  1.2162 -0.1515
  348MOL0     O45834  11.695   3.153   2.519 -0.2612  0.3379  0.2542
  348MOL0     C45835  11.808   3.197   2.582 -0.4135  0.2993 -0.1352
  348MOL0     C45836  11.830   3.225   2.715  0.7719  0.6769  0.1736
  348MOL0     C45837  11.958   3.257   2.771 -0.6889 -0.1641  0.2490
  348MOL0     C45838  12.066   3.246   2.680 -0.7961 -0.3147  0.4253
  348MOL0     O45839  12.193   3.236   2.733  0.3317  0.9973  0.3155
  348MOL0     C45840  12.270   3.354   2.741  0.0262 -0.0669 -0.4351
  348MOL0     C45841  12.318   3.401   2.600 -0.2484 -0.4052  0.5045
  348MOL0     C45842  12.429   3.518   2.594  0.7404  0.2667 -0.2889
  348MOL0     C45843  12.402   3.637   2.675  0.5051  1.5384 -0.7617
  348MOL0     C45844  12.486   3.744   2.636  0.2939 -0.8672 -0.3419
  348MOL0     C45845  12.629   3.744   2.696 -0.2313  0.6503  0.7621
  348MOL0     C45846  12.712   3.869   2.661  0.8009 -0.5349 -0.8071
  348MOL0     C45847  12.797   3.852   2.540 -0.7151 -0.3499  0.8101
  348MOL0    Cl45848  12.917   3.718   2.567  0.1191 -0.3444 -0.1611
  348MOL0     C45849  12.046   3.215   2.547 -0.2761 -0.2521  0.3897
  348MOL0     C45850  11.919   3.191   2.494 -1.1163  0.1010 -0.8142
  348MOL0     O45851  11.585   3.366   2.515 -0.1767  0.4755  0.1175
  348MOL0     C45852  11.405   3.259   2.338  0.3301  0.3652  0.4675
  348MOL0     C45853  11.308   3.200   2.255  0.6477  0.5227 -0.4612
  348MOL0     N45854  10.768   3.372   1.820 -1.0669 -0.3838  0.1850
  348MOL0     N45855  10.782   3.494   1.806 -0.1097 -0.4286  0.2179
  348MOL0     C45856  10.772   4.565   1.310  0.1716  0.0099 -0.3819
  348MOL0     C45857  10.761   4.685   1.236 -0.3527  1.2980 -0.0011
  348MOL0     C45858  10.705   4.896   0.828 -0.4451 -0.4923 -0.2471
  348MOL0     C45859  10.705   4.896   0.685 -0.9621 -0.0239 -0.2063
  348MOL0     C45860  10.765   5.000   0.619 -0.3277 -0.5937 -1.0838
  348MOL0     C45861  10.781   5.125   0.679 -0.2942 -0.9245 -0.4243
  348MOL0     O45862  10.820   5.229   0.599 -0.1104 -0.4078 -0.2553
  348MOL0     C45863  10.850   5.364   0.641  0.4958 -0.0027  0.1028
  348MOL0     C45864  10.994   5.369   0.699  0.6070 -0.2459 -0.8726
  348MOL0     C45865  11.092   5.312   0.610 -1.1507  0.6739  0.1648
  348MOL0     C45866  11.235   5.338   0.662 -0.3456 -0.5419 -0.1672
  348MOL0     C45867  11.274   5.239   0.774 -0.0616  0.2982 -0.2069
  348MOL0     C45868  11.309   5.160   0.858 -0.5109 -0.3317  0.2435
  348MOL0     C45869  10.754   5.131   0.813 -0.8353  0.7394  0.1982
  348MOL0     C45870  10.736   5.012   0.888 -0.1326 -0.2010 -0.1817
  348MOL0     H45871  10.542   4.538   1.003 -0.4607 -0.7782  1.8090
  348MOL0     H45872  10.606   4.343   1.119  0.9952 -0.0140 -1.2186
  348MOL0     H45873  10.920   4.370   1.386 -0.7729 -0.5312 -2.6352
  348MOL0     H45874  10.866   4.203   1.380 -2.7028  1.4875 -4.1417
  348MOL0     H45875  10.769   4.376   1.603  1.3738  0.0637 -1.2257
  348MOL0     H45876  10.930   4.330   1.621  0.9653 -2.9462  0.9217
  348MOL0     H45877  10.752   4.106   1.589  0.1498 -0.4087 -0.8783
  348MOL0     H45878  10.787   4.179   1.742 -0.0781  0.5168 -0.0989
  348MOL0     H45879  11.017   4.101   1.575  1.0582  3.4155  0.8380
  348MOL0     H45880  11.014   4.133   1.750 -1.8065 -1.9534  2.5531
  348MOL0     H45881  10.864   3.913   1.597 -2.4894  0.1090  1.0860
  348MOL0     H45882  10.875   3.930   1.772 -1.8040  1.4080 -0.6712
  348MOL0     H45883  11.118   3.859   1.772 -0.3514  1.3519  0.9128
  348MOL0     H45884  11.127   3.880   1.599 -0.7178 -0.7016  0.5893
  348MOL0     H45885  10.927   3.694   1.602  0.6651  2.4190  0.4593
  348MOL0     H45886  11.084   3.636   1.629 -1.0045 -2.7506  2.0333
  348MOL0     H45887  10.896   3.727   1.855  4.1328  2.5929  0.1317
  348MOL0     H45888  11.053   3.666   1.874  2.4640 -2.2084 -2.4916
  348MOL0     H45889  11.093   3.408   1.812  0.2210  1.9191  0.1706
  348MOL0     H45890  11.014   3.149   1.771 -0.4855  1.8349  0.0625
  348MOL0     H45891  10.851   3.106   1.759  1.6123  2.2293 -3.8169
  348MOL0     H45892  10.842   3.010   1.950 -0.6529 -1.8462  0.7101
  348MOL0     H45893  10.886   3.151   2.051  1.2453 -1.5980  1.0699
  348MOL0     H45894  11.094   2.985   1.950 -1.2807 -0.7348  0.2635
  348MOL0     H45895  11.120   3.154   1.998  0.3135  0.5652  2.3552
  348MOL0     H45896  10.990   2.978   2.219  3.8500 -3.0132  3.8575
  348MOL0     H45897  11.053   3.139   2.224 -0.7613 -0.0947 -1.4653
  348MOL0     H45898  11.362   2.881   2.357 -3.4458  1.3738  2.1072
  348MOL0     H45899  11.541   2.985   2.466  0.6107 -1.2219 -2.4214
  348MOL0     H45900  11.741   3.253   2.770  1.9228  2.1424  1.3625
  348MOL0     H45901  11.976   3.287   2.873 -2.7324 -2.9703  1.5759
  348MOL0     H45902  12.362   3.327   2.793  0.8231 -1.3162 -2.4135
  348MOL0     H45903  12.220   3.431   2.802 -0.7914 -0.1934 -0.9364
  348MOL0     H45904  12.236   3.417   2.530  0.6315 -1.7655 -0.9080
  348MOL0     H45905  12.374   3.317   2.557 -1.7656 -0.5722 -1.2560
  348MOL0     H45906  12.446   3.549   2.490  2.9373  1.4907  0.3728
  348MOL0     H45907  12.532   3.489   2.619  1.3828  0.9636 -1.9357
  348MOL0     H45908  12.299   3.666   2.655  0.1659  0.2549 -0.9533
  348MOL0     H45909  12.422   3.608   2.779  0.1925 -0.3784 -1.2057
  348MOL0     H45910  12.435   3.829   2.681 -1.5244 -0.9993 -2.0232
  348MOL0     H45911  12.491   3.761   2.528 -1.8102 -3.5490 -0.9641
  348MOL0     H45912  12.675   3.654   2.655 -1.4606  1.1820 -2.0519
  348MOL0     H45913  12.621   3.734   2.804  0.0346  1.4726  0.8669
  348MOL0     H45914  12.659   3.962   2.637  4.4223  1.8957 -0.1606
  348MOL0     H45915  12.767   3.896   2.751  2.7791  3.2549 -2.8960
  348MOL0     H45916  12.847   3.946   2.512 -0.7047 -0.9314 -1.3176
  348MOL0     H45917  12.733   3.831   2.454 -0.5697  2.8821 -0.2148
  348MOL0     H45918  12.128   3.216   2.476  0.3020 -1.6805  1.0007
  348MOL0     H45919  11.918   3.143   2.397 -2.5448 -2.5498  0.4111
  348MOL0     H45920  11.400   3.368   2.339 -4.8002  0.4235 -0.8147
  348MOL0     H45921  11.250   3.264   2.189 -0.0553  1.1665  0.7448
  348MOL0     H45922  10.831   4.573   1.401  2.2830  0.9882 -1.7645
  348MOL0     H45923  10.807   4.781   1.258  1.8393  1.1582 -3.1901
  348MOL0     H45924  10.665   4.812   0.630  1.6710 -1.0294 -0.7560
  348MOL0     H45925  10.788   4.983   0.515 -0.2574 -1.1827 -0.9792
  348MOL0     H45926  10.772   5.407   0.704 -1.2639 -0.0553 -1.9106
  348MOL0     H45927  10.863   5.420   0.548  0.4050  1.6538  1.0586
  348MOL0     H45928  11.017   5.475   0.712  0.9394 -0.0108 -3.0682
  348MOL0     H45929  10.997   5.303   0.787 -2.8644  0.2068 -0.2700
  348MOL0     H45930  11.095   5.357   0.510  1.0055  2.4673  0.9348
  348MOL0     H45931  11.080   5.204   0.597  0.2997 -0.2338  4.5852
  348MOL0     H45932  11.308   5.352   0.582  0.5283  1.5060  0.9428
  348MOL0     H45933  11.243   5.435   0.711  1.3340 -0.3300 -0.7923
  348MOL0     H45934  11.353   5.096   0.932 -1.3497 -0.1239  0.9429
  348MOL0     H45935  10.763   5.227   0.864 -1.1629  0.8080  0.1294
  348MOL0     H45936  10.732   5.030   0.995 -2.1188  1.0879 -0.4177
  349MOL0     O45937   7.417   1.806   9.289  0.0300  0.0674 -0.3784
  349MOL0     C45938   7.427   1.888   9.382  0.0839  0.8615  0.4239
  349MOL0     O45939   7.521   1.905   9.476  0.1458 -0.2835 -0.3377
  349MOL0     C45940   7.646   1.845   9.472  0.2621  0.1256 -0.5421
  349MOL0     C45941   7.704   1.782   9.358  0.0536  0.1987 -0.4588
  349MOL0     C45942   7.833   1.739   9.365 -0.2090 -0.1592  0.4300
  349MOL0     C45943   7.917   1.740   9.477  0.6974  0.2098 -0.9963
  349MOL0     O45944   8.041   1.684   9.483 -0.4081 -0.4738  0.0922
  349MOL0     C45945   8.124   1.702   9.595  0.6792 -0.4646 -1.2674
  349MOL0     C45946   8.246   1.606   9.579  0.2995  0.1482  0.5542
  349MOL0     C45947   8.203   1.461   9.565  0.3092  0.0437 -0.0565
  349MOL0     C45948   8.319   1.373   9.512  0.2186 -0.4873  0.1462
  349MOL0     C45949   8.377   1.276   9.622  0.2102 -0.1324  0.6902
  349MOL0     C45950   8.493   1.346   9.695  0.9183 -0.3270 -0.2941
  349MOL0     C45951   8.586   1.239   9.755  1.0741  0.2451 -0.1165
  349MOL0     C45952   8.503   1.154   9.851  0.9250  0.4381 -0.1026
  349MOL0     N45953   8.583   1.053   9.916  0.2343  0.2550 -0.0029
  349MOL0     C45954   8.683   1.080  10.009  0.1067  0.2581 -0.9493
  349MOL0     C45955   8.707   0.956  10.062  0.2411  0.6141 -0.0157
  349MOL0     C45956   8.820   0.932  10.153  0.1355  0.3406 -0.8437
  349MOL0     C45957   8.764   0.834  10.268 -1.2094  0.0409 -0.6006
  349MOL0     C45958   8.674   0.918  10.357  0.6489 -0.2832  0.5720
  349MOL0     C45959   8.672   0.861  10.498  0.4469  0.2596 -0.2499
  349MOL0     O45960   8.616   0.728  10.478  0.1631  0.6284  0.1917
  349MOL0     C45961   8.641   0.617  10.558  0.6236 -0.2501  0.2513
  349MOL0     C45962   8.626   0.486  10.497  0.1661  0.0461 -0.2624
  349MOL0     C45963   8.656   0.378  10.577 -1.0496 -0.1823  0.1934
  349MOL0     C45964   8.717   0.396  10.699  0.5501 -0.7353  0.3511
  349MOL0     C45965   8.782   0.274  10.759  1.0823  0.9497 -0.0084
  349MOL0     O45966   8.873   0.290  10.858  0.4323  0.2922 -0.2880
  349MOL0     C45967   8.926   0.175  10.919 -0.8669 -0.0661 -0.2657
  349MOL0     C45968   9.064   0.188  10.949  0.5929 -0.0507  0.0927
  349MOL0     C45969   9.130   0.084  11.016 -0.9635  0.7355 -0.2010
  349MOL0     C45970   9.060  -0.018  11.071  0.5664 -0.8683  0.1366
  349MOL0     O45971   9.106  -0.112  11.157  0.0422 -0.5090  0.0079
  349MOL0     C45972   9.237  -0.086  11.215  0.7014  0.3056 -0.0861
  349MOL0     C45973   9.262  -0.180  11.328 -1.0873  0.3814 -0.2170
  349MOL0     C45974   9.167  -0.155  11.449  0.2596  1.1591  0.2273
  349MOL0     C45975   9.221  -0.059  11.556  1.3040 -0.1568  0.0743
  349MOL0     C45976   9.309   0.063  11.521  0.5734 -0.3996 -0.0499
  349MOL0     C45977   9.319   0.143  11.657 -0.8322 -0.5173  0.4812
  349MOL0     C45978   9.379   0.284  11.625  0.1131 -0.2596  0.4007
  349MOL0     C45979   9.453   0.360  11.733  0.0107 -0.4223  0.0581
  349MOL0    Cl45980   9.517   0.520  11.687  0.2173 -0.4756  0.1715
  349MOL0     C45981   8.924  -0.030  11.040 -0.3718  1.0389  0.3041
  349MOL0     C45982   8.857   0.057  10.959 -0.1558 -0.2014  0.5975
  349MOL0     O45983   8.719   0.169  10.737 -0.1967  0.3098 -0.8441
  349MOL0     C45984   8.743   0.525  10.750 -0.5978 -0.0718  0.3800
  349MOL0     C45985   8.694   0.633  10.681 -0.2860  0.0732 -0.5414
  349MOL0     N45986   8.658   0.864   9.977  0.7820 -0.6801 -0.7159
  349MOL0     N45987   8.572   0.923   9.903  0.3860 -0.2474  0.4151
  349MOL0     C45988   7.853   1.805   9.590  0.3632 -0.1590  0.1811
  349MOL0     C45989   7.722   1.865   9.586 -0.4845  1.3763  0.3578
  349MOL0     C45990   7.328   2.000   9.384  0.0150  0.1741  1.0803
  349MOL0     C45991   7.263   2.031   9.499 -0.5229  0.2618 -0.8284
  349MOL0     C45992   7.154   2.124   9.501  0.5048  0.0804 -0.7138
  349MOL0     C45993   7.106   2.182   9.384 -0.4862  0.1835 -0.0087
  349MOL0     O45994   7.014   2.284   9.362  0.3933 -0.4957  0.0824
  349MOL0     C45995   6.912   2.296   9.460 -0.0638  0.6475 -0.9322
  349MOL0     C45996   6.796   2.385   9.411  0.8606  0.5083 -0.4397
  349MOL0     C45997   6.731   2.348   9.283 -0.4510  0.9869  0.7798
  349MOL0     C45998   6.649   2.214   9.297 -0.4094 -0.2663 -0.8406
  349MOL0     C45999   6.584   2.189   9.165  0.5554  0.7890  0.2652
  349MOL0     C46000   6.542   2.183   9.058  0.9121  0.6734  0.6661
  349MOL0     C46001   7.172   2.144   9.265  0.3100 -1.0379 -0.8114
  349MOL0     C46002   7.282   2.062   9.269 -0.5009  0.7651  0.9110
  349MOL0     H46003   7.639   1.771   9.271  0.8873  3.3995 -1.6344
  349MOL0     H46004   7.862   1.705   9.266  0.9577  2.5930 -0.2791
  349MOL0     H46005   8.069   1.692   9.689  0.8173  0.5941 -1.0565
  349MOL0     H46006   8.168   1.802   9.606  0.2947 -0.1524 -2.3845
  349MOL0     H46007   8.309   1.614   9.669  2.6899 -1.3569 -0.8589
  349MOL0     H46008   8.306   1.643   9.495 -0.2492 -3.1036 -1.4398
  349MOL0     H46009   8.117   1.440   9.502 -1.6411 -0.5438  2.6103
  349MOL0     H46010   8.159   1.437   9.662 -1.6423  1.1535 -0.6171
  349MOL0     H46011   8.277   1.311   9.432 -2.6902  4.0390 -2.2700
  349MOL0     H46012   8.403   1.429   9.472 -0.8980  1.3478  0.2591
  349MOL0     H46013   8.420   1.194   9.563  4.1329  0.5083  2.3899
  349MOL0     H46014   8.303   1.245   9.697 -0.5492  3.1679  1.4887
  349MOL0     H46015   8.462   1.410   9.779  0.4628 -0.5626 -0.2835
  349MOL0     H46016   8.542   1.415   9.626  0.9714 -1.2768 -1.2292
  349MOL0     H46017   8.625   1.174   9.676  1.1694 -1.4247  1.2605
  349MOL0     H46018   8.672   1.282   9.808  0.4258 -0.4565  1.5685
  349MOL0     H46019   8.427   1.097   9.797 -1.0349  2.8965 -0.1240
  349MOL0     H46020   8.448   1.223   9.916  0.2761 -0.4216  0.2753
  349MOL0     H46021   8.722   1.178  10.035  0.9380 -0.4436  0.6111
  349MOL0     H46022   8.848   1.032  10.189 -4.0219  1.7459 -0.9465
  349MOL0     H46023   8.903   0.884  10.101  0.5954 -0.0958  0.2532
  349MOL0     H46024   8.853   0.804  10.324 -1.2047  2.9651  1.1766
  349MOL0     H46025   8.712   0.749  10.223  0.3759 -1.0559 -0.4113
  349MOL0     H46026   8.695   1.025  10.362 -3.7893  0.9534 -1.7220
  349MOL0     H46027   8.575   0.909  10.311  0.3288 -3.2760  1.5979
  349MOL0     H46028   8.604   0.917  10.562  3.1170  3.7349 -0.1911
  349MOL0     H46029   8.759   0.858  10.564 -0.5790  0.5810  1.1630
  349MOL0     H46030   8.594   0.475  10.394  1.2656 -3.2195 -0.3762
  349MOL0     H46031   8.656   0.284  10.522  0.7005  1.4765 -2.9049
  349MOL0     H46032   9.097   0.291  10.940 -2.0085  1.0625  2.0338
  349MOL0     H46033   9.234   0.093  11.044 -0.6031  0.6147 -1.4459
  349MOL0     H46034   9.257   0.018  11.244 -0.7058  1.2698 -2.3173
  349MOL0     H46035   9.307  -0.107  11.133  0.7841  1.5317 -0.3630
  349MOL0     H46036   9.369  -0.175  11.349 -0.7468  1.0006 -1.9745
  349MOL0     H46037   9.241  -0.279  11.287  0.3094  0.7054 -1.8396
  349MOL0     H46038   9.138  -0.248  11.498  3.7405  1.6238  3.6615
  349MOL0     H46039   9.077  -0.117  11.399  0.5690  0.5826 -0.7884
  349MOL0     H46040   9.137  -0.010  11.608  2.1539  4.6311 -2.4291
  349MOL0     H46041   9.288  -0.116  11.620  0.4925 -1.0472  0.1490
  349MOL0     H46042   9.256   0.123  11.447 -2.0829 -0.9156  1.3113
  349MOL0     H46043   9.407   0.048  11.476  1.8638 -1.2830  2.7896
  349MOL0     H46044   9.394   0.089  11.716  0.0221 -1.6742 -1.5234
  349MOL0     H46045   9.226   0.149  11.713 -2.2749 -2.4519 -1.5039
  349MOL0     H46046   9.445   0.267  11.540 -0.2428 -0.2837  0.1238
  349MOL0     H46047   9.299   0.346  11.581  3.2903  2.7352 -1.6667
  349MOL0     H46048   9.532   0.293  11.770 -1.3306 -0.5165  3.0568
  349MOL0     H46049   9.377   0.386  11.807 -0.2681 -1.1244  0.0253
  349MOL0     H46050   8.863  -0.100  11.096  0.7920 -1.1684 -1.0747
  349MOL0     H46051   8.750   0.048  10.948  0.0429 -1.5556 -0.6180
  349MOL0     H46052   8.794   0.535  10.845  1.1848 -0.1027 -0.5162
  349MOL0     H46053   8.710   0.734  10.716 -1.1577  0.2523 -0.6404
  349MOL0     H46054   7.916   1.813   9.678 -0.8217  2.3075  0.8788
  349MOL0     H46055   7.682   1.922   9.670 -0.2397  2.3287 -0.1570
  349MOL0     H46056   7.302   1.987   9.590 -1.2129  5.0854  2.1986
  349MOL0     H46057   7.110   2.149   9.597  0.0034  0.1731 -0.9669
  349MOL0     H46058   6.945   2.316   9.562  0.5411  0.7778 -1.1445
  349MOL0     H46059   6.867   2.197   9.468  1.1415  0.1244 -0.4259
  349MOL0     H46060   6.717   2.388   9.487 -2.9798  1.9190 -4.0947
  349MOL0     H46061   6.840   2.485   9.420  1.2400  0.1815  2.5269
  349MOL0     H46062   6.805   2.339   9.203  0.7284  0.7323  1.8691
  349MOL0     H46063   6.666   2.428   9.247  0.2483 -0.3811 -4.2689
  349MOL0     H46064   6.714   2.128   9.314  0.1326 -0.1228 -2.1041
  349MOL0     H46065   6.579   2.215   9.380  1.2120 -1.1577  0.6027
  349MOL0     H46066   6.485   2.168   8.969 -0.4775 -3.3560  1.9943
  349MOL0     H46067   7.137   2.195   9.176 -1.2933 -1.2041 -0.3189
  349MOL0     H46068   7.320   2.043   9.170 -0.2266  3.3611  0.4732
  350MOL0     O46069   4.645   2.121   9.489 -0.5612  0.9975 -1.0785
  350MOL0     C46070   4.690   2.114   9.380 -0.3952 -0.3228  0.3116
  350MOL0     O46071   4.629   2.054   9.279 -0.3575  0.4921  0.5119
  350MOL0     C46072   4.495   2.030   9.296 -0.3623  0.2201  0.3561
  350MOL0     C46073   4.398   2.109   9.364  0.6122  0.9401  0.0217
  350MOL0     C46074   4.264   2.071   9.378 -0.0867  0.1130 -0.1081
  350MOL0     C46075   4.210   1.955   9.326  0.1204  0.9417  0.2244
  350MOL0     O46076   4.072   1.933   9.349 -0.0024 -0.7160 -0.4432
  350MOL0     C46077   4.030   1.791   9.359  0.8337 -0.8854  0.5685
  350MOL0     C46078   3.893   1.793   9.429  0.8242  0.1686 -0.8536
  350MOL0     C46079   3.787   1.883   9.365 -0.3847  0.1656 -0.4839
  350MOL0     C46080   3.644   1.853   9.407 -0.2217 -0.8764 -0.4083
  350MOL0     C46081   3.542   1.936   9.334  0.8884  0.1561 -0.1470
  350MOL0     C46082   3.394   1.952   9.395 -0.1517 -0.3611 -0.5334
  350MOL0     C46083   3.291   1.835   9.377 -0.5054  1.0306  0.1317
  350MOL0     C46084   3.310   1.727   9.485 -0.8506  0.9823 -0.0771
  350MOL0     N46085   3.215   1.616   9.502  0.0893 -0.8461 -0.2772
  350MOL0     C46086   3.105   1.609   9.578  0.0911 -0.8910  0.6269
  350MOL0     C46087   3.073   1.476   9.578 -0.3896  0.0923  1.1076
  350MOL0     C46088   2.988   1.407   9.682  0.2201  0.1100  0.3247
  350MOL0     C46089   2.839   1.426   9.651  0.3424  0.9118 -0.7327
  350MOL0     C46090   2.770   1.561   9.674 -0.5637  0.9180 -0.4919
  350MOL0     C46091   2.616   1.561   9.674 -0.0419  0.1413  0.5749
  350MOL0     O46092   2.578   1.549   9.537  0.0195 -0.3566  0.6582
  350MOL0     C46093   2.448   1.561   9.500 -0.1924  0.5958  0.5815
  350MOL0     C46094   2.414   1.536   9.371  0.7647 -0.8793 -0.3436
  350MOL0     C46095   2.285   1.554   9.321 -0.0308  0.2077 -0.2123
  350MOL0     C46096   2.177   1.594   9.411 -0.8195 -0.9176 -0.2604
  350MOL0     C46097   2.040   1.615   9.358 -0.1024 -0.6154  0.0074
  350MOL0     O46098   1.946   1.687   9.433  0.2716  0.3311  0.2222
  350MOL0     C46099   1.837   1.737   9.362 -0.5453 -0.0408  0.3626
  350MOL0     C46100   1.738   1.645   9.322  0.5204  0.1486 -0.5916
  350MOL0     C46101   1.625   1.688   9.249  0.5965 -0.0206  0.5278
  350MOL0     C46102   1.605   1.822   9.216  1.1741  0.0734 -0.2837
  350MOL0     O46103   1.505   1.841   9.128 -0.3164 -0.2976 -0.8514
  350MOL0     C46104   1.489   1.979   9.094 -0.3513 -0.2818 -0.7118
  350MOL0     C46105   1.413   2.050   9.203  0.0284  0.0809  0.0225
  350MOL0     C46106   1.271   2.016   9.208  0.4194 -0.2023  0.4309
  350MOL0     C46107   1.190   2.127   9.279 -0.2263  0.2180 -0.2707
  350MOL0     C46108   1.084   2.070   9.368  0.3394  0.3965  0.3373
  350MOL0     C46109   0.971   1.997   9.297  0.4271  0.4621 -0.7137
  350MOL0     C46110   0.839   2.014   9.356 -0.4990 -0.1321 -0.9550
  350MOL0     C46111   0.803   1.909   9.464 -0.0028  0.1962  1.0724
  350MOL0    Cl46112   0.824   1.749   9.403  0.1431 -0.1590 -0.5719
  350MOL0     C46113   1.701   1.918   9.273 -0.2743  0.9644  0.2994
  350MOL0     C46114   1.819   1.876   9.338  0.2679  0.0734 -0.1440
  350MOL0     O46115   2.020   1.580   9.245 -0.0339 -0.0621  0.3885
  350MOL0     C46116   2.210   1.614   9.551 -1.0239 -0.1117  0.7031
  350MOL0     C46117   2.344   1.602   9.591  0.1595  0.5261  0.5082
  350MOL0     N46118   3.143   1.419   9.471 -0.4635 -0.2027  0.3411
  350MOL0     N46119   3.226   1.503   9.427  0.3987 -0.4333 -0.0379
  350MOL0     C46120   4.298   1.885   9.245 -0.0794  0.7994  0.6177
  350MOL0     C46121   4.439   1.915   9.230 -0.3009 -0.2579 -0.5254
  350MOL0     C46122   4.817   2.188   9.359 -0.6158  0.9731  0.8465
  350MOL0     C46123   4.843   2.298   9.432  0.1890  0.6838 -0.3131
  350MOL0     C46124   4.964   2.366   9.400  0.6828 -0.4161  0.3697
  350MOL0     C46125   5.052   2.333   9.304  0.1441  1.3474  0.4612
  350MOL0     O46126   5.164   2.403   9.277 -0.7961 -0.1481 -0.0259
  350MOL0     C46127   5.289   2.350   9.331 -0.3843  0.4245 -0.2148
  350MOL0     C46128   5.351   2.226   9.264 -0.4558  0.5102  0.0398
  350MOL0     C46129   5.404   2.268   9.130  1.1645 -0.4771  0.6353
  350MOL0     C46130   5.458   2.169   9.037 -0.8567  0.0179 -0.2587
  350MOL0     C46131   5.352   2.112   8.953  1.3006 -0.5546  0.3590
  350MOL0     C46132   5.268   2.059   8.881 -0.8104 -0.7729 -0.9613
  350MOL0     C46133   5.023   2.216   9.231  0.8410  1.1472  0.0323
  350MOL0     C46134   4.898   2.146   9.261 -0.0580 -0.4027  1.1694
  350MOL0     H46135   4.433   2.196   9.419  1.3150  1.6203 -1.4532
  350MOL0     H46136   4.200   2.130   9.442  0.0343  2.4656 -1.9886
  350MOL0     H46137   4.086   1.729   9.429  0.8993 -1.5023 -0.0242
  350MOL0     H46138   4.028   1.744   9.260 -0.7167 -0.4489  0.3589
  350MOL0     H46139   3.908   1.825   9.533 -1.0079  1.0942 -0.8227
  350MOL0     H46140   3.848   1.694   9.416 -0.8454  1.0188 -1.9742
  350MOL0     H46141   3.802   1.868   9.258 -0.2232  1.6222 -0.6942
  350MOL0     H46142   3.800   1.991   9.383  0.9688  0.1021 -0.9521
  350MOL0     H46143   3.624   1.751   9.374  2.1183 -1.1027 -1.3368
  350MOL0     H46144   3.624   1.872   9.513  1.6957  3.6936 -0.6207
  350MOL0     H46145   3.527   1.902   9.231  1.5149  0.5931 -0.3970
  350MOL0     H46146   3.576   2.039   9.347 -2.0406  1.5164 -2.1539
  350MOL0     H46147   3.350   2.038   9.344  0.2375 -0.8297 -1.6956
  350MOL0     H46148   3.400   1.979   9.500 -1.6141  0.8082 -0.7213
  350MOL0     H46149   3.194   1.883   9.373  0.1541  2.4619  0.7965
  350MOL0     H46150   3.311   1.783   9.282 -0.9545  3.1867 -1.2100
  350MOL0     H46151   3.315   1.773   9.584 -1.4762 -0.9214  0.8772
  350MOL0     H46152   3.406   1.677   9.465 -0.9481 -0.2186  2.1411
  350MOL0     H46153   3.057   1.683   9.641 -1.8568 -0.9993 -0.6791
  350MOL0     H46154   3.019   1.444   9.780 -0.2961  2.5688 -0.3692
  350MOL0     H46155   3.025   1.304   9.683 -0.2277 -0.1249  3.5726
  350MOL0     H46156   2.787   1.341   9.694  1.6239 -0.3025 -1.4918
  350MOL0     H46157   2.823   1.408   9.544 -2.7198 -5.2539  0.3336
  350MOL0     H46158   2.787   1.576   9.781  1.5402 -1.6384 -0.3536
  350MOL0     H46159   2.813   1.636   9.608  1.9795 -1.4073 -1.7075
  350MOL0     H46160   2.584   1.658   9.712  0.2487 -1.0702  4.3351
  350MOL0     H46161   2.579   1.487   9.745  3.0814  0.0529  2.2804
  350MOL0     H46162   2.491   1.503   9.303  2.1804 -2.4981  1.8999
  350MOL0     H46163   2.266   1.545   9.214  2.8377  1.2277 -0.8871
  350MOL0     H46164   1.755   1.541   9.346 -0.4871  0.2632  0.6847
  350MOL0     H46165   1.561   1.614   9.203  0.0894  1.3818 -1.1220
  350MOL0     H46166   1.437   1.990   8.999 -1.0800 -2.7341 -0.6615
  350MOL0     H46167   1.578   2.038   9.072 -0.7814 -0.4049 -2.9549
  350MOL0     H46168   1.422   2.157   9.186 -1.9463  0.0462 -1.5020
  350MOL0     H46169   1.449   2.016   9.301  2.4617 -1.1809 -1.2229
  350MOL0     H46170   1.263   1.909   9.229 -0.4867 -0.3341 -0.5146
  350MOL0     H46171   1.236   2.023   9.105 -0.6330  4.1024  0.8864
  350MOL0     H46172   1.256   2.195   9.334 -0.4401  0.3060 -0.1205
  350MOL0     H46173   1.151   2.189   9.198  0.0858 -0.0366 -0.6187
  350MOL0     H46174   1.038   2.159   9.412 -1.4184 -0.2771 -0.0996
  350MOL0     H46175   1.126   2.003   9.443 -0.0347 -1.9062 -1.3832
  350MOL0     H46176   0.993   1.897   9.257 -1.1877 -0.6354  0.9564
  350MOL0     H46177   0.969   2.052   9.202 -2.0060 -2.5705 -2.6616
  350MOL0     H46178   0.826   2.114   9.399  0.4311 -1.2634  2.2419
  350MOL0     H46179   0.769   2.004   9.272 -1.4142  0.3959 -0.2681
  350MOL0     H46180   0.705   1.934   9.506  0.0849  2.5700  0.0534
  350MOL0     H46181   0.882   1.934   9.535  0.4882  3.2782 -0.3735
  350MOL0     H46182   1.687   2.024   9.250  2.1176  0.7265 -3.0030
  350MOL0     H46183   1.891   1.950   9.372 -1.2372 -0.1634  4.2192
  350MOL0     H46184   2.132   1.631   9.624 -1.3539 -2.3327  0.9354
  350MOL0     H46185   2.357   1.615   9.698  0.0606  1.3478  0.4252
  350MOL0     H46186   4.267   1.789   9.206  0.9041 -0.8771  3.6979
  350MOL0     H46187   4.504   1.848   9.176 -0.0076  2.1738 -3.4326
  350MOL0     H46188   4.779   2.326   9.515 -2.8780  2.7517 -3.1019
  350MOL0     H46189   4.995   2.456   9.451 -1.5843 -0.8495  2.7575
  350MOL0     H46190   5.275   2.333   9.438 -2.3242  2.2418 -0.1077
  350MOL0     H46191   5.360   2.433   9.326 -0.3645  0.3540 -1.3887
  350MOL0     H46192   5.441   2.202   9.320 -0.2587 -0.5753 -0.6930
  350MOL0     H46193   5.277   2.145   9.260 -3.1291  2.7555  0.9691
  350MOL0     H46194   5.480   2.344   9.151 -0.3120  1.4847 -0.7580
  350MOL0     H46195   5.328   2.333   9.085  0.9093 -1.6486 -0.6724
  350MOL0     H46196   5.531   2.217   8.971 -0.1351 -1.0386 -0.2521
  350MOL0     H46197   5.507   2.090   9.094 -3.3544  0.1724  2.2740
  350MOL0     H46198   5.174   2.037   8.834 -1.9016  2.5363 -0.5770
  350MOL0     H46199   5.082   2.167   9.154  1.3762 -0.3136  1.3212
  350MOL0     H46200   4.865   2.064   9.199 -2.8819  1.5218 -0.0643
  351MOL0     O46201   0.134   8.800   9.071  0.1239 -0.6755  0.5969
  351MOL0     C46202   0.166   8.852   8.962  0.4393  0.1182  0.0250
  351MOL0     O46203   0.195   8.988   8.929 -0.3127 -0.5837 -0.1723
  351MOL0     C46204   0.194   9.087   9.025  0.6527 -0.1096 -0.3486
  351MOL0     C46205   0.304   9.162   9.053 -0.0932  0.7538  0.0508
  351MOL0     C46206   0.293   9.261   9.140 -1.1390 -0.5377  0.7507
  351MOL0     C46207   0.181   9.278   9.214  0.3744 -0.1369 -0.5442
  351MOL0     O46208   0.209   9.355   9.322  0.1414 -0.0319  1.2070
  351MOL0     C46209   0.108   9.352   9.425  0.6552 -0.9501  0.3170
  351MOL0     C46210   0.152   9.431   9.558  0.2870  0.0658 -0.7503
  351MOL0     C46211   0.041   9.408   9.658 -0.4067 -0.4267 -0.7740
  351MOL0     C46212   0.096   9.483   9.782 -1.0911  0.3923  0.5214
  351MOL0     C46213  -0.004   9.502   9.893 -0.0330  0.4708 -0.3072
  351MOL0     C46214   0.042   9.557  10.030 -0.6324 -0.0042  0.4826
  351MOL0     C46215  -0.075   9.566  10.129 -0.8128  0.4732  0.3010
  351MOL0     C46216  -0.042   9.585  10.280  0.1789 -0.1106 -0.0815
  351MOL0     N46217   0.013   9.466  10.342 -0.0213 -0.1831 -0.1638
  351MOL0     C46218   0.149   9.435  10.351  0.6102 -0.4482  0.1243
  351MOL0     C46219   0.157   9.314  10.412  0.6361  0.1655 -0.8434
  351MOL0     C46220   0.293   9.247  10.432 -0.3681  0.5974 -0.0212
  351MOL0     C46221   0.279   9.098  10.487  0.6295 -0.0046 -0.5004
  351MOL0     C46222   0.410   9.030  10.444 -1.0845 -0.4986 -0.6545
  351MOL0     C46223   0.402   8.871  10.454 -0.2347 -0.1129 -0.6664
  351MOL0     O46224   0.294   8.820  10.368  0.1250  0.4330  0.5288
  351MOL0     C46225   0.320   8.806  10.232  0.1367 -0.2129 -0.1646
  351MOL0     C46226   0.213   8.745  10.160  0.1326  0.5333  0.8770
  351MOL0     C46227   0.222   8.711  10.029 -0.5407  1.0262  0.1797
  351MOL0     C46228   0.341   8.748   9.957  0.3792 -0.0417  0.7788
  351MOL0     C46229   0.352   8.730   9.810 -0.0089  0.0200 -0.2336
  351MOL0     O46230   0.252   8.659   9.742  0.1827 -0.1652 -0.7319
  351MOL0     C46231   0.280   8.625   9.607  0.1510 -1.2139 -0.1462
  351MOL0     C46232   0.368   8.525   9.563  0.3240  0.9187 -0.7042
  351MOL0     C46233   0.366   8.479   9.423  0.1473  0.3795  0.2064
  351MOL0     C46234   0.273   8.540   9.324 -0.3568  0.3750 -0.3095
  351MOL0     O46235   0.262   8.504   9.186  0.3892 -0.8844  0.7524
  351MOL0     C46236   0.251   8.358   9.180 -0.0649  0.0848 -0.6885
  351MOL0     C46237   0.173   8.335   9.051 -0.1597  1.2832  0.7460
  351MOL0     C46238   0.167   8.182   9.002 -0.6292 -0.1549 -0.8576
  351MOL0     C46239   0.298   8.115   9.016 -0.5871 -1.3177 -0.5962
  351MOL0     C46240   0.288   7.970   8.956 -0.4966 -0.8052  0.2817
  351MOL0     C46241   0.431   7.920   8.971 -0.5453 -0.9346 -0.1210
  351MOL0     C46242   0.429   7.768   8.976  0.1425 -0.2361  0.1212
  351MOL0     C46243   0.562   7.703   8.943  0.8666  0.0661  0.6949
  351MOL0    Cl46244   0.598   7.741   8.764 -0.5771 -0.5752 -0.4754
  351MOL0     C46245   0.192   8.641   9.370  0.1055 -0.7005 -1.1154
  351MOL0     C46246   0.200   8.684   9.506  0.4840 -0.0128 -0.7911
  351MOL0     O46247   0.460   8.767   9.750  0.4161 -0.6239 -0.7409
  351MOL0     C46248   0.438   8.826  10.018  0.0031 -0.3282 -0.1567
  351MOL0     C46249   0.430   8.847  10.153 -0.2606  0.0561  0.3681
  351MOL0     N46250   0.024   9.263  10.437 -0.8698  0.9801 -0.0958
  351MOL0     N46251  -0.060   9.356  10.390 -0.0038 -0.4997 -0.0427
  351MOL0     C46252   0.070   9.199   9.188  0.0250 -0.0908 -0.4686
  351MOL0     C46253   0.069   9.112   9.085 -1.1018  0.8598  0.3446
  351MOL0     C46254   0.142   8.764   8.835 -0.8320  0.4183 -0.4831
  351MOL0     C46255   0.116   8.631   8.847  0.0824  1.3496  0.3363
  351MOL0     C46256   0.087   8.552   8.737  0.1370  0.6110 -0.1083
  351MOL0     C46257   0.087   8.603   8.609  0.0845 -0.0756  0.3734
  351MOL0     O46258   0.053   8.508   8.518  0.4213  0.0675  0.4480
  351MOL0     C46259   0.056   8.552   8.382 -0.2022  0.0170  0.8912
  351MOL0     C46260   0.047   8.427   8.298 -0.3654  0.1020  0.6161
  351MOL0     C46261  -0.054   8.319   8.334 -0.1078 -0.1791  0.2676
  351MOL0     C46262  -0.124   8.277   8.199  0.1979 -0.8095 -0.6073
  351MOL0     C46263  -0.221   8.172   8.229  0.1234 -0.0740  1.4035
  351MOL0     C46264  -0.295   8.084   8.266  1.1399  1.0643 -0.0368
  351MOL0     C46265   0.121   8.745   8.597 -0.5409 -0.1147  0.2357
  351MOL0     C46266   0.162   8.815   8.708  0.2475 -0.9376  0.8737
  351MOL0     H46267   0.394   9.138   8.997  1.1097  4.4090  0.1583
  351MOL0     H46268   0.375   9.331   9.153 -2.5205  0.9783  1.7458
  351MOL0     H46269   0.091   9.249   9.456 -1.6233 -1.6072 -2.6624
  351MOL0     H46270   0.014   9.391   9.384  1.8932 -0.3681 -2.1808
  351MOL0     H46271   0.155   9.538   9.534 -0.6087  0.1453 -0.5499
  351MOL0     H46272   0.252   9.401   9.592  0.0520 -0.6511 -0.6683
  351MOL0     H46273   0.027   9.300   9.670  1.8742 -0.9495 -2.1896
  351MOL0     H46274  -0.046   9.465   9.624 -0.8813 -1.5935 -1.6028
  351MOL0     H46275   0.189   9.439   9.819 -1.3078 -0.9155 -0.4139
  351MOL0     H46276   0.125   9.583   9.747  1.0000 -1.2531 -2.9779
  351MOL0     H46277  -0.032   9.398   9.916  0.9727  0.3749  0.5325
  351MOL0     H46278  -0.092   9.556   9.857 -0.3857  0.7087  0.8995
  351MOL0     H46279   0.086   9.653  10.002 -1.9419  0.9940  1.7458
  351MOL0     H46280   0.122   9.493  10.068  1.9105  1.7611 -1.5342
  351MOL0     H46281  -0.132   9.647  10.083 -1.9450 -1.1566 -1.3125
  351MOL0     H46282  -0.131   9.472  10.131  0.7805 -0.5502 -0.5628
  351MOL0     H46283  -0.133   9.618  10.331 -0.7508 -3.2735  0.4908
  351MOL0     H46284   0.033   9.665  10.287  3.1967 -2.7059 -0.3196
  351MOL0     H46285   0.235   9.490  10.314  0.9778 -0.8087  0.4314
  351MOL0     H46286   0.359   9.314  10.488 -0.4956 -0.3187  1.2586
  351MOL0     H46287   0.340   9.239  10.334 -3.2996  0.4439 -1.5192
  351MOL0     H46288   0.189   9.048  10.450  0.1776 -0.3948  1.0401
  351MOL0     H46289   0.279   9.107  10.596 -3.1054  1.5098 -0.4992
  351MOL0     H46290   0.425   9.054  10.338 -1.5457 -1.3994 -0.9342
  351MOL0     H46291   0.495   9.074  10.498 -2.1754  0.3701  0.3959
  351MOL0     H46292   0.384   8.854  10.560 -1.2189 -0.2237 -0.8362
  351MOL0     H46293   0.504   8.836  10.434  0.8778  2.4188  0.2462
  351MOL0     H46294   0.123   8.717  10.215 -0.1722 -0.8341 -0.2531
  351MOL0     H46295   0.145   8.651   9.979 -1.4161 -0.3434  2.9899
  351MOL0     H46296   0.425   8.477   9.642 -0.7666  4.1315  2.2536
  351MOL0     H46297   0.442   8.409   9.392 -0.0704  1.5927 -3.6153
  351MOL0     H46298   0.190   8.313   9.258 -0.8236 -0.3302 -1.5017
  351MOL0     H46299   0.351   8.314   9.188 -0.4554 -0.4459  3.5472
  351MOL0     H46300   0.227   8.389   8.973  3.8119 -0.1229  2.2289
  351MOL0     H46301   0.070   8.369   9.058 -0.0542  2.5757 -2.5342
  351MOL0     H46302   0.123   8.179   8.902 -3.0640  1.7155  0.0533
  351MOL0     H46303   0.101   8.133   9.074 -0.9848  0.8877 -0.4549
  351MOL0     H46304   0.373   8.167   8.956 -0.1190 -1.9633 -0.5816
  351MOL0     H46305   0.330   8.102   9.120 -0.7185 -2.1034 -0.6471
  351MOL0     H46306   0.247   7.958   8.855  0.6172  2.8116 -0.7626
  351MOL0     H46307   0.220   7.909   9.016  0.4920 -1.1181  1.1134
  351MOL0     H46308   0.478   7.946   9.067 -0.5456  0.7254 -0.5519
  351MOL0     H46309   0.492   7.942   8.883 -1.1524 -0.7489 -0.5030
  351MOL0     H46310   0.397   7.736   9.076 -0.0087 -2.2060 -0.5100
  351MOL0     H46311   0.359   7.724   8.904  1.7736 -0.2379 -1.5339
  351MOL0     H46312   0.563   7.596   8.965 -2.1831  0.2628  2.2429
  351MOL0     H46313   0.645   7.741   9.003  0.5191  0.3247  1.0141
  351MOL0     H46314   0.114   8.676   9.302  0.3759  0.1847 -0.9843
  351MOL0     H46315   0.140   8.772   9.528  1.1320 -0.0072  1.2009
  351MOL0     H46316   0.516   8.882   9.967  2.0549 -0.9293  2.0892
  351MOL0     H46317   0.505   8.912  10.199 -1.1561  2.7568 -1.7148
  351MOL0     H46318  -0.014   9.216   9.255  1.3129  1.4129  0.8363
  351MOL0     H46319  -0.022   9.066   9.050 -0.1299 -1.4590  0.6750
  351MOL0     H46320   0.098   8.589   8.945  4.5109 -0.4899  0.6197
  351MOL0     H46321   0.050   8.455   8.770  1.3584  0.7579  1.8931
  351MOL0     H46322   0.145   8.612   8.360  0.1564 -0.3017  1.4311
  351MOL0     H46323  -0.028   8.621   8.372 -1.0427 -1.0029  0.8581
  351MOL0     H46324   0.040   8.452   8.192 -1.8512 -2.1908  0.0987
  351MOL0     H46325   0.149   8.389   8.310 -0.4029 -0.4641 -0.7171
  351MOL0     H46326  -0.131   8.345   8.408  0.5265  1.5601  0.3666
  351MOL0     H46327  -0.006   8.230   8.376  5.1151  2.9353  1.7935
  351MOL0     H46328  -0.163   8.368   8.153  0.2160  0.7551  2.2602
  351MOL0     H46329  -0.063   8.214   8.133 -2.5328 -3.8927 -0.4683
  351MOL0     H46330  -0.355   8.013   8.321  3.2977  2.4477  4.6331
  351MOL0     H46331   0.123   8.781   8.494 -4.1002 -3.9002 -1.4653
  351MOL0     H46332   0.202   8.915   8.695 -1.4323 -0.1048  1.7643
  352MOL0     O46333   3.229   8.476   2.401 -0.4525 -0.2872  0.0638
  352MOL0     C46334   3.146   8.559   2.437 -0.4403  0.4569 -0.3595
  352MOL0     O46335   3.149   8.688   2.404 -0.1480 -0.3052 -0.3497
  352MOL0     C46336   3.241   8.753   2.319 -0.2148  1.1005  0.3054
  352MOL0     C46337   3.291   8.688   2.205 -0.3852 -0.0470  0.7291
  352MOL0     C46338   3.381   8.761   2.121  0.0030 -0.7473  0.1435
  352MOL0     C46339   3.424   8.898   2.147  0.1037  0.3886  0.2889
  352MOL0     O46340   3.511   8.959   2.065 -0.0288 -1.1026  1.0051
  352MOL0     C46341   3.489   8.936   1.925  0.2706  1.4656  0.1302
  352MOL0     C46342   3.611   8.988   1.854 -0.4819  0.0967  0.6021
  352MOL0     C46343   3.614   9.004   1.706 -0.2287 -0.2029 -0.6289
  352MOL0     C46344   3.541   8.890   1.625  0.9406  0.0977  0.0467
  352MOL0     C46345   3.582   8.889   1.477 -0.8593 -0.3537  0.3139
  352MOL0     C46346   3.520   9.004   1.399 -0.4408 -0.6639  0.6170
  352MOL0     C46347   3.516   8.988   1.251 -0.1833  0.9034  0.3720
  352MOL0     C46348   3.404   8.903   1.199 -0.4596 -0.7487 -0.8538
  352MOL0     N46349   3.409   8.876   1.055 -0.0034 -0.4268 -0.0975
  352MOL0     C46350   3.480   8.781   0.990 -0.5892 -0.2031  0.3793
  352MOL0     C46351   3.459   8.793   0.857 -1.2627 -0.4829 -0.2878
  352MOL0     C46352   3.498   8.700   0.739 -0.5607 -0.5563 -0.2260
  352MOL0     C46353   3.637   8.746   0.680  0.3386  0.4463 -0.3168
  352MOL0     C46354   3.631   8.716   0.531  1.0423 -0.2128  0.2957
  352MOL0     C46355   3.769   8.752   0.466 -0.0824 -0.0738 -0.6286
  352MOL0     O46356   3.749   8.787   0.329 -0.1143 -0.6130 -0.0270
  352MOL0     C46357   3.858   8.817   0.252 -0.8281 -0.3572 -0.9127
  352MOL0     C46358   3.841   8.805   0.112  0.1200  0.2164 -0.5404
  352MOL0     C46359   3.942   8.832   0.026  0.0501 -0.3925  0.2688
  352MOL0     C46360   4.062   8.896   0.055 -1.2593  0.6094  0.1349
  352MOL0     C46361   4.175   8.929  -0.039 -0.6098  0.0742  0.1040
  352MOL0     O46362   4.138   8.949  -0.169 -0.4267  0.4390  0.3214
  352MOL0     C46363   4.232   9.007  -0.249  0.4603 -0.2902  0.0429
  352MOL0     C46364   4.290   8.921  -0.343 -0.0994  0.0737  0.2220
  352MOL0     C46365   4.383   8.961  -0.431 -0.0550  0.0746  0.6432
  352MOL0     C46366   4.430   9.091  -0.437  0.5260  0.2138 -0.5960
  352MOL0     O46367   4.536   9.129  -0.516 -0.3916  0.1176 -0.4909
  352MOL0     C46368   4.662   9.137  -0.443  0.3913  0.1578  0.9220
  352MOL0     C46369   4.765   9.166  -0.542  0.5386 -0.0002 -0.1704
  352MOL0     C46370   4.804   9.051  -0.632 -0.1444  0.5926  0.0570
  352MOL0     C46371   4.871   8.937  -0.565 -0.6688 -0.1113  1.0779
  352MOL0     C46372   4.941   8.839  -0.654  0.9628 -0.6754  0.4619
  352MOL0     C46373   4.844   8.753  -0.745  0.0876 -0.7544 -0.8100
  352MOL0     C46374   4.934   8.639  -0.805  0.3754 -0.5165  0.8496
  352MOL0     C46375   4.845   8.537  -0.883 -0.9015  0.4755  0.0223
  352MOL0    Cl46376   4.740   8.428  -0.777 -0.1041 -0.2917  0.0760
  352MOL0     C46377   4.373   9.185  -0.348 -0.1241  0.4793 -0.5017
  352MOL0     C46378   4.283   9.140  -0.248  0.5389  0.0322 -0.9300
  352MOL0     O46379   4.291   8.939   0.001 -0.3943  0.6046  0.2603
  352MOL0     C46380   4.066   8.930   0.196  0.4718 -0.1481  0.4166
  352MOL0     C46381   3.977   8.885   0.292 -0.7765 -0.0540  0.0811
  352MOL0     N46382   3.365   8.901   0.837  0.1188 -0.4766 -0.1248
  352MOL0     N46383   3.341   8.948   0.958  0.2272  0.1217  0.4592
  352MOL0     C46384   3.351   8.958   2.258  0.0371 -0.1678  0.5186
  352MOL0     C46385   3.262   8.887   2.341 -0.3878 -0.5126 -0.4245
  352MOL0     C46386   3.027   8.520   2.520  0.1130  1.1688  0.0246
  352MOL0     C46387   2.990   8.385   2.549  0.5829 -0.4303 -0.5007
  352MOL0     C46388   2.886   8.353   2.637 -0.4365  0.1297 -0.0605
  352MOL0     C46389   2.808   8.450   2.696 -0.5869  1.1611 -0.5946
  352MOL0     O46390   2.706   8.413   2.786  0.3625 -0.5295 -0.4239
  352MOL0     C46391   2.604   8.328   2.733  0.1185  0.4625 -0.1385
  352MOL0     C46392   2.459   8.404   2.739  0.3748  0.4229 -0.8277
  352MOL0     C46393   2.413   8.431   2.888  0.5753  0.4994  1.1857
  352MOL0     C46394   2.271   8.501   2.888 -0.9679  0.2804 -0.0352
  352MOL0     C46395   2.277   8.620   2.804 -0.7769 -0.2447  0.2101
  352MOL0     C46396   2.295   8.718   2.733  0.3798 -0.3272  0.1045
  352MOL0     C46397   2.822   8.583   2.652  0.5054 -0.0491  0.1906
  352MOL0     C46398   2.933   8.618   2.567 -1.2421  0.1107 -0.8726
  352MOL0     H46399   3.261   8.587   2.178 -0.1773  0.0955 -0.0544
  352MOL0     H46400   3.431   8.696   2.050 -0.2936 -3.8363  2.5561
  352MOL0     H46401   3.412   9.004   1.888  0.8601  2.2188  0.2421
  352MOL0     H46402   3.470   8.836   1.885  1.2935  2.3541 -2.8369
  352MOL0     H46403   3.699   8.926   1.876 -0.8377 -0.0587  1.6731
  352MOL0     H46404   3.632   9.086   1.899  0.4647  1.3726 -2.3883
  352MOL0     H46405   3.718   9.013   1.674 -0.6241 -1.5387 -2.4547
  352MOL0     H46406   3.551   9.092   1.692 -2.9068 -1.6082  1.5419
  352MOL0     H46407   3.568   8.794   1.668  1.7545  0.2237 -0.1643
  352MOL0     H46408   3.433   8.900   1.637  1.1293  0.4336  1.6374
  352MOL0     H46409   3.551   8.790   1.445  2.3885 -1.7980  1.2606
  352MOL0     H46410   3.691   8.896   1.471 -0.8065  2.1871  2.3059
  352MOL0     H46411   3.582   9.092   1.422  1.7324 -2.0729  0.4892
  352MOL0     H46412   3.420   9.008   1.441  0.1429 -1.4658  2.1647
  352MOL0     H46413   3.500   9.085   1.203  1.0028  0.0922 -1.8076
  352MOL0     H46414   3.608   8.952   1.203 -1.2869  0.7984 -1.8001
  352MOL0     H46415   3.311   8.941   1.240 -1.0962 -1.4471 -1.6193
  352MOL0     H46416   3.419   8.809   1.253  2.1975  0.1972  0.2484
  352MOL0     H46417   3.542   8.704   1.034  0.3912  0.2747 -0.1390
  352MOL0     H46418   3.420   8.694   0.662 -0.4218  0.3261 -0.4411
  352MOL0     H46419   3.514   8.597   0.772  0.1980  0.8980  4.8305
  352MOL0     H46420   3.708   8.673   0.720  0.3392 -0.6577 -2.1934
  352MOL0     H46421   3.670   8.847   0.705  0.6693  0.7181 -1.7543
  352MOL0     H46422   3.606   8.611   0.520 -3.3353  0.6712  0.0985
  352MOL0     H46423   3.549   8.763   0.475  0.9406 -1.0227 -0.2447
  352MOL0     H46424   3.822   8.656   0.465 -0.6974 -0.4479 -3.1284
  352MOL0     H46425   3.826   8.825   0.526 -0.8437 -1.4276  1.9029
  352MOL0     H46426   3.757   8.752   0.068  0.4519 -0.3958 -0.4587
  352MOL0     H46427   3.918   8.813  -0.078  0.5210 -2.0290  0.4193
  352MOL0     H46428   4.274   8.814  -0.334  2.9990 -0.4936  0.2778
  352MOL0     H46429   4.436   8.883  -0.486 -0.6092 -0.8298  1.3690
  352MOL0     H46430   4.687   9.047  -0.387 -1.6006 -0.3498  1.0910
  352MOL0     H46431   4.660   9.226  -0.380 -3.3140  0.6813  0.3005
  352MOL0     H46432   4.857   9.201  -0.494 -0.0485  0.5865  0.5486
  352MOL0     H46433   4.732   9.252  -0.601  1.2692 -0.1193 -0.7807
  352MOL0     H46434   4.878   9.095  -0.700 -0.3782 -0.0884 -0.6544
  352MOL0     H46435   4.721   9.023  -0.697 -0.5582  3.0732 -0.6162
  352MOL0     H46436   4.941   8.998  -0.508 -0.5173 -0.2889  1.0852
  352MOL0     H46437   4.810   8.876  -0.497 -1.8123 -1.4663 -1.0363
  352MOL0     H46438   4.991   8.774  -0.581  0.5636 -0.6311  0.7758
  352MOL0     H46439   5.016   8.886  -0.719  1.8794 -1.5148  0.8786
  352MOL0     H46440   4.796   8.810  -0.825 -0.8998  2.3823  1.7895
  352MOL0     H46441   4.759   8.712  -0.691  1.4308 -2.2474  0.2507
  352MOL0     H46442   5.011   8.677  -0.872 -0.6753 -1.4394 -0.9598
  352MOL0     H46443   4.976   8.591  -0.716 -1.7781 -0.5502  1.9263
  352MOL0     H46444   4.916   8.481  -0.946  0.8853  1.5117  1.0353
  352MOL0     H46445   4.779   8.595  -0.948  0.5952  1.4845 -0.6515
  352MOL0     H46446   4.427   9.279  -0.343  1.0942 -0.2613  1.3411
  352MOL0     H46447   4.229   9.206  -0.181 -0.4034 -1.4024 -0.2150
  352MOL0     H46448   4.151   8.993   0.221 -0.0183  0.7932 -0.2606
  352MOL0     H46449   3.999   8.907   0.396 -1.9435 -1.7725  0.7403
  352MOL0     H46450   3.381   9.060   2.279 -2.0179  0.8834 -1.2169
  352MOL0     H46451   3.232   8.936   2.433 -1.9532 -0.5051 -0.9148
  352MOL0     H46452   3.049   8.308   2.500  0.4466 -0.4113 -0.6959
  352MOL0     H46453   2.865   8.248   2.654  4.0965 -0.7369  1.4034
  352MOL0     H46454   2.614   8.239   2.795 -3.2218  0.7236  0.9641
  352MOL0     H46455   2.602   8.302   2.627 -1.1717  2.2813 -0.6028
  352MOL0     H46456   2.468   8.492   2.675  1.1720 -1.0078 -2.8011
  352MOL0     H46457   2.384   8.343   2.688 -0.1198 -1.0366  1.4624
  352MOL0     H46458   2.477   8.508   2.931  2.4526 -0.2358 -0.1423
  352MOL0     H46459   2.411   8.338   2.945  0.1009 -0.3771 -0.2182
  352MOL0     H46460   2.206   8.420   2.852 -1.4977 -0.6168  2.6974
  352MOL0     H46461   2.238   8.533   2.987  0.7478  2.0649  0.0187
  352MOL0     H46462   2.311   8.814   2.686 -1.0066  0.2449  0.7431
  352MOL0     H46463   2.752   8.661   2.680  1.6298  1.0524  0.0725
  352MOL0     H46464   2.967   8.719   2.553  2.9357 -0.9503  0.3347
  353MOL0     O46465   7.860   7.640  11.200  0.9099 -0.3252  1.1896
  353MOL0     C46466   7.783   7.545  11.159 -0.2118  0.9972 -0.9873
  353MOL0     O46467   7.680   7.551  11.067  0.4140  0.3529  0.1235
  353MOL0     C46468   7.624   7.667  11.030  1.0729  0.2680 -0.2626
  353MOL0     C46469   7.509   7.646  10.949  0.1112  0.5744  0.5323
  353MOL0     C46470   7.426   7.751  10.910  0.0898 -0.6378 -0.2638
  353MOL0     C46471   7.463   7.887  10.954 -0.2638 -0.4375  0.6386
  353MOL0     O46472   7.401   8.001  10.904  1.2855  0.5856 -0.4939
  353MOL0     C46473   7.327   7.980  10.781 -0.3792  0.2718 -0.6794
  353MOL0     C46474   7.258   8.107  10.744 -0.7551  0.2151  0.2045
  353MOL0     C46475   7.176   8.194  10.851  0.2666  0.2443  1.1787
  353MOL0     C46476   7.045   8.118  10.894 -1.0212 -1.5352 -0.0913
  353MOL0     C46477   6.965   8.184  11.005 -0.1055  0.1951  0.0990
  353MOL0     C46478   6.857   8.092  11.056 -0.0530  0.3801 -0.2862
  353MOL0     C46479   6.829   8.132  11.205  0.3960  0.5387  0.0561
  353MOL0     C46480   6.779   7.992  11.266 -0.5727 -0.0455 -0.9665
  353MOL0     N46481   6.772   7.999  11.416 -0.3201  0.0140 -0.3648
  353MOL0     C46482   6.657   8.053  11.482 -0.5506 -0.0459  0.3253
  353MOL0     C46483   6.670   8.000  11.610 -0.1039  0.2996  0.0862
  353MOL0     C46484   6.577   8.023  11.714 -0.3356  0.4036 -0.8537
  353MOL0     C46485   6.633   8.065  11.854 -0.3505 -0.0706  1.4277
  353MOL0     C46486   6.529   8.054  11.965 -0.3711 -0.0590  0.5653
  353MOL0     C46487   6.401   8.139  11.949 -0.3127  0.0881  0.8632
  353MOL0     O46488   6.308   8.137  12.060  0.5003 -0.0163  0.5673
  353MOL0     C46489   6.199   8.220  12.050 -0.6314  0.1170 -0.1903
  353MOL0     C46490   6.115   8.226  12.161 -0.7163 -0.3265 -1.1061
  353MOL0     C46491   5.992   8.297  12.149 -0.0813  0.2506 -0.0618
  353MOL0     C46492   5.952   8.362  12.036 -0.8811  0.4825  0.8531
  353MOL0     C46493   5.832   8.442  12.028  0.9680  0.5558 -0.4383
  353MOL0     O46494   5.753   8.431  12.141 -0.3387 -0.7782 -0.2067
  353MOL0     C46495   5.638   8.496  12.147  0.4176  0.3462 -0.8495
  353MOL0     C46496   5.632   8.631  12.170 -0.4230  1.6982 -0.8721
  353MOL0     C46497   5.512   8.699  12.167  0.3249  0.7940 -0.1747
  353MOL0     C46498   5.395   8.635  12.130  0.4900 -0.5461 -0.1427
  353MOL0     O46499   5.280   8.715  12.112 -0.4156  0.0373  0.0107
  353MOL0     C46500   5.148   8.654  12.116 -0.0990  0.6398 -0.4779
  353MOL0     C46501   5.053   8.774  12.113  0.4663 -0.3016 -0.5998
  353MOL0     C46502   4.908   8.742  12.063  0.0468  0.5165 -0.7379
  353MOL0     C46503   4.852   8.624  12.158  0.2111 -1.1277  0.6923
  353MOL0     C46504   4.699   8.629  12.165  1.0907 -0.1531  0.2756
  353MOL0     C46505   4.630   8.521  12.245  0.9139 -0.9423 -0.0797
  353MOL0     C46506   4.476   8.537  12.237 -0.5566  0.4317  0.6289
  353MOL0     C46507   4.404   8.423  12.314 -0.0524  0.2138  0.5174
  353MOL0    Cl46508   4.419   8.261  12.257  0.1294 -0.3148 -0.3656
  353MOL0     C46509   5.402   8.497  12.099 -0.4474  0.3018 -0.2921
  353MOL0     C46510   5.525   8.430  12.094 -0.2854  0.2474  0.6161
  353MOL0     O46511   5.806   8.509  11.930  0.8258 -0.6456  0.6252
  353MOL0     C46512   6.039   8.341  11.920  1.4615 -0.5729 -0.4642
  353MOL0     C46513   6.158   8.279  11.928  0.4026 -0.1694  0.5870
  353MOL0     N46514   6.787   7.930  11.616 -1.2685 -0.3088 -0.5940
  353MOL0     N46515   6.837   7.919  11.501 -0.1612 -0.8600  1.0263
  353MOL0     C46516   7.576   7.906  11.032 -0.3460  0.2187 -0.5114
  353MOL0     C46517   7.657   7.797  11.066 -0.2167 -0.5313 -1.0640
  353MOL0     C46518   7.830   7.411  11.211  0.2354  0.2929  0.0384
  353MOL0     C46519   7.769   7.302  11.156  0.1014 -0.3321  0.2966
  353MOL0     C46520   7.806   7.174  11.200 -0.8007  0.6856  0.0170
  353MOL0     C46521   7.911   7.159  11.292 -0.4615  0.1274 -0.0634
  353MOL0     O46522   7.960   7.040  11.326  0.5279  0.1017  0.0328
  353MOL0     C46523   8.015   6.947  11.232  0.2341 -0.0473  1.0238
  353MOL0     C46524   8.049   6.822  11.309  0.3101  0.0198 -1.2731
  353MOL0     C46525   8.185   6.764  11.256  0.7364 -0.0399  0.9400
  353MOL0     C46526   8.203   6.753  11.102  0.5080 -0.5418 -0.0061
  353MOL0     C46527   8.102   6.691  11.023  0.2498  1.7033 -0.2848
  353MOL0     C46528   8.009   6.624  10.974 -0.5224  0.2220  0.0494
  353MOL0     C46529   7.974   7.271  11.343  0.4239 -0.6772  0.4600
  353MOL0     C46530   7.938   7.397  11.304 -0.5721  0.4205  0.6654
  353MOL0     H46531   7.489   7.540  10.940  2.0225  0.3705 -3.4516
  353MOL0     H46532   7.342   7.722  10.848 -0.1600  1.1824 -0.8356
  353MOL0     H46533   7.257   7.896  10.784  0.0744 -0.1461 -1.3169
  353MOL0     H46534   7.397   7.941  10.706 -0.0168  1.1026 -0.7865
  353MOL0     H46535   7.185   8.082  10.666  2.0791 -0.5422 -2.3784
  353MOL0     H46536   7.336   8.166  10.694  0.2947 -2.4674 -1.5364
  353MOL0     H46537   7.152   8.283  10.792 -0.6248  0.8832  2.4391
  353MOL0     H46538   7.239   8.210  10.939 -0.1181  0.9682  1.3301
  353MOL0     H46539   6.976   8.103  10.811 -0.2679 -1.1786 -0.7993
  353MOL0     H46540   7.092   8.026  10.928  0.6235  0.2376  2.8905
  353MOL0     H46541   6.913   8.274  10.971  0.7022  2.2206  3.7116
  353MOL0     H46542   7.032   8.216  11.085  0.0761  1.2227 -0.4535
  353MOL0     H46543   6.899   7.992  11.046 -2.7688 -0.6877 -2.1091
  353MOL0     H46544   6.766   8.092  10.995 -0.0758 -0.5575 -0.2671
  353MOL0     H46545   6.917   8.175  11.255  0.5042  0.5682 -0.1576
  353MOL0     H46546   6.765   8.220  11.211 -1.4480 -0.7874  0.6773
  353MOL0     H46547   6.849   7.911  11.245 -0.3480  0.1630 -1.0199
  353MOL0     H46548   6.678   7.962  11.238 -0.5952 -2.9498  1.6860
  353MOL0     H46549   6.575   8.105  11.433 -0.7911 -0.3310  0.4164
  353MOL0     H46550   6.545   7.920  11.726  4.1713 -0.9729  2.3266
  353MOL0     H46551   6.495   8.091  11.689 -1.1127  0.5684  1.8798
  353MOL0     H46552   6.663   8.171  11.851 -0.8903  0.0938 -2.2769
  353MOL0     H46553   6.727   8.015  11.877  0.3543  0.0275 -1.0017
  353MOL0     H46554   6.501   7.949  11.980 -2.7756  0.4471 -0.0049
  353MOL0     H46555   6.578   8.085  12.058  1.6499  0.8262 -0.7533
  353MOL0     H46556   6.343   8.104  11.863 -1.0940  1.1317  0.9462
  353MOL0     H46557   6.438   8.240  11.932  3.2222 -1.3838 -1.2819
  353MOL0     H46558   6.146   8.187  12.258 -1.1593  0.7582 -0.5107
  353MOL0     H46559   5.932   8.294  12.240 -0.1755  2.2440 -0.0177
  353MOL0     H46560   5.715   8.690  12.208  0.8671 -1.1551  1.0977
  353MOL0     H46561   5.504   8.806  12.184  1.7981  0.9643 -0.4434
  353MOL0     H46562   5.143   8.607  12.215 -0.1478  0.7640 -0.4210
  353MOL0     H46563   5.125   8.585  12.034  0.8864 -0.6205  0.2660
  353MOL0     H46564   5.071   8.853  12.039  0.1126  0.6978  0.3502
  353MOL0     H46565   5.039   8.807  12.217 -1.1005 -0.7105 -0.6581
  353MOL0     H46566   4.907   8.707  11.959  0.1713 -0.4402 -0.4216
  353MOL0     H46567   4.853   8.836  12.068  0.8570  1.0691 -1.6794
  353MOL0     H46568   4.878   8.524  12.120 -0.9889 -0.4796 -2.1438
  353MOL0     H46569   4.885   8.638  12.261 -2.0093 -1.0313  1.4382
  353MOL0     H46570   4.662   8.630  12.061 -3.9187 -3.6129  1.6346
  353MOL0     H46571   4.660   8.721  12.210 -2.4415 -2.0868  1.5565
  353MOL0     H46572   4.658   8.542  12.349 -1.3771  0.6280  0.3060
  353MOL0     H46573   4.661   8.423  12.208  2.9793 -0.8064  1.1431
  353MOL0     H46574   4.456   8.635  12.281 -0.8213  1.1488 -1.0404
  353MOL0     H46575   4.433   8.551  12.138  0.0627 -1.3642  0.0633
  353MOL0     H46576   4.299   8.455  12.308 -0.0188  0.0281 -1.6553
  353MOL0     H46577   4.434   8.433  12.419  2.8914 -1.2395 -0.0715
  353MOL0     H46578   5.319   8.438  12.060 -1.1398  0.6905  0.5611
  353MOL0     H46579   5.523   8.325  12.067 -2.5480  0.2836  0.3996
  353MOL0     H46580   6.018   8.399  11.830 -0.6534 -3.2809 -1.8909
  353MOL0     H46581   6.219   8.280  11.838  2.7997  1.6265  2.1261
  353MOL0     H46582   7.616   8.003  11.055  0.2163 -0.4830  1.6444
  353MOL0     H46583   7.742   7.833  11.123 -0.9465  1.3281 -1.0883
  353MOL0     H46584   7.698   7.310  11.074  1.5124 -0.1604 -0.9654
  353MOL0     H46585   7.750   7.089  11.163 -0.6229  0.2055  0.8243
  353MOL0     H46586   8.099   7.002  11.189 -1.0733  0.2707 -1.3087
  353MOL0     H46587   7.950   6.922  11.148 -0.1470  4.3488 -0.2734
  353MOL0     H46588   8.060   6.826  11.418 -1.8818  1.2907 -1.0572
  353MOL0     H46589   7.968   6.749  11.302  0.3332 -0.1678  0.1492
  353MOL0     H46590   8.191   6.664  11.300 -0.3226 -0.0251  1.1516
  353MOL0     H46591   8.260   6.836  11.291 -2.6848  2.5055  3.8503
  353MOL0     H46592   8.210   6.854  11.060  1.4844 -0.3502  0.5887
  353MOL0     H46593   8.298   6.704  11.083 -0.4996 -3.8217  2.4543
  353MOL0     H46594   7.945   6.558  10.920  3.3100 -1.5456 -2.8497
  353MOL0     H46595   8.063   7.242  11.397 -0.9026 -2.6208  1.7512
  353MOL0     H46596   8.009   7.476  11.321  1.1012 -0.9830  0.4560
  354MOL0     O46597  10.192   0.078   3.566 -0.3558 -0.6784  0.5767
  354MOL0     C46598  10.104   0.135   3.630  1.1792  0.1798 -0.2217
  354MOL0     O46599  10.116   0.265   3.675  0.4438  0.2026 -0.0988
  354MOL0     C46600  10.232   0.330   3.663  0.4438  0.4039  0.5970
  354MOL0     C46601  10.352   0.287   3.713  0.0402 -0.3108  0.4324
  354MOL0     C46602  10.463   0.372   3.699  0.8047 -0.3736  0.3825
  354MOL0     C46603  10.465   0.492   3.619  0.3521  0.4874  0.1734
  354MOL0     O46604  10.575   0.564   3.585  0.3963  0.6476 -0.0253
  354MOL0     C46605  10.700   0.503   3.612 -0.1068  0.0412 -0.6291
  354MOL0     C46606  10.808   0.601   3.566  0.5419  0.3155  1.0022
  354MOL0     C46607  10.946   0.534   3.528  0.1875 -0.1559 -0.0091
  354MOL0     C46608  11.053   0.633   3.470  0.3528 -0.2448  0.2898
  354MOL0     C46609  11.171   0.579   3.409  0.6213 -0.5411 -0.8577
  354MOL0     C46610  11.252   0.670   3.325  0.8174 -0.6519 -0.2635
  354MOL0     C46611  11.194   0.697   3.195  0.5382 -0.1350 -0.1867
  354MOL0     C46612  11.280   0.788   3.107 -0.4041 -0.4447 -0.1104
  354MOL0     N46613  11.277   0.766   2.961  0.4159  0.4641  0.3541
  354MOL0     C46614  11.177   0.818   2.885 -0.0922 -0.4729  1.2655
  354MOL0     C46615  11.187   0.748   2.757 -0.5925 -1.2853  0.0883
  354MOL0     C46616  11.109   0.754   2.637  0.4327  0.5854  0.9435
  354MOL0     C46617  11.072   0.612   2.597  1.2889  0.0833  0.8039
  354MOL0     C46618  10.965   0.615   2.475  1.1477 -0.0529 -0.3350
  354MOL0     C46619  10.938   0.470   2.422 -0.4271  0.8163  1.7257
  354MOL0     O46620  10.859   0.388   2.504 -0.1879  0.4144 -0.6346
  354MOL0     C46621  10.828   0.257   2.470 -0.2284 -0.1984  1.2157
  354MOL0     C46622  10.856   0.206   2.348 -0.3270  0.5693 -0.4279
  354MOL0     C46623  10.828   0.068   2.316 -0.5827 -0.3024 -0.7072
  354MOL0     C46624  10.765  -0.009   2.420  0.7962  0.4162  0.2733
  354MOL0     C46625  10.731  -0.146   2.386 -1.2084 -0.1216 -0.0916
  354MOL0     O46626  10.637  -0.205   2.463  0.5461  0.2257 -0.0828
  354MOL0     C46627  10.606  -0.338   2.453 -0.0157  0.0920  0.5721
  354MOL0     C46628  10.503  -0.356   2.371  0.0041  0.1494 -1.4873
  354MOL0     C46629  10.475  -0.480   2.308  0.0739 -0.4888 -0.4594
  354MOL0     C46630  10.548  -0.597   2.354  0.0169  0.5320 -0.0146
  354MOL0     O46631  10.516  -0.717   2.294 -0.1729  0.6500  0.4357
  354MOL0     C46632  10.547  -0.838   2.366 -0.3424 -0.3169 -0.1683
  354MOL0     C46633  10.669  -0.903   2.300 -0.1708  0.9291 -0.2023
  354MOL0     C46634  10.689  -1.054   2.338  0.3245 -0.0840 -0.7617
  354MOL0     C46635  10.815  -1.105   2.284 -0.2827 -0.5326 -0.0891
  354MOL0     C46636  10.838  -1.255   2.318 -0.9129 -0.6237 -0.1106
  354MOL0     C46637  10.858  -1.276   2.471  0.5775 -0.5140  0.0122
  354MOL0     C46638  10.914  -1.409   2.510 -0.7008  0.2960  0.1467
  354MOL0     C46639  10.864  -1.532   2.427  0.3400 -0.1751 -0.3712
  354MOL0    Cl46640  10.904  -1.678   2.525 -0.2904  0.0676  0.2643
  354MOL0     C46641  10.664  -0.583   2.435 -0.3676 -1.1249 -0.1488
  354MOL0     C46642  10.691  -0.450   2.474 -0.4882  0.2280 -0.9834
  354MOL0     O46643  10.792  -0.200   2.297 -0.4124 -0.2117  0.0642
  354MOL0     C46644  10.724   0.051   2.550 -0.2331  0.9442  0.8862
  354MOL0     C46645  10.760   0.177   2.569 -1.1392 -1.2283 -0.2876
  354MOL0     N46646  11.307   0.692   2.763 -0.5277  0.5020  0.3565
  354MOL0     N46647  11.367   0.700   2.880  0.5313  0.6849 -0.1334
  354MOL0     C46648  10.344   0.532   3.564  0.2907  0.1417 -0.3085
  354MOL0     C46649  10.231   0.446   3.588 -1.3016  0.5174 -0.0727
  354MOL0     C46650   9.986   0.050   3.657  0.8966  1.1821  0.2979
  354MOL0     C46651   9.943  -0.059   3.575 -0.0849 -1.2253  0.2866
  354MOL0     C46652   9.820  -0.130   3.607  0.1005 -0.5939  0.2740
  354MOL0     C46653   9.746  -0.092   3.717  0.5539 -0.0177  0.2944
  354MOL0     O46654   9.641  -0.179   3.754 -0.1296  0.0243  0.1276
  354MOL0     C46655   9.573  -0.151   3.878  0.0754  0.5878  0.8933
  354MOL0     C46656   9.459  -0.052   3.855  0.8689  0.7459 -0.2373
  354MOL0     C46657   9.340  -0.069   3.963 -0.5525 -0.6067  0.7088
  354MOL0     C46658   9.232   0.028   3.944 -0.2117 -0.3021 -0.5912
  354MOL0     C46659   9.142  -0.025   3.838 -0.1590  0.3103  0.0907
  354MOL0     C46660   9.071  -0.072   3.749 -0.0185  0.3147  0.4965
  354MOL0     C46661   9.793   0.009   3.801  0.2418 -0.0713  0.6671
  354MOL0     C46662   9.904   0.086   3.767 -0.0491 -0.4801  0.6267
  354MOL0     H46663  10.374   0.187   3.751  1.6818 -0.8735 -1.8095
  354MOL0     H46664  10.549   0.332   3.752  2.5765  2.0000 -0.4793
  354MOL0     H46665  10.709   0.413   3.551 -1.8914  1.1117 -2.5952
  354MOL0     H46666  10.711   0.489   3.720  0.7228 -0.4677 -0.7781
  354MOL0     H46667  10.821   0.665   3.653 -2.0035  2.8444 -0.3390
  354MOL0     H46668  10.782   0.663   3.480  2.9673  1.7992  1.2243
  354MOL0     H46669  10.925   0.453   3.457 -0.0557 -1.7743  1.8037
  354MOL0     H46670  10.991   0.489   3.617  3.9009  1.2582 -0.9631
  354MOL0     H46671  11.011   0.694   3.390  0.0685 -0.2862  0.4076
  354MOL0     H46672  11.094   0.701   3.546  1.5149 -0.3892 -0.1912
  354MOL0     H46673  11.137   0.503   3.339  1.6990 -1.6593 -0.2149
  354MOL0     H46674  11.245   0.541   3.481  3.2658  0.2825 -2.9546
  354MOL0     H46675  11.346   0.620   3.298  1.3972 -0.5555  1.4449
  354MOL0     H46676  11.272   0.764   3.378 -1.0917 -0.5336  0.3151
  354MOL0     H46677  11.186   0.596   3.154 -6.5636 -1.7117  3.5310
  354MOL0     H46678  11.096   0.744   3.203  0.1940 -0.8505 -0.1224
  354MOL0     H46679  11.381   0.775   3.146 -0.4636  5.0235  2.8387
  354MOL0     H46680  11.259   0.894   3.125 -0.7406 -0.2306 -1.5950
  354MOL0     H46681  11.099   0.882   2.926  0.9425  0.1901  2.2868
  354MOL0     H46682  11.167   0.794   2.553 -0.2525 -1.6082 -0.6593
  354MOL0     H46683  11.026   0.824   2.652 -0.4076 -0.1995  0.1423
  354MOL0     H46684  11.033   0.554   2.681 -4.6617  0.6273 -1.1642
  354MOL0     H46685  11.161   0.561   2.558  1.4317  0.6624  0.3531
  354MOL0     H46686  10.871   0.659   2.508 -1.2482 -3.0674 -2.4720
  354MOL0     H46687  11.012   0.673   2.394  1.2155  3.4941  2.0242
  354MOL0     H46688  11.026   0.412   2.390  0.1020  2.5988 -0.2745
  354MOL0     H46689  10.873   0.475   2.335  2.7584  1.9750 -0.7972
  354MOL0     H46690  10.898   0.267   2.269  1.0162 -1.6773 -1.5456
  354MOL0     H46691  10.858   0.031   2.219  0.7144 -0.2283 -0.3577
  354MOL0     H46692  10.436  -0.276   2.340 -0.1571 -1.1954 -4.9562
  354MOL0     H46693  10.395  -0.479   2.235  0.4528  0.9337 -0.8917
  354MOL0     H46694  10.461  -0.904   2.358 -1.0527  0.5460  0.1526
  354MOL0     H46695  10.570  -0.816   2.471  0.0568 -4.8291  0.8857
  354MOL0     H46696  10.757  -0.840   2.315  1.4358 -0.8816 -1.5319
  354MOL0     H46697  10.651  -0.905   2.192 -0.1546 -0.0330 -0.1958
  354MOL0     H46698  10.610  -1.125   2.311 -0.8175  0.8963 -0.1590
  354MOL0     H46699  10.700  -1.049   2.447 -0.5667  1.1735 -0.7116
  354MOL0     H46700  10.811  -1.087   2.176 -2.3311 -1.7161 -0.2684
  354MOL0     H46701  10.895  -1.045   2.329  0.5388 -0.3035 -1.7729
  354MOL0     H46702  10.942  -1.273   2.289 -0.1479  1.0670  1.3611
  354MOL0     H46703  10.766  -1.327   2.278  1.9382 -4.3205  0.8037
  354MOL0     H46704  10.760  -1.290   2.518  1.3707 -1.4520  1.4519
  354MOL0     H46705  10.923  -1.201   2.517 -0.0378 -1.1877  2.1126
  354MOL0     H46706  11.023  -1.401   2.502 -0.7151  0.3491  0.0073
  354MOL0     H46707  10.892  -1.423   2.616  0.0211  2.3723  0.6173
  354MOL0     H46708  10.924  -1.545   2.336 -1.2546  0.7335 -1.6132
  354MOL0     H46709  10.758  -1.537   2.401  0.8925 -3.9367 -2.7684
  354MOL0     H46710  10.725  -0.670   2.456  0.3739 -0.3439  1.0251
  354MOL0     H46711  10.775  -0.423   2.537 -1.9577  1.1186  0.7031
  354MOL0     H46712  10.671  -0.017   2.616 -2.8597 -0.2784 -2.1936
  354MOL0     H46713  10.725   0.220   2.663  0.7824 -1.1310  0.4484
  354MOL0     H46714  10.339   0.621   3.502 -1.1471  0.4578  0.2381
  354MOL0     H46715  10.145   0.488   3.538 -1.4019 -1.2713 -1.4966
  354MOL0     H46716  10.007  -0.086   3.491 -2.2559  1.8961 -2.6410
  354MOL0     H46717   9.781  -0.214   3.550 -2.1185 -0.2188  1.1257
  354MOL0     H46718   9.638  -0.116   3.959 -0.3801  3.1779  0.2439
  354MOL0     H46719   9.530  -0.250   3.893  1.9418 -0.3062  0.6102
  354MOL0     H46720   9.503   0.048   3.855  1.5773  0.6070 -4.2622
  354MOL0     H46721   9.398  -0.086   3.771  0.3706  0.3932  0.2639
  354MOL0     H46722   9.387  -0.049   4.060  0.0773 -3.1859  0.9961
  354MOL0     H46723   9.300  -0.171   3.961 -0.5148 -0.6186 -0.7771
  354MOL0     H46724   9.182   0.041   4.041  0.1918  2.8587 -0.7178
  354MOL0     H46725   9.270   0.125   3.910 -0.4924 -1.1351 -3.5319
  354MOL0     H46726   9.001  -0.099   3.673 -0.8985  0.7919  1.1206
  354MOL0     H46727   9.739   0.053   3.884  1.0773  1.7600  0.2990
  354MOL0     H46728   9.937   0.162   3.838 -0.1462 -0.5963  0.7981
  355MOL0     O46729   6.360   5.306   0.737 -0.0390 -0.1626 -0.2392
  355MOL0     C46730   6.384   5.426   0.744 -0.8464 -0.1052 -1.5148
  355MOL0     O46731   6.445   5.489   0.853 -0.5433  0.0144 -1.0603
  355MOL0     C46732   6.482   5.432   0.975  0.0150  0.0319  0.8011
  355MOL0     C46733   6.514   5.526   1.071  0.5253  0.4204 -0.4076
  355MOL0     C46734   6.555   5.480   1.193  0.0324 -0.0491 -0.5139
  355MOL0     C46735   6.568   5.344   1.218 -0.0454  0.5775 -0.6462
  355MOL0     O46736   6.643   5.276   1.314 -0.0258 -0.0349  0.3052
  355MOL0     C46737   6.675   5.353   1.431 -0.3950 -0.6673 -1.3620
  355MOL0     C46738   6.717   5.261   1.538 -0.0114  0.1191  0.2029
  355MOL0     C46739   6.748   5.338   1.671 -0.5634  0.1852  0.4418
  355MOL0     C46740   6.661   5.295   1.789 -0.4183 -0.1711  0.1273
  355MOL0     C46741   6.701   5.397   1.903  0.1978 -0.0292 -0.7838
  355MOL0     C46742   6.620   5.384   2.031 -0.0790 -0.0088  0.6436
  355MOL0     C46743   6.662   5.482   2.134  0.6136 -0.7854 -0.1310
  355MOL0     C46744   6.571   5.457   2.262  0.1149  0.1848  0.1583
  355MOL0     N46745   6.599   5.341   2.342  0.3523  0.5706 -0.3209
  355MOL0     C46746   6.696   5.245   2.323 -0.3438 -0.0454  0.9265
  355MOL0     C46747   6.660   5.142   2.398  0.0015  0.2402 -0.2850
  355MOL0     C46748   6.745   5.023   2.411 -0.5028  0.1262  0.1387
  355MOL0     C46749   6.790   4.952   2.280 -0.2587 -1.2783 -0.3148
  355MOL0     C46750   6.669   4.926   2.186 -1.3050 -0.6884  0.1234
  355MOL0     C46751   6.710   4.828   2.079  0.3719 -0.2818 -0.3287
  355MOL0     O46752   6.773   4.896   1.970  0.3568  0.0117 -0.2821
  355MOL0     C46753   6.762   4.832   1.857 -0.3671 -0.4663  0.4885
  355MOL0     C46754   6.844   4.724   1.832  0.8934  0.6443 -0.6856
  355MOL0     C46755   6.835   4.649   1.712 -0.9816  0.5629 -1.0914
  355MOL0     C46756   6.760   4.694   1.606  0.5415  0.1918  0.2017
  355MOL0     C46757   6.773   4.626   1.471 -0.0466 -0.1656  1.0113
  355MOL0     O46758   6.808   4.497   1.459 -0.0081 -0.0062  0.9359
  355MOL0     C46759   6.857   4.450   1.338  0.2163  0.5634  0.8199
  355MOL0     C46760   6.845   4.309   1.307 -0.2905  0.9078  0.2760
  355MOL0     C46761   6.886   4.257   1.191  0.3817 -0.2413  0.9086
  355MOL0     C46762   6.959   4.338   1.099 -0.7850 -0.2011  0.4648
  355MOL0     O46763   6.991   4.285   0.970  0.0677 -0.1075 -0.9482
  355MOL0     C46764   7.126   4.325   0.933 -0.4502 -0.0191  0.5669
  355MOL0     C46765   7.152   4.448   0.849  0.2599 -0.8096  0.1431
  355MOL0     C46766   7.033   4.507   0.769  0.2027  0.2150  0.7199
  355MOL0     C46767   7.061   4.629   0.680  0.9207  0.1040  0.2406
  355MOL0     C46768   6.945   4.638   0.576  0.4742  0.4378 -0.2793
  355MOL0     C46769   6.975   4.727   0.452 -0.4234  0.5076  0.5346
  355MOL0     C46770   6.866   4.722   0.349 -0.2603 -0.8791 -0.1393
  355MOL0     C46771   6.761   4.838   0.362 -0.4071  1.1168 -0.6306
  355MOL0    Cl46772   6.848   4.986   0.302 -0.2701  0.1991  0.0116
  355MOL0     C46773   6.971   4.475   1.134  0.4824  0.7254 -0.2682
  355MOL0     C46774   6.930   4.530   1.251 -0.7084 -0.6366 -0.1454
  355MOL0     O46775   6.746   4.691   1.368 -0.2680  0.4918 -0.1473
  355MOL0     C46776   6.685   4.820   1.625  0.1531  0.2981 -0.9387
  355MOL0     C46777   6.687   4.878   1.755 -0.4401 -0.0468  0.2641
  355MOL0     N46778   6.534   5.170   2.450 -0.0391  0.6882  0.2886
  355MOL0     N46779   6.500   5.289   2.413  0.0219 -0.0377 -0.6132
  355MOL0     C46780   6.519   5.254   1.118  0.2953  0.3672 -0.4662
  355MOL0     C46781   6.471   5.291   1.002  1.1458 -0.6828 -0.4438
  355MOL0     C46782   6.340   5.507   0.628  0.9640 -0.4436 -0.5172
  355MOL0     C46783   6.324   5.438   0.511  0.1622 -0.3333  0.1306
  355MOL0     C46784   6.278   5.510   0.390  0.2674 -0.0915 -0.5155
  355MOL0     C46785   6.261   5.650   0.396  1.6857  0.5337 -0.3152
  355MOL0     O46786   6.237   5.727   0.284  0.0533  0.2105 -0.0700
  355MOL0     C46787   6.258   5.670   0.149 -0.8527  0.1709 -0.7126
  355MOL0     C46788   6.245   5.783   0.050  0.8860  0.0485 -0.0713
  355MOL0     C46789   6.301   5.725  -0.086 -0.5538  0.4026  1.2048
  355MOL0     C46790   6.185   5.680  -0.185  0.6922 -0.0070 -0.2738
  355MOL0     C46791   6.105   5.796  -0.244 -1.0321 -0.1541 -0.6563
  355MOL0     C46792   6.040   5.891  -0.274  0.0089 -0.7362 -0.8496
  355MOL0     C46793   6.278   5.711   0.529  0.4019  0.8808  0.6667
  355MOL0     C46794   6.317   5.643   0.640 -0.1957  0.3633  0.7417
  355MOL0     H46795   6.522   5.631   1.046 -0.3137  0.3439 -1.0360
  355MOL0     H46796   6.583   5.544   1.276 -5.9598 -1.6478  3.3641
  355MOL0     H46797   6.592   5.412   1.470 -0.2120 -1.5874  0.5302
  355MOL0     H46798   6.765   5.411   1.407 -0.0678 -1.4673 -2.1123
  355MOL0     H46799   6.814   5.217   1.513  0.7023 -0.2483  3.2867
  355MOL0     H46800   6.640   5.183   1.550  0.6535 -0.3633  1.4735
  355MOL0     H46801   6.752   5.445   1.650  4.3445  0.5863  2.1309
  355MOL0     H46802   6.851   5.315   1.701 -0.5392  0.3946  0.5179
  355MOL0     H46803   6.555   5.297   1.764 -0.1608 -3.2558 -1.7724
  355MOL0     H46804   6.684   5.188   1.787 -1.9482 -0.5612  1.7089
  355MOL0     H46805   6.675   5.492   1.856 -2.3543 -0.4373 -0.3465
  355MOL0     H46806   6.807   5.404   1.929  0.0622 -0.1011 -0.1990
  355MOL0     H46807   6.618   5.283   2.074  0.3918 -0.6032 -0.6772
  355MOL0     H46808   6.514   5.387   2.003 -0.0143 -2.1501 -0.0096
  355MOL0     H46809   6.768   5.464   2.156  0.1015 -2.4139  1.2196
  355MOL0     H46810   6.644   5.580   2.090 -0.6791 -0.6153  0.7230
  355MOL0     H46811   6.466   5.454   2.231 -0.5189 -0.8723  2.2380
  355MOL0     H46812   6.590   5.542   2.327 -3.5392  2.8739 -1.9141
  355MOL0     H46813   6.780   5.243   2.255 -0.4080 -0.8746  0.8652
  355MOL0     H46814   6.699   4.949   2.476  1.2885 -1.8590 -0.7304
  355MOL0     H46815   6.835   5.057   2.463  1.1597 -2.4596 -0.8687
  355MOL0     H46816   6.838   4.858   2.309  1.4518 -0.0034  1.1862
  355MOL0     H46817   6.867   5.011   2.230 -1.0841  0.2214  0.1040
  355MOL0     H46818   6.579   4.893   2.240 -1.0218 -2.3597 -0.3640
  355MOL0     H46819   6.648   5.009   2.119  3.4465  0.0284 -0.7931
  355MOL0     H46820   6.615   4.793   2.038  1.4479 -0.6765 -2.5955
  355MOL0     H46821   6.760   4.736   2.109  0.8055  0.1748  0.3757
  355MOL0     H46822   6.913   4.701   1.912  0.2560  0.0839 -0.2904
  355MOL0     H46823   6.893   4.561   1.689  1.5320  1.9546 -0.4544
  355MOL0     H46824   6.783   4.235   1.356 -2.2530  0.9766 -1.9404
  355MOL0     H46825   6.852   4.158   1.164  2.5200  0.1110 -4.0300
  355MOL0     H46826   7.160   4.238   0.877  1.4808  0.1688  1.3726
  355MOL0     H46827   7.187   4.338   1.023  0.6656 -1.7554  0.0984
  355MOL0     H46828   7.223   4.414   0.774 -1.8818  1.2698 -3.0645
  355MOL0     H46829   7.197   4.525   0.911 -0.7744  1.2587 -1.5457
  355MOL0     H46830   6.961   4.553   0.837 -0.0141  1.1483 -0.1195
  355MOL0     H46831   6.990   4.426   0.711 -1.8729  0.3592  1.9712
  355MOL0     H46832   7.061   4.714   0.749 -1.5948 -2.0891  3.2031
  355MOL0     H46833   7.154   4.622   0.623  0.9270 -1.2455  0.3925
  355MOL0     H46834   6.849   4.672   0.616  0.2840 -1.0988  0.6246
  355MOL0     H46835   6.930   4.537   0.535  0.3495  0.2080  0.3300
  355MOL0     H46836   7.073   4.700   0.412  0.0716  0.8223  1.4989
  355MOL0     H46837   6.992   4.828   0.491  2.7236 -0.9543  3.5805
  355MOL0     H46838   6.903   4.742   0.248  1.4061 -0.7584  0.4726
  355MOL0     H46839   6.815   4.625   0.342 -2.9996  0.4774 -0.2374
  355MOL0     H46840   6.722   4.841   0.463 -1.8311 -1.4607 -1.0299
  355MOL0     H46841   6.669   4.828   0.304 -2.0951  2.1454  1.7139
  355MOL0     H46842   6.998   4.556   1.067 -0.2843  1.5745  0.4242
  355MOL0     H46843   6.946   4.636   1.270 -0.6136  0.2296 -4.1584
  355MOL0     H46844   6.614   4.870   1.560 -1.2358  2.5887  2.1196
  355MOL0     H46845   6.619   4.958   1.783 -0.4601 -0.4631  1.4399
  355MOL0     H46846   6.543   5.149   1.132  2.3985  0.2559 -3.9998
  355MOL0     H46847   6.429   5.218   0.934  0.9769 -1.9205  0.9604
  355MOL0     H46848   6.332   5.330   0.512 -3.6948 -0.7855 -0.9112
  355MOL0     H46849   6.262   5.455   0.298  4.4382 -2.0818 -0.2964
  355MOL0     H46850   6.186   5.599   0.109 -0.1201  0.4908 -2.7559
  355MOL0     H46851   6.357   5.624   0.144 -0.3886  0.8611  1.1124
  355MOL0     H46852   6.138   5.807   0.050  0.9673  0.4299  0.3352
  355MOL0     H46853   6.288   5.877   0.086  0.6021  1.7271 -3.7519
  355MOL0     H46854   6.353   5.629  -0.077 -1.1641  0.2514  4.0466
  355MOL0     H46855   6.365   5.801  -0.132 -3.5649  2.0427 -0.6353
  355MOL0     H46856   6.231   5.626  -0.268 -0.6699 -3.0989  0.8216
  355MOL0     H46857   6.137   5.607  -0.119 -1.1929  2.3931  1.1735
  355MOL0     H46858   5.984   5.981  -0.294  1.3493  0.1662 -0.6636
  355MOL0     H46859   6.257   5.818   0.532 -0.1283  0.7811  0.7098
  355MOL0     H46860   6.345   5.691   0.733  2.1396 -0.5997  0.6092
  356MOL0     O46861   8.967   3.340   5.251  0.0242  0.9514  0.0442
  356MOL0     C46862   8.946   3.223   5.278  0.4472  0.1841  0.4687
  356MOL0     O46863   8.936   3.186   5.408  0.0033  0.3673  0.7145
  356MOL0     C46864   8.971   3.267   5.511  0.0266 -0.0031  0.3368
  356MOL0     C46865   9.100   3.263   5.564  0.1820 -0.4305 -0.6191
  356MOL0     C46866   9.136   3.353   5.668 -0.2716 -0.3696 -0.2957
  356MOL0     C46867   9.046   3.443   5.720 -0.7638  0.3932 -1.2672
  356MOL0     O46868   9.086   3.526   5.828  0.3040 -0.0693 -1.0484
  356MOL0     C46869   9.134   3.452   5.945  0.0997 -0.1053 -0.5169
  356MOL0     C46870   9.137   3.529   6.081 -0.7688 -0.8361 -0.1109
  356MOL0     C46871   9.250   3.630   6.082  0.5194  0.4355 -0.6067
  356MOL0     C46872   9.247   3.709   6.213 -0.6550 -0.1936 -0.2218
  356MOL0     C46873   9.334   3.840   6.195  0.0308  0.0852  0.0490
  356MOL0     C46874   9.490   3.814   6.179  0.0945 -0.3207 -1.4260
  356MOL0     C46875   9.583   3.938   6.220 -0.4107  0.4770  0.4293
  356MOL0     C46876   9.720   3.922   6.146  1.2817 -0.1812  1.1405
  356MOL0     N46877   9.802   3.817   6.204  0.1946  0.1043 -0.1523
  356MOL0     C46878   9.826   3.793   6.336  0.3212 -0.2728 -0.5294
  356MOL0     C46879   9.914   3.701   6.337 -0.2135  0.3072  0.0815
  356MOL0     C46880   9.972   3.636   6.458  0.8075  0.1242  0.7850
  356MOL0     C46881   9.887   3.513   6.493  0.3380  0.1362 -0.1731
  356MOL0     C46882   9.962   3.436   6.609  0.3996  1.2309  0.2369
  356MOL0     C46883   9.872   3.412   6.742  0.5948 -0.1300  0.8496
  356MOL0     O46884   9.776   3.303   6.724 -0.1961 -0.4756 -0.2020
  356MOL0     C46885   9.661   3.326   6.797 -0.7052  0.9762 -0.3298
  356MOL0     C46886   9.669   3.355   6.935  0.2989 -0.3296  0.1809
  356MOL0     C46887   9.548   3.384   7.004  1.0387  0.2531 -0.1387
  356MOL0     C46888   9.426   3.373   6.942 -0.9022  0.4139  0.1444
  356MOL0     C46889   9.299   3.390   7.018 -0.7170  0.3661 -0.5766
  356MOL0     O46890   9.301   3.351   7.147  0.5460 -0.0645  0.2930
  356MOL0     C46891   9.213   3.414   7.227  0.1012 -0.4318  0.3438
  356MOL0     C46892   9.245   3.522   7.309 -0.9408  0.0638 -0.8241
  356MOL0     C46893   9.151   3.602   7.379  0.6109  0.8574 -0.8232
  356MOL0     C46894   9.013   3.578   7.366  0.1733  0.2830 -0.0046
  356MOL0     O46895   8.921   3.664   7.415  0.2962  0.0148  0.4486
  356MOL0     C46896   8.825   3.620   7.508  0.4567  0.3935  0.0018
  356MOL0     C46897   8.785   3.756   7.572  0.4837  1.0182 -0.0824
  356MOL0     C46898   8.653   3.741   7.654 -0.4312 -0.2236  0.5741
  356MOL0     C46899   8.610   3.878   7.699  0.0990  0.0701  0.1461
  356MOL0     C46900   8.493   3.882   7.807  0.0965  0.3361 -0.4279
  356MOL0     C46901   8.505   4.008   7.897  0.2492 -0.3549  1.0225
  356MOL0     C46902   8.495   4.149   7.821  0.3220  0.4216 -0.1404
  356MOL0     C46903   8.526   4.266   7.915 -0.8390  0.4551 -0.8587
  356MOL0    Cl46904   8.705   4.281   7.965 -0.0274 -0.1488  0.1177
  356MOL0     C46905   8.978   3.462   7.297 -0.2393  0.7436  0.3968
  356MOL0     C46906   9.074   3.377   7.227  0.1060 -0.7819  0.0786
  356MOL0     O46907   9.210   3.447   6.962 -0.3286 -0.1533  0.0750
  356MOL0     C46908   9.422   3.345   6.808  0.7102  0.2326  0.0416
  356MOL0     C46909   9.537   3.315   6.740  0.2426  0.4841 -1.5920
  356MOL0     N46910   9.955   3.660   6.212  0.3549  0.5392 -0.0122
  356MOL0     N46911   9.881   3.735   6.131 -0.4058  0.6768 -0.1677
  356MOL0     C46912   8.914   3.431   5.677 -0.2062  0.8790 -1.0767
  356MOL0     C46913   8.878   3.347   5.570 -0.5360  0.0856  0.5677
  356MOL0     C46914   8.953   3.115   5.175 -0.1387  0.1274 -0.2653
  356MOL0     C46915   9.017   3.128   5.056 -0.3777  0.4781  0.4320
  356MOL0     C46916   8.998   3.038   4.956 -0.3657 -0.0635 -0.3628
  356MOL0     C46917   8.920   2.930   4.973  0.0843 -0.5996 -0.0025
  356MOL0     O46918   8.918   2.837   4.870 -0.2114  0.6741 -0.4802
  356MOL0     C46919   8.835   2.722   4.875 -0.1802  0.1254 -1.0047
  356MOL0     C46920   8.791   2.674   4.745 -0.9384 -0.7771  0.3975
  356MOL0     C46921   8.737   2.534   4.746 -0.7989 -0.7727 -0.3201
  356MOL0     C46922   8.587   2.530   4.789 -1.6092  0.4449  0.3245
  356MOL0     C46923   8.579   2.504   4.930  0.5821  0.4959 -0.2771
  356MOL0     C46924   8.552   2.475   5.042  0.0735  0.5784  0.0276
  356MOL0     C46925   8.862   2.898   5.101 -1.9788  0.7010  0.2197
  356MOL0     C46926   8.898   2.985   5.206  0.4012  0.2538 -0.4783
  356MOL0     H46927   9.168   3.193   5.517 -0.5728 -2.3103  0.9852
  356MOL0     H46928   9.238   3.349   5.705 -0.6820 -1.5409  0.7748
  356MOL0     H46929   9.240   3.437   5.922 -0.1811 -1.2633 -1.1884
  356MOL0     H46930   9.082   3.360   5.974 -1.5378  0.8633 -0.2318
  356MOL0     H46931   9.152   3.464   6.167  0.6992  0.3460  0.5844
  356MOL0     H46932   9.041   3.577   6.103 -0.0455  0.9808 -0.6910
  356MOL0     H46933   9.249   3.709   6.006 -2.7075  0.9210 -0.2157
  356MOL0     H46934   9.344   3.575   6.076 -0.6185 -2.0820  2.0826
  356MOL0     H46935   9.152   3.756   6.238 -0.9480 -0.0903 -1.4407
  356MOL0     H46936   9.277   3.641   6.293  0.8645  1.9912  1.1749
  356MOL0     H46937   9.313   3.906   6.280  1.0828  1.0693 -0.4353
  356MOL0     H46938   9.293   3.899   6.112  0.6166  1.4009  0.6698
  356MOL0     H46939   9.501   3.799   6.071  0.0834  0.3797 -1.5275
  356MOL0     H46940   9.512   3.715   6.220  1.3807 -0.0147 -1.3592
  356MOL0     H46941   9.527   4.026   6.190  3.1355  2.1660 -1.9122
  356MOL0     H46942   9.588   3.964   6.327  1.0797  3.5074 -0.2752
  356MOL0     H46943   9.775   4.016   6.153 -1.3824  1.3444  3.4602
  356MOL0     H46944   9.698   3.902   6.041  0.9929  1.7956  0.7789
  356MOL0     H46945   9.775   3.839   6.420  0.0240  2.3700 -2.0526
  356MOL0     H46946   9.987   3.715   6.532  2.0312 -0.0252  0.7181
  356MOL0     H46947  10.071   3.593   6.439  0.2661 -0.3215 -1.2107
  356MOL0     H46948   9.867   3.446   6.409 -0.9716  0.6613 -0.3034
  356MOL0     H46949   9.793   3.547   6.538  0.0172  0.0816 -0.8038
  356MOL0     H46950   9.996   3.335   6.585 -0.3703  0.1099  3.3851
  356MOL0     H46951  10.044   3.500   6.641 -0.5713  1.8588  1.5541
  356MOL0     H46952   9.839   3.510   6.778  1.2378  0.1924  0.5881
  356MOL0     H46953   9.940   3.379   6.821  1.9205 -2.1701 -1.0149
  356MOL0     H46954   9.760   3.357   6.993 -0.3554 -3.3359  1.4904
  356MOL0     H46955   9.568   3.402   7.109  0.8186 -1.2360  0.1835
  356MOL0     H46956   9.350   3.537   7.329 -1.0747  0.2713 -0.2497
  356MOL0     H46957   9.182   3.688   7.439 -3.1774  2.0918 -0.3833
  356MOL0     H46958   8.860   3.552   7.585 -2.1932  0.1087  1.0632
  356MOL0     H46959   8.733   3.571   7.474  0.8529 -1.0948  0.9959
  356MOL0     H46960   8.769   3.843   7.507 -0.2827  1.8754  1.1897
  356MOL0     H46961   8.860   3.782   7.647  0.2215  2.3322 -0.2393
  356MOL0     H46962   8.651   3.668   7.736  0.8744 -0.6701  0.2298
  356MOL0     H46963   8.580   3.712   7.577  1.6849 -1.7337 -0.9831
  356MOL0     H46964   8.693   3.927   7.750 -1.8667  1.9446  1.7647
  356MOL0     H46965   8.591   3.941   7.612  2.2152  0.8395  0.1833
  356MOL0     H46966   8.492   3.788   7.863 -1.2717 -0.3457 -1.5472
  356MOL0     H46967   8.397   3.882   7.754  0.1199 -0.2329 -0.4753
  356MOL0     H46968   8.607   4.007   7.936  0.0070 -2.2283  1.7007
  356MOL0     H46969   8.429   4.011   7.976 -1.2629 -0.8663 -0.3652
  356MOL0     H46970   8.552   4.156   7.729  0.8464 -4.3578 -0.4544
  356MOL0     H46971   8.389   4.156   7.796  0.4998 -0.5799 -1.2268
  356MOL0     H46972   8.467   4.262   8.008  0.9437  0.4278  0.3161
  356MOL0     H46973   8.508   4.357   7.856  1.5159  2.7862  1.7248
  356MOL0     H46974   8.873   3.438   7.316 -0.3205 -1.0627 -1.8801
  356MOL0     H46975   9.045   3.285   7.177  0.2854 -0.4424 -0.6605
  356MOL0     H46976   9.325   3.338   6.759  1.9421  4.5732 -3.7306
  356MOL0     H46977   9.532   3.301   6.633  1.9106  0.3787 -1.6821
  356MOL0     H46978   8.827   3.483   5.718 -0.8755  0.8519 -2.3861
  356MOL0     H46979   8.772   3.332   5.554 -0.6341  0.4730  0.8310
  356MOL0     H46980   9.080   3.209   5.022  1.0402 -1.3555 -1.5916
  356MOL0     H46981   9.048   3.043   4.859 -0.1762  0.1144 -0.2577
  356MOL0     H46982   8.740   2.733   4.929 -0.4162  0.8464 -1.5620
  356MOL0     H46983   8.900   2.645   4.919 -0.3848  0.1213 -0.7069
  356MOL0     H46984   8.717   2.745   4.707 -0.3670 -0.8602 -0.9104
  356MOL0     H46985   8.874   2.663   4.675 -0.2966 -2.8670  1.3921
  356MOL0     H46986   8.798   2.464   4.804  0.5580  0.9341  0.4379
  356MOL0     H46987   8.737   2.494   4.645  1.7507  2.1003 -1.6166
  356MOL0     H46988   8.545   2.627   4.764  0.4792  0.7461 -2.4873
  356MOL0     H46989   8.542   2.444   4.739  0.3472 -1.3209  1.4063
  356MOL0     H46990   8.551   2.463   5.149 -0.8682  1.7511  0.1778
  356MOL0     H46991   8.820   2.799   5.111  2.4600 -1.7898 -2.5543
  356MOL0     H46992   8.855   2.971   5.305  1.6677  1.8740  0.3634
  357MOL0     O46993   5.115   6.079   8.323  0.1520  0.7037 -0.0307
  357MOL0     C46994   5.018   6.149   8.343 -0.1656  0.3139 -0.1568
  357MOL0     O46995   4.909   6.118   8.424 -0.4563 -1.5661  0.4300
  357MOL0     C46996   4.904   6.001   8.489  0.3604  0.3112 -0.4018
  357MOL0     C46997   5.018   5.958   8.557  0.1355  0.4396  0.0533
  357MOL0     C46998   5.018   5.830   8.617  0.1021  0.6507  0.0183
  357MOL0     C46999   4.908   5.748   8.593  0.0305 -0.7620  0.1836
  357MOL0     O47000   4.906   5.614   8.626  1.0925 -0.5829  0.5089
  357MOL0     C47001   5.023   5.541   8.661 -0.4353  0.7974 -0.1922
  357MOL0     C47002   4.973   5.402   8.689 -1.1663 -0.1955  0.0265
  357MOL0     C47003   5.102   5.304   8.660 -0.5357  0.5950  0.1523
  357MOL0     C47004   5.092   5.161   8.721 -0.2665  0.1833 -0.1491
  357MOL0     C47005   4.968   5.075   8.674 -0.5824 -1.4476  0.0307
  357MOL0     C47006   4.951   5.085   8.523 -0.4645 -0.0138 -0.0705
  357MOL0     C47007   4.859   4.976   8.474 -0.7312  0.7692  0.1492
  357MOL0     C47008   4.711   5.007   8.504  0.2598 -0.7049  0.2747
  357MOL0     N47009   4.676   5.132   8.437  0.4854  0.4424 -0.6722
  357MOL0     C47010   4.645   5.259   8.484 -0.8340  0.3661 -0.4150
  357MOL0     C47011   4.594   5.325   8.379 -0.1252 -0.2862  0.2279
  357MOL0     C47012   4.546   5.469   8.394  0.0722 -0.6522  0.4781
  357MOL0     C47013   4.418   5.471   8.481 -0.0147 -1.0527  0.3668
  357MOL0     C47014   4.301   5.410   8.419 -0.3656 -0.2774  1.6720
  357MOL0     C47015   4.184   5.417   8.506  0.5565 -0.4955 -0.2051
  357MOL0     O47016   4.074   5.430   8.407 -0.7006 -0.1628 -0.5933
  357MOL0     C47017   3.944   5.418   8.454 -0.3529  0.5356  1.3161
  357MOL0     C47018   3.844   5.369   8.360  0.5767 -0.8298  0.6205
  357MOL0     C47019   3.710   5.373   8.401  0.4643 -0.7293 -0.6466
  357MOL0     C47020   3.673   5.445   8.523 -1.0590  0.0367 -0.1717
  357MOL0     C47021   3.530   5.451   8.564 -0.4483 -0.0825 -0.1672
  357MOL0     O47022   3.501   5.522   8.676 -0.3384  0.7815 -0.1259
  357MOL0     C47023   3.369   5.529   8.729 -0.8086  1.3041 -0.2042
  357MOL0     C47024   3.273   5.421   8.715  0.6718 -0.5282 -0.2789
  357MOL0     C47025   3.138   5.431   8.773 -0.1496  0.2718 -0.0505
  357MOL0     C47026   3.106   5.537   8.864  0.0379  0.7335  0.2554
  357MOL0     O47027   2.972   5.564   8.899  0.1192 -0.1011  0.0844
  357MOL0     C47028   2.883   5.458   8.937 -0.1702  0.3375 -0.1341
  357MOL0     C47029   2.833   5.455   9.078  0.4188 -0.0752  0.0414
  357MOL0     C47030   2.936   5.450   9.195 -0.3649 -0.4607 -0.7846
  357MOL0     C47031   2.879   5.486   9.335 -0.2273  0.8263 -0.3210
  357MOL0     C47032   2.936   5.397   9.447  0.6020  0.8768  0.0375
  357MOL0     C47033   2.881   5.258   9.423  0.6888  0.3496 -0.0914
  357MOL0     C47034   2.928   5.137   9.506  0.7298  0.0541  1.1399
  357MOL0     C47035   2.860   5.120   9.639  0.5930 -0.8424 -0.5557
  357MOL0    Cl47036   2.682   5.157   9.645  0.4951  0.1240 -0.1679
  357MOL0     C47037   3.202   5.634   8.881  0.4269 -0.9934 -1.1688
  357MOL0     C47038   3.335   5.625   8.824 -0.2287 -0.0267  0.3915
  357MOL0     O47039   3.450   5.415   8.484  0.1043  0.4139  0.0424
  357MOL0     C47040   3.775   5.512   8.591  0.2613  0.5998  0.3114
  357MOL0     C47041   3.910   5.506   8.559  0.3349  0.7975 -0.1652
  357MOL0     N47042   4.608   5.249   8.264  1.1114 -0.0067 -0.0530
  357MOL0     N47043   4.633   5.125   8.306  0.5419  0.1886  0.3480
  357MOL0     C47044   4.782   5.790   8.539  0.7789 -0.5466 -1.1680
  357MOL0     C47045   4.788   5.915   8.482  0.7969 -1.2517 -0.7243
  357MOL0     C47046   5.007   6.279   8.280  0.1999 -0.2463 -0.6156
  357MOL0     C47047   4.889   6.339   8.258 -0.2264 -0.2319 -0.5240
  357MOL0     C47048   4.877   6.466   8.200 -0.9061  0.2726  0.0546
  357MOL0     C47049   4.993   6.524   8.150 -0.2227 -1.2440 -0.1321
  357MOL0     O47050   4.989   6.642   8.085  0.7506  0.7696 -0.2654
  357MOL0     C47051   5.001   6.753   8.178  0.4652 -0.3619 -0.3204
  357MOL0     C47052   5.064   6.873   8.118  0.5473  0.3053 -0.8062
  357MOL0     C47053   5.206   6.842   8.073 -0.5701  0.9248 -0.1746
  357MOL0     C47054   5.213   6.898   7.925  0.7326 -0.0998  0.3480
  357MOL0     C47055   5.341   6.910   7.872  0.0375  0.3901  0.9754
  357MOL0     C47056   5.462   6.912   7.860  0.2925  0.1714 -1.4423
  357MOL0     C47057   5.113   6.454   8.145  1.0537  0.2516  0.1053
  357MOL0     C47058   5.121   6.329   8.211  0.5647 -0.6696  1.0833
  357MOL0     H47059   5.108   6.018   8.564  0.7349 -0.5208  0.9890
  357MOL0     H47060   5.115   5.802   8.656 -0.4616 -0.8610  0.4050
  357MOL0     H47061   5.070   5.582   8.751 -0.3246  1.3708 -0.5060
  357MOL0     H47062   5.094   5.538   8.577 -1.1601  1.0784 -0.8212
  357MOL0     H47063   4.895   5.368   8.620 -0.9610 -0.1755 -0.2221
  357MOL0     H47064   4.949   5.401   8.795  1.2095  0.7992  0.6331
  357MOL0     H47065   5.192   5.351   8.701 -1.0625 -0.4955  2.7773
  357MOL0     H47066   5.108   5.304   8.551 -3.4487 -0.0181 -0.0906
  357MOL0     H47067   5.176   5.101   8.685  0.9853  1.9080 -0.2676
  357MOL0     H47068   5.089   5.165   8.831 -0.7645  1.9628 -0.1909
  357MOL0     H47069   4.875   5.116   8.715 -0.4962  1.6501 -2.4799
  357MOL0     H47070   4.998   4.977   8.712 -1.2347 -0.3714  3.6513
  357MOL0     H47071   5.044   5.058   8.472  0.3124 -3.2597  2.6628
  357MOL0     H47072   4.922   5.186   8.494  2.4352  1.0188  0.3157
  357MOL0     H47073   4.876   4.962   8.367 -0.5478  2.9473 -0.1527
  357MOL0     H47074   4.890   4.881   8.518 -0.7290 -1.1003 -3.5090
  357MOL0     H47075   4.695   5.022   8.611  0.5953 -1.3689  0.4263
  357MOL0     H47076   4.655   4.919   8.471  2.3852 -1.1463 -2.5620
  357MOL0     H47077   4.647   5.295   8.586  4.0352  2.7086 -1.0335
  357MOL0     H47078   4.533   5.513   8.295 -0.9735 -1.1419  0.3810
  357MOL0     H47079   4.628   5.523   8.443 -0.9341 -0.5720  2.1660
  357MOL0     H47080   4.390   5.576   8.497  1.3404 -0.7147  0.6284
  357MOL0     H47081   4.439   5.429   8.580  0.9708  0.5481  0.8779
  357MOL0     H47082   4.283   5.464   8.326  0.8129 -3.5813 -0.6494
  357MOL0     H47083   4.325   5.308   8.388  1.0204  0.6909 -0.7730
  357MOL0     H47084   4.196   5.504   8.572  5.3458 -1.1050  0.0726
  357MOL0     H47085   4.176   5.325   8.566 -0.7844 -0.0664  0.3085
  357MOL0     H47086   3.855   5.324   8.262 -0.8576 -0.7391  0.3896
  357MOL0     H47087   3.635   5.324   8.340  0.3630 -4.2159  1.9728
  357MOL0     H47088   3.289   5.334   8.653  1.3363 -0.1535 -0.6539
  357MOL0     H47089   3.066   5.355   8.744 -1.6974  0.9654  1.7024
  357MOL0     H47090   2.946   5.370   8.922  2.9957  2.1981  1.3726
  357MOL0     H47091   2.797   5.439   8.872 -0.1456 -3.1471  0.6622
  357MOL0     H47092   2.764   5.373   9.097  2.2745 -1.5043  1.0156
  357MOL0     H47093   2.772   5.545   9.086 -0.7472 -0.9712  1.8314
  357MOL0     H47094   3.015   5.525   9.188  0.7467 -1.4143  0.7783
  357MOL0     H47095   2.987   5.354   9.180 -0.2096 -0.2215 -1.8711
  357MOL0     H47096   2.891   5.591   9.361  1.3714  0.0563  2.4908
  357MOL0     H47097   2.773   5.460   9.339  0.1538 -0.7047  0.7659
  357MOL0     H47098   2.912   5.437   9.545  2.1275  1.2048  0.2995
  357MOL0     H47099   3.044   5.396   9.428  0.2014  3.7437 -3.4954
  357MOL0     H47100   2.908   5.219   9.324  2.4981 -2.8248  1.5144
  357MOL0     H47101   2.772   5.256   9.412  0.5390  3.0567  0.2408
  357MOL0     H47102   2.904   5.045   9.451 -6.8416  0.9786  1.8232
  357MOL0     H47103   3.034   5.142   9.532  1.0168 -1.5516  0.4085
  357MOL0     H47104   2.902   5.208   9.688  1.8087 -0.9045 -1.4228
  357MOL0     H47105   2.887   5.025   9.687 -2.2427 -1.2580  0.4223
  357MOL0     H47106   3.174   5.712   8.951  3.4327 -2.5745  2.1401
  357MOL0     H47107   3.416   5.697   8.834  0.4979 -0.5177 -1.5144
  357MOL0     H47108   3.745   5.559   8.684  0.7998  0.3788  0.5992
  357MOL0     H47109   3.982   5.559   8.621 -0.1353 -2.2250  3.2855
  357MOL0     H47110   4.702   5.724   8.509  1.2971 -1.0691 -1.4281
  357MOL0     H47111   4.705   5.973   8.445 -0.0987 -0.7716  1.8339
  357MOL0     H47112   4.791   6.301   8.286  0.6438 -1.1100  1.5615
  357MOL0     H47113   4.791   6.528   8.222 -2.1413 -0.9776 -1.1178
  357MOL0     H47114   5.054   6.732   8.272  0.7339 -1.6654 -0.7332
  357MOL0     H47115   4.899   6.773   8.212  0.9362  0.3871  0.7066
  357MOL0     H47116   5.008   6.919   8.036 -0.3380 -1.8469 -1.4636
  357MOL0     H47117   5.077   6.954   8.191  2.6873  0.2775 -1.0714
  357MOL0     H47118   5.225   6.735   8.076  0.1105  0.9447 -2.1263
  357MOL0     H47119   5.287   6.878   8.137 -1.8165 -1.3279  2.8963
  357MOL0     H47120   5.154   6.833   7.859 -0.4646  1.9541 -0.7124
  357MOL0     H47121   5.166   6.997   7.923  0.6463 -0.1464 -0.5312
  357MOL0     H47122   5.568   6.924   7.871  0.0079  1.4890  0.2655
  357MOL0     H47123   5.189   6.496   8.080 -1.2905  2.0282 -1.6296
  357MOL0     H47124   5.214   6.274   8.212  1.6737  1.1283  0.4656
  358MOL0     O47125   7.568   9.183   6.775 -0.2519 -0.0022  0.6147
  358MOL0     C47126   7.647   9.096   6.727 -0.2059 -0.8349  0.4839
  358MOL0     O47127   7.663   9.062   6.599  0.4651 -0.0633 -0.1456
  358MOL0     C47128   7.565   9.118   6.517  0.0399  0.5991  0.0427
  358MOL0     C47129   7.429   9.075   6.519  0.6600 -0.2554 -0.1272
  358MOL0     C47130   7.343   9.122   6.420  0.1007 -0.1780  0.4785
  358MOL0     C47131   7.392   9.204   6.316  0.2961 -0.2578  0.7967
  358MOL0     O47132   7.319   9.251   6.211  0.1547 -0.1208 -0.1295
  358MOL0     C47133   7.262   9.155   6.126 -0.6922  0.3998 -0.4957
  358MOL0     C47134   7.113   9.182   6.109 -0.0129  0.2648 -0.4654
  358MOL0     C47135   7.047   9.047   6.129  0.4272 -0.7282  0.0244
  358MOL0     C47136   6.898   9.068   6.149 -0.1175 -0.3811  1.0862
  358MOL0     C47137   6.826   9.158   6.047 -0.6976  0.6217  0.0251
  358MOL0     C47138   6.676   9.174   6.066 -0.6026 -0.4213 -0.2175
  358MOL0     C47139   6.632   9.316   6.004 -0.4797 -0.2635  0.2100
  358MOL0     C47140   6.482   9.335   6.018 -0.5119  0.2393  0.3726
  358MOL0     N47141   6.406   9.229   5.947  0.9609  0.4874 -0.9191
  358MOL0     C47142   6.380   9.213   5.812 -0.0371  0.3432  0.2539
  358MOL0     C47143   6.305   9.094   5.814  0.4763 -0.7965 -0.7938
  358MOL0     C47144   6.246   9.018   5.711 -0.0544 -0.6913 -0.4868
  358MOL0     C47145   6.156   9.094   5.604  0.3522  0.2655  1.0214
  358MOL0     C47146   6.056   9.180   5.672 -0.2277 -0.2739  0.7569
  358MOL0     C47147   5.948   9.125   5.761  1.1223  0.6881 -0.5121
  358MOL0     O47148   5.849   9.223   5.790 -0.7540  0.5445 -0.4211
  358MOL0     C47149   5.845   9.249   5.927 -0.6018 -0.8792  0.8584
  358MOL0     C47150   5.952   9.256   6.016  0.7569 -0.1394  0.0398
  358MOL0     C47151   5.931   9.306   6.142  0.7335 -0.7640  0.1093
  358MOL0     C47152   5.800   9.354   6.190 -1.1916  0.2483  0.6682
  358MOL0     C47153   5.778   9.406   6.318  0.0470 -0.1975  0.4868
  358MOL0     O47154   5.660   9.460   6.355  0.0579 -0.1906 -0.4703
  358MOL0     C47155   5.621   9.479   6.495  0.3658  0.4964  1.3939
  358MOL0     C47156   5.674   9.415   6.608 -1.4275 -1.0969  0.2446
  358MOL0     C47157   5.627   9.446   6.733  0.0380  1.3401 -0.2969
  358MOL0     C47158   5.506   9.510   6.747 -1.8425 -1.0502  0.4833
  358MOL0     O47159   5.465   9.527   6.873  0.2798 -0.3482  0.3057
  358MOL0     C47160   5.340   9.604   6.899 -0.2283  0.6359  0.0077
  358MOL0     C47161   5.380   9.754   6.919  1.0812 -0.6383 -0.1815
  358MOL0     C47162   5.428   9.780   7.060 -0.0076 -1.1681  0.3204
  358MOL0     C47163   5.401   9.935   7.088 -0.3361  1.0483 -0.4388
  358MOL0     C47164   5.486   9.996   7.200  0.6180 -0.2573 -0.1553
  358MOL0     C47165   5.496   9.924   7.336 -0.3049  0.0254  0.5341
  358MOL0     C47166   5.605   9.989   7.423  0.4442  2.0297  0.0775
  358MOL0     C47167   5.749   9.949   7.373  0.4608 -0.2681  0.3624
  358MOL0    Cl47168   5.766   9.772   7.390 -0.3031 -0.3863  0.0873
  358MOL0     C47169   5.455   9.575   6.636  0.7847 -0.2793  0.8365
  358MOL0     C47170   5.510   9.566   6.507 -0.2792 -0.1023 -0.4995
  358MOL0     O47171   5.880   9.410   6.386 -0.0245  0.4962  0.3759
  358MOL0     C47172   5.697   9.358   6.097 -0.1913  0.1186  0.4958
  358MOL0     C47173   5.720   9.299   5.970 -1.4025  0.8955  0.8955
  358MOL0     N47174   6.292   9.047   5.946  0.1126 -0.1412  0.1626
  358MOL0     N47175   6.336   9.140   6.020  0.0848  0.1154  0.7954
  358MOL0     C47176   7.521   9.252   6.328 -0.6058 -0.3545 -0.1259
  358MOL0     C47177   7.605   9.222   6.425 -0.9013  0.0696  0.6872
  358MOL0     C47178   7.703   9.008   6.825  0.5767  0.1578  0.2686
  358MOL0     C47179   7.763   9.062   6.943  0.5536  0.3871  0.9736
  358MOL0     C47180   7.799   8.975   7.050 -0.3728  0.8045 -0.0233
  358MOL0     C47181   7.785   8.845   7.043  0.2857 -0.0607 -0.0247
  358MOL0     O47182   7.822   8.775   7.158 -0.5897 -0.1800  0.2786
  358MOL0     C47183   7.845   8.634   7.147  0.1094 -0.6751 -0.7718
  358MOL0     C47184   7.868   8.576   7.297 -0.4231 -0.9437 -0.0746
  358MOL0     C47185   7.735   8.514   7.336  0.1987 -0.0622 -0.1817
  358MOL0     C47186   7.746   8.471   7.480 -0.2153  0.3879  1.3098
  358MOL0     C47187   7.613   8.416   7.515 -0.7965  0.9359  0.4913
  358MOL0     C47188   7.507   8.368   7.549  1.2029 -0.9432  1.1058
  358MOL0     C47189   7.739   8.793   6.920 -0.6918  0.3655 -0.9076
  358MOL0     C47190   7.705   8.875   6.806  1.3085 -0.7610 -0.1684
  358MOL0     H47191   7.396   9.014   6.603  0.6353 -0.7030 -0.4611
  358MOL0     H47192   7.236   9.103   6.423  0.3108 -1.7580 -0.5454
  358MOL0     H47193   7.288   9.059   6.172 -1.8960 -0.6560 -1.9471
  358MOL0     H47194   7.312   9.152   6.029 -0.9438 -0.6845 -0.6104
  358MOL0     H47195   7.084   9.230   6.015  0.6134 -0.2155 -0.9086
  358MOL0     H47196   7.087   9.261   6.181  0.2513  4.4908 -4.5099
  358MOL0     H47197   7.097   8.982   6.202  1.7916 -0.3876 -0.5675
  358MOL0     H47198   7.053   8.992   6.034 -1.9328 -1.8072  0.4268
  358MOL0     H47199   6.852   8.969   6.159 -0.9282 -0.7874 -4.0113
  358MOL0     H47200   6.891   9.120   6.245 -1.8019 -2.9634  2.4482
  358MOL0     H47201   6.854   9.119   5.948  1.6414  3.4264 -0.5395
  358MOL0     H47202   6.875   9.253   6.068 -0.5423  0.1228  2.1808
  358MOL0     H47203   6.661   9.181   6.174  0.0835 -1.1742 -0.0580
  358MOL0     H47204   6.629   9.081   6.033 -0.6917 -1.7237  3.1279
  358MOL0     H47205   6.678   9.399   6.059 -1.5401 -0.5456  1.5721
  358MOL0     H47206   6.670   9.321   5.902  2.5260 -0.0974  1.2459
  358MOL0     H47207   6.443   9.433   5.991  1.8901  1.0965 -0.2329
  358MOL0     H47208   6.463   9.318   6.124  0.8489 -2.5617  0.2781
  358MOL0     H47209   6.422   9.268   5.728  1.8104 -0.5427  0.5517
  358MOL0     H47210   6.185   8.941   5.758  0.4546  0.4922  2.2994
  358MOL0     H47211   6.324   8.960   5.661  0.5874  0.2879 -0.6651
  358MOL0     H47212   6.110   9.028   5.531 -0.6525  3.5402 -1.5773
  358MOL0     H47213   6.207   9.164   5.537 -1.5633  1.2532  0.5277
  358MOL0     H47214   6.111   9.261   5.721 -0.0170 -1.1376  2.0082
  358MOL0     H47215   5.997   9.213   5.586 -2.4164 -2.9474  1.0982
  358MOL0     H47216   5.997   9.085   5.850  1.3728  3.0538  0.4978
  358MOL0     H47217   5.884   9.050   5.713  3.5982 -2.1050  0.2421
  358MOL0     H47218   6.054   9.232   5.992  1.2984 -4.0738  4.7985
  358MOL0     H47219   6.016   9.320   6.208 -0.5376 -1.3357  1.9472
  358MOL0     H47220   5.768   9.361   6.602  0.4303  1.7540  1.3904
  358MOL0     H47221   5.679   9.414   6.823 -1.3271  1.9672  0.7548
  358MOL0     H47222   5.294   9.561   6.989  2.3310 -1.1114  0.5882
  358MOL0     H47223   5.256   9.604   6.829 -1.9719  3.0096  1.8954
  358MOL0     H47224   5.283   9.801   6.902  0.8458 -1.2868 -0.6784
  358MOL0     H47225   5.446   9.792   6.841  0.0257  0.1360 -0.7298
  358MOL0     H47226   5.536   9.761   7.062  0.2395  0.1755  1.0555
  358MOL0     H47227   5.397   9.718   7.144  2.4960 -0.8197  1.6052
  358MOL0     H47228   5.417   9.983   6.991  0.6790 -1.3810 -1.5555
  358MOL0     H47229   5.295   9.944   7.114 -1.9062 -2.9050 -4.2054
  358MOL0     H47230   5.451  10.099   7.214  0.7521 -0.4210  1.5910
  358MOL0     H47231   5.587   9.985   7.159  0.6574 -2.8402  0.4799
  358MOL0     H47232   5.532   9.824   7.307  2.9421  1.8273 -2.5266
  358MOL0     H47233   5.402   9.915   7.390 -0.5981 -3.2577 -0.3282
  358MOL0     H47234   5.595  10.098   7.424 -1.5287  1.8870  0.7346
  358MOL0     H47235   5.590   9.950   7.524  1.9834  2.2454  0.4045
  358MOL0     H47236   5.820  10.003   7.436  1.1137 -0.5538 -0.1290
  358MOL0     H47237   5.757   9.984   7.270 -1.1433 -1.4782 -0.2254
  358MOL0     H47238   5.366   9.635   6.654  0.2038 -2.0037  4.6745
  358MOL0     H47239   5.463   9.616   6.423 -0.4375  1.7705  0.6537
  358MOL0     H47240   5.612   9.424   6.112  0.9950  1.8922 -0.2607
  358MOL0     H47241   5.650   9.308   5.888  0.2367  1.1006 -0.5360
  358MOL0     H47242   7.571   9.307   6.249  1.6063 -0.1288  1.3227
  358MOL0     H47243   7.706   9.261   6.417 -0.6095 -0.6888  0.6524
  358MOL0     H47244   7.751   9.169   6.959  0.3588  0.7352 -1.2245
  358MOL0     H47245   7.844   9.018   7.140  1.9010 -0.9143 -0.2444
  358MOL0     H47246   7.933   8.625   7.082 -0.0314 -2.1960 -0.7757
  358MOL0     H47247   7.766   8.582   7.093 -1.6544  0.6110  0.4418
  358MOL0     H47248   7.942   8.497   7.285  0.1337 -0.7432  1.7307
  358MOL0     H47249   7.901   8.656   7.363  0.1036  0.3537 -1.8221
  358MOL0     H47250   7.701   8.427   7.280 -3.4531  0.4412  0.9759
  358MOL0     H47251   7.643   8.573   7.335 -0.6878 -1.4029 -1.2070
  358MOL0     H47252   7.813   8.384   7.479  1.2842  1.4671 -1.1780
  358MOL0     H47253   7.766   8.550   7.553  1.2985  2.6346 -1.3749
  358MOL0     H47254   7.415   8.338   7.595  0.7360 -0.9211  0.2020
  358MOL0     H47255   7.733   8.686   6.904 -4.6351  0.3702 -0.2935
  358MOL0     H47256   7.667   8.843   6.710 -1.2292 -2.2279  1.2043
  359MOL0     O47257   2.440   2.428   5.793  0.4570 -0.1453 -0.0712
  359MOL0     C47258   2.455   2.496   5.887 -0.5152  0.3307 -0.9852
  359MOL0     O47259   2.365   2.511   5.988  1.0083  0.4969  0.6955
  359MOL0     C47260   2.263   2.426   5.989 -0.1402  0.5446  0.0819
  359MOL0     C47261   2.137   2.483   6.012 -0.5409 -0.3829  0.7222
  359MOL0     C47262   2.024   2.395   6.019 -0.8917 -0.2271 -0.2217
  359MOL0     C47263   2.033   2.256   5.999  0.2323  0.1961 -0.2880
  359MOL0     O47264   1.925   2.180   5.999  0.4966  0.5317  0.6270
  359MOL0     C47265   1.868   2.162   6.132 -0.0308 -0.4198 -0.1375
  359MOL0     C47266   1.747   2.071   6.132 -0.3004  0.0314 -0.6451
  359MOL0     C47267   1.633   2.152   6.067 -0.5390 -0.3074  0.9850
  359MOL0     C47268   1.558   2.239   6.170 -0.1447 -0.4019  0.4309
  359MOL0     C47269   1.416   2.277   6.111  0.3070  0.1581 -1.4743
  359MOL0     C47270   1.349   2.359   6.221 -1.3136 -0.3791  0.2718
  359MOL0     C47271   1.217   2.416   6.165 -0.2235 -0.7351  0.3041
  359MOL0     C47272   1.112   2.471   6.261  0.5949  0.2237  0.5271
  359MOL0     N47273   1.067   2.371   6.351  1.0060  0.6644 -0.3654
  359MOL0     C47274   0.973   2.273   6.316  0.1392  0.8250  0.6380
  359MOL0     C47275   0.963   2.190   6.426  0.8631  0.2417 -0.0039
  359MOL0     C47276   0.886   2.065   6.460  0.6078  0.2548 -0.3090
  359MOL0     C47277   0.743   2.097   6.473  1.2518 -0.3554 -0.0276
  359MOL0     C47278   0.721   2.183   6.597 -0.9987 -0.5155  0.9905
  359MOL0     C47279   0.570   2.185   6.623  0.1117  0.4755 -0.2492
  359MOL0     O47280   0.545   2.073   6.706 -0.7119 -0.0389  0.3766
  359MOL0     C47281   0.421   2.007   6.701  1.2444  1.4516  0.2183
  359MOL0     C47282   0.407   1.880   6.757 -0.0114 -0.0625 -0.4222
  359MOL0     C47283   0.286   1.812   6.755 -0.3461  0.2697 -0.8511
  359MOL0     C47284   0.173   1.877   6.700  0.0912 -0.5034 -0.3752
  359MOL0     C47285   0.031   1.820   6.704 -0.9174 -0.0247 -0.0307
  359MOL0     O47286  -0.063   1.871   6.615 -0.2853  0.3802  0.1180
  359MOL0     C47287  -0.186   1.814   6.630 -0.2260 -1.0260  0.3427
  359MOL0     C47288  -0.212   1.713   6.532 -0.5714  0.1737 -0.4186
  359MOL0     C47289  -0.339   1.670   6.526 -0.9345  0.2306 -0.6345
  359MOL0     C47290  -0.447   1.728   6.604 -0.4078 -0.6474  0.4606
  359MOL0     O47291  -0.581   1.698   6.589 -0.7206 -0.3634  0.4603
  359MOL0     C47292  -0.614   1.674   6.456  0.4496 -0.3356  1.1783
  359MOL0     C47293  -0.773   1.667   6.439 -0.2775 -0.5247 -0.5019
  359MOL0     C47294  -0.845   1.807   6.422  0.5908  0.6724  0.4935
  359MOL0     C47295  -0.979   1.792   6.360  0.3829  0.1827 -0.6426
  359MOL0     C47296  -1.076   1.706   6.451 -0.9976  0.2596 -0.6981
  359MOL0     C47297  -1.216   1.708   6.394  0.1679 -0.0991 -0.1683
  359MOL0     C47298  -1.315   1.626   6.479 -0.3275  0.0150 -0.0281
  359MOL0     C47299  -1.457   1.636   6.421  0.1102 -0.8177  0.2461
  359MOL0    Cl47300  -1.559   1.510   6.517 -0.2229 -0.1205  0.1713
  359MOL0     C47301  -0.414   1.825   6.698  0.4179  0.4877  0.5804
  359MOL0     C47302  -0.285   1.869   6.718 -0.4727 -1.1012  2.1101
  359MOL0     O47303   0.006   1.738   6.791 -0.3306  0.7449  0.4357
  359MOL0     C47304   0.188   1.996   6.631  0.4115 -0.8723 -0.4136
  359MOL0     C47305   0.308   2.061   6.622 -0.5889 -1.1424 -0.7253
  359MOL0     N47306   1.042   2.253   6.531  0.5365 -0.4497  0.6716
  359MOL0     N47307   1.116   2.345   6.478  0.4011 -0.9271  0.1075
  359MOL0     C47308   2.154   2.198   5.974  0.0973  0.2274 -0.2409
  359MOL0     C47309   2.273   2.280   5.977 -0.2916  0.1739 -0.5574
  359MOL0     C47310   2.562   2.602   5.876 -0.2651 -0.4176 -0.7460
  359MOL0     C47311   2.660   2.613   5.766  0.0038  0.5225 -0.0833
  359MOL0     C47312   2.781   2.687   5.793  0.1439 -1.1575  0.6159
  359MOL0     C47313   2.806   2.765   5.902  0.5355 -0.1900  0.1558
  359MOL0     O47314   2.932   2.827   5.927 -0.3387 -0.4000 -0.0799
  359MOL0     C47315   3.035   2.837   5.825  0.9157  0.4794 -0.0447
  359MOL0     C47316   3.053   2.985   5.758 -0.0043  0.4121 -0.7532
  359MOL0     C47317   2.925   3.034   5.693 -0.7141  0.5527 -0.3145
  359MOL0     C47318   2.911   3.188   5.700  0.6528  0.2996  0.1189
  359MOL0     C47319   3.020   3.258   5.631 -0.1192 -0.3305  0.7636
  359MOL0     C47320   3.097   3.320   5.558 -1.3062 -0.4874 -0.8487
  359MOL0     C47321   2.712   2.755   6.011 -0.7844 -0.6261 -0.0340
  359MOL0     C47322   2.606   2.664   5.995  1.0407 -0.9224 -0.5493
  359MOL0     H47323   2.129   2.590   6.026  0.1620 -0.4050  1.3770
  359MOL0     H47324   1.925   2.433   6.044 -0.1001  3.2157 -1.6924
  359MOL0     H47325   1.839   2.254   6.183  0.5695  0.2225 -0.9289
  359MOL0     H47326   1.944   2.116   6.197 -2.3328 -0.6369  2.5697
  359MOL0     H47327   1.714   2.053   6.234  2.2549  1.2327  0.4875
  359MOL0     H47328   1.767   1.978   6.077  2.2866 -0.1483  0.4408
  359MOL0     H47329   1.561   2.076   6.038 -0.3358 -0.6984  1.4926
  359MOL0     H47330   1.653   2.196   5.969 -2.0591  0.8927  1.1732
  359MOL0     H47331   1.540   2.176   6.257 -1.8361 -1.3861 -0.5656
  359MOL0     H47332   1.620   2.328   6.184 -1.5344  0.8813 -1.0201
  359MOL0     H47333   1.359   2.188   6.083  1.0186 -0.9498  0.3974
  359MOL0     H47334   1.433   2.336   6.021  4.4258  1.8728  0.1865
  359MOL0     H47335   1.419   2.442   6.231  0.2234 -1.5904 -0.0545
  359MOL0     H47336   1.337   2.313   6.320  0.8709 -0.9192  0.3170
  359MOL0     H47337   1.243   2.493   6.092  1.9837 -0.4913  1.2562
  359MOL0     H47338   1.168   2.336   6.109  1.2376 -1.1532 -0.4108
  359MOL0     H47339   1.036   2.515   6.196 -0.2516 -1.4445  0.3229
  359MOL0     H47340   1.158   2.557   6.310 -0.6841  1.1336  0.1773
  359MOL0     H47341   0.935   2.257   6.216 -1.1590 -0.1203  1.2599
  359MOL0     H47342   0.929   2.014   6.547  1.1059 -1.1593 -1.3647
  359MOL0     H47343   0.883   1.998   6.374 -3.2451  0.9030 -0.8394
  359MOL0     H47344   0.681   2.013   6.506  0.8166  1.2808  3.8866
  359MOL0     H47345   0.702   2.144   6.383  4.2563 -0.6866 -1.7164
  359MOL0     H47346   0.788   2.143   6.673 -1.1564 -0.8460  0.9588
  359MOL0     H47347   0.761   2.284   6.585  0.7887 -1.1805  1.0866
  359MOL0     H47348   0.517   2.176   6.528  1.5107 -2.1409 -0.8738
  359MOL0     H47349   0.540   2.280   6.669  1.1543  1.0809 -0.7631
  359MOL0     H47350   0.494   1.832   6.800  0.4564  2.1753  1.3577
  359MOL0     H47351   0.287   1.713   6.800 -0.6733 -0.3142 -2.0933
  359MOL0     H47352  -0.123   1.677   6.481 -1.1476  0.1155 -1.3921
  359MOL0     H47353  -0.367   1.581   6.471 -1.5624  0.4606 -0.6970
  359MOL0     H47354  -0.565   1.578   6.436  5.2701  2.3548 -2.0459
  359MOL0     H47355  -0.569   1.751   6.392  0.9523 -2.4135 -1.1684
  359MOL0     H47356  -0.811   1.601   6.518 -1.7244  1.5998  0.6666
  359MOL0     H47357  -0.793   1.619   6.343 -0.6450 -3.4088  0.9097
  359MOL0     H47358  -0.783   1.871   6.359  0.9214  0.1537  0.2798
  359MOL0     H47359  -0.859   1.835   6.526 -2.0343 -1.7774  0.9206
  359MOL0     H47360  -1.022   1.893   6.353 -1.2810  0.0697  4.2871
  359MOL0     H47361  -0.964   1.741   6.264 -2.0472 -1.9023 -0.0199
  359MOL0     H47362  -1.082   1.748   6.552 -2.2318  2.1737 -1.5043
  359MOL0     H47363  -1.053   1.600   6.461 -2.4888  0.1276  2.8764
  359MOL0     H47364  -1.214   1.654   6.299  1.5933 -2.1101  0.9087
  359MOL0     H47365  -1.241   1.814   6.393  0.9295  0.0959  0.6999
  359MOL0     H47366  -1.286   1.521   6.483  2.5036  0.6341 -1.4233
  359MOL0     H47367  -1.310   1.658   6.584 -3.3586  3.2971 -0.6798
  359MOL0     H47368  -1.453   1.621   6.313  1.2794  1.2790 -0.0475
  359MOL0     H47369  -1.500   1.735   6.434  0.4823 -0.5035 -0.8547
  359MOL0     H47370  -0.492   1.869   6.758  1.2879 -0.8839  2.8362
  359MOL0     H47371  -0.270   1.955   6.783 -6.4765  0.9191  1.4889
  359MOL0     H47372   0.113   2.039   6.565  2.7532  3.1862 -0.7933
  359MOL0     H47373   0.311   2.141   6.549  1.0160 -0.3898  0.1127
  359MOL0     H47374   2.159   2.090   5.970  1.2431  0.1826  1.5833
  359MOL0     H47375   2.362   2.218   5.980  0.0070  0.6236  1.4604
  359MOL0     H47376   2.632   2.565   5.673  3.2312 -3.7522  0.8966
  359MOL0     H47377   2.848   2.684   5.708 -0.0259 -1.4204  0.4873
  359MOL0     H47378   3.018   2.770   5.739  0.6938  0.0765  0.3096
  359MOL0     H47379   3.128   2.810   5.875  0.6835  0.7693  0.5489
  359MOL0     H47380   3.098   3.048   5.836 -0.3639  0.9168 -0.9548
  359MOL0     H47381   3.132   2.973   5.684  1.1062  1.6753  0.1706
  359MOL0     H47382   2.840   2.988   5.744 -1.1119 -1.8556 -2.9074
  359MOL0     H47383   2.915   2.996   5.591 -1.4899  0.6856 -0.2945
  359MOL0     H47384   2.822   3.201   5.639  0.1281  0.7244  0.9526
  359MOL0     H47385   2.887   3.229   5.799 -0.2848 -0.6840  0.3160
  359MOL0     H47386   3.144   3.379   5.482  2.2325 -1.3142  0.5025
  359MOL0     H47387   2.732   2.807   6.104  3.8294 -0.3734 -0.9390
  359MOL0     H47388   2.538   2.662   6.080  1.9888  1.8268  0.3693
  360MOL0     O47389   2.815   6.847   3.814 -0.4187  0.0477 -0.1180
  360MOL0     C47390   2.800   6.972   3.806  0.5007 -1.2707  0.8732
  360MOL0     O47391   2.736   7.033   3.696 -0.7377 -0.8227 -0.7802
  360MOL0     C47392   2.719   6.965   3.574 -0.0022  0.3965 -0.4066
  360MOL0     C47393   2.823   6.893   3.521  0.3533  0.6448 -0.2534
  360MOL0     C47394   2.801   6.811   3.412  1.1858  0.6755  0.2924
  360MOL0     C47395   2.690   6.813   3.333 -0.5929  0.1581  0.2670
  360MOL0     O47396   2.687   6.752   3.207 -0.3850 -0.4908 -0.7490
  360MOL0     C47397   2.788   6.798   3.119  0.0602  0.0540  0.0227
  360MOL0     C47398   2.731   6.733   2.988  0.3518  1.1647  0.6622
  360MOL0     C47399   2.834   6.767   2.874 -0.3459  0.3185 -0.7068
  360MOL0     C47400   2.766   6.770   2.733  0.2894  0.9506 -0.2767
  360MOL0     C47401   2.845   6.844   2.627  0.0245  0.4631 -0.2108
  360MOL0     C47402   2.755   6.847   2.503 -0.2900  0.4240  0.4897
  360MOL0     C47403   2.764   6.715   2.418 -0.1544 -0.5491 -0.0588
  360MOL0     C47404   2.632   6.707   2.324  0.0828  0.0304 -1.7673
  360MOL0     N47405   2.629   6.804   2.213 -0.4990  0.1143  0.5287
  360MOL0     C47406   2.611   6.935   2.228  0.6964 -1.3630 -0.0859
  360MOL0     C47407   2.575   6.975   2.101  0.7195 -0.1464  0.4019
  360MOL0     C47408   2.519   7.110   2.067  0.1196  0.2707  0.3675
  360MOL0     C47409   2.391   7.121   2.145 -0.2829  0.0070  0.6981
  360MOL0     C47410   2.272   7.049   2.083 -1.1514 -0.2678  0.0225
  360MOL0     C47411   2.187   7.160   2.013  0.7689  0.0580  0.2087
  360MOL0     O47412   2.118   7.242   2.109 -0.3451  0.5780  0.7595
  360MOL0     C47413   2.047   7.349   2.063  0.5925  0.4765  0.7387
  360MOL0     C47414   2.026   7.387   1.926 -1.1566 -0.5300 -0.3209
  360MOL0     C47415   1.954   7.503   1.888  0.5055  0.6105  0.3974
  360MOL0     C47416   1.918   7.589   1.994 -0.1030 -0.1079 -0.4601
  360MOL0     C47417   1.849   7.714   1.962 -0.0673 -0.8105 -0.3665
  360MOL0     O47418   1.774   7.779   2.059 -0.7024  0.5562 -0.4556
  360MOL0     C47419   1.735   7.907   2.022 -0.6336 -0.0172  0.0726
  360MOL0     C47420   1.603   7.938   2.074 -0.9102  0.0897  0.4624
  360MOL0     C47421   1.561   8.062   2.051  1.0071 -0.1516  0.0619
  360MOL0     C47422   1.625   8.159   1.984 -0.3517 -0.1708  0.1211
  360MOL0     O47423   1.571   8.276   1.947  0.5757 -0.3598  0.6678
  360MOL0     C47424   1.638   8.371   1.882 -0.5682 -0.8574 -0.3563
  360MOL0     C47425   1.539   8.474   1.819  0.3137  0.1660  0.7917
  360MOL0     C47426   1.463   8.527   1.929  0.8838 -0.5171 -0.8075
  360MOL0     C47427   1.386   8.650   1.876 -0.7093  0.1379  0.7108
  360MOL0     C47428   1.308   8.734   1.977  0.6953 -1.2279 -0.3074
  360MOL0     C47429   1.172   8.673   2.037 -0.1225  0.3194 -0.3610
  360MOL0     C47430   1.052   8.666   1.938 -0.8012  0.4094 -0.0511
  360MOL0     C47431   0.990   8.804   1.904 -0.6195  0.2301 -0.1787
  360MOL0    Cl47432   0.833   8.773   1.812 -0.0333 -0.3683 -0.6224
  360MOL0     C47433   1.749   8.126   1.944  0.8719 -0.1172 -1.1498
  360MOL0     C47434   1.806   7.999   1.964 -0.0709  0.0569 -0.6539
  360MOL0     O47435   1.860   7.747   1.843  0.2867  0.3549  0.3366
  360MOL0     C47436   1.926   7.546   2.124 -0.5979  0.0188  0.5850
  360MOL0     C47437   1.978   7.419   2.155 -0.1670 -0.2626 -0.3421
  360MOL0     N47438   2.610   6.874   2.006  0.0269  0.8191  1.2156
  360MOL0     N47439   2.638   6.772   2.082 -0.1916  0.8089 -0.3350
  360MOL0     C47440   2.585   6.899   3.376 -0.4809  0.8693  0.2294
  360MOL0     C47441   2.594   6.972   3.503 -0.7304  0.1613  0.6980
  360MOL0     C47442   2.869   7.048   3.906 -0.3268 -0.4772  0.3445
  360MOL0     C47443   2.929   6.985   4.017 -0.5760 -0.8695 -0.0739
  360MOL0     C47444   3.006   7.072   4.108  1.0233 -0.5369 -0.1728
  360MOL0     C47445   3.010   7.208   4.090  0.7335 -0.2698 -0.2676
  360MOL0     O47446   3.071   7.282   4.196  0.3057  0.0961 -0.6587
  360MOL0     C47447   3.075   7.430   4.190 -0.4277  0.2404 -0.1281
  360MOL0     C47448   3.130   7.475   4.331 -0.2972  0.8319  0.0043
  360MOL0     C47449   3.044   7.435   4.443 -0.6712  1.0745 -0.2131
  360MOL0     C47450   3.083   7.508   4.576  0.2638  0.1774  0.5773
  360MOL0     C47451   3.228   7.491   4.607 -0.2589  0.2698 -0.1397
  360MOL0     C47452   3.348   7.490   4.635 -1.1572 -0.7010  0.4188
  360MOL0     C47453   2.931   7.274   3.985  0.3725  0.8151 -0.6538
  360MOL0     C47454   2.862   7.191   3.895 -1.2552 -0.8092 -0.5308
  360MOL0     H47455   2.923   6.890   3.563  0.3617  0.2939 -0.2965
  360MOL0     H47456   2.890   6.759   3.376  2.3065  1.1786  2.2130
  360MOL0     H47457   2.877   6.737   3.136 -0.9265 -0.9317  1.9761
  360MOL0     H47458   2.804   6.905   3.108  0.1662 -0.1027 -1.6399
  360MOL0     H47459   2.631   6.765   2.956 -0.7027 -2.6818 -0.4119
  360MOL0     H47460   2.736   6.628   3.017 -0.9302  1.9271  4.2756
  360MOL0     H47461   2.905   6.684   2.875 -1.9401 -1.1134  0.4611
  360MOL0     H47462   2.890   6.859   2.889  0.1002 -0.2376  1.3067
  360MOL0     H47463   2.743   6.667   2.704 -0.0342 -0.3744  3.9159
  360MOL0     H47464   2.670   6.822   2.740  0.6411  2.1399 -2.9746
  360MOL0     H47465   2.943   6.801   2.607  1.4875  2.2374  2.5697
  360MOL0     H47466   2.863   6.948   2.656  3.9914  0.1733 -1.0733
  360MOL0     H47467   2.795   6.926   2.439  0.2488  0.7069  1.1574
  360MOL0     H47468   2.652   6.871   2.532 -1.7421 -0.6068 -3.2394
  360MOL0     H47469   2.859   6.702   2.365  2.3091  1.6070  3.3898
  360MOL0     H47470   2.762   6.631   2.487  1.8848 -0.2687  0.4086
  360MOL0     H47471   2.555   6.735   2.396  2.6236  0.3982  1.0239
  360MOL0     H47472   2.614   6.610   2.278 -3.0174  0.5690 -1.8901
  360MOL0     H47473   2.609   6.998   2.317 -1.2015  0.5560 -1.3799
  360MOL0     H47474   2.513   7.114   1.958  1.8390  1.4446  0.2670
  360MOL0     H47475   2.589   7.189   2.093  0.9695 -0.6114  0.8372
  360MOL0     H47476   2.386   7.230   2.154  2.1833  0.1732  0.6978
  360MOL0     H47477   2.413   7.091   2.247  3.0156 -2.5549 -0.5642
  360MOL0     H47478   2.312   6.975   2.013  1.0996  2.4748 -1.8136
  360MOL0     H47479   2.212   7.002   2.162 -2.3062 -1.2790 -1.3870
  360MOL0     H47480   2.107   7.112   1.956  0.1744 -0.8097  1.7228
  360MOL0     H47481   2.245   7.222   1.944  0.2267  1.3879  0.9171
  360MOL0     H47482   2.066   7.331   1.843  0.0224 -0.2266  0.0284
  360MOL0     H47483   1.935   7.522   1.783 -1.7350 -0.7216  0.5057
  360MOL0     H47484   1.544   7.863   2.125 -1.1995 -1.4444 -1.9480
  360MOL0     H47485   1.466   8.089   2.097 -0.1254 -1.8247 -1.1654
  360MOL0     H47486   1.688   8.324   1.797  3.3554  1.9326  0.0993
  360MOL0     H47487   1.712   8.428   1.940  1.0853 -2.7969 -0.4595
  360MOL0     H47488   1.475   8.413   1.755 -1.0588 -0.8453  2.9974
  360MOL0     H47489   1.599   8.544   1.760  0.4572 -0.7732 -0.1975
  360MOL0     H47490   1.517   8.566   2.016  1.1579 -1.4917 -0.5225
  360MOL0     H47491   1.393   8.448   1.957 -0.1261  0.3272 -0.8803
  360MOL0     H47492   1.457   8.715   1.824  0.5415  0.8307  3.1440
  360MOL0     H47493   1.310   8.618   1.804 -0.5423 -1.3416  1.1444
  360MOL0     H47494   1.281   8.834   1.943  2.0643  0.0618  2.0510
  360MOL0     H47495   1.387   8.752   2.051 -0.2089  2.4323 -0.0241
  360MOL0     H47496   1.132   8.728   2.123  0.5197  0.5950 -0.2371
  360MOL0     H47497   1.193   8.574   2.078 -1.6364 -0.9794 -2.4637
  360MOL0     H47498   1.072   8.605   1.849 -0.5087 -2.3994  1.8242
  360MOL0     H47499   0.973   8.608   1.986 -0.1529 -1.0931 -0.7493
  360MOL0     H47500   1.054   8.856   1.833  0.0849 -0.7098 -0.2423
  360MOL0     H47501   0.983   8.871   1.991 -0.8356 -0.7103  0.5472
  360MOL0     H47502   1.821   8.196   1.902  2.5102 -1.0488  0.0160
  360MOL0     H47503   1.903   7.974   1.922  0.3035 -0.7251  0.6243
  360MOL0     H47504   1.892   7.604   2.210  1.6092  0.1764  1.4040
  360MOL0     H47505   1.980   7.381   2.256 -0.1953 -1.1895 -0.6807
  360MOL0     H47506   2.492   6.899   3.319  0.9092 -4.8462 -2.7938
  360MOL0     H47507   2.519   7.038   3.544  2.0045  3.9386  0.0777
  360MOL0     H47508   2.920   6.878   4.037 -1.6710 -1.5356 -3.4668
  360MOL0     H47509   3.052   7.031   4.197 -0.2062 -3.4171 -0.7545
  360MOL0     H47510   2.975   7.468   4.169 -1.2026 -1.1191  0.9145
  360MOL0     H47511   3.142   7.453   4.108 -3.3616  2.7473 -2.0357
  360MOL0     H47512   3.228   7.429   4.342  0.9182  3.2665  0.0146
  360MOL0     H47513   3.139   7.584   4.327 -1.0228  1.0100  1.9852
  360MOL0     H47514   3.052   7.327   4.461 -2.3661  1.3181  2.6589
  360MOL0     H47515   2.938   7.454   4.423 -1.1856 -2.8058 -2.1947
  360MOL0     H47516   3.070   7.617   4.571  0.5498  0.1809 -0.1877
  360MOL0     H47517   3.025   7.467   4.660 -1.1251 -3.1433 -1.8144
  360MOL0     H47518   3.453   7.496   4.654 -1.5378  3.0495  2.2969
  360MOL0     H47519   2.947   7.378   3.959 -0.2108  0.3789 -3.0120
  360MOL0     H47520   2.810   7.243   3.815 -4.4008 -2.3114  0.3740
  361MOL0     O47521   8.111   0.243   3.667 -0.0181 -0.5931 -0.5988
  361MOL0     C47522   8.187   0.242   3.766 -0.5696  0.9809  1.6219
  361MOL0     O47523   8.170   0.171   3.887 -0.4838  0.0302 -0.6637
  361MOL0     C47524   8.051   0.110   3.909  0.3547 -0.4541  0.5834
  361MOL0     C47525   7.921   0.175   3.890 -0.0475 -0.3265  0.1366
  361MOL0     C47526   7.800   0.132   3.933 -0.2188  0.0402 -0.0379
  361MOL0     C47527   7.798   0.017   4.006  0.5123  0.1828 -0.9621
  361MOL0     O47528   7.675  -0.045   4.031 -0.3511  0.4609  0.2624
  361MOL0     C47529   7.565  -0.042   3.939 -0.3208  0.6038  0.3587
  361MOL0     C47530   7.535  -0.188   3.883  0.0370  0.7472  0.3595
  361MOL0     C47531   7.478  -0.280   4.000  0.7377  0.6564 -0.0563
  361MOL0     C47532   7.339  -0.235   4.048  0.5554  0.1574  1.0780
  361MOL0     C47533   7.299  -0.310   4.180  0.0999 -0.9971  0.2107
  361MOL0     C47534   7.175  -0.240   4.234  1.1473 -0.1431 -0.6002
  361MOL0     C47535   7.131  -0.292   4.369 -0.3756  0.5366  0.9723
  361MOL0     C47536   7.046  -0.198   4.457  1.5221  0.1116  0.5201
  361MOL0     N47537   7.118  -0.129   4.566  0.7881  0.0265 -0.6942
  361MOL0     C47538   7.059  -0.040   4.651 -0.5120 -0.2008 -0.3046
  361MOL0     C47539   7.160   0.014   4.717  0.9103  0.5265  0.2453
  361MOL0     C47540   7.150   0.092   4.842 -0.4244 -0.1657  0.7495
  361MOL0     C47541   7.282   0.139   4.899 -0.1519  1.2940  0.6581
  361MOL0     C47542   7.269   0.203   5.034 -0.8029 -0.1195 -1.7349
  361MOL0     C47543   7.156   0.320   5.048 -0.3391 -0.1268  0.0590
  361MOL0     O47544   7.221   0.423   5.121  0.0960  0.4012  0.7219
  361MOL0     C47545   7.158   0.470   5.229  0.4029  0.5654 -0.9645
  361MOL0     C47546   7.201   0.434   5.346 -0.4629 -0.7832 -0.4482
  361MOL0     C47547   7.163   0.491   5.471  0.3518 -0.5047  0.4728
  361MOL0     C47548   7.073   0.594   5.472  0.4195 -0.2119  0.0267
  361MOL0     C47549   7.028   0.670   5.587 -1.0401  0.3810 -0.3232
  361MOL0     O47550   7.049   0.613   5.710 -0.1484  0.9666 -0.8902
  361MOL0     C47551   7.005   0.677   5.817  0.5645 -0.1255  0.1572
  361MOL0     C47552   7.096   0.703   5.922  0.0942 -0.3970 -0.7674
  361MOL0     C47553   7.055   0.780   6.038 -0.1512  0.6586 -0.1996
  361MOL0     C47554   6.921   0.821   6.043  0.1660 -0.2622  1.1350
  361MOL0     O47555   6.874   0.902   6.133  0.1571 -0.6203 -0.4942
  361MOL0     C47556   6.951   0.918   6.258  0.2943 -0.1697 -0.5276
  361MOL0     C47557   6.876   1.021   6.345 -0.1871 -0.6787 -0.2125
  361MOL0     C47558   6.733   0.977   6.388  0.9123  0.4389 -0.9490
  361MOL0     C47559   6.682   1.036   6.520  0.3062  1.8210 -0.1934
  361MOL0     C47560   6.551   0.998   6.585 -0.1598  0.0492  0.0735
  361MOL0     C47561   6.526   0.843   6.582 -1.3537  0.6659 -0.9898
  361MOL0     C47562   6.408   0.827   6.675  0.4034  0.5198  0.3474
  361MOL0     C47563   6.378   0.672   6.677  0.7184  0.6403  0.3077
  361MOL0    Cl47564   6.218   0.664   6.743 -0.3080  0.0126  0.4383
  361MOL0     C47565   6.827   0.779   5.948  0.7791 -0.1999  0.2293
  361MOL0     C47566   6.869   0.704   5.837 -0.3427 -0.1393  0.2409
  361MOL0     O47567   6.990   0.782   5.569 -0.9081 -0.2161 -0.1913
  361MOL0     C47568   7.026   0.630   5.338 -0.3113 -0.4991  0.2682
  361MOL0     C47569   7.058   0.565   5.219 -0.3736 -0.5546  0.3716
  361MOL0     N47570   7.281  -0.030   4.666 -0.7492 -0.1754 -0.1066
  361MOL0     N47571   7.253  -0.111   4.573  0.2031  0.4809  0.0735
  361MOL0     C47572   7.920  -0.053   4.036 -0.1661 -0.5783  0.3821
  361MOL0     C47573   8.041  -0.005   3.981 -0.3437  0.0884 -0.1867
  361MOL0     C47574   8.318   0.312   3.757  0.3335 -0.9458  0.1398
  361MOL0     C47575   8.340   0.402   3.650  0.5710 -0.1519  0.2348
  361MOL0     C47576   8.468   0.454   3.644 -0.8845 -0.5363 -0.2097
  361MOL0     C47577   8.575   0.412   3.725 -0.2370  0.1440 -0.6877
  361MOL0     O47578   8.696   0.484   3.724 -0.2519  0.5929  0.7989
  361MOL0     C47579   8.810   0.422   3.783 -1.0929  0.2304 -0.2740
  361MOL0     C47580   8.937   0.441   3.691 -0.9017 -0.2870  0.3157
  361MOL0     C47581   9.007   0.584   3.719  0.1970  0.8122  0.6663
  361MOL0     C47582   9.105   0.622   3.619 -0.4736  0.1355  0.1166
  361MOL0     C47583   9.160   0.758   3.645  0.3866 -0.0110  0.1280
  361MOL0     C47584   9.188   0.875   3.663 -0.3601 -0.2246 -0.6082
  361MOL0     C47585   8.547   0.323   3.831  1.0685 -0.2306 -0.1022
  361MOL0     C47586   8.415   0.283   3.849  0.8103 -1.5349  1.8538
  361MOL0     H47587   7.915   0.276   3.850 -1.1626  1.4007  4.1494
  361MOL0     H47588   7.708   0.187   3.924 -1.9535 -2.4540  1.1962
  361MOL0     H47589   7.593   0.015   3.850  0.2771 -0.9163 -0.4695
  361MOL0     H47590   7.487   0.003   4.001  1.7397 -0.7935  4.3519
  361MOL0     H47591   7.625  -0.226   3.833 -0.8393 -2.7014  1.1000
  361MOL0     H47592   7.449  -0.186   3.815  0.7252 -0.2383 -0.5676
  361MOL0     H47593   7.547  -0.256   4.082 -0.2349  1.0742  0.6608
  361MOL0     H47594   7.474  -0.384   3.966 -1.4641  1.3006 -1.9781
  361MOL0     H47595   7.337  -0.127   4.062  1.8005  0.6188 -1.5682
  361MOL0     H47596   7.277  -0.254   3.960 -0.3665  5.6463  0.2078
  361MOL0     H47597   7.384  -0.294   4.246  2.2981 -0.0911 -2.6386
  361MOL0     H47598   7.297  -0.419   4.170  2.3059 -1.4212  2.9858
  361MOL0     H47599   7.097  -0.235   4.156  1.3871  2.5506 -0.7711
  361MOL0     H47600   7.206  -0.138   4.255 -0.9876  0.7728 -1.5748
  361MOL0     H47601   7.078  -0.387   4.359 -1.1995  1.0521  0.3811
  361MOL0     H47602   7.212  -0.321   4.437 -1.0588  2.3178  2.6371
  361MOL0     H47603   6.968  -0.264   4.494  1.7983 -1.3593 -1.3470
  361MOL0     H47604   7.007  -0.123   4.388 -0.9512  0.1594  1.8716
  361MOL0     H47605   6.952  -0.024   4.664 -0.8158 -2.6246  0.7601
  361MOL0     H47606   7.096   0.030   4.914 -0.1465 -1.5061 -0.1430
  361MOL0     H47607   7.101   0.185   4.812  1.1459  0.7344  0.8579
  361MOL0     H47608   7.317   0.218   4.832  1.7577 -1.7079 -2.2121
  361MOL0     H47609   7.354   0.058   4.916 -0.3490  0.8560 -0.4917
  361MOL0     H47610   7.244   0.121   5.102  0.9540  0.1560 -0.7067
  361MOL0     H47611   7.364   0.250   5.063 -1.2577  1.1829 -2.2595
  361MOL0     H47612   7.058   0.288   5.085 -1.6254  1.8179 -1.5188
  361MOL0     H47613   7.125   0.361   4.952  0.8581  0.6926  0.0020
  361MOL0     H47614   7.258   0.342   5.339  1.2579  0.1967 -0.0120
  361MOL0     H47615   7.187   0.444   5.566 -2.1938  0.2607  1.5676
  361MOL0     H47616   7.201   0.674   5.915 -0.8618 -3.8929 -2.8213
  361MOL0     H47617   7.127   0.782   6.119  3.2177 -0.2587 -2.9047
  361MOL0     H47618   7.048   0.962   6.233  1.0966 -2.3058 -1.5202
  361MOL0     H47619   6.961   0.828   6.320 -1.4454  1.3763  2.1656
  361MOL0     H47620   6.854   1.114   6.292 -0.1898  0.2259  1.3262
  361MOL0     H47621   6.936   1.037   6.434  1.2867 -0.9607 -1.1169
  361MOL0     H47622   6.729   0.868   6.387 -3.0001  0.4203 -2.7748
  361MOL0     H47623   6.651   1.002   6.321 -0.7038 -0.2609  0.7005
  361MOL0     H47624   6.744   1.004   6.604  0.2168 -1.9704 -1.4055
  361MOL0     H47625   6.688   1.145   6.528  1.2717  1.6140  3.5805
  361MOL0     H47626   6.470   1.049   6.531  0.2953 -0.4079 -1.0658
  361MOL0     H47627   6.553   1.034   6.689 -0.7513 -0.7817  0.3834
  361MOL0     H47628   6.609   0.784   6.622 -2.3874  0.2491  0.6870
  361MOL0     H47629   6.497   0.815   6.480 -3.8700  0.6020 -0.3447
  361MOL0     H47630   6.428   0.849   6.781  0.1989 -0.3739  0.5795
  361MOL0     H47631   6.326   0.892   6.644  0.6467  2.1290  2.7720
  361MOL0     H47632   6.461   0.619   6.725 -1.3377 -4.3438 -0.9297
  361MOL0     H47633   6.368   0.630   6.576 -3.6142  1.2766  0.2986
  361MOL0     H47634   6.721   0.802   5.960 -0.0197 -2.5375 -1.6122
  361MOL0     H47635   6.803   0.674   5.757 -0.9915  0.4207  0.5654
  361MOL0     H47636   6.960   0.715   5.324 -1.7284 -1.6263 -0.0383
  361MOL0     H47637   7.018   0.592   5.121  0.3391  1.1645  0.5087
  361MOL0     H47638   7.911  -0.153   4.077  1.0431  0.2616  2.8982
  361MOL0     H47639   8.137  -0.052   4.000  0.1710  1.8821  2.1586
  361MOL0     H47640   8.271   0.429   3.571  3.5751 -3.3416 -3.9901
  361MOL0     H47641   8.493   0.536   3.577 -1.0167  0.6989  1.2010
  361MOL0     H47642   8.798   0.313   3.790  1.4787 -0.1777 -0.9804
  361MOL0     H47643   8.834   0.458   3.884  1.1337 -2.1046  0.1242
  361MOL0     H47644   9.007   0.367   3.730  1.7965  2.2598  0.6720
  361MOL0     H47645   8.920   0.417   3.586  1.7479  1.6428 -0.6485
  361MOL0     H47646   9.051   0.572   3.818 -0.8377  2.0305  1.3096
  361MOL0     H47647   8.938   0.669   3.727 -0.8612  0.3794 -2.3031
  361MOL0     H47648   9.190   0.553   3.626 -0.3396 -0.4021 -4.1397
  361MOL0     H47649   9.068   0.627   3.516  3.1468  5.2099 -1.3593
  361MOL0     H47650   9.224   0.974   3.683  2.0639 -1.7304  4.0531
  361MOL0     H47651   8.621   0.294   3.905 -0.6956  0.4917  2.0516
  361MOL0     H47652   8.406   0.224   3.940 -2.0328 -0.3425  2.4498
  362MOL0     O47653   0.599   4.929   5.348 -0.2668 -1.3846  0.2554
  362MOL0     C47654   0.483   4.987   5.344 -0.5090  0.1986 -0.5143
  362MOL0     O47655   0.471   5.107   5.355  0.9526 -0.4924 -0.3030
  362MOL0     C47656   0.553   5.189   5.436  0.1264  0.1423 -0.3085
  362MOL0     C47657   0.598   5.314   5.402 -0.4964  0.0288  0.9691
  362MOL0     C47658   0.669   5.393   5.490 -0.2970 -0.6598 -0.0943
  362MOL0     C47659   0.693   5.344   5.626  0.6062  0.8132  0.5317
  362MOL0     O47660   0.744   5.425   5.729  0.6639 -0.4421  0.6997
  362MOL0     C47661   0.875   5.479   5.706 -0.6134  0.1067 -0.9945
  362MOL0     C47662   0.878   5.619   5.778 -0.5343  0.3606  0.4817
  362MOL0     C47663   0.752   5.696   5.735 -0.1427  0.4363  0.4086
  362MOL0     C47664   0.727   5.844   5.790 -0.5357  0.5498  0.0308
  362MOL0     C47665   0.828   5.951   5.725  0.4857  0.1180 -0.6023
  362MOL0     C47666   0.800   6.086   5.788 -0.1296  0.2279  0.6530
  362MOL0     C47667   0.874   6.196   5.716  0.3959  0.0504  0.8543
  362MOL0     C47668   0.833   6.339   5.732 -0.1943  0.6486 -0.5668
  362MOL0     N47669   0.909   6.421   5.827  0.2522  0.7035  0.6721
  362MOL0     C47670   0.892   6.417   5.965  0.3123 -0.8653  0.5530
  362MOL0     C47671   0.982   6.515   6.009 -0.0821  1.0359 -0.8317
  362MOL0     C47672   0.995   6.540   6.164  0.3564 -0.6246 -0.0034
  362MOL0     C47673   1.131   6.559   6.217  0.9626 -0.5925  0.0063
  362MOL0     C47674   1.117   6.583   6.371 -0.7193  0.3647 -0.3184
  362MOL0     C47675   1.049   6.479   6.455 -0.1585 -1.0290 -0.0394
  362MOL0     O47676   1.080   6.481   6.604 -0.4872  0.2915 -0.3346
  362MOL0     C47677   1.179   6.402   6.657  0.4943  0.4654 -0.2697
  362MOL0     C47678   1.292   6.362   6.590  0.1962 -0.3698 -0.4592
  362MOL0     C47679   1.385   6.281   6.657  0.6346 -0.6063  1.1438
  362MOL0     C47680   1.379   6.246   6.789 -0.5205  0.3004 -0.7414
  362MOL0     C47681   1.479   6.156   6.858  0.1990 -0.7360 -0.3316
  362MOL0     O47682   1.487   6.173   6.996 -0.2222 -0.4961 -0.2499
  362MOL0     C47683   1.566   6.090   7.065 -0.1920  0.5682 -1.4938
  362MOL0     C47684   1.510   5.990   7.142  0.6035  0.3646  0.2182
  362MOL0     C47685   1.595   5.889   7.198  0.4961 -0.7508 -0.2167
  362MOL0     C47686   1.736   5.902   7.193 -0.0790  0.6611 -0.9428
  362MOL0     O47687   1.818   5.810   7.250 -0.3291  0.4247  0.8760
  362MOL0     C47688   1.806   5.803   7.393 -0.7127 -0.0205  0.8605
  362MOL0     C47689   1.883   5.917   7.455 -0.6349 -0.2087  0.7374
  362MOL0     C47690   1.898   5.901   7.611 -0.0702 -1.1179  0.5742
  362MOL0     C47691   1.765   5.892   7.687 -0.4001  0.6211  0.0468
  362MOL0     C47692   1.786   5.903   7.839  0.0269 -0.5365 -0.4684
  362MOL0     C47693   1.672   5.838   7.916 -0.0389  0.2428 -0.3250
  362MOL0     C47694   1.627   5.884   8.060  0.2958  0.4572  0.9570
  362MOL0     C47695   1.488   5.838   8.079 -0.5884  0.3670  0.4917
  362MOL0    Cl47696   1.475   5.789   8.243  0.1908  0.2994  0.4326
  362MOL0     C47697   1.789   6.005   7.122 -0.3978 -0.0692  0.0482
  362MOL0     C47698   1.706   6.095   7.055 -0.1447 -0.4148 -0.8086
  362MOL0     O47699   1.558   6.088   6.788 -0.4666 -0.2442 -0.2464
  362MOL0     C47700   1.251   6.272   6.849 -0.3339  0.9567 -0.4765
  362MOL0     C47701   1.150   6.353   6.784 -0.3771 -0.5540  0.1745
  362MOL0     N47702   1.056   6.557   5.899  0.2463  0.4198  0.6526
  362MOL0     N47703   1.004   6.504   5.791 -0.5289 -0.2498 -0.5960
  362MOL0     C47704   0.634   5.219   5.665  1.2140 -0.5208  0.1555
  362MOL0     C47705   0.569   5.148   5.566  0.5671 -0.0846  0.2476
  362MOL0     C47706   0.365   4.895   5.317 -0.1941  0.8519  0.5686
  362MOL0     C47707   0.236   4.946   5.311  0.0810  0.1872  0.4469
  362MOL0     C47708   0.125   4.859   5.294  0.3546 -0.1774 -0.1255
  362MOL0     C47709   0.150   4.725   5.275 -0.1822  0.1525  0.7618
  362MOL0     O47710   0.044   4.648   5.244  0.3041  0.9004  0.0964
  362MOL0     C47711  -0.007   4.569   5.349  0.6834 -0.0523  0.2506
  362MOL0     C47712  -0.145   4.622   5.360 -1.1030  0.4166  0.3910
  362MOL0     C47713  -0.206   4.565   5.485  0.3733 -1.1804 -0.2861
  362MOL0     C47714  -0.340   4.627   5.492  0.0752  0.4882 -0.5010
  362MOL0     C47715  -0.424   4.524   5.560  0.2381 -0.5310  0.4821
  362MOL0     C47716  -0.470   4.431   5.617  0.5527  1.0948  0.5512
  362MOL0     C47717   0.274   4.665   5.265  1.0445 -0.1740 -0.3291
  362MOL0     C47718   0.381   4.759   5.277  0.1937 -0.2208  0.3841
  362MOL0     H47719   0.582   5.349   5.300  2.9951  0.2475  0.3527
  362MOL0     H47720   0.712   5.488   5.461  0.1707 -0.7524  0.2849
  362MOL0     H47721   0.893   5.493   5.599 -0.2358  2.8787 -0.6537
  362MOL0     H47722   0.944   5.412   5.758 -0.5078  0.0428 -1.2185
  362MOL0     H47723   0.975   5.664   5.756 -0.6348  0.4363  0.1856
  362MOL0     H47724   0.862   5.596   5.884 -2.9420  1.8807  0.5325
  362MOL0     H47725   0.662   5.637   5.756  0.1657  0.0002  0.5151
  362MOL0     H47726   0.773   5.710   5.628  0.4601  1.6880  0.6657
  362MOL0     H47727   0.623   5.873   5.769 -0.5188  2.3301  2.0262
  362MOL0     H47728   0.737   5.826   5.897 -1.2860 -2.7700 -0.3519
  362MOL0     H47729   0.810   5.950   5.617 -2.7145 -1.5511 -0.1957
  362MOL0     H47730   0.932   5.920   5.738 -0.4505 -1.9261  4.3863
  362MOL0     H47731   0.821   6.086   5.895 -1.8723  2.1302  1.0613
  362MOL0     H47732   0.693   6.106   5.784  0.1449  1.9083 -3.4925
  362MOL0     H47733   0.982   6.192   5.737  0.4990  1.1808  0.6051
  362MOL0     H47734   0.878   6.182   5.608  0.1810  2.0514  0.5578
  362MOL0     H47735   0.724   6.330   5.744 -0.1560 -1.6048 -1.4484
  362MOL0     H47736   0.846   6.383   5.633  0.5104 -0.1554 -0.8401
  362MOL0     H47737   0.817   6.367   6.025 -1.9825 -1.5634 -2.5983
  362MOL0     H47738   0.964   6.446   6.210 -0.9746  1.0629  2.8359
  362MOL0     H47739   0.936   6.629   6.187  3.6786  2.0992 -1.0774
  362MOL0     H47740   1.183   6.642   6.170  0.6584  0.2178  1.0662
  362MOL0     H47741   1.186   6.467   6.193  2.1440 -0.6943  2.7100
  362MOL0     H47742   1.218   6.583   6.413 -1.2708 -2.0056  1.1774
  362MOL0     H47743   1.062   6.676   6.391  2.5833  2.7974 -1.5971
  362MOL0     H47744   1.083   6.384   6.415  1.9789 -0.6453  0.7535
  362MOL0     H47745   0.940   6.484   6.457 -0.2315  5.1300  1.7912
  362MOL0     H47746   1.316   6.406   6.494 -1.0873  1.3300 -0.0395
  362MOL0     H47747   1.476   6.244   6.611  1.8420  2.6650  0.6830
  362MOL0     H47748   1.402   5.986   7.153  0.6076  0.5564  0.3153
  362MOL0     H47749   1.555   5.808   7.258 -0.2864  0.3686  0.7996
  362MOL0     H47750   1.857   5.709   7.418  2.4137  1.6451  1.3652
  362MOL0     H47751   1.705   5.798   7.433 -0.3961  0.2894  1.7272
  362MOL0     H47752   1.835   6.011   7.430 -0.2315 -0.5376 -1.4177
  362MOL0     H47753   1.981   5.927   7.408 -0.9153 -0.4895  0.0745
  362MOL0     H47754   1.961   5.977   7.658 -2.1653  2.1461 -1.4737
  362MOL0     H47755   1.948   5.805   7.624 -0.8325 -2.1597 -3.0447
  362MOL0     H47756   1.708   5.977   7.647 -0.1585 -0.7184 -3.4621
  362MOL0     H47757   1.713   5.798   7.670 -2.0595  1.5948 -0.5371
  362MOL0     H47758   1.778   6.008   7.869 -3.1946  0.1605 -3.1756
  362MOL0     H47759   1.882   5.867   7.875  0.2144 -1.3665 -1.7485
  362MOL0     H47760   1.690   5.731   7.922 -1.5419  0.0426  3.3111
  362MOL0     H47761   1.582   5.858   7.856 -1.4001  0.5176  1.7064
  362MOL0     H47762   1.682   5.836   8.142  0.1715  0.8659  1.2822
  362MOL0     H47763   1.632   5.992   8.078 -0.5228  0.5503  0.6544
  362MOL0     H47764   1.467   5.758   8.008 -3.4296  0.1618  1.4664
  362MOL0     H47765   1.409   5.910   8.055 -1.8587 -0.8919  0.8435
  362MOL0     H47766   1.895   6.025   7.112 -0.3627  0.4314  1.2551
  362MOL0     H47767   1.749   6.185   7.014  0.5210 -1.6029 -2.8324
  362MOL0     H47768   1.232   6.223   6.944 -1.8055 -0.3394 -1.3917
  362MOL0     H47769   1.057   6.381   6.833 -0.4909 -0.9882  0.2111
  362MOL0     H47770   0.635   5.190   5.770  1.0727  2.5431  1.0981
  362MOL0     H47771   0.531   5.052   5.598  3.1575 -1.6963 -1.2228
  362MOL0     H47772   0.220   5.052   5.333 -3.0409 -0.1200  0.0414
  362MOL0     H47773   0.021   4.891   5.295  0.4657  0.3431  2.4559
  362MOL0     H47774   0.054   4.584   5.439 -0.4862 -1.1197  1.2586
  362MOL0     H47775  -0.010   4.464   5.322 -0.6134 -0.0842  0.4252
  362MOL0     H47776  -0.149   4.731   5.361  1.5684  0.5740  0.9882
  362MOL0     H47777  -0.205   4.595   5.273 -1.6889  2.8902 -0.0648
  362MOL0     H47778  -0.146   4.593   5.572 -0.1780  0.9406 -0.5523
  362MOL0     H47779  -0.210   4.456   5.469 -2.6212 -1.1457 -0.4389
  362MOL0     H47780  -0.335   4.713   5.558 -0.1720  0.5835 -0.6055
  362MOL0     H47781  -0.385   4.668   5.401  2.6266  2.4481 -0.9767
  362MOL0     H47782  -0.520   4.357   5.677 -1.1115  2.2441  0.6761
  362MOL0     H47783   0.287   4.561   5.239  1.2191  0.2996 -2.2420
  362MOL0     H47784   0.483   4.725   5.263  0.4455  0.2818  0.9533
  363MOL0     O47785   3.243  10.956  10.900 -0.4363  0.1977 -0.1809
  363MOL0     C47786   3.204  11.074  10.909 -0.5454  1.6331 -0.2659
  363MOL0     O47787   3.244  11.176  10.829 -0.2756 -0.2760  0.1041
  363MOL0     C47788   3.328  11.151  10.719 -0.4772  0.5734 -0.7867
  363MOL0     C47789   3.328  11.036  10.641 -0.2554 -0.5251  0.0822
  363MOL0     C47790   3.419  11.023  10.538  0.1794  0.3461 -0.5029
  363MOL0     C47791   3.518  11.114  10.507  0.3861  0.0245 -0.7348
  363MOL0     O47792   3.602  11.091  10.404  0.1840 -0.3608  0.1044
  363MOL0     C47793   3.669  11.201  10.333  0.2806  0.2571 -0.0356
  363MOL0     C47794   3.815  11.192  10.388  0.3227 -0.0038  0.1661
  363MOL0     C47795   3.900  11.279  10.294  0.2860 -0.4277 -0.5639
  363MOL0     C47796   4.041  11.276  10.358 -0.1149 -0.9897  0.8182
  363MOL0     C47797   4.138  11.371  10.276  0.3364  0.6623  0.5882
  363MOL0     C47798   4.254  11.422  10.358  0.5203 -1.2647  0.0369
  363MOL0     C47799   4.316  11.308  10.440  0.5039  1.3958  0.2086
  363MOL0     C47800   4.459  11.352  10.483 -0.5765 -0.3684 -0.0510
  363MOL0     N47801   4.456  11.480  10.560 -0.7364  0.4052 -0.8360
  363MOL0     C47802   4.453  11.481  10.701  0.0121  0.5241 -0.0293
  363MOL0     C47803   4.423  11.610  10.720  0.1404 -1.0662 -0.2144
  363MOL0     C47804   4.374  11.657  10.858  0.2190 -0.0594 -0.4361
  363MOL0     C47805   4.406  11.799  10.903  0.3433  0.3109 -1.1187
  363MOL0     C47806   4.547  11.822  10.941  0.4139  0.4843  0.0783
  363MOL0     C47807   4.656  11.833  10.828 -0.6951 -0.0736  0.0510
  363MOL0     O47808   4.787  11.801  10.870 -0.2532  0.3196 -0.0102
  363MOL0     C47809   4.805  11.660  10.864  0.1074 -0.4401 -0.6600
  363MOL0     C47810   4.816  11.591  10.739 -0.3205 -0.3236 -0.9730
  363MOL0     C47811   4.856  11.458  10.736  0.5434 -0.2855  0.7795
  363MOL0     C47812   4.873  11.381  10.852 -0.2743  0.8965  0.3622
  363MOL0     C47813   4.912  11.244  10.849 -0.4225 -0.3486  0.4761
  363MOL0     O47814   4.968  11.190  10.962 -0.4049 -0.4423 -0.0629
  363MOL0     C47815   5.046  11.076  10.961  0.2396  0.4361  0.3124
  363MOL0     C47816   5.097  11.036  11.090 -0.1149  0.1041 -0.8112
  363MOL0     C47817   5.173  10.918  11.108 -0.5145 -0.6791 -0.6524
  363MOL0     C47818   5.216  10.843  11.000  0.4434  0.0811  0.4307
  363MOL0     O47819   5.284  10.730  11.035  0.5543  0.3992 -0.0550
  363MOL0     C47820   5.386  10.674  10.953  0.5709 -1.1080  0.9467
  363MOL0     C47821   5.331  10.555  10.871 -0.9218  0.4996 -0.1646
  363MOL0     C47822   5.447  10.475  10.790 -0.2508 -0.1151 -0.9654
  363MOL0     C47823   5.385  10.365  10.707 -0.1324 -0.4410  1.1497
  363MOL0     C47824   5.470  10.254  10.644 -0.5786 -0.1867  0.0847
  363MOL0     C47825   5.389  10.137  10.576 -0.1904 -0.5314 -0.1871
  363MOL0     C47826   5.334  10.039  10.675 -0.3355 -1.1949  0.4519
  363MOL0     C47827   5.223   9.956  10.617  0.2483 -0.0945  0.7559
  363MOL0    Cl47828   5.089  10.063  10.595  0.3349 -0.0271  0.1143
  363MOL0     C47829   5.176  10.887  10.876 -0.4436  0.6042 -0.2807
  363MOL0     C47830   5.089  10.994  10.854 -0.6567 -0.1809  0.3552
  363MOL0     O47831   4.891  11.190  10.744 -0.5834  0.1590  0.0987
  363MOL0     C47832   4.865  11.457  10.973  0.5032  0.2214  0.1370
  363MOL0     C47833   4.831  11.588  10.987  0.8238 -0.8362  0.3196
  363MOL0     N47834   4.429  11.687  10.604 -0.0223 -0.3968 -0.2299
  363MOL0     N47835   4.444  11.608  10.507  0.2479 -0.0228  0.0684
  363MOL0     C47836   3.520  11.227  10.587  0.2091 -0.3545  0.0871
  363MOL0     C47837   3.425  11.246  10.686 -0.2103  0.6992 -0.1263
  363MOL0     C47838   3.096  11.110  10.997  0.4610  0.4443  0.3989
  363MOL0     C47839   3.029  11.234  10.981  0.2490  0.0458 -1.2069
  363MOL0     C47840   2.924  11.268  11.069  0.3083  0.1854  0.4207
  363MOL0     C47841   2.891  11.170  11.167  1.1184 -0.2818  0.3879
  363MOL0     O47842   2.788  11.194  11.255 -0.3571 -0.5097 -0.2737
  363MOL0     C47843   2.683  11.271  11.204  0.1868  0.3733  0.1682
  363MOL0     C47844   2.554  11.231  11.276  0.3156 -0.0083 -0.7347
  363MOL0     C47845   2.428  11.300  11.244  0.6873  0.4280 -0.0264
  363MOL0     C47846   2.429  11.446  11.304 -0.0281  0.3729  1.0585
  363MOL0     C47847   2.289  11.502  11.294  0.2742  0.1665  0.2179
  363MOL0     C47848   2.184  11.562  11.277 -0.6150 -0.0930 -0.3207
  363MOL0     C47849   2.961  11.053  11.190  0.1384  0.5573  0.2469
  363MOL0     C47850   3.058  11.023  11.094  0.6825  0.0586 -0.1811
  363MOL0     H47851   3.249  10.961  10.638  0.1456 -0.9321 -0.6086
  363MOL0     H47852   3.389  10.937  10.479 -1.5209  0.1739  0.5559
  363MOL0     H47853   3.623  11.297  10.356  0.5325 -0.0317  1.8172
  363MOL0     H47854   3.668  11.188  10.224  1.1256  1.7174 -0.2415
  363MOL0     H47855   3.852  11.089  10.387 -0.8016 -0.4461 -2.5155
  363MOL0     H47856   3.823  11.222  10.494  3.3058  1.3009 -0.3038
  363MOL0     H47857   3.867  11.383  10.287 -1.3337 -0.7424  1.3334
  363MOL0     H47858   3.916  11.241  10.193 -1.1607 -1.9347 -0.2694
  363MOL0     H47859   4.044  11.311  10.461  3.3551  0.5877  0.3309
  363MOL0     H47860   4.092  11.179  10.358  0.9497 -0.4705  2.1978
  363MOL0     H47861   4.077  11.452  10.234 -2.3771 -1.5086  0.0281
  363MOL0     H47862   4.177  11.311  10.194  0.1949  1.8776 -0.3905
  363MOL0     H47863   4.220  11.503  10.424 -1.6372 -2.5493  0.5880
  363MOL0     H47864   4.330  11.460  10.289  1.8694 -1.5361  1.3310
  363MOL0     H47865   4.261  11.282  10.531  0.8428 -1.1473 -0.2452
  363MOL0     H47866   4.316  11.221  10.373  0.1245  1.3601  0.2528
  363MOL0     H47867   4.525  11.374  10.399  3.1192  0.9219  2.9188
  363MOL0     H47868   4.499  11.271  10.545  1.8526  2.0375  1.7699
  363MOL0     H47869   4.436  11.407  10.779 -2.8380 -0.4793 -1.4955
  363MOL0     H47870   4.409  11.599  10.944  2.2454  3.1040  1.0474
  363MOL0     H47871   4.265  11.655  10.852  0.1500  2.6409 -1.1689
  363MOL0     H47872   4.337  11.833  10.980  0.4508 -1.5835 -0.1252
  363MOL0     H47873   4.374  11.861  10.819 -1.2799 -0.4247 -1.0666
  363MOL0     H47874   4.545  11.913  11.003 -0.2036 -0.0832  0.9017
  363MOL0     H47875   4.572  11.735  11.001 -0.1462  1.2253  1.4219
  363MOL0     H47876   4.662  11.935  10.789  0.5987 -1.2010 -2.9358
  363MOL0     H47877   4.621  11.779  10.740  0.9489 -0.4046 -0.4273
  363MOL0     H47878   4.802  11.653  10.651  1.2434  0.7452 -0.5288
  363MOL0     H47879   4.858  11.412  10.638 -0.0068  0.0863  0.5896
  363MOL0     H47880   5.082  11.098  11.178 -0.9364  0.1481 -0.9782
  363MOL0     H47881   5.210  10.886  11.205 -0.2453  2.2368  0.3178
  363MOL0     H47882   5.472  10.653  11.017  0.6690 -0.1590  1.1457
  363MOL0     H47883   5.412  10.763  10.894  1.2819 -1.4955  0.6496
  363MOL0     H47884   5.256  10.591  10.800 -2.7984  2.3269  2.5298
  363MOL0     H47885   5.282  10.484  10.938  0.8994 -1.3501 -0.6984
  363MOL0     H47886   5.502  10.442  10.879 -3.2862 -1.8916  0.3746
  363MOL0     H47887   5.500  10.544  10.723 -2.4722 -1.3272 -4.2224
  363MOL0     H47888   5.302  10.319  10.761 -0.4521 -2.1202 -0.6603
  363MOL0     H47889   5.331  10.425  10.632 -0.0443  0.7760  2.0202
  363MOL0     H47890   5.533  10.210  10.722 -1.5139 -1.2562  0.2583
  363MOL0     H47891   5.526  10.305  10.566 -1.7280  0.2229 -0.5003
  363MOL0     H47892   5.450  10.084  10.502  3.5847  2.4473  0.4397
  363MOL0     H47893   5.310  10.180  10.514 -1.8388 -2.3612  0.5473
  363MOL0     H47894   5.419   9.974  10.700  3.7113  2.8519 -1.3789
  363MOL0     H47895   5.295  10.092  10.762  1.0814 -0.5571  0.7292
  363MOL0     H47896   5.195   9.869  10.677 -0.0709 -2.4752 -2.5697
  363MOL0     H47897   5.253   9.920  10.518  0.7914  1.1956  0.4247
  363MOL0     H47898   5.204  10.821  10.795 -2.6297 -1.9042  0.8733
  363MOL0     H47899   5.064  11.022  10.752  0.7785 -2.3978 -0.7060
  363MOL0     H47900   4.886  11.411  11.069  1.8478 -1.6466 -0.9727
  363MOL0     H47901   4.836  11.640  11.082 -0.3996 -1.6487  0.8585
  363MOL0     H47902   3.598  11.299  10.565  2.1945 -1.9782  1.4486
  363MOL0     H47903   3.427  11.332  10.751 -1.3063  0.8072 -0.2142
  363MOL0     H47904   3.062  11.316  10.917  0.6240 -0.5966 -1.8485
  363MOL0     H47905   2.875  11.365  11.073  0.1451  0.0787  1.2056
  363MOL0     H47906   2.673  11.247  11.098  2.0184  4.6876 -1.2008
  363MOL0     H47907   2.693  11.379  11.216  0.1059  0.9661 -3.8836
  363MOL0     H47908   2.553  11.122  11.274  2.1010 -0.2158  2.5495
  363MOL0     H47909   2.573  11.243  11.383 -2.9472 -0.9027  0.0442
  363MOL0     H47910   2.338  11.251  11.280  1.8743 -0.8663  1.3426
  363MOL0     H47911   2.418  11.302  11.135  0.1672  0.4151  0.0179
  363MOL0     H47912   2.462  11.435  11.407 -3.0784 -0.7622  2.0399
  363MOL0     H47913   2.499  11.511  11.252  2.0503 -1.6975  1.1279
  363MOL0     H47914   2.097  11.621  11.255 -1.1393 -1.4875 -2.2721
  363MOL0     H47915   2.932  11.001  11.281  1.2039  0.1084  0.3463
  363MOL0     H47916   3.099  10.924  11.114 -0.9829 -0.8870 -1.2068
  364MOL0     O47917   5.897   9.426   8.130 -0.6046  0.7515 -0.2150
  364MOL0     C47918   5.858   9.532   8.180 -0.2140  0.2259 -0.9096
  364MOL0     O47919   5.881   9.661   8.130 -1.1342  0.3665 -0.3262
  364MOL0     C47920   5.922   9.666   8.000 -0.2263  0.6369  0.4313
  364MOL0     C47921   5.841   9.693   7.887  0.7346 -0.2849 -0.5313
  364MOL0     C47922   5.899   9.690   7.761  0.1989  0.3765  0.0242
  364MOL0     C47923   6.035   9.679   7.740 -0.4715 -0.2880 -0.2231
  364MOL0     O47924   6.089   9.678   7.619  0.2749 -0.7032  0.2014
  364MOL0     C47925   6.161   9.565   7.590  0.2062 -0.3982 -0.2616
  364MOL0     C47926   6.142   9.543   7.439 -1.0266 -0.1796  0.2472
  364MOL0     C47927   6.178   9.408   7.370 -0.0184 -0.4226 -0.4285
  364MOL0     C47928   6.298   9.342   7.449  0.5454  1.0658 -0.6474
  364MOL0     C47929   6.338   9.214   7.370 -0.2071 -1.0178 -0.5375
  364MOL0     C47930   6.437   9.132   7.452 -0.0735 -0.8895  0.9995
  364MOL0     C47931   6.499   9.015   7.379 -0.0163 -1.4378 -0.5124
  364MOL0     C47932   6.644   8.986   7.420  0.2909 -0.1689  0.0876
  364MOL0     N47933   6.643   8.951   7.559 -0.0849  1.2036 -0.2774
  364MOL0     C47934   6.692   9.027   7.664  0.5811 -0.7492  0.1957
  364MOL0     C47935   6.698   8.952   7.767  0.1844  0.3608  1.1620
  364MOL0     C47936   6.758   8.970   7.910 -0.3257  0.2746  1.5255
  364MOL0     C47937   6.640   9.005   8.002  0.0439  0.2164 -0.8703
  364MOL0     C47938   6.691   9.082   8.120  0.5061 -0.3700 -0.7230
  364MOL0     C47939   6.801   9.016   8.213 -0.2573  0.9250 -0.6401
  364MOL0     O47940   6.826   9.112   8.319  0.7557 -0.5314  0.1474
  364MOL0     C47941   6.762   9.103   8.444  0.6716 -0.5046 -0.9160
  364MOL0     C47942   6.726   9.219   8.512  0.8262 -0.5297 -0.9129
  364MOL0     C47943   6.679   9.215   8.640 -0.0357 -0.4417 -0.9121
  364MOL0     C47944   6.661   9.098   8.720 -0.7095  0.4311  1.0323
  364MOL0     C47945   6.608   9.097   8.857  0.4173  0.2278 -0.8580
  364MOL0     O47946   6.532   9.209   8.898 -0.4392 -0.0544 -0.2301
  364MOL0     C47947   6.507   9.221   9.034 -0.2700  1.4519  0.3183
  364MOL0     C47948   6.382   9.274   9.066 -0.9027 -0.3407  0.2091
  364MOL0     C47949   6.346   9.274   9.197 -0.6964 -0.4180 -0.9557
  364MOL0     C47950   6.431   9.246   9.305  0.5860 -0.2662  0.5391
  364MOL0     O47951   6.383   9.245   9.438  0.2516 -0.1531  1.0622
  364MOL0     C47952   6.467   9.251   9.551 -0.3839 -0.2957  0.2752
  364MOL0     C47953   6.408   9.208   9.684  0.1960 -0.0218 -0.5196
  364MOL0     C47954   6.277   9.288   9.722  0.2505 -0.1465  0.3614
  364MOL0     C47955   6.209   9.215   9.835 -0.5023 -0.2036 -0.2942
  364MOL0     C47956   6.067   9.280   9.860  0.0854 -0.3675  0.2389
  364MOL0     C47957   6.016   9.243   9.991  0.8806 -0.0333 -0.4720
  364MOL0     C47958   6.098   9.294  10.112  0.1500  0.2917 -0.6787
  364MOL0     C47959   6.004   9.317  10.237 -0.2928  0.4419  0.2942
  364MOL0    Cl47960   5.869   9.440  10.220  0.0089 -0.0704  0.1925
  364MOL0     C47961   6.562   9.210   9.273 -0.1123 -0.2439 -0.0820
  364MOL0     C47962   6.591   9.182   9.137  0.0826  0.3178 -0.8193
  364MOL0     O47963   6.641   9.008   8.932 -0.3904 -0.0288 -0.0085
  364MOL0     C47964   6.716   8.980   8.660  0.0882 -0.1052  1.3190
  364MOL0     C47965   6.769   8.986   8.522  0.6624  0.5617  0.0957
  364MOL0     N47966   6.637   8.826   7.732  0.6090  0.3495 -0.5107
  364MOL0     N47967   6.618   8.822   7.606  0.4820  0.2137 -0.4682
  364MOL0     C47968   6.120   9.661   7.850  0.7043  0.1384  0.8360
  364MOL0     C47969   6.066   9.659   7.981 -0.1898  0.5409  0.1025
  364MOL0     C47970   5.786   9.538   8.310  0.3369  0.5183 -0.2592
  364MOL0     C47971   5.777   9.423   8.383  0.0909  0.4837  0.4886
  364MOL0     C47972   5.717   9.414   8.515 -0.7546  0.2992  0.4371
  364MOL0     C47973   5.663   9.530   8.568 -0.0894 -0.4831 -0.3935
  364MOL0     O47974   5.611   9.539   8.699  0.6379 -0.1919 -0.2889
  364MOL0     C47975   5.595   9.422   8.784  0.0121 -0.5028  0.6007
  364MOL0     C47976   5.560   9.468   8.923  0.3737 -0.5721 -0.0790
  364MOL0     C47977   5.531   9.347   9.014  0.2816 -0.7901 -0.2477
  364MOL0     C47978   5.481   9.389   9.153  0.2738 -1.0836 -0.0419
  364MOL0     C47979   5.561   9.505   9.212  0.3346 -0.0185 -0.3649
  364MOL0     C47980   5.598   9.600   9.283 -1.3945 -1.2476 -0.2629
  364MOL0     C47981   5.680   9.652   8.496 -0.7754  1.2059  0.6753
  364MOL0     C47982   5.737   9.654   8.373 -0.8152  0.1229  0.2305
  364MOL0     H47983   5.733   9.699   7.898  0.3109  3.7538 -4.4467
  364MOL0     H47984   5.821   9.718   7.692 -2.9127 -0.2456  3.0367
  364MOL0     H47985   6.119   9.478   7.642 -0.4852  1.2187  2.0775
  364MOL0     H47986   6.269   9.570   7.611 -0.2845  1.8599  2.3992
  364MOL0     H47987   6.194   9.623   7.384  1.6501 -0.1569  2.5891
  364MOL0     H47988   6.035   9.560   7.424 -1.0667  0.8041  1.4747
  364MOL0     H47989   6.199   9.430   7.265  2.1592 -0.3906 -0.0329
  364MOL0     H47990   6.094   9.338   7.370  0.2054 -0.7200  0.8971
  364MOL0     H47991   6.382   9.411   7.463  3.2104 -2.0124 -0.3045
  364MOL0     H47992   6.272   9.306   7.549  2.7953 -1.8629 -0.9923
  364MOL0     H47993   6.382   9.246   7.275 -0.8455  4.7794  0.7276
  364MOL0     H47994   6.258   9.147   7.337  0.8169 -2.0425 -0.9784
  364MOL0     H47995   6.388   9.086   7.538 -1.2342 -1.0796  0.2583
  364MOL0     H47996   6.504   9.203   7.500  0.9202 -0.1670 -1.3438
  364MOL0     H47997   6.436   8.927   7.394  1.2446 -2.5586 -1.4904
  364MOL0     H47998   6.500   9.038   7.272  1.8907  0.2567 -0.1917
  364MOL0     H47999   6.689   9.084   7.406 -3.7748  2.0912  1.1889
  364MOL0     H48000   6.682   8.912   7.349 -1.0513  0.2749 -1.1534
  364MOL0     H48001   6.725   9.131   7.664 -3.5146  0.7227  0.2960
  364MOL0     H48002   6.826   9.054   7.892  1.6094 -1.0010  2.5583
  364MOL0     H48003   6.819   8.883   7.937  1.6241  0.8966 -0.5755
  364MOL0     H48004   6.590   8.912   8.032 -0.5145  1.1530  1.2557
  364MOL0     H48005   6.559   9.054   7.947 -0.5670  0.8055  0.5007
  364MOL0     H48006   6.743   9.173   8.088  3.5216 -0.6637  2.6612
  364MOL0     H48007   6.604   9.107   8.180  2.6893  0.6864  2.2734
  364MOL0     H48008   6.893   8.994   8.159  2.0276 -3.7405  4.2253
  364MOL0     H48009   6.756   8.921   8.244  0.2652  0.7884 -0.2945
  364MOL0     H48010   6.729   9.319   8.469 -0.8760  0.6242  1.4115
  364MOL0     H48011   6.661   9.307   8.693  1.3209  0.4460 -1.9242
  364MOL0     H48012   6.320   9.289   8.978  2.8072 -0.4331 -2.6689
  364MOL0     H48013   6.243   9.299   9.224  0.3116  1.6792  1.3696
  364MOL0     H48014   6.510   9.351   9.562  0.0569 -0.6492  2.1508
  364MOL0     H48015   6.551   9.181   9.545  4.1929  4.6559 -0.4908
  364MOL0     H48016   6.480   9.226   9.764  0.1023 -1.2212 -0.1432
  364MOL0     H48017   6.386   9.101   9.695  2.1430 -0.2635  2.1229
  364MOL0     H48018   6.206   9.294   9.639 -1.9102  1.3245  2.2041
  364MOL0     H48019   6.308   9.392   9.736 -0.3717  0.4799 -2.2296
  364MOL0     H48020   6.197   9.108   9.819  0.7097 -0.5652  1.0611
  364MOL0     H48021   6.270   9.236   9.923  0.1800  0.0294 -0.8153
  364MOL0     H48022   5.990   9.239   9.795 -1.1928 -0.1078  1.5402
  364MOL0     H48023   6.064   9.388   9.842  4.4615  0.3057  2.1093
  364MOL0     H48024   6.000   9.135   9.996 -5.2409  0.5671  0.9226
  364MOL0     H48025   5.912   9.278  10.000  1.0391 -0.0485  3.5225
  364MOL0     H48026   6.172   9.214  10.128 -0.3117 -0.5359 -2.4086
  364MOL0     H48027   6.151   9.384  10.081  0.1957 -0.0719 -1.6928
  364MOL0     H48028   6.067   9.360  10.315  0.7301  2.4874 -1.5425
  364MOL0     H48029   5.949   9.231  10.276 -0.8842  2.2688  3.9730
  364MOL0     H48030   6.636   9.182   9.347  0.5430 -0.2722 -0.7316
  364MOL0     H48031   6.687   9.138   9.113  0.1706  1.2023 -2.2081
  364MOL0     H48032   6.695   8.885   8.708 -0.3988 -3.2734 -4.3028
  364MOL0     H48033   6.804   8.899   8.467  1.5122  1.6436 -1.1510
  364MOL0     H48034   6.227   9.653   7.839  1.0578  0.5966  3.2344
  364MOL0     H48035   6.139   9.648   8.060 -0.4169 -0.3874  0.1944
  364MOL0     H48036   5.824   9.334   8.342  1.3368  2.4616 -2.7844
  364MOL0     H48037   5.713   9.319   8.568 -0.8747  1.0039  1.7292
  364MOL0     H48038   5.688   9.366   8.774  0.3020 -0.0171  0.5330
  364MOL0     H48039   5.519   9.360   8.736  0.8646 -0.7631 -0.4625
  364MOL0     H48040   5.637   9.527   8.973  0.8775 -0.8999 -0.4648
  364MOL0     H48041   5.473   9.534   8.930  2.6777  2.4867  3.1742
  364MOL0     H48042   5.628   9.296   9.026  1.7681  1.9392  0.1057
  364MOL0     H48043   5.452   9.286   8.970 -1.5409  1.6051 -0.4321
  364MOL0     H48044   5.374   9.415   9.151  0.4956 -0.1634 -0.8083
  364MOL0     H48045   5.485   9.297   9.211 -2.0258  0.7522  3.3787
  364MOL0     H48046   5.628   9.672   9.356  0.9590 -4.0688  1.7931
  364MOL0     H48047   5.642   9.745   8.536 -1.7549  2.1421 -2.1729
  364MOL0     H48048   5.734   9.755   8.332 -1.4722  0.3383  0.8004
  365MOL0     O48049   3.583   5.180   2.507 -0.1072  0.7014 -0.4622
  365MOL0     C48050   3.590   5.268   2.598 -0.4717 -0.7462 -0.1368
  365MOL0     O48051   3.694   5.361   2.632  1.0155  0.4009  0.3281
  365MOL0     C48052   3.799   5.360   2.541 -0.9337 -0.0973 -0.4910
  365MOL0     C48053   3.856   5.247   2.491  0.6999  0.0600 -0.2782
  365MOL0     C48054   3.979   5.251   2.429 -0.3259 -0.3587  0.1037
  365MOL0     C48055   4.032   5.372   2.394 -0.6468 -0.9181 -0.2436
  365MOL0     O48056   4.149   5.386   2.337 -0.4176 -0.2459  0.5961
  365MOL0     C48057   4.145   5.418   2.198  0.4804 -1.0256  0.5895
  365MOL0     C48058   4.267   5.515   2.171  0.2296  0.0481  0.2884
  365MOL0     C48059   4.237   5.588   2.040  0.5981 -0.2769 -0.7830
  365MOL0     C48060   4.365   5.656   1.986 -0.1918  0.0201  0.2885
  365MOL0     C48061   4.352   5.672   1.837 -0.3990  0.1173 -0.9504
  365MOL0     C48062   4.447   5.772   1.764  0.3315  0.1971 -0.4281
  365MOL0     C48063   4.449   5.747   1.618 -0.0111  0.1581  1.0485
  365MOL0     C48064   4.549   5.859   1.562  0.1065  0.5280 -0.2165
  365MOL0     N48065   4.627   5.804   1.449 -0.5146 -1.3283  0.4906
  365MOL0     C48066   4.586   5.787   1.323 -0.1667  1.2694  0.2383
  365MOL0     C48067   4.687   5.758   1.238 -0.8503  0.1854 -1.0473
  365MOL0     C48068   4.668   5.724   1.088  0.0245  1.2145  1.0766
  365MOL0     C48069   4.558   5.623   1.072  0.0943  0.7441  0.3515
  365MOL0     C48070   4.558   5.585   0.926 -0.1989 -0.6318 -0.1241
  365MOL0     C48071   4.485   5.455   0.895  0.2291 -0.1493 -0.7736
  365MOL0     O48072   4.359   5.461   0.967  0.4693 -1.4652  0.1725
  365MOL0     C48073   4.284   5.344   0.971  0.9511  0.0208  0.5008
  365MOL0     C48074   4.165   5.353   1.045 -0.8488 -0.1832 -0.7930
  365MOL0     C48075   4.073   5.245   1.036 -0.2770  0.1234  0.5973
  365MOL0     C48076   4.098   5.124   0.961  0.3593  0.0325 -0.1621
  365MOL0     C48077   3.995   5.019   0.953 -0.0634 -0.3245 -0.6955
  365MOL0     O48078   4.041   4.905   0.902  0.3026 -0.5393  0.2704
  365MOL0     C48079   3.958   4.798   0.875  0.3157  0.8725 -0.7817
  365MOL0     C48080   4.026   4.687   0.816 -0.4199  0.9527 -0.5636
  365MOL0     C48081   3.963   4.567   0.776  0.9587  1.0252  0.0201
  365MOL0     C48082   3.821   4.544   0.811 -0.4783 -0.3285  0.1547
  365MOL0     O48083   3.748   4.433   0.784 -0.1694 -0.0664  0.7723
  365MOL0     C48084   3.816   4.347   0.680  0.5072  0.9873  0.0377
  365MOL0     C48085   3.732   4.226   0.631  0.5229  0.3823 -0.1434
  365MOL0     C48086   3.598   4.284   0.577 -0.6143  0.4834  0.2198
  365MOL0     C48087   3.508   4.187   0.499 -0.4524  0.6180  0.8943
  365MOL0     C48088   3.362   4.221   0.488 -0.2570 -0.9922 -0.0776
  365MOL0     C48089   3.333   4.370   0.453 -0.0371 -0.1516 -0.6143
  365MOL0     C48090   3.198   4.379   0.382  0.1595 -0.0384  0.2953
  365MOL0     C48091   3.183   4.518   0.308  0.0166 -0.8612  0.0575
  365MOL0    Cl48092   3.321   4.534   0.191  0.4394 -0.1890  0.4049
  365MOL0     C48093   3.756   4.645   0.880 -0.7036 -0.1457  0.2297
  365MOL0     C48094   3.824   4.773   0.902  0.1662  0.5449 -0.1443
  365MOL0     O48095   3.875   5.048   0.971 -0.2716  0.5137 -0.2688
  365MOL0     C48096   4.214   5.131   0.887  0.3382  0.2614  0.2074
  365MOL0     C48097   4.314   5.228   0.898 -0.0037 -0.9614 -0.4813
  365MOL0     N48098   4.797   5.799   1.314 -0.1065 -0.2756  0.2372
  365MOL0     N48099   4.764   5.820   1.435  0.2809  0.8859 -0.5548
  365MOL0     C48100   3.969   5.490   2.446  0.1528  0.0404  1.4178
  365MOL0     C48101   3.852   5.483   2.521  0.2997 -0.8115  0.8521
  365MOL0     C48102   3.470   5.284   2.682  0.4887  0.3484 -1.1012
  365MOL0     C48103   3.444   5.388   2.766  0.4904  0.0399  0.5360
  365MOL0     C48104   3.325   5.397   2.843  0.0448  0.5031  0.1211
  365MOL0     C48105   3.224   5.294   2.842  0.6229  0.2415 -0.8383
  365MOL0     O48106   3.115   5.305   2.923 -0.2464 -0.4273  0.3544
  365MOL0     C48107   3.017   5.202   2.920  0.2570 -0.6119 -0.4080
  365MOL0     C48108   2.909   5.245   3.023  0.3874  0.4254  0.6135
  365MOL0     C48109   2.766   5.203   2.983 -0.1819 -0.0371  0.2882
  365MOL0     C48110   2.645   5.274   3.049  0.4479  0.0573  0.4399
  365MOL0     C48111   2.619   5.417   3.019  0.6803 -0.1708 -0.8348
  365MOL0     C48112   2.599   5.541   3.009 -0.3331  0.8796 -1.3591
  365MOL0     C48113   3.255   5.191   2.752  0.7785  0.9433 -0.5965
  365MOL0     C48114   3.373   5.179   2.680 -1.4122 -0.2199 -0.4972
  365MOL0     H48115   3.814   5.150   2.517  0.9408 -0.5919 -2.2162
  365MOL0     H48116   4.036   5.169   2.386 -0.3371  0.2953 -1.1899
  365MOL0     H48117   4.054   5.473   2.171  1.2387 -0.1721 -0.3056
  365MOL0     H48118   4.153   5.328   2.137  1.0838 -4.8353  5.6064
  365MOL0     H48119   4.358   5.455   2.162  0.7492  1.0036 -1.0874
  365MOL0     H48120   4.281   5.587   2.253  1.2129  1.5363 -1.1385
  365MOL0     H48121   4.162   5.664   2.063 -3.2438 -3.5506 -1.2075
  365MOL0     H48122   4.195   5.518   1.967 -1.0845  1.0200 -1.1059
  365MOL0     H48123   4.376   5.755   2.032  1.0880  0.4831 -0.9415
  365MOL0     H48124   4.459   5.605   2.013  3.0404  4.5172 -1.2914
  365MOL0     H48125   4.248   5.691   1.812 -0.1591  2.1405 -0.5664
  365MOL0     H48126   4.385   5.576   1.797  3.8333  1.1026 -0.3407
  365MOL0     H48127   4.547   5.742   1.798  0.8430 -0.4018 -2.3349
  365MOL0     H48128   4.420   5.876   1.787  0.0996 -0.6306  3.7364
  365MOL0     H48129   4.502   5.652   1.604  0.3513  0.2893  1.5337
  365MOL0     H48130   4.350   5.749   1.571  1.9006 -0.3854 -3.5278
  365MOL0     H48131   4.620   5.894   1.637  2.6106  2.9490 -3.4293
  365MOL0     H48132   4.490   5.943   1.524  1.8804  0.8897 -2.3255
  365MOL0     H48133   4.482   5.783   1.293 -0.6708  3.7312  1.4207
  365MOL0     H48134   4.763   5.679   1.056 -0.5505 -0.0016  1.0330
  365MOL0     H48135   4.643   5.810   1.024  0.8838  3.2100  3.2423
  365MOL0     H48136   4.459   5.663   1.094  0.8474  1.1769  3.3252
  365MOL0     H48137   4.583   5.536   1.134  0.4242  0.0540 -0.7109
  365MOL0     H48138   4.512   5.657   0.858 -0.4129 -0.3179  0.3492
  365MOL0     H48139   4.660   5.599   0.888  0.3257  1.8338  1.9270
  365MOL0     H48140   4.552   5.376   0.927  0.2754  0.9353  2.0995
  365MOL0     H48141   4.472   5.447   0.786 -1.4453  2.1078 -0.8294
  365MOL0     H48142   4.156   5.447   1.098  3.6564 -0.4231  0.8672
  365MOL0     H48143   3.980   5.251   1.091  0.7693 -1.4135  2.7298
  365MOL0     H48144   4.129   4.682   0.784 -0.4867 -3.1943 -0.6849
  365MOL0     H48145   4.023   4.486   0.736  2.1017  1.1660  1.3631
  365MOL0     H48146   3.901   4.306   0.734 -1.3807 -2.0799  0.9270
  365MOL0     H48147   3.835   4.404   0.589 -3.0462  0.2188 -1.3639
  365MOL0     H48148   3.722   4.160   0.717  3.2269 -3.6433 -2.5843
  365MOL0     H48149   3.784   4.169   0.554 -1.8158 -2.1069 -0.0360
  365MOL0     H48150   3.640   4.371   0.525  1.8700 -0.7682 -0.0077
  365MOL0     H48151   3.535   4.331   0.653  0.1435  2.2777 -0.2198
  365MOL0     H48152   3.551   4.177   0.399  2.2075  1.3952  1.8640
  365MOL0     H48153   3.514   4.096   0.560  3.3078  0.8781  1.1708
  365MOL0     H48154   3.300   4.195   0.575 -3.8113 -3.1226 -2.9444
  365MOL0     H48155   3.310   4.162   0.412  0.1368 -2.0648  0.4681
  365MOL0     H48156   3.410   4.406   0.384  1.3992 -0.3568  0.8147
  365MOL0     H48157   3.331   4.430   0.544  1.2328 -0.2507 -0.5081
  365MOL0     H48158   3.185   4.291   0.318 -1.1881 -0.6981  1.4132
  365MOL0     H48159   3.123   4.363   0.461 -0.0319  3.2785  0.9563
  365MOL0     H48160   3.188   4.603   0.376  0.3120 -1.8295  1.2803
  365MOL0     H48161   3.085   4.526   0.260 -0.4581 -1.6022  0.8722
  365MOL0     H48162   3.658   4.641   0.927 -0.7884 -2.4521 -0.0384
  365MOL0     H48163   3.772   4.842   0.967  0.8700  3.4229 -2.3912
  365MOL0     H48164   4.236   5.055   0.813  0.4050  2.3159 -1.9819
  365MOL0     H48165   4.408   5.213   0.847 -1.5936 -0.3716 -3.8636
  365MOL0     H48166   4.020   5.585   2.436 -0.0817  0.3105  2.5561
  365MOL0     H48167   3.804   5.567   2.570 -2.1281 -1.8992  0.5195
  365MOL0     H48168   3.526   5.459   2.770  1.8052 -1.3350 -0.7469
  365MOL0     H48169   3.300   5.489   2.896  0.6384 -0.7310  2.6994
  365MOL0     H48170   3.069   5.108   2.940 -0.1819 -0.6832  0.4768
  365MOL0     H48171   2.976   5.197   2.819 -1.4147 -2.8746  0.3100
  365MOL0     H48172   2.943   5.218   3.124  1.6998 -0.4562 -0.0258
  365MOL0     H48173   2.911   5.354   3.029 -1.5239  0.9479 -4.1308
  365MOL0     H48174   2.763   5.097   3.011 -0.2568  0.3989  2.0701
  365MOL0     H48175   2.760   5.197   2.874  3.6086 -2.1921  0.0410
  365MOL0     H48176   2.555   5.220   3.016  1.3802 -1.5431  0.3936
  365MOL0     H48177   2.660   5.256   3.156 -1.5366 -1.8287  0.4825
  365MOL0     H48178   2.573   5.643   2.991 -3.0350  0.7337  0.8667
  365MOL0     H48179   3.180   5.113   2.748  1.1857  0.4564  0.6870
  365MOL0     H48180   3.392   5.087   2.627 -1.1518 -2.6991  3.4470
  366MOL0     O48181   9.639   1.660  10.215 -0.1376 -0.2886 -0.2251
  366MOL0     C48182   9.582   1.580  10.286  0.4050  0.1427  0.0288
  366MOL0     O48183   9.446   1.564  10.294 -0.3705  0.4867  0.0019
  366MOL0     C48184   9.360   1.663  10.248 -0.3099 -0.3963 -0.2669
  366MOL0     C48185   9.247   1.628  10.168 -0.8418  0.4739  0.1105
  366MOL0     C48186   9.150   1.723  10.124 -0.1692  1.1563 -0.4041
  366MOL0     C48187   9.161   1.854  10.163 -0.8814  0.1105  0.6744
  366MOL0     O48188   9.053   1.932  10.147 -0.0162  0.4256 -0.1791
  366MOL0     C48189   9.071   2.061  10.090 -0.4598 -0.6670 -0.0678
  366MOL0     C48190   8.927   2.110  10.041 -0.0897 -1.0004  0.9765
  366MOL0     C48191   8.926   2.268  10.042  0.3173  0.5230  0.1228
  366MOL0     C48192   8.809   2.320   9.961  0.5937 -0.5379 -0.0273
  366MOL0     C48193   8.833   2.471   9.941  0.6710  0.0997 -0.1245
  366MOL0     C48194   8.704   2.532   9.889 -0.3713  0.5851  0.3808
  366MOL0     C48195   8.601   2.588   9.986 -0.5016 -0.3159 -0.2205
  366MOL0     C48196   8.466   2.595   9.917  1.0475 -0.3518 -0.5997
  366MOL0     N48197   8.462   2.659   9.782 -0.2991 -0.2968  0.0592
  366MOL0     C48198   8.417   2.591   9.671  0.6719 -0.1290  1.2832
  366MOL0     C48199   8.414   2.682   9.575 -0.1467  0.1345 -0.0121
  366MOL0     C48200   8.370   2.669   9.433  0.0796 -0.2408  0.1899
  366MOL0     C48201   8.480   2.632   9.329 -1.1625 -0.6453  0.0729
  366MOL0     C48202   8.433   2.637   9.190  0.5847 -0.0491  0.2967
  366MOL0     C48203   8.363   2.767   9.142  0.6113  0.2435  0.1861
  366MOL0     O48204   8.466   2.827   9.063 -0.2951  0.1779 -0.3857
  366MOL0     C48205   8.439   2.954   9.012  0.8510  0.0230 -0.4150
  366MOL0     C48206   8.306   2.994   8.997  0.4567 -0.1255 -0.1391
  366MOL0     C48207   8.272   3.128   8.963 -0.2316 -0.2652 -0.1764
  366MOL0     C48208   8.374   3.223   8.937 -0.1869  0.0934 -0.1503
  366MOL0     C48209   8.338   3.362   8.893 -0.6845  1.0444 -0.2069
  366MOL0     O48210   8.440   3.450   8.888 -0.3893  0.5129  0.1685
  366MOL0     C48211   8.416   3.576   8.849  0.3645  0.3800  0.1215
  366MOL0     C48212   8.388   3.670   8.943  0.1987 -0.4453  0.3267
  366MOL0     C48213   8.336   3.792   8.905  0.2604  0.5560 -0.1318
  366MOL0     C48214   8.321   3.821   8.766 -0.2549 -0.4191 -0.0303
  366MOL0     O48215   8.276   3.946   8.741 -1.0260 -1.0041  0.6549
  366MOL0     C48216   8.263   4.003   8.607  0.7098 -0.3588  0.1054
  366MOL0     C48217   8.134   3.955   8.546  0.3741  0.5000  0.6046
  366MOL0     C48218   8.015   4.024   8.605  1.0685 -0.0819  0.3010
  366MOL0     C48219   7.884   3.986   8.542 -0.0949 -0.4954  0.4605
  366MOL0     C48220   7.755   4.067   8.593 -0.2081 -0.0448  0.0755
  366MOL0     C48221   7.755   4.222   8.603  0.0314 -0.5505 -0.9782
  366MOL0     C48222   7.772   4.275   8.455 -0.6553  0.5229 -0.1090
  366MOL0     C48223   7.730   4.413   8.431  0.5492 -0.7479 -0.2224
  366MOL0    Cl48224   7.802   4.467   8.278 -0.6968 -0.2568 -0.2142
  366MOL0     C48225   8.351   3.717   8.675 -0.1664 -1.0050 -0.0881
  366MOL0     C48226   8.406   3.596   8.713  0.5544  1.0252 -1.1500
  366MOL0     O48227   8.214   3.392   8.889  0.1754  0.5605  0.3518
  366MOL0     C48228   8.507   3.174   8.938  0.1374 -1.8076 -0.8655
  366MOL0     C48229   8.531   3.046   8.986 -0.4130  0.7728 -0.7988
  366MOL0     N48230   8.476   2.797   9.618  0.0403 -0.2074 -0.1587
  366MOL0     N48231   8.487   2.787   9.742 -0.6733  0.6923 -0.8508
  366MOL0     C48232   9.276   1.900  10.227 -0.9175  0.5329 -0.1534
  366MOL0     C48233   9.374   1.804  10.267  0.1930 -0.0979  0.9014
  366MOL0     C48234   9.657   1.473  10.349  0.0463  0.7548 -1.0008
  366MOL0     C48235   9.594   1.388  10.448  1.0456 -0.4696 -0.3260
  366MOL0     C48236   9.645   1.276  10.509  0.1774 -0.6582 -0.7677
  366MOL0     C48237   9.776   1.249  10.478  0.1425  0.0962  0.1519
  366MOL0     O48238   9.840   1.132  10.522  0.3230 -0.3411 -0.3776
  366MOL0     C48239   9.978   1.141  10.523  0.0860  0.6598 -0.2690
  366MOL0     C48240  10.050   1.025  10.597 -0.0699  0.9590  0.3830
  366MOL0     C48241  10.196   1.009  10.544 -0.4303 -0.1900  0.0041
  366MOL0     C48242  10.245   0.872  10.592  0.2291  0.2801  0.1420
  366MOL0     C48243  10.364   0.845  10.516  0.2517 -0.3823 -0.4851
  366MOL0     C48244  10.469   0.829  10.464  0.0991 -0.0583 -0.1150
  366MOL0     C48245   9.843   1.331  10.381  0.0566 -0.8745 -0.8585
  366MOL0     C48246   9.788   1.441  10.317 -0.5127  0.1643 -0.1202
  366MOL0     H48247   9.224   1.523  10.156  2.2392 -0.1568 -1.1084
  366MOL0     H48248   9.063   1.694  10.066 -0.8522  4.5295 -1.2516
  366MOL0     H48249   9.124   2.057   9.994 -0.5041 -3.6788 -0.0707
  366MOL0     H48250   9.114   2.131  10.161  1.2833 -2.9759  1.3104
  366MOL0     H48251   8.857   2.073  10.116 -1.1102 -2.4236 -0.5974
  366MOL0     H48252   8.893   2.072   9.944  1.1790  2.9430 -1.2762
  366MOL0     H48253   9.016   2.307   9.994  1.6374 -2.8393 -0.4310
  366MOL0     H48254   8.916   2.297  10.147 -1.9035  0.1613  0.0592
  366MOL0     H48255   8.790   2.261   9.871 -1.1483 -2.3783  1.4416
  366MOL0     H48256   8.720   2.313  10.024  0.0727  2.4825 -0.2516
  366MOL0     H48257   8.912   2.486   9.867  0.2555  0.4901 -0.4941
  366MOL0     H48258   8.858   2.518  10.036 -1.1313  0.8547  0.0113
  366MOL0     H48259   8.661   2.461   9.819  1.8440 -0.5854  0.1235
  366MOL0     H48260   8.739   2.611   9.822 -1.2086  0.0431 -0.7119
  366MOL0     H48261   8.594   2.534  10.081  2.7901  4.5143  3.2941
  366MOL0     H48262   8.636   2.688  10.014  3.1930 -2.0582  2.1517
  366MOL0     H48263   8.405   2.659   9.981  2.8526  1.3656 -0.5188
  366MOL0     H48264   8.416   2.498   9.923 -1.8009  1.1107  1.8699
  366MOL0     H48265   8.383   2.489   9.657 -1.0153  0.0437  3.5809
  366MOL0     H48266   8.332   2.771   9.419 -2.2983 -1.2614 -1.5701
  366MOL0     H48267   8.282   2.607   9.414  0.1235 -0.9954  2.2549
  366MOL0     H48268   8.530   2.537   9.349  0.3835  0.2250  0.4776
  366MOL0     H48269   8.568   2.697   9.334 -0.8040 -1.1558  0.5009
  366MOL0     H48270   8.505   2.610   9.112  1.6970  0.6465  1.0453
  366MOL0     H48271   8.359   2.556   9.187 -0.2046  0.5262  2.5089
  366MOL0     H48272   8.310   2.828   9.215  1.0172  2.8042 -1.5115
  366MOL0     H48273   8.280   2.719   9.088  2.2151 -1.8880 -0.5275
  366MOL0     H48274   8.228   2.920   8.982  1.4636 -1.2733  0.1422
  366MOL0     H48275   8.168   3.149   8.939 -0.1405  1.3483  0.6971
  366MOL0     H48276   8.395   3.646   9.049 -4.8216  2.8598  1.7823
  366MOL0     H48277   8.328   3.874   8.976  1.0810 -0.1395  0.8057
  366MOL0     H48278   8.351   3.970   8.551  0.3369 -3.0667  0.9546
  366MOL0     H48279   8.262   4.112   8.619  2.1767 -0.1227 -1.4771
  366MOL0     H48280   8.112   3.848   8.558 -0.6623  0.6651  0.3376
  366MOL0     H48281   8.139   3.980   8.439  2.9249  0.6741  0.7047
  366MOL0     H48282   8.031   4.132   8.602  0.3594  0.0819  1.7308
  366MOL0     H48283   8.012   3.995   8.710 -2.1768  0.1869  0.3724
  366MOL0     H48284   7.896   3.992   8.434  1.4259  1.8673  0.6899
  366MOL0     H48285   7.857   3.881   8.556 -0.7319 -0.2640  1.0552
  366MOL0     H48286   7.749   4.047   8.701 -2.6274  2.3307  0.4701
  366MOL0     H48287   7.667   4.030   8.540 -0.9976 -0.6190  1.7250
  366MOL0     H48288   7.842   4.250   8.664 -1.0168  0.5424  0.0677
  366MOL0     H48289   7.667   4.267   8.649 -0.1062 -2.5816  0.8883
  366MOL0     H48290   7.875   4.262   8.421 -0.4215 -0.4289  0.9248
  366MOL0     H48291   7.710   4.204   8.399 -0.5905 -2.2219  3.0225
  366MOL0     H48292   7.750   4.485   8.511 -3.9805 -1.2896  1.6897
  366MOL0     H48293   7.621   4.409   8.429  0.3710  2.0104  0.3586
  366MOL0     H48294   8.337   3.763   8.578  0.1738 -0.2340  0.2143
  366MOL0     H48295   8.447   3.530   8.637  1.6145  0.9199 -0.4964
  366MOL0     H48296   8.592   3.237   8.915  0.0047 -1.8784 -1.5901
  366MOL0     H48297   8.631   3.008   9.003 -0.4310  1.6688  1.6663
  366MOL0     H48298   9.284   2.006  10.251  0.3898  0.7564 -1.4551
  366MOL0     H48299   9.458   1.839  10.327  2.1180  0.5523 -1.9382
  366MOL0     H48300   9.491   1.409  10.477  1.9587  0.5638  2.4531
  366MOL0     H48301   9.602   1.214  10.587  1.4865 -1.0410 -0.3220
  366MOL0     H48302  10.021   1.240  10.544  0.0291  0.9163 -1.3299
  366MOL0     H48303  10.004   1.115  10.420  0.1904  3.8022 -1.1427
  366MOL0     H48304  10.057   1.044  10.705  2.3152 -2.5798  1.0227
  366MOL0     H48305   9.997   0.930  10.583  0.6041  0.6517 -0.1171
  366MOL0     H48306  10.250   1.093  10.588 -2.2991  2.0028 -1.6122
  366MOL0     H48307  10.195   1.016  10.435 -1.4104 -1.7421 -0.1231
  366MOL0     H48308  10.265   0.871  10.700 -0.0002  2.1946  0.2275
  366MOL0     H48309  10.161   0.805  10.574  0.3298  0.5158 -1.3034
  366MOL0     H48310  10.553   0.830  10.398 -2.2995  1.5348 -3.4289
  366MOL0     H48311   9.937   1.298  10.339 -1.0963 -3.2607 -1.7366
  366MOL0     H48312   9.840   1.496  10.239  0.6187  1.2579  1.3339
  367MOL0     O48313  11.305   9.949  10.439 -0.4082  1.1320  0.3945
  367MOL0     C48314  11.259  10.056  10.420  0.3607 -0.4443  1.2434
  367MOL0     O48315  11.290  10.142  10.313  0.1338 -0.5046 -0.3752
  367MOL0     C48316  11.381  10.106  10.213  0.8299  0.3992 -0.5733
  367MOL0     C48317  11.367   9.983  10.152  0.3755 -1.0945 -0.1228
  367MOL0     C48318  11.448   9.952  10.038  0.3948 -0.8594 -0.0288
  367MOL0     C48319  11.538  10.052   9.998  0.4321  1.2194 -0.0037
  367MOL0     O48320  11.623  10.021   9.895  0.7643 -0.0994 -0.0958
  367MOL0     C48321  11.619  10.119   9.790  0.2288  0.0684 -0.5233
  367MOL0     C48322  11.741  10.095   9.705 -0.3885 -0.4448 -0.7306
  367MOL0     C48323  11.858  10.179   9.753 -0.1582  0.4588 -0.0700
  367MOL0     C48324  11.887  10.299   9.659 -0.0578 -0.9545  0.6632
  367MOL0     C48325  12.003  10.390   9.722  0.5062 -0.0039  0.1628
  367MOL0     C48326  11.948  10.480   9.825  0.2988 -0.6074  0.0798
  367MOL0     C48327  11.882  10.595   9.748  0.1370 -0.3584 -0.4595
  367MOL0     C48328  11.834  10.709   9.839 -0.4538 -0.5067  0.7944
  367MOL0     N48329  11.736  10.666   9.947 -0.6429 -0.4548 -0.0599
  367MOL0     C48330  11.605  10.632   9.912  0.2100 -0.3609 -0.8708
  367MOL0     C48331  11.557  10.577  10.029 -0.2901  0.1725  0.3961
  367MOL0     C48332  11.412  10.511  10.015  0.5059  0.4886 -0.0949
  367MOL0     C48333  11.333  10.539  10.135 -0.2225 -0.0786 -0.0957
  367MOL0     C48334  11.187  10.495  10.119  0.0491 -0.0007  0.0504
  367MOL0     C48335  11.108  10.541  10.249 -0.9943  0.1878 -0.2918
  367MOL0     O48336  10.973  10.497  10.240 -0.1190  0.2517  0.1027
  367MOL0     C48337  10.889  10.590  10.293 -0.2300 -1.0412  0.2095
  367MOL0     C48338  10.776  10.629  10.219 -0.1934  0.8216 -0.4677
  367MOL0     C48339  10.685  10.715  10.270  0.0865 -0.5125  0.5908
  367MOL0     C48340  10.707  10.787  10.386  0.3915 -0.2966  0.4386
  367MOL0     C48341  10.621  10.894  10.425 -0.2938  0.1503 -0.5657
  367MOL0     O48342  10.489  10.857  10.412  0.2838  0.0096 -0.0874
  367MOL0     C48343  10.403  10.955  10.449  0.4732  1.1900 -0.0625
  367MOL0     C48344  10.406  11.086  10.391 -0.5718  1.0561 -0.7046
  367MOL0     C48345  10.310  11.179  10.415 -0.0028 -0.8195  0.2334
  367MOL0     C48346  10.214  11.147  10.509 -0.0099  0.5699  0.7362
  367MOL0     O48347  10.114  11.239  10.550 -0.8346  0.1520 -0.2165
  367MOL0     C48348  10.113  11.365  10.491 -0.4655 -0.8464  0.1637
  367MOL0     C48349   9.998  11.443  10.558  0.9613 -0.5577  1.7219
  367MOL0     C48350   9.858  11.392  10.526  0.4898 -0.2708 -0.0622
  367MOL0     C48351   9.740  11.485  10.558  0.8189  0.1598  0.2994
  367MOL0     C48352   9.732  11.599  10.462  0.4103 -0.6295 -1.5896
  367MOL0     C48353   9.631  11.706  10.502  0.5311 -0.0712 -1.5818
  367MOL0     C48354   9.590  11.805  10.393 -0.3590 -0.3642 -0.9902
  367MOL0     C48355   9.478  11.750  10.309  0.2971  1.0566 -0.2769
  367MOL0    Cl48356   9.434  11.868  10.186 -0.4108  0.3683 -0.2745
  367MOL0     C48357  10.217  11.024  10.580 -0.1657  0.3217  0.1673
  367MOL0     C48358  10.312  10.927  10.538 -0.7027  0.4038 -0.1711
  367MOL0     O48359  10.670  10.987  10.488  0.2012  0.6281 -0.0083
  367MOL0     C48360  10.829  10.765  10.454 -0.5370  0.0576 -1.0143
  367MOL0     C48361  10.914  10.659  10.415  0.3401  0.0600 -0.5564
  367MOL0     N48362  11.649  10.589  10.131 -0.5667 -1.3513  0.0283
  367MOL0     N48363  11.757  10.634  10.081  0.5814 -0.0025  0.0722
  367MOL0     C48364  11.555  10.173  10.065 -0.2598  0.3576 -0.2834
  367MOL0     C48365  11.468  10.200  10.170 -0.2827  0.1111 -0.8335
  367MOL0     C48366  11.136  10.084  10.493  0.3080 -0.3894  0.7445
  367MOL0     C48367  11.109  10.220  10.525 -0.0484  1.1178  0.3154
  367MOL0     C48368  10.995  10.253  10.589 -0.1482  0.2938  0.2009
  367MOL0     C48369  10.887  10.158  10.601  0.9831  0.4974 -0.7449
  367MOL0     O48370  10.756  10.185  10.652  0.1175  0.8343 -0.1215
  367MOL0     C48371  10.723  10.323  10.690 -0.0876  0.3751 -0.4265
  367MOL0     C48372  10.575  10.335  10.720  0.2860  0.4607  0.4637
  367MOL0     C48373  10.528  10.478  10.735  0.4546 -0.1125 -0.5584
  367MOL0     C48374  10.503  10.550  10.605 -0.2221 -0.7849 -0.0256
  367MOL0     C48375  10.368  10.515  10.548  0.3622 -0.3750 -0.3175
  367MOL0     C48376  10.248  10.486  10.521 -0.6588  0.8891  0.3753
  367MOL0     C48377  10.911  10.027  10.569 -0.1369 -0.1608  0.7115
  367MOL0     C48378  11.038   9.986  10.522  0.3359  0.1206 -0.1807
  367MOL0     H48379  11.304   9.901  10.187  0.6959 -1.5792 -0.6536
  367MOL0     H48380  11.444   9.858   9.983 -0.4655 -0.2211 -1.0976
  367MOL0     H48381  11.617  10.218   9.835 -0.0554  0.7674 -2.0019
  367MOL0     H48382  11.531  10.120   9.725 -0.1249  2.1282 -0.0873
  367MOL0     H48383  11.716  10.109   9.600  1.2931 -1.3648 -1.2935
  367MOL0     H48384  11.766   9.990   9.718  2.3195  0.1140 -0.7532
  367MOL0     H48385  11.942  10.113   9.773 -0.9412 -0.6049 -0.1820
  367MOL0     H48386  11.837  10.205   9.857 -1.9576 -1.4047  0.1069
  367MOL0     H48387  11.913  10.248   9.565  2.2702 -0.2306  0.8390
  367MOL0     H48388  11.792  10.350   9.643 -0.0861 -1.2088 -0.0169
  367MOL0     H48389  12.054  10.443   9.641 -3.9215 -0.4070 -3.3189
  367MOL0     H48390  12.073  10.329   9.779  1.0800 -0.6138 -1.1421
  367MOL0     H48391  12.032  10.518   9.884  1.6137 -0.9447 -1.4853
  367MOL0     H48392  11.882  10.426   9.893  0.0532 -0.5197 -0.0903
  367MOL0     H48393  11.961  10.624   9.680  1.0541 -0.5131  0.5068
  367MOL0     H48394  11.792  10.563   9.694 -1.0364  0.8777  0.6821
  367MOL0     H48395  11.796  10.783   9.768 -4.1173 -0.0537  3.0216
  367MOL0     H48396  11.915  10.732   9.909 -1.4131  0.5083  1.6018
  367MOL0     H48397  11.558  10.627   9.814 -0.9759 -1.7517 -0.2663
  367MOL0     H48398  11.413  10.402  10.012  0.6722  0.3930  2.0258
  367MOL0     H48399  11.382  10.543   9.915  1.5762  1.2441 -0.1943
  367MOL0     H48400  11.354  10.644  10.154  1.3794 -0.6718  1.8203
  367MOL0     H48401  11.374  10.506  10.231  2.4401  1.7961 -0.4987
  367MOL0     H48402  11.155  10.538  10.024 -1.0471  3.1931  1.7231
  367MOL0     H48403  11.195  10.386  10.112  1.3565  0.1993 -2.4995
  367MOL0     H48404  11.111  10.650  10.254 -0.9776  0.4341 -3.4951
  367MOL0     H48405  11.147  10.486  10.335 -1.3197  1.4199  0.6601
  367MOL0     H48406  10.762  10.591  10.119 -1.9682  0.3109 -0.0584
  367MOL0     H48407  10.604  10.742  10.204 -0.0999 -0.4697  0.8357
  367MOL0     H48408  10.482  11.097  10.314 -1.0031 -2.0911 -1.6868
  367MOL0     H48409  10.324  11.269  10.355  2.5778 -0.6661  0.9428
  367MOL0     H48410  10.093  11.357  10.384 -0.5840 -3.4972  0.3013
  367MOL0     H48411  10.201  11.427  10.511 -1.8779  1.6155 -0.7737
  367MOL0     H48412   9.998  11.545  10.518  0.3424 -1.8370 -1.9465
  367MOL0     H48413  10.024  11.449  10.664 -0.3260  1.2768  1.9655
  367MOL0     H48414   9.839  11.302  10.585 -1.1799  1.5770  2.4426
  367MOL0     H48415   9.858  11.376  10.418  1.2214 -1.6397  0.1201
  367MOL0     H48416   9.650  11.426  10.535  0.3828  0.6942  0.6198
  367MOL0     H48417   9.734  11.520  10.661  0.2244 -1.6924  0.9421
  367MOL0     H48418   9.710  11.577  10.357 -3.2288 -1.1093 -0.8787
  367MOL0     H48419   9.824  11.658  10.472 -0.4417  0.2965  5.5192
  367MOL0     H48420   9.666  11.762  10.589 -1.7798  2.1728 -1.9642
  367MOL0     H48421   9.544  11.647  10.530  2.2417 -3.5603 -3.0729
  367MOL0     H48422   9.569  11.904  10.434  1.8661  0.1464 -0.9601
  367MOL0     H48423   9.675  11.822  10.327  1.1379  0.0356  0.9598
  367MOL0     H48424   9.400  11.725  10.381  0.6996  0.1139 -0.1458
  367MOL0     H48425   9.507  11.663  10.248 -3.2526 -0.3484 -0.2169
  367MOL0     H48426  10.145  11.005  10.659 -2.3875 -2.1267 -2.2029
  367MOL0     H48427  10.292  10.823  10.562 -2.3344 -0.0796 -3.0737
  367MOL0     H48428  10.856  10.820  10.544 -0.6212 -0.9901 -0.3300
  367MOL0     H48429  11.004  10.637  10.471  0.9530  0.5984 -1.3047
  367MOL0     H48430  11.635  10.241  10.038  0.5897  0.2390  1.7787
  367MOL0     H48431  11.477  10.298  10.215  0.5402  0.3017 -1.3827
  367MOL0     H48432  11.184  10.295  10.503  2.0089 -0.6842  0.8671
  367MOL0     H48433  10.981  10.353  10.631 -2.1415  0.9026 -1.7659
  367MOL0     H48434  10.742  10.365  10.590 -1.1649 -1.2728 -1.3611
  367MOL0     H48435  10.794  10.357  10.766  1.5173 -2.2168 -0.6730
  367MOL0     H48436  10.529  10.288  10.633  0.0512 -1.4607  1.5549
  367MOL0     H48437  10.553  10.283  10.814 -1.9714  0.1068 -0.1953
  367MOL0     H48438  10.594  10.532  10.803 -2.6091 -1.8993  4.3742
  367MOL0     H48439  10.434  10.482  10.792  1.2396 -0.0706  0.7885
  367MOL0     H48440  10.486  10.654  10.635  1.0439 -0.7492  0.6291
  367MOL0     H48441  10.575  10.559  10.524  0.0654  1.7098  0.4105
  367MOL0     H48442  10.145  10.471  10.492 -0.7649  0.2558  1.0498
  367MOL0     H48443  10.834   9.952  10.586 -1.7765  1.0846 -0.7810
  367MOL0     H48444  11.074   9.884  10.511  1.1861  0.5403 -1.5413
  368MOL0     O48445   3.185   4.770   9.722 -0.0662  0.2158  0.0943
  368MOL0     C48446   3.286   4.791   9.784 -0.5893 -1.0534  0.5269
  368MOL0     O48447   3.301   4.866   9.892  0.1254  0.1882  0.7357
  368MOL0     C48448   3.192   4.949   9.924 -0.3578  0.3017  0.5248
  368MOL0     C48449   3.210   5.080   9.920  0.8428 -0.3011 -0.5051
  368MOL0     C48450   3.102   5.171   9.947  0.2119  0.0952  0.5714
  368MOL0     C48451   2.971   5.130   9.980 -1.2433 -0.7211  0.5214
  368MOL0     O48452   2.876   5.230   9.993 -0.0149 -0.9061  0.4003
  368MOL0     C48453   2.746   5.174  10.044 -1.5026  0.5811  0.0505
  368MOL0     C48454   2.633   5.266  10.048 -0.2295  0.1453 -0.1296
  368MOL0     C48455   2.639   5.414  10.102 -0.8626 -0.0674 -0.1326
  368MOL0     C48456   2.637   5.420  10.251  0.4542 -0.0033 -0.0104
  368MOL0     C48457   2.700   5.534  10.317  0.0088 -0.0174  1.0108
  368MOL0     C48458   2.679   5.541  10.479  0.2444  0.5419 -0.5503
  368MOL0     C48459   2.684   5.689  10.516 -0.9453  0.2069 -0.1980
  368MOL0     C48460   2.724   5.719  10.656 -0.1105 -0.5866 -0.7574
  368MOL0     N48461   2.623   5.665  10.756  0.2385  0.4886 -0.7633
  368MOL0     C48462   2.601   5.536  10.796  0.5441  0.2602  1.1318
  368MOL0     C48463   2.520   5.550  10.905  0.0592 -0.0529 -0.7075
  368MOL0     C48464   2.460   5.443  10.995 -0.9218  0.2879  0.0317
  368MOL0     C48465   2.346   5.391  10.900  0.4347  0.4644 -0.4298
  368MOL0     C48466   2.289   5.265  10.949 -0.4502 -0.5042  0.2890
  368MOL0     C48467   2.246   5.254  11.093  0.1337  0.2897 -0.7365
  368MOL0     O48468   2.185   5.124  11.110 -0.8404  0.2424  0.8747
  368MOL0     C48469   2.200   5.060  11.230 -0.2998  0.6155 -0.7848
  368MOL0     C48470   2.168   5.116  11.347 -1.0512 -0.0968 -0.9372
  368MOL0     C48471   2.190   5.045  11.461  0.2083  1.0626  0.5755
  368MOL0     C48472   2.224   4.908  11.459 -0.4919  0.6609 -0.2939
  368MOL0     C48473   2.224   4.826  11.584  0.6689  0.1106 -0.6891
  368MOL0     O48474   2.205   4.693  11.571 -0.0415  0.0911  0.2425
  368MOL0     C48475   2.114   4.633  11.643 -0.2148  0.8030 -0.7149
  368MOL0     C48476   1.983   4.616  11.591 -0.1412 -0.5780  0.8589
  368MOL0     C48477   1.890   4.554  11.664  1.6587  0.5701 -0.2590
  368MOL0     C48478   1.930   4.479  11.772 -0.0796 -0.6295  0.2980
  368MOL0     O48479   1.840   4.389  11.825 -0.8518  0.3809 -1.1080
  368MOL0     C48480   1.861   4.264  11.777  1.3828  0.0931  0.6921
  368MOL0     C48481   1.727   4.199  11.821  0.3136 -1.0247 -0.2024
  368MOL0     C48482   1.724   4.053  11.768  0.7246 -0.5564  0.5676
  368MOL0     C48483   1.844   3.970  11.813 -0.3558 -0.3483  0.6607
  368MOL0     C48484   1.802   3.821  11.827 -0.1866 -0.0583  0.0930
  368MOL0     C48485   1.779   3.752  11.700 -0.3657  0.2099 -0.5722
  368MOL0     C48486   1.793   3.608  11.701  0.8729  0.4500 -0.1044
  368MOL0     C48487   1.705   3.544  11.800  0.4344  0.0924  0.0377
  368MOL0    Cl48488   1.528   3.570  11.770  0.2670  0.1425 -0.3350
  368MOL0     C48489   2.062   4.479  11.818 -0.5245 -0.4786  0.2659
  368MOL0     C48490   2.157   4.571  11.767  0.5110 -0.1248 -0.9748
  368MOL0     O48491   2.243   4.889  11.686 -0.9021 -0.7893  0.8706
  368MOL0     C48492   2.280   4.862  11.338 -0.0279  0.1182  0.0754
  368MOL0     C48493   2.260   4.936  11.223 -0.6260  0.1532 -0.1485
  368MOL0     N48494   2.487   5.681  10.922  0.2798 -0.3125 -0.7634
  368MOL0     N48495   2.557   5.758  10.835 -1.2317  0.0678  0.1751
  368MOL0     C48496   2.960   4.996  10.005 -0.2940  1.2464 -0.5107
  368MOL0     C48497   3.069   4.899   9.974  0.3942 -0.8955  0.1263
  368MOL0     C48498   3.401   4.726   9.733  0.4231  0.4063 -0.3626
  368MOL0     C48499   3.392   4.634   9.628  0.0348  1.3515 -0.4000
  368MOL0     C48500   3.494   4.552   9.586  0.4726  0.1297 -0.0241
  368MOL0     C48501   3.614   4.547   9.647 -0.4406  0.6252 -0.1737
  368MOL0     O48502   3.711   4.457   9.610  0.3237  0.4115  0.4225
  368MOL0     C48503   3.777   4.483   9.481  0.3207  0.0441 -0.0447
  368MOL0     C48504   3.914   4.545   9.500 -0.1198  0.4691  0.9020
  368MOL0     C48505   4.000   4.470   9.598  0.1772 -1.0845 -0.0310
  368MOL0     C48506   4.074   4.351   9.538  0.5095  0.8489  0.5848
  368MOL0     C48507   3.992   4.232   9.517 -0.2920  0.0884 -0.6225
  368MOL0     C48508   3.922   4.133   9.521 -0.4120 -0.1441 -0.0546
  368MOL0     C48509   3.632   4.631   9.751 -1.2463 -0.3910  0.3960
  368MOL0     C48510   3.528   4.712   9.798 -0.1302 -0.4318 -0.6789
  368MOL0     H48511   3.307   5.125   9.897 -0.0346  1.7027 -0.5231
  368MOL0     H48512   3.127   5.275   9.928 -1.0947  0.5587  1.2907
  368MOL0     H48513   2.767   5.128  10.141  0.0405  1.9776  0.4273
  368MOL0     H48514   2.720   5.086   9.984  0.1783 -2.1813  3.0075
  368MOL0     H48515   2.552   5.213  10.100 -2.6567  2.4183 -1.3273
  368MOL0     H48516   2.614   5.260   9.940  1.5248 -0.8070 -0.4272
  368MOL0     H48517   2.544   5.459  10.070 -1.1694  0.1683  1.0628
  368MOL0     H48518   2.727   5.468  10.068  1.7586 -3.2130  1.2018
  368MOL0     H48519   2.530   5.416  10.277  0.9440 -1.2757  2.1509
  368MOL0     H48520   2.680   5.330  10.296 -0.6040 -1.9618 -2.6458
  368MOL0     H48521   2.673   5.628  10.270  0.1769 -0.5263 -0.1213
  368MOL0     H48522   2.806   5.523  10.292 -0.8159 -3.1549 -1.7812
  368MOL0     H48523   2.754   5.478  10.529 -0.8933 -0.1309  0.3741
  368MOL0     H48524   2.584   5.495  10.508  0.5763 -0.4053 -0.9079
  368MOL0     H48525   2.764   5.738  10.461 -1.8929  2.5979  0.4280
  368MOL0     H48526   2.590   5.727  10.474 -0.8786 -1.3099 -1.8271
  368MOL0     H48527   2.749   5.823  10.678  0.8920 -1.3135  2.0496
  368MOL0     H48528   2.819   5.668  10.673  0.2964  0.7973  1.5844
  368MOL0     H48529   2.633   5.441  10.755  2.1873  0.7217  1.2568
  368MOL0     H48530   2.442   5.494  11.091 -0.8552  3.9978 -1.7537
  368MOL0     H48531   2.532   5.365  11.020 -2.2461 -0.2227  2.6463
  368MOL0     H48532   2.379   5.371  10.798  0.3070 -0.0016 -0.3806
  368MOL0     H48533   2.271   5.471  10.896 -0.4552 -0.4008 -1.3704
  368MOL0     H48534   2.205   5.235  10.885  1.9068 -0.0061 -3.3009
  368MOL0     H48535   2.361   5.189  10.916 -2.4291 -2.4862  0.2783
  368MOL0     H48536   2.176   5.338  11.099 -0.7226 -0.4679  0.2004
  368MOL0     H48537   2.317   5.276  11.173 -0.4323  0.1591 -0.1949
  368MOL0     H48538   2.113   5.210  11.340 -0.9045  0.0041 -0.7273
  368MOL0     H48539   2.152   5.091  11.552 -0.1060  0.9214  0.5154
  368MOL0     H48540   1.956   4.652  11.493  3.3970  0.5285  0.1497
  368MOL0     H48541   1.788   4.543  11.628  2.1623 -1.6849 -1.1286
  368MOL0     H48542   1.954   4.227  11.821 -0.6283 -4.9625  1.4397
  368MOL0     H48543   1.863   4.267  11.668 -1.8152 -2.8452  0.3424
  368MOL0     H48544   1.638   4.251  11.785 -1.9770 -2.7543  2.5004
  368MOL0     H48545   1.720   4.198  11.930 -1.1625  0.5206 -0.2450
  368MOL0     H48546   1.723   4.063  11.659  3.8793  6.6135  0.6558
  368MOL0     H48547   1.635   4.015  11.818  1.1611 -0.3257  1.5411
  368MOL0     H48548   1.923   3.985  11.739 -1.2191  1.6580  0.0770
  368MOL0     H48549   1.884   4.007  11.908  4.1814  0.0837 -1.1817
  368MOL0     H48550   1.716   3.808  11.893  0.2414 -0.1669  0.6339
  368MOL0     H48551   1.884   3.762  11.866 -3.7316 -4.9344  1.1281
  368MOL0     H48552   1.862   3.782  11.635  2.3841 -3.2749  0.9586
  368MOL0     H48553   1.683   3.770  11.651  0.8311  2.3098 -2.3307
  368MOL0     H48554   1.759   3.572  11.603 -2.5631 -1.7153  1.6979
  368MOL0     H48555   1.900   3.584  11.708  1.8206  4.2234  0.4558
  368MOL0     H48556   1.733   3.582  11.899  2.2892  3.3741 -1.5664
  368MOL0     H48557   1.696   3.438  11.775  0.3213  0.2726 -0.7017
  368MOL0     H48558   2.091   4.421  11.905  0.2276  0.1600  0.4545
  368MOL0     H48559   2.254   4.593  11.810 -0.5825  0.3533  1.4088
  368MOL0     H48560   2.336   4.769  11.325 -1.0202 -1.0772  3.3547
  368MOL0     H48561   2.293   4.911  11.123 -2.5378 -0.1458 -0.7562
  368MOL0     H48562   2.875   4.948  10.051  3.2730 -1.2562  4.4281
  368MOL0     H48563   3.039   4.795   9.984  0.8645 -1.1107 -0.6042
  368MOL0     H48564   3.302   4.632   9.567 -0.0492  0.2925 -0.2561
  368MOL0     H48565   3.474   4.488   9.502  0.0293  0.2245  0.0089
  368MOL0     H48566   3.711   4.544   9.417  0.4027  1.7560  1.4155
  368MOL0     H48567   3.782   4.384   9.435 -0.4855 -1.5202  2.9653
  368MOL0     H48568   3.967   4.554   9.405  0.1013  0.9049  1.0631
  368MOL0     H48569   3.915   4.645   9.544  0.2116  0.8818 -0.0175
  368MOL0     H48570   3.937   4.452   9.685 -1.6899  8.1311  1.6173
  368MOL0     H48571   4.079   4.537   9.633 -1.6417  1.5999 -0.7372
  368MOL0     H48572   4.129   4.380   9.448 -1.7056 -0.1813 -1.2066
  368MOL0     H48573   4.147   4.334   9.618  1.3107  3.1563  0.4128
  368MOL0     H48574   3.851   4.054   9.504 -0.7550  0.1813 -0.1516
  368MOL0     H48575   3.727   4.624   9.803 -1.3155 -0.6392  0.4902
  368MOL0     H48576   3.545   4.783   9.879  0.0705 -0.6425 -0.5342
  369MOL0     O48577   0.315   7.625   7.448 -0.0815 -0.1587  0.1527
  369MOL0     C48578   0.222   7.588   7.522 -1.0046 -0.2497  0.0322
  369MOL0     O48579   0.227   7.482   7.610 -0.1715 -1.1978 -0.5296
  369MOL0     C48580   0.349   7.417   7.634  0.3809 -0.6568  0.0826
  369MOL0     C48581   0.360   7.270   7.616  0.3074 -0.0423  0.1510
  369MOL0     C48582   0.478   7.213   7.649  0.4589  0.5552 -0.4889
  369MOL0     C48583   0.584   7.281   7.703 -1.5065 -0.6627  0.3885
  369MOL0     O48584   0.697   7.222   7.744  0.1892 -0.1512  0.4957
  369MOL0     C48585   0.751   7.111   7.670  0.1882 -0.0896  0.9073
  369MOL0     C48586   0.698   6.969   7.716  0.4318 -0.4407  0.5155
  369MOL0     C48587   0.791   6.911   7.818  0.2718 -0.4118 -0.4866
  369MOL0     C48588   0.938   6.909   7.784  0.8617 -0.0446  0.3028
  369MOL0     C48589   1.019   6.810   7.858  0.8003  0.6176 -0.5145
  369MOL0     C48590   1.167   6.842   7.862  0.0916  0.1428  0.7296
  369MOL0     C48591   1.234   6.729   7.942  0.4313  0.1053  0.0796
  369MOL0     C48592   1.293   6.784   8.071  0.3347 -0.6510 -0.4523
  369MOL0     N48593   1.186   6.818   8.173 -0.0573 -0.2611 -0.0497
  369MOL0     C48594   1.092   6.741   8.225  0.8731 -1.0586 -0.4362
  369MOL0     C48595   0.982   6.815   8.262 -0.4741 -0.4797 -0.2562
  369MOL0     C48596   0.852   6.768   8.319  1.0765  0.9331  0.3317
  369MOL0     C48597   0.743   6.758   8.210  0.0598 -0.1989  0.3358
  369MOL0     C48598   0.618   6.676   8.257 -0.1790  0.9155  0.2051
  369MOL0     C48599   0.515   6.679   8.143 -0.6087 -0.1404 -0.4208
  369MOL0     O48600   0.465   6.803   8.138 -0.1554 -0.4033 -0.2886
  369MOL0     C48601   0.402   6.831   8.024  0.1854  0.6204  0.0306
  369MOL0     C48602   0.367   6.739   7.920 -0.2044 -0.2860 -0.6513
  369MOL0     C48603   0.298   6.792   7.807  1.1235 -0.2008 -0.3170
  369MOL0     C48604   0.261   6.927   7.799 -0.1895 -0.3763  0.3555
  369MOL0     C48605   0.190   6.967   7.685 -0.9961  0.0004  0.2310
  369MOL0     O48606   0.108   7.068   7.711  0.6106  0.4029 -0.0405
  369MOL0     C48607   0.005   7.106   7.617 -0.2492  0.0354 -0.1635
  369MOL0     C48608  -0.072   7.016   7.541 -0.0077  0.2337  0.4984
  369MOL0     C48609  -0.166   7.045   7.442  1.2847  0.0843 -0.2599
  369MOL0     C48610  -0.200   7.186   7.429 -0.8309  0.3693  0.3419
  369MOL0     O48611  -0.296   7.244   7.350  0.6806  0.9717 -0.0260
  369MOL0     C48612  -0.393   7.158   7.291 -0.1611 -0.3184 -0.1102
  369MOL0     C48613  -0.495   7.241   7.205 -0.4954 -0.1842  0.3444
  369MOL0     C48614  -0.578   7.342   7.288 -0.0144 -0.6700  0.6050
  369MOL0     C48615  -0.702   7.397   7.217 -0.3764  0.2876 -0.2072
  369MOL0     C48616  -0.813   7.445   7.314  0.8908 -0.0153 -1.2349
  369MOL0     C48617  -0.784   7.574   7.400 -1.0197  0.1660 -0.7949
  369MOL0     C48618  -0.901   7.615   7.496  0.2721  1.0318  0.8709
  369MOL0     C48619  -0.874   7.744   7.572  1.1334 -0.7398 -0.0365
  369MOL0    Cl48620  -1.038   7.804   7.618 -0.2543  0.0041 -0.0745
  369MOL0     C48621  -0.135   7.272   7.510 -0.6287 -0.2634 -0.2399
  369MOL0     C48622  -0.033   7.240   7.598 -0.1629  0.1875 -0.3583
  369MOL0     O48623   0.208   6.915   7.573  0.4898 -0.3116 -0.2506
  369MOL0     C48624   0.286   7.011   7.907 -0.2528 -1.0749  0.0378
  369MOL0     C48625   0.361   6.966   8.011  0.1285 -0.5371 -0.2910
  369MOL0     N48626   1.019   6.947   8.248 -0.5429  0.8675  0.5158
  369MOL0     N48627   1.142   6.950   8.198  0.3013 -0.2365  0.5477
  369MOL0     C48628   0.579   7.421   7.710  0.3825 -0.9341  0.5638
  369MOL0     C48629   0.461   7.490   7.684 -0.0307  1.0201  1.0159
  369MOL0     C48630   0.083   7.652   7.515  1.9013  0.5694  0.8851
  369MOL0     C48631  -0.015   7.608   7.602 -0.1351 -0.2254 -0.0198
  369MOL0     C48632  -0.149   7.654   7.583 -0.7612 -0.7090 -0.5342
  369MOL0     C48633  -0.187   7.746   7.480 -0.5906  0.6262  0.2894
  369MOL0     O48634  -0.316   7.799   7.468  0.2801  0.4532  0.8844
  369MOL0     C48635  -0.348   7.921   7.399 -0.0855  0.0781 -0.0856
  369MOL0     C48636  -0.493   7.961   7.427  0.7714 -0.3649 -0.5669
  369MOL0     C48637  -0.550   8.052   7.318  0.0608 -0.5553  0.5920
  369MOL0     C48638  -0.695   8.094   7.349 -0.8163 -0.1930  0.4279
  369MOL0     C48639  -0.748   8.176   7.244 -0.3098  0.7948  0.2827
  369MOL0     C48640  -0.815   8.242   7.177  0.5976  0.4478 -0.2154
  369MOL0     C48641  -0.083   7.782   7.399 -0.6219 -0.3692  0.2148
  369MOL0     C48642   0.052   7.737   7.404  0.6336 -0.4666 -0.2142
  369MOL0     H48643   0.289   7.210   7.561  0.7103  2.4995 -3.4684
  369MOL0     H48644   0.474   7.108   7.622 -2.1171  0.4081  0.1687
  369MOL0     H48645   0.859   7.122   7.666  0.5292 -3.0801 -0.7205
  369MOL0     H48646   0.719   7.113   7.565  1.2082 -3.1961  0.4382
  369MOL0     H48647   0.688   6.905   7.628 -0.8853 -0.0388  0.3517
  369MOL0     H48648   0.594   6.969   7.750 -0.2459  0.1001 -1.4313
  369MOL0     H48649   0.763   6.808   7.840 -0.1379 -0.0559  0.7417
  369MOL0     H48650   0.784   6.958   7.917 -1.4123  0.6313 -1.0427
  369MOL0     H48651   0.960   6.898   7.678 -3.3555 -1.5589 -0.6091
  369MOL0     H48652   0.967   7.013   7.805  0.3006  0.3511 -0.7977
  369MOL0     H48653   1.013   6.719   7.797  3.4024  2.2915 -3.5716
  369MOL0     H48654   0.983   6.796   7.961  0.8534 -1.8675 -0.7672
  369MOL0     H48655   1.183   6.933   7.920 -1.7628 -1.6789  4.4741
  369MOL0     H48656   1.205   6.834   7.759 -1.3378 -2.8744  0.3213
  369MOL0     H48657   1.155   6.656   7.961 -0.9896  2.6175  5.9110
  369MOL0     H48658   1.317   6.686   7.885  1.5983 -1.8843  3.0185
  369MOL0     H48659   1.355   6.872   8.053 -0.9287 -0.2295 -3.4139
  369MOL0     H48660   1.360   6.701   8.097  1.8386  1.0232  1.3061
  369MOL0     H48661   1.079   6.634   8.234 -4.2096 -0.6372 -0.1716
  369MOL0     H48662   0.821   6.827   8.406 -1.2697 -2.9094  2.3878
  369MOL0     H48663   0.866   6.667   8.358  0.8173  1.3032  1.4209
  369MOL0     H48664   0.783   6.701   8.126 -0.3201  2.6011 -1.9068
  369MOL0     H48665   0.707   6.856   8.176  1.4985 -0.3016 -1.6420
  369MOL0     H48666   0.645   6.570   8.270 -4.0507 -0.9270 -3.9700
  369MOL0     H48667   0.583   6.714   8.354  1.7659  1.2705  0.8095
  369MOL0     H48668   0.437   6.612   8.178 -0.6035  1.1375  2.3286
  369MOL0     H48669   0.562   6.653   8.047 -1.6611 -0.4218 -0.8719
  369MOL0     H48670   0.375   6.631   7.934  1.0997 -0.0725  0.4275
  369MOL0     H48671   0.267   6.742   7.716 -1.7277  1.3785 -0.3380
  369MOL0     H48672  -0.059   6.910   7.563 -0.4557 -0.0741 -0.6715
  369MOL0     H48673  -0.204   6.961   7.384  2.4167 -0.7656  0.1744
  369MOL0     H48674  -0.457   7.102   7.361 -3.3260  0.6903 -1.9695
  369MOL0     H48675  -0.342   7.088   7.225 -1.1694 -0.5854 -0.6335
  369MOL0     H48676  -0.554   7.172   7.144 -0.2777 -0.5093  0.5008
  369MOL0     H48677  -0.440   7.297   7.129 -3.3772  0.5145 -1.3990
  369MOL0     H48678  -0.511   7.427   7.304  0.9246 -1.2316 -0.3034
  369MOL0     H48679  -0.605   7.305   7.388  3.7036 -1.4727  1.4437
  369MOL0     H48680  -0.667   7.479   7.153  1.0965 -0.1194  0.0270
  369MOL0     H48681  -0.752   7.312   7.171  1.1303 -0.3191 -0.7731
  369MOL0     H48682  -0.841   7.370   7.389  0.7399  3.7377  2.9291
  369MOL0     H48683  -0.901   7.458   7.250 -1.4437 -2.0652  1.2937
  369MOL0     H48684  -0.766   7.652   7.325 -0.0528  2.4253  1.6497
  369MOL0     H48685  -0.689   7.561   7.452 -1.8630 -0.3445  0.7002
  369MOL0     H48686  -0.983   7.640   7.427 -1.2330  1.9922  2.9168
  369MOL0     H48687  -0.935   7.529   7.554 -1.1212 -1.6336 -3.3734
  369MOL0     H48688  -0.824   7.827   7.521 -1.3002  1.9763  1.7095
  369MOL0     H48689  -0.810   7.719   7.657  1.0511 -3.7420 -0.7372
  369MOL0     H48690  -0.170   7.374   7.498  0.4071  0.2437  0.7277
  369MOL0     H48691   0.021   7.321   7.646  2.6784 -2.0801  0.6327
  369MOL0     H48692   0.241   7.110   7.909 -0.6993 -1.2844  1.4624
  369MOL0     H48693   0.380   7.042   8.085  0.9429 -3.6226  2.9535
  369MOL0     H48694   0.668   7.474   7.744 -0.0149  0.6696 -0.7548
  369MOL0     H48695   0.456   7.598   7.694  0.0486  1.2850 -1.2570
  369MOL0     H48696   0.009   7.551   7.692 -0.8622 -0.2673  0.1539
  369MOL0     H48697  -0.226   7.628   7.655 -0.9275  0.9131 -0.0770
  369MOL0     H48698  -0.357   7.903   7.291 -0.2349  1.6859 -0.3607
  369MOL0     H48699  -0.281   8.004   7.419  0.2541 -0.8749  3.2330
  369MOL0     H48700  -0.550   7.868   7.424  2.2661 -1.7048  4.3217
  369MOL0     H48701  -0.518   8.002   7.525  0.8492  1.2326 -1.1856
  369MOL0     H48702  -0.546   7.998   7.223  1.1618 -1.1750  0.9698
  369MOL0     H48703  -0.486   8.141   7.306  2.1616 -2.2142 -1.4850
  369MOL0     H48704  -0.749   8.002   7.370  1.3956 -1.4774  0.8679
  369MOL0     H48705  -0.689   8.153   7.441 -0.0816  2.8407 -1.4052
  369MOL0     H48706  -0.887   8.296   7.118  1.4181  0.9289 -0.7957
  369MOL0     H48707  -0.116   7.848   7.319  2.7436 -1.1372 -2.0372
  369MOL0     H48708   0.133   7.770   7.340  1.5067 -0.8547  0.6813
  370MOL0     O48709   2.276   7.300   5.191  0.0702 -0.4734  0.4217
  370MOL0     C48710   2.387   7.249   5.177  0.9658  0.3097  0.4912
  370MOL0     O48711   2.496   7.269   5.265  0.0157 -0.6705 -0.2943
  370MOL0     C48712   2.531   7.387   5.319  0.3294 -1.1784 -0.5619
  370MOL0     C48713   2.437   7.487   5.357 -1.3464 -0.9104 -1.1064
  370MOL0     C48714   2.480   7.620   5.405 -0.6116  0.5630 -0.2894
  370MOL0     C48715   2.616   7.654   5.401 -0.7224  0.5239  0.2560
  370MOL0     O48716   2.661   7.777   5.456 -0.3595  0.5635  1.0700
  370MOL0     C48717   2.777   7.834   5.389  0.0127 -0.7969 -0.3372
  370MOL0     C48718   2.759   7.989   5.405 -0.2715  0.7367  0.0499
  370MOL0     C48719   2.887   8.052   5.369  0.5291  0.3733 -0.5893
  370MOL0     C48720   2.871   8.209   5.372 -0.8414  0.5336  0.4094
  370MOL0     C48721   3.006   8.274   5.406 -0.3803  0.2424  0.3295
  370MOL0     C48722   2.994   8.424   5.408 -0.0012 -0.2734  0.2045
  370MOL0     C48723   2.896   8.481   5.518 -1.0393  0.0155 -0.4983
  370MOL0     C48724   2.873   8.632   5.525  0.6614  0.0085  0.5380
  370MOL0     N48725   2.973   8.723   5.581 -0.0944  0.6858  0.8560
  370MOL0     C48726   2.954   8.863   5.605  0.2589 -0.5003 -0.3068
  370MOL0     C48727   3.062   8.907   5.662 -0.4808 -0.4352 -0.4755
  370MOL0     C48728   3.072   9.043   5.725  0.5514  0.1383 -0.1802
  370MOL0     C48729   3.203   9.113   5.697 -0.2131 -0.6365  0.4411
  370MOL0     C48730   3.223   9.255   5.741 -1.0199  0.0239  0.4645
  370MOL0     C48731   3.231   9.284   5.892 -0.1090 -0.6275  1.0325
  370MOL0     O48732   3.348   9.356   5.942 -0.2411  0.3427  0.3628
  370MOL0     C48733   3.356   9.490   5.930 -0.4568  0.3524  1.0620
  370MOL0     C48734   3.462   9.554   5.982  0.4562  0.2399 -0.8176
  370MOL0     C48735   3.472   9.688   5.953 -0.1792 -0.9309  0.4747
  370MOL0     C48736   3.381   9.767   5.876 -0.4795  0.3194  0.7511
  370MOL0     C48737   3.399   9.914   5.860 -0.1738 -0.0723 -0.2580
  370MOL0     O48738   3.518   9.978   5.893  0.3463 -0.0793 -0.1503
  370MOL0     C48739   3.521  10.110   5.890  0.3877 -0.2843  0.3091
  370MOL0     C48740   3.479  10.187   5.781 -0.1764 -0.7054 -0.2341
  370MOL0     C48741   3.462  10.329   5.792  0.0864  0.7977 -0.3595
  370MOL0     C48742   3.506  10.395   5.899 -0.1925  0.2227 -0.0171
  370MOL0     O48743   3.492  10.528   5.897 -0.1895  0.5437 -0.1926
  370MOL0     C48744   3.598  10.610   5.959 -1.1920  0.6543 -1.2195
  370MOL0     C48745   3.655  10.712   5.869 -0.1734  0.1362  0.2695
  370MOL0     C48746   3.540  10.780   5.788 -0.7147  0.1828  0.2162
  370MOL0     C48747   3.606  10.903   5.719  0.9151 -0.1203  0.4693
  370MOL0     C48748   3.520  11.004   5.649  0.5567 -0.7068 -1.1623
  370MOL0     C48749   3.422  11.073   5.743 -0.3609 -0.1720  0.1529
  370MOL0     C48750   3.356  11.199   5.679  0.3955  0.1895  0.1609
  370MOL0     C48751   3.308  11.161   5.529  0.2930  0.4346  0.1765
  370MOL0    Cl48752   3.181  11.030   5.535  0.1088 -0.5474 -0.3249
  370MOL0     C48753   3.559  10.321   6.000 -0.2656  0.1373  0.2705
  370MOL0     C48754   3.560  10.181   6.002 -0.9368 -0.6540 -0.1200
  370MOL0     O48755   3.309   9.975   5.805  0.2915 -0.2397  0.1479
  370MOL0     C48756   3.266   9.697   5.832  0.7012 -0.3761  0.2272
  370MOL0     C48757   3.255   9.561   5.864 -0.5292  0.2348 -0.3991
  370MOL0     N48758   3.153   8.797   5.676  0.6945 -0.4676 -0.1838
  370MOL0     N48759   3.097   8.686   5.628 -0.0668  0.1143 -0.3700
  370MOL0     C48760   2.699   7.558   5.350 -0.6418 -0.4855 -1.3704
  370MOL0     C48761   2.664   7.427   5.322 -0.4972 -0.9776 -0.6179
  370MOL0     C48762   2.397   7.154   5.062 -0.3035 -0.1015 -0.9238
  370MOL0     C48763   2.515   7.148   4.990 -1.2531  0.5440  0.7293
  370MOL0     C48764   2.532   7.058   4.886  0.0200 -0.4016 -1.1529
  370MOL0     C48765   2.433   6.960   4.860 -0.7283  1.0389 -0.9427
  370MOL0     O48766   2.444   6.883   4.748  0.6903 -0.3526 -0.4618
  370MOL0     C48767   2.487   6.743   4.766 -0.0617 -0.2035  0.9666
  370MOL0     C48768   2.364   6.655   4.727 -0.1831 -0.5160 -0.3593
  370MOL0     C48769   2.345   6.630   4.574 -0.0192 -0.2326 -0.9192
  370MOL0     C48770   2.440   6.528   4.522  0.2177  0.6776 -0.6799
  370MOL0     C48771   2.426   6.522   4.371 -0.0452  0.5506  0.1501
  370MOL0     C48772   2.410   6.520   4.250  0.6391  1.0111  0.5119
  370MOL0     C48773   2.308   6.968   4.930 -0.8111  0.4218  0.2301
  370MOL0     C48774   2.297   7.062   5.030  0.4327 -0.7734 -0.8776
  370MOL0     H48775   2.330   7.474   5.362 -1.5445  0.3758 -1.6219
  370MOL0     H48776   2.420   7.708   5.425  2.5385  2.9110 -0.3588
  370MOL0     H48777   2.781   7.797   5.286  2.1826  0.3621 -0.7307
  370MOL0     H48778   2.865   7.799   5.443  0.5063 -0.4502 -0.9078
  370MOL0     H48779   2.727   8.013   5.507  0.5794 -0.3208  0.6044
  370MOL0     H48780   2.691   8.031   5.331  3.3802 -0.0175 -4.1631
  370MOL0     H48781   2.932   8.039   5.270 -0.7191  1.9297 -1.4051
  370MOL0     H48782   2.963   8.023   5.443  0.2402 -2.1801 -1.1999
  370MOL0     H48783   2.852   8.247   5.271 -1.7983  2.4663  1.2659
  370MOL0     H48784   2.791   8.243   5.439 -2.2700  0.2571 -1.0883
  370MOL0     H48785   3.081   8.250   5.330  0.9547  2.5257  0.8478
  370MOL0     H48786   3.043   8.245   5.504  2.4234 -1.6484 -1.1629
  370MOL0     H48787   2.937   8.445   5.316  0.2360 -3.7319 -0.8615
  370MOL0     H48788   3.089   8.477   5.420 -1.0866  1.4750  1.5666
  370MOL0     H48789   2.798   8.433   5.520 -1.9684  1.6475  4.3685
  370MOL0     H48790   2.935   8.448   5.615  0.5046  1.2297 -0.6668
  370MOL0     H48791   2.784   8.650   5.585  1.1272  1.3019  0.8892
  370MOL0     H48792   2.846   8.669   5.426 -2.4373 -0.4413  1.1382
  370MOL0     H48793   2.865   8.918   5.576 -1.5696 -2.7017  0.8253
  370MOL0     H48794   3.059   9.025   5.832  0.2764  1.1955 -0.0229
  370MOL0     H48795   3.001   9.112   5.677  1.5133  0.8535 -0.6194
  370MOL0     H48796   3.215   9.103   5.589 -0.0672 -1.6914  0.5418
  370MOL0     H48797   3.290   9.056   5.732  1.7857  1.2575 -1.1588
  370MOL0     H48798   3.313   9.284   5.687  0.7895 -3.0329  1.6003
  370MOL0     H48799   3.149   9.316   5.688  1.9798  2.7964 -0.8549
  370MOL0     H48800   3.249   9.186   5.937 -0.5201 -1.4119 -0.4450
  370MOL0     H48801   3.140   9.334   5.925 -0.6839 -1.6148  1.0144
  370MOL0     H48802   3.538   9.501   6.039  0.3441 -0.8465 -1.6305
  370MOL0     H48803   3.558   9.745   5.986 -0.4843 -0.6559  0.8073
  370MOL0     H48804   3.449  10.138   5.689 -1.2676  1.9114 -1.3574
  370MOL0     H48805   3.413  10.392   5.718 -1.6335  0.5221  0.4890
  370MOL0     H48806   3.681  10.549   5.995 -2.2064 -2.8733 -4.2547
  370MOL0     H48807   3.562  10.652   6.053  3.7035 -0.9412  1.7584
  370MOL0     H48808   3.723  10.658   5.803 -0.8909 -2.1762  1.3374
  370MOL0     H48809   3.711  10.788   5.925 -0.4294 -0.5759  1.5290
  370MOL0     H48810   3.462  10.819   5.854 -2.3474  2.1953 -2.7072
  370MOL0     H48811   3.481  10.725   5.715  0.4636  0.3622 -0.9010
  370MOL0     H48812   3.657  10.961   5.796  0.2089 -1.2561  1.8431
  370MOL0     H48813   3.679  10.869   5.645  3.8191  4.4594  0.8685
  370MOL0     H48814   3.456  10.964   5.570 -1.5690 -0.4800  0.3689
  370MOL0     H48815   3.590  11.080   5.612  0.1041 -0.5077 -1.6157
  370MOL0     H48816   3.484  11.104   5.828  0.9585 -1.8382 -0.1442
  370MOL0     H48817   3.339  11.006   5.768 -1.0014  0.9500  1.1121
  370MOL0     H48818   3.271  11.242   5.733  0.7061  4.4017 -2.2320
  370MOL0     H48819   3.429  11.280   5.666  1.6941 -0.8453  0.7856
  370MOL0     H48820   3.396  11.125   5.474  0.9693  0.4118  1.2394
  370MOL0     H48821   3.270  11.250   5.477 -0.2507 -1.1873 -2.3529
  370MOL0     H48822   3.589  10.369   6.092 -1.6093  1.6369 -0.0319
  370MOL0     H48823   3.607  10.122   6.081  4.7579  0.7876 -1.9732
  370MOL0     H48824   3.189   9.739   5.769  2.0767  0.2871 -1.0634
  370MOL0     H48825   3.158   9.523   5.834 -1.2793  0.3109  1.7896
  370MOL0     H48826   2.807   7.571   5.353 -0.1863 -3.3085  2.1764
  370MOL0     H48827   2.728   7.346   5.289  0.6625  0.2227 -1.4116
  370MOL0     H48828   2.587   7.225   5.019 -2.7478  1.7786  1.3002
  370MOL0     H48829   2.613   7.069   4.814 -1.1073  1.9043 -2.1925
  370MOL0     H48830   2.518   6.706   4.864 -3.2705  0.6757  2.4604
  370MOL0     H48831   2.561   6.740   4.686 -3.2853 -2.2826 -2.2208
  370MOL0     H48832   2.376   6.563   4.785 -0.1573 -0.5328 -0.3920
  370MOL0     H48833   2.277   6.715   4.755 -0.1131 -1.4308  2.0576
  370MOL0     H48834   2.356   6.729   4.529  1.3660  1.7979  3.3228
  370MOL0     H48835   2.245   6.586   4.565 -0.7591  0.7647  1.5285
  370MOL0     H48836   2.542   6.558   4.549 -0.0538  0.5241  0.5664
  370MOL0     H48837   2.421   6.425   4.554 -0.4262  0.7053 -0.9572
  370MOL0     H48838   2.402   6.514   4.143 -1.6395 -2.9978  0.6806
  370MOL0     H48839   2.219   6.913   4.902 -0.1941 -1.6637  2.0440
  370MOL0     H48840   2.200   7.074   5.078 -0.3302 -1.6182 -2.1484
  371MOL0     O48841   8.895   8.879   7.790  0.2883 -0.2291  0.2303
  371MOL0     C48842   8.849   8.996   7.777 -0.9529  0.6986  0.6159
  371MOL0     O48843   8.799   9.050   7.661  0.7707 -0.8503  0.0135
  371MOL0     C48844   8.797   8.980   7.538 -0.3799 -0.3222 -0.8283
  371MOL0     C48845   8.687   9.005   7.449  0.1605  0.0704 -0.8512
  371MOL0     C48846   8.687   8.949   7.320 -0.0909 -0.1379  0.5608
  371MOL0     C48847   8.782   8.870   7.277  0.6166  0.5732 -0.3037
  371MOL0     O48848   8.779   8.816   7.147  0.1581  0.1698 -0.5702
  371MOL0     C48849   8.792   8.679   7.139  0.1806  0.3419 -0.2847
  371MOL0     C48850   8.725   8.628   7.014 -0.0121 -0.1420  0.3919
  371MOL0     C48851   8.816   8.666   6.895 -1.4510  0.3764  0.2714
  371MOL0     C48852   8.737   8.626   6.765 -1.2116  0.2316 -0.3644
  371MOL0     C48853   8.827   8.671   6.644 -0.0667 -0.5832 -0.4774
  371MOL0     C48854   8.792   8.598   6.513  0.5349 -0.4447 -0.2323
  371MOL0     C48855   8.902   8.627   6.413 -0.1753 -0.8503 -0.0402
  371MOL0     C48856   8.875   8.742   6.323  0.3262  0.9695  0.0591
  371MOL0     N48857   8.970   8.742   6.208  0.4187 -0.3886  0.2158
  371MOL0     C48858   8.960   8.668   6.097 -1.0359  0.9033  0.6576
  371MOL0     C48859   9.080   8.679   6.024  0.3489  0.9661 -0.8819
  371MOL0     C48860   9.119   8.618   5.892 -0.4579 -0.3659 -0.9643
  371MOL0     C48861   9.210   8.711   5.817  0.5512 -0.8801  0.1404
  371MOL0     C48862   9.260   8.681   5.672 -0.6256  0.0912  0.9043
  371MOL0     C48863   9.342   8.557   5.673  0.0246 -0.7882  0.6399
  371MOL0     O48864   9.462   8.572   5.747  0.3054  0.0927  0.1458
  371MOL0     C48865   9.546   8.466   5.766  0.5560 -0.8079  0.3508
  371MOL0     C48866   9.549   8.347   5.692 -0.6609  0.2626  0.8386
  371MOL0     C48867   9.636   8.243   5.718 -0.4477 -0.7059  0.1199
  371MOL0     C48868   9.727   8.267   5.823 -0.1324  0.6647 -0.1249
  371MOL0     C48869   9.838   8.163   5.853  0.2852 -1.0864 -0.7168
  371MOL0     O48870   9.957   8.194   5.921  0.1592 -0.2878  0.1079
  371MOL0     C48871  10.018   8.091   5.985  0.6323  0.0160 -0.8505
  371MOL0     C48872   9.951   8.046   6.093  0.6831  0.1181  0.3071
  371MOL0     C48873  10.026   7.947   6.163  0.7851  0.2447 -0.3700
  371MOL0     C48874  10.147   7.891   6.110 -0.0458  0.2739  0.4865
  371MOL0     O48875  10.206   7.782   6.160  0.1166  0.6477 -0.0495
  371MOL0     C48876  10.192   7.763   6.301  0.8326 -1.1288 -0.2739
  371MOL0     C48877  10.310   7.692   6.369 -0.5312  0.1062  0.4617
  371MOL0     C48878  10.435   7.782   6.383  0.2225  0.1155  0.3494
  371MOL0     C48879  10.431   7.875   6.509  0.2811  0.0230 -1.0270
  371MOL0     C48880  10.562   7.921   6.555  0.0984  1.2693  0.3983
  371MOL0     C48881  10.569   7.959   6.694 -0.5181 -0.3554  0.3802
  371MOL0     C48882  10.460   8.056   6.734  0.2562  0.5648  1.0117
  371MOL0     C48883  10.492   8.140   6.858 -0.1021  0.1751 -0.5227
  371MOL0    Cl48884  10.635   8.246   6.824  0.3163  0.0067 -0.6242
  371MOL0     C48885  10.203   7.947   6.001 -0.2664 -1.0286  0.6632
  371MOL0     C48886  10.137   8.054   5.936 -0.0841 -0.7477  0.6219
  371MOL0     O48887   9.818   8.052   5.801 -0.7368  1.3186 -0.2493
  371MOL0     C48888   9.727   8.384   5.899  0.9888 -0.3292  0.4749
  371MOL0     C48889   9.635   8.482   5.870  0.6077  0.0233 -0.0974
  371MOL0     N48890   9.156   8.767   6.097 -0.3663 -0.0737 -0.2926
  371MOL0     N48891   9.088   8.811   6.204 -0.0324  0.1159 -0.1684
  371MOL0     C48892   8.888   8.835   7.364  0.5682 -1.0000 -0.2594
  371MOL0     C48893   8.894   8.894   7.492 -1.4026 -0.0289 -0.2138
  371MOL0     C48894   8.850   9.090   7.901  0.3710 -0.1145  1.0224
  371MOL0     C48895   8.948   9.060   8.000  0.3263 -0.0011  0.3704
  371MOL0     C48896   8.957   9.157   8.101 -0.3719 -0.4549  0.1440
  371MOL0     C48897   8.884   9.284   8.106  0.4457  0.3846 -0.0161
  371MOL0     O48898   8.922   9.373   8.196  0.5169 -0.5459  0.2422
  371MOL0     C48899   9.032   9.456   8.156 -0.3059 -0.3323  0.7165
  371MOL0     C48900   9.120   9.501   8.269 -0.1403  0.0632 -0.5693
  371MOL0     C48901   9.068   9.611   8.366  0.7960  0.6126  0.4606
  371MOL0     C48902   9.013   9.731   8.292 -0.4047 -0.2119  0.4209
  371MOL0     C48903   9.104   9.806   8.199 -0.5852  0.9346  0.3016
  371MOL0     C48904   9.167   9.867   8.117 -0.0956  0.5425  0.8956
  371MOL0     C48905   8.793   9.310   8.002  1.5302  0.0475  0.0328
  371MOL0     C48906   8.779   9.210   7.909  1.2636  0.8964  0.1549
  371MOL0     H48907   8.607   9.060   7.497  1.4726  1.7596 -0.5178
  371MOL0     H48908   8.613   8.988   7.251  0.5937  2.0870  1.0201
  371MOL0     H48909   8.769   8.625   7.231  1.5838  0.8783  0.3957
  371MOL0     H48910   8.900   8.660   7.133 -0.3195 -2.7023 -2.3282
  371MOL0     H48911   8.625   8.667   6.995 -0.3373 -1.9795 -2.2616
  371MOL0     H48912   8.711   8.520   7.018 -0.2850 -0.1394 -0.4352
  371MOL0     H48913   8.918   8.626   6.894 -0.0239  3.5450 -2.8384
  371MOL0     H48914   8.820   8.774   6.879 -2.5741  0.1199 -2.2957
  371MOL0     H48915   8.734   8.517   6.754 -1.7432  0.1107  0.9025
  371MOL0     H48916   8.636   8.668   6.768 -0.3711  2.4922  3.8566
  371MOL0     H48917   8.929   8.643   6.670 -0.0067 -0.6157 -0.7440
  371MOL0     H48918   8.820   8.779   6.635  0.7210 -0.5207 -0.3552
  371MOL0     H48919   8.695   8.630   6.474  0.6798 -1.1911 -1.2339
  371MOL0     H48920   8.788   8.490   6.530 -1.1105 -0.4329 -0.3297
  371MOL0     H48921   8.996   8.655   6.463 -0.4741  1.3668 -0.6230
  371MOL0     H48922   8.913   8.540   6.348  2.0380  0.0871 -1.0403
  371MOL0     H48923   8.900   8.827   6.387  1.6256  0.0714  0.8066
  371MOL0     H48924   8.771   8.747   6.291  0.4767 -1.6246 -1.1242
  371MOL0     H48925   8.871   8.609   6.079  0.5939 -1.3957 -0.2625
  371MOL0     H48926   9.035   8.589   5.828  0.0077  1.7096 -2.6284
  371MOL0     H48927   9.185   8.541   5.933 -1.2092  0.4689  2.0783
  371MOL0     H48928   9.302   8.732   5.872  1.2036  2.2152 -1.8118
  371MOL0     H48929   9.161   8.804   5.787  2.0961 -0.8550 -2.6600
  371MOL0     H48930   9.172   8.665   5.608 -0.4774  0.9426  0.4762
  371MOL0     H48931   9.315   8.760   5.619  1.9197 -2.4089 -0.4799
  371MOL0     H48932   9.380   8.528   5.574 -1.2879 -0.3656 -0.0108
  371MOL0     H48933   9.266   8.482   5.696 -4.5430  2.3284 -2.5012
  371MOL0     H48934   9.491   8.321   5.604 -2.0150  0.0230  1.7797
  371MOL0     H48935   9.639   8.151   5.662  0.7228  0.7629 -2.3779
  371MOL0     H48936   9.853   8.071   6.133  0.6195  2.1488 -0.9899
  371MOL0     H48937   9.975   7.905   6.248 -0.3228 -0.3803 -1.3180
  371MOL0     H48938  10.100   7.707   6.317 -0.8195  1.7704  1.1307
  371MOL0     H48939  10.173   7.857   6.353  0.2859 -0.0088 -2.3917
  371MOL0     H48940  10.348   7.612   6.304 -2.0565 -0.5865  0.3783
  371MOL0     H48941  10.290   7.636   6.461 -0.7768  0.8161  0.8478
  371MOL0     H48942  10.439   7.845   6.293 -3.0251  1.3462  0.9342
  371MOL0     H48943  10.521   7.715   6.385 -1.5142 -2.2625  1.0859
  371MOL0     H48944  10.377   7.969   6.498  1.1386  0.6709  0.0826
  371MOL0     H48945  10.388   7.818   6.592  4.8588  0.4953  2.0396
  371MOL0     H48946  10.581   8.002   6.484 -0.3199  0.8768 -0.1778
  371MOL0     H48947  10.644   7.848   6.556  0.6451  1.7821  3.8644
  371MOL0     H48948  10.666   8.008   6.709 -0.7043 -0.1015  0.7684
  371MOL0     H48949  10.561   7.868   6.754 -0.8698 -1.0056 -0.6295
  371MOL0     H48950  10.428   8.123   6.654 -3.8167  0.0856  2.0578
  371MOL0     H48951  10.378   7.991   6.765 -0.7119  2.4173  2.5488
  371MOL0     H48952  10.522   8.089   6.950  0.5346  2.1007  0.3772
  371MOL0     H48953  10.402   8.198   6.881 -0.3673 -0.6276  0.5702
  371MOL0     H48954  10.289   7.900   5.954  0.4315  1.8434 -1.1660
  371MOL0     H48955  10.173   8.096   5.843  0.6669 -2.6444 -0.0077
  371MOL0     H48956   9.794   8.404   5.982 -0.6649 -3.2501  2.7456
  371MOL0     H48957   9.620   8.574   5.926 -3.9998 -0.8811  0.5702
  371MOL0     H48958   8.966   8.766   7.336  2.1418  0.6331 -0.0639
  371MOL0     H48959   8.988   8.896   7.545  0.1201  0.8180 -2.7514
  371MOL0     H48960   8.999   8.966   8.016  1.5182  0.9296  2.5002
  371MOL0     H48961   9.027   9.149   8.184 -0.6790  1.8991  0.7025
  371MOL0     H48962   9.003   9.524   8.076 -1.0619 -0.0456  1.2202
  371MOL0     H48963   9.092   9.388   8.095  0.6709 -0.1184  1.4058
  371MOL0     H48964   9.153   9.415   8.329  1.0482  0.7532 -0.2032
  371MOL0     H48965   9.213   9.537   8.224 -0.7537  1.8737 -0.4393
  371MOL0     H48966   9.153   9.639   8.428  0.6558  0.6237  0.6471
  371MOL0     H48967   8.985   9.574   8.427 -1.2763  1.2569 -1.7924
  371MOL0     H48968   8.916   9.707   8.246  0.8140 -1.7350 -1.4945
  371MOL0     H48969   8.983   9.811   8.360 -1.1678  0.7442 -0.9864
  371MOL0     H48970   9.227   9.907   8.037 -0.1804 -1.6376 -0.3411
  371MOL0     H48971   8.733   9.400   7.995  3.4278  1.5094  1.4397
  371MOL0     H48972   8.701   9.214   7.834  0.4077 -0.6895  0.8995
  372MOL0     O48973   2.914  10.719   9.294  0.8901 -0.3893 -0.5701
  372MOL0     C48974   2.886  10.697   9.413 -0.1047  0.7247 -0.0606
  372MOL0     O48975   2.981  10.695   9.518 -0.3713  0.5702 -0.0364
  372MOL0     C48976   3.120  10.704   9.514 -0.5586 -0.0357  0.3050
  372MOL0     C48977   3.192  10.781   9.603  0.9027 -0.1123 -1.2861
  372MOL0     C48978   3.332  10.777   9.618  0.5978  0.3150 -0.1272
  372MOL0     C48979   3.413  10.700   9.538 -0.2795 -0.3052 -0.3504
  372MOL0     O48980   3.551  10.687   9.544  0.1022 -0.0448  0.3806
  372MOL0     C48981   3.637  10.793   9.597 -0.1005 -0.0167 -0.5869
  372MOL0     C48982   3.676  10.766   9.744  0.8697 -0.3385 -0.1247
  372MOL0     C48983   3.803  10.838   9.783 -0.3216 -1.4255  0.0101
  372MOL0     C48984   3.818  10.846   9.936 -0.8726  0.1484  0.2449
  372MOL0     C48985   3.954  10.908   9.977 -0.4459 -0.7628  1.1993
  372MOL0     C48986   3.998  10.851  10.107 -0.7001 -0.3032 -0.0431
  372MOL0     C48987   4.129  10.901  10.156 -0.1904  0.1906  0.8387
  372MOL0     C48988   4.166  10.850  10.291  0.2072 -0.8431  0.6287
  372MOL0     N48989   4.308  10.874  10.327 -0.0231 -0.4363  0.0590
  372MOL0     C48990   4.421  10.803  10.302 -0.2171  0.1836  0.2101
  372MOL0     C48991   4.524  10.857  10.377  0.4908  0.2914  0.3118
  372MOL0     C48992   4.659  10.804  10.374 -1.7368 -0.5785 -0.3574
  372MOL0     C48993   4.767  10.884  10.468 -0.6464  0.4305 -0.3187
  372MOL0     C48994   4.737  10.894  10.617 -0.1278  0.4488 -0.3353
  372MOL0     C48995   4.690  10.766  10.682  0.0985 -0.1411 -0.8023
  372MOL0     O48996   4.768  10.650  10.644  0.1640 -0.0405 -0.9141
  372MOL0     C48997   4.837  10.581  10.742  0.2514 -1.0898 -0.7836
  372MOL0     C48998   4.882  10.454  10.694  0.7647  0.0295  0.1712
  372MOL0     C48999   4.962  10.372  10.774  0.6473  0.0331  0.2517
  372MOL0     C49000   4.996  10.416  10.903 -0.0417 -0.2180  0.6357
  372MOL0     C49001   5.078  10.327  10.992  0.3792 -1.2800  1.4772
  372MOL0     O49002   5.099  10.372  11.117 -0.7255 -0.1504 -0.3013
  372MOL0     C49003   5.205  10.325  11.191 -0.1645  0.3055 -0.6492
  372MOL0     C49004   5.292  10.425  11.241 -0.4935  0.5568  0.4464
  372MOL0     C49005   5.406  10.407  11.317 -0.1662 -0.4675 -0.3413
  372MOL0     C49006   5.446  10.277  11.345  0.9250  0.0038  0.2784
  372MOL0     O49007   5.553  10.262  11.427  0.1064  0.2666  0.0381
  372MOL0     C49008   5.632  10.136  11.435 -0.4056  0.7940 -0.0647
  372MOL0     C49009   5.605  10.042  11.561  0.1907  0.6092  0.1640
  372MOL0     C49010   5.649  10.108  11.691  0.3764  0.3323  0.7068
  372MOL0     C49011   5.690  10.004  11.800 -0.0949 -0.4932 -0.4657
  372MOL0     C49012   5.703  10.069  11.943  0.9750 -0.1166  0.0728
  372MOL0     C49013   5.776  10.198  11.957 -0.3202 -0.4042 -0.4584
  372MOL0     C49014   5.703  10.312  12.024  0.2910 -0.1361  0.1713
  372MOL0     C49015   5.561  10.338  11.961 -0.4739  0.5312  0.4488
  372MOL0    Cl49016   5.463  10.423  12.062  0.0315 -0.0984 -0.5853
  372MOL0     C49017   5.358  10.168  11.291  0.0638  0.2526  0.1197
  372MOL0     C49018   5.240  10.199  11.222  1.0219 -0.5075 -0.1765
  372MOL0     O49019   5.127  10.223  10.943  0.5234 -1.5359  0.1760
  372MOL0     C49020   4.952  10.538  10.951 -0.4208 -0.0137 -0.6373
  372MOL0     C49021   4.874  10.622  10.875 -0.2818  0.2632  0.5662
  372MOL0     N49022   4.476  10.961  10.449 -0.1840 -1.0905  0.4618
  372MOL0     N49023   4.346  10.971  10.423  0.1291 -0.0515  0.3007
  372MOL0     C49024   3.346  10.623   9.447  0.2034 -0.6088  1.5416
  372MOL0     C49025   3.200  10.623   9.435  0.1080 -1.0350  0.0859
  372MOL0     C49026   2.746  10.688   9.450  1.0544 -0.0819  0.7241
  372MOL0     C49027   2.718  10.694   9.593 -0.2654 -0.1213 -0.2811
  372MOL0     C49028   2.588  10.695   9.645  0.3823  1.1150  0.2430
  372MOL0     C49029   2.474  10.686   9.552  0.2061 -0.7178 -0.6280
  372MOL0     O49030   2.343  10.675   9.607  0.7836  0.0578 -0.3474
  372MOL0     C49031   2.227  10.647   9.527  0.9518  0.6646 -0.0161
  372MOL0     C49032   2.110  10.612   9.617 -0.5179  0.1391  1.1066
  372MOL0     C49033   2.060  10.731   9.706  0.5066  0.5599 -0.9830
  372MOL0     C49034   1.939  10.699   9.793  0.1907  0.5730  0.4719
  372MOL0     C49035   1.959  10.596   9.893 -0.4493  0.2886 -0.2731
  372MOL0     C49036   1.976  10.509   9.988 -0.0175 -0.2774 -0.1352
  372MOL0     C49037   2.497  10.689   9.413 -0.3367 -0.3253 -0.0311
  372MOL0     C49038   2.633  10.675   9.362 -0.2295  0.2175  0.2271
  372MOL0     H49039   3.129  10.834   9.674 -0.4695 -0.8383 -1.9198
  372MOL0     H49040   3.379  10.824   9.704 -0.0311  0.7899 -0.0267
  372MOL0     H49041   3.579  10.885   9.585 -1.4709 -0.4811  1.7255
  372MOL0     H49042   3.731  10.803   9.543  0.9710 -0.6973  1.0530
  372MOL0     H49043   3.698  10.661   9.764  1.1262 -0.0677  1.1099
  372MOL0     H49044   3.590  10.802   9.801  1.4414  0.1191  0.4680
  372MOL0     H49045   3.810  10.943   9.752  0.4007 -2.0720 -2.2141
  372MOL0     H49046   3.892  10.791   9.740  1.5143  2.2304 -0.5055
  372MOL0     H49047   3.727  10.897   9.970 -1.3437 -0.6881  0.2713
  372MOL0     H49048   3.803  10.747   9.978 -0.8726 -0.3445 -0.8862
  372MOL0     H49049   3.935  11.014   9.994  1.5868 -0.2480  0.5140
  372MOL0     H49050   4.032  10.902   9.900  0.2206  1.7162  1.5888
  372MOL0     H49051   4.009  10.742  10.099 -1.5207 -0.3519 -0.7412
  372MOL0     H49052   3.926  10.869  10.187  0.3553 -3.4767  1.7997
  372MOL0     H49053   4.215  10.870  10.095  2.0380 -0.1282  3.8983
  372MOL0     H49054   4.124  11.010  10.152 -1.2366  0.1232 -0.0121
  372MOL0     H49055   4.146  10.742  10.298  0.7423 -1.2320 -2.5508
  372MOL0     H49056   4.110  10.905  10.367  1.7353  2.0888 -0.2233
  372MOL0     H49057   4.426  10.729  10.223 -1.2752  0.2516  0.0715
  372MOL0     H49058   4.698  10.821  10.273 -1.7052 -0.0675 -0.2621
  372MOL0     H49059   4.660  10.699  10.407 -0.3094 -1.6508 -3.3990
  372MOL0     H49060   4.791  10.987  10.439 -0.7816  1.1008  1.7411
  372MOL0     H49061   4.861  10.829  10.478 -0.8062  0.4740  2.1183
  372MOL0     H49062   4.824  10.908  10.681  0.8493 -1.1762 -1.2405
  372MOL0     H49063   4.676  10.980  10.646  3.1384  1.5291  4.5802
  372MOL0     H49064   4.589  10.738  10.651  0.3420 -0.1946 -1.5695
  372MOL0     H49065   4.694  10.775  10.791  0.1139 -2.7915 -0.5184
  372MOL0     H49066   4.847  10.423  10.596 -0.5325 -2.4081  1.2983
  372MOL0     H49067   4.975  10.268  10.744 -1.8742 -0.5815  1.0584
  372MOL0     H49068   5.256  10.527  11.241 -0.1203  0.6890  0.3416
  372MOL0     H49069   5.474  10.485  11.349 -0.6504 -0.4895  0.7851
  372MOL0     H49070   5.739  10.153  11.449 -0.5460 -0.6639  4.1019
  372MOL0     H49071   5.620  10.078  11.343 -2.5653  2.2935 -0.7987
  372MOL0     H49072   5.658   9.947  11.555 -3.2127 -1.8758  4.1593
  372MOL0     H49073   5.503  10.004  11.562 -0.1724  1.5298  2.0469
  372MOL0     H49074   5.566  10.170  11.726  1.0071  0.7994  1.4256
  372MOL0     H49075   5.731  10.178  11.669  1.1670 -0.6077  0.5809
  372MOL0     H49076   5.603   9.939  11.809  0.6478 -1.3551  0.6304
  372MOL0     H49077   5.775   9.945  11.765  1.9921  3.0616 -2.0074
  372MOL0     H49078   5.760   9.992  11.996 -3.3421 -2.5277  1.6576
  372MOL0     H49079   5.610  10.073  12.000  1.0129 -3.0814  0.5137
  372MOL0     H49080   5.808  10.243  11.863 -1.5270  3.2720  0.7318
  372MOL0     H49081   5.869  10.181  12.014 -0.9902 -2.0402  0.2118
  372MOL0     H49082   5.700  10.287  12.131 -1.9518  0.1472  0.2103
  372MOL0     H49083   5.764  10.402  12.016  3.2450 -2.0710 -0.9360
  372MOL0     H49084   5.503  10.246  11.951 -1.8308  1.3939  0.1479
  372MOL0     H49085   5.580  10.400  11.872  3.7700 -1.6641 -0.4385
  372MOL0     H49086   5.382  10.068  11.326 -1.1620 -0.2350 -0.3910
  372MOL0     H49087   5.177  10.120  11.183 -1.3272  0.3822  1.5780
  372MOL0     H49088   4.963  10.563  11.056 -1.9372 -5.1640  1.0380
  372MOL0     H49089   4.847  10.715  10.923 -1.8617 -1.2027  2.6875
  372MOL0     H49090   3.411  10.552   9.397 -2.7265 -0.8966 -2.3225
  372MOL0     H49091   3.148  10.570   9.356 -1.9794 -1.0961  1.4501
  372MOL0     H49092   2.801  10.705   9.662 -0.5176 -0.5766  0.1007
  372MOL0     H49093   2.572  10.706   9.752 -2.2910  1.9262 -0.1476
  372MOL0     H49094   2.262  10.567   9.462 -5.3115  0.4176 -3.8726
  372MOL0     H49095   2.203  10.737   9.470  4.4304  0.1703 -2.5803
  372MOL0     H49096   2.023  10.581   9.557  2.1438 -1.7991 -2.1303
  372MOL0     H49097   2.134  10.516   9.664  0.4120 -0.1811  0.0233
  372MOL0     H49098   2.030  10.818   9.647 -0.8861  0.5529 -0.3289
  372MOL0     H49099   2.151  10.753   9.763  1.1494 -1.8990 -0.9328
  372MOL0     H49100   1.904  10.787   9.847 -3.5011 -0.5231  0.1351
  372MOL0     H49101   1.866  10.651   9.726  2.6986 -2.2505 -0.4875
  372MOL0     H49102   1.988  10.447  10.074 -1.0270  2.9207  2.5334
  372MOL0     H49103   2.415  10.690   9.342  2.1719 -0.7326 -3.1540
  372MOL0     H49104   2.635  10.655   9.255 -2.0494 -1.5710  0.4733
  373MOL0     O49105   9.261   6.377   0.912 -0.0383  0.5119  0.4754
  373MOL0     C49106   9.322   6.267   0.933  0.0099 -0.2852 -0.9534
  373MOL0     O49107   9.331   6.201   1.047 -0.0088  1.0114  0.1877
  373MOL0     C49108   9.267   6.250   1.163  0.0208 -0.4009 -0.4157
  373MOL0     C49109   9.225   6.154   1.255 -0.5172 -0.4390  1.0803
  373MOL0     C49110   9.172   6.189   1.380 -0.6650  1.0022  0.4018
  373MOL0     C49111   9.146   6.318   1.402 -0.3150 -0.2314 -0.1422
  373MOL0     O49112   9.100   6.370   1.516  1.1564 -1.0556  0.0752
  373MOL0     C49113   9.045   6.283   1.613  0.5458 -0.3750  0.7145
  373MOL0     C49114   8.918   6.205   1.577 -0.9032 -0.0816  0.2031
  373MOL0     C49115   8.880   6.118   1.702 -0.4883 -0.2934 -1.4047
  373MOL0     C49116   8.842   6.190   1.832  0.1315 -0.7893  0.2812
  373MOL0     C49117   8.770   6.094   1.927  0.4089  0.9092 -0.6281
  373MOL0     C49118   8.763   6.141   2.074 -0.6403 -0.4489  0.0412
  373MOL0     C49119   8.669   6.065   2.169  0.3749  0.9421  0.9219
  373MOL0     C49120   8.712   5.937   2.225  0.5382  0.8172  0.2564
  373MOL0     N49121   8.830   5.941   2.316 -0.3299  0.1182  0.0514
  373MOL0     C49122   8.964   5.964   2.278  0.1456  0.1923 -0.7588
  373MOL0     C49123   9.033   5.957   2.399 -0.1083 -0.1086 -0.6395
  373MOL0     C49124   9.174   5.986   2.407 -0.4748  0.4478 -0.2245
  373MOL0     C49125   9.221   6.112   2.482  0.3352  0.1005  1.3578
  373MOL0     C49126   9.183   6.248   2.395  0.3808  0.0203 -0.6427
  373MOL0     C49127   9.282   6.262   2.279 -0.5958  0.0414  1.4046
  373MOL0     O49128   9.228   6.220   2.154 -0.3033  0.2752  0.1515
  373MOL0     C49129   9.300   6.269   2.044  0.4638  0.3584 -0.5992
  373MOL0     C49130   9.248   6.360   1.954 -0.4610 -0.1530 -0.4825
  373MOL0     C49131   9.318   6.392   1.834 -0.1777 -0.0844  0.1917
  373MOL0     C49132   9.437   6.338   1.800 -0.9070  0.4181  0.5960
  373MOL0     C49133   9.505   6.355   1.667  0.5992 -0.4836  0.7139
  373MOL0     O49134   9.612   6.273   1.638  0.4475 -0.2699 -0.0572
  373MOL0     C49135   9.662   6.255   1.517  0.4016 -0.5793  0.5165
  373MOL0     C49136   9.803   6.253   1.496  0.2809 -0.4440 -0.2341
  373MOL0     C49137   9.849   6.247   1.366  0.4805 -0.3882  0.6995
  373MOL0     C49138   9.764   6.240   1.251  0.4052  0.5450 -0.5481
  373MOL0     O49139   9.812   6.236   1.125  0.5774 -0.1896  0.2643
  373MOL0     C49140   9.938   6.297   1.096  0.4470 -0.2704 -0.8188
  373MOL0     C49141   9.939   6.322   0.953  0.3856  0.4503  0.2311
  373MOL0     C49142   9.860   6.455   0.911  0.3791 -0.0734 -0.9300
  373MOL0     C49143   9.710   6.441   0.926  0.7075 -0.2037 -0.2300
  373MOL0     C49144   9.628   6.569   0.897 -0.5604 -0.2539 -0.3263
  373MOL0     C49145   9.607   6.589   0.742  0.2838  0.8032  0.7060
  373MOL0     C49146   9.522   6.713   0.718 -0.3335 -0.6425 -0.3429
  373MOL0     C49147   9.382   6.682   0.726 -0.2890 -0.2190 -0.5566
  373MOL0    Cl49148   9.289   6.828   0.718  0.0425  0.2243  0.0258
  373MOL0     C49149   9.630   6.250   1.269 -0.2371  0.2079 -0.5836
  373MOL0     C49150   9.580   6.262   1.401  0.1402  0.8102 -0.5867
  373MOL0     O49151   9.461   6.440   1.588 -0.3426 -0.5672  0.6576
  373MOL0     C49152   9.496   6.244   1.889  0.7466  0.8814 -0.0701
  373MOL0     C49153   9.430   6.216   2.007  0.9380 -0.7637  0.6386
  373MOL0     N49154   8.941   5.930   2.504 -0.1704 -0.6357 -0.1387
  373MOL0     N49155   8.829   5.901   2.447  0.2644  0.1208  0.5269
  373MOL0     C49156   9.198   6.418   1.318 -0.0180  0.2181 -0.1249
  373MOL0     C49157   9.255   6.391   1.196  0.0280  0.3334 -0.8293
  373MOL0     C49158   9.411   6.209   0.828  0.8193 -0.8116  0.6835
  373MOL0     C49159   9.507   6.118   0.854  0.1005 -0.6020  0.4167
  373MOL0     C49160   9.603   6.105   0.755  1.3750 -0.3849  0.2871
  373MOL0     C49161   9.603   6.166   0.629 -0.1316 -0.1545  0.3373
  373MOL0     O49162   9.715   6.167   0.554  0.4351 -0.4046 -0.5185
  373MOL0     C49163   9.714   6.242   0.431  0.6282  0.3026  0.1989
  373MOL0     C49164   9.853   6.238   0.366 -0.4159  0.9607 -0.0904
  373MOL0     C49165   9.960   6.324   0.443  0.3246 -0.4113 -0.3688
  373MOL0     C49166  10.002   6.264   0.584 -0.0740 -0.5544  0.4559
  373MOL0     C49167  10.092   6.363   0.638 -0.0598  0.0490 -0.4729
  373MOL0     C49168  10.160   6.458   0.687  1.2529 -0.3458  0.1379
  373MOL0     C49169   9.494   6.254   0.607  0.5765  0.1687  0.5603
  373MOL0     C49170   9.401   6.274   0.698  0.1816  0.3585 -0.7290
  373MOL0     H49171   9.250   6.051   1.232  1.3613 -0.2378  2.0359
  373MOL0     H49172   9.144   6.108   1.446 -2.2198  0.4108 -0.9073
  373MOL0     H49173   9.033   6.341   1.705 -2.0752  2.0019 -0.9591
  373MOL0     H49174   9.124   6.209   1.626  3.4120  1.4494 -3.7239
  373MOL0     H49175   8.954   6.135   1.502  2.9243  1.1505  0.7061
  373MOL0     H49176   8.839   6.278   1.556  2.0677  3.2079 -0.5814
  373MOL0     H49177   8.960   6.054   1.740 -0.8745  0.6113  1.1097
  373MOL0     H49178   8.792   6.058   1.678 -3.0276  2.1330  1.1734
  373MOL0     H49179   8.928   6.235   1.881 -1.8107  1.7671  1.6090
  373MOL0     H49180   8.792   6.279   1.792  0.3824 -0.3279  0.9917
  373MOL0     H49181   8.822   5.999   1.916  2.2949  1.9876 -1.6981
  373MOL0     H49182   8.668   6.084   1.889  0.0006 -2.0700  1.0197
  373MOL0     H49183   8.717   6.240   2.074 -1.5521 -0.8076  2.2968
  373MOL0     H49184   8.866   6.149   2.110 -0.1152 -0.5066 -1.3874
  373MOL0     H49185   8.653   6.129   2.256  0.6117  2.7443 -0.3068
  373MOL0     H49186   8.581   6.041   2.108  1.2457  2.4232 -1.0325
  373MOL0     H49187   8.744   5.866   2.147  0.9042  2.5902 -1.2755
  373MOL0     H49188   8.637   5.881   2.281  1.6953 -0.8281  0.2532
  373MOL0     H49189   9.004   5.997   2.183  0.7955 -1.1320 -0.9731
  373MOL0     H49190   9.219   5.964   2.310  0.0873 -3.0491  0.6651
  373MOL0     H49191   9.220   5.904   2.464  0.6178  0.9986 -0.2909
  373MOL0     H49192   9.330   6.113   2.493  0.7920 -1.0788 -1.9491
  373MOL0     H49193   9.168   6.115   2.578 -1.2686  2.9777  0.5299
  373MOL0     H49194   9.083   6.254   2.352 -0.9291  0.7808  2.2979
  373MOL0     H49195   9.177   6.332   2.465 -1.2554 -0.0636 -0.6449
  373MOL0     H49196   9.375   6.208   2.299  0.3973  2.0236  2.4329
  373MOL0     H49197   9.315   6.366   2.268  2.9447 -0.7284  3.3421
  373MOL0     H49198   9.146   6.392   1.976 -0.5317  0.4226 -1.5929
  373MOL0     H49199   9.264   6.453   1.761 -3.0470 -2.5147  0.0570
  373MOL0     H49200   9.876   6.254   1.576  2.3001 -5.5900 -1.6100
  373MOL0     H49201   9.954   6.219   1.363 -0.0317 -2.5047 -1.7216
  373MOL0     H49202  10.010   6.217   1.119 -1.3220 -1.1682  2.2579
  373MOL0     H49203   9.961   6.393   1.143 -2.7568  0.5863 -0.7345
  373MOL0     H49204   9.900   6.240   0.891 -0.2938  1.7569 -1.1259
  373MOL0     H49205  10.046   6.337   0.936  1.7052 -4.0141  2.9061
  373MOL0     H49206   9.905   6.494   0.820  1.0072  1.5803  0.0404
  373MOL0     H49207   9.885   6.534   0.982  0.7651  0.6752 -1.8808
  373MOL0     H49208   9.674   6.359   0.863 -3.1013  1.9149 -1.1233
  373MOL0     H49209   9.684   6.414   1.029  2.2874  0.3234  0.3311
  373MOL0     H49210   9.686   6.653   0.936  2.5043 -3.4766  2.9439
  373MOL0     H49211   9.534   6.569   0.952 -0.8256 -5.4679 -0.2184
  373MOL0     H49212   9.562   6.497   0.704  4.3211 -0.5082 -1.5115
  373MOL0     H49213   9.704   6.586   0.691  1.4360 -0.8772  2.8692
  373MOL0     H49214   9.551   6.788   0.792  0.7331 -0.8078 -0.5793
  373MOL0     H49215   9.536   6.754   0.617 -2.3587 -0.6394 -0.6644
  373MOL0     H49216   9.357   6.643   0.826 -0.1899  2.8025  0.7664
  373MOL0     H49217   9.356   6.616   0.644 -1.1438 -0.5390 -0.0496
  373MOL0     H49218   9.559   6.269   1.189  0.1381 -1.1590 -1.2507
  373MOL0     H49219   9.473   6.271   1.417  0.1331 -1.0356  0.7832
  373MOL0     H49220   9.591   6.198   1.866 -0.7108 -1.7096 -1.3411
  373MOL0     H49221   9.455   6.140   2.080 -2.8343 -1.2758  1.6018
  373MOL0     H49222   9.166   6.516   1.354  0.0330  0.5409 -0.9349
  373MOL0     H49223   9.307   6.456   1.127  0.9641  0.6502  0.1422
  373MOL0     H49224   9.516   6.065   0.948 -1.5078  0.5833  1.3070
  373MOL0     H49225   9.693   6.057   0.791  0.7123 -1.0585  1.0988
  373MOL0     H49226   9.696   6.349   0.442 -1.5404  0.0535 -0.5411
  373MOL0     H49227   9.644   6.200   0.358 -0.4148  0.3231  1.1592
  373MOL0     H49228   9.901   6.140   0.359 -3.2174 -0.4258 -2.2428
  373MOL0     H49229   9.847   6.276   0.263 -0.3541 -2.0707 -1.3364
  373MOL0     H49230   9.915   6.423   0.450  1.7561  0.1582  2.2090
  373MOL0     H49231  10.051   6.312   0.384  1.8692  0.2727  1.7255
  373MOL0     H49232   9.921   6.259   0.658 -1.4977 -0.5389 -1.0354
  373MOL0     H49233  10.060   6.173   0.565  0.8270 -0.0839  0.8676
  373MOL0     H49234  10.213   6.550   0.700 -0.2378  1.0509 -2.8193
  373MOL0     H49235   9.461   6.291   0.510 -2.0343 -4.0301 -0.4278
  373MOL0     H49236   9.336   6.356   0.671  2.0461  1.5940 -1.7343
  374MOL0     O49237   7.478   7.973   6.954 -0.7412 -0.4048 -0.6465
  374MOL0     C49238   7.598   7.949   6.988  1.2925 -0.5795 -0.4036
  374MOL0     O49239   7.698   7.910   6.914 -0.8765  0.2257  0.4937
  374MOL0     C49240   7.677   7.888   6.784 -0.3326 -0.0053 -0.3968
  374MOL0     C49241   7.671   7.751   6.744  0.6908  0.0137  0.4354
  374MOL0     C49242   7.657   7.712   6.613  0.6514  0.0047 -0.1709
  374MOL0     C49243   7.657   7.803   6.508  0.3757 -0.2646  0.3284
  374MOL0     O49244   7.644   7.760   6.385  0.6677  0.0148  0.4273
  374MOL0     C49245   7.604   7.850   6.283 -1.4314 -0.1701 -0.4554
  374MOL0     C49246   7.587   7.788   6.146  0.6737 -0.7361 -0.3184
  374MOL0     C49247   7.588   7.896   6.031  0.2245  0.4200  0.0317
  374MOL0     C49248   7.457   7.967   6.020  0.5566  0.1409 -0.2392
  374MOL0     C49249   7.469   8.090   5.937 -0.5088 -0.3690  0.8958
  374MOL0     C49250   7.502   8.054   5.797 -0.2400  0.3470 -0.0177
  374MOL0     C49251   7.513   8.176   5.700 -0.6510 -0.5821  0.0143
  374MOL0     C49252   7.573   8.153   5.566 -0.8084  0.4663  0.1525
  374MOL0     N49253   7.570   8.268   5.477 -0.7212 -1.0990  0.1190
  374MOL0     C49254   7.482   8.373   5.496 -0.0291 -0.6921  0.8893
  374MOL0     C49255   7.549   8.484   5.437  0.4927  0.9644 -1.4668
  374MOL0     C49256   7.503   8.627   5.426  0.9196 -0.4033  0.1145
  374MOL0     C49257   7.409   8.661   5.311 -0.4309  0.0735  1.4857
  374MOL0     C49258   7.451   8.764   5.213 -0.2193  0.0918  0.3653
  374MOL0     C49259   7.576   8.721   5.130 -1.3580  0.3424 -1.1019
  374MOL0     O49260   7.527   8.653   5.017 -0.5372  0.2906  0.2717
  374MOL0     C49261   7.610   8.548   4.958 -0.7187 -0.0388 -0.1027
  374MOL0     C49262   7.736   8.498   5.008  0.2158  0.0642  1.2276
  374MOL0     C49263   7.814   8.408   4.931  0.5983  1.7076  0.1547
  374MOL0     C49264   7.778   8.375   4.805 -0.7791 -0.1905 -0.4670
  374MOL0     C49265   7.843   8.261   4.742 -0.0692 -0.7263  0.1937
  374MOL0     O49266   7.947   8.195   4.807  0.1494  0.1154 -0.0103
  374MOL0     C49267   7.989   8.086   4.744 -0.2608  0.8257 -0.2939
  374MOL0     C49268   7.919   7.966   4.744  0.3257 -0.2928  0.9716
  374MOL0     C49269   7.973   7.854   4.675 -0.2015 -1.3416  0.6717
  374MOL0     C49270   8.099   7.865   4.613  0.3245 -0.0881  0.6276
  374MOL0     O49271   8.142   7.758   4.547 -0.0029  0.8581  0.5137
  374MOL0     C49272   8.271   7.749   4.485  0.2934 -0.3695  0.2174
  374MOL0     C49273   8.369   7.692   4.585 -0.4095  0.7580  0.1855
  374MOL0     C49274   8.468   7.605   4.517 -0.8438  0.4508  0.0317
  374MOL0     C49275   8.604   7.572   4.588 -0.5977 -0.3281 -0.1577
  374MOL0     C49276   8.668   7.450   4.517  0.5223 -0.1308  0.1437
  374MOL0     C49277   8.806   7.435   4.583 -0.1807 -0.4802  0.0643
  374MOL0     C49278   8.866   7.312   4.520  0.2005  0.5743  0.4219
  374MOL0     C49279   8.911   7.206   4.619  0.6801  0.5439  0.0861
  374MOL0    Cl49280   8.969   7.058   4.539 -0.1248  0.1686 -0.4876
  374MOL0     C49281   8.174   7.985   4.618 -0.8336  0.5199  0.4039
  374MOL0     C49282   8.110   8.098   4.677 -0.0642  0.2985  0.7144
  374MOL0     O49283   7.771   8.219   4.648 -0.0841  0.4519  0.0887
  374MOL0     C49284   7.660   8.435   4.759 -0.8051 -0.7626  0.1727
  374MOL0     C49285   7.578   8.520   4.837 -0.7308  0.5358  0.4253
  374MOL0     N49286   7.657   8.425   5.369 -0.1976 -0.3869  0.1582
  374MOL0     N49287   7.674   8.301   5.401 -0.0867 -0.9458 -0.1378
  374MOL0     C49288   7.675   7.944   6.546 -0.7667  0.5864  0.3193
  374MOL0     C49289   7.682   7.988   6.686 -0.0079  0.7726  0.3867
  374MOL0     C49290   7.616   7.971   7.135 -0.5592  0.6183  0.8490
  374MOL0     C49291   7.742   7.975   7.187  0.5058  0.6299  0.6862
  374MOL0     C49292   7.773   7.997   7.321  0.1500  0.3081  0.6379
  374MOL0     C49293   7.671   8.032   7.411  0.3428 -0.0138  0.0769
  374MOL0     O49294   7.698   8.079   7.537 -0.2827 -0.4715 -0.4002
  374MOL0     C49295   7.835   8.081   7.593 -0.0767  0.6898  0.2347
  374MOL0     C49296   7.813   8.121   7.744  0.0324  0.8735  0.3100
  374MOL0     C49297   7.949   8.126   7.806  0.2917 -1.0055  0.5512
  374MOL0     C49298   8.005   8.268   7.811  0.2341  0.7190 -0.4736
  374MOL0     C49299   8.042   8.339   7.688 -0.7798 -1.5782 -0.1519
  374MOL0     C49300   8.071   8.411   7.591 -0.8791  0.3289  0.1091
  374MOL0     C49301   7.533   8.020   7.361  0.4206  0.3151 -0.5560
  374MOL0     C49302   7.508   7.980   7.231  0.2524 -0.9584  0.0283
  374MOL0     H49303   7.662   7.675   6.821 -2.1560 -0.6000 -0.3790
  374MOL0     H49304   7.652   7.607   6.587 -0.3793 -0.0330  0.1417
  374MOL0     H49305   7.678   7.926   6.259 -1.7398 -0.3861 -2.2041
  374MOL0     H49306   7.510   7.902   6.299 -1.8717 -0.0926 -2.9054
  374MOL0     H49307   7.497   7.726   6.149  0.6322 -0.6902 -0.6379
  374MOL0     H49308   7.671   7.721   6.124  0.0147 -2.2333  1.3997
  374MOL0     H49309   7.608   7.835   5.942  3.1902 -2.3801  2.4051
  374MOL0     H49310   7.673   7.959   6.056  3.2001 -3.8959  1.8838
  374MOL0     H49311   7.383   7.896   5.981  0.3646  1.4921 -2.5021
  374MOL0     H49312   7.427   7.991   6.123  1.6486 -0.3104  0.1942
  374MOL0     H49313   7.543   8.159   5.978 -3.2820  3.0012  0.6814
  374MOL0     H49314   7.378   8.150   5.941  0.3397  1.1066 -0.5561
  374MOL0     H49315   7.416   7.999   5.757 -0.6557  0.7936  0.2548
  374MOL0     H49316   7.592   7.994   5.784 -0.6406  0.2974 -3.4257
  374MOL0     H49317   7.411   8.213   5.698 -0.2148  0.6698 -1.8247
  374MOL0     H49318   7.572   8.257   5.744 -1.4448  1.2164 -2.0609
  374MOL0     H49319   7.512   8.070   5.528 -1.4235  0.9038  0.1733
  374MOL0     H49320   7.675   8.118   5.584 -1.6610 -0.6964  3.5929
  374MOL0     H49321   7.381   8.373   5.535 -0.4655 -0.0485 -0.1960
  374MOL0     H49322   7.595   8.685   5.424  0.9819 -0.5253 -1.0150
  374MOL0     H49323   7.451   8.641   5.522  0.1219  0.6233 -0.4546
  374MOL0     H49324   7.319   8.714   5.345 -1.5898  1.1866 -2.6719
  374MOL0     H49325   7.373   8.575   5.253 -1.6551 -0.2956  2.7373
  374MOL0     H49326   7.365   8.799   5.155 -2.3603  3.6673  5.0048
  374MOL0     H49327   7.472   8.853   5.272  2.0761  0.4798 -0.9176
  374MOL0     H49328   7.636   8.657   5.195 -0.6159 -0.8554 -2.8798
  374MOL0     H49329   7.632   8.812   5.108 -2.2185  0.9773 -0.7231
  374MOL0     H49330   7.778   8.528   5.103 -0.8166 -1.4646  2.2130
  374MOL0     H49331   7.904   8.365   4.974 -0.4032 -0.8342 -0.1550
  374MOL0     H49332   7.835   7.948   4.811  0.7327 -0.7047  1.3804
  374MOL0     H49333   7.922   7.759   4.678  0.3688 -1.6312  3.1645
  374MOL0     H49334   8.300   7.844   4.440  1.2906 -0.5305  0.5090
  374MOL0     H49335   8.264   7.682   4.399  1.5064  1.0203 -1.0192
  374MOL0     H49336   8.330   7.626   4.663  2.2283 -0.1809  0.8471
  374MOL0     H49337   8.427   7.770   4.634  0.3182 -0.8776  2.0870
  374MOL0     H49338   8.499   7.643   4.419  3.1492  1.3899  1.4946
  374MOL0     H49339   8.416   7.515   4.481  2.6153 -0.1828 -4.2187
  374MOL0     H49340   8.677   7.654   4.587 -1.6738  0.7862  2.3537
  374MOL0     H49341   8.600   7.534   4.691  2.2732 -1.3937 -0.3352
  374MOL0     H49342   8.675   7.468   4.409 -2.7103  0.6376 -0.0429
  374MOL0     H49343   8.605   7.362   4.525 -1.9534  1.4961 -0.3120
  374MOL0     H49344   8.792   7.428   4.691 -4.9971  0.1057 -0.3044
  374MOL0     H49345   8.861   7.529   4.576 -3.1280  1.3092 -0.9567
  374MOL0     H49346   8.798   7.272   4.444  0.9226  2.8774 -1.5919
  374MOL0     H49347   8.945   7.345   4.451  0.5342 -2.6209 -0.8916
  374MOL0     H49348   8.829   7.174   4.685  1.1486 -2.2326 -0.5770
  374MOL0     H49349   8.989   7.236   4.689 -0.8078  0.0092  2.0870
  374MOL0     H49350   8.277   7.996   4.584 -0.6779 -2.7814 -0.5458
  374MOL0     H49351   8.167   8.190   4.672 -0.8949  0.7938  0.2485
  374MOL0     H49352   7.614   8.427   4.660 -1.5201  2.4558  0.1375
  374MOL0     H49353   7.496   8.564   4.780 -0.9100  3.9513  3.0073
  374MOL0     H49354   7.663   8.021   6.471  0.0736 -0.2906 -0.7481
  374MOL0     H49355   7.677   8.093   6.712  1.3568  0.8761  0.3307
  374MOL0     H49356   7.826   7.958   7.119 -0.1909  0.7843 -0.2242
  374MOL0     H49357   7.881   8.009   7.330  0.1043  2.7976 -0.9776
  374MOL0     H49358   7.902   8.146   7.536  2.8603 -2.0464  0.2787
  374MOL0     H49359   7.891   7.988   7.609  0.1926  0.6375 -0.9070
  374MOL0     H49360   7.756   8.214   7.752 -3.2041 -0.9726  0.1026
  374MOL0     H49361   7.756   8.049   7.802  1.6093 -0.3129  0.4423
  374MOL0     H49362   8.032   8.069   7.763 -0.1906 -1.0851 -0.3089
  374MOL0     H49363   7.946   8.093   7.910  1.6326 -2.3555  0.2045
  374MOL0     H49364   7.932   8.336   7.855 -2.8687 -0.5622 -3.2348
  374MOL0     H49365   8.094   8.264   7.875  1.6403 -0.6599 -2.4002
  374MOL0     H49366   8.115   8.478   7.519  1.8382 -2.2875 -0.8918
  374MOL0     H49367   7.451   8.061   7.419  0.3492 -0.8627  0.2068
  374MOL0     H49368   7.403   7.973   7.206  0.7815  0.0179 -2.9312
  375MOL0     O49369   1.916   0.077  10.972  0.2813  0.8405  0.2666
  375MOL0     C49370   1.815   0.129  11.018  1.5024 -0.3807 -1.1094
  375MOL0     O49371   1.797   0.266  11.027 -0.4245  0.2951 -0.0800
  375MOL0     C49372   1.912   0.356  11.015 -0.8629  0.0775  0.5025
  375MOL0     C49373   1.863   0.480  10.991  0.4297 -0.5980  0.7885
  375MOL0     C49374   1.944   0.592  10.968 -0.0062 -0.1283 -0.3425
  375MOL0     C49375   2.084   0.578  10.967 -0.1611 -0.0980 -0.6785
  375MOL0     O49376   2.156   0.695  10.952 -0.0797  1.2320 -0.1034
  375MOL0     C49377   2.249   0.686  10.845  0.7340 -0.2797  0.0666
  375MOL0     C49378   2.371   0.784  10.857 -0.2527  0.6823  0.7867
  375MOL0     C49379   2.469   0.743  10.967  0.0312 -0.5946 -0.4350
  375MOL0     C49380   2.567   0.857  11.002  1.2136  0.3932 -0.4417
  375MOL0     C49381   2.711   0.803  11.031  0.2379  0.4074 -0.1528
  375MOL0     C49382   2.805   0.782  10.903  0.1879  0.8850  0.6075
  375MOL0     C49383   2.950   0.744  10.930 -0.0545 -0.0720  0.0678
  375MOL0     C49384   2.950   0.602  11.000 -1.2552 -0.4557 -0.3355
  375MOL0     N49385   3.086   0.539  10.991 -0.0286 -0.1363 -0.3378
  375MOL0     C49386   3.117   0.429  10.908  0.5439 -0.4301  0.7710
  375MOL0     C49387   3.239   0.390  10.951  0.1043  0.0788  0.6399
  375MOL0     C49388   3.306   0.263  10.900 -0.5364  0.4406 -0.7082
  375MOL0     C49389   3.465   0.271  10.906  0.9502 -1.3277 -0.4102
  375MOL0     C49390   3.541   0.165  10.823  0.3831  0.2409  0.6590
  375MOL0     C49391   3.685   0.184  10.854  0.5941 -0.5790 -0.5848
  375MOL0     O49392   3.718   0.163  10.991 -0.1040  0.0031 -0.7447
  375MOL0     C49393   3.826   0.227  11.046  0.0139  0.3904 -0.5519
  375MOL0     C49394   3.832   0.237  11.184 -0.1800 -0.3582 -0.5469
  375MOL0     C49395   3.939   0.306  11.253 -0.2939 -0.5325  0.0381
  375MOL0     C49396   4.042   0.367  11.178 -1.2353 -0.9390 -0.5502
  375MOL0     C49397   4.148   0.442  11.241 -0.3622  1.0106  0.0125
  375MOL0     O49398   4.259   0.469  11.172  0.0692 -0.3559 -0.3027
  375MOL0     C49399   4.351   0.543  11.233 -0.6862  0.4742 -0.2621
  375MOL0     C49400   4.353   0.678  11.233  0.0596  0.8331  0.6997
  375MOL0     C49401   4.458   0.749  11.284  0.3214 -0.3273 -0.4219
  375MOL0     C49402   4.572   0.693  11.327  0.0986  0.5312 -0.0311
  375MOL0     O49403   4.672   0.763  11.391 -0.8357  0.1127  1.2263
  375MOL0     C49404   4.805   0.693  11.405  0.5423 -0.6163  0.1740
  375MOL0     C49405   4.898   0.799  11.467  0.9271  0.0019  0.6935
  375MOL0     C49406   5.011   0.854  11.382  0.0947 -0.3441  0.5382
  375MOL0     C49407   5.097   0.954  11.463  0.7547  0.1436  0.1803
  375MOL0     C49408   5.234   0.999  11.404  0.3416 -0.0229  0.1874
  375MOL0     C49409   5.220   1.097  11.272 -0.0404 -0.9676  0.5819
  375MOL0     C49410   5.182   1.238  11.325  0.6499 -0.0985  0.3824
  375MOL0     C49411   5.206   1.348  11.228 -0.3345 -0.4005 -0.7288
  375MOL0    Cl49412   5.150   1.508  11.305 -0.2203  0.3232 -0.2096
  375MOL0     C49413   4.581   0.556  11.315 -0.4228  0.4440  0.9903
  375MOL0     C49414   4.470   0.475  11.272  0.3154  0.4282 -0.1512
  375MOL0     O49415   4.146   0.451  11.366  0.3449 -0.0882 -0.4327
  375MOL0     C49416   4.044   0.345  11.040 -0.4834 -0.8742 -0.1913
  375MOL0     C49417   3.936   0.285  10.975  1.2278 -0.2013 -0.2913
  375MOL0     N49418   3.278   0.469  11.052  0.8915  0.0492 -0.3376
  375MOL0     N49419   3.191   0.561  11.073 -0.2928 -0.3802  0.2468
  375MOL0     C49420   2.139   0.446  10.973  0.0051  0.1749 -0.4188
  375MOL0     C49421   2.047   0.332  11.002  0.6540 -0.7046  0.6298
  375MOL0     C49422   1.691   0.051  11.051  0.3872 -0.7323  0.1771
  375MOL0     C49423   1.681  -0.082  11.016 -0.8094 -0.8499 -0.6436
  375MOL0     C49424   1.561  -0.151  11.031  0.1655  0.0110  0.4718
  375MOL0     C49425   1.447  -0.090  11.082 -0.1029 -1.0186 -0.5262
  375MOL0     O49426   1.333  -0.158  11.123  0.3473  0.4218 -0.7497
  375MOL0     C49427   1.339  -0.301  11.127  0.2780 -0.1074 -0.0422
  375MOL0     C49428   1.218  -0.354  11.200 -0.0905  0.4738  0.0304
  375MOL0     C49429   1.202  -0.305  11.349 -0.0453  0.1958  0.7053
  375MOL0     C49430   1.090  -0.389  11.416  1.1544 -0.3013  0.1938
  375MOL0     C49431   1.050  -0.353  11.548  0.5247  0.7173 -1.3852
  375MOL0     C49432   1.015  -0.344  11.669 -0.7590 -1.4030  0.3426
  375MOL0     C49433   1.448   0.048  11.102  0.2520  0.4366  0.1777
  375MOL0     C49434   1.567   0.117  11.085  0.5390  0.7580 -0.4602
  375MOL0     H49435   1.755   0.487  10.985  0.4256 -0.1422  1.3028
  375MOL0     H49436   1.907   0.692  10.951  2.7749  1.0591  0.1140
  375MOL0     H49437   2.202   0.706  10.748 -0.0080 -2.3794 -0.0523
  375MOL0     H49438   2.289   0.585  10.842 -0.6855 -0.8500 -1.3773
  375MOL0     H49439   2.333   0.885  10.878  0.7971  1.4397 -0.7759
  375MOL0     H49440   2.422   0.791  10.761  2.9653 -0.2793  2.2902
  375MOL0     H49441   2.526   0.658  10.931 -0.1086 -0.9838  0.2426
  375MOL0     H49442   2.418   0.706  11.057  2.0382 -0.0804  0.9811
  375MOL0     H49443   2.569   0.938  10.929  0.7129 -0.1174 -1.0330
  375MOL0     H49444   2.522   0.908  11.088 -0.2897 -0.0578 -0.9320
  375MOL0     H49445   2.699   0.711  11.088 -0.1141  1.3496  1.3548
  375MOL0     H49446   2.758   0.880  11.093  1.0140 -0.0135 -0.2138
  375MOL0     H49447   2.807   0.876  10.846 -0.6270 -0.1472 -1.2065
  375MOL0     H49448   2.753   0.714  10.835 -4.5298  5.2413 -0.7841
  375MOL0     H49449   3.001   0.742  10.833 -2.9297 -3.1892 -1.6205
  375MOL0     H49450   2.998   0.822  10.989 -2.0246  2.4735 -1.4310
  375MOL0     H49451   2.875   0.538  10.955 -1.3274  0.0132 -0.8892
  375MOL0     H49452   2.928   0.623  11.106  1.7444  0.1923  0.2574
  375MOL0     H49453   3.052   0.383  10.834  1.9221  2.1316 -2.3010
  375MOL0     H49454   3.282   0.242  10.796  1.8343  2.4625 -1.7640
  375MOL0     H49455   3.270   0.188  10.971 -0.0091  0.6674 -0.1852
  375MOL0     H49456   3.498   0.265  11.010 -0.6224 -0.6377  0.1525
  375MOL0     H49457   3.486   0.371  10.869  4.6126 -2.3930 -1.7005
  375MOL0     H49458   3.518   0.060  10.842  0.2523 -0.0422 -0.8921
  375MOL0     H49459   3.531   0.181  10.715  2.5713  0.4004  0.4497
  375MOL0     H49460   3.715   0.288  10.836  2.2491 -0.2488  3.1306
  375MOL0     H49461   3.751   0.120  10.795 -0.1458  1.1627 -3.4897
  375MOL0     H49462   3.755   0.193  11.247  2.9190 -2.5471  2.0414
  375MOL0     H49463   3.928   0.313  11.361  1.8158 -2.5744  0.4671
  375MOL0     H49464   4.275   0.743  11.194  1.8916  2.1570 -0.9859
  375MOL0     H49465   4.452   0.857  11.295  1.6982 -0.4126  1.5942
  375MOL0     H49466   4.838   0.664  11.305  0.7409 -2.3238  0.7024
  375MOL0     H49467   4.790   0.605  11.468  0.1546 -1.6376 -1.2967
  375MOL0     H49468   4.934   0.749  11.557  0.2334  1.8778  2.0705
  375MOL0     H49469   4.840   0.886  11.497 -2.5989 -1.3042 -1.5884
  375MOL0     H49470   4.970   0.901  11.293 -1.3787 -0.9141  0.8875
  375MOL0     H49471   5.077   0.775  11.345 -1.5229 -0.4216 -2.4444
  375MOL0     H49472   5.038   1.044  11.482 -0.7104 -0.8559  0.5417
  375MOL0     H49473   5.130   0.909  11.557  0.5956  2.5785  1.4833
  375MOL0     H49474   5.303   0.915  11.386  1.1364  0.3924  1.2108
  375MOL0     H49475   5.288   1.043  11.488  3.4307 -1.6372 -0.7782
  375MOL0     H49476   5.143   1.060  11.204 -1.1292 -0.3156  1.4140
  375MOL0     H49477   5.318   1.114  11.226 -1.0151 -2.4632 -2.2523
  375MOL0     H49478   5.073   1.239  11.337  0.4467  1.3247 -1.1795
  375MOL0     H49479   5.227   1.272  11.419 -1.7516  1.7845  0.9509
  375MOL0     H49480   5.137   1.342  11.143 -0.7641 -2.8101 -0.2945
  375MOL0     H49481   5.311   1.349  11.198 -0.0485 -2.6544  0.0127
  375MOL0     H49482   4.658   0.491  11.354 -2.8052 -3.0925  0.3052
  375MOL0     H49483   4.470   0.367  11.269  0.0094  0.1738  3.5646
  375MOL0     H49484   4.123   0.382  10.975 -0.0587 -0.7035  0.4175
  375MOL0     H49485   3.961   0.272  10.870  1.6647 -1.7822 -0.0090
  375MOL0     H49486   2.245   0.421  10.978  1.0209  3.7544 -0.9882
  375MOL0     H49487   2.089   0.232  11.009  3.2746  0.3263  1.0041
  375MOL0     H49488   1.774  -0.125  10.982  1.0176  1.1291  1.5517
  375MOL0     H49489   1.546  -0.248  10.984 -1.0223 -0.1307  1.1252
  375MOL0     H49490   1.422  -0.326  11.194  0.8158 -0.6146 -0.8879
  375MOL0     H49491   1.360  -0.350  11.031 -1.8981 -0.2417 -0.4870
  375MOL0     H49492   1.124  -0.333  11.148 -0.2016  0.2115  0.1213
  375MOL0     H49493   1.239  -0.461  11.201  0.9579  0.6609 -0.5310
  375MOL0     H49494   1.190  -0.197  11.364  3.5062  0.3566  3.7860
  375MOL0     H49495   1.299  -0.325  11.396  1.4169  2.7160 -0.9727
  375MOL0     H49496   1.002  -0.393  11.350  1.8705 -1.4274 -0.7495
  375MOL0     H49497   1.125  -0.492  11.427  0.0406 -0.4420  3.5776
  375MOL0     H49498   0.977  -0.334  11.769 -3.8003  2.3802 -0.9701
  375MOL0     H49499   1.367   0.109  11.139  0.2235  0.3920  0.1886
  375MOL0     H49500   1.561   0.225  11.087 -0.1105  0.7160  0.5799
  376MOL0     O49501   4.924   0.538   3.852  0.3099 -0.3202  0.7835
  376MOL0     C49502   4.800   0.545   3.870  0.3846  0.4352  0.5732
  376MOL0     O49503   4.722   0.454   3.938  0.2459 -0.0305 -0.0169
  376MOL0     C49504   4.771   0.348   4.008 -0.8305  0.0045  0.0845
  376MOL0     C49505   4.770   0.353   4.153  0.6247 -0.9164  0.0225
  376MOL0     C49506   4.813   0.247   4.229 -0.3194 -0.4860 -0.5097
  376MOL0     C49507   4.878   0.144   4.178 -0.3779 -0.2152  1.2840
  376MOL0     O49508   4.942   0.056   4.258 -0.2560  0.0209 -0.1289
  376MOL0     C49509   5.007  -0.064   4.201 -0.7169 -0.0725 -0.2142
  376MOL0     C49510   4.918  -0.193   4.179 -0.7340  0.2738 -0.2804
  376MOL0     C49511   4.923  -0.280   4.302 -0.0604  0.2808  0.6352
  376MOL0     C49512   4.787  -0.352   4.335 -0.4690  0.5635  0.2922
  376MOL0     C49513   4.811  -0.462   4.443  0.5256 -1.0452  0.7347
  376MOL0     C49514   4.682  -0.539   4.456  0.3793  0.5937  0.9098
  376MOL0     C49515   4.679  -0.635   4.577 -0.4019  0.7568  0.4027
  376MOL0     C49516   4.659  -0.565   4.704  0.8392  0.0362  0.3941
  376MOL0     N49517   4.618  -0.653   4.808 -0.3226 -0.7153 -0.1227
  376MOL0     C49518   4.509  -0.725   4.815  0.1549  0.2813  0.1811
  376MOL0     C49519   4.516  -0.801   4.931 -0.5667 -0.7998  0.2000
  376MOL0     C49520   4.400  -0.883   4.975  0.4592  0.9189  0.3660
  376MOL0     C49521   4.259  -0.819   4.942  0.1356  0.8250 -0.3862
  376MOL0     C49522   4.137  -0.894   4.993  0.1961 -0.1422 -0.1603
  376MOL0     C49523   4.082  -1.005   4.900 -0.0315 -0.1840 -0.1841
  376MOL0     O49524   4.165  -1.120   4.877  0.2560  0.4227  0.5163
  376MOL0     C49525   4.098  -1.239   4.847 -0.2482 -0.5549  0.0278
  376MOL0     C49526   4.188  -1.341   4.824  0.2340  0.3455 -0.3674
  376MOL0     C49527   4.140  -1.470   4.797  0.1188 -0.0911 -0.3232
  376MOL0     C49528   4.005  -1.493   4.792  1.1871 -0.5473  0.1826
  376MOL0     C49529   3.950  -1.628   4.762 -0.4798  0.3345  0.4380
  376MOL0     O49530   3.839  -1.656   4.817  0.7715  0.3933 -0.3979
  376MOL0     C49531   3.783  -1.772   4.782 -0.2601  0.0767  0.0862
  376MOL0     C49532   3.696  -1.796   4.672 -0.1407  0.1340 -0.3200
  376MOL0     C49533   3.635  -1.916   4.656  0.9601  0.2229  0.0548
  376MOL0     C49534   3.656  -2.021   4.742 -0.0600 -0.3878  0.5161
  376MOL0     O49535   3.598  -2.137   4.694 -0.1959  0.8451  0.2360
  376MOL0     C49536   3.514  -2.219   4.777  1.0074 -0.0312  0.0669
  376MOL0     C49537   3.363  -2.171   4.764  0.3740  0.1350 -0.6134
  376MOL0     C49538   3.329  -2.018   4.788  0.3432  0.4975  0.5193
  376MOL0     C49539   3.366  -1.968   4.930 -0.8616 -0.2974  0.1787
  376MOL0     C49540   3.325  -1.824   4.949 -0.6639 -0.8351 -0.1502
  376MOL0     C49541   3.421  -1.719   4.893  0.0308  0.4419 -0.1547
  376MOL0     C49542   3.370  -1.575   4.903  0.4001  0.2785  0.6822
  376MOL0     C49543   3.478  -1.478   4.861 -0.5182 -0.1882 -0.4296
  376MOL0    Cl49544   3.482  -1.450   4.685 -0.2484  0.1691 -0.1278
  376MOL0     C49545   3.732  -2.005   4.850 -0.2609  0.5809  0.4767
  376MOL0     C49546   3.803  -1.883   4.870 -0.0970  0.3650  1.2022
  376MOL0     O49547   4.031  -1.702   4.701 -0.0790  0.1535 -0.2698
  376MOL0     C49548   3.919  -1.387   4.826 -0.2076 -0.3124 -0.0488
  376MOL0     C49549   3.964  -1.259   4.835  0.7666  0.1983 -0.1353
  376MOL0     N49550   4.641  -0.773   4.985  0.1072 -0.4087  0.3861
  376MOL0     N49551   4.695  -0.682   4.916  0.1270  0.0518  0.2756
  376MOL0     C49552   4.865   0.128   4.035  0.0660  0.5824 -1.3781
  376MOL0     C49553   4.816   0.227   3.952  0.0098  0.5704  0.8610
  376MOL0     C49554   4.727   0.654   3.832  0.1745  0.5701 -0.5557
  376MOL0     C49555   4.769   0.739   3.722  1.0081  0.5245  0.0532
  376MOL0     C49556   4.695   0.848   3.678 -0.0680 -0.1986 -0.0364
  376MOL0     C49557   4.573   0.881   3.748 -0.9004  0.3172  0.2034
  376MOL0     O49558   4.498   0.990   3.706  0.3847 -0.0399  0.0117
  376MOL0     C49559   4.384   1.045   3.779  0.1167  0.5342 -0.0054
  376MOL0     C49560   4.376   1.191   3.732  0.5143  0.1582 -0.1237
  376MOL0     C49561   4.297   1.202   3.601 -0.3631 -0.5381  0.3667
  376MOL0     C49562   4.316   1.328   3.509 -0.1883 -1.0894  0.1379
  376MOL0     C49563   4.248   1.444   3.577  0.2189 -0.6145  0.1689
  376MOL0     C49564   4.178   1.532   3.620  0.3762 -0.9628  0.5403
  376MOL0     C49565   4.538   0.809   3.860 -0.1358  0.4396  0.5586
  376MOL0     C49566   4.613   0.707   3.906 -0.3400  0.8639  0.2823
  376MOL0     H49567   4.732   0.447   4.192  0.5983  0.0094 -2.0776
  376MOL0     H49568   4.812   0.254   4.337  0.3067  2.5872 -0.6117
  376MOL0     H49569   5.075  -0.096   4.280 -2.5238 -4.0661 -0.0280
  376MOL0     H49570   5.073  -0.053   4.115 -1.5009 -0.1046 -0.8299
  376MOL0     H49571   4.964  -0.247   4.096  1.4802 -1.1884  1.7672
  376MOL0     H49572   4.820  -0.163   4.141  0.7551 -0.1942 -5.1339
  376MOL0     H49573   4.929  -0.215   4.391 -0.7205 -0.2785  1.1029
  376MOL0     H49574   5.013  -0.342   4.300 -2.5374 -3.7165 -2.0108
  376MOL0     H49575   4.712  -0.279   4.365 -0.2780  2.3704 -3.1723
  376MOL0     H49576   4.766  -0.413   4.246  5.0289 -0.4022 -0.7475
  376MOL0     H49577   4.838  -0.417   4.539 -2.5604  1.0946  0.7646
  376MOL0     H49578   4.887  -0.535   4.413 -0.6478 -2.3539  0.8212
  376MOL0     H49579   4.658  -0.594   4.364  1.0149  4.1013 -1.5700
  376MOL0     H49580   4.602  -0.467   4.477  1.4485  1.9188  0.5842
  376MOL0     H49581   4.592  -0.701   4.571  0.9802 -1.2622  1.4885
  376MOL0     H49582   4.767  -0.701   4.582 -1.7524 -1.6574 -3.1597
  376MOL0     H49583   4.572  -0.501   4.689  0.5142 -0.8066 -1.6537
  376MOL0     H49584   4.755  -0.514   4.717  2.6910 -2.6617 -1.4158
  376MOL0     H49585   4.431  -0.742   4.743  0.7385  0.9993 -0.6438
  376MOL0     H49586   4.405  -0.912   5.080  0.9477 -5.5234 -1.0294
  376MOL0     H49587   4.400  -0.982   4.929  1.1923 -0.3337  2.9133
  376MOL0     H49588   4.244  -0.818   4.833 -0.9907  2.0794 -0.2442
  376MOL0     H49589   4.267  -0.714   4.970  0.6871  1.7632 -3.6528
  376MOL0     H49590   4.163  -0.934   5.092  1.1940 -3.0526 -1.4829
  376MOL0     H49591   4.068  -0.813   5.018  0.7803 -0.0013  1.0719
  376MOL0     H49592   4.039  -0.966   4.808  1.0456 -0.1984 -0.7011
  376MOL0     H49593   3.995  -1.037   4.958 -0.6226  2.5905  0.5730
  376MOL0     H49594   4.295  -1.325   4.832  0.1186  1.0640 -0.1170
  376MOL0     H49595   4.208  -1.553   4.784 -2.8512 -3.1315  1.9068
  376MOL0     H49596   3.664  -1.713   4.609  1.3318 -1.6109 -3.5929
  376MOL0     H49597   3.580  -1.930   4.563 -2.4647  2.2119  1.5926
  376MOL0     H49598   3.552  -2.207   4.879 -0.7389 -0.3821  0.7840
  376MOL0     H49599   3.523  -2.325   4.751  1.9104  0.1017 -0.2130
  376MOL0     H49600   3.306  -2.224   4.841 -2.9425  1.9408 -1.6336
  376MOL0     H49601   3.321  -2.201   4.668 -4.3528 -2.2749  1.8784
  376MOL0     H49602   3.220  -2.011   4.773  0.1540  0.0919  1.6309
  376MOL0     H49603   3.378  -1.963   4.707 -0.5218 -0.5364 -0.7489
  376MOL0     H49604   3.322  -2.025   5.012  0.6704  1.4996  2.3434
  376MOL0     H49605   3.474  -1.985   4.944 -0.6625  0.9695  0.2974
  376MOL0     H49606   3.301  -1.803   5.054  0.0723  0.5869 -0.2464
  376MOL0     H49607   3.224  -1.805   4.912 -1.5253 -2.9490  0.8915
  376MOL0     H49608   3.440  -1.737   4.786 -1.6246  1.2511 -0.6143
  376MOL0     H49609   3.522  -1.725   4.936  0.1873  0.7045 -0.4785
  376MOL0     H49610   3.278  -1.560   4.846 -0.1469  1.1102  1.7276
  376MOL0     H49611   3.343  -1.545   5.005  0.0574  4.7821 -0.4820
  376MOL0     H49612   3.574  -1.523   4.888 -1.0634 -1.2364 -0.1772
  376MOL0     H49613   3.472  -1.386   4.920  2.4296 -1.2667  1.8102
  376MOL0     H49614   3.746  -2.088   4.919 -1.2440  0.1397  0.1535
  376MOL0     H49615   3.871  -1.876   4.955  0.8155 -3.6349  0.9853
  376MOL0     H49616   3.815  -1.415   4.842  0.1390 -0.9270  1.2225
  376MOL0     H49617   3.893  -1.182   4.861  3.4006  2.9691 -0.6348
  376MOL0     H49618   4.895   0.031   3.996  0.8112  0.0482  0.4337
  376MOL0     H49619   4.830   0.224   3.844  1.5637 -0.1787  1.0527
  376MOL0     H49620   4.863   0.730   3.668 -0.2508  1.9566 -2.5462
  376MOL0     H49621   4.720   0.902   3.588  2.3085 -2.4514 -0.8415
  376MOL0     H49622   4.408   1.054   3.885  0.3720  0.1993 -0.0309
  376MOL0     H49623   4.296   0.980   3.770  0.5969 -0.0368 -0.7228
  376MOL0     H49624   4.305   1.244   3.796  0.8037 -1.3547  1.5093
  376MOL0     H49625   4.474   1.238   3.719  0.6398  0.8299  2.6305
  376MOL0     H49626   4.194   1.220   3.634 -0.8297 -2.0834 -0.1956
  376MOL0     H49627   4.304   1.104   3.554 -0.2957 -0.1300 -0.4907
  376MOL0     H49628   4.421   1.338   3.481 -0.2429 -0.6375  0.0908
  376MOL0     H49629   4.268   1.322   3.411 -0.8705  0.8169  0.3055
  376MOL0     H49630   4.129   1.623   3.648 -3.0658 -2.2187 -0.8335
  376MOL0     H49631   4.440   0.807   3.907 -0.4357  2.4063  0.1048
  376MOL0     H49632   4.591   0.651   3.996  4.1271 -1.7734  0.0182
  377MOL0     O49633   0.737   3.226   4.065  0.1269 -0.0711  0.7892
  377MOL0     C49634   0.736   3.118   4.013 -0.0145  0.0628 -0.2593
  377MOL0     O49635   0.809   3.003   4.057 -0.0730 -0.0304 -0.1580
  377MOL0     C49636   0.924   3.023   4.133 -0.4497  0.3605  1.4546
  377MOL0     C49637   0.916   3.059   4.265 -0.5654  0.1838 -0.5476
  377MOL0     C49638   1.040   3.072   4.343  0.0948 -0.2804  1.0819
  377MOL0     C49639   1.161   3.048   4.284 -1.0699 -0.1987  0.2543
  377MOL0     O49640   1.270   3.052   4.366  0.2307  0.3245  0.2334
  377MOL0     C49641   1.394   2.980   4.329 -0.1946 -0.1888 -0.5133
  377MOL0     C49642   1.510   3.079   4.311 -0.1502 -0.5755  0.4051
  377MOL0     C49643   1.478   3.187   4.202 -0.0846  0.5335  0.3118
  377MOL0     C49644   1.589   3.286   4.198  0.1035  0.0437  0.3494
  377MOL0     C49645   1.626   3.352   4.066  0.4369  0.4858 -0.2219
  377MOL0     C49646   1.515   3.371   3.954 -0.2764  0.1187  0.1070
  377MOL0     C49647   1.422   3.484   4.007 -0.3668  0.7824  0.9646
  377MOL0     C49648   1.331   3.540   3.907 -0.0008 -1.1599  0.9729
  377MOL0     N49649   1.241   3.437   3.835  0.8592 -0.5854 -0.1498
  377MOL0     C49650   1.112   3.416   3.882 -1.0760 -0.4725 -1.0565
  377MOL0     C49651   1.059   3.335   3.782 -0.2654  0.5200  0.0676
  377MOL0     C49652   0.930   3.273   3.757 -0.9775 -0.4031 -0.6213
  377MOL0     C49653   0.853   3.320   3.637 -0.0043  0.3990  0.6545
  377MOL0     C49654   0.731   3.393   3.673  0.4450  0.2367 -0.6417
  377MOL0     C49655   0.643   3.438   3.562  0.5277  0.4764  0.9461
  377MOL0     O49656   0.727   3.510   3.473  0.5006  0.9839 -0.2288
  377MOL0     C49657   0.685   3.535   3.348  0.4984 -0.4096 -0.5745
  377MOL0     C49658   0.573   3.479   3.288  0.9913 -0.8198  0.7682
  377MOL0     C49659   0.533   3.505   3.159 -0.6940 -0.5597 -0.2680
  377MOL0     C49660   0.627   3.583   3.082  0.2705 -0.8155 -1.2714
  377MOL0     C49661   0.601   3.620   2.947  0.3697 -0.7600  0.8591
  377MOL0     O49662   0.473   3.597   2.900  0.7112  1.0749  0.0646
  377MOL0     C49663   0.418   3.677   2.806 -0.1871 -0.6654 -0.4425
  377MOL0     C49664   0.303   3.624   2.757 -0.0296  0.5979  1.3460
  377MOL0     C49665   0.224   3.679   2.655  0.2521 -0.7318  1.1788
  377MOL0     C49666   0.266   3.802   2.609  0.6653  0.0455  0.0548
  377MOL0     O49667   0.192   3.864   2.510  0.1292  0.3870 -0.2507
  377MOL0     C49668   0.051   3.862   2.489  0.1587 -0.0209  0.3152
  377MOL0     C49669  -0.039   3.942   2.577  1.3589 -0.7648  0.0853
  377MOL0     C49670  -0.189   3.929   2.558  0.4498 -0.3741  0.5747
  377MOL0     C49671  -0.242   3.800   2.589 -0.2481 -0.5666 -1.0075
  377MOL0     C49672  -0.383   3.784   2.565 -0.1160 -0.1993  0.1524
  377MOL0     C49673  -0.427   3.643   2.613 -0.7105 -0.3043 -0.4956
  377MOL0     C49674  -0.568   3.627   2.592 -0.6133 -0.3735  0.1744
  377MOL0     C49675  -0.656   3.704   2.687 -0.4339 -0.8829 -0.6546
  377MOL0    Cl49676  -0.643   3.637   2.855  0.4445  0.0123 -0.1622
  377MOL0     C49677   0.369   3.872   2.674  0.3024 -0.0906 -1.2607
  377MOL0     C49678   0.457   3.805   2.765  0.5091  0.2375  0.0365
  377MOL0     O49679   0.690   3.679   2.878  0.8420 -0.2566 -0.4841
  377MOL0     C49680   0.732   3.641   3.143 -0.5131 -0.5325 -0.1968
  377MOL0     C49681   0.767   3.618   3.268  0.3340  0.5386  0.4224
  377MOL0     N49682   1.160   3.313   3.683  0.4335 -0.2593 -0.5762
  377MOL0     N49683   1.263   3.381   3.722  0.3675 -0.5442 -1.6241
  377MOL0     C49684   1.172   3.003   4.151 -0.6382 -0.1768  0.2847
  377MOL0     C49685   1.052   2.983   4.078 -0.8359 -0.1080 -0.0489
  377MOL0     C49686   0.646   3.088   3.894  0.7369 -0.4145 -0.6961
  377MOL0     C49687   0.672   2.975   3.811 -0.2173  0.5293  0.9116
  377MOL0     C49688   0.589   2.954   3.700  0.3320  0.5175 -0.6866
  377MOL0     C49689   0.494   3.037   3.657  0.6463  0.3451 -1.5025
  377MOL0     O49690   0.432   3.009   3.540  0.3564 -0.0237 -0.0901
  377MOL0     C49691   0.339   3.106   3.485 -0.9135  1.3946  0.6963
  377MOL0     C49692   0.260   3.030   3.373  0.4084  0.5852  0.3023
  377MOL0     C49693   0.162   2.940   3.438 -0.2624  0.6400  0.7523
  377MOL0     C49694   0.091   2.851   3.330 -0.2691  0.2728  1.7045
  377MOL0     C49695   0.031   2.731   3.397  1.0759  0.0574 -0.4655
  377MOL0     C49696   0.002   2.629   3.457 -0.4668  1.0530  0.2152
  377MOL0     C49697   0.465   3.147   3.735 -1.1276 -0.9684 -0.4987
  377MOL0     C49698   0.535   3.169   3.850  0.6089  0.7452  0.4058
  377MOL0     H49699   0.818   3.086   4.304 -1.7595  0.6285 -3.6101
  377MOL0     H49700   1.023   3.103   4.446 -4.8921 -3.1364  1.4875
  377MOL0     H49701   1.388   2.907   4.248 -3.6878  0.5095 -1.0764
  377MOL0     H49702   1.415   2.919   4.417  1.5572 -0.1521 -0.8696
  377MOL0     H49703   1.604   3.025   4.298 -0.5403 -1.0947 -0.4237
  377MOL0     H49704   1.512   3.138   4.403  0.2955 -0.6038  0.4177
  377MOL0     H49705   1.380   3.234   4.211 -0.5973  0.0927 -2.1926
  377MOL0     H49706   1.473   3.143   4.102  2.1762  1.6247 -0.3497
  377MOL0     H49707   1.560   3.366   4.268  0.4095  1.1850 -0.7921
  377MOL0     H49708   1.689   3.252   4.224 -0.0615 -0.7217 -0.0053
  377MOL0     H49709   1.710   3.295   4.024 -1.3046 -2.0620 -0.4331
  377MOL0     H49710   1.677   3.443   4.098  3.5519 -2.1706  3.2721
  377MOL0     H49711   1.447   3.298   3.909 -0.8615  1.4521 -1.2840
  377MOL0     H49712   1.561   3.415   3.865 -0.9868 -0.6486 -0.6606
  377MOL0     H49713   1.370   3.444   4.095  1.1248  1.5106  2.2413
  377MOL0     H49714   1.487   3.561   4.050  5.9528 -2.6508 -1.2369
  377MOL0     H49715   1.390   3.599   3.836  0.8765 -1.0260  1.8003
  377MOL0     H49716   1.267   3.608   3.963  1.3390  1.0582 -0.0385
  377MOL0     H49717   1.064   3.448   3.974 -0.1277 -3.2904  0.5439
  377MOL0     H49718   0.868   3.290   3.846 -0.8939  2.9191 -1.0796
  377MOL0     H49719   0.956   3.167   3.747 -2.3491 -0.9358  1.0033
  377MOL0     H49720   0.814   3.232   3.586  1.3581  0.0670  0.1442
  377MOL0     H49721   0.912   3.372   3.561  2.0410 -1.3599  0.9204
  377MOL0     H49722   0.677   3.341   3.752 -4.1335  0.3073 -3.3923
  377MOL0     H49723   0.763   3.487   3.719 -0.4700  0.5319 -0.5897
  377MOL0     H49724   0.566   3.505   3.601  1.3138  0.9378  1.7368
  377MOL0     H49725   0.601   3.345   3.522  1.1429 -0.9032  3.3014
  377MOL0     H49726   0.503   3.425   3.351  0.7788  1.2889  2.4722
  377MOL0     H49727   0.440   3.471   3.113 -1.8484 -0.1292  1.6147
  377MOL0     H49728   0.286   3.525   2.797  1.2140 -0.6715 -1.0248
  377MOL0     H49729   0.135   3.637   2.609 -0.3667 -0.7508  2.3411
  377MOL0     H49730   0.018   3.758   2.492  0.6257 -0.1533  1.2464
  377MOL0     H49731   0.042   3.901   2.387 -0.5255 -1.3521 -0.1484
  377MOL0     H49732  -0.012   4.047   2.561 -3.3726  0.6956  0.2822
  377MOL0     H49733  -0.012   3.907   2.678 -0.5586 -0.4422  0.7447
  377MOL0     H49734  -0.198   3.956   2.452  1.5213 -3.3522 -0.3796
  377MOL0     H49735  -0.224   4.011   2.621  3.5316  1.8631 -0.3631
  377MOL0     H49736  -0.190   3.725   2.530 -0.5668 -0.7966 -0.9983
  377MOL0     H49737  -0.211   3.773   2.691  1.0221 -0.1405 -1.2642
  377MOL0     H49738  -0.403   3.805   2.460 -2.4003 -2.1947  0.1264
  377MOL0     H49739  -0.429   3.865   2.624  1.1943  0.0213  0.9192
  377MOL0     H49740  -0.393   3.627   2.716  2.8418 -0.8184 -1.6067
  377MOL0     H49741  -0.374   3.569   2.553  1.4754  0.6656  0.1412
  377MOL0     H49742  -0.593   3.638   2.486 -1.9974 -2.0923  0.2823
  377MOL0     H49743  -0.589   3.520   2.601 -1.0088 -0.0804  4.8867
  377MOL0     H49744  -0.760   3.702   2.653  0.0028 -4.4843 -2.2709
  377MOL0     H49745  -0.622   3.807   2.679 -0.7787 -0.8928 -2.6661
  377MOL0     H49746   0.406   3.970   2.646  1.0226  0.8349  2.4450
  377MOL0     H49747   0.542   3.860   2.801  1.0824  0.5256 -1.6925
  377MOL0     H49748   0.798   3.709   3.090 -1.7515  1.0097  0.1813
  377MOL0     H49749   0.850   3.669   3.316  1.7142 -0.3385 -0.9450
  377MOL0     H49750   1.268   2.985   4.105  0.3232  0.9025  1.7544
  377MOL0     H49751   1.039   2.971   3.971  1.1944  1.5301 -0.5352
  377MOL0     H49752   0.760   2.912   3.829  0.2272  1.0933  0.7286
  377MOL0     H49753   0.611   2.872   3.632  2.5831  0.6654 -0.1923
  377MOL0     H49754   0.405   3.179   3.438 -2.2448  2.8977  1.0600
  377MOL0     H49755   0.275   3.159   3.556  0.0168  0.0859  2.6064
  377MOL0     H49756   0.208   3.100   3.307 -0.4538 -0.9253 -0.6720
  377MOL0     H49757   0.329   2.978   3.307 -2.2435 -2.6860 -0.1402
  377MOL0     H49758   0.090   2.998   3.497 -0.3192  1.4438 -0.0999
  377MOL0     H49759   0.216   2.865   3.497  1.2105 -0.0745 -1.4163
  377MOL0     H49760   0.019   2.919   3.284  0.5991  0.7392  1.0026
  377MOL0     H49761   0.166   2.824   3.255 -1.1515  2.1213  0.0793
  377MOL0     H49762  -0.039   2.535   3.486 -0.3024  0.6656 -0.7644
  377MOL0     H49763   0.389   3.223   3.724  0.1659  0.4090 -0.2603
  377MOL0     H49764   0.523   3.246   3.925  0.5130  1.7214 -0.5931
  378MOL0     O49765  11.071   4.609   6.972 -0.0947  0.1230 -0.7922
  378MOL0     C49766  11.125   4.594   6.862 -0.4172 -0.1070 -0.0256
  378MOL0     O49767  11.084   4.510   6.763 -0.2144 -0.9503  0.3865
  378MOL0     C49768  10.979   4.417   6.769 -0.7004 -0.0148  0.1715
  378MOL0     C49769  10.869   4.453   6.695  0.6100 -0.2775  0.0389
  378MOL0     C49770  10.762   4.364   6.682  0.1084  0.8046 -0.6651
  378MOL0     C49771  10.764   4.239   6.760 -1.1452  0.4685  0.6719
  378MOL0     O49772  10.676   4.142   6.728  0.2694  1.2702  0.6396
  378MOL0     C49773  10.610   4.090   6.838  0.5159 -1.3772  0.1740
  378MOL0     C49774  10.522   3.975   6.789 -0.2509 -0.1534  0.0075
  378MOL0     C49775  10.435   3.911   6.896 -0.2930 -0.2894 -0.2039
  378MOL0     C49776  10.338   4.002   6.955  0.3097 -0.1339  0.5183
  378MOL0     C49777  10.239   3.927   7.039  0.8362 -0.6865  0.3357
  378MOL0     C49778  10.304   3.854   7.161  0.0983  0.1134 -0.3119
  378MOL0     C49779  10.191   3.811   7.269 -0.0435  0.2726  0.1080
  378MOL0     C49780  10.131   3.925   7.366  0.2687  0.5861  0.6216
  378MOL0     N49781  10.224   4.027   7.402  0.5606  0.9428 -0.5766
  378MOL0     C49782  10.323   4.010   7.500 -0.0551  0.0929  0.0222
  378MOL0     C49783  10.401   4.115   7.499 -0.7967  0.3213  0.9078
  378MOL0     C49784  10.517   4.142   7.585 -0.0797 -0.2107 -0.7747
  378MOL0     C49785  10.490   4.249   7.694  0.0594 -0.0969 -0.4347
  378MOL0     C49786  10.339   4.243   7.734 -0.4685  0.1239 -0.1802
  378MOL0     C49787  10.295   4.323   7.862 -0.0106  0.6041  0.4683
  378MOL0     O49788  10.372   4.252   7.971  0.4766 -0.3821 -0.1226
  378MOL0     C49789  10.319   4.258   8.090 -0.2494 -0.2540  0.9160
  378MOL0     C49790  10.333   4.148   8.169  0.0355 -0.6497 -0.2702
  378MOL0     C49791  10.284   4.152   8.299 -0.6541  0.6368  0.4228
  378MOL0     C49792  10.227   4.264   8.361 -0.7650 -0.2603 -0.2576
  378MOL0     C49793  10.179   4.269   8.499  0.4650 -0.2316  0.8014
  378MOL0     O49794  10.117   4.393   8.525  0.0153  0.8511 -0.9675
  378MOL0     C49795  10.071   4.419   8.648 -1.4021 -0.3879  0.4474
  378MOL0     C49796  10.085   4.554   8.684 -0.2717 -0.1271 -0.2778
  378MOL0     C49797  10.050   4.602   8.815 -0.7511  0.8293 -0.0740
  378MOL0     C49798   9.986   4.505   8.899 -0.5091 -0.2494  0.2376
  378MOL0     O49799   9.935   4.540   9.021 -0.0816  0.3003 -0.0942
  378MOL0     C49800   9.796   4.509   9.047 -0.8454 -0.3244  0.4181
  378MOL0     C49801   9.735   4.600   9.146 -0.2198  0.2059 -0.3335
  378MOL0     C49802   9.583   4.588   9.164  0.4728 -0.1409  0.4372
  378MOL0     C49803   9.514   4.714   9.225 -0.8087 -0.1435  0.0319
  378MOL0     C49804   9.568   4.751   9.367 -0.1474 -0.1363  0.3382
  378MOL0     C49805   9.466   4.830   9.453  0.2037  0.0886  0.7622
  378MOL0     C49806   9.507   4.839   9.594 -0.6363 -0.0453 -0.1098
  378MOL0     C49807   9.473   4.715   9.676 -0.2159 -0.5777  0.1637
  378MOL0    Cl49808   9.363   4.754   9.818 -0.1497 -0.1843 -0.2371
  378MOL0     C49809   9.970   4.374   8.859  0.0931 -0.5509 -0.4943
  378MOL0     C49810  10.011   4.322   8.736  0.1698 -0.2636 -0.2086
  378MOL0     O49811  10.208   4.176   8.574  0.1560 -0.6805  0.0814
  378MOL0     C49812  10.199   4.372   8.268 -0.3172 -0.5270  0.7475
  378MOL0     C49813  10.251   4.372   8.141 -0.4922  0.5226 -0.2138
  378MOL0     N49814  10.354   4.197   7.393  0.9769  0.0480  0.0735
  378MOL0     N49815  10.244   4.140   7.335  0.5005 -0.6104 -0.8364
  378MOL0     C49816  10.879   4.216   6.847  0.7865  0.4354 -0.6976
  378MOL0     C49817  10.989   4.307   6.847  0.2457  0.6116 -0.2606
  378MOL0     C49818  11.243   4.678   6.828 -0.7070  0.9098  0.5027
  378MOL0     C49819  11.304   4.774   6.909 -0.7533 -0.4401 -0.7542
  378MOL0     C49820  11.429   4.829   6.881  0.0397 -0.1712  0.4604
  378MOL0     C49821  11.499   4.804   6.762 -0.8278 -1.2397  0.4904
  378MOL0     O49822  11.614   4.872   6.728  0.6715 -0.5994 -0.1134
  378MOL0     C49823  11.674   4.979   6.818  0.2840  0.8911  0.2111
  378MOL0     C49824  11.781   5.062   6.738 -0.2472 -0.6917  0.5108
  378MOL0     C49825  11.712   5.109   6.606 -0.2945 -0.0943 -0.1689
  378MOL0     C49826  11.780   5.218   6.522  1.1530  1.0867  0.5046
  378MOL0     C49827  11.816   5.334   6.588  0.9106  0.7750  0.8084
  378MOL0     C49828  11.852   5.430   6.644  0.0577 -0.4901 -0.1059
  378MOL0     C49829  11.437   4.703   6.683  0.1713 -0.7701 -0.5663
  378MOL0     C49830  11.318   4.643   6.715 -0.6894  0.3199 -0.2167
  378MOL0     H49831  10.865   4.550   6.647  1.8791 -0.4769 -0.4857
  378MOL0     H49832  10.672   4.375   6.622 -0.0783  1.9342 -0.2036
  378MOL0     H49833  10.541   4.159   6.888  2.0247  0.5103 -0.2366
  378MOL0     H49834  10.683   4.059   6.913 -1.1814 -0.7097  2.2026
  378MOL0     H49835  10.580   3.903   6.731 -2.1474 -1.0230 -0.9217
  378MOL0     H49836  10.451   4.019   6.718 -0.1972  0.4344  0.3128
  378MOL0     H49837  10.497   3.865   6.973 -0.3815 -1.9014 -1.0451
  378MOL0     H49838  10.384   3.826   6.849 -0.7407  0.1876 -0.5966
  378MOL0     H49839  10.393   4.076   7.014  3.9727 -1.8115 -0.5157
  378MOL0     H49840  10.276   4.046   6.876  1.6546  0.1313 -0.4284
  378MOL0     H49841  10.183   3.860   6.973  0.0804 -1.4211  1.6785
  378MOL0     H49842  10.157   3.990   7.076 -0.8444 -2.0536 -0.9089
  378MOL0     H49843  10.378   3.920   7.207  0.2589 -1.4415  1.8063
  378MOL0     H49844  10.354   3.761   7.132  0.0959 -0.9725  2.8068
  378MOL0     H49845  10.111   3.746   7.230  1.4252 -1.9116  0.5461
  378MOL0     H49846  10.241   3.729   7.323 -0.4427  0.4645  0.7856
  378MOL0     H49847  10.104   3.881   7.463 -0.6887  2.2670  1.1609
  378MOL0     H49848  10.041   3.968   7.322 -0.7171 -3.3110 -1.6307
  378MOL0     H49849  10.330   3.938   7.580 -1.2522 -0.4918 -0.3891
  378MOL0     H49850  10.592   4.198   7.529 -0.4594  2.8180  1.4813
  378MOL0     H49851  10.562   4.048   7.619 -1.3731 -0.8942 -0.8856
  378MOL0     H49852  10.511   4.349   7.656 -1.0532 -0.0993 -1.1005
  378MOL0     H49853  10.547   4.247   7.787  1.8427 -0.7509 -1.5011
  378MOL0     H49854  10.280   4.285   7.651 -4.4699 -0.5849  2.0873
  378MOL0     H49855  10.315   4.137   7.740  0.5196 -0.0117  3.6819
  378MOL0     H49856  10.189   4.312   7.886  0.4571 -1.3073  1.9960
  378MOL0     H49857  10.339   4.423   7.865  2.9090 -0.6020  2.0636
  378MOL0     H49858  10.396   4.068   8.131  2.4102  1.1021 -0.3098
  378MOL0     H49859  10.296   4.069   8.368  0.7322 -1.1130 -1.7978
  378MOL0     H49860  10.133   4.632   8.626 -0.9514  1.2501  0.9359
  378MOL0     H49861  10.057   4.702   8.856 -0.8211  0.4244  0.9448
  378MOL0     H49862   9.789   4.410   9.094 -2.7063 -1.2340 -1.5954
  378MOL0     H49863   9.739   4.504   8.954 -1.0733 -3.0565  0.6265
  378MOL0     H49864   9.756   4.702   9.110  0.3732  0.4736  0.7213
  378MOL0     H49865   9.777   4.599   9.247 -2.0805  0.7535  0.4938
  378MOL0     H49866   9.557   4.495   9.216  0.2368  0.8100  2.0720
  378MOL0     H49867   9.541   4.586   9.063 -0.0629  2.3818  0.5417
  378MOL0     H49868   9.519   4.805   9.164  1.3062 -0.0477  0.2739
  378MOL0     H49869   9.406   4.698   9.221 -0.7675 -0.1881 -1.7175
  378MOL0     H49870   9.661   4.808   9.369  0.3010 -0.7983  3.3039
  378MOL0     H49871   9.599   4.658   9.416 -0.5081  0.8697  2.6097
  378MOL0     H49872   9.367   4.784   9.439 -0.2025  1.6357 -2.0271
  378MOL0     H49873   9.456   4.926   9.401 -0.3454 -0.3890 -0.0297
  378MOL0     H49874   9.611   4.850   9.626 -0.6106 -1.8727  0.5498
  378MOL0     H49875   9.462   4.931   9.634 -2.0597  0.0690 -1.8480
  378MOL0     H49876   9.570   4.674   9.707  0.2182 -0.8743 -1.4759
  378MOL0     H49877   9.418   4.640   9.619 -1.1498 -1.0792  1.6848
  378MOL0     H49878   9.919   4.307   8.928 -0.2698  1.6790  1.5290
  378MOL0     H49879   9.979   4.221   8.713 -0.9505  0.1638 -0.5747
  378MOL0     H49880  10.165   4.471   8.297  0.0020  0.6478 -2.5553
  378MOL0     H49881  10.231   4.455   8.074 -0.7861 -1.5671 -2.8649
  378MOL0     H49882  10.882   4.130   6.913 -0.5783  0.3612 -0.6954
  378MOL0     H49883  11.072   4.274   6.908  0.4562 -1.0105 -1.3417
  378MOL0     H49884  11.270   4.803   7.008  1.4374 -1.6922  0.4227
  378MOL0     H49885  11.452   4.902   6.958  2.6808  2.6326 -2.6789
  378MOL0     H49886  11.710   4.925   6.906 -0.3640  0.5301  0.2593
  378MOL0     H49887  11.596   5.046   6.856 -0.0552  0.8998 -0.4849
  378MOL0     H49888  11.808   5.158   6.784  0.9097 -0.9166  0.3481
  378MOL0     H49889  11.869   5.002   6.712  0.7984  1.7535 -2.1601
  378MOL0     H49890  11.608   5.135   6.627 -0.3458  1.0818 -1.6824
  378MOL0     H49891  11.702   5.029   6.532  0.0038  2.1608 -2.8379
  378MOL0     H49892  11.872   5.167   6.491 -1.7087 -3.9432 -0.8580
  378MOL0     H49893  11.722   5.249   6.435  0.0349  3.8991  2.1405
  378MOL0     H49894  11.899   5.517   6.687  0.5344 -0.8423  0.0884
  378MOL0     H49895  11.484   4.683   6.587 -1.5078  0.5301 -1.7244
  378MOL0     H49896  11.282   4.555   6.663 -2.3944  0.2067  1.0808
  379MOL0     O49897  10.449   9.264   3.177 -0.4491 -0.2832  0.3456
  379MOL0     C49898  10.384   9.328   3.260  0.8863  0.2776 -0.2995
  379MOL0     O49899  10.395   9.329   3.399 -0.0025 -0.6982  0.6057
  379MOL0     C49900  10.482   9.262   3.474 -0.3318  0.1153 -0.3356
  379MOL0     C49901  10.468   9.260   3.613  0.1323 -0.9259  0.6459
  379MOL0     C49902  10.571   9.219   3.701 -0.7755 -0.9138  0.5600
  379MOL0     C49903  10.694   9.170   3.651 -0.4870  0.1032 -0.1314
  379MOL0     O49904  10.804   9.132   3.727 -0.2102 -0.1592  0.2121
  379MOL0     C49905  10.784   9.068   3.860 -0.0637 -0.9881 -0.6471
  379MOL0     C49906  10.893   8.970   3.891 -1.1253  0.8990  0.1297
  379MOL0     C49907  10.882   8.909   4.027  0.2603 -0.7402 -0.0879
  379MOL0     C49908  10.992   8.801   4.053 -0.2491 -0.3527  0.6733
  379MOL0     C49909  11.010   8.777   4.209 -0.0149 -0.5068  0.1648
  379MOL0     C49910  11.052   8.641   4.246  0.7936 -0.2735  0.5712
  379MOL0     C49911  11.039   8.610   4.398  0.0407 -0.0917 -0.6113
  379MOL0     C49912  11.134   8.487   4.416 -0.3101  0.1699 -0.8948
  379MOL0     N49913  11.140   8.426   4.548  0.1304  0.1691  0.3119
  379MOL0     C49914  11.247   8.424   4.634 -1.1350  0.6524  0.0998
  379MOL0     C49915  11.215   8.321   4.725 -0.6715  0.0685  0.6834
  379MOL0     C49916  11.282   8.273   4.855 -0.2091  0.0103 -0.5122
  379MOL0     C49917  11.299   8.115   4.852 -0.3976 -0.6984  0.6551
  379MOL0     C49918  11.421   8.068   4.943  0.5109 -0.0451  0.2032
  379MOL0     C49919  11.548   8.024   4.866 -0.9334  0.2423 -0.8751
  379MOL0     O49920  11.617   7.934   4.953 -0.1836  0.5219  0.6987
  379MOL0     C49921  11.726   7.974   5.026  0.7573 -1.6116 -0.7421
  379MOL0     C49922  11.828   7.886   5.037 -0.6282 -0.2089  0.6833
  379MOL0     C49923  11.944   7.927   5.092  0.0817  0.1514 -0.7637
  379MOL0     C49924  11.968   8.051   5.159 -1.2448  0.9369 -0.3415
  379MOL0     C49925  12.092   8.095   5.225  0.5493  0.0446 -0.4828
  379MOL0     O49926  12.112   8.230   5.234  0.8256  1.1296  0.4013
  379MOL0     C49927  12.243   8.271   5.238  0.7462  0.3043 -0.1549
  379MOL0     C49928  12.323   8.237   5.344 -0.5838  0.3895  0.1766
  379MOL0     C49929  12.453   8.282   5.355  0.4946  0.2538 -0.1967
  379MOL0     C49930  12.509   8.370   5.258  0.5088 -0.3383  0.1134
  379MOL0     O49931  12.639   8.416   5.269  0.6976  0.2043  0.3642
  379MOL0     C49932  12.734   8.341   5.335  0.0262 -0.5311 -0.6552
  379MOL0     C49933  12.770   8.222   5.248 -0.7458 -0.0226 -0.5150
  379MOL0     C49934  12.856   8.260   5.121 -0.2416  0.7304 -0.5660
  379MOL0     C49935  12.788   8.338   5.006 -0.2441 -0.3249  0.6373
  379MOL0     C49936  12.887   8.436   4.933  0.8498  0.8576  0.4332
  379MOL0     C49937  12.981   8.355   4.849 -0.9123 -0.3191  0.0793
  379MOL0     C49938  13.088   8.442   4.790 -0.2137 -0.4274  0.3707
  379MOL0     C49939  13.128   8.382   4.655  0.1635  0.3475  0.5930
  379MOL0    Cl49940  13.269   8.471   4.591 -0.2204 -0.0016  1.1338
  379MOL0     C49941  12.432   8.401   5.147  0.4116  1.0085  0.7208
  379MOL0     C49942  12.299   8.348   5.147  0.3021 -0.1920  0.5011
  379MOL0     O49943  12.175   8.010   5.256 -0.3914 -0.7852  0.5380
  379MOL0     C49944  11.858   8.139   5.148 -0.8276  0.2040 -0.3882
  379MOL0     C49945  11.743   8.101   5.080  0.1701  0.5031  0.2957
  379MOL0     N49946  11.096   8.258   4.685  0.1751 -0.4961 -0.0348
  379MOL0     N49947  11.062   8.325   4.580 -0.0702 -0.5539 -0.3336
  379MOL0     C49948  10.712   9.172   3.510 -0.2664 -0.3590 -0.3048
  379MOL0     C49949  10.604   9.205   3.421  0.7634 -0.5702  0.7488
  379MOL0     C49950  10.278   9.406   3.198  0.5753 -0.0934 -0.7127
  379MOL0     C49951  10.201   9.496   3.268  0.4852 -0.3639 -0.6490
  379MOL0     C49952  10.097   9.567   3.214  0.6201 -0.2436  0.6253
  379MOL0     C49953  10.075   9.551   3.069  0.3332  0.2721  0.1096
  379MOL0     O49954   9.974   9.625   3.006 -0.1070 -0.8776 -0.8765
  379MOL0     C49955   9.902   9.727   3.076 -0.9756  0.5648  1.0751
  379MOL0     C49956   9.787   9.789   2.990 -0.3463 -1.2989 -1.2507
  379MOL0     C49957   9.743   9.932   3.056 -0.5109  0.1906  0.3337
  379MOL0     C49958   9.617   9.980   2.975  0.0932 -0.7867  0.7062
  379MOL0     C49959   9.602  10.124   2.970 -0.4389 -0.5566  0.3301
  379MOL0     C49960   9.593  10.246   2.977 -0.2721  0.2044  0.3336
  379MOL0     C49961  10.152   9.456   2.992 -0.3931 -0.3792 -0.9198
  379MOL0     C49962  10.253   9.380   3.063 -0.0197 -0.8158 -0.1001
  379MOL0     H49963  10.384   9.313   3.658  1.9510  2.3500  0.4991
  379MOL0     H49964  10.556   9.222   3.808  0.4561 -1.4713  0.7730
  379MOL0     H49965  10.688   9.017   3.864 -1.6248  1.7595 -0.5153
  379MOL0     H49966  10.771   9.153   3.928 -1.5878  0.4352 -2.5839
  379MOL0     H49967  10.990   9.020   3.884 -0.9429  0.8239  1.7336
  379MOL0     H49968  10.900   8.885   3.822  2.9607  1.3660 -0.2757
  379MOL0     H49969  10.780   8.871   4.040  0.0225 -0.0263  0.2080
  379MOL0     H49970  10.910   8.989   4.097 -1.8720 -1.6661  1.9816
  379MOL0     H49971  10.967   8.702   4.014  0.8994 -0.9927  1.5151
  379MOL0     H49972  11.081   8.854   4.018 -2.5226  1.5888 -2.7544
  379MOL0     H49973  10.914   8.800   4.256  0.1542  3.8845 -1.1691
  379MOL0     H49974  11.086   8.844   4.250  1.4601 -0.2567 -2.7046
  379MOL0     H49975  11.160   8.646   4.227  0.8415  3.0636  1.0516
  379MOL0     H49976  11.003   8.563   4.186  1.4401  0.6598 -1.2748
  379MOL0     H49977  11.061   8.698   4.460  0.2719  1.5317 -2.8624
  379MOL0     H49978  10.934   8.593   4.424 -0.2833  2.6550  0.2101
  379MOL0     H49979  11.236   8.522   4.399  0.9022 -1.0270  2.8384
  379MOL0     H49980  11.112   8.411   4.341  0.5192  1.8333 -2.9401
  379MOL0     H49981  11.334   8.488   4.649 -0.4313 -0.5741  1.5684
  379MOL0     H49982  11.214   8.285   4.940 -0.0485 -1.4992 -0.1483
  379MOL0     H49983  11.378   8.325   4.868  0.0539 -0.8795  1.5152
  379MOL0     H49984  11.303   8.071   4.752 -0.4752  1.3886 -0.3098
  379MOL0     H49985  11.206   8.076   4.893 -1.2571 -1.1821 -1.5972
  379MOL0     H49986  11.441   8.162   4.996 -5.1653  1.6041  0.1630
  379MOL0     H49987  11.382   7.992   5.012  0.5715 -0.3955 -0.1488
  379MOL0     H49988  11.613   8.110   4.848  0.4322 -0.4559  0.4591
  379MOL0     H49989  11.524   7.969   4.775  1.5506  0.8271 -1.9399
  379MOL0     H49990  11.837   7.787   4.993  0.0372  0.9690 -2.0948
  379MOL0     H49991  12.035   7.867   5.089  2.9232  4.0227 -0.6502
  379MOL0     H49992  12.295   8.181   5.433  0.7331 -0.1433  0.2695
  379MOL0     H49993  12.511   8.229   5.430 -1.2584 -1.1182  0.2251
  379MOL0     H49994  12.705   8.312   5.436  0.3235  2.7229  0.4789
  379MOL0     H49995  12.825   8.400   5.352 -0.1818 -0.7810  1.5795
  379MOL0     H49996  12.696   8.145   5.226 -0.8842  0.7466 -2.9534
  379MOL0     H49997  12.835   8.162   5.312 -0.6185 -3.9643 -3.9644
  379MOL0     H49998  12.895   8.164   5.088 -0.5503 -0.1648  1.4821
  379MOL0     H49999  12.934   8.328   5.156  1.8568 -1.0846 -1.4562
  379MOL0     H50000  12.747   8.255   4.949 -1.4390 -1.8887  3.5800
  379MOL0     H50001  12.709   8.403   5.044  0.5554  0.7673  0.5030
  379MOL0     H50002  12.941   8.494   5.009  1.4462  1.2982 -0.3175
  379MOL0     H50003  12.818   8.490   4.869 -0.3857 -1.2351 -0.1169
  379MOL0     H50004  12.916   8.304   4.778 -2.7372  1.1401  0.6280
  379MOL0     H50005  13.030   8.276   4.906 -0.4231 -0.0482  0.0470
  379MOL0     H50006  13.044   8.542   4.792 -2.0970 -1.1454  4.4074
  379MOL0     H50007  13.172   8.449   4.860  1.4832 -1.8561 -1.4093
  379MOL0     H50008  13.041   8.398   4.589  1.0587 -0.4075 -0.8155
  379MOL0     H50009  13.154   8.281   4.686 -5.8106 -0.6070  4.0664
  379MOL0     H50010  12.479   8.445   5.060  0.6249 -2.7530 -1.2930
  379MOL0     H50011  12.244   8.371   5.056  2.8769  0.7126 -0.9254
  379MOL0     H50012  11.877   8.238   5.189 -3.1583 -0.0383  1.5158
  379MOL0     H50013  11.665   8.175   5.067 -0.6935 -0.7527 -2.3736
  379MOL0     H50014  10.812   9.143   3.477  1.9671 -0.5998  5.4811
  379MOL0     H50015  10.628   9.205   3.316  1.7673  3.2220  0.8422
  379MOL0     H50016  10.208   9.511   3.375 -1.6883 -0.8366 -0.3861
  379MOL0     H50017  10.033   9.638   3.266 -0.5958 -1.6189  1.0519
  379MOL0     H50018   9.979   9.797   3.109  1.2810 -1.2706  0.0048
  379MOL0     H50019   9.852   9.680   3.161  1.1515 -1.0577  1.5069
  379MOL0     H50020   9.799   9.806   2.882 -0.5484  3.4243 -0.7533
  379MOL0     H50021   9.702   9.721   2.989  1.5135 -3.7613 -0.8848
  379MOL0     H50022   9.815  10.012   3.042 -2.3665  2.0400  0.8012
  379MOL0     H50023   9.731   9.922   3.164  2.4831  3.9439  1.2281
  379MOL0     H50024   9.623   9.943   2.873 -0.9839  2.6266 -0.7475
  379MOL0     H50025   9.519   9.936   2.999 -0.3292 -0.3592 -0.1825
  379MOL0     H50026   9.584  10.351   2.960 -0.2046  0.2748  0.7171
  379MOL0     H50027  10.140   9.427   2.888 -2.5891 -0.1716 -0.7712
  379MOL0     H50028  10.312   9.306   3.011  1.8896  0.5074  0.0963
  380MOL0     O50029   1.735   1.778   2.748 -0.1714  0.6981 -0.2009
  380MOL0     C50030   1.710   1.896   2.765 -0.1080  0.1828 -0.5693
  380MOL0     O50031   1.795   1.987   2.817 -0.5038 -0.1737 -1.1829
  380MOL0     C50032   1.931   1.951   2.844  0.0894 -0.0938 -0.4112
  380MOL0     C50033   2.039   2.011   2.778  0.1596 -0.0261  0.2920
  380MOL0     C50034   2.170   1.987   2.809 -0.1728 -0.6655 -0.3141
  380MOL0     C50035   2.200   1.886   2.903 -0.1850  0.2528 -0.0234
  380MOL0     O50036   2.328   1.839   2.926 -0.0324  0.4129 -0.0641
  380MOL0     C50037   2.437   1.877   2.833  0.2505 -0.2300 -0.9642
  380MOL0     C50038   2.571   1.819   2.876 -0.3361  0.0694 -0.5050
  380MOL0     C50039   2.600   1.676   2.820 -0.8421  0.0680 -0.6937
  380MOL0     C50040   2.744   1.626   2.878  0.0228 -0.4242  0.1441
  380MOL0     C50041   2.796   1.493   2.836  0.7949  0.8079  0.4787
  380MOL0     C50042   2.940   1.479   2.881  0.2507  0.3199 -0.7722
  380MOL0     C50043   3.000   1.343   2.859 -0.0043 -1.1728  0.3990
  380MOL0     C50044   3.155   1.332   2.880  0.4903  1.3587  0.2217
  380MOL0     N50045   3.215   1.199   2.853 -0.3270 -0.3973 -0.4181
  380MOL0     C50046   3.155   1.083   2.875  0.3400 -0.6191 -0.0726
  380MOL0     C50047   3.244   0.993   2.832  0.8835  0.1826  1.0220
  380MOL0     C50048   3.234   0.839   2.846 -0.2509 -0.1521 -0.1571
  380MOL0     C50049   3.336   0.799   2.941  0.2317  1.1089 -0.0247
  380MOL0     C50050   3.395   0.663   2.917 -0.2871 -0.7437 -0.9580
  380MOL0     C50051   3.472   0.619   3.040 -0.0193 -0.1324  0.3570
  380MOL0     O50052   3.382   0.547   3.129  0.0226 -1.1153  0.0536
  380MOL0     C50053   3.432   0.486   3.240 -0.2376 -0.1757 -0.3746
  380MOL0     C50054   3.576   0.480   3.281  0.3828 -0.7644 -0.3433
  380MOL0     C50055   3.611   0.426   3.409  0.0490 -1.0778  0.3881
  380MOL0     C50056   3.511   0.375   3.493 -0.2714  0.5284  0.1755
  380MOL0     C50057   3.551   0.294   3.603 -0.1223 -0.1922 -0.5252
  380MOL0     O50058   3.679   0.223   3.608  0.8625  0.0889 -0.4647
  380MOL0     C50059   3.719   0.160   3.720 -0.3435 -1.0705 -1.1397
  380MOL0     C50060   3.789   0.040   3.703 -0.0268 -0.3047 -0.4709
  380MOL0     C50061   3.831  -0.033   3.813  0.3947  0.8603 -0.4967
  380MOL0     C50062   3.807   0.003   3.941  0.4604 -0.0724 -0.3525
  380MOL0     O50063   3.839  -0.089   4.036 -0.2906 -0.2558 -0.2471
  380MOL0     C50064   3.794  -0.050   4.172  0.6017  0.2776 -0.2781
  380MOL0     C50065   3.817  -0.160   4.269  1.0680 -0.3859 -0.4958
  380MOL0     C50066   3.754  -0.120   4.402 -0.0070 -0.0171 -0.5903
  380MOL0     C50067   3.789  -0.238   4.494 -0.0777 -0.9713 -0.2650
  380MOL0     C50068   3.678  -0.262   4.598  0.3843 -0.6961  0.2576
  380MOL0     C50069   3.673  -0.407   4.643 -0.0243 -0.1272 -0.3443
  380MOL0     C50070   3.578  -0.425   4.759  0.7646  0.1421  0.9916
  380MOL0     C50071   3.551  -0.577   4.770 -1.3981 -0.0192  0.3455
  380MOL0    Cl50072   3.692  -0.636   4.859 -0.2514  0.1786  0.2326
  380MOL0     C50073   3.741   0.127   3.958 -1.4486 -0.2237  0.6327
  380MOL0     C50074   3.709   0.208   3.850  0.8493 -0.9769  0.1546
  380MOL0     O50075   3.466   0.287   3.698  0.0199 -0.3176  0.1500
  380MOL0     C50076   3.376   0.379   3.450 -0.2060  0.1232  0.8471
  380MOL0     C50077   3.347   0.432   3.327  0.3843  0.2153 -0.3094
  380MOL0     N50078   3.338   1.050   2.755  0.5969 -0.2100  0.4913
  380MOL0     N50079   3.327   1.181   2.776  0.6007 -0.3070  0.7154
  380MOL0     C50080   2.100   1.812   2.966  0.2393  0.3006 -0.0129
  380MOL0     C50081   1.968   1.845   2.937 -0.1132 -0.1118 -0.2649
  380MOL0     C50082   1.567   1.939   2.746 -0.2499 -0.2144  0.1374
  380MOL0     C50083   1.470   1.839   2.781 -0.3296  0.0682  0.3342
  380MOL0     C50084   1.333   1.874   2.766  0.2256  0.3104 -0.4776
  380MOL0     C50085   1.288   2.001   2.731  0.6899 -0.7130  0.5990
  380MOL0     O50086   1.154   2.034   2.741 -0.4599  0.1699 -0.2910
  380MOL0     C50087   1.097   2.115   2.643 -0.1162  0.0809  0.6596
  380MOL0     C50088   0.956   2.074   2.603 -0.8793  0.7847 -0.8087
  380MOL0     C50089   0.920   2.171   2.484  0.4363  0.0613  0.1826
  380MOL0     C50090   0.784   2.142   2.427 -0.5520 -0.0922  0.6924
  380MOL0     C50091   0.761   2.164   2.287  0.3397 -0.8408 -0.2812
  380MOL0     C50092   0.757   2.173   2.165 -1.2477  0.5999  0.2012
  380MOL0     C50093   1.390   2.096   2.712 -1.3105  0.2981 -0.0578
  380MOL0     C50094   1.525   2.066   2.713 -0.5041 -1.4681  0.2906
  380MOL0     H50095   2.017   2.089   2.706 -0.0438 -3.2242 -3.4432
  380MOL0     H50096   2.241   2.052   2.759 -0.6131  1.9333  2.1241
  380MOL0     H50097   2.451   1.984   2.847  1.1108 -0.2176 -1.8358
  380MOL0     H50098   2.418   1.842   2.732 -0.4918  3.0426 -2.0678
  380MOL0     H50099   2.560   1.810   2.985  0.3375 -1.3097 -0.5237
  380MOL0     H50100   2.647   1.890   2.841 -1.2971  0.6906 -1.3680
  380MOL0     H50101   2.614   1.687   2.712 -1.6172 -0.1031 -0.8235
  380MOL0     H50102   2.523   1.598   2.831 -1.6596  0.5859 -2.3900
  380MOL0     H50103   2.807   1.707   2.841  0.2705 -0.3732  0.6610
  380MOL0     H50104   2.762   1.627   2.986  0.0337  0.0583  0.1391
  380MOL0     H50105   2.779   1.458   2.733  1.9015 -1.1670  0.9208
  380MOL0     H50106   2.731   1.430   2.898 -1.4634  0.2084 -2.2504
  380MOL0     H50107   2.956   1.503   2.986  0.1882 -4.4137  0.5137
  380MOL0     H50108   3.004   1.546   2.822 -1.0837  1.9843 -0.4001
  380MOL0     H50109   2.942   1.282   2.929 -2.5116  0.5358 -0.0406
  380MOL0     H50110   2.973   1.322   2.755 -1.6851 -0.0381  0.5574
  380MOL0     H50111   3.164   1.360   2.986  1.9002 -0.4959  0.6458
  380MOL0     H50112   3.208   1.407   2.821  2.0256  1.6740  1.9133
  380MOL0     H50113   3.060   1.065   2.925  0.9774  1.5611  2.1701
  380MOL0     H50114   3.254   0.788   2.751  0.6792 -1.0251  0.4949
  380MOL0     H50115   3.136   0.809   2.884  1.2851 -1.4584  3.0683
  380MOL0     H50116   3.291   0.834   3.034 -2.2394  3.3769 -1.9253
  380MOL0     H50117   3.423   0.865   2.946  0.1574  1.4393 -2.2204
  380MOL0     H50118   3.315   0.593   2.895 -2.4750  1.9935 -2.3853
  380MOL0     H50119   3.462   0.670   2.831 -1.0556  0.2850 -1.5012
  380MOL0     H50120   3.522   0.699   3.095  0.0614  0.3692 -0.4416
  380MOL0     H50121   3.554   0.555   3.007  0.5571 -0.2971  1.9792
  380MOL0     H50122   3.648   0.538   3.223  0.5331  1.6752  2.0716
  380MOL0     H50123   3.716   0.442   3.430 -0.4511  4.1144  0.4373
  380MOL0     H50124   3.823   0.001   3.608  1.9123 -1.9704  0.8385
  380MOL0     H50125   3.883  -0.124   3.786  0.4222  1.6315 -3.4255
  380MOL0     H50126   3.687  -0.029   4.165  0.2453 -0.2538  2.2965
  380MOL0     H50127   3.834   0.045   4.207  0.3727  0.2059  0.1898
  380MOL0     H50128   3.919  -0.199   4.276  0.4965 -2.1292 -1.1443
  380MOL0     H50129   3.770  -0.252   4.233 -0.0779  0.8847 -2.3967
  380MOL0     H50130   3.648  -0.099   4.390 -0.2682 -1.5558 -1.1723
  380MOL0     H50131   3.807  -0.030   4.433  0.3607 -0.3611 -0.2062
  380MOL0     H50132   3.812  -0.333   4.445  2.6787 -0.9310  0.7752
  380MOL0     H50133   3.884  -0.214   4.543  0.1819 -1.4271 -0.5367
  380MOL0     H50134   3.579  -0.233   4.561 -0.4119 -2.6080  0.7534
  380MOL0     H50135   3.701  -0.194   4.681  0.7575  0.2528 -0.6079
  380MOL0     H50136   3.766  -0.451   4.681  1.0652  1.3456 -1.2240
  380MOL0     H50137   3.642  -0.462   4.554 -0.2168 -1.7508  0.6775
  380MOL0     H50138   3.610  -0.379   4.853  1.3596  1.4324  0.1822
  380MOL0     H50139   3.483  -0.382   4.725 -0.0294 -1.6034  0.8857
  380MOL0     H50140   3.529  -0.629   4.676  1.9624  1.7391 -1.5958
  380MOL0     H50141   3.462  -0.601   4.831  0.0815 -0.2446  2.5334
  380MOL0     H50142   3.714   0.172   4.054 -0.0198 -1.6031  1.7311
  380MOL0     H50143   3.664   0.305   3.868  3.6673  0.2454  1.2032
  380MOL0     H50144   3.299   0.340   3.516 -2.4818  0.7953 -1.2936
  380MOL0     H50145   3.246   0.446   3.289  1.0850 -1.0748 -2.8597
  380MOL0     H50146   2.124   1.732   3.035  1.5537  0.0768 -0.7099
  380MOL0     H50147   1.892   1.785   2.987  0.2410  0.7231  1.3209
  380MOL0     H50148   1.474   1.739   2.822 -1.9441  0.5318  1.7070
  380MOL0     H50149   1.265   1.796   2.799 -0.2136  0.0297 -1.9748
  380MOL0     H50150   1.160   2.114   2.553 -0.5192  2.3286  0.2873
  380MOL0     H50151   1.080   2.213   2.689 -2.6702 -0.9161  2.0407
  380MOL0     H50152   0.952   1.967   2.581 -1.2225  0.4230  0.9081
  380MOL0     H50153   0.880   2.089   2.680 -2.4895  1.3103 -2.4205
  380MOL0     H50154   0.998   2.150   2.410  1.5525 -0.0606  1.3756
  380MOL0     H50155   0.925   2.276   2.512 -2.6264  0.8627 -1.7029
  380MOL0     H50156   0.768   2.034   2.439 -3.2208  0.0993 -0.3968
  380MOL0     H50157   0.704   2.195   2.480  0.0101  0.1682  1.2848
  380MOL0     H50158   0.763   2.184   2.058  1.8156  0.9339  0.3053
  380MOL0     H50159   1.359   2.197   2.688 -0.8124  0.1405 -1.4508
  380MOL0     H50160   1.597   2.147   2.704 -0.0736 -1.9562 -0.9714
  381MOL0     O50161   0.808   5.467   9.194  0.4825  0.1608  0.3751
  381MOL0     C50162   0.782   5.529   9.095 -0.3247  1.1039  0.3304
  381MOL0     O50163   0.839   5.648   9.054  0.8485 -0.3195  0.5482
  381MOL0     C50164   0.931   5.719   9.126 -0.7649 -0.3472  0.0927
  381MOL0     C50165   1.030   5.649   9.187 -0.7018 -0.2158 -0.1457
  381MOL0     C50166   1.144   5.716   9.229 -0.5414 -0.8414 -0.7254
  381MOL0     C50167   1.155   5.857   9.224 -0.2491 -0.2076 -0.1856
  381MOL0     O50168   1.266   5.929   9.280  0.3407  0.4108 -0.0117
  381MOL0     C50169   1.387   5.888   9.229  0.2677  0.0343 -0.2109
  381MOL0     C50170   1.480   5.940   9.329  0.6596  0.3179  0.5420
  381MOL0     C50171   1.530   5.833   9.429 -0.1882  0.6668 -0.2928
  381MOL0     C50172   1.429   5.750   9.503 -0.2481 -0.1073 -1.0072
  381MOL0     C50173   1.328   5.828   9.592 -0.1067  0.4635 -0.2365
  381MOL0     C50174   1.391   5.947   9.671  0.0241  0.3272 -0.2955
  381MOL0     C50175   1.487   5.903   9.782  0.7451  0.2355 -0.5514
  381MOL0     C50176   1.565   6.008   9.851 -0.1309 -0.2266  0.2271
  381MOL0     N50177   1.476   6.079   9.946 -0.2866 -0.1473 -0.9680
  381MOL0     C50178   1.430   6.206   9.934  0.2914 -0.8799  0.4922
  381MOL0     C50179   1.375   6.229  10.055 -0.3006 -0.4441  0.4574
  381MOL0     C50180   1.299   6.345  10.106 -0.8431 -0.3461 -0.3156
  381MOL0     C50181   1.369   6.483  10.121  0.6831  1.0909 -0.1093
  381MOL0     C50182   1.454   6.492  10.255  0.5517 -0.2213  0.1434
  381MOL0     C50183   1.547   6.617  10.257  0.1529 -0.2057 -1.0313
  381MOL0     O50184   1.551   6.648  10.400 -0.2577  0.9295  0.0415
  381MOL0     C50185   1.631   6.757  10.436  0.5630  0.8423 -0.7397
  381MOL0     C50186   1.648   6.784  10.566 -0.0060 -0.2891 -0.0965
  381MOL0     C50187   1.745   6.882  10.610 -0.3171  1.0425  0.1965
  381MOL0     C50188   1.823   6.955  10.522 -0.3711 -0.2343 -0.5124
  381MOL0     C50189   1.910   7.062  10.572  0.0093  0.3640  0.6225
  381MOL0     O50190   1.890   7.100  10.699 -0.4752 -0.0006 -0.1918
  381MOL0     C50191   1.965   7.198  10.755  0.2357  0.2071  0.2013
  381MOL0     C50192   2.109   7.234  10.738  1.6293 -0.4512  0.0903
  381MOL0     C50193   2.171   7.335  10.797 -0.1114  0.0616  1.4138
  381MOL0     C50194   2.099   7.406  10.893  0.7861 -0.2313  0.4472
  381MOL0     O50195   2.161   7.511  10.948  0.1816 -0.9209  0.3035
  381MOL0     C50196   2.101   7.641  10.928  0.6967  0.5706  0.0292
  381MOL0     C50197   2.207   7.757  10.930  0.4266 -0.6824 -0.3072
  381MOL0     C50198   2.260   7.785  11.075 -0.3395 -0.3958 -0.1926
  381MOL0     C50199   2.146   7.868  11.151 -0.6844 -0.3210  0.1673
  381MOL0     C50200   2.159   7.855  11.309  0.3639 -0.4996  0.6951
  381MOL0     C50201   2.048   7.919  11.392 -0.4373 -1.1647 -1.0438
  381MOL0     C50202   2.086   7.874  11.545 -0.8435  0.5136 -0.2170
  381MOL0     C50203   2.088   7.995  11.638 -0.1259  0.8628  0.8348
  381MOL0    Cl50204   2.141   7.963  11.806  0.2412 -0.1564  0.3486
  381MOL0     C50205   1.963   7.368  10.923 -1.4239 -0.0527 -0.9848
  381MOL0     C50206   1.903   7.268  10.862  0.2076  1.7120  0.1959
  381MOL0     O50207   1.984   7.118  10.489  0.0441 -0.9623 -0.2405
  381MOL0     C50208   1.813   6.920  10.385 -0.6885 -0.0493 -0.0059
  381MOL0     C50209   1.717   6.828  10.345 -0.0236 -0.3987 -1.1738
  381MOL0     N50210   1.391   6.120  10.141  0.6680 -0.0018 -0.4349
  381MOL0     N50211   1.446   6.032  10.073  0.1693  0.2785  0.5432
  381MOL0     C50212   1.057   5.933   9.161 -0.3509  0.3442  0.1156
  381MOL0     C50213   0.948   5.864   9.108 -1.4887 -0.2991 -0.0556
  381MOL0     C50214   0.705   5.483   8.983 -0.3504  0.2086 -0.1921
  381MOL0     C50215   0.607   5.571   8.935  0.4551 -0.3687 -0.2357
  381MOL0     C50216   0.530   5.541   8.813 -0.2008 -0.1989  0.0831
  381MOL0     C50217   0.543   5.422   8.747  0.0950  0.5729 -0.3596
  381MOL0     O50218   0.450   5.398   8.643  0.4520 -0.5551 -0.3886
  381MOL0     C50219   0.429   5.260   8.593  0.2449 -0.6110 -0.3540
  381MOL0     C50220   0.331   5.236   8.480  0.7089 -0.2970  1.5553
  381MOL0     C50221   0.378   5.238   8.332 -0.8054 -0.6729 -0.8923
  381MOL0     C50222   0.272   5.211   8.234  0.0080 -0.3046 -0.0813
  381MOL0     C50223   0.186   5.332   8.223 -1.6866  0.7890 -0.3744
  381MOL0     C50224   0.109   5.425   8.202 -0.2729  1.0097  0.1289
  381MOL0     C50225   0.657   5.343   8.779  0.7465 -0.0545 -0.0184
  381MOL0     C50226   0.738   5.372   8.898  0.0910 -0.2357  0.9220
  381MOL0     H50227   1.026   5.541   9.183 -1.5681 -0.2205  0.6027
  381MOL0     H50228   1.220   5.662   9.285  1.1805 -0.6295 -2.7383
  381MOL0     H50229   1.406   5.944   9.137 -0.1047  2.4612  1.1030
  381MOL0     H50230   1.397   5.780   9.219 -1.1003 -0.5266  3.1049
  381MOL0     H50231   1.437   6.025   9.382  0.2123 -0.4605  1.4763
  381MOL0     H50232   1.570   5.966   9.274 -0.6299  2.8342 -0.5096
  381MOL0     H50233   1.604   5.869   9.501 -1.0353 -0.6693  1.3115
  381MOL0     H50234   1.589   5.758   9.377  0.8456  1.2824 -0.0288
  381MOL0     H50235   1.369   5.693   9.431 -1.7889 -0.4105  0.4372
  381MOL0     H50236   1.479   5.677   9.567  0.4384  0.2188 -1.1657
  381MOL0     H50237   1.298   5.761   9.673  2.0779  1.7254  1.7478
  381MOL0     H50238   1.252   5.874   9.528  1.7444  2.8275 -0.9039
  381MOL0     H50239   1.306   5.997   9.719 -0.9172  0.3371 -1.9140
  381MOL0     H50240   1.437   6.017   9.601  3.2894  0.1857  1.5141
  381MOL0     H50241   1.432   5.837   9.850 -0.3601  0.9557 -0.7262
  381MOL0     H50242   1.560   5.842   9.727  1.8147 -0.2506  1.3176
  381MOL0     H50243   1.607   6.077   9.777  0.5283  0.5459  1.2798
  381MOL0     H50244   1.644   5.969   9.916 -0.5467  1.1712  1.6392
  381MOL0     H50245   1.436   6.285   9.860  1.0672  2.0445  3.4662
  381MOL0     H50246   1.248   6.321  10.199 -0.6679 -2.3001 -0.6744
  381MOL0     H50247   1.219   6.354  10.032  0.7956 -1.7053 -2.3692
  381MOL0     H50248   1.281   6.548  10.122 -1.3840 -1.5353  0.2787
  381MOL0     H50249   1.440   6.488  10.038 -1.0314 -1.0876 -1.8283
  381MOL0     H50250   1.388   6.502  10.342  1.3716 -0.2167  0.7689
  381MOL0     H50251   1.511   6.401  10.276  1.2468  0.5007  1.4673
  381MOL0     H50252   1.507   6.709  10.215  3.8932  1.7012 -0.8449
  381MOL0     H50253   1.639   6.596  10.201  1.4812 -2.5846  1.7147
  381MOL0     H50254   1.604   6.726  10.647 -0.0642 -1.8591 -1.2169
  381MOL0     H50255   1.757   6.886  10.717 -0.0964  2.8660  0.1314
  381MOL0     H50256   2.170   7.179  10.666  1.9422  0.0795 -0.0544
  381MOL0     H50257   2.275   7.353  10.772  0.9713 -2.3343  3.6982
  381MOL0     H50258   2.022   7.654  11.003 -0.4653 -2.6966 -0.4809
  381MOL0     H50259   2.053   7.638  10.830 -1.5169 -3.7972  0.9560
  381MOL0     H50260   2.161   7.848  10.891 -0.7605 -1.4135 -0.6369
  381MOL0     H50261   2.290   7.727  10.865  0.9194 -1.6634  0.7317
  381MOL0     H50262   2.354   7.841  11.077  0.7002 -2.0220 -1.4695
  381MOL0     H50263   2.268   7.693  11.134  3.1419 -1.2697 -1.8077
  381MOL0     H50264   2.143   7.974  11.123  3.4184 -0.0816  0.0278
  381MOL0     H50265   2.050   7.822  11.127 -0.8455 -0.6137  1.2851
  381MOL0     H50266   2.256   7.891  11.344 -0.0190  1.1400  0.1487
  381MOL0     H50267   2.173   7.746  11.318  0.3645 -0.6233 -0.6482
  381MOL0     H50268   1.954   7.874  11.360 -0.3248 -2.8081  0.7778
  381MOL0     H50269   2.056   8.029  11.389  0.4096 -1.1058  1.4423
  381MOL0     H50270   2.010   7.805  11.584  0.9661 -0.2063  2.2802
  381MOL0     H50271   2.185   7.829  11.549 -1.1029 -0.0140  3.0625
  381MOL0     H50272   1.983   8.025  11.634 -0.1472  0.6666 -0.7772
  381MOL0     H50273   2.157   8.068  11.595 -1.5583  3.9864  3.3950
  381MOL0     H50274   1.912   7.427  10.999 -1.2028 -0.7000 -0.3246
  381MOL0     H50275   1.801   7.236  10.881  0.1765  1.2109 -0.7585
  381MOL0     H50276   1.880   6.969  10.314 -1.7274 -1.0304 -1.7383
  381MOL0     H50277   1.709   6.820  10.237 -2.5248 -0.5688 -1.0488
  381MOL0     H50278   1.067   6.040   9.148  0.5847 -0.0808 -3.9121
  381MOL0     H50279   0.869   5.923   9.065 -1.8476 -1.3028 -0.8039
  381MOL0     H50280   0.588   5.659   8.996 -0.1656 -0.5136 -0.2096
  381MOL0     H50281   0.454   5.613   8.783  0.5223  0.1659 -0.9137
  381MOL0     H50282   0.380   5.201   8.671 -0.0686 -0.7553 -0.6592
  381MOL0     H50283   0.527   5.220   8.563  1.0829  1.9796 -1.2775
  381MOL0     H50284   0.285   5.137   8.492  0.7746 -0.1871  2.8390
  381MOL0     H50285   0.265   5.324   8.484 -0.3418 -0.9353 -0.2936
  381MOL0     H50286   0.462   5.170   8.321  0.7385  1.3854 -2.6386
  381MOL0     H50287   0.414   5.338   8.306 -2.4893 -0.3063 -1.9661
  381MOL0     H50288   0.319   5.188   8.138 -0.6889  0.8557 -0.7164
  381MOL0     H50289   0.206   5.128   8.263  2.3441 -2.1744  0.2557
  381MOL0     H50290   0.025   5.491   8.193 -1.9820 -0.7982  1.6882
  381MOL0     H50291   0.666   5.249   8.726 -3.3991 -2.1602  2.4862
  381MOL0     H50292   0.815   5.301   8.926 -2.3869 -2.9666  1.2733
  382MOL0     O50293   3.310   4.571   8.249 -0.3334  0.2117  0.2494
  382MOL0     C50294   3.231   4.664   8.263 -0.0100  0.1227  0.0969
  382MOL0     O50295   3.269   4.788   8.273  0.7887  0.1225 -0.0938
  382MOL0     C50296   3.394   4.839   8.251 -0.4432  0.8847  0.8049
  382MOL0     C50297   3.515   4.776   8.217 -0.5477  1.1273 -0.1711
  382MOL0     C50298   3.633   4.836   8.185  0.1002  0.9836  0.2028
  382MOL0     C50299   3.634   4.975   8.175 -0.1596 -0.4881 -0.6502
  382MOL0     O50300   3.746   5.052   8.142  0.0502 -0.2153 -0.2484
  382MOL0     C50301   3.859   4.991   8.075 -0.0871 -0.3145  0.4750
  382MOL0     C50302   3.932   5.104   8.003  0.5180 -0.0534 -0.3191
  382MOL0     C50303   4.077   5.058   7.987  0.3960  0.5615  0.7973
  382MOL0     C50304   4.154   5.140   7.876 -0.1338 -1.0355 -0.7017
  382MOL0     C50305   4.158   5.288   7.901  0.7955  0.2413  0.1048
  382MOL0     C50306   4.234   5.336   8.027 -0.7970  0.6230 -0.2064
  382MOL0     C50307   4.389   5.349   8.021 -0.1040 -0.6669  0.7722
  382MOL0     C50308   4.427   5.485   7.954 -0.3744  0.5226  0.3470
  382MOL0     N50309   4.550   5.483   7.883  0.1244  0.2082 -0.1785
  382MOL0     C50310   4.663   5.393   7.905  0.4210  0.0430  0.4854
  382MOL0     C50311   4.761   5.454   7.836 -0.4105 -0.5957 -0.3529
  382MOL0     C50312   4.907   5.440   7.868 -0.2924  0.5965 -0.1601
  382MOL0     C50313   4.956   5.563   7.942 -0.3580 -0.2918  0.7330
  382MOL0     C50314   4.877   5.585   8.072  0.5238 -0.2226  0.2829
  382MOL0     C50315   4.965   5.648   8.178  0.0142 -0.1312 -0.0873
  382MOL0     O50316   5.068   5.552   8.222  0.2980 -0.5666  0.7307
  382MOL0     C50317   5.168   5.604   8.298  0.6546 -0.7859 -0.9623
  382MOL0     C50318   5.277   5.526   8.327 -0.8389  0.5862 -0.5771
  382MOL0     C50319   5.394   5.570   8.379 -0.4590  0.3164 -0.4308
  382MOL0     C50320   5.412   5.702   8.412 -0.3633  0.0610 -1.0018
  382MOL0     C50321   5.541   5.765   8.451 -0.0388  0.4804 -0.7698
  382MOL0     O50322   5.566   5.892   8.420  0.2480 -0.0950 -0.1278
  382MOL0     C50323   5.668   5.966   8.466  0.1330 -0.0909 -0.2470
  382MOL0     C50324   5.693   5.973   8.607 -0.8455  0.5841  0.8273
  382MOL0     C50325   5.799   6.042   8.652 -0.2248 -1.1579  0.2414
  382MOL0     C50326   5.882   6.112   8.565  0.5472 -0.5016  0.5901
  382MOL0     O50327   5.988   6.185   8.612  0.0904 -0.0270 -0.1910
  382MOL0     C50328   6.117   6.147   8.563  0.3736  1.5901 -0.5409
  382MOL0     C50329   6.136   5.995   8.592 -1.2293  0.4490 -0.0957
  382MOL0     C50330   6.177   5.988   8.746 -0.6170  0.4088  0.2744
  382MOL0     C50331   6.306   6.055   8.780 -0.3610 -0.4802  0.1351
  382MOL0     C50332   6.386   5.976   8.886 -0.4943 -0.9366  0.8930
  382MOL0     C50333   6.505   6.065   8.952 -0.3738  0.7449  0.1807
  382MOL0     C50334   6.602   6.119   8.849 -0.0893  0.4242 -0.0989
  382MOL0     C50335   6.692   5.997   8.816  1.1341 -0.1711  1.1966
  382MOL0    Cl50336   6.833   6.028   8.697  0.3095 -0.1330  0.4189
  382MOL0     C50337   5.846   6.115   8.429 -0.3851  0.9815 -0.5115
  382MOL0     C50338   5.738   6.048   8.379 -0.1462  0.1940 -0.0603
  382MOL0     O50339   5.612   5.696   8.519  0.3448  0.2160 -0.2116
  382MOL0     C50340   5.303   5.791   8.398  0.4389  0.1540 -0.5199
  382MOL0     C50341   5.182   5.739   8.339 -0.2389 -0.8528 -0.0424
  382MOL0     N50342   4.714   5.570   7.785 -0.2305  0.6650 -0.2824
  382MOL0     N50343   4.592   5.586   7.800 -0.4515 -0.6914 -0.3289
  382MOL0     C50344   3.527   5.050   8.214  0.9596  0.4159  0.9167
  382MOL0     C50345   3.410   4.979   8.248 -0.2550  0.6890  0.6682
  382MOL0     C50346   3.096   4.630   8.293 -0.3465  0.7247 -0.4388
  382MOL0     C50347   2.993   4.724   8.290 -0.1351 -0.2907 -0.7257
  382MOL0     C50348   2.863   4.691   8.332  0.0117 -0.3845 -0.6796
  382MOL0     C50349   2.833   4.566   8.374  1.3582 -1.2965 -1.1168
  382MOL0     O50350   2.704   4.548   8.415 -0.7478  1.3456  0.0241
  382MOL0     C50351   2.606   4.531   8.312  0.7722  1.1463  0.0641
  382MOL0     C50352   2.547   4.389   8.316  0.2384  0.4677  0.4223
  382MOL0     C50353   2.450   4.365   8.193  0.2448  1.1274 -0.3894
  382MOL0     C50354   2.403   4.225   8.176 -0.5922  0.6928 -0.0180
  382MOL0     C50355   2.335   4.164   8.294  0.3978  0.5792  0.3896
  382MOL0     C50356   2.283   4.123   8.393 -0.2381  0.8849  0.4017
  382MOL0     C50357   2.924   4.467   8.364 -0.2089  0.7501 -0.9660
  382MOL0     C50358   3.061   4.493   8.332  0.5279 -1.2785 -0.4716
  382MOL0     H50359   3.525   4.668   8.220  2.9390  1.3408 -0.5078
  382MOL0     H50360   3.717   4.768   8.171  0.5204  1.3382  0.9831
  382MOL0     H50361   3.829   4.896   8.030 -2.6834 -0.2523  1.9088
  382MOL0     H50362   3.920   4.949   8.156 -0.5397 -1.8269  0.0752
  382MOL0     H50363   3.911   5.201   8.049 -0.4217 -1.2941  2.0534
  382MOL0     H50364   3.890   5.106   7.902 -1.3642 -0.4677  0.4166
  382MOL0     H50365   4.076   4.951   7.963  0.4229  0.5959  0.6402
  382MOL0     H50366   4.130   5.074   8.081  4.4149  2.2468 -1.5256
  382MOL0     H50367   4.256   5.104   7.858  0.8969  1.7806 -1.0918
  382MOL0     H50368   4.107   5.122   7.779  0.0257  1.6333 -1.3555
  382MOL0     H50369   4.056   5.327   7.902  2.2048  4.4944 -0.9277
  382MOL0     H50370   4.194   5.335   7.809 -2.2757  2.5515 -0.1009
  382MOL0     H50371   4.209   5.275   8.115 -0.3941 -0.1664 -0.6239
  382MOL0     H50372   4.193   5.433   8.056  1.6368  0.8398  3.0437
  382MOL0     H50373   4.431   5.326   8.119 -0.9931  0.6386  1.4986
  382MOL0     H50374   4.442   5.275   7.960 -2.5354 -0.2728 -2.0882
  382MOL0     H50375   4.411   5.563   8.029 -2.9887 -1.7912  2.4585
  382MOL0     H50376   4.366   5.505   7.866  1.9079 -0.5227 -1.6123
  382MOL0     H50377   4.674   5.305   7.967  1.3459  0.8592  1.5244
  382MOL0     H50378   4.977   5.431   7.784  0.2187 -1.4080  0.4223
  382MOL0     H50379   4.928   5.353   7.931 -0.1746  0.6532 -0.1195
  382MOL0     H50380   4.962   5.658   7.887  0.3589  0.8345  2.6501
  382MOL0     H50381   5.061   5.547   7.965 -0.8339 -1.7618  2.0509
  382MOL0     H50382   4.790   5.651   8.065  0.7160  0.1279  1.1292
  382MOL0     H50383   4.828   5.492   8.105 -0.6625  0.1149 -0.4468
  382MOL0     H50384   4.900   5.683   8.259  1.4884 -2.0407  2.0364
  382MOL0     H50385   5.011   5.724   8.114  0.5020  0.9316  1.4677
  382MOL0     H50386   5.262   5.420   8.311 -2.3468  0.7152 -0.2017
  382MOL0     H50387   5.465   5.492   8.404 -1.0916 -0.5575 -1.3010
  382MOL0     H50388   5.635   5.918   8.681 -0.0630 -0.3631  0.7532
  382MOL0     H50389   5.830   6.043   8.755 -1.4490  0.0492  0.6332
  382MOL0     H50390   6.204   6.204   8.596  2.0611 -1.1918  0.1774
  382MOL0     H50391   6.111   6.170   8.456  2.1513  1.6520 -0.6498
  382MOL0     H50392   6.215   5.971   8.521 -1.1138 -0.1594  0.2352
  382MOL0     H50393   6.056   5.931   8.555 -0.4477  0.6733 -2.3441
  382MOL0     H50394   6.190   5.881   8.766 -2.8575 -0.1347 -0.8832
  382MOL0     H50395   6.095   6.037   8.800 -0.5571  2.0247 -1.0185
  382MOL0     H50396   6.374   6.059   8.694  0.2711  3.2254  0.6606
  382MOL0     H50397   6.277   6.150   8.826  1.3986  0.2800 -0.2499
  382MOL0     H50398   6.417   5.881   8.842  2.1178  0.4435 -0.4864
  382MOL0     H50399   6.326   5.947   8.973  1.2673 -0.5628  2.2980
  382MOL0     H50400   6.544   5.996   9.027 -0.7781 -1.9933 -1.9657
  382MOL0     H50401   6.460   6.157   8.992  0.9829  1.3519  0.3533
  382MOL0     H50402   6.541   6.145   8.763 -0.2105 -2.0185 -0.8351
  382MOL0     H50403   6.667   6.197   8.889 -0.7366 -0.1053  2.1780
  382MOL0     H50404   6.631   5.911   8.785  1.2065 -0.3045  1.4232
  382MOL0     H50405   6.737   5.970   8.912  1.5088 -0.0277  1.0615
  382MOL0     H50406   5.901   6.184   8.366  0.8634  2.5455  2.1374
  382MOL0     H50407   5.704   6.057   8.276  1.1127  1.8021 -0.3793
  382MOL0     H50408   5.318   5.896   8.420  0.7170 -0.3755  2.1620
  382MOL0     H50409   5.107   5.809   8.305  0.4955  0.1712  0.4127
  382MOL0     H50410   3.518   5.158   8.219 -1.1983  0.3308  0.0425
  382MOL0     H50411   3.322   5.043   8.253  0.6808  2.1833 -0.7981
  382MOL0     H50412   3.014   4.826   8.259  0.2370 -0.7524 -2.0827
  382MOL0     H50413   2.787   4.767   8.315  1.5513  0.5976 -3.8952
  382MOL0     H50414   2.653   4.545   8.215  0.0442  3.8067  0.0169
  382MOL0     H50415   2.531   4.610   8.320 -1.2978 -0.8702  4.0118
  382MOL0     H50416   2.629   4.317   8.305 -1.7585 -1.6818 -1.3841
  382MOL0     H50417   2.495   4.362   8.409 -3.7723 -0.3182 -1.8433
  382MOL0     H50418   2.500   4.392   8.100 -0.2909  1.7176 -0.5217
  382MOL0     H50419   2.359   4.426   8.203 -1.4845 -1.2299 -0.8382
  382MOL0     H50420   2.341   4.223   8.086  1.7980  1.7958 -1.7808
  382MOL0     H50421   2.496   4.174   8.147 -1.2164  0.1260 -1.0942
  382MOL0     H50422   2.243   4.087   8.486 -1.5068  2.9311  0.7321
  382MOL0     H50423   2.895   4.364   8.379 -2.6001  1.3801 -0.8792
  382MOL0     H50424   3.138   4.417   8.328  1.6941 -0.2885  1.5445
  383MOL0     O50425   2.023   1.237   0.238 -0.3246  0.0620  0.5446
  383MOL0     C50426   2.062   1.334   0.177  1.0522 -0.3375  0.4082
  383MOL0     O50427   1.986   1.449   0.137 -0.3443  0.0908 -0.8485
  383MOL0     C50428   1.854   1.469   0.175 -0.2647 -0.7386 -0.2171
  383MOL0     C50429   1.761   1.385   0.249 -0.1647  0.3055 -0.4174
  383MOL0     C50430   1.629   1.421   0.264 -0.3215 -0.2473 -0.3307
  383MOL0     C50431   1.581   1.551   0.226  0.7216  0.1621  0.0236
  383MOL0     O50432   1.457   1.576   0.280 -0.7999  0.5605  0.1701
  383MOL0     C50433   1.444   1.691   0.362 -0.5006  0.1344 -0.5280
  383MOL0     C50434   1.494   1.656   0.511  0.0392  0.8323 -0.1739
  383MOL0     C50435   1.410   1.551   0.593 -0.0209  0.6419  0.1272
  383MOL0     C50436   1.493   1.470   0.695  0.6278  1.0164 -0.1740
  383MOL0     C50437   1.591   1.366   0.649  0.0801  0.9407  0.2373
  383MOL0     C50438   1.525   1.229   0.599  0.0168 -0.1154 -0.4689
  383MOL0     C50439   1.620   1.130   0.550  0.5643  0.1880 -0.2577
  383MOL0     C50440   1.552   1.009   0.471 -0.4031  0.2338  0.2998
  383MOL0     N50441   1.497   1.032   0.342  0.3697  0.2557 -0.7987
  383MOL0     C50442   1.370   1.004   0.303 -0.4805  0.2872 -0.3496
  383MOL0     C50443   1.368   1.019   0.169  0.1345 -0.8769  0.6670
  383MOL0     C50444   1.247   1.007   0.084  0.3544 -0.0520 -0.0041
  383MOL0     C50445   1.138   1.099   0.137  0.4382  0.4239 -0.6604
  383MOL0     C50446   1.168   1.235   0.086  0.5445 -0.0727 -0.2146
  383MOL0     C50447   1.277   1.327   0.143  0.6426  0.2776 -0.2896
  383MOL0     O50448   1.225   1.411   0.244  0.3552 -0.4125 -0.2290
  383MOL0     C50449   1.151   1.526   0.220  0.3955  0.9119 -0.4049
  383MOL0     C50450   1.133   1.579   0.095  0.0290 -0.8624 -0.0375
  383MOL0     C50451   1.040   1.683   0.081  0.0867  0.1702 -0.0362
  383MOL0     C50452   0.990   1.751   0.192 -0.7561 -0.2542 -0.4868
  383MOL0     C50453   0.896   1.862   0.171 -0.1749 -0.3513 -0.3663
  383MOL0     O50454   0.860   1.907   0.045  0.0070  0.3709  0.4473
  383MOL0     C50455   0.760   1.999   0.032 -0.6219  0.0343 -0.7316
  383MOL0     C50456   0.740   2.100   0.124 -0.4327 -0.3175 -0.1593
  383MOL0     C50457   0.636   2.196   0.110 -0.7625 -0.1094 -0.2617
  383MOL0     C50458   0.542   2.187   0.004 -0.3749  0.4923  0.3383
  383MOL0     O50459   0.444   2.287  -0.025 -0.2215 -0.0748 -0.0707
  383MOL0     C50460   0.399   2.378   0.079  0.1853  0.5390  0.5759
  383MOL0     C50461   0.299   2.482   0.031  0.5118 -0.0652 -0.1241
  383MOL0     C50462   0.181   2.435  -0.044  0.5827  0.4795 -0.2905
  383MOL0     C50463   0.080   2.554  -0.037  0.5022 -0.6476  0.2275
  383MOL0     C50464  -0.049   2.510  -0.103 -0.6185  0.4749  1.5349
  383MOL0     C50465  -0.154   2.622  -0.140 -0.7619 -0.4645 -0.2090
  383MOL0     C50466  -0.284   2.559  -0.185  0.7359  0.4470  0.2584
  383MOL0     C50467  -0.357   2.504  -0.064  0.0372  0.7077  0.6732
  383MOL0    Cl50468  -0.519   2.460  -0.116  0.0867  0.3321 -0.4151
  383MOL0     C50469   0.559   2.083  -0.091  0.2378  0.6054 -0.1243
  383MOL0     C50470   0.673   1.998  -0.083  0.0153  0.3860  0.0856
  383MOL0     O50471   0.822   1.872   0.272  0.3262  0.2753 -0.5361
  383MOL0     C50472   1.020   1.696   0.318  0.8772  0.5538 -0.9619
  383MOL0     C50473   1.096   1.583   0.333 -0.2024  0.8957 -0.6191
  383MOL0     N50474   1.495   1.062   0.126 -0.2056  0.3662  0.8430
  383MOL0     N50475   1.567   1.065   0.228  0.2790  1.4357 -0.1071
  383MOL0     C50476   1.663   1.637   0.148  0.2447  0.4652 -0.1574
  383MOL0     C50477   1.798   1.594   0.121 -0.4062 -0.0697  0.0234
  383MOL0     C50478   2.197   1.334   0.137  0.6497  0.5307 -0.1269
  383MOL0     C50479   2.252   1.442   0.068 -1.1509  0.9325 -0.0045
  383MOL0     C50480   2.381   1.440   0.023 -0.6817  0.7991  0.7052
  383MOL0     C50481   2.467   1.338   0.037 -0.9885 -0.0419 -1.0471
  383MOL0     O50482   2.592   1.359  -0.018  0.3590  0.2872  0.6814
  383MOL0     C50483   2.673   1.243  -0.031  0.5451  0.0666  0.4443
  383MOL0     C50484   2.787   1.277  -0.130 -0.0881 -0.2483  0.8053
  383MOL0     C50485   2.747   1.374  -0.245  0.5188 -0.0692  0.4472
  383MOL0     C50486   2.850   1.407  -0.354  1.1021  0.1106 -1.4357
  383MOL0     C50487   2.890   1.278  -0.410 -0.6133  0.3591 -0.5336
  383MOL0     C50488   2.916   1.170  -0.459 -0.5826  0.0582 -0.1925
  383MOL0     C50489   2.419   1.225   0.111  0.2084 -0.5105  1.0442
  383MOL0     C50490   2.289   1.223   0.152 -0.1180  0.7642  0.2194
  383MOL0     H50491   1.782   1.291   0.299  1.0070 -0.1122 -1.6240
  383MOL0     H50492   1.550   1.357   0.303  0.4866  0.7782  3.3592
  383MOL0     H50493   1.353   1.753   0.364 -0.8671 -0.4132  1.6282
  383MOL0     H50494   1.513   1.764   0.318 -1.9996  2.0601  0.1552
  383MOL0     H50495   1.501   1.739   0.581  2.1555 -0.6606  1.5076
  383MOL0     H50496   1.593   1.612   0.502 -0.0002  0.7339 -0.1264
  383MOL0     H50497   1.369   1.480   0.521  0.2008 -1.5493  2.0148
  383MOL0     H50498   1.335   1.606   0.651 -0.6532 -1.4261  1.3995
  383MOL0     H50499   1.541   1.554   0.745  1.6655  0.3179  0.0310
  383MOL0     H50500   1.420   1.427   0.765 -1.1941  2.4455 -1.1037
  383MOL0     H50501   1.666   1.337   0.723 -0.7881 -0.3374  0.6578
  383MOL0     H50502   1.648   1.408   0.566 -0.4051  0.7336 -0.2071
  383MOL0     H50503   1.456   1.250   0.517 -2.3346  1.2391  1.7370
  383MOL0     H50504   1.462   1.188   0.679 -0.4051 -1.2238 -1.3468
  383MOL0     H50505   1.668   1.173   0.462  1.6444 -3.2177 -1.4698
  383MOL0     H50506   1.681   1.076   0.623  1.0654 -0.5943 -1.2381
  383MOL0     H50507   1.481   0.954   0.533 -1.1746 -1.6087 -2.0574
  383MOL0     H50508   1.630   0.934   0.450 -0.0216 -0.2243  2.9726
  383MOL0     H50509   1.278   0.987   0.358  0.8672 -2.5643  1.2482
  383MOL0     H50510   1.209   0.905   0.090  0.0825  0.0027 -0.7051
  383MOL0     H50511   1.269   1.021  -0.022 -2.4832 -0.6723 -0.7672
  383MOL0     H50512   1.121   1.094   0.245 -2.9618 -0.8906 -1.1235
  383MOL0     H50513   1.043   1.065   0.094 -0.7755  2.0857  0.5306
  383MOL0     H50514   1.178   1.230  -0.023  1.0009 -0.2736 -0.1660
  383MOL0     H50515   1.076   1.291   0.104  0.9722  0.5503  0.0685
  383MOL0     H50516   1.323   1.393   0.068 -1.7542  2.3971 -0.0463
  383MOL0     H50517   1.355   1.271   0.195  2.1974 -0.6411 -3.3677
  383MOL0     H50518   1.169   1.531   0.005  0.6877  2.4309 -1.7154
  383MOL0     H50519   1.005   1.723  -0.014  0.8033 -0.1066 -0.4173
  383MOL0     H50520   0.804   2.113   0.211 -0.2996 -1.9793  0.0332
  383MOL0     H50521   0.623   2.279   0.178  0.5703 -2.0165  2.5387
  383MOL0     H50522   0.487   2.430   0.118  0.7947 -2.1192  3.1058
  383MOL0     H50523   0.352   2.321   0.159 -1.7746  0.5943 -0.4675
  383MOL0     H50524   0.346   2.554  -0.037  0.6829  0.8954  0.9802
  383MOL0     H50525   0.276   2.543   0.119  1.2040  1.9693 -1.2996
  383MOL0     H50526   0.142   2.349   0.012  2.8850 -0.7614 -0.4369
  383MOL0     H50527   0.201   2.397  -0.145 -4.3317  0.9487 -1.6924
  383MOL0     H50528   0.068   2.583   0.068  2.2853  1.4905 -0.1097
  383MOL0     H50529   0.140   2.634  -0.081  3.3170 -0.6353  3.6471
  383MOL0     H50530  -0.082   2.418  -0.053  1.0082 -0.5914  0.7375
  383MOL0     H50531  -0.017   2.470  -0.200 -0.9690  2.7242  0.4304
  383MOL0     H50532  -0.121   2.695  -0.214 -0.7891  0.3990  0.6099
  383MOL0     H50533  -0.171   2.679  -0.048  0.4383 -0.5805  0.1080
  383MOL0     H50534  -0.339   2.635  -0.241  3.0904  1.9031 -0.2084
  383MOL0     H50535  -0.267   2.472  -0.250  0.2604  0.3717  0.2253
  383MOL0     H50536  -0.358   2.578   0.017 -3.2616 -0.2178  1.6161
  383MOL0     H50537  -0.310   2.410  -0.034 -0.5912 -0.6913 -2.3144
  383MOL0     H50538   0.471   2.082  -0.155 -0.2154  2.8860  0.3893
  383MOL0     H50539   0.677   1.918  -0.156 -1.9703  0.2435  0.0982
  383MOL0     H50540   0.973   1.737   0.407  0.0676 -1.0030 -0.6204
  383MOL0     H50541   1.094   1.540   0.432 -3.2383 -0.2931 -1.0663
  383MOL0     H50542   1.633   1.734   0.112 -2.0587  0.1866  0.8182
  383MOL0     H50543   1.861   1.663   0.066 -0.9775  1.0292  0.7143
  383MOL0     H50544   2.187   1.526   0.048 -0.5420  2.1309  2.5405
  383MOL0     H50545   2.426   1.527  -0.023  0.9037  0.5950  1.8068
  383MOL0     H50546   2.614   1.172  -0.089  0.8901 -1.0779  1.4559
  383MOL0     H50547   2.715   1.207   0.063 -0.9258  1.8519  1.8635
  383MOL0     H50548   2.866   1.337  -0.083  0.5868  1.9762 -2.7859
  383MOL0     H50549   2.848   1.195  -0.168 -0.0004 -1.7229  3.8250
  383MOL0     H50550   2.702   1.468  -0.212  2.1242  1.7062 -2.0250
  383MOL0     H50551   2.672   1.326  -0.308  1.5840  0.2161 -1.1011
  383MOL0     H50552   2.800   1.471  -0.427  2.0862  0.8292 -1.5062
  383MOL0     H50553   2.925   1.472  -0.309 -1.2365  2.2002 -0.3200
  383MOL0     H50554   2.936   1.067  -0.483 -0.8318 -0.3675  1.2892
  383MOL0     H50555   2.489   1.143   0.125 -0.6016 -1.6261 -0.8648
  383MOL0     H50556   2.249   1.142   0.213 -1.7045  0.9961 -0.4643
  384MOL0     O50557   0.522   2.409   7.054  0.5619 -0.4427 -0.0567
  384MOL0     C50558   0.555   2.298   7.007 -0.2429 -0.0849 -0.6783
  384MOL0     O50559   0.650   2.280   6.917 -0.1238 -0.8594  0.1685
  384MOL0     C50560   0.727   2.379   6.865  0.3728  0.0195  0.6562
  384MOL0     C50561   0.690   2.517   6.850  0.0515  0.6376  1.0370
  384MOL0     C50562   0.781   2.604   6.799  0.3401 -0.8015  0.3551
  384MOL0     C50563   0.907   2.570   6.757 -0.3681 -0.2387 -0.5925
  384MOL0     O50564   0.981   2.658   6.695 -0.4279  0.3531  0.7590
  384MOL0     C50565   1.102   2.632   6.627 -0.1721  0.3415 -0.6524
  384MOL0     C50566   1.233   2.666   6.699 -0.2202 -0.2525 -0.1152
  384MOL0     C50567   1.363   2.652   6.614 -0.0558 -0.4611  0.1943
  384MOL0     C50568   1.486   2.684   6.692  0.3583 -0.1396  0.1489
  384MOL0     C50569   1.616   2.645   6.622  0.5754 -0.2821 -0.7297
  384MOL0     C50570   1.744   2.627   6.710  0.1229 -0.5509  0.1455
  384MOL0     C50571   1.747   2.508   6.793  0.2555  0.0963 -0.0804
  384MOL0     C50572   1.858   2.506   6.899  0.8228  0.3633  0.0815
  384MOL0     N50573   1.858   2.394   6.992 -0.1866 -0.6360 -0.0957
  384MOL0     C50574   1.826   2.405   7.129 -0.3206  1.2047  0.4398
  384MOL0     C50575   1.854   2.275   7.175  0.2513 -0.1840 -0.5490
  384MOL0     C50576   1.849   2.226   7.309  0.0047 -0.4963 -1.0468
  384MOL0     C50577   1.814   2.312   7.432 -0.4126  0.1313 -0.1655
  384MOL0     C50578   1.923   2.414   7.473 -0.7061 -1.0553 -0.3280
  384MOL0     C50579   1.877   2.488   7.605 -0.1844 -0.5825  0.2133
  384MOL0     O50580   1.872   2.396   7.714  0.0014 -0.7129 -0.0366
  384MOL0     C50581   1.847   2.448   7.846 -0.1870 -0.3759 -0.7331
  384MOL0     C50582   1.810   2.583   7.874 -1.3418  0.1474  0.6567
  384MOL0     C50583   1.827   2.636   8.003 -0.6580  0.6326  0.6264
  384MOL0     C50584   1.869   2.555   8.106 -0.6562 -0.5032 -1.5939
  384MOL0     C50585   1.900   2.618   8.238  0.1189  1.5286 -0.1387
  384MOL0     O50586   1.985   2.551   8.321  0.1951 -1.0525 -0.5424
  384MOL0     C50587   2.011   2.580   8.459  0.0599  0.6397 -0.5536
  384MOL0     C50588   2.122   2.516   8.521 -0.1446  0.0140 -0.2486
  384MOL0     C50589   2.138   2.523   8.659 -0.4382 -0.8155 -0.5645
  384MOL0     C50590   2.053   2.602   8.733  0.4484  0.4545  0.2396
  384MOL0     O50591   2.079   2.591   8.867  0.5836  0.1701  1.0577
  384MOL0     C50592   1.971   2.635   8.947  0.6541  0.7395 -0.5244
  384MOL0     C50593   1.997   2.784   9.000 -0.6170 -0.1968 -0.1623
  384MOL0     C50594   2.125   2.798   9.086  0.0992 -1.3139  0.3847
  384MOL0     C50595   2.121   2.936   9.145  0.2422  0.3106  0.8700
  384MOL0     C50596   2.232   2.938   9.248 -0.1359  1.1405  0.1238
  384MOL0     C50597   2.251   3.076   9.319  0.5326 -0.4370 -0.7988
  384MOL0     C50598   2.132   3.136   9.386  0.3442  0.2446 -0.8220
  384MOL0     C50599   2.045   3.045   9.473  0.2166  0.0364  0.3738
  384MOL0    Cl50600   1.898   3.131   9.504 -0.2936  0.1442  1.0163
  384MOL0     C50601   1.946   2.674   8.674 -0.5842 -0.2384  0.5838
  384MOL0     C50602   1.923   2.661   8.539 -0.7760 -1.0945  0.8029
  384MOL0     O50603   1.840   2.724   8.263 -0.1352 -0.5194  0.5684
  384MOL0     C50604   1.893   2.412   8.087  0.5935 -0.4540  0.9211
  384MOL0     C50605   1.879   2.364   7.955  0.0068  0.1813 -0.4494
  384MOL0     N50606   1.898   2.196   7.064  0.3439  0.5232 -0.9060
  384MOL0     N50607   1.913   2.278   6.960  0.7252 -0.3910 -0.5479
  384MOL0     C50608   0.946   2.443   6.774 -0.4047 -0.7266  0.2112
  384MOL0     C50609   0.862   2.350   6.837  0.4214 -0.7525 -0.0027
  384MOL0     C50610   0.488   2.184   7.061 -0.9503 -0.5832 -0.6354
  384MOL0     C50611   0.381   2.202   7.156 -1.3602 -0.5244 -0.0422
  384MOL0     C50612   0.332   2.094   7.223  0.2639  1.8250 -0.1603
  384MOL0     C50613   0.389   1.965   7.203  0.0501  0.0484 -0.1055
  384MOL0     O50614   0.381   1.856   7.289 -0.8662  0.0170  0.9546
  384MOL0     C50615   0.360   1.888   7.431 -0.1620  0.0186 -0.1157
  384MOL0     C50616   0.416   1.786   7.510  0.0793  0.2349 -0.4537
  384MOL0     C50617   0.359   1.645   7.492  0.0626 -0.3404  0.6031
  384MOL0     C50618   0.439   1.533   7.553 -1.1119 -0.2034 -0.6038
  384MOL0     C50619   0.377   1.398   7.548 -0.7845 -1.0403  0.2369
  384MOL0     C50620   0.328   1.284   7.538 -0.5168  0.1603 -0.0699
  384MOL0     C50621   0.473   1.939   7.100  0.5204 -0.3166  0.1447
  384MOL0     C50622   0.523   2.050   7.029  0.2487 -0.4569 -0.6354
  384MOL0     H50623   0.588   2.550   6.865 -1.8109 -1.0689 -4.9201
  384MOL0     H50624   0.748   2.707   6.784  1.4744 -0.5429 -0.6031
  384MOL0     H50625   1.096   2.680   6.529 -1.9565 -0.8963 -1.1992
  384MOL0     H50626   1.105   2.523   6.613 -0.3291  0.5699 -2.8602
  384MOL0     H50627   1.243   2.617   6.796  0.1937  2.7507  1.4737
  384MOL0     H50628   1.229   2.774   6.713  2.4280 -0.0812 -0.3162
  384MOL0     H50629   1.370   2.721   6.529 -0.5471  2.3350  2.3038
  384MOL0     H50630   1.372   2.548   6.581  0.0646 -0.1319 -0.8640
  384MOL0     H50631   1.491   2.786   6.730  4.3654 -1.0643  2.8012
  384MOL0     H50632   1.485   2.635   6.790  0.9121 -2.4695 -0.9156
  384MOL0     H50633   1.635   2.711   6.537 -0.3232 -1.7177 -2.1173
  384MOL0     H50634   1.596   2.556   6.561 -0.6375  0.0292 -0.8102
  384MOL0     H50635   1.752   2.712   6.778 -0.6982  0.6586 -1.2094
  384MOL0     H50636   1.834   2.637   6.648  0.1728  0.5534  0.3857
  384MOL0     H50637   1.655   2.481   6.846  0.9436 -1.5105  0.3877
  384MOL0     H50638   1.768   2.422   6.728 -0.4928 -0.4788  0.4159
  384MOL0     H50639   1.840   2.592   6.964  1.4315  0.4245  0.1703
  384MOL0     H50640   1.952   2.499   6.844  0.8974  1.4775  0.0483
  384MOL0     H50641   1.792   2.492   7.185 -2.7089  1.5291 -1.3172
  384MOL0     H50642   1.942   2.176   7.335 -0.5042 -0.5432  0.8507
  384MOL0     H50643   1.768   2.154   7.323 -0.9817  1.2118  4.8841
  384MOL0     H50644   1.810   2.247   7.520  0.0548  0.0351 -0.2138
  384MOL0     H50645   1.720   2.366   7.424 -0.3984  0.4250  1.2830
  384MOL0     H50646   2.020   2.369   7.499  0.4934  0.8408 -1.3075
  384MOL0     H50647   1.932   2.477   7.384  0.3390 -2.2125 -1.0757
  384MOL0     H50648   1.794   2.546   7.563  0.7718  2.8356  2.5941
  384MOL0     H50649   1.943   2.573   7.627 -2.1023  1.1272 -0.3166
  384MOL0     H50650   1.771   2.650   7.798 -0.3059  0.6828  0.5833
  384MOL0     H50651   1.793   2.737   8.023  0.5353  0.9204  1.2360
  384MOL0     H50652   2.175   2.462   8.443 -2.7613  2.1878 -3.8489
  384MOL0     H50653   2.203   2.468   8.726  0.4703  0.2025 -0.5885
  384MOL0     H50654   1.968   2.570   9.035 -0.3324 -0.1014 -1.1564
  384MOL0     H50655   1.868   2.612   8.917 -0.4455  0.7797  2.7520
  384MOL0     H50656   1.907   2.817   9.051  0.4780 -0.5067  2.1047
  384MOL0     H50657   2.007   2.857   8.919 -0.3757  0.4115  0.4088
  384MOL0     H50658   2.218   2.781   9.031 -2.3656  0.1261 -4.8907
  384MOL0     H50659   2.113   2.726   9.167  0.0983 -2.0369 -0.2539
  384MOL0     H50660   2.150   3.014   9.075 -1.6888  0.5947  0.3138
  384MOL0     H50661   2.022   2.965   9.181 -0.7974 -2.5621  0.6094
  384MOL0     H50662   2.329   2.927   9.200 -0.3132  1.0738 -0.2273
  384MOL0     H50663   2.214   2.862   9.324  0.4055  2.5358  1.7090
  384MOL0     H50664   2.291   3.157   9.258  2.5779  0.8825  2.0281
  384MOL0     H50665   2.328   3.056   9.394 -1.0246 -2.9859  0.2626
  384MOL0     H50666   2.159   3.228   9.438 -1.3477  0.6659 -0.6489
  384MOL0     H50667   2.068   3.154   9.300 -1.0318  1.3942  0.3870
  384MOL0     H50668   2.081   3.020   9.573  0.1688 -0.0027  0.3817
  384MOL0     H50669   2.017   2.953   9.421  2.7814 -1.2548  1.1166
  384MOL0     H50670   1.880   2.736   8.733 -0.1097  0.3729  0.4742
  384MOL0     H50671   1.835   2.709   8.497  1.3351  1.1121 -1.4099
  384MOL0     H50672   1.903   2.346   8.173  0.0397 -1.3634  0.3003
  384MOL0     H50673   1.919   2.266   7.928  2.8170  1.5486 -1.6607
  384MOL0     H50674   1.044   2.400   6.753 -0.1308  0.1665 -0.3996
  384MOL0     H50675   0.889   2.246   6.850 -2.8864 -1.5711  1.2456
  384MOL0     H50676   0.362   2.305   7.185  0.0207  0.0519 -1.0708
  384MOL0     H50677   0.275   2.119   7.311  2.8127  1.6206  1.6591
  384MOL0     H50678   0.251   1.882   7.440 -0.0381  0.1714  1.8735
  384MOL0     H50679   0.399   1.983   7.469  2.1792 -0.8079 -0.2743
  384MOL0     H50680   0.523   1.783   7.487 -0.0697  0.0252 -1.1639
  384MOL0     H50681   0.404   1.809   7.616 -2.5907 -2.0113 -0.1399
  384MOL0     H50682   0.362   1.625   7.384  2.2799  4.3281 -0.4835
  384MOL0     H50683   0.256   1.637   7.527 -1.3042  2.3447 -2.2594
  384MOL0     H50684   0.534   1.532   7.498 -0.1548  2.1623  0.8493
  384MOL0     H50685   0.466   1.561   7.655  1.2538 -0.2757 -1.1544
  384MOL0     H50686   0.309   1.179   7.537  4.9978 -1.3256  3.4638
  384MOL0     H50687   0.508   1.839   7.077  1.5948 -0.2206  1.2710
  384MOL0     H50688   0.589   2.038   6.944 -0.7970  0.2270 -1.5605
  385MOL0     O50689   6.137   5.219   2.988  0.1461  0.0987  0.8193
  385MOL0     C50690   6.225   5.220   2.906  0.2181 -0.5538 -0.5013
  385MOL0     O50691   6.259   5.323   2.827 -0.3856 -0.3039 -0.0030
  385MOL0     C50692   6.224   5.446   2.866  0.1391  0.0406  0.7745
  385MOL0     C50693   6.204   5.483   3.003  1.0235  0.0398 -1.3712
  385MOL0     C50694   6.162   5.611   3.036  0.2932  0.0305 -0.8319
  385MOL0     C50695   6.124   5.699   2.937  0.0328  1.0422  0.9514
  385MOL0     O50696   6.097   5.828   2.960  0.3655  0.3033 -0.3336
  385MOL0     C50697   6.145   5.889   3.077  0.8687 -0.1416 -0.3289
  385MOL0     C50698   6.130   6.035   3.051  0.3651  0.0247 -0.3110
  385MOL0     C50699   6.147   6.124   3.182 -1.2752  0.7881  0.1841
  385MOL0     C50700   6.164   6.274   3.160  0.8368 -0.5235  0.3329
  385MOL0     C50701   6.042   6.348   3.086  0.2335  0.0561  0.9035
  385MOL0     C50702   6.053   6.505   3.090  0.5430  1.1380 -0.7583
  385MOL0     C50703   5.923   6.591   3.089  0.5900  0.2426  1.3033
  385MOL0     C50704   5.860   6.627   2.960 -1.4350 -0.2581 -0.7239
  385MOL0     N50705   5.728   6.687   2.989  0.0931  0.4612 -0.0781
  385MOL0     C50706   5.622   6.614   3.041 -0.0006  0.1901  0.1718
  385MOL0     C50707   5.507   6.684   3.018 -0.5572  0.3569 -0.0593
  385MOL0     C50708   5.369   6.644   3.066 -0.4819  0.2513 -0.1786
  385MOL0     C50709   5.257   6.661   2.965 -0.0506 -0.6863  0.0248
  385MOL0     C50710   5.121   6.665   3.034 -0.1143 -0.7050 -0.3323
  385MOL0     C50711   5.005   6.661   2.929  0.1798  0.6775  0.0973
  385MOL0     O50712   4.882   6.659   3.010 -0.4149  0.8807 -0.3838
  385MOL0     C50713   4.776   6.686   2.934  0.9104 -0.0553  0.0622
  385MOL0     C50714   4.680   6.782   2.979  0.2292  0.5348 -0.1750
  385MOL0     C50715   4.561   6.815   2.913 -0.6048  1.1585 -0.4817
  385MOL0     C50716   4.525   6.750   2.787  0.7154  0.6032 -0.0734
  385MOL0     C50717   4.407   6.785   2.702 -0.3027 -0.4025 -0.1659
  385MOL0     O50718   4.358   6.693   2.608  0.5788 -0.3787  0.1774
  385MOL0     C50719   4.237   6.727   2.551 -0.1040 -0.0656  0.5409
  385MOL0     C50720   4.130   6.806   2.613 -0.3715  0.9522  0.6069
  385MOL0     C50721   4.004   6.825   2.550  0.4289 -1.1924 -0.4342
  385MOL0     C50722   3.988   6.783   2.416 -0.2658  0.8458  0.3805
  385MOL0     O50723   3.872   6.827   2.362 -0.3766  0.3383 -0.2452
  385MOL0     C50724   3.860   6.801   2.224 -0.7259  0.4350  0.5501
  385MOL0     C50725   3.941   6.868   2.131 -0.1072 -0.8316  0.1951
  385MOL0     C50726   3.932   7.023   2.156  0.9482  0.9048  0.4630
  385MOL0     C50727   3.779   7.071   2.154 -1.6739  0.1454 -0.3761
  385MOL0     C50728   3.729   7.089   2.011  0.0690 -0.2941  0.0088
  385MOL0     C50729   3.592   7.165   2.029 -0.3180  0.8991  0.6118
  385MOL0     C50730   3.483   7.070   2.088  0.3634  0.4652  0.2040
  385MOL0     C50731   3.345   7.095   2.028 -0.4673 -0.5739 -0.4543
  385MOL0    Cl50732   3.342   7.067   1.846  0.4058  0.7058  0.3533
  385MOL0     C50733   4.093   6.705   2.347  0.4853 -0.5069 -0.4836
  385MOL0     C50734   4.207   6.670   2.421 -0.2384  1.0956  0.4509
  385MOL0     O50735   4.363   6.897   2.739 -0.2022  0.2870  0.1132
  385MOL0     C50736   4.609   6.643   2.748  0.1042  0.8973  0.0436
  385MOL0     C50737   4.737   6.621   2.813 -0.4781 -0.3938 -0.3423
  385MOL0     N50738   5.546   6.791   2.937 -0.2129 -0.3216 -0.8495
  385MOL0     N50739   5.674   6.795   2.924 -0.5001  0.2314 -0.3348
  385MOL0     C50740   6.122   5.662   2.804  0.2524 -0.2999  0.7800
  385MOL0     C50741   6.179   5.536   2.771 -0.5904 -0.0294  0.1714
  385MOL0     C50742   6.283   5.090   2.875  0.1154  0.4939  0.8231
  385MOL0     C50743   6.370   5.079   2.764  0.5857 -0.2977  0.3420
  385MOL0     C50744   6.426   4.959   2.733  0.1397  0.1020 -0.7814
  385MOL0     C50745   6.396   4.839   2.803  0.2173 -1.0487 -0.1080
  385MOL0     O50746   6.462   4.717   2.782 -0.0377 -0.0174  0.0999
  385MOL0     C50747   6.549   4.701   2.664 -1.1441  0.7726 -0.6669
  385MOL0     C50748   6.476   4.672   2.527  0.0168 -0.2454 -0.7057
  385MOL0     C50749   6.380   4.561   2.548  0.8100  0.0429  0.1072
  385MOL0     C50750   6.281   4.554   2.432 -0.1067 -0.7295  0.5571
  385MOL0     C50751   6.325   4.497   2.303  0.5627  0.3670 -1.0578
  385MOL0     C50752   6.329   4.455   2.186 -0.4880  0.3623 -0.4847
  385MOL0     C50753   6.302   4.851   2.910 -0.8800  0.6169 -0.5654
  385MOL0     C50754   6.252   4.974   2.955  0.9784  0.9030  0.6986
  385MOL0     H50755   6.228   5.411   3.080  4.3741  1.3505 -1.0400
  385MOL0     H50756   6.164   5.644   3.139  0.8811 -0.5770 -0.6356
  385MOL0     H50757   6.248   5.857   3.091 -0.4437 -4.4204  1.3148
  385MOL0     H50758   6.077   5.858   3.157  2.6821 -0.6467  1.0882
  385MOL0     H50759   6.028   6.054   3.016  0.1435  1.0330  0.7918
  385MOL0     H50760   6.207   6.073   2.984 -0.6631  0.3725 -1.3298
  385MOL0     H50761   6.236   6.088   3.233 -1.3175 -1.0786 -0.9564
  385MOL0     H50762   6.068   6.097   3.253  1.6257 -3.5231  2.1944
  385MOL0     H50763   6.185   6.332   3.250  0.3851 -0.0861  0.1582
  385MOL0     H50764   6.252   6.290   3.097  1.4216 -1.9518  0.7477
  385MOL0     H50765   5.950   6.306   3.130 -0.4110  0.7541  0.2509
  385MOL0     H50766   6.047   6.317   2.981  0.6947  4.3196 -0.5027
  385MOL0     H50767   6.128   6.543   3.021  1.4977 -0.8115 -0.8536
  385MOL0     H50768   6.089   6.526   3.191 -1.1693  3.1381 -0.4823
  385MOL0     H50769   5.848   6.527   3.136  1.1310  0.3748  2.3786
  385MOL0     H50770   5.945   6.680   3.149  0.1098  0.9688  0.4268
  385MOL0     H50771   5.827   6.540   2.902 -1.7311 -0.7236  0.1400
  385MOL0     H50772   5.937   6.689   2.913  0.6622  2.1504  4.9882
  385MOL0     H50773   5.627   6.514   3.083 -0.2909 -0.2508 -0.8099
  385MOL0     H50774   5.361   6.713   3.151  0.4737 -1.3073  1.2270
  385MOL0     H50775   5.365   6.542   3.105 -0.8670 -0.2315 -1.4522
  385MOL0     H50776   5.258   6.577   2.896 -0.3170 -1.5407  1.0363
  385MOL0     H50777   5.262   6.753   2.905 -1.3860 -0.8410 -0.3754
  385MOL0     H50778   5.111   6.583   3.105  1.4662 -0.0956  0.6443
  385MOL0     H50779   5.105   6.757   3.091 -0.0456 -0.3370 -0.9006
  385MOL0     H50780   5.010   6.568   2.872 -0.7061 -0.3177  1.5686
  385MOL0     H50781   4.990   6.744   2.859 -2.5955  0.4501  0.3089
  385MOL0     H50782   4.687   6.840   3.071  1.2222 -0.2458  0.2512
  385MOL0     H50783   4.489   6.884   2.956  0.2932  1.0147  1.3537
  385MOL0     H50784   4.146   6.845   2.713 -0.9077  2.8864 -0.0283
  385MOL0     H50785   3.932   6.889   2.600 -0.2324 -1.2395 -1.2968
  385MOL0     H50786   3.753   6.796   2.199 -0.4117 -2.2640 -0.6229
  385MOL0     H50787   3.876   6.692   2.223  1.1865  0.5353  4.6498
  385MOL0     H50788   3.906   6.849   2.029 -0.3506  0.0827  0.1037
  385MOL0     H50789   4.047   6.841   2.139  0.4809  1.0005 -0.9879
  385MOL0     H50790   3.990   7.088   2.090 -2.8957  2.0028 -2.1757
  385MOL0     H50791   3.956   7.050   2.259  0.3472  1.3672  0.4891
  385MOL0     H50792   3.706   7.017   2.215  0.2243 -0.7536  1.2215
  385MOL0     H50793   3.780   7.173   2.192  2.3218  0.6645 -1.4112
  385MOL0     H50794   3.724   6.995   1.956  2.3436  0.6689 -2.0237
  385MOL0     H50795   3.801   7.153   1.958 -0.4506  0.0883 -0.2415
  385MOL0     H50796   3.570   7.201   1.928  4.1757  0.6202 -0.7122
  385MOL0     H50797   3.600   7.255   2.090  2.5027  1.1624  0.0047
  385MOL0     H50798   3.510   6.966   2.106  1.6476  1.1780  2.8847
  385MOL0     H50799   3.467   7.105   2.190  2.7977  1.3124  0.3615
  385MOL0     H50800   3.324   7.199   2.054  1.7438 -0.6208  1.8429
  385MOL0     H50801   3.267   7.039   2.080  0.2319 -1.5373 -0.4221
  385MOL0     H50802   4.082   6.647   2.256  0.9715 -0.7083 -0.4171
  385MOL0     H50803   4.285   6.613   2.372 -3.0768 -1.7990 -1.1064
  385MOL0     H50804   4.585   6.578   2.664 -0.0811  0.0479  0.7421
  385MOL0     H50805   4.817   6.555   2.780  2.6101  1.7034  2.2728
  385MOL0     H50806   6.097   5.729   2.723  0.4949  1.2354  1.9347
  385MOL0     H50807   6.196   5.509   2.667  1.4174 -1.0434  0.7031
  385MOL0     H50808   6.397   5.164   2.702 -2.2905 -0.5710 -1.4881
  385MOL0     H50809   6.510   4.971   2.665  0.8956  4.2371  0.5684
  385MOL0     H50810   6.619   4.618   2.673 -0.7979  1.1133 -0.1473
  385MOL0     H50811   6.611   4.791   2.660 -1.7726  1.4882  2.4929
  385MOL0     H50812   6.425   4.764   2.495  0.2096 -0.3747 -1.4140
  385MOL0     H50813   6.555   4.636   2.461 -0.5002 -1.3315 -0.7432
  385MOL0     H50814   6.333   4.565   2.647 -0.3240  1.2451 -0.4511
  385MOL0     H50815   6.436   4.467   2.540  2.1889  0.8414  0.0397
  385MOL0     H50816   6.208   4.477   2.460 -0.0977 -1.8554 -2.2210
  385MOL0     H50817   6.224   4.645   2.413 -3.4399 -2.3565  1.9628
  385MOL0     H50818   6.323   4.407   2.090 -0.6599 -2.5531  0.8890
  385MOL0     H50819   6.285   4.759   2.966 -1.5536  0.1504 -1.5037
  385MOL0     H50820   6.186   4.988   3.041 -0.2738  1.8392 -0.3769
  386MOL0     O50821   5.420   3.810   2.730 -0.4369  0.6954 -0.2525
  386MOL0     C50822   5.434   3.931   2.720 -0.1622  0.8160  0.3653
  386MOL0     O50823   5.437   4.015   2.828  0.4046 -0.0180 -0.0957
  386MOL0     C50824   5.443   3.967   2.953 -0.4486  0.6450 -0.0457
  386MOL0     C50825   5.372   4.031   3.049 -0.9603 -0.5813 -0.6104
  386MOL0     C50826   5.389   4.008   3.185  1.0385  0.2894  0.5744
  386MOL0     C50827   5.481   3.911   3.227 -0.7614  0.4834  0.0434
  386MOL0     O50828   5.495   3.888   3.361 -0.3856  0.0441 -0.8378
  386MOL0     C50829   5.602   3.968   3.416  1.2047  0.2071 -0.3925
  386MOL0     C50830   5.646   3.918   3.552  0.1919 -0.1492 -0.6901
  386MOL0     C50831   5.800   3.938   3.578 -0.8993  0.1447  0.2479
  386MOL0     C50832   5.841   3.869   3.704  0.1247 -0.6560 -1.0904
  386MOL0     C50833   5.987   3.876   3.733 -0.9777  0.6884 -0.5802
  386MOL0     C50834   6.017   3.759   3.827  0.1451  0.0416  0.5370
  386MOL0     C50835   5.940   3.778   3.962 -0.1525 -0.4566  0.8496
  386MOL0     C50836   5.975   3.671   4.074 -0.5997 -0.4024 -1.0118
  386MOL0     N50837   6.088   3.726   4.146 -0.3278  0.7497 -0.5328
  386MOL0     C50838   6.076   3.808   4.261 -0.1546  1.1519  0.1924
  386MOL0     C50839   6.196   3.815   4.317  0.6967  0.8338  0.1629
  386MOL0     C50840   6.207   3.901   4.441 -0.3544 -0.3535 -0.1193
  386MOL0     C50841   6.258   4.041   4.404 -0.3271 -0.5671  0.1474
  386MOL0     C50842   6.158   4.146   4.357 -0.4630  0.3317 -1.1347
  386MOL0     C50843   6.240   4.274   4.311 -0.5256  0.1366  0.6907
  386MOL0     O50844   6.141   4.379   4.281  0.1599 -0.6421  0.4808
  386MOL0     C50845   6.043   4.419   4.364  0.2950 -0.2091 -0.0988
  386MOL0     C50846   6.044   4.409   4.501  0.4728 -0.5950  0.1695
  386MOL0     C50847   5.933   4.446   4.581  1.2351 -0.3610  0.9257
  386MOL0     C50848   5.814   4.500   4.529 -0.0538 -0.7931  0.6816
  386MOL0     C50849   5.691   4.535   4.609 -0.5142  0.9318  0.1818
  386MOL0     O50850   5.589   4.602   4.553 -0.2523 -0.6753 -0.5177
  386MOL0     C50851   5.477   4.596   4.633 -0.1274  0.1995  0.4538
  386MOL0     C50852   5.403   4.478   4.662  0.6593  0.1709 -0.1950
  386MOL0     C50853   5.293   4.485   4.739 -0.4339  0.7908  0.5967
  386MOL0     C50854   5.251   4.605   4.795 -1.0934 -1.0718  0.8442
  386MOL0     O50855   5.146   4.625   4.879  0.2758 -0.2365 -0.0497
  386MOL0     C50856   5.051   4.520   4.888  0.3855 -0.4468  0.0680
  386MOL0     C50857   4.929   4.551   4.796  0.7888 -0.7610 -0.4467
  386MOL0     C50858   4.828   4.438   4.802 -1.0361 -0.9007 -0.3908
  386MOL0     C50859   4.709   4.464   4.709  0.0822 -0.4749  0.1185
  386MOL0     C50860   4.616   4.339   4.686  0.8286  0.6873  0.4165
  386MOL0     C50861   4.553   4.326   4.546 -0.2819 -0.0347 -0.1432
  386MOL0     C50862   4.428   4.426   4.528 -0.7456 -0.2706 -0.1621
  386MOL0     C50863   4.352   4.406   4.398  0.4881  0.7155 -0.3095
  386MOL0    Cl50864   4.261   4.555   4.347  0.3075 -0.3332  0.1022
  386MOL0     C50865   5.309   4.722   4.747  0.4521 -0.4123 -0.0274
  386MOL0     C50866   5.427   4.716   4.676  0.1188  0.2756  0.8029
  386MOL0     O50867   5.703   4.511   4.737 -0.2458 -0.0911 -0.4527
  386MOL0     C50868   5.805   4.509   4.387  0.4143 -0.4312 -0.0263
  386MOL0     C50869   5.916   4.465   4.314  0.1737  0.2096  0.2689
  386MOL0     N50870   6.285   3.741   4.242  0.2262  0.4362  0.6463
  386MOL0     N50871   6.218   3.684   4.144 -0.9104 -0.5377  0.3899
  386MOL0     C50872   5.559   3.844   3.133 -0.6608 -0.5112  1.1713
  386MOL0     C50873   5.541   3.871   2.996 -0.1002 -0.6702  0.4591
  386MOL0     C50874   5.439   3.984   2.584 -0.4176  0.5345 -0.4379
  386MOL0     C50875   5.472   4.122   2.559  0.6121 -0.0511  1.5351
  386MOL0     C50876   5.488   4.165   2.429 -0.0771  0.9451  0.1426
  386MOL0     C50877   5.457   4.081   2.324  0.1766  0.1584 -0.0352
  386MOL0     O50878   5.464   4.123   2.190  0.1095  0.3367 -0.1518
  386MOL0     C50879   5.568   4.205   2.154 -0.1182 -0.3106 -0.3746
  386MOL0     C50880   5.693   4.120   2.141  0.5078 -0.8560  0.4675
  386MOL0     C50881   5.699   4.012   2.026 -0.5058 -0.2662 -0.0323
  386MOL0     C50882   5.790   3.884   2.056 -0.1420 -0.0505 -0.7408
  386MOL0     C50883   5.713   3.792   2.146 -1.1214  1.2472  0.3210
  386MOL0     C50884   5.666   3.708   2.213  0.3706  0.0935 -0.3769
  386MOL0     C50885   5.433   3.945   2.340 -0.3961 -0.2635  0.3936
  386MOL0     C50886   5.427   3.897   2.467  0.0708  0.2289 -0.5205
  386MOL0     H50887   5.314   4.116   3.017  1.2646  0.5437 -1.9379
  386MOL0     H50888   5.315   4.043   3.256 -0.0111 -1.3054  0.3156
  386MOL0     H50889   5.569   4.072   3.417  0.9500  0.1451  1.1386
  386MOL0     H50890   5.685   3.961   3.346 -0.2430  2.6778 -2.5197
  386MOL0     H50891   5.624   3.812   3.567 -3.4093  0.2602 -2.0871
  386MOL0     H50892   5.595   3.971   3.632  1.4645  0.6882 -0.4146
  386MOL0     H50893   5.830   4.041   3.598  1.4774 -0.6673  1.2854
  386MOL0     H50894   5.862   3.904   3.494  0.3535  4.3070 -0.7381
  386MOL0     H50895   5.788   3.906   3.792  2.3919 -4.3509  2.1995
  386MOL0     H50896   5.813   3.764   3.688 -0.2330 -0.2702 -3.2881
  386MOL0     H50897   6.015   3.975   3.770 -2.9672  1.8597 -2.0144
  386MOL0     H50898   6.034   3.862   3.635 -4.2732  2.0867 -2.5490
  386MOL0     H50899   6.125   3.747   3.836  0.6104  0.6019 -2.9199
  386MOL0     H50900   5.985   3.667   3.779  4.5450 -1.4048 -0.0587
  386MOL0     H50901   5.956   3.880   3.999  0.7347 -1.1755  2.5888
  386MOL0     H50902   5.834   3.759   3.941 -0.7170  0.0164  3.0536
  386MOL0     H50903   5.999   3.574   4.030 -2.8217 -1.1492 -0.7066
  386MOL0     H50904   5.889   3.654   4.140  0.6083 -0.3352  0.6388
  386MOL0     H50905   5.988   3.861   4.296 -0.0388  0.0891  2.2636
  386MOL0     H50906   6.291   3.847   4.484 -0.1925 -1.0288 -1.2356
  386MOL0     H50907   6.115   3.913   4.499 -0.2523 -0.9557  0.1786
  386MOL0     H50908   6.337   4.034   4.329  1.0398 -0.1878  1.4949
  386MOL0     H50909   6.303   4.089   4.491 -2.0235  0.1908  0.6481
  386MOL0     H50910   6.089   4.112   4.279 -4.2852  3.7313  0.4056
  386MOL0     H50911   6.101   4.181   4.443  0.7979  0.8281 -0.4679
  386MOL0     H50912   6.307   4.255   4.227  0.5403 -1.8408  1.9091
  386MOL0     H50913   6.301   4.300   4.398  1.6157 -1.7734 -0.1343
  386MOL0     H50914   6.141   4.376   4.537  1.0160 -1.3415 -1.8085
  386MOL0     H50915   5.944   4.430   4.688  1.2387 -3.1184  0.5842
  386MOL0     H50916   5.444   4.383   4.629  1.3739  0.3322  0.2012
  386MOL0     H50917   5.241   4.392   4.759 -3.1855  1.8898 -0.9495
  386MOL0     H50918   5.014   4.526   4.991 -0.0137 -1.1866 -0.0313
  386MOL0     H50919   5.078   4.415   4.873  4.3996 -0.0722  2.9687
  386MOL0     H50920   4.969   4.560   4.695  0.8601  1.1562 -0.2886
  386MOL0     H50921   4.895   4.648   4.835  2.0087 -0.8291  0.8837
  386MOL0     H50922   4.799   4.436   4.908 -1.1299 -2.5136 -0.4295
  386MOL0     H50923   4.876   4.342   4.780  0.1579 -0.9256  1.9934
  386MOL0     H50924   4.651   4.545   4.753 -0.2717 -0.1383 -0.9616
  386MOL0     H50925   4.742   4.508   4.615  1.6742 -2.1736 -0.1873
  386MOL0     H50926   4.536   4.351   4.758  1.0696  3.5504  0.3195
  386MOL0     H50927   4.681   4.254   4.709  0.7662  0.9911  1.7647
  386MOL0     H50928   4.532   4.219   4.538  3.1262 -0.8294 -0.1578
  386MOL0     H50929   4.626   4.351   4.468 -0.3619  2.0791  0.4090
  386MOL0     H50930   4.361   4.415   4.614 -1.0416 -0.9871 -0.4731
  386MOL0     H50931   4.461   4.529   4.538  2.9399 -0.8975 -3.4143
  386MOL0     H50932   4.283   4.325   4.422  1.6913 -0.8624 -1.9904
  386MOL0     H50933   4.419   4.383   4.314  1.2684  0.6955  0.3062
  386MOL0     H50934   5.271   4.816   4.783  1.5195  0.4058 -0.9637
  386MOL0     H50935   5.484   4.806   4.653  1.9039 -0.8980  0.4409
  386MOL0     H50936   5.729   4.553   4.324  1.5292  2.1564  0.3297
  386MOL0     H50937   5.888   4.467   4.209  0.6371  2.3743  0.1442
  386MOL0     H50938   5.635   3.775   3.167  0.8114  1.1116  1.2794
  386MOL0     H50939   5.616   3.833   2.927  1.5053 -0.0503  1.8062
  386MOL0     H50940   5.473   4.194   2.640 -0.2510  3.0910 -1.0287
  386MOL0     H50941   5.487   4.273   2.420 -1.6779  0.7910 -2.9280
  386MOL0     H50942   5.580   4.301   2.205 -3.3445  0.0812 -0.1875
  386MOL0     H50943   5.550   4.232   2.049  0.0213  3.7506  0.4730
  386MOL0     H50944   5.775   4.188   2.120 -0.5380  0.7216  1.2421
  386MOL0     H50945   5.713   4.077   2.240 -2.2699  2.2961  2.6510
  386MOL0     H50946   5.732   4.062   1.934 -0.2658  2.3226  1.3662
  386MOL0     H50947   5.598   3.981   1.998 -0.5318  0.0942 -0.3469
  386MOL0     H50948   5.805   3.851   1.953 -0.5975  0.9614 -1.1437
  386MOL0     H50949   5.881   3.918   2.107  0.2835 -0.1597 -1.4270
  386MOL0     H50950   5.615   3.631   2.268  1.5660 -1.4653 -1.3838
  386MOL0     H50951   5.405   3.874   2.263  1.6928 -2.3715  1.4446
  386MOL0     H50952   5.404   3.791   2.472  0.3418  0.1137 -1.5060
  387MOL0     O50953  10.104  11.295   2.447 -0.4903 -0.2702  0.2981
  387MOL0     C50954   9.996  11.279   2.503 -0.1898 -0.0626  0.5032
  387MOL0     O50955   9.891  11.362   2.507  0.0059  0.5745  0.5452
  387MOL0     C50956   9.899  11.481   2.437 -0.5756 -0.1101 -0.2437
  387MOL0     C50957   9.849  11.596   2.497  0.3662  0.2990 -0.5568
  387MOL0     C50958   9.867  11.724   2.443 -0.2636  0.4198  0.6936
  387MOL0     C50959   9.908  11.730   2.303  0.2580 -0.3706 -0.6480
  387MOL0     O50960   9.904  11.849   2.232  0.2184 -1.0873 -0.5627
  387MOL0     C50961  10.039  11.909   2.225  0.3896 -0.0388 -0.3687
  387MOL0     C50962  10.061  12.052   2.280  0.3167  0.8058 -0.0034
  387MOL0     C50963  10.037  12.061   2.434  0.2938  0.0364 -0.2398
  387MOL0     C50964  10.043  12.210   2.481 -0.3085 -0.2375  1.4416
  387MOL0     C50965  10.047  12.230   2.634 -0.2022  1.4491 -0.4439
  387MOL0     C50966  10.037  12.379   2.670  0.2028  0.0929  0.7297
  387MOL0     C50967  10.062  12.399   2.820  0.1346 -0.2885  0.2564
  387MOL0     C50968   9.963  12.326   2.900  0.2896 -0.0488  0.3898
  387MOL0     N50969   9.982  12.382   3.027  0.5902  0.1060  0.6025
  387MOL0     C50970  10.087  12.352   3.110 -0.1659  0.6707 -1.1663
  387MOL0     C50971  10.046  12.389   3.234 -1.3081 -0.3600 -0.3358
  387MOL0     C50972  10.118  12.374   3.366 -0.7913  0.2958 -0.1125
  387MOL0     C50973  10.083  12.243   3.441 -0.0665  1.3769 -0.0556
  387MOL0     C50974   9.952  12.264   3.527 -0.1476  0.1157  0.9024
  387MOL0     C50975   9.891  12.127   3.575 -0.0416 -0.6651  0.2130
  387MOL0     O50976   9.774  12.167   3.641 -0.1409 -0.3775 -0.5957
  387MOL0     C50977   9.701  12.085   3.720 -0.1865  0.6215 -0.3458
  387MOL0     C50978   9.575  12.132   3.762 -0.4323 -0.4627 -0.0331
  387MOL0     C50979   9.483  12.060   3.846 -0.0811 -0.3400  0.0522
  387MOL0     C50980   9.525  11.931   3.891 -0.5869 -0.3955 -1.2040
  387MOL0     C50981   9.440  11.854   3.986  0.4743  0.4484 -1.0566
  387MOL0     O50982   9.343  11.914   4.067  0.5118 -0.6215  0.6356
  387MOL0     C50983   9.255  11.838   4.125 -0.7004  0.0474 -0.2774
  387MOL0     C50984   9.254  11.848   4.267  0.2325  0.1048  0.4733
  387MOL0     C50985   9.153  11.769   4.335  0.0515  0.0081 -0.6657
  387MOL0     C50986   9.048  11.718   4.261 -0.2446 -1.7015  0.7396
  387MOL0     O50987   8.944  11.677   4.339  0.8326 -0.3774 -0.1573
  387MOL0     C50988   8.836  11.599   4.283  0.2549  0.5209  1.3097
  387MOL0     C50989   8.734  11.560   4.393 -1.0983 -0.2548 -0.4968
  387MOL0     C50990   8.625  11.471   4.342  0.3549  0.5136 -0.3017
  387MOL0     C50991   8.521  11.539   4.262 -0.1080 -0.4034  0.2850
  387MOL0     C50992   8.451  11.658   4.339  0.3472  0.0724  0.7936
  387MOL0     C50993   8.320  11.611   4.396 -0.4537 -0.0330 -0.5085
  387MOL0     C50994   8.246  11.739   4.443  1.3289  0.2650 -0.1875
  387MOL0     C50995   8.110  11.701   4.516 -0.2158  0.1951 -0.9148
  387MOL0    Cl50996   7.986  11.633   4.410 -0.7113  0.1462  0.2427
  387MOL0     C50997   9.062  11.712   4.121 -0.4083  0.0735 -0.6673
  387MOL0     C50998   9.158  11.779   4.052 -0.9621  0.7353  0.4372
  387MOL0     O50999   9.462  11.735   3.978  0.3971  0.6608 -0.1530
  387MOL0     C51000   9.652  11.885   3.844  0.3784  0.5851  0.4313
  387MOL0     C51001   9.735  11.957   3.754  0.9655  0.6495 -0.4179
  387MOL0     N51002   9.917  12.440   3.224 -0.1991  0.5158 -0.1585
  387MOL0     N51003   9.879  12.428   3.101  0.0092 -1.2218  0.3063
  387MOL0     C51004   9.948  11.607   2.231 -0.4638 -0.1948 -0.5237
  387MOL0     C51005   9.943  11.493   2.305 -1.0220  0.1110 -0.1425
  387MOL0     C51006   9.993  11.147   2.580 -0.2165 -0.5752  1.0305
  387MOL0     C51007   9.879  11.126   2.662 -0.6936  0.6287  0.4123
  387MOL0     C51008   9.871  11.013   2.748  0.6898  0.1415 -1.0969
  387MOL0     C51009   9.975  10.920   2.758  0.5170 -0.5557  0.0789
  387MOL0     O51010   9.988  10.802   2.818  0.2990  0.1116 -0.6609
  387MOL0     C51011   9.925  10.790   2.949 -0.9944  0.6442  0.7543
  387MOL0     C51012   9.973  10.667   3.019  0.1399  0.9029  0.5678
  387MOL0     C51013  10.093  10.681   3.112  0.5384 -0.0395  0.9963
  387MOL0     C51014  10.089  10.586   3.240 -0.3213  0.1479  0.0303
  387MOL0     C51015  10.207  10.623   3.330  0.9804 -1.3780  1.3992
  387MOL0     C51016  10.289  10.673   3.407 -0.7373  0.6476 -0.4730
  387MOL0     C51017  10.075  10.935   2.662 -1.2898  0.1503 -1.1123
  387MOL0     C51018  10.099  11.052   2.587 -0.1287 -1.1724 -1.1202
  387MOL0     H51019   9.818  11.587   2.601  2.9990 -0.9900  0.1905
  387MOL0     H51020   9.833  11.816   2.490  1.1735  0.1461  2.3326
  387MOL0     H51021  10.045  11.910   2.116 -0.5148  1.5120 -0.4360
  387MOL0     H51022  10.112  11.850   2.281 -1.7327  1.0840  4.1390
  387MOL0     H51023   9.988  12.116   2.229 -0.7070 -1.1002 -1.0682
  387MOL0     H51024  10.163  12.079   2.252  1.7641 -1.0897  2.9256
  387MOL0     H51025  10.103  11.998   2.494 -2.2955 -2.3186  0.3312
  387MOL0     H51026   9.938  12.026   2.464  0.1329  1.8524  1.5672
  387MOL0     H51027  10.129  12.269   2.446  0.1587  0.9937  4.3847
  387MOL0     H51028   9.953  12.257   2.441  0.0350 -2.1405 -1.9212
  387MOL0     H51029  10.136  12.189   2.682 -1.5880 -0.5450  0.5415
  387MOL0     H51030   9.961  12.182   2.681 -2.5477  1.1377 -4.5582
  387MOL0     H51031   9.934  12.414   2.657 -1.0460 -3.3528  0.2942
  387MOL0     H51032  10.109  12.432   2.607  2.1963 -3.8364 -0.6124
  387MOL0     H51033  10.161  12.354   2.832 -1.1220 -3.0118  1.1026
  387MOL0     H51034  10.047  12.504   2.848 -1.6317 -0.5553  0.4252
  387MOL0     H51035   9.963  12.217   2.888 -0.7223  0.1774 -2.6591
  387MOL0     H51036   9.856  12.340   2.880 -0.1576 -1.8497  1.3176
  387MOL0     H51037  10.181  12.302   3.089  1.0091  1.1582  2.2501
  387MOL0     H51038  10.078  12.453   3.431 -3.8682 -1.1554 -0.0551
  387MOL0     H51039  10.226  12.387   3.356 -0.4406 -2.3159 -0.3510
  387MOL0     H51040  10.168  12.221   3.505 -1.0982  1.2820  1.3362
  387MOL0     H51041  10.064  12.163   3.369 -3.8413  3.0116 -1.1599
  387MOL0     H51042   9.985  12.337   3.601  4.2419 -1.1413  0.4300
  387MOL0     H51043   9.878  12.315   3.463  0.0157  2.5474  2.5212
  387MOL0     H51044   9.950  12.069   3.647  0.1025  0.5971  1.1553
  387MOL0     H51045   9.880  12.068   3.484 -2.8610  0.6018 -0.3697
  387MOL0     H51046   9.546  12.230   3.725  2.9419  0.9361  0.6696
  387MOL0     H51047   9.395  12.107   3.886 -1.3099 -1.4778 -1.1921
  387MOL0     H51048   9.340  11.900   4.308 -0.1409 -0.3235  1.8685
  387MOL0     H51049   9.175  11.754   4.441  1.8582 -0.3931 -1.0645
  387MOL0     H51050   8.876  11.509   4.236  1.5592  0.4707  2.4557
  387MOL0     H51051   8.798  11.664   4.204  0.3406 -0.3454  0.5531
  387MOL0     H51052   8.702  11.658   4.427  0.2060  1.2451 -3.2454
  387MOL0     H51053   8.784  11.500   4.470 -0.5785 -0.1476 -0.7488
  387MOL0     H51054   8.567  11.423   4.422  2.7700 -2.3810 -0.1107
  387MOL0     H51055   8.672  11.386   4.292  1.5378 -0.6931  2.6499
  387MOL0     H51056   8.568  11.601   4.186 -1.3038  5.7574  3.8922
  387MOL0     H51057   8.457  11.467   4.210  2.0886 -2.5834  0.4068
  387MOL0     H51058   8.436  11.730   4.257 -0.1701 -3.4315 -2.4715
  387MOL0     H51059   8.508  11.696   4.425  0.6949 -0.5379  0.8354
  387MOL0     H51060   8.328  11.543   4.481 -0.4184 -1.2545 -1.4562
  387MOL0     H51061   8.262  11.561   4.318 -1.0841 -3.5432  1.9571
  387MOL0     H51062   8.303  11.794   4.518  1.1596 -0.1700  0.2654
  387MOL0     H51063   8.234  11.809   4.360  2.0551  1.5448  0.7667
  387MOL0     H51064   8.056  11.772   4.580 -0.0312  0.2068 -0.7706
  387MOL0     H51065   8.133  11.616   4.581  3.1630 -0.8496 -3.1955
  387MOL0     H51066   8.972  11.687   4.065 -1.5492 -1.9479  1.8586
  387MOL0     H51067   9.150  11.787   3.944  3.0161  1.8937  0.0276
  387MOL0     H51068   9.682  11.787   3.882 -2.6940 -0.2622  0.9276
  387MOL0     H51069   9.826  11.905   3.727 -0.1620 -1.3031 -0.6606
  387MOL0     H51070   9.982  11.593   2.129 -1.6009  0.4183 -0.9999
  387MOL0     H51071   9.966  11.408   2.241 -2.1311 -0.9459  0.8019
  387MOL0     H51072   9.807  11.207   2.669 -0.5444  0.6643  1.6880
  387MOL0     H51073   9.779  11.012   2.805  1.0945  0.6640 -0.4124
  387MOL0     H51074   9.819  10.775   2.926 -1.0419 -0.1464  1.4438
  387MOL0     H51075   9.945  10.884   3.003 -1.0043  0.6744  0.7050
  387MOL0     H51076   9.893  10.622   3.079 -0.1848 -2.9602 -2.3651
  387MOL0     H51077   9.994  10.590   2.944 -1.1793  1.3995 -0.3461
  387MOL0     H51078  10.087  10.787   3.136  3.7672  0.1509  1.3537
  387MOL0     H51079  10.183  10.655   3.056 -2.1916 -3.5085 -2.3254
  387MOL0     H51080   9.993  10.589   3.292  0.0389  3.7009  0.7399
  387MOL0     H51081  10.110  10.484   3.206  0.2097  0.9533 -2.2496
  387MOL0     H51082  10.368  10.704   3.472 -2.1414 -0.7055  2.0291
  387MOL0     H51083  10.146  10.857   2.636 -2.2021 -0.7004 -1.0938
  387MOL0     H51084  10.188  11.052   2.525 -0.3982  1.3010 -1.6244
  388MOL0     O51085   0.728   1.372   2.280  0.4028  0.8053  0.5856
  388MOL0     C51086   0.639   1.321   2.344  0.2820  0.1686 -0.4319
  388MOL0     O51087   0.630   1.314   2.480 -0.4750  0.7831 -1.0648
  388MOL0     C51088   0.729   1.368   2.558 -0.0065 -0.2054  0.0042
  388MOL0     C51089   0.751   1.300   2.675  0.8453  0.3056  0.0133
  388MOL0     C51090   0.825   1.364   2.784  0.1517  0.2483 -0.5225
  388MOL0     C51091   0.875   1.496   2.768  0.7157  0.1605  0.0179
  388MOL0     O51092   0.937   1.558   2.872  0.1112 -0.2050 -0.3283
  388MOL0     C51093   0.827   1.608   2.951  0.2936 -0.1061 -0.5052
  388MOL0     C51094   0.881   1.706   3.062  0.0157  0.1161 -0.0563
  388MOL0     C51095   0.993   1.804   3.013  0.1785  0.0430 -0.2674
  388MOL0     C51096   1.052   1.903   3.116 -0.0905  0.2476  0.5270
  388MOL0     C51097   0.945   1.979   3.194 -0.2584 -0.0821 -0.1888
  388MOL0     C51098   0.839   2.064   3.110  1.3129  0.4165 -0.8207
  388MOL0     C51099   0.905   2.161   3.009 -0.9923  0.4578 -0.1902
  388MOL0     C51100   0.811   2.270   2.956  0.7723  0.1000 -0.4883
  388MOL0     N51101   0.698   2.217   2.863 -0.1537  0.2183 -0.1940
  388MOL0     C51102   0.672   2.092   2.815  0.4354 -0.4140  0.0993
  388MOL0     C51103   0.575   2.100   2.714  1.3822  0.0162  0.7447
  388MOL0     C51104   0.486   1.983   2.672 -0.9643 -0.1005  0.2096
  388MOL0     C51105   0.529   1.925   2.532  0.6048  0.6933  0.0836
  388MOL0     C51106   0.443   1.817   2.496 -0.0479  0.0354 -0.0833
  388MOL0     C51107   0.464   1.765   2.350  1.4776 -0.5462  0.5260
  388MOL0     O51108   0.404   1.636   2.337 -0.0798  0.6337  0.4745
  388MOL0     C51109   0.381   1.584   2.209 -0.6818 -0.9383  0.3936
  388MOL0     C51110   0.464   1.621   2.101 -0.3207 -0.8370  0.2308
  388MOL0     C51111   0.428   1.589   1.971  0.1013  0.2081 -0.7157
  388MOL0     C51112   0.311   1.519   1.946  0.5317  0.8065  0.0502
  388MOL0     C51113   0.273   1.480   1.817  0.7835  0.3236  0.2976
  388MOL0     O51114   0.371   1.465   1.727 -0.0421  0.4595 -0.0049
  388MOL0     C51115   0.364   1.450   1.593 -0.3619  0.2229 -0.1787
  388MOL0     C51116   0.258   1.396   1.533 -0.7930 -0.5115 -0.6927
  388MOL0     C51117   0.253   1.376   1.396 -0.7721 -0.2700  0.2937
  388MOL0     C51118   0.356   1.406   1.313 -0.4148  0.1876  0.4005
  388MOL0     O51119   0.337   1.393   1.178  0.3146 -0.0334 -0.1051
  388MOL0     C51120   0.439   1.434   1.089 -0.4445 -0.1043  0.1188
  388MOL0     C51121   0.382   1.465   0.949  0.4593  1.2408  0.0914
  388MOL0     C51122   0.267   1.575   0.950 -0.1346  0.4711  0.7912
  388MOL0     C51123   0.240   1.608   0.803 -0.3307  0.5554 -1.0461
  388MOL0     C51124   0.143   1.724   0.802  1.2362  0.9039  0.6863
  388MOL0     C51125   0.056   1.722   0.671 -0.4970 -0.0112 -0.1760
  388MOL0     C51126  -0.031   1.844   0.640 -0.4247 -0.1125 -0.4479
  388MOL0     C51127  -0.109   1.890   0.769 -0.0949  0.4910 -0.4349
  388MOL0    Cl51128  -0.218   1.770   0.840  0.1280 -0.1821  0.4531
  388MOL0     C51129   0.464   1.460   1.376 -0.7079 -0.0490 -0.0059
  388MOL0     C51130   0.471   1.480   1.517 -0.7203  0.0556 -0.5925
  388MOL0     O51131   0.156   1.481   1.792  0.6965  0.4130  0.0755
  388MOL0     C51132   0.231   1.473   2.060  0.2276 -0.2313  0.4237
  388MOL0     C51133   0.265   1.515   2.189 -1.2614 -0.4458  0.1802
  388MOL0     N51134   0.547   2.236   2.697  0.1175 -0.8359 -0.4520
  388MOL0     N51135   0.617   2.299   2.788  0.4709  0.6410 -0.3416
  388MOL0     C51136   0.853   1.561   2.651 -0.6477 -0.6711  0.4872
  388MOL0     C51137   0.779   1.494   2.543 -0.6150  0.1705  0.4389
  388MOL0     C51138   0.534   1.241   2.279 -0.3973  0.0595 -0.0210
  388MOL0     C51139   0.448   1.149   2.352 -0.3323  0.8840  0.1870
  388MOL0     C51140   0.330   1.106   2.288  0.0061  0.4113 -0.2217
  388MOL0     C51141   0.302   1.137   2.152  0.0072 -0.1024  0.3036
  388MOL0     O51142   0.182   1.095   2.099 -0.6666 -0.1225 -0.3450
  388MOL0     C51143   0.169   1.100   1.950  0.3141  0.4650 -0.8886
  388MOL0     C51144   0.058   1.011   1.902  0.1605 -0.1791 -0.2722
  388MOL0     C51145   0.123   0.874   1.871 -0.2972  0.4293 -1.4477
  388MOL0     C51146   0.024   0.769   1.821  0.4475 -1.0762 -0.2220
  388MOL0     C51147   0.085   0.655   1.754  0.0917  1.1314  0.5773
  388MOL0     C51148   0.133   0.563   1.685 -1.4923 -0.8787  0.0277
  388MOL0     C51149   0.397   1.217   2.087  0.7183  0.0569  0.8507
  388MOL0     C51150   0.506   1.275   2.143 -0.3235  0.4439  0.2012
  388MOL0     H51151   0.719   1.196   2.678  1.9573 -0.0538  2.9992
  388MOL0     H51152   0.852   1.314   2.877  3.1080  3.5198  0.6185
  388MOL0     H51153   0.764   1.526   2.987 -0.5807  0.1066 -1.4947
  388MOL0     H51154   0.757   1.660   2.885  0.7074  2.2419  0.8172
  388MOL0     H51155   0.933   1.643   3.135  0.5732 -0.4799 -0.9393
  388MOL0     H51156   0.792   1.754   3.102 -0.1395  0.0351 -0.3022
  388MOL0     H51157   0.947   1.859   2.930  0.2471  2.2012  1.0552
  388MOL0     H51158   1.080   1.752   2.973 -0.7845 -0.9783 -1.1091
  388MOL0     H51159   1.118   1.835   3.170  1.8619 -2.1776 -4.2772
  388MOL0     H51160   1.110   1.980   3.063  0.6752  0.1051  1.1465
  388MOL0     H51161   0.994   2.055   3.255 -2.8790  0.4120  1.4807
  388MOL0     H51162   0.880   1.910   3.249  2.7514 -1.6757  1.6345
  388MOL0     H51163   0.769   2.115   3.177 -1.4346 -1.6711 -1.9057
  388MOL0     H51164   0.776   1.999   3.048 -0.8065  1.5360  0.0523
  388MOL0     H51165   0.982   2.217   3.063  3.8406 -3.2941 -2.4966
  388MOL0     H51166   0.949   2.099   2.931 -2.4340 -1.5330  0.4998
  388MOL0     H51167   0.877   2.343   2.909  2.9786 -0.1846  1.9237
  388MOL0     H51168   0.766   2.310   3.048 -0.2683 -2.8349  0.4278
  388MOL0     H51169   0.707   2.000   2.860 -1.7023 -1.8588 -1.0694
  388MOL0     H51170   0.387   2.028   2.672  0.2242  2.8203  1.7934
  388MOL0     H51171   0.492   1.910   2.753 -0.0559 -0.5406 -0.2429
  388MOL0     H51172   0.635   1.899   2.526  0.7431  1.3506 -0.6726
  388MOL0     H51173   0.512   2.013   2.469  0.5811  1.6464  1.3739
  388MOL0     H51174   0.456   1.734   2.567  2.3796  0.1271 -0.3559
  388MOL0     H51175   0.338   1.846   2.504 -0.2970 -0.6505 -0.7099
  388MOL0     H51176   0.572   1.761   2.334  1.3015  2.3777 -2.7607
  388MOL0     H51177   0.408   1.828   2.280  1.9412 -0.6451  0.0624
  388MOL0     H51178   0.560   1.669   2.118 -1.2895  1.0382  0.5869
  388MOL0     H51179   0.502   1.625   1.900  1.6731  0.0572  0.7585
  388MOL0     H51180   0.174   1.355   1.589 -1.1192  0.8974 -0.1045
  388MOL0     H51181   0.179   1.317   1.343  1.2279 -1.7716 -0.9924
  388MOL0     H51182   0.513   1.353   1.085 -2.2967 -1.8303 -2.2915
  388MOL0     H51183   0.493   1.525   1.115  1.9316 -1.2160 -0.5949
  388MOL0     H51184   0.351   1.365   0.917 -0.1671  1.7182 -0.8392
  388MOL0     H51185   0.458   1.491   0.876 -0.9122  2.4573 -0.9651
  388MOL0     H51186   0.311   1.667   0.990  2.4216  0.4993 -1.7313
  388MOL0     H51187   0.186   1.559   1.021 -0.4035 -0.1987  0.3415
  388MOL0     H51188   0.338   1.624   0.759 -0.3072 -1.8658 -2.0256
  388MOL0     H51189   0.207   1.517   0.752  0.1811  0.7416 -1.7166
  388MOL0     H51190   0.196   1.820   0.808  1.5913  0.7022  0.7858
  388MOL0     H51191   0.073   1.715   0.885 -0.1219 -1.0490 -0.5858
  388MOL0     H51192  -0.014   1.638   0.682  1.5072 -1.6741  0.4539
  388MOL0     H51193   0.122   1.692   0.589  0.3416 -2.4792  1.2856
  388MOL0     H51194   0.038   1.926   0.615  1.9836 -1.0069  2.6200
  388MOL0     H51195  -0.113   1.826   0.571 -0.8919 -0.1631  0.1199
  388MOL0     H51196  -0.165   1.976   0.731  1.2567  1.0668 -1.1817
  388MOL0     H51197  -0.044   1.933   0.844 -0.9708  0.6156  0.2715
  388MOL0     H51198   0.558   1.493   1.331  0.1242 -1.6141  0.5217
  388MOL0     H51199   0.567   1.505   1.561 -0.7040 -1.4912  0.3195
  388MOL0     H51200   0.143   1.412   2.045  0.4183 -0.2086 -0.9072
  388MOL0     H51201   0.196   1.498   2.271 -4.1000  2.9930 -1.2123
  388MOL0     H51202   0.897   1.660   2.639 -1.7709 -0.1374  0.6843
  388MOL0     H51203   0.748   1.536   2.447  0.9410 -0.9147 -0.5930
  388MOL0     H51204   0.464   1.133   2.458  1.6707 -1.5098 -0.3929
  388MOL0     H51205   0.248   1.055   2.338 -1.3817  3.8122  1.3171
  388MOL0     H51206   0.257   1.069   1.893 -1.2839 -4.3046 -1.2324
  388MOL0     H51207   0.155   1.204   1.918 -3.6718  1.3239  2.7887
  388MOL0     H51208  -0.032   0.988   1.960 -0.3662  2.7463  0.2430
  388MOL0     H51209   0.020   1.061   1.812 -2.3716 -0.6083  0.4775
  388MOL0     H51210   0.163   0.833   1.965  0.3088 -0.1609 -1.9530
  388MOL0     H51211   0.210   0.878   1.805  1.3999  0.9427  0.7114
  388MOL0     H51212  -0.046   0.745   1.902 -0.6640  3.2300  0.3562
  388MOL0     H51213  -0.037   0.817   1.744  0.5805 -0.4044  0.0834
  388MOL0     H51214   0.178   0.491   1.620 -0.7312  1.4864 -2.2012
  388MOL0     H51215   0.381   1.240   1.982  2.0322  1.8058  0.9876
  388MOL0     H51216   0.570   1.343   2.087 -0.3559 -0.2314 -0.6711
  389MOL0     O51217   1.940  11.252   2.440  0.1898 -0.7531  0.2096
  389MOL0     C51218   1.840  11.319   2.426  0.0374 -0.2012  0.8350
  389MOL0     O51219   1.807  11.436   2.493 -0.1054  0.5042  0.6798
  389MOL0     C51220   1.875  11.493   2.596  0.8043 -0.3797 -1.0535
  389MOL0     C51221   2.000  11.458   2.643  1.4454 -0.8509 -0.5112
  389MOL0     C51222   2.054  11.538   2.745  0.1715  0.2968  0.4041
  389MOL0     C51223   1.990  11.653   2.807 -0.2466 -0.2394 -0.4952
  389MOL0     O51224   2.038  11.729   2.909  0.3489 -0.5540  0.3887
  389MOL0     C51225   2.154  11.676   2.979  0.3374  0.8485 -0.0411
  389MOL0     C51226   2.178  11.763   3.095  0.0375 -0.3936  0.7551
  389MOL0     C51227   2.247  11.884   3.044 -0.2592  0.3554  0.5135
  389MOL0     C51228   2.274  11.963   3.172 -0.2891  0.6728  1.0910
  389MOL0     C51229   2.427  12.018   3.176  0.0204 -0.3108 -0.3316
  389MOL0     C51230   2.446  12.114   3.290  0.6117  0.6975  0.2992
  389MOL0     C51231   2.367  12.246   3.286 -0.9336 -0.5028 -0.1367
  389MOL0     C51232   2.361  12.330   3.150  0.3561  0.2557 -0.8500
  389MOL0     N51233   2.236  12.417   3.163  0.9167  0.4958 -0.2861
  389MOL0     C51234   2.236  12.547   3.122  0.2323 -0.0058  0.7191
  389MOL0     C51235   2.109  12.575   3.082 -0.4581 -0.0390 -0.6076
  389MOL0     C51236   2.071  12.702   3.012 -0.4985  0.1208 -0.5328
  389MOL0     C51237   1.946  12.763   3.074  0.5594 -0.3068 -0.5710
  389MOL0     C51238   1.925  12.913   3.029 -0.2749  0.8392  0.2526
  389MOL0     C51239   1.793  12.984   3.049  0.0931  0.8984  0.0995
  389MOL0     O51240   1.791  13.034   3.183  0.7067 -0.0836 -0.2430
  389MOL0     C51241   1.709  13.138   3.215 -0.1086 -0.1494 -0.6706
  389MOL0     C51242   1.709  13.183   3.346 -1.3812  0.6516  0.9386
  389MOL0     C51243   1.617  13.270   3.384 -0.3279 -0.5484  0.6201
  389MOL0     C51244   1.516  13.321   3.298 -0.1717  0.5171 -0.0214
  389MOL0     C51245   1.398  13.404   3.344  0.0833  0.1304 -1.1690
  389MOL0     O51246   1.375  13.394   3.483  0.4188 -0.0661  0.0938
  389MOL0     C51247   1.255  13.397   3.547 -0.9079 -0.0750 -0.3012
  389MOL0     C51248   1.140  13.346   3.493  0.2537 -0.6174 -0.2216
  389MOL0     C51249   1.025  13.335   3.569 -0.7867 -0.0088 -0.2690
  389MOL0     C51250   1.021  13.392   3.696 -0.3601  0.1849 -0.4144
  389MOL0     O51251   0.908  13.409   3.769 -1.1649 -0.5155  0.1433
  389MOL0     C51252   0.821  13.509   3.709  0.6252 -0.3110 -0.2788
  389MOL0     C51253   0.681  13.449   3.743 -0.0967 -0.6629  0.3254
  389MOL0     C51254   0.644  13.449   3.891 -0.9172  0.2872  0.0039
  389MOL0     C51255   0.507  13.397   3.931 -0.6026  0.4259 -0.2876
  389MOL0     C51256   0.402  13.502   3.886  0.6968 -0.0587  0.8466
  389MOL0     C51257   0.273  13.470   3.949  1.2938 -0.5203 -0.3016
  389MOL0     C51258   0.187  13.373   3.868  1.3867  0.0950  0.0510
  389MOL0     C51259   0.041  13.390   3.910 -0.1152  0.2829 -0.6899
  389MOL0    Cl51260  -0.066  13.283   3.806 -0.0323 -0.0164  0.2556
  389MOL0     C51261   1.132  13.448   3.758 -0.4101 -0.9930  0.1798
  389MOL0     C51262   1.248  13.454   3.677  0.4331 -0.4115  0.6621
  389MOL0     O51263   1.333  13.461   3.262 -0.7636  0.0879  0.1336
  389MOL0     C51264   1.516  13.264   3.169  0.5233 -0.9558  0.2613
  389MOL0     C51265   1.613  13.184   3.132  0.1899  1.1583  0.8384
  389MOL0     N51266   2.039  12.460   3.090  0.2263 -0.0381  0.7852
  389MOL0     N51267   2.110  12.369   3.145  0.9338  0.5234 -1.5242
  389MOL0     C51268   1.867  11.680   2.760  0.5434  0.0489  1.1283
  389MOL0     C51269   1.806  11.604   2.655 -0.2241  0.0375 -0.4750
  389MOL0     C51270   1.745  11.267   2.323  0.3978  1.2153  0.1769
  389MOL0     C51271   1.776  11.164   2.225 -0.2597 -0.8463 -0.1890
  389MOL0     C51272   1.685  11.144   2.120 -0.0591  0.0033 -0.6119
  389MOL0     C51273   1.574  11.218   2.103 -0.7780  0.3483  1.6175
  389MOL0     O51274   1.471  11.176   2.026 -0.0352  0.2668 -0.0331
  389MOL0     C51275   1.499  11.103   1.909 -0.5294  0.6710 -0.4031
  389MOL0     C51276   1.381  11.092   1.816  0.2479  0.2074 -0.1199
  389MOL0     C51277   1.265  11.024   1.883  0.9015  0.7481 -0.0091
  389MOL0     C51278   1.151  11.004   1.787 -0.4157  0.3672  0.0680
  389MOL0     C51279   1.053  10.916   1.856  0.2273  0.0658  0.1835
  389MOL0     C51280   0.975  10.837   1.901  0.8298  0.4236 -0.1350
  389MOL0     C51281   1.540  11.313   2.192 -0.9999  0.1017  0.0220
  389MOL0     C51282   1.629  11.338   2.296  0.0069 -0.2130  0.8369
  389MOL0     H51283   2.045  11.368   2.601  0.0748 -0.3329 -3.2551
  389MOL0     H51284   2.158  11.511   2.757  1.3580  3.0750 -2.2477
  389MOL0     H51285   2.246  11.664   2.922 -0.3600 -2.8520 -0.6616
  389MOL0     H51286   2.119  11.576   3.006  1.0139  1.1132  2.0345
  389MOL0     H51287   2.245  11.710   3.163  0.9357  0.1191  0.2954
  389MOL0     H51288   2.089  11.784   3.157  0.3031 -3.7839  2.5119
  389MOL0     H51289   2.189  11.940   2.970  0.0566 -2.2272 -1.8490
  389MOL0     H51290   2.338  11.854   2.992 -2.8810 -1.4430 -3.5020
  389MOL0     H51291   2.203  12.046   3.174 -0.9298  0.1124  2.0654
  389MOL0     H51292   2.263  11.904   3.263 -0.3708  0.7434  1.1269
  389MOL0     H51293   2.447  12.054   3.074 -0.4336 -2.9660 -1.4388
  389MOL0     H51294   2.495  11.933   3.187  1.8826  0.8436 -2.0243
  389MOL0     H51295   2.552  12.142   3.293  1.1739 -1.3490  2.8727
  389MOL0     H51296   2.424  12.053   3.378  0.6473 -1.7943 -1.3088
  389MOL0     H51297   2.263  12.220   3.308 -1.2155  0.5592 -0.1998
  389MOL0     H51298   2.389  12.310   3.373  0.5493 -1.6310  0.3779
  389MOL0     H51299   2.351  12.261   3.065 -1.6656 -1.5286  0.7278
  389MOL0     H51300   2.450  12.394   3.147  0.5473  0.0951  0.5283
  389MOL0     H51301   2.322  12.611   3.110  0.9297 -0.4199  3.0112
  389MOL0     H51302   2.075  12.703   2.902  0.4075  3.3092 -0.5561
  389MOL0     H51303   2.155  12.767   3.037 -0.8304 -0.5735  2.8367
  389MOL0     H51304   1.971  12.763   3.181  4.3590  3.4372 -1.1786
  389MOL0     H51305   1.854  12.709   3.052 -0.1090  1.1679 -1.5171
  389MOL0     H51306   2.000  12.978   3.076 -0.9044  1.6226  0.1942
  389MOL0     H51307   1.933  12.911   2.920  2.3743 -0.1987  0.3904
  389MOL0     H51308   1.713  12.910   3.043 -0.4088  1.5446 -2.2811
  389MOL0     H51309   1.778  13.053   2.966 -0.3175  0.4357 -0.2138
  389MOL0     H51310   1.779  13.155   3.425 -0.5691 -0.1540 -0.0255
  389MOL0     H51311   1.639  13.314   3.481  0.8489  1.3713 -0.4655
  389MOL0     H51312   1.144  13.308   3.392  0.4096 -1.1223 -0.0312
  389MOL0     H51313   0.930  13.300   3.529 -0.4504  0.0916 -1.1900
  389MOL0     H51314   0.827  13.518   3.601 -0.3113 -2.7428 -0.5967
  389MOL0     H51315   0.847  13.602   3.761  1.3705 -1.3076  1.2125
  389MOL0     H51316   0.674  13.346   3.705 -2.6783 -0.3217 -0.3145
  389MOL0     H51317   0.599  13.505   3.697 -2.0936 -4.5828 -1.4293
  389MOL0     H51318   0.663  13.547   3.937 -0.1642 -1.4763  3.8802
  389MOL0     H51319   0.716  13.394   3.952  0.1665  3.7249  2.1087
  389MOL0     H51320   0.490  13.298   3.889  2.4013 -0.0502 -0.5342
  389MOL0     H51321   0.505  13.388   4.040 -0.7422 -0.4440 -0.3565
  389MOL0     H51322   0.394  13.511   3.777  1.0671  0.5496  0.8628
  389MOL0     H51323   0.426  13.603   3.922 -0.9506 -0.1456  2.3644
  389MOL0     H51324   0.226  13.568   3.952 -1.2911 -1.6410 -1.1901
  389MOL0     H51325   0.290  13.439   4.053 -0.3378 -3.8078 -0.8770
  389MOL0     H51326   0.184  13.392   3.760 -0.8259 -2.1792 -0.3903
  389MOL0     H51327   0.227  13.274   3.892  1.9908  0.5380  0.9256
  389MOL0     H51328   0.006  13.493   3.894 -0.3837  0.1999 -0.6460
  389MOL0     H51329   0.027  13.358   4.014 -0.0048 -0.8168 -1.0060
  389MOL0     H51330   1.120  13.483   3.860 -1.4668  1.1553 -0.6275
  389MOL0     H51331   1.341  13.502   3.706  0.2932 -0.9884  2.1328
  389MOL0     H51332   1.429  13.283   3.107  1.1841  0.0815 -0.3770
  389MOL0     H51333   1.611  13.151   3.029  0.1916  1.1322  0.8469
  389MOL0     H51334   1.802  11.753   2.809 -3.0064 -1.6524 -0.6909
  389MOL0     H51335   1.703  11.626   2.630 -0.2148  0.2205 -0.3523
  389MOL0     H51336   1.873  11.116   2.228  0.0319 -0.3539 -1.3133
  389MOL0     H51337   1.708  11.060   2.054 -1.9523  0.0041 -1.3201
  389MOL0     H51338   1.528  10.999   1.930  0.6266  1.0997  0.1990
  389MOL0     H51339   1.582  11.149   1.856 -0.0484 -0.2925 -0.5086
  389MOL0     H51340   1.347  11.190   1.782 -0.6816 -0.3465 -0.8195
  389MOL0     H51341   1.405  11.025   1.733 -1.0275 -1.4092  0.7676
  389MOL0     H51342   1.231  11.079   1.971 -0.6922 -0.0835 -0.0573
  389MOL0     H51343   1.302  10.925   1.912  1.9834  1.0319 -0.3621
  389MOL0     H51344   1.106  11.094   1.745 -2.4615 -0.7764 -0.3386
  389MOL0     H51345   1.204  10.959   1.702 -2.2739 -0.9686 -0.4598
  389MOL0     H51346   0.918  10.760   1.947 -0.8155  0.8627 -1.3191
  389MOL0     H51347   1.446  11.367   2.181 -2.0678 -1.8829 -1.2505
  389MOL0     H51348   1.602  11.410   2.373 -0.7259  1.3573 -0.8089
  390MOL0     O51349   9.527   9.277   7.895 -0.4573  0.1097 -0.4566
  390MOL0     C51350   9.582   9.170   7.857  0.6334  0.0553 -0.5482
  390MOL0     O51351   9.718   9.147   7.838  0.4134 -1.3570  0.9528
  390MOL0     C51352   9.799   9.251   7.842  0.4078  0.3944 -0.5521
  390MOL0     C51353   9.780   9.380   7.794  0.0506  0.2109  0.1477
  390MOL0     C51354   9.871   9.490   7.816  0.1274  0.4288 -0.5456
  390MOL0     C51355   9.986   9.471   7.888 -0.7658  0.4298 -0.1573
  390MOL0     O51356  10.067   9.582   7.901  0.5335  0.4201  0.8783
  390MOL0     C51357  10.095   9.604   8.036 -0.1602 -0.6172 -0.0797
  390MOL0     C51358  10.159   9.740   8.039  0.4510  0.5087  0.0092
  390MOL0     C51359  10.268   9.762   7.934 -0.3427 -0.5576  0.3664
  390MOL0     C51360  10.364   9.874   7.946 -0.0810 -0.2343 -0.6378
  390MOL0     C51361  10.302  10.017   7.953 -0.2680  0.1472 -0.5267
  390MOL0     C51362  10.400  10.140   7.969  0.3311 -0.4684  0.5151
  390MOL0     C51363  10.304  10.259   7.991  0.3746 -0.5587 -0.8307
  390MOL0     C51364  10.359  10.408   8.007  0.1665  0.5731 -0.3463
  390MOL0     N51365  10.240  10.508   8.009  0.4915 -0.0308 -0.5398
  390MOL0     C51366  10.239  10.633   8.075 -0.2582  0.1293 -0.1392
  390MOL0     C51367  10.131  10.704   8.034 -1.4214 -0.5507  0.2996
  390MOL0     C51368  10.098  10.853   8.085  1.4531 -0.2077 -0.4159
  390MOL0     C51369   9.942  10.860   8.116  0.7733 -0.2036  0.0124
  390MOL0     C51370   9.901  10.753   8.219 -0.3272  0.2088  0.3094
  390MOL0     C51371   9.767  10.793   8.270  0.3833 -0.8056 -0.4609
  390MOL0     O51372   9.727  10.687   8.364  0.2166 -0.8326 -0.1883
  390MOL0     C51373   9.594  10.700   8.416 -0.1602 -0.3312 -0.0143
  390MOL0     C51374   9.524  10.587   8.459  0.1976  0.7755  0.3311
  390MOL0     C51375   9.390  10.608   8.513  0.0050  0.3898 -0.6520
  390MOL0     C51376   9.340  10.740   8.547  0.8945  0.3968  0.0215
  390MOL0     C51377   9.216  10.775   8.617  0.3259  0.4167  0.8182
  390MOL0     O51378   9.100  10.706   8.606  0.0611 -0.2052 -0.3264
  390MOL0     C51379   9.085  10.641   8.489  0.3654  1.1010  1.2283
  390MOL0     C51380   9.108  10.708   8.363 -0.1833  0.4984  0.4929
  390MOL0     C51381   9.101  10.633   8.243  0.1307  0.8048  1.0736
  390MOL0     C51382   9.074  10.496   8.249 -0.5690 -0.8202  0.5474
  390MOL0     O51383   9.087  10.412   8.138  1.0766  0.2576 -0.0789
  390MOL0     C51384   9.099  10.461   8.005 -0.1159 -1.1107 -0.6524
  390MOL0     C51385   9.115  10.354   7.898  0.4018  0.8322  1.1108
  390MOL0     C51386   9.101  10.414   7.753  0.0041  0.0918  0.7316
  390MOL0     C51387   9.232  10.490   7.720  0.5441 -0.1563  0.2756
  390MOL0     C51388   9.221  10.562   7.572 -0.0700  0.0681 -0.2029
  390MOL0     C51389   9.336  10.665   7.564  0.2659 -0.2371 -0.8489
  390MOL0     C51390   9.336  10.734   7.427  0.3117 -0.7044 -0.1324
  390MOL0     C51391   9.210  10.832   7.413  0.5083 -0.2840 -0.4760
  390MOL0    Cl51392   9.242  10.980   7.512 -0.0354  0.2496 -0.0282
  390MOL0     C51393   9.046  10.439   8.364  0.4333 -0.3841 -0.0232
  390MOL0     C51394   9.048  10.510   8.481  0.5582 -0.5094 -0.3053
  390MOL0     O51395   9.219  10.873   8.688 -0.4369 -0.4747  0.3255
  390MOL0     C51396   9.408  10.850   8.491  0.0146  1.2128 -0.3773
  390MOL0     C51397   9.530  10.827   8.426  0.8347 -0.3273 -0.1750
  390MOL0     N51398  10.055  10.620   7.953  0.5040 -0.4535 -0.6657
  390MOL0     N51399  10.122  10.510   7.940 -0.0958 -0.8197 -0.4960
  390MOL0     C51400  10.012   9.342   7.929 -0.1270 -0.0499  0.5982
  390MOL0     C51401   9.925   9.239   7.897  0.1848  0.2179 -0.3694
  390MOL0     C51402   9.484   9.048   7.841  0.2708 -0.7178 -0.0630
  390MOL0     C51403   9.354   9.043   7.894 -0.5771  0.2726 -0.1280
  390MOL0     C51404   9.273   8.941   7.849 -0.0794  0.6881  0.7865
  390MOL0     C51405   9.328   8.830   7.770 -0.4880  0.9902  0.3546
  390MOL0     O51406   9.245   8.733   7.711 -0.5059 -0.0167  0.8942
  390MOL0     C51407   9.162   8.673   7.809  0.2615  0.5752  1.3725
  390MOL0     C51408   9.070   8.586   7.727  0.0497 -0.8987 -0.0508
  390MOL0     C51409   8.964   8.518   7.819 -0.6629 -0.3984 -0.0173
  390MOL0     C51410   8.831   8.503   7.755  1.3893  0.6549  0.2956
  390MOL0     C51411   8.856   8.401   7.643 -0.4644  0.6782  0.2281
  390MOL0     C51412   8.882   8.329   7.538 -0.1413  0.0304 -0.3574
  390MOL0     C51413   9.455   8.838   7.716 -0.1902 -0.6819 -0.6880
  390MOL0     C51414   9.528   8.953   7.755 -0.5140  0.6055 -0.4314
  390MOL0     H51415   9.689   9.398   7.738  0.8138 -3.5575 -2.7352
  390MOL0     H51416   9.843   9.590   7.784 -2.6087  1.1392  3.3283
  390MOL0     H51417  10.170   9.533   8.070  1.3788  1.7861  1.9676
  390MOL0     H51418  10.006   9.605   8.100 -1.6862 -0.0962 -2.1137
  390MOL0     H51419  10.196   9.747   8.142 -0.8877 -0.1890  0.5631
  390MOL0     H51420  10.097   9.828   8.018  1.7602  2.0168  2.0102
  390MOL0     H51421  10.223   9.776   7.835 -1.1627 -0.1510  0.7916
  390MOL0     H51422  10.324   9.668   7.936 -1.4617 -1.2279  1.0533
  390MOL0     H51423  10.432   9.855   8.029 -1.4213 -2.5219  0.0063
  390MOL0     H51424  10.425   9.862   7.855 -1.9237 -3.7753 -1.5764
  390MOL0     H51425  10.228  10.009   8.033  2.3850 -4.2338  1.8949
  390MOL0     H51426  10.244  10.031   7.861 -0.2436  0.4660 -0.4934
  390MOL0     H51427  10.462  10.140   7.879 -0.0962 -0.8794  0.2119
  390MOL0     H51428  10.472  10.131   8.050  0.5801 -0.3280  0.3094
  390MOL0     H51429  10.237  10.274   7.906  1.5336  3.7660 -1.2182
  390MOL0     H51430  10.248  10.240   8.082  1.4256  0.8592  0.1569
  390MOL0     H51431  10.411  10.429   7.913 -2.6813  0.2498 -2.1149
  390MOL0     H51432  10.428  10.424   8.091 -0.3143 -0.4559  0.2743
  390MOL0     H51433  10.323  10.672   8.131  2.3634 -1.1183 -2.9213
  390MOL0     H51434  10.127  10.929   8.012  2.1987 -0.5510 -0.4817
  390MOL0     H51435  10.152  10.876   8.178  3.5788  0.5330 -1.7649
  390MOL0     H51436   9.886  10.852   8.022  2.5903  0.6264 -1.1854
  390MOL0     H51437   9.934  10.962   8.155  1.6154 -0.2112  0.2196
  390MOL0     H51438   9.925  10.651   8.187 -3.2348 -2.0492  4.3239
  390MOL0     H51439   9.971  10.775   8.301  0.8177  0.8049 -0.7988
  390MOL0     H51440   9.704  10.798   8.180  1.5562 -5.1301 -1.7996
  390MOL0     H51441   9.790  10.891   8.311 -0.1867 -1.1098  0.6125
  390MOL0     H51442   9.564  10.488   8.442  1.2818  1.4875 -1.7183
  390MOL0     H51443   9.338  10.526   8.561  0.4406 -0.1997 -1.1687
  390MOL0     H51444   9.139  10.812   8.368  2.4060  0.1857 -3.8300
  390MOL0     H51445   9.129  10.675   8.147  1.8564  2.5666  2.2908
  390MOL0     H51446   9.182  10.528   7.978  0.9830 -2.4584 -0.7263
  390MOL0     H51447   9.002  10.510   7.994  1.3949  1.7812 -2.3149
  390MOL0     H51448   9.029  10.289   7.917 -0.4754  1.5037 -0.4531
  390MOL0     H51449   9.207  10.297   7.919  0.7277  0.5494 -0.8828
  390MOL0     H51450   9.012  10.478   7.752  0.5644  1.0569  3.2818
  390MOL0     H51451   9.086  10.326   7.690 -0.8989  0.7680 -0.0240
  390MOL0     H51452   9.240  10.571   7.793  5.4437  2.1622 -2.3835
  390MOL0     H51453   9.314  10.420   7.733  0.0477 -0.3688  2.8290
  390MOL0     H51454   9.130  10.622   7.572 -0.0038  0.2760  2.3150
  390MOL0     H51455   9.235  10.485   7.495  1.0305  0.6193 -0.5803
  390MOL0     H51456   9.423  10.599   7.562 -1.0723 -2.0514 -0.7452
  390MOL0     H51457   9.339  10.735   7.649  0.3216  0.7220 -1.6179
  390MOL0     H51458   9.427  10.795   7.417  2.6366 -3.4664  2.1272
  390MOL0     H51459   9.328  10.666   7.341  2.1480 -3.2320  1.5476
  390MOL0     H51460   9.111  10.792   7.439  0.6093  0.5714  1.3471
  390MOL0     H51461   9.198  10.860   7.308  1.0703 -1.7598 -0.9654
  390MOL0     H51462   9.022  10.333   8.369  0.9017 -0.4770  0.3381
  390MOL0     H51463   9.025  10.463   8.576 -2.3209  1.2423 -0.0261
  390MOL0     H51464   9.366  10.950   8.499 -1.9331  0.6697 -2.6184
  390MOL0     H51465   9.588  10.911   8.389 -2.9730  1.7758 -2.0120
  390MOL0     H51466  10.110   9.310   7.964  1.3796 -0.0450 -3.0657
  390MOL0     H51467   9.968   9.145   7.929 -0.1927 -0.4484 -1.7663
  390MOL0     H51468   9.316   9.127   7.953  0.5189  0.3793  0.4538
  390MOL0     H51469   9.170   8.956   7.882 -0.0678 -0.4490  1.3763
  390MOL0     H51470   9.118   8.742   7.881  0.0255  1.8749  0.0311
  390MOL0     H51471   9.215   8.591   7.860 -0.5648 -0.8555  0.0360
  390MOL0     H51472   9.018   8.637   7.645 -1.3728 -2.8925 -0.4590
  390MOL0     H51473   9.124   8.507   7.673 -3.3389 -2.4529 -1.4670
  390MOL0     H51474   8.942   8.574   7.910 -2.5751  0.0324 -0.6992
  390MOL0     H51475   8.995   8.418   7.853 -2.5203 -0.6805  0.9668
  390MOL0     H51476   8.753   8.471   7.825  0.4799  1.3063 -0.3925
  390MOL0     H51477   8.788   8.593   7.709  4.6062  1.6528 -1.0450
  390MOL0     H51478   8.884   8.273   7.446 -1.6653 -0.5500 -0.0856
  390MOL0     H51479   9.501   8.763   7.651 -1.5774 -3.2355  1.1038
  390MOL0     H51480   9.624   8.961   7.705 -0.8759 -0.8049 -1.4458
  391MOL0     O51481   8.384   3.328   1.407 -0.0130 -0.5263 -0.1800
  391MOL0     C51482   8.421   3.272   1.301  0.5931 -0.4724  0.0913
  391MOL0     O51483   8.341   3.254   1.193 -0.4343  0.7309  0.3107
  391MOL0     C51484   8.215   3.296   1.191  0.9362  0.6216 -0.1455
  391MOL0     C51485   8.120   3.205   1.139 -0.5682 -0.1805 -0.1339
  391MOL0     C51486   7.989   3.249   1.110  0.1439 -0.2253 -0.4533
  391MOL0     C51487   7.944   3.376   1.146 -0.1502 -0.3705 -0.3009
  391MOL0     O51488   7.813   3.402   1.113  0.0051  0.2658 -0.7293
  391MOL0     C51489   7.754   3.519   1.163  0.1778 -0.8769  0.2125
  391MOL0     C51490   7.611   3.476   1.178  0.2585  0.7876 -0.2753
  391MOL0     C51491   7.501   3.580   1.209 -0.4281 -0.3897 -0.3364
  391MOL0     C51492   7.478   3.581   1.358  0.4369 -0.7361  1.0776
  391MOL0     C51493   7.599   3.612   1.446  0.1438  0.3591  0.5368
  391MOL0     C51494   7.572   3.598   1.599  0.5455 -0.5347  0.4792
  391MOL0     C51495   7.555   3.741   1.649  0.1280 -1.0397 -0.1792
  391MOL0     C51496   7.544   3.755   1.802  0.0857 -0.1560  0.8091
  391MOL0     N51497   7.666   3.752   1.873 -0.3235  0.4949  0.4683
  391MOL0     C51498   7.768   3.847   1.871  0.5501 -0.2059 -0.1648
  391MOL0     C51499   7.871   3.775   1.930  0.2233  0.3867  0.2043
  391MOL0     C51500   8.003   3.821   1.981 -0.5631  0.0163  0.3695
  391MOL0     C51501   7.969   3.893   2.114 -0.6471  0.9719 -0.8566
  391MOL0     C51502   8.092   3.961   2.187 -0.2674  0.6015 -0.6116
  391MOL0     C51503   8.177   4.054   2.095  0.5779  0.9858  0.2898
  391MOL0     O51504   8.094   4.163   2.048 -0.4938  0.2643 -0.2358
  391MOL0     C51505   8.148   4.286   2.009 -0.0014 -0.3121 -0.6098
  391MOL0     C51506   8.063   4.396   2.018  0.2297 -1.1803  0.8700
  391MOL0     C51507   8.112   4.535   1.999  0.5312  0.8182  0.3275
  391MOL0     C51508   8.244   4.567   1.969 -0.0488  0.3227  0.0429
  391MOL0     C51509   8.279   4.705   1.950 -1.1446 -0.3073 -0.8061
  391MOL0     O51510   8.209   4.803   2.020  0.0917  0.0728 -0.1178
  391MOL0     C51511   8.240   4.935   1.984  0.6699  0.9047 -0.7389
  391MOL0     C51512   8.298   5.001   2.096  0.5771  0.4619  1.2634
  391MOL0     C51513   8.320   5.141   2.085 -0.1435 -0.7569  0.3248
  391MOL0     C51514   8.287   5.214   1.958 -0.1762  0.5500  0.2272
  391MOL0     O51515   8.301   5.348   1.937  0.1924  0.1241 -0.1347
  391MOL0     C51516   8.442   5.393   1.940  0.8189  0.4167 -0.2581
  391MOL0     C51517   8.434   5.543   1.910 -0.0899  0.5842  0.8353
  391MOL0     C51518   8.394   5.612   2.040  0.7708 -0.3921  0.5128
  391MOL0     C51519   8.340   5.750   2.006 -0.1583 -0.5222 -0.0251
  391MOL0     C51520   8.240   5.804   2.106  0.2897 -0.1574 -1.3463
  391MOL0     C51521   8.311   5.876   2.218 -0.0219 -0.1785 -0.5691
  391MOL0     C51522   8.238   5.902   2.346  0.0009  0.8492  1.0750
  391MOL0     C51523   8.329   5.955   2.450 -0.2331 -0.0231 -0.4133
  391MOL0    Cl51524   8.250   5.933   2.618 -0.0588 -0.4093  0.3463
  391MOL0     C51525   8.240   5.132   1.854  0.7914  0.4628  0.2779
  391MOL0     C51526   8.213   4.995   1.860  0.6233 -0.5763 -0.3042
  391MOL0     O51527   8.387   4.725   1.887  0.2877  0.3879 -0.0553
  391MOL0     C51528   8.328   4.454   1.964 -0.2803 -0.3908  0.4603
  391MOL0     C51529   8.290   4.317   1.984 -0.8768  0.5587  0.0914
  391MOL0     N51530   7.826   3.656   1.976  0.2650 -0.1690 -0.5550
  391MOL0     N51531   7.703   3.639   1.936  0.0134 -0.6433 -1.0278
  391MOL0     C51532   8.037   3.467   1.198 -0.3549 -0.5081  0.0488
  391MOL0     C51533   8.173   3.423   1.229  0.6192 -0.0764  0.5536
  391MOL0     C51534   8.548   3.200   1.279  1.2690 -0.8278  0.8876
  391MOL0     C51535   8.582   3.141   1.152  0.2993  0.5196 -0.5854
  391MOL0     C51536   8.701   3.057   1.146  0.0882 -0.4493 -0.4933
  391MOL0     C51537   8.775   3.035   1.264  0.5186 -0.1133 -0.4513
  391MOL0     O51538   8.870   2.950   1.270  0.3654  0.4717 -0.1188
  391MOL0     C51539   8.838   2.812   1.231 -0.7747  0.1094 -0.0238
  391MOL0     C51540   8.961   2.768   1.146  0.1474 -0.4126  0.4792
  391MOL0     C51541   9.006   2.867   1.032  0.0716  1.3267  0.2806
  391MOL0     C51542   9.116   2.956   1.076 -0.9692 -0.5627  0.2767
  391MOL0     C51543   9.169   3.042   0.972 -0.6794  0.3354  0.1433
  391MOL0     C51544   9.196   3.125   0.889 -0.7435 -0.4496  0.4583
  391MOL0     C51545   8.748   3.110   1.378  0.8373 -1.0064  0.2754
  391MOL0     C51546   8.623   3.178   1.395 -0.0837  1.3335  0.0595
  391MOL0     H51547   8.161   3.105   1.127 -1.1834 -0.6610  1.4508
  391MOL0     H51548   7.929   3.170   1.064 -2.1923  0.0750  1.8481
  391MOL0     H51549   7.756   3.603   1.093  0.6042 -0.9301  0.1587
  391MOL0     H51550   7.799   3.561   1.254  2.1794  1.6988 -1.7977
  391MOL0     H51551   7.619   3.388   1.242  2.2279  1.7392  0.8616
  391MOL0     H51552   7.582   3.444   1.077 -2.2741  0.3441  0.5315
  391MOL0     H51553   7.416   3.537   1.156  0.9272 -0.9547 -2.1522
  391MOL0     H51554   7.536   3.676   1.172  1.8213 -1.2700 -0.6180
  391MOL0     H51555   7.398   3.653   1.377  1.4150  0.5499  0.5158
  391MOL0     H51556   7.442   3.480   1.379 -0.4175 -0.5437  0.5619
  391MOL0     H51557   7.629   3.714   1.419 -1.5984  0.9137  0.6057
  391MOL0     H51558   7.684   3.546   1.427  0.1832  0.1109  1.5440
  391MOL0     H51559   7.662   3.549   1.639 -0.8692 -4.1706 -0.3994
  391MOL0     H51560   7.493   3.528   1.623  2.4370 -2.8544  0.3095
  391MOL0     H51561   7.646   3.796   1.624  0.1641 -1.6475 -1.4625
  391MOL0     H51562   7.466   3.776   1.596 -0.4336 -1.3444  0.5530
  391MOL0     H51563   7.466   3.686   1.836 -0.7949  0.4034 -0.0305
  391MOL0     H51564   7.497   3.852   1.819 -1.8162 -0.9123  0.1633
  391MOL0     H51565   7.765   3.955   1.866  0.6289 -0.1702  0.5076
  391MOL0     H51566   8.053   3.891   1.912  3.0861  0.1804  2.8911
  391MOL0     H51567   8.071   3.740   2.009 -1.8488 -1.2836 -0.1490
  391MOL0     H51568   7.925   3.818   2.180 -1.7170  1.6578 -0.7639
  391MOL0     H51569   7.897   3.974   2.104 -0.5165  0.9652 -2.0060
  391MOL0     H51570   8.067   4.019   2.276  4.0383  1.8731 -0.0286
  391MOL0     H51571   8.147   3.876   2.230 -1.8211  0.1644  0.6078
  391MOL0     H51572   8.212   3.996   2.010 -2.5185  0.1028 -0.5041
  391MOL0     H51573   8.258   4.099   2.154  3.2742  1.2127 -3.2649
  391MOL0     H51574   7.957   4.391   2.040 -0.5562 -0.6703 -2.2346
  391MOL0     H51575   8.042   4.617   2.007 -1.4686 -0.3981 -2.6792
  391MOL0     H51576   8.311   4.948   2.190  2.0433  1.3895  1.6085
  391MOL0     H51577   8.365   5.207   2.158 -2.9623 -0.4553  1.9524
  391MOL0     H51578   8.496   5.335   1.864 -0.4223 -1.5952  0.3235
  391MOL0     H51579   8.496   5.375   2.034  1.2607 -2.3298 -0.9569
  391MOL0     H51580   8.360   5.570   1.834 -2.6124  0.2987  3.0349
  391MOL0     H51581   8.530   5.581   1.876  0.6995 -0.3510  1.9216
  391MOL0     H51582   8.484   5.624   2.102  2.8161  4.0320 -2.7115
  391MOL0     H51583   8.314   5.556   2.088  0.9044 -1.3360 -0.3251
  391MOL0     H51584   8.413   5.830   1.992 -0.3044 -0.3717  0.0809
  391MOL0     H51585   8.282   5.748   1.913 -0.2834  3.0487 -0.1308
  391MOL0     H51586   8.170   5.728   2.143  1.2081  0.2838  1.5356
  391MOL0     H51587   8.180   5.884   2.062  0.7559  2.9901  3.1383
  391MOL0     H51588   8.323   5.977   2.177 -4.6004 -0.4833 -3.2926
  391MOL0     H51589   8.402   5.823   2.248 -0.5076 -0.2939  0.7504
  391MOL0     H51590   8.150   5.964   2.326  1.3181  1.6964 -3.1918
  391MOL0     H51591   8.211   5.802   2.382  1.9730 -1.0605 -2.1698
  391MOL0     H51592   8.344   6.058   2.415  2.0543 -0.1355  0.0844
  391MOL0     H51593   8.428   5.910   2.453 -0.2701 -0.7289 -4.3719
  391MOL0     H51594   8.215   5.177   1.759  1.7224 -1.8020 -1.1211
  391MOL0     H51595   8.173   4.946   1.772 -3.7918  1.5098  0.3162
  391MOL0     H51596   8.434   4.468   1.947 -0.9306  1.3600 -2.9956
  391MOL0     H51597   8.363   4.237   1.988 -2.3597 -0.9056 -0.9224
  391MOL0     H51598   8.015   3.572   1.217 -0.5949  0.1816 -3.3341
  391MOL0     H51599   8.245   3.497   1.260  0.5655  0.3419 -0.2860
  391MOL0     H51600   8.519   3.161   1.066 -1.8012  1.0935  0.9895
  391MOL0     H51601   8.713   3.007   1.051 -2.3498  1.7466 -2.1144
  391MOL0     H51602   8.752   2.803   1.163  1.4467 -0.1627 -2.9608
  391MOL0     H51603   8.827   2.751   1.321 -0.4239 -1.4119 -0.9905
  391MOL0     H51604   9.041   2.761   1.221 -0.1091 -0.0961  0.7864
  391MOL0     H51605   8.945   2.668   1.106  0.3707 -0.0782 -0.4776
  391MOL0     H51606   8.914   2.919   1.003  0.9618  1.4825 -2.5580
  391MOL0     H51607   9.037   2.799   0.952  0.2613 -1.2006  2.3580
  391MOL0     H51608   9.072   3.022   1.151  0.3895  0.3767  0.2886
  391MOL0     H51609   9.205   2.904   1.114  2.1621  3.5074 -0.7431
  391MOL0     H51610   9.241   3.195   0.822 -0.4536  1.0553  2.1511
  391MOL0     H51611   8.820   3.102   1.458  0.5690 -0.0720  0.6243
  391MOL0     H51612   8.604   3.221   1.493  1.2445  0.8278  0.5801
  392MOL0     O51613   7.839   6.638   5.898  0.6302 -0.6277 -0.8362
  392MOL0     C51614   7.858   6.520   5.932  0.7765  0.1479  0.6375
  392MOL0     O51615   7.993   6.457   5.957  0.2014 -0.2340 -0.5373
  392MOL0     C51616   8.099   6.530   5.910 -1.0545  0.4478 -1.7573
  392MOL0     C51617   8.198   6.562   6.005  1.0575 -0.2320 -0.2451
  392MOL0     C51618   8.310   6.625   5.944 -0.5336  0.2135 -0.6482
  392MOL0     C51619   8.322   6.654   5.809 -0.5700 -0.2659  0.8694
  392MOL0     O51620   8.436   6.718   5.764  0.0626  0.0900  0.0541
  392MOL0     C51621   8.438   6.797   5.642  0.1281 -0.5847  0.0450
  392MOL0     C51622   8.523   6.726   5.543 -0.4302 -0.2157  0.3507
  392MOL0     C51623   8.535   6.813   5.421  0.7410  0.5541 -0.1239
  392MOL0     C51624   8.592   6.726   5.310 -0.3357  1.1235  0.1760
  392MOL0     C51625   8.593   6.781   5.172 -0.1936 -0.5408 -0.1633
  392MOL0     C51626   8.658   6.685   5.072 -0.2753 -0.3252  0.6964
  392MOL0     C51627   8.601   6.534   5.080 -0.0345  0.2587  0.2444
  392MOL0     C51628   8.459   6.529   5.039  0.2865  0.7362  0.0089
  392MOL0     N51629   8.419   6.389   5.044 -0.2503  0.1019  0.1656
  392MOL0     C51630   8.295   6.354   5.088 -0.4377 -0.0455  0.7069
  392MOL0     C51631   8.295   6.219   5.069 -0.5024  0.4982  0.0105
  392MOL0     C51632   8.176   6.137   5.081 -0.1936  0.0205 -0.6223
  392MOL0     C51633   8.164   6.036   4.973 -0.1577 -0.0807 -0.6169
  392MOL0     C51634   8.027   5.968   4.949  0.4985  0.0507  0.5467
  392MOL0     C51635   7.952   5.913   5.070 -0.4137 -0.2281 -0.5266
  392MOL0     O51636   7.823   5.849   5.034  0.0258 -0.6326  1.1089
  392MOL0     C51637   7.742   5.790   5.126  0.5839 -0.5752 -0.7359
  392MOL0     C51638   7.638   5.715   5.090 -0.5678 -0.9664 -0.0723
  392MOL0     C51639   7.561   5.642   5.183 -0.8521 -0.5122 -0.2528
  392MOL0     C51640   7.604   5.639   5.312 -0.7871 -0.1267  0.5273
  392MOL0     C51641   7.538   5.552   5.404  0.2707 -0.4494  0.5066
  392MOL0     O51642   7.402   5.557   5.393  0.1653  0.3711  0.8935
  392MOL0     C51643   7.333   5.459   5.455  0.9805 -0.3011 -0.0395
  392MOL0     C51644   7.276   5.356   5.380  0.9527 -0.6778 -0.2706
  392MOL0     C51645   7.194   5.266   5.451 -0.1734  0.4686  0.2135
  392MOL0     C51646   7.175   5.277   5.589 -0.5326  0.2391  0.8893
  392MOL0     O51647   7.095   5.181   5.639 -0.4041 -0.3191  0.1135
  392MOL0     C51648   7.073   5.165   5.780 -0.5683 -0.0478 -0.3614
  392MOL0     C51649   6.979   5.051   5.795  0.0683  0.8359  0.3004
  392MOL0     C51650   6.826   5.086   5.760 -0.2295 -1.0954 -0.2217
  392MOL0     C51651   6.717   5.015   5.821  0.4026  0.3182  0.3529
  392MOL0     C51652   6.693   4.873   5.762  0.0073  0.0965  0.4292
  392MOL0     C51653   6.597   4.784   5.854  0.7125  0.0251 -0.4283
  392MOL0     C51654   6.471   4.865   5.880  1.0185  1.3081  1.0117
  392MOL0     C51655   6.366   4.766   5.925 -0.8761 -0.7607 -0.2528
  392MOL0    Cl51656   6.194   4.829   5.932 -0.2126 -0.4126 -0.2185
  392MOL0     C51657   7.240   5.373   5.664 -0.1039 -0.0308 -0.0507
  392MOL0     C51658   7.325   5.468   5.601  1.4269  0.1522  0.1505
  392MOL0     O51659   7.606   5.485   5.484 -0.0487  0.3707 -0.0506
  392MOL0     C51660   7.717   5.723   5.352  0.0533  1.1408  1.0703
  392MOL0     C51661   7.776   5.809   5.264 -0.8573  0.1574  0.2751
  392MOL0     N51662   8.412   6.174   5.022  0.1514  0.3766 -0.3578
  392MOL0     N51663   8.490   6.276   5.011 -0.1556  0.7123 -1.1203
  392MOL0     C51664   8.222   6.611   5.721 -0.1088  0.2776  1.5993
  392MOL0     C51665   8.110   6.547   5.777 -0.4036  0.6644 -0.2998
  392MOL0     C51666   7.737   6.425   5.952 -0.2571  0.2207 -0.0905
  392MOL0     C51667   7.607   6.480   5.975 -0.7123  0.5377  0.1781
  392MOL0     C51668   7.502   6.399   6.007  0.0384  0.4073 -0.0885
  392MOL0     C51669   7.516   6.261   5.999 -0.3663  0.3071 -0.2608
  392MOL0     O51670   7.402   6.177   6.022 -0.3088  0.4527 -0.2206
  392MOL0     C51671   7.404   6.031   6.013 -0.7401 -0.2039  0.0002
  392MOL0     C51672   7.411   5.996   5.865  0.8160  0.3260 -1.2101
  392MOL0     C51673   7.483   5.860   5.861 -0.2636 -0.3160  0.8019
  392MOL0     C51674   7.475   5.805   5.717  0.4028  0.4893  0.3895
  392MOL0     C51675   7.536   5.896   5.625 -0.1269 -0.9770  0.5095
  392MOL0     C51676   7.620   5.950   5.550  0.1068 -0.3151  0.3091
  392MOL0     C51677   7.645   6.216   5.972 -0.2225 -0.0671  0.2914
  392MOL0     C51678   7.761   6.292   5.964 -0.2321  0.0828  0.1815
  392MOL0     H51679   8.199   6.548   6.113 -2.8737 -0.0416 -0.0473
  392MOL0     H51680   8.391   6.651   6.012 -0.0457 -1.3167 -0.6096
  392MOL0     H51681   8.482   6.895   5.661  2.7345 -1.6216 -0.1459
  392MOL0     H51682   8.341   6.825   5.600 -0.7068 -1.4570  1.3232
  392MOL0     H51683   8.487   6.625   5.518 -0.8113 -0.4311  1.6768
  392MOL0     H51684   8.620   6.721   5.592 -1.4539 -0.2343  2.5058
  392MOL0     H51685   8.599   6.898   5.444 -0.2150  0.4499  3.5079
  392MOL0     H51686   8.446   6.867   5.387  1.5188  1.6866 -0.4353
  392MOL0     H51687   8.691   6.694   5.342 -0.8124 -1.6540 -0.8729
  392MOL0     H51688   8.527   6.638   5.307 -1.0487  1.3774  3.7808
  392MOL0     H51689   8.666   6.862   5.178  0.7537 -1.3194 -0.8895
  392MOL0     H51690   8.505   6.824   5.123  1.5459  1.0710 -2.0364
  392MOL0     H51691   8.767   6.688   5.084  0.1867 -1.7994 -2.2153
  392MOL0     H51692   8.637   6.721   4.971 -0.2077 -0.2757  0.7000
  392MOL0     H51693   8.659   6.485   5.001 -2.9798  0.7913 -2.4125
  392MOL0     H51694   8.613   6.498   5.183 -0.9920  0.9102  0.6002
  392MOL0     H51695   8.441   6.566   4.938 -0.0444 -0.2645 -0.3145
  392MOL0     H51696   8.394   6.595   5.097 -0.4005  0.3450 -0.2985
  392MOL0     H51697   8.222   6.424   5.127 -2.7950 -2.5002  1.0297
  392MOL0     H51698   8.086   6.197   5.071  0.5058  0.8381 -2.4977
  392MOL0     H51699   8.172   6.077   5.172 -0.2158  2.1398  0.8373
  392MOL0     H51700   8.235   5.955   4.993  0.6341  0.8260  0.3543
  392MOL0     H51701   8.195   6.080   4.878 -1.2724  1.4457 -0.2989
  392MOL0     H51702   7.951   6.038   4.912  0.1346  0.2786  1.6903
  392MOL0     H51703   8.038   5.888   4.874  0.7554  0.6629 -0.0772
  392MOL0     H51704   7.922   6.001   5.128 -4.8353 -1.6025 -0.3900
  392MOL0     H51705   8.017   5.850   5.131 -0.9156  0.6124  0.9210
  392MOL0     H51706   7.612   5.713   4.985 -3.4931 -2.8265  0.5602
  392MOL0     H51707   7.485   5.567   5.161 -3.5504  1.5917  1.2888
  392MOL0     H51708   7.287   5.334   5.274 -1.2975 -0.9222 -0.5069
  392MOL0     H51709   7.137   5.184   5.409  0.2780  0.5525 -0.5682
  392MOL0     H51710   7.022   5.255   5.817 -3.6252 -0.8731 -2.1827
  392MOL0     H51711   7.162   5.146   5.840 -1.7734  0.1380  1.5772
  392MOL0     H51712   6.983   5.025   5.901 -0.0461  1.5490  0.4854
  392MOL0     H51713   7.015   4.969   5.733  0.8530  1.7270 -0.4714
  392MOL0     H51714   6.814   5.084   5.652 -3.6495 -1.1529  0.0675
  392MOL0     H51715   6.808   5.189   5.793 -1.1193 -0.9799 -1.0350
  392MOL0     H51716   6.742   5.001   5.927 -3.6985 -2.5403  1.1590
  392MOL0     H51717   6.621   5.067   5.815  0.8663  1.0211 -1.6783
  392MOL0     H51718   6.789   4.825   5.744  0.6832  2.3688 -2.9582
  392MOL0     H51719   6.652   4.884   5.661  1.1619 -0.8723 -0.1635
  392MOL0     H51720   6.652   4.762   5.946  0.2259  0.9568  0.0995
  392MOL0     H51721   6.579   4.688   5.805  1.6190  0.2982 -1.3290
  392MOL0     H51722   6.493   4.943   5.953  0.5734  1.2333  1.2249
  392MOL0     H51723   6.432   4.926   5.798 -0.4551 -0.3244  0.4367
  392MOL0     H51724   6.401   4.719   6.017  3.0642  0.4898 -0.9502
  392MOL0     H51725   6.358   4.687   5.849 -0.7367 -1.5920  0.5800
  392MOL0     H51726   7.224   5.375   5.771  0.1927  0.8484 -0.0170
  392MOL0     H51727   7.379   5.551   5.646  3.3437  1.5557 -4.2408
  392MOL0     H51728   7.755   5.739   5.452  0.7142 -1.3244  1.2817
  392MOL0     H51729   7.854   5.878   5.293 -1.8444  2.2034 -1.6751
  392MOL0     H51730   8.231   6.619   5.613  2.7774  0.3160  1.7601
  392MOL0     H51731   8.033   6.510   5.711 -0.8243  2.1742 -0.6847
  392MOL0     H51732   7.594   6.585   5.952  0.2344  0.4106 -1.0385
  392MOL0     H51733   7.410   6.452   6.025  0.9775  1.7847  0.8686
  392MOL0     H51734   7.326   5.981   6.071 -0.4558  0.1795  0.7254
  392MOL0     H51735   7.494   6.004   6.068  0.2474 -0.4268 -1.6631
  392MOL0     H51736   7.311   5.997   5.821  1.3266  1.5474 -2.4115
  392MOL0     H51737   7.472   6.062   5.802  1.7543 -1.3568 -2.1294
  392MOL0     H51738   7.432   5.793   5.930  0.4551 -3.6849 -1.6925
  392MOL0     H51739   7.588   5.874   5.886 -0.0664 -0.3692  0.0320
  392MOL0     H51740   7.538   5.716   5.712  1.0397  0.9738 -0.5259
  392MOL0     H51741   7.375   5.781   5.682  0.8449  0.4000 -0.8636
  392MOL0     H51742   7.696   6.006   5.499 -1.3315  0.2449 -1.2955
  392MOL0     H51743   7.661   6.110   5.957 -1.6819 -0.1444 -1.0416
  392MOL0     H51744   7.854   6.235   5.958 -2.5071 -3.8021 -2.0008
  393MOL0     O51745   2.403   1.461   5.943 -0.2574  0.2129  0.1688
  393MOL0     C51746   2.390   1.343   5.897  0.2027  0.0682  0.3659
  393MOL0     O51747   2.481   1.259   5.855  0.0071 -0.1206 -0.3814
  393MOL0     C51748   2.603   1.302   5.793  0.3042  0.5838 -0.0919
  393MOL0     C51749   2.632   1.437   5.744 -0.3456  0.4442  0.2444
  393MOL0     C51750   2.740   1.452   5.662 -0.6268 -0.3575  0.4116
  393MOL0     C51751   2.843   1.354   5.648  0.4509 -1.1453  0.3917
  393MOL0     O51752   2.956   1.374   5.576 -0.1344 -0.5241 -0.6007
  393MOL0     C51753   3.080   1.379   5.655  0.4781  0.1558  0.3220
  393MOL0     C51754   3.083   1.505   5.751  0.5612 -0.2946  0.0137
  393MOL0     C51755   3.204   1.494   5.855 -0.3643  0.4664  0.8377
  393MOL0     C51756   3.232   1.601   5.964  0.8562  0.4189 -1.0862
  393MOL0     C51757   3.322   1.549   6.081  0.5500  0.1814 -0.1465
  393MOL0     C51758   3.355   1.645   6.199  0.0621  0.2819  0.1229
  393MOL0     C51759   3.461   1.745   6.165  0.4538  0.1420 -0.9446
  393MOL0     C51760   3.501   1.840   6.290 -0.2150  0.5275  0.4708
  393MOL0     N51761   3.562   1.970   6.251  0.1068  0.5380 -0.4808
  393MOL0     C51762   3.512   2.062   6.170  0.5249 -0.2179 -0.2024
  393MOL0     C51763   3.610   2.161   6.179  1.0734 -0.4718  0.5563
  393MOL0     C51764   3.599   2.288   6.092 -0.7173  0.3808  0.2560
  393MOL0     C51765   3.688   2.290   5.976  0.1779  0.5366  0.6094
  393MOL0     C51766   3.670   2.411   5.880 -0.3675 -1.5056  0.2597
  393MOL0     C51767   3.753   2.395   5.753 -0.2685  0.2806  0.1552
  393MOL0     O51768   3.743   2.266   5.691 -0.1896  0.0962 -0.5437
  393MOL0     C51769   3.626   2.249   5.615  0.4137  0.3386 -0.2478
  393MOL0     C51770   3.525   2.172   5.662  0.8599  0.3561  0.7241
  393MOL0     C51771   3.421   2.138   5.574  0.5343  0.5053  0.1645
  393MOL0     C51772   3.426   2.165   5.434 -0.5279 -0.1218  0.2391
  393MOL0     C51773   3.312   2.123   5.355  0.0431 -0.6031 -0.5435
  393MOL0     O51774   3.305   2.158   5.218 -0.1606 -0.5191  0.0774
  393MOL0     C51775   3.190   2.152   5.149  0.5229 -0.8183  0.4673
  393MOL0     C51776   3.153   2.053   5.069 -0.0617  0.4762 -0.0444
  393MOL0     C51777   3.017   2.044   5.022  0.2298 -0.5621  0.4503
  393MOL0     C51778   2.931   2.152   5.029  1.2109  0.2105  0.8875
  393MOL0     O51779   2.812   2.139   4.965  0.2925 -0.1313  0.8527
  393MOL0     C51780   2.716   2.252   4.963 -0.1627 -0.3677 -1.5410
  393MOL0     C51781   2.589   2.208   4.876 -1.0100  0.3236  0.5513
  393MOL0     C51782   2.518   2.076   4.919  0.1984 -0.8322  0.0129
  393MOL0     C51783   2.386   2.068   4.838 -0.2665  0.7059 -0.1167
  393MOL0     C51784   2.289   1.966   4.905 -0.4444  0.7667 -0.0809
  393MOL0     C51785   2.152   1.965   4.839  0.9615  1.1594  0.6135
  393MOL0     C51786   2.066   1.852   4.898  0.0352 -0.7542 -0.8220
  393MOL0     C51787   1.967   1.802   4.795  0.4124 -0.2404  0.4589
  393MOL0    Cl51788   1.852   1.945   4.745  0.1312  0.0445 -0.3331
  393MOL0     C51789   2.975   2.261   5.105 -0.6242 -0.1773  0.3275
  393MOL0     C51790   3.105   2.266   5.159 -0.9520  0.8061  0.1310
  393MOL0     O51791   3.223   2.064   5.412 -0.6425  0.1902 -0.6635
  393MOL0     C51792   3.541   2.234   5.387  0.0866  0.1236  0.9720
  393MOL0     C51793   3.633   2.283   5.480 -0.4949  0.3250  0.2998
  393MOL0     N51794   3.702   2.135   6.277  0.2902 -0.6755 -0.3595
  393MOL0     N51795   3.671   2.017   6.327 -0.8761  0.2829 -0.0962
  393MOL0     C51796   2.824   1.229   5.712  0.8782 -0.7320 -0.2854
  393MOL0     C51797   2.707   1.207   5.783 -0.0299  0.9565  0.2516
  393MOL0     C51798   2.250   1.294   5.889  0.5323 -0.1741  0.9898
  393MOL0     C51799   2.217   1.161   5.851 -0.5762 -0.0939 -0.2613
  393MOL0     C51800   2.084   1.122   5.820  0.3829  0.1697 -0.0180
  393MOL0     C51801   1.983   1.215   5.817 -0.7317  0.4675 -0.2349
  393MOL0     O51802   1.860   1.168   5.765 -0.6232  0.6236  0.0393
  393MOL0     C51803   1.742   1.249   5.745 -0.6630 -0.2919  0.4293
  393MOL0     C51804   1.619   1.155   5.773  0.2028 -0.2693 -0.4279
  393MOL0     C51805   1.482   1.222   5.779 -0.1949  0.2435 -0.3521
  393MOL0     C51806   1.379   1.107   5.766 -0.4095 -0.4591  0.0128
  393MOL0     C51807   1.261   1.187   5.799 -0.2755  0.6075 -0.9798
  393MOL0     C51808   1.160   1.241   5.820  0.5915 -0.4785 -0.0796
  393MOL0     C51809   2.005   1.345   5.859 -0.6055  0.6935 -0.2722
  393MOL0     C51810   2.134   1.380   5.900  0.1192 -0.6544 -0.3460
  393MOL0     H51811   2.585   1.531   5.773 -0.0817  0.1107  1.8455
  393MOL0     H51812   2.765   1.549   5.621 -3.2170  0.6374  1.0028
  393MOL0     H51813   3.168   1.386   5.591  2.2427 -1.2169  2.4312
  393MOL0     H51814   3.088   1.283   5.708 -0.5464 -0.1129  0.0213
  393MOL0     H51815   2.987   1.515   5.802 -0.6209 -2.0307 -1.7124
  393MOL0     H51816   3.091   1.598   5.693  0.6860  0.5306  1.3097
  393MOL0     H51817   3.291   1.505   5.790  0.9205  1.2573  2.6039
  393MOL0     H51818   3.200   1.391   5.890  1.6150 -1.3803 -3.6504
  393MOL0     H51819   3.285   1.680   5.911 -1.8692  2.0440 -1.5834
  393MOL0     H51820   3.135   1.636   6.001  0.8642  0.5113 -1.1544
  393MOL0     H51821   3.414   1.517   6.031 -0.5343 -2.2345 -0.7682
  393MOL0     H51822   3.279   1.454   6.115 -1.0824 -0.3865 -3.3211
  393MOL0     H51823   3.395   1.586   6.282  0.6002  1.2573  0.5712
  393MOL0     H51824   3.260   1.684   6.237 -0.2364  1.6823 -1.9086
  393MOL0     H51825   3.553   1.698   6.128  1.7268  1.2264  0.6982
  393MOL0     H51826   3.418   1.803   6.083  0.7279  0.0568 -1.1510
  393MOL0     H51827   3.565   1.780   6.355  0.9950  0.6517 -0.5703
  393MOL0     H51828   3.404   1.855   6.337 -1.7444 -2.3909 -1.4645
  393MOL0     H51829   3.428   2.047   6.102  1.9359 -1.0167 -1.8514
  393MOL0     H51830   3.621   2.375   6.155 -0.2506 -1.2084  2.4413
  393MOL0     H51831   3.496   2.293   6.057 -0.5439  0.5174 -0.2420
  393MOL0     H51832   3.658   2.203   5.916 -0.5677  3.0354 -2.9506
  393MOL0     H51833   3.793   2.301   6.002  0.7030  0.1140 -1.1420
  393MOL0     H51834   3.563   2.403   5.859 -0.9431 -1.3806  2.8105
  393MOL0     H51835   3.690   2.510   5.921 -2.3790  0.2623 -2.6972
  393MOL0     H51836   3.860   2.409   5.771 -0.9415  3.1864  3.0124
  393MOL0     H51837   3.732   2.468   5.674  0.7784  0.6735  0.2343
  393MOL0     H51838   3.515   2.139   5.765 -1.9309 -0.4488  0.2752
  393MOL0     H51839   3.326   2.094   5.602  0.2629  0.2106 -1.1585
  393MOL0     H51840   3.214   1.964   5.060  3.3164  2.1179  3.5830
  393MOL0     H51841   2.997   1.946   4.978 -2.3086 -0.8591  2.0356
  393MOL0     H51842   2.756   2.348   4.930 -0.0964  0.3135  0.3779
  393MOL0     H51843   2.672   2.259   5.063  2.1296  1.3225 -0.5546
  393MOL0     H51844   2.617   2.201   4.771  0.0444  1.4838  0.7268
  393MOL0     H51845   2.508   2.280   4.888  0.4695  1.8239  2.2309
  393MOL0     H51846   2.493   2.070   5.025 -1.4789  0.3012 -0.2920
  393MOL0     H51847   2.578   1.986   4.901 -0.8644 -1.4260 -0.6854
  393MOL0     H51848   2.337   2.166   4.836 -1.7302  0.0809  1.9431
  393MOL0     H51849   2.400   2.037   4.734  0.1025 -1.2827  0.4707
  393MOL0     H51850   2.286   1.982   5.013 -0.5429  3.7455 -0.4553
  393MOL0     H51851   2.334   1.866   4.895 -1.8688  0.1315 -0.4889
  393MOL0     H51852   2.154   1.949   4.730 -1.3282  3.4020  0.1415
  393MOL0     H51853   2.099   2.059   4.857 -3.2004 -1.5197  4.3072
  393MOL0     H51854   2.128   1.774   4.942  3.7526  0.8880 -2.6725
  393MOL0     H51855   2.007   1.900   4.977 -1.4077 -0.6933 -1.8845
  393MOL0     H51856   1.904   1.726   4.841 -1.5738  0.3115 -1.2120
  393MOL0     H51857   2.006   1.757   4.704  0.1805  2.3475 -1.0130
  393MOL0     H51858   2.909   2.346   5.115 -1.5330 -0.6626 -1.1895
  393MOL0     H51859   3.132   2.339   5.235  0.1524  0.9962 -0.4265
  393MOL0     H51860   3.548   2.258   5.281 -1.8894  1.7250  1.1431
  393MOL0     H51861   3.713   2.344   5.440 -0.7812  1.2491  1.1149
  393MOL0     H51862   2.903   1.154   5.703 -0.6947 -2.7431  1.6814
  393MOL0     H51863   2.690   1.114   5.836 -3.9555  1.3289 -0.0223
  393MOL0     H51864   2.296   1.089   5.836 -0.0537  0.3902  0.0973
  393MOL0     H51865   2.062   1.021   5.787 -2.0039 -0.0633  2.0189
  393MOL0     H51866   1.748   1.282   5.641 -2.1129 -2.4497 -0.4047
  393MOL0     H51867   1.740   1.336   5.812  2.6980  0.8457 -0.7043
  393MOL0     H51868   1.625   1.071   5.703  1.0147 -1.9858  1.6028
  393MOL0     H51869   1.641   1.112   5.871  2.2310  0.1088 -0.6683
  393MOL0     H51870   1.467   1.298   5.702  5.2950  5.0231  2.5017
  393MOL0     H51871   1.462   1.270   5.875 -0.0025  0.7784 -0.5808
  393MOL0     H51872   1.361   1.067   5.666 -0.2514  3.1867 -1.6394
  393MOL0     H51873   1.400   1.029   5.839 -1.5567  0.3589  1.2543
  393MOL0     H51874   1.084   1.306   5.860  0.9183 -0.7684  1.0577
  393MOL0     H51875   1.926   1.419   5.871 -0.0627  1.3820 -0.8807
  393MOL0     H51876   2.147   1.479   5.942  2.4943  0.4520 -3.2792
  394MOL0     O51877   3.779  10.731   7.271 -0.6339 -0.8636 -0.6064
  394MOL0     C51878   3.811  10.848   7.259  0.8263  0.1283 -0.0704
  394MOL0     O51879   3.935  10.900   7.249  1.1476  0.2011 -0.2393
  394MOL0     C51880   4.043  10.818   7.261 -0.4508 -0.7972 -0.2018
  394MOL0     C51881   4.070  10.684   7.216  0.7198 -0.0988 -0.4678
  394MOL0     C51882   4.196  10.626   7.217 -0.0545 -0.7085  0.1369
  394MOL0     C51883   4.305  10.698   7.268 -0.8306 -0.2645 -0.2058
  394MOL0     O51884   4.436  10.654   7.283  0.3549 -0.1835  0.7897
  394MOL0     C51885   4.492  10.549   7.197  0.3398  0.8619 -1.0210
  394MOL0     C51886   4.611  10.481   7.269 -0.6469 -0.0955 -0.2072
  394MOL0     C51887   4.672  10.355   7.204 -0.3522 -0.5480  0.1915
  394MOL0     C51888   4.570  10.259   7.155  0.7184  0.3055 -0.5440
  394MOL0     C51889   4.657  10.140   7.107 -0.4030  0.0262  0.6516
  394MOL0     C51890   4.586  10.028   7.025 -0.7443  0.6351  0.1893
  394MOL0     C51891   4.678   9.903   6.992  0.3600  0.0460 -0.0069
  394MOL0     C51892   4.775   9.952   6.882 -0.0009 -0.0391 -1.1415
  394MOL0     N51893   4.859   9.844   6.840 -0.2880  0.5973 -0.2157
  394MOL0     C51894   4.827   9.745   6.745 -0.5451  0.6362  0.8589
  394MOL0     C51895   4.938   9.658   6.745  0.6162  0.2058  0.4375
  394MOL0     C51896   4.952   9.517   6.694  1.2176 -0.2699 -0.1091
  394MOL0     C51897   4.967   9.503   6.539  0.2369 -0.1860  0.0196
  394MOL0     C51898   5.086   9.582   6.491 -0.8179  0.5165 -0.4304
  394MOL0     C51899   5.097   9.555   6.336 -0.3091 -0.5339 -0.1731
  394MOL0     O51900   5.221   9.620   6.290 -0.3743 -0.1695  0.6922
  394MOL0     C51901   5.225   9.635   6.155 -0.2962  0.3040 -0.2259
  394MOL0     C51902   5.162   9.549   6.061 -0.1686 -0.5094  0.1749
  394MOL0     C51903   5.181   9.575   5.928 -0.1665  0.5341  0.5043
  394MOL0     C51904   5.258   9.683   5.881  0.4945 -0.0737  0.1566
  394MOL0     C51905   5.271   9.707   5.737 -0.1669 -0.3503  0.3668
  394MOL0     O51906   5.177   9.637   5.661  0.5427 -0.3496 -0.1368
  394MOL0     C51907   5.141   9.683   5.532  0.2636 -0.1823  0.6649
  394MOL0     C51908   5.215   9.768   5.443  0.6610  0.3480 -0.8280
  394MOL0     C51909   5.167   9.809   5.318 -0.6867 -0.3839 -1.3905
  394MOL0     C51910   5.041   9.770   5.280  0.6129  0.4833  0.4152
  394MOL0     O51911   4.989   9.792   5.158 -0.1323 -0.6681 -0.3541
  394MOL0     C51912   4.928   9.920   5.134 -0.8869  0.8600 -0.1625
  394MOL0     C51913   4.923   9.945   4.985 -0.5567 -0.3502  0.0499
  394MOL0     C51914   5.051   9.885   4.921  0.2366 -0.3120 -0.1965
  394MOL0     C51915   5.046   9.898   4.766 -0.0417 -0.0545  0.1140
  394MOL0     C51916   5.175   9.963   4.716 -0.0070 -0.7160 -0.1280
  394MOL0     C51917   5.195  10.114   4.735  0.1765 -0.1369  0.5750
  394MOL0     C51918   5.296  10.151   4.634  0.3388 -0.0852  0.6700
  394MOL0     C51919   5.316  10.310   4.648  0.9306  1.1064  0.5180
  394MOL0    Cl51920   5.151  10.393   4.644  0.2652  0.6553 -0.1168
  394MOL0     C51921   4.962   9.688   5.361 -0.5173  0.1289  0.6320
  394MOL0     C51922   5.016   9.639   5.483  0.1717 -0.3531  0.8808
  394MOL0     O51923   5.353   9.793   5.701  0.7385  0.1059 -1.0149
  394MOL0     C51924   5.321   9.767   5.971  0.6722 -0.3871 -0.6447
  394MOL0     C51925   5.308   9.744   6.105 -0.4446 -0.2576 -0.3450
  394MOL0     N51926   5.023   9.704   6.843  0.3615  0.0630  0.0781
  394MOL0     N51927   4.984   9.814   6.893  0.3649  0.1338  0.0241
  394MOL0     C51928   4.278  10.816   7.335  0.6968  0.0680  0.3212
  394MOL0     C51929   4.153  10.875   7.323 -0.9115  0.8947  0.4973
  394MOL0     C51930   3.700  10.945   7.235 -0.3587  1.1840  0.4028
  394MOL0     C51931   3.714  11.077   7.185 -0.7035  1.2653  1.1109
  394MOL0     C51932   3.605  11.156   7.157  0.2556  0.2994  0.2842
  394MOL0     C51933   3.471  11.109   7.199 -1.0179 -0.2514 -0.3304
  394MOL0     O51934   3.355  11.170   7.169  1.1557  0.6858 -0.7237
  394MOL0     C51935   3.354  11.296   7.115 -0.3638  0.6532  1.1950
  394MOL0     C51936   3.380  11.285   6.965  0.6511 -0.2057 -0.5969
  394MOL0     C51937   3.257  11.223   6.898  0.5033 -0.5863  0.2938
  394MOL0     C51938   3.292  11.199   6.751  1.1133 -1.1915 -0.0922
  394MOL0     C51939   3.323  11.065   6.715 -0.3411  0.0561 -0.5667
  394MOL0     C51940   3.364  10.960   6.684  0.4807  0.6971 -0.0310
  394MOL0     C51941   3.455  10.982   7.247  0.7787  0.5463 -0.3381
  394MOL0     C51942   3.567  10.896   7.258 -1.0453 -0.2457 -0.8702
  394MOL0     H51943   3.995  10.619   7.170  0.2455  0.3320 -0.3180
  394MOL0     H51944   4.208  10.524   7.180  2.2549 -0.3929 -0.1399
  394MOL0     H51945   4.527  10.577   7.097  1.7349 -0.9210 -1.0719
  394MOL0     H51946   4.413  10.474   7.197 -1.1588  2.3314  0.8427
  394MOL0     H51947   4.584  10.465   7.374  0.6124 -0.4115  0.0870
  394MOL0     H51948   4.698  10.547   7.271 -0.9898  0.3500  0.8564
  394MOL0     H51949   4.738  10.304   7.276  0.1802  2.6407  2.1528
  394MOL0     H51950   4.735  10.391   7.122  1.1860  2.3638  2.4368
  394MOL0     H51951   4.501  10.224   7.232  0.4533 -0.1322 -0.9663
  394MOL0     H51952   4.504  10.301   7.078 -0.4963  0.8161  0.7443
  394MOL0     H51953   4.703  10.093   7.195 -0.6312  0.8997  1.2432
  394MOL0     H51954   4.742  10.175   7.047  0.6456 -1.3527  1.2562
  394MOL0     H51955   4.549  10.082   6.938 -1.6595  2.1152  1.4504
  394MOL0     H51956   4.503   9.999   7.089 -1.2308  0.1369 -0.6567
  394MOL0     H51957   4.729   9.873   7.085 -0.6602  1.8019  1.1674
  394MOL0     H51958   4.612   9.819   6.967  0.2978 -0.5955  2.0963
  394MOL0     H51959   4.834  10.027   6.935  0.6898 -2.8560  2.4584
  394MOL0     H51960   4.726   9.973   6.787 -0.2771 -2.9763 -1.7303
  394MOL0     H51961   4.736   9.722   6.690  0.6204 -3.1482  0.2222
  394MOL0     H51962   4.867   9.460   6.734  2.3660 -0.7547  1.7184
  394MOL0     H51963   5.040   9.477   6.745  0.1783 -0.1051  1.9417
  394MOL0     H51964   4.874   9.531   6.489 -1.5616 -0.4410  2.9848
  394MOL0     H51965   4.982   9.396   6.525 -0.2742 -0.6054  2.2034
  394MOL0     H51966   5.065   9.687   6.512 -0.8595  0.3856  0.2175
  394MOL0     H51967   5.174   9.550   6.547 -1.1524 -0.7279 -0.5784
  394MOL0     H51968   5.013   9.594   6.279  1.9893  0.0636 -3.4557
  394MOL0     H51969   5.104   9.446   6.328  0.7160 -0.8968  3.6399
  394MOL0     H51970   5.104   9.464   6.098 -1.7409  0.1942 -0.5782
  394MOL0     H51971   5.135   9.513   5.852  0.5943  1.2237 -0.5474
  394MOL0     H51972   5.314   9.796   5.480  0.0250 -1.9068  3.1301
  394MOL0     H51973   5.231   9.866   5.251  0.1610 -0.4477 -0.6653
  394MOL0     H51974   4.997   9.983   5.191 -0.7724 -1.7412  2.8960
  394MOL0     H51975   4.827   9.926   5.177 -0.4124  0.4895  1.0377
  394MOL0     H51976   4.936  10.052   4.965  1.9974 -0.9222 -1.7764
  394MOL0     H51977   4.835   9.901   4.938 -0.4096  1.7898 -2.4604
  394MOL0     H51978   5.071   9.777   4.929 -0.0908 -0.5372 -1.9823
  394MOL0     H51979   5.137   9.940   4.962  1.6947 -2.2432 -0.4911
  394MOL0     H51980   5.020   9.800   4.724 -1.4509  1.1672 -2.0801
  394MOL0     H51981   4.974   9.967   4.721 -0.5466 -1.0588 -0.6817
  394MOL0     H51982   5.167   9.952   4.607  0.2255 -0.8508 -0.1313
  394MOL0     H51983   5.260   9.917   4.766  1.1504  0.9495 -0.4793
  394MOL0     H51984   5.243  10.141   4.830  1.6178  0.3979 -0.2745
  394MOL0     H51985   5.099  10.168   4.734  0.7829  1.0317  1.9645
  394MOL0     H51986   5.396  10.112   4.657  0.7293  2.0857  3.1005
  394MOL0     H51987   5.271  10.122   4.532  0.1211 -0.5429  0.8476
  394MOL0     H51988   5.380  10.352   4.570 -0.3128 -0.5066 -1.4668
  394MOL0     H51989   5.369  10.323   4.743 -2.0642 -1.0888  2.6764
  394MOL0     H51990   4.863   9.664   5.326 -0.4503 -2.5663  1.9976
  394MOL0     H51991   4.957   9.576   5.548 -1.6758  1.3582  0.9681
  394MOL0     H51992   5.374   9.845   5.917  3.2424 -3.1016 -2.3526
  394MOL0     H51993   5.365   9.813   6.165 -0.3082 -1.1930  0.6252
  394MOL0     H51994   4.363  10.875   7.368  0.9153  0.0273 -0.1528
  394MOL0     H51995   4.154  10.976   7.364  2.6137  2.1910 -2.2380
  394MOL0     H51996   3.813  11.115   7.164  0.5621 -3.6705 -4.7184
  394MOL0     H51997   3.623  11.250   7.105 -0.4691 -1.3343 -3.2352
  394MOL0     H51998   3.439  11.353   7.155  5.2431 -4.1120 -2.2751
  394MOL0     H51999   3.260  11.350   7.130 -2.7810 -3.6033  3.1079
  394MOL0     H52000   3.401  11.384   6.924  0.5503 -0.0766 -0.3405
  394MOL0     H52001   3.466  11.219   6.953  1.3264 -0.3566  3.6929
  394MOL0     H52002   3.170  11.287   6.915  0.5658  0.0595 -1.5481
  394MOL0     H52003   3.233  11.129   6.948  0.0295  0.7017  2.6558
  394MOL0     H52004   3.210  11.222   6.682  2.0648  0.4919 -0.7513
  394MOL0     H52005   3.377  11.262   6.720  1.6689 -0.6291  2.3769
  394MOL0     H52006   3.384  10.862   6.646  2.0403  0.7889  0.5051
  394MOL0     H52007   3.353  10.951   7.265  0.2528  1.6316 -1.2983
  394MOL0     H52008   3.554  10.792   7.285  0.8347 -0.3402 -0.1985
  395MOL0     O52009   0.930   0.859   3.901 -0.2577  0.5547 -0.2484
  395MOL0     C52010   0.959   0.744   3.935  1.0732  0.8375  0.1313
  395MOL0     O52011   0.979   0.703   4.057  0.0910  0.1047 -0.1650
  395MOL0     C52012   1.110   0.713   4.101  0.0419 -0.3348  0.4142
  395MOL0     C52013   1.129   0.773   4.220 -0.3434  0.9213  0.0118
  395MOL0     C52014   1.260   0.789   4.264 -0.3792  1.3006  0.4597
  395MOL0     C52015   1.375   0.761   4.186 -0.2990 -0.1186  1.5143
  395MOL0     O52016   1.498   0.809   4.216  0.4491  0.0722  0.3113
  395MOL0     C52017   1.527   0.873   4.342 -0.2206 -1.2690  1.1330
  395MOL0     C52018   1.676   0.852   4.385 -0.3658 -0.1147 -0.6939
  395MOL0     C52019   1.768   0.898   4.282 -0.0471 -0.3857  0.3515
  395MOL0     C52020   1.910   0.848   4.310  0.3382  0.4415 -0.7639
  395MOL0     C52021   2.004   0.954   4.254  0.2036  0.1523  0.8486
  395MOL0     C52022   2.158   0.925   4.294  0.2658  0.1839 -0.4191
  395MOL0     C52023   2.253   1.021   4.235  0.7858 -0.8908  0.4844
  395MOL0     C52024   2.325   1.107   4.338  0.7771 -0.2049 -0.9991
  395MOL0     N52025   2.397   1.017   4.433 -0.0087 -0.7761  0.4880
  395MOL0     C52026   2.378   1.005   4.564  0.5433  0.2834  0.5805
  395MOL0     C52027   2.473   0.927   4.617  0.2069  0.1723 -0.2209
  395MOL0     C52028   2.509   0.891   4.759 -0.2846  1.6527 -0.8585
  395MOL0     C52029   2.526   0.999   4.866 -0.4763  0.5101 -0.1365
  395MOL0     C52030   2.396   1.060   4.925 -0.1425  0.4592  0.1375
  395MOL0     C52031   2.290   0.950   4.953  0.1495  0.0260 -0.2383
  395MOL0     O52032   2.166   1.002   5.008  0.5700 -0.5173 -0.0409
  395MOL0     C52033   2.092   1.081   4.927 -0.7007 -0.3072 -0.9959
  395MOL0     C52034   2.043   1.053   4.801 -0.4976  0.1041  0.0109
  395MOL0     C52035   1.972   1.149   4.732 -0.3662  0.2144  0.2452
  395MOL0     C52036   1.948   1.280   4.786 -0.7827 -0.0831 -0.3941
  395MOL0     C52037   1.881   1.381   4.706 -0.8523 -0.2470  0.3107
  395MOL0     O52038   1.822   1.337   4.588 -0.4712 -0.2272  0.9226
  395MOL0     C52039   1.758   1.432   4.501 -0.0970  0.3732  0.7908
  395MOL0     C52040   1.741   1.394   4.364  0.3790 -0.3539  0.2902
  395MOL0     C52041   1.675   1.475   4.268  0.7732 -0.9485 -0.0118
  395MOL0     C52042   1.622   1.606   4.304  1.0016 -0.1975 -0.9430
  395MOL0     O52043   1.542   1.673   4.216  0.2803 -0.0196 -0.0056
  395MOL0     C52044   1.536   1.816   4.216  0.3020 -0.9329  0.0602
  395MOL0     C52045   1.470   1.872   4.078  0.0109  0.6835  0.0148
  395MOL0     C52046   1.537   1.799   3.964  0.4769  0.0332  0.2612
  395MOL0     C52047   1.578   1.899   3.855  0.4210 -0.8431 -0.0179
  395MOL0     C52048   1.734   1.925   3.832 -0.4133  0.4650 -0.1377
  395MOL0     C52049   1.802   1.996   3.945 -0.0205  0.0637 -0.5655
  395MOL0     C52050   1.952   1.972   3.942  0.1494  0.0265  0.1928
  395MOL0     C52051   2.024   2.038   3.814  0.1724  0.3858 -1.4533
  395MOL0    Cl52052   2.007   1.916   3.686  0.0100 -0.3072  0.4393
  395MOL0     C52053   1.657   1.651   4.433  0.4951  0.3214  1.4668
  395MOL0     C52054   1.713   1.567   4.526 -0.4761 -0.1029  0.2857
  395MOL0     O52055   1.891   1.499   4.749 -0.0222  0.7239 -0.4094
  395MOL0     C52056   2.010   1.308   4.905 -0.0018  0.3558  0.8239
  395MOL0     C52057   2.083   1.214   4.969 -0.5540 -0.2867  0.0807
  395MOL0     N52058   2.549   0.883   4.510  0.5936  0.3506  0.4898
  395MOL0     N52059   2.496   0.927   4.394 -0.7558 -0.1111  0.2313
  395MOL0     C52060   1.347   0.692   4.068 -0.1288 -0.4486 -0.3074
  395MOL0     C52061   1.220   0.666   4.016 -0.0222  0.6213  0.0111
  395MOL0     C52062   0.942   0.652   3.834  0.0634  0.3035  0.8439
  395MOL0     C52063   0.933   0.680   3.698 -0.1141 -1.4346 -0.4355
  395MOL0     C52064   0.912   0.580   3.597 -0.2644  0.4293  1.1549
  395MOL0     C52065   0.907   0.447   3.632  0.0450 -0.4457  0.4057
  395MOL0     O52066   0.891   0.344   3.545  0.3688 -0.5148  0.1430
  395MOL0     C52067   1.003   0.265   3.528  0.1547 -0.0134 -1.2744
  395MOL0     C52068   1.110   0.320   3.433 -0.2939 -1.0853 -0.6563
  395MOL0     C52069   1.242   0.242   3.427  0.3953 -0.1160 -0.5756
  395MOL0     C52070   1.220   0.092   3.443  0.0026  0.2057 -0.1835
  395MOL0     C52071   1.140   0.031   3.334 -0.5150  0.0937  0.6646
  395MOL0     C52072   1.066  -0.021   3.255 -0.2629  0.9039  0.5457
  395MOL0     C52073   0.921   0.420   3.768  0.8253  0.5299 -0.3637
  395MOL0     C52074   0.923   0.513   3.871  1.1052  0.0782 -0.0592
  395MOL0     H52075   1.039   0.784   4.280 -1.8321 -1.6509 -1.5727
  395MOL0     H52076   1.267   0.812   4.370 -0.2683 -0.7333  0.9434
  395MOL0     H52077   1.456   0.829   4.413 -0.9499  1.0886  1.9598
  395MOL0     H52078   1.508   0.979   4.321 -0.6444 -1.8762 -2.0034
  395MOL0     H52079   1.694   0.747   4.410 -1.1762 -0.2183 -0.4977
  395MOL0     H52080   1.702   0.909   4.474  2.2542  0.3815 -1.7036
  395MOL0     H52081   1.756   1.007   4.289 -3.9285 -0.7692  3.2343
  395MOL0     H52082   1.726   0.853   4.191 -2.1835  2.2024 -0.0891
  395MOL0     H52083   1.927   0.841   4.417 -1.0843 -2.4200 -0.6197
  395MOL0     H52084   1.921   0.748   4.267 -0.3428  0.0723 -0.0828
  395MOL0     H52085   1.977   1.050   4.297  0.7627  1.0146 -0.6279
  395MOL0     H52086   2.001   0.970   4.146 -2.7681  1.1804  1.0181
  395MOL0     H52087   2.182   0.822   4.266  1.1884 -0.6893  3.1740
  395MOL0     H52088   2.163   0.941   4.402 -0.2213  2.2381 -0.6589
  395MOL0     H52089   2.336   0.968   4.187  4.2492  3.3331  1.2083
  395MOL0     H52090   2.211   1.078   4.151  1.7658 -1.1465 -0.1971
  395MOL0     H52091   2.253   1.164   4.396  0.2283  0.6662 -2.4910
  395MOL0     H52092   2.393   1.182   4.296  0.0793  0.6479 -0.6226
  395MOL0     H52093   2.307   1.060   4.625  0.7722  0.4216  0.7267
  395MOL0     H52094   2.607   0.844   4.756 -1.2271 -0.3840 -1.7756
  395MOL0     H52095   2.450   0.803   4.785  2.4733 -1.0326 -3.0872
  395MOL0     H52096   2.569   1.077   4.803  0.7013  0.1001  0.1247
  395MOL0     H52097   2.588   0.973   4.953 -1.2835 -2.2548 -0.2798
  395MOL0     H52098   2.410   1.117   5.017  0.1597  1.4870 -0.5282
  395MOL0     H52099   2.352   1.136   4.860 -0.2828 -0.2782 -0.6421
  395MOL0     H52100   2.338   0.874   5.015  2.6927  0.4930 -1.5069
  395MOL0     H52101   2.267   0.903   4.857  2.1061  2.3474 -1.9779
  395MOL0     H52102   2.056   0.956   4.755 -1.3606 -1.1894  2.2917
  395MOL0     H52103   1.929   1.120   4.637  0.8507 -0.8915 -0.0009
  395MOL0     H52104   1.786   1.303   4.327  1.5113  1.1145 -2.2694
  395MOL0     H52105   1.668   1.434   4.168  0.6151 -1.6569  0.2875
  395MOL0     H52106   1.635   1.859   4.230  1.0011 -2.9741  1.8996
  395MOL0     H52107   1.477   1.860   4.297  1.7330  1.5180 -0.1453
  395MOL0     H52108   1.473   1.981   4.069  1.0378  0.8153  1.4398
  395MOL0     H52109   1.365   1.843   4.089  0.7551 -1.3873  2.9906
  395MOL0     H52110   1.481   1.719   3.915  1.2860  0.9978 -2.3913
  395MOL0     H52111   1.628   1.754   4.003 -0.8443 -1.7428  1.4787
  395MOL0     H52112   1.551   1.878   3.751 -0.1606  2.6686 -0.7085
  395MOL0     H52113   1.530   1.996   3.873  0.4235 -1.1688  2.0787
  395MOL0     H52114   1.748   1.981   3.739  0.1357 -2.2539 -1.8093
  395MOL0     H52115   1.793   1.836   3.807  1.0979  0.5369  2.7509
  395MOL0     H52116   1.763   1.948   4.035 -0.4757  0.3310 -0.6145
  395MOL0     H52117   1.767   2.099   3.959  1.0724  0.4269 -0.3845
  395MOL0     H52118   2.002   2.012   4.031  1.4172  1.0989 -0.9519
  395MOL0     H52119   1.981   1.867   3.941  2.9373  0.6791 -2.8338
  395MOL0     H52120   2.123   2.068   3.850 -0.4076  1.7810 -0.9689
  395MOL0     H52121   1.976   2.132   3.786 -1.0241  0.4400  0.6351
  395MOL0     H52122   1.625   1.752   4.454  1.4310  1.6012 -2.3973
  395MOL0     H52123   1.730   1.618   4.620  1.6040  2.0560 -1.1446
  395MOL0     H52124   2.011   1.410   4.943  1.2908 -0.1068  2.1322
  395MOL0     H52125   2.144   1.245   5.053  2.4732 -1.5482 -1.4795
  395MOL0     H52126   1.433   0.680   4.002 -1.6654  3.1966 -3.2861
  395MOL0     H52127   1.219   0.639   3.911  3.2191  1.5443 -0.3783
  395MOL0     H52128   0.936   0.783   3.663 -0.8225 -1.7155 -1.3940
  395MOL0     H52129   0.902   0.608   3.493  3.8317 -3.1705 -0.5046
  395MOL0     H52130   0.971   0.174   3.475 -2.1572 -2.2536  3.3312
  395MOL0     H52131   1.039   0.225   3.623  1.3797 -1.3419 -2.2476
  395MOL0     H52132   1.067   0.331   3.333  0.2795 -0.4421 -0.8362
  395MOL0     H52133   1.132   0.423   3.461 -1.3798 -0.7134 -1.1217
  395MOL0     H52134   1.315   0.279   3.499  2.6367  0.0950 -2.7793
  395MOL0     H52135   1.272   0.249   3.322 -0.2980 -0.0890 -0.7762
  395MOL0     H52136   1.317   0.041   3.444 -0.7649 -1.3152 -0.4610
  395MOL0     H52137   1.174   0.084   3.541 -1.5140  1.7264 -0.7182
  395MOL0     H52138   1.005  -0.055   3.173 -0.8037  0.7122  1.0148
  395MOL0     H52139   0.907   0.314   3.787 -0.8320  0.5188 -1.4934
  395MOL0     H52140   0.913   0.469   3.970  1.0490 -1.8987 -0.8836
  396MOL0     O52141  10.416  11.112   1.673  0.4993 -0.0525 -0.4368
  396MOL0     C52142  10.391  11.183   1.582 -0.7859  0.7761  0.1032
  396MOL0     O52143  10.260  11.212   1.554 -0.6179  0.1513 -0.4797
  396MOL0     C52144  10.152  11.179   1.632  0.1817 -0.7092  0.3763
  396MOL0     C52145  10.138  11.095   1.737  1.1998 -0.1034 -0.3873
  396MOL0     C52146  10.014  11.073   1.792  0.0150  0.3279 -0.3002
  396MOL0     C52147   9.910  11.171   1.785 -0.1293 -0.0414  0.1882
  396MOL0     O52148   9.801  11.184   1.859  0.3314  0.2973 -0.2438
  396MOL0     C52149   9.809  11.136   2.004  0.1419  0.0347 -0.0500
  396MOL0     C52150   9.669  11.162   2.066 -0.0593 -0.1436 -0.8373
  396MOL0     C52151   9.650  11.317   2.091 -0.0659 -0.4170 -0.4314
  396MOL0     C52152   9.500  11.350   2.116  1.1333  0.3510 -0.4024
  396MOL0     C52153   9.463  11.491   2.159  0.4884  0.1085 -0.4925
  396MOL0     C52154   9.558  11.598   2.117 -0.8608 -1.1497  0.7356
  396MOL0     C52155   9.510  11.740   2.155 -0.1652 -0.0708 -0.7365
  396MOL0     C52156   9.587  11.854   2.082 -0.5023  0.0915 -0.5819
  396MOL0     N52157   9.564  11.995   2.128 -0.0291 -0.5318 -0.5634
  396MOL0     C52158   9.647  12.070   2.206 -0.1794 -0.6570  0.2881
  396MOL0     C52159   9.579  12.185   2.228  0.1935 -0.2843  0.3796
  396MOL0     C52160   9.648  12.292   2.305  0.2791 -0.5687  0.6776
  396MOL0     C52161   9.579  12.321   2.438  0.1416 -0.3203 -0.2777
  396MOL0     C52162   9.435  12.376   2.446 -0.6689  0.2762 -0.0481
  396MOL0     C52163   9.430  12.513   2.368  0.2897  0.3720 -0.3656
  396MOL0     O52164   9.293  12.561   2.353 -0.1614  0.1697 -0.3713
  396MOL0     C52165   9.214  12.507   2.254 -0.7495 -0.5875  0.0792
  396MOL0     C52166   9.247  12.396   2.174  0.6166  0.2784  0.4167
  396MOL0     C52167   9.168  12.354   2.066 -0.2563 -0.2261 -0.1902
  396MOL0     C52168   9.044  12.416   2.038 -0.6485  0.3081 -0.4733
  396MOL0     C52169   8.960  12.361   1.932 -0.0586  0.2416 -0.5436
  396MOL0     O52170   9.016  12.267   1.848 -0.0949 -0.1098 -0.9349
  396MOL0     C52171   8.930  12.207   1.761 -0.6436 -0.5183  0.4621
  396MOL0     C52172   8.821  12.130   1.803  0.2019 -0.4091  0.9086
  396MOL0     C52173   8.730  12.077   1.713  0.1641 -0.8020 -0.0451
  396MOL0     C52174   8.757  12.072   1.580 -0.1876  0.9787 -0.7736
  396MOL0     O52175   8.670  12.024   1.481  0.4383  0.2820 -0.4316
  396MOL0     C52176   8.602  11.902   1.524  0.5275  0.0897  0.1439
  396MOL0     C52177   8.541  11.850   1.391  0.1219 -0.6669 -0.9331
  396MOL0     C52178   8.482  11.719   1.409 -0.1890  0.0777  0.1369
  396MOL0     C52179   8.599  11.610   1.413  1.3927  0.1634 -0.1151
  396MOL0     C52180   8.545  11.465   1.426 -0.2758 -0.5705  0.0238
  396MOL0     C52181   8.650  11.358   1.385 -0.2780 -0.6908  0.5553
  396MOL0     C52182   8.584  11.219   1.372  0.1632 -0.3972 -0.3482
  396MOL0     C52183   8.691  11.116   1.412  0.7432 -0.1578  0.0870
  396MOL0    Cl52184   8.719  11.101   1.591  0.3694 -0.2205  0.2856
  396MOL0     C52185   8.874  12.140   1.536 -0.8747  1.1136 -1.3085
  396MOL0     C52186   8.968  12.205   1.628  0.2735 -0.9471  0.3885
  396MOL0     O52187   8.844  12.415   1.921 -0.0212 -0.4889 -0.0353
  396MOL0     C52188   9.016  12.534   2.122  0.6118 -0.1345  0.5426
  396MOL0     C52189   9.093  12.574   2.234 -0.2463 -0.1812  0.1472
  396MOL0     N52190   9.458  12.175   2.181 -0.1710  0.3908  0.2865
  396MOL0     N52191   9.442  12.057   2.133  0.0973 -0.2303  0.2512
  396MOL0     C52192   9.932  11.267   1.688 -0.2272  0.1299 -0.2035
  396MOL0     C52193  10.050  11.267   1.608 -0.5211 -0.3927 -0.2052
  396MOL0     C52194  10.489  11.224   1.479  0.2559 -0.4132  1.0909
  396MOL0     C52195  10.455  11.284   1.359 -0.7229  0.3016  1.1224
  396MOL0     C52196  10.552  11.288   1.255 -0.2465 -0.1232  0.8369
  396MOL0     C52197  10.690  11.267   1.278 -0.1403 -0.3302  0.0569
  396MOL0     O52198  10.806  11.299   1.207  0.4791 -0.0615 -0.2701
  396MOL0     C52199  10.801  11.351   1.077  0.1171 -0.5286 -0.0103
  396MOL0     C52200  10.777  11.495   1.075  0.3326 -1.3547 -0.1915
  396MOL0     C52201  10.894  11.590   1.137 -0.8044 -0.4397  1.2567
  396MOL0     C52202  10.862  11.733   1.112  0.9355 -1.0192  0.0707
  396MOL0     C52203  10.959  11.810   1.191  0.3226  0.8575  0.4845
  396MOL0     C52204  11.040  11.883   1.241  0.0759 -0.1196 -1.1169
  396MOL0     C52205  10.722  11.211   1.403 -0.0297  0.2129 -0.1751
  396MOL0     C52206  10.619  11.180   1.499 -0.0799 -0.6053  0.6886
  396MOL0     H52207  10.217  11.034   1.779  2.0064  0.0722 -1.5892
  396MOL0     H52208  10.012  10.992   1.863 -1.8755  1.7780  1.3941
  396MOL0     H52209   9.874  11.193   2.071 -3.1814  1.7996  1.9652
  396MOL0     H52210   9.833  11.029   1.996 -1.7040 -0.3978 -0.2757
  396MOL0     H52211   9.661  11.102   2.158  0.2922  0.8744 -0.1269
  396MOL0     H52212   9.606  11.123   1.986  1.0310  0.6549 -2.1268
  396MOL0     H52213   9.690  11.383   2.014 -1.0691  1.2893  0.4488
  396MOL0     H52214   9.707  11.337   2.182 -1.5346 -0.7626  0.6128
  396MOL0     H52215   9.443  11.335   2.024  0.4044 -1.8050  0.3577
  396MOL0     H52216   9.466  11.274   2.186  1.1295  1.0701  0.3981
  396MOL0     H52217   9.471  11.482   2.268  1.2523 -2.9842 -0.7287
  396MOL0     H52218   9.359  11.525   2.153  0.4536 -0.1609 -1.5550
  396MOL0     H52219   9.575  11.595   2.009 -1.8439 -0.9036  0.5599
  396MOL0     H52220   9.657  11.582   2.160 -1.2000 -0.5009  1.8025
  396MOL0     H52221   9.402  11.749   2.146 -0.5136 -1.2559  1.4624
  396MOL0     H52222   9.529  11.751   2.263 -3.2873 -0.1559 -0.1028
  396MOL0     H52223   9.542  11.849   1.982 -0.5093  0.3242 -0.5915
  396MOL0     H52224   9.694  11.835   2.072 -0.4306  1.0483 -1.8827
  396MOL0     H52225   9.754  12.061   2.220  0.3684  1.4781 -1.9005
  396MOL0     H52226   9.663  12.380   2.241  2.6618 -2.3127 -1.3283
  396MOL0     H52227   9.749  12.262   2.332  1.6447  2.4270 -0.6480
  396MOL0     H52228   9.637  12.401   2.484 -2.4441  1.2382  0.4803
  396MOL0     H52229   9.591  12.238   2.509  0.4506  0.9274  1.1846
  396MOL0     H52230   9.367  12.314   2.386 -1.0912  2.8123 -2.3546
  396MOL0     H52231   9.401  12.386   2.550 -1.7500  0.9398 -0.4479
  396MOL0     H52232   9.467  12.503   2.266  0.7236 -1.9923 -0.0513
  396MOL0     H52233   9.486  12.586   2.427  0.1646  0.3709 -0.2457
  396MOL0     H52234   9.350  12.365   2.187  0.1986 -1.5049 -0.1892
  396MOL0     H52235   9.212  12.272   2.010 -0.1037  0.1830 -0.6796
  396MOL0     H52236   8.802  12.129   1.909  2.1463 -1.9667  1.2889
  396MOL0     H52237   8.630  12.045   1.738 -1.1996  1.2430 -2.4331
  396MOL0     H52238   8.513  11.930   1.582 -0.5899 -4.3336  0.9070
  396MOL0     H52239   8.656  11.834   1.590 -0.5567  1.9514  3.1783
  396MOL0     H52240   8.623  11.851   1.319  1.8307 -0.5282  0.9133
  396MOL0     H52241   8.476  11.923   1.343 -1.2970 -0.8071  0.6603
  396MOL0     H52242   8.425  11.690   1.320  0.6610  0.9240 -0.7137
  396MOL0     H52243   8.433  11.712   1.506  1.1067 -0.3592  0.7849
  396MOL0     H52244   8.664  11.613   1.325 -2.3646  1.7119 -3.1765
  396MOL0     H52245   8.668  11.634   1.494  0.2923  1.3543  0.5172
  396MOL0     H52246   8.457  11.457   1.362  0.6765 -0.4574 -1.3619
  396MOL0     H52247   8.511  11.444   1.528  0.2204 -3.1765 -0.2903
  396MOL0     H52248   8.727  11.355   1.463 -0.5304 -1.5010  0.7849
  396MOL0     H52249   8.690  11.389   1.288  2.1411 -2.4389  0.8952
  396MOL0     H52250   8.496  11.197   1.434 -0.2103  2.0593  0.1136
  396MOL0     H52251   8.554  11.192   1.270 -1.2414  0.6263 -0.2333
  396MOL0     H52252   8.781  11.128   1.350  0.0159 -1.9358 -1.3850
  396MOL0     H52253   8.663  11.013   1.388  2.7030 -0.9648  0.9404
  396MOL0     H52254   8.907  12.125   1.433  1.6671 -0.2176 -0.3904
  396MOL0     H52255   9.056  12.255   1.588 -0.0644  0.7462  1.6340
  396MOL0     H52256   8.923  12.589   2.109  2.3627  2.5434 -1.6985
  396MOL0     H52257   9.072  12.648   2.310  1.7574 -3.1599  3.9707
  396MOL0     H52258   9.869  11.353   1.665  1.6389  1.8081  0.6394
  396MOL0     H52259  10.072  11.334   1.525  0.2001 -1.4202 -0.8561
  396MOL0     H52260  10.351  11.310   1.344 -0.9522 -0.2761  1.6530
  396MOL0     H52261  10.533  11.335   1.159 -0.9322 -0.6732  0.7007
  396MOL0     H52262  10.720  11.304   1.020  0.5006 -1.3756  0.1319
  396MOL0     H52263  10.896  11.331   1.027  1.5273 -2.8612  3.2962
  396MOL0     H52264  10.764  11.515   0.968  2.2656 -2.6774 -0.7463
  396MOL0     H52265  10.684  11.518   1.127  2.3970  0.5914  2.9755
  396MOL0     H52266  10.985  11.560   1.083 -1.6879  0.5426 -0.8760
  396MOL0     H52267  10.913  11.571   1.243  1.1713 -3.2315  0.5278
  396MOL0     H52268  10.887  11.764   1.010  0.2775  0.5740  0.3728
  396MOL0     H52269  10.761  11.768   1.135  0.6361 -0.6147 -1.6681
  396MOL0     H52270  11.119  11.938   1.287  1.0979  0.1066 -3.0425
  396MOL0     H52271  10.822  11.176   1.425  0.1873  0.9678  0.0701
  396MOL0     H52272  10.635  11.125   1.592  3.2888 -0.9449  0.0303
  397MOL0     O52273   4.120   7.442   4.341 -0.2665  0.1706 -0.1412
  397MOL0     C52274   4.217   7.500   4.288  0.0594 -0.1663  0.9904
  397MOL0     O52275   4.325   7.448   4.214 -0.2046  1.0899 -0.4717
  397MOL0     C52276   4.348   7.311   4.193 -0.1044 -0.2574 -0.3490
  397MOL0     C52277   4.292   7.209   4.274 -0.4862  0.7358  0.3605
  397MOL0     C52278   4.326   7.071   4.240  0.1425 -0.0699 -0.6678
  397MOL0     C52279   4.401   7.038   4.124 -0.2114 -0.0353 -0.6377
  397MOL0     O52280   4.435   6.907   4.092  0.1114  0.4744  0.1499
  397MOL0     C52281   4.319   6.821   4.069 -0.3839  0.0603  0.3695
  397MOL0     C52282   4.369   6.679   4.069 -0.1964 -0.0513  0.4758
  397MOL0     C52283   4.236   6.597   4.076 -0.1205  0.7692 -0.3111
  397MOL0     C52284   4.257   6.451   4.087  0.5100  0.1893 -0.6487
  397MOL0     C52285   4.334   6.389   3.971  0.2376 -0.2121  0.9993
  397MOL0     C52286   4.344   6.228   3.992 -0.1817  0.8232 -0.8245
  397MOL0     C52287   4.382   6.146   3.872 -0.8412  0.0713 -0.8205
  397MOL0     C52288   4.270   6.078   3.794 -0.4737  0.8763 -0.4172
  397MOL0     N52289   4.166   6.161   3.728 -0.1209 -0.5306  0.6183
  397MOL0     C52290   4.068   6.228   3.802 -0.7058  0.6624  1.1979
  397MOL0     C52291   4.016   6.318   3.708  0.2399 -0.1392 -0.2267
  397MOL0     C52292   3.908   6.405   3.752  0.4150  0.2946  1.1195
  397MOL0     C52293   3.953   6.536   3.816 -0.7751 -0.3275  0.7869
  397MOL0     C52294   4.033   6.630   3.721 -0.6001 -0.9826 -0.1575
  397MOL0     C52295   4.041   6.775   3.784 -0.4734  0.0695 -0.4272
  397MOL0     O52296   4.157   6.847   3.726 -0.3652 -0.2530  0.3188
  397MOL0     C52297   4.155   6.982   3.739 -0.7917  0.4419  0.0901
  397MOL0     C52298   4.064   7.059   3.821  0.0832 -0.1907  0.0453
  397MOL0     C52299   4.083   7.196   3.832  0.2435 -0.3056 -1.2932
  397MOL0     C52300   4.175   7.272   3.753  0.3141  0.2045 -0.3670
  397MOL0     C52301   4.187   7.420   3.760  0.7179  0.3562  0.8731
  397MOL0     O52302   4.107   7.490   3.841 -0.6157 -0.2850  0.2574
  397MOL0     C52303   4.125   7.619   3.875 -1.0377  0.5655  0.3021
  397MOL0     C52304   4.236   7.696   3.832 -0.3967  0.2079 -0.3236
  397MOL0     C52305   4.241   7.840   3.852  0.4682  0.2878 -0.2206
  397MOL0     C52306   4.138   7.901   3.938 -0.2176 -0.5493  1.2151
  397MOL0     O52307   4.152   8.028   3.989  0.0494 -0.3411 -0.6049
  397MOL0     C52308   4.229   8.121   3.906  0.2987 -0.1815 -0.4214
  397MOL0     C52309   4.181   8.269   3.937 -0.3737 -0.6784 -0.3136
  397MOL0     C52310   4.206   8.300   4.085  0.3806  1.4695 -1.3509
  397MOL0     C52311   4.278   8.436   4.115  0.1633  0.0806 -0.3329
  397MOL0     C52312   4.431   8.410   4.104  0.7165  0.0070 -0.3867
  397MOL0     C52313   4.500   8.545   4.091 -0.4215 -0.5885 -1.4919
  397MOL0     C52314   4.650   8.525   4.108  0.1177 -0.6317  0.3887
  397MOL0     C52315   4.738   8.653   4.112 -0.6964 -0.2148 -0.4715
  397MOL0    Cl52316   4.908   8.626   4.173 -0.0764 -0.4563  0.7947
  397MOL0     C52317   4.029   7.827   3.978 -0.3971 -0.2083  0.0505
  397MOL0     C52318   4.023   7.690   3.935  0.9349 -0.1675 -0.4542
  397MOL0     O52319   4.252   7.467   3.672 -0.0953 -0.3314 -0.1730
  397MOL0     C52320   4.273   7.194   3.684 -0.0807 -0.0863  0.2858
  397MOL0     C52321   4.259   7.055   3.679 -0.9813  0.0188 -0.7183
  397MOL0     N52322   4.083   6.306   3.584  0.4145  0.8935  0.6554
  397MOL0     N52323   4.182   6.216   3.603  0.7437  0.8193 -0.2194
  397MOL0     C52324   4.434   7.145   4.037 -0.3367 -0.0121 -0.6152
  397MOL0     C52325   4.419   7.277   4.079 -0.1805  0.1539  0.4812
  397MOL0     C52326   4.232   7.646   4.319  0.1588 -0.6719  1.3615
  397MOL0     C52327   4.324   7.723   4.245  1.6182  0.5993 -0.4121
  397MOL0     C52328   4.353   7.848   4.292 -0.6509  0.2952 -0.4125
  397MOL0     C52329   4.274   7.911   4.392 -0.0506  0.7486 -1.1843
  397MOL0     O52330   4.305   8.033   4.456  0.0077 -0.0613 -0.0904
  397MOL0     C52331   4.422   8.109   4.430 -0.0028 -0.6662  0.2007
  397MOL0     C52332   4.549   8.062   4.510  0.6436 -0.2575  0.0954
  397MOL0     C52333   4.638   8.185   4.509 -0.0742  0.2720 -0.7176
  397MOL0     C52334   4.766   8.161   4.572  0.5828 -0.2409  0.0911
  397MOL0     C52335   4.840   8.046   4.509  0.3385  0.0718  0.3037
  397MOL0     C52336   4.900   7.972   4.440 -0.2936  0.4229 -0.2827
  397MOL0     C52337   4.171   7.836   4.449 -0.0983 -1.1047  0.5592
  397MOL0     C52338   4.153   7.703   4.417 -1.0737 -1.0208 -0.3147
  397MOL0     H52339   4.225   7.240   4.354 -2.0830 -1.9075  0.1395
  397MOL0     H52340   4.304   7.001   4.320 -2.0470 -0.1634 -1.2889
  397MOL0     H52341   4.259   6.857   3.984 -1.4376  2.9639  2.2042
  397MOL0     H52342   4.256   6.839   4.156 -1.7728  1.0350 -0.7828
  397MOL0     H52343   4.446   6.652   4.141 -0.2971 -0.0302  0.5918
  397MOL0     H52344   4.422   6.673   3.974  1.7972  3.3038  1.2144
  397MOL0     H52345   4.175   6.617   3.987 -0.8378 -0.7333 -0.1947
  397MOL0     H52346   4.177   6.628   4.163 -0.0190  1.0969 -0.3575
  397MOL0     H52347   4.296   6.420   4.184  0.9215 -4.7729 -2.1090
  397MOL0     H52348   4.157   6.407   4.081  0.2311  0.8948 -1.3739
  397MOL0     H52349   4.431   6.435   3.950  2.2436 -4.1674  0.6428
  397MOL0     H52350   4.264   6.407   3.889 -0.2270 -4.1237  0.3832
  397MOL0     H52351   4.249   6.187   4.028  1.5017 -1.8349  0.9293
  397MOL0     H52352   4.416   6.216   4.074  1.2662  1.7155 -1.9214
  397MOL0     H52353   4.439   6.213   3.808 -2.2535  1.4606 -0.6740
  397MOL0     H52354   4.459   6.070   3.883 -0.5569  0.0531 -2.6167
  397MOL0     H52355   4.209   6.025   3.868  0.9501  2.8266  2.3401
  397MOL0     H52356   4.312   6.007   3.722 -0.0532 -0.2571  0.8847
  397MOL0     H52357   4.050   6.214   3.908  2.3295 -1.4636  1.5716
  397MOL0     H52358   3.840   6.346   3.814  1.6615 -0.7674  1.5030
  397MOL0     H52359   3.864   6.436   3.656  2.0446  1.0427  0.5811
  397MOL0     H52360   4.017   6.512   3.902 -1.7579  2.5277  2.4463
  397MOL0     H52361   3.863   6.582   3.857 -2.0036 -1.5372 -0.4858
  397MOL0     H52362   4.134   6.594   3.702 -0.3329 -0.6895  0.6526
  397MOL0     H52363   3.980   6.640   3.626  0.9706  4.6788 -0.8298
  397MOL0     H52364   4.044   6.764   3.892 -2.2363  0.6560 -0.2816
  397MOL0     H52365   3.948   6.826   3.756 -0.5232  0.7381  0.8800
  397MOL0     H52366   3.989   7.018   3.889 -1.0331 -0.5893 -1.3582
  397MOL0     H52367   4.023   7.257   3.898  0.3936  0.1189 -1.5431
  397MOL0     H52368   4.321   7.659   3.775  0.3228 -0.8012  1.3369
  397MOL0     H52369   4.330   7.895   3.824  2.0662 -3.0662 -2.3685
  397MOL0     H52370   4.214   8.108   3.798  3.2623 -0.8531 -0.8413
  397MOL0     H52371   4.336   8.112   3.927  0.1177 -3.6195 -0.3606
  397MOL0     H52372   4.076   8.282   3.910  0.3890  1.0124 -2.8534
  397MOL0     H52373   4.240   8.343   3.882 -2.1221  4.2205  3.6054
  397MOL0     H52374   4.275   8.224   4.121  0.1396  2.1174  0.5784
  397MOL0     H52375   4.114   8.281   4.142 -0.9168 -2.4442 -4.2341
  397MOL0     H52376   4.248   8.509   4.039 -3.7801  0.2872  1.1876
  397MOL0     H52377   4.245   8.460   4.217 -3.7961  0.2658 -1.4943
  397MOL0     H52378   4.456   8.347   4.018 -0.3630 -2.1134  0.7754
  397MOL0     H52379   4.471   8.352   4.188 -1.0501  0.8509  1.0849
  397MOL0     H52380   4.473   8.611   4.174  1.3534 -1.1585 -0.4255
  397MOL0     H52381   4.461   8.590   3.999 -2.8535 -0.6008 -0.5417
  397MOL0     H52382   4.650   8.479   4.207 -1.3507 -0.7669  0.3480
  397MOL0     H52383   4.685   8.451   4.035 -0.0316 -0.4620  0.1450
  397MOL0     H52384   4.688   8.726   4.177 -1.9722 -0.6605 -0.9121
  397MOL0     H52385   4.742   8.685   4.007 -0.0065 -3.9968 -1.7334
  397MOL0     H52386   3.950   7.873   4.037  0.5763 -0.5233  1.6737
  397MOL0     H52387   3.936   7.629   3.957 -0.0624  1.1622 -0.5874
  397MOL0     H52388   4.347   7.246   3.625 -0.9386  0.8808  0.0214
  397MOL0     H52389   4.338   7.003   3.625 -0.9736 -0.2283 -0.4714
  397MOL0     H52390   4.471   7.133   3.936 -0.0616  1.4763 -0.7119
  397MOL0     H52391   4.453   7.360   4.018 -0.1690  0.1094  0.4278
  397MOL0     H52392   4.380   7.684   4.160  0.4321  0.3073 -1.0918
  397MOL0     H52393   4.436   7.898   4.243  0.3371 -0.2839  0.6357
  397MOL0     H52394   4.399   8.213   4.454 -1.5325 -0.9896  0.2217
  397MOL0     H52395   4.436   8.102   4.322 -0.5001 -3.1408  0.2489
  397MOL0     H52396   4.528   8.041   4.615  1.4477 -1.2595  0.0775
  397MOL0     H52397   4.594   7.965   4.485  1.5017 -0.2889  1.6668
  397MOL0     H52398   4.588   8.268   4.561 -1.5724  0.5393 -2.4532
  397MOL0     H52399   4.649   8.195   4.401 -0.0852 -1.9111 -0.9529
  397MOL0     H52400   4.829   8.251   4.563  1.3286 -0.4139  2.7996
  397MOL0     H52401   4.762   8.129   4.676 -0.7839 -3.2494 -0.7901
  397MOL0     H52402   4.940   7.898   4.374 -2.9307  2.1440 -4.2473
  397MOL0     H52403   4.108   7.887   4.521 -0.9097 -1.6775  0.2674
  397MOL0     H52404   4.084   7.652   4.483  0.2485 -1.0051  1.1412
  398MOL0     O52405   9.225   8.187   5.695 -1.2324 -0.4647  0.6477
  398MOL0     C52406   9.197   8.069   5.711 -0.7597  0.3557 -0.9256
  398MOL0     O52407   9.090   8.025   5.782  0.2056  0.3951  0.0458
  398MOL0     C52408   9.017   8.129   5.832 -0.2217  0.9983  0.8156
  398MOL0     C52409   8.887   8.104   5.810 -0.0348  0.4932  0.4625
  398MOL0     C52410   8.787   8.186   5.869  0.0045  0.7314  0.1819
  398MOL0     C52411   8.824   8.294   5.948 -0.2952  0.6479  0.6947
  398MOL0     O52412   8.720   8.373   5.998 -0.6996  0.5017 -0.1625
  398MOL0     C52413   8.655   8.305   6.109 -0.3044  0.4214 -0.2040
  398MOL0     C52414   8.647   8.415   6.224  0.7126  0.3776 -0.0914
  398MOL0     C52415   8.574   8.366   6.357 -0.5701  0.0204 -0.1209
  398MOL0     C52416   8.466   8.261   6.326 -0.4435 -0.6320 -0.4517
  398MOL0     C52417   8.350   8.259   6.429  0.3906 -0.1257  0.1932
  398MOL0     C52418   8.235   8.150   6.392  0.4318  0.2740 -0.6350
  398MOL0     C52419   8.136   8.147   6.511 -0.0364  0.1292 -0.1196
  398MOL0     C52420   8.016   8.060   6.483  0.3224  0.0928  0.0244
  398MOL0     N52421   7.918   8.112   6.387 -1.4098  0.8031 -0.5968
  398MOL0     C52422   7.815   8.207   6.416 -0.1610 -0.2555 -0.2079
  398MOL0     C52423   7.749   8.227   6.306  0.8475 -0.4938 -0.3219
  398MOL0     C52424   7.634   8.318   6.290  0.0684 -0.4678  1.1739
  398MOL0     C52425   7.498   8.256   6.267  0.2961 -0.2570  0.5889
  398MOL0     C52426   7.394   8.271   6.380  0.7640  0.5541 -0.3528
  398MOL0     C52427   7.408   8.180   6.501  0.0218 -0.7829  0.1161
  398MOL0     O52428   7.350   8.057   6.476 -0.6812  0.1050 -0.4064
  398MOL0     C52429   7.251   8.009   6.570  0.4329 -0.0566  1.3796
  398MOL0     C52430   7.274   8.005   6.701  0.1165  0.6788  0.3315
  398MOL0     C52431   7.178   7.967   6.787  0.2419  1.0214 -0.0839
  398MOL0     C52432   7.054   7.910   6.747  0.2168 -0.3059  0.2115
  398MOL0     C52433   6.976   7.844   6.852 -0.3335  0.0132  0.9604
  398MOL0     O52434   6.965   7.901   6.967  0.4556 -0.7950 -0.8984
  398MOL0     C52435   6.916   7.833   7.078 -0.1280 -0.4222  0.3863
  398MOL0     C52436   6.782   7.774   7.088 -0.3888 -0.4024 -0.5778
  398MOL0     C52437   6.751   7.713   7.205 -1.1298  1.0298  1.0728
  398MOL0     C52438   6.843   7.701   7.315  0.0763  0.7599 -0.6991
  398MOL0     O52439   6.808   7.630   7.424 -0.8047  0.2376 -0.1625
  398MOL0     C52440   6.678   7.621   7.482  0.2964  0.0045 -0.0283
  398MOL0     C52441   6.703   7.527   7.613  0.1498  0.5767  0.1409
  398MOL0     C52442   6.574   7.497   7.698  0.2689 -1.2202  0.5253
  398MOL0     C52443   6.602   7.478   7.850 -0.3357  1.0785  0.0641
  398MOL0     C52444   6.475   7.468   7.926  0.5588 -0.1643  0.5582
  398MOL0     C52445   6.506   7.452   8.075  0.5098  0.2157 -0.7614
  398MOL0     C52446   6.372   7.450   8.155 -0.3139  0.1617  0.0841
  398MOL0     C52447   6.411   7.480   8.304  0.6425  1.1008 -0.2114
  398MOL0    Cl52448   6.481   7.342   8.375 -0.5036 -0.4079  0.4986
  398MOL0     C52449   6.967   7.754   7.308 -0.6154  0.5535  0.3860
  398MOL0     C52450   7.007   7.810   7.183  0.8295 -0.2609 -0.2738
  398MOL0     O52451   6.928   7.740   6.821  1.0479  0.2288 -0.3060
  398MOL0     C52452   7.029   7.902   6.609  0.0750  0.0426  0.5616
  398MOL0     C52453   7.131   7.947   6.521 -0.2565  0.7087 -0.8905
  398MOL0     N52454   7.815   8.155   6.205  0.2788 -0.6456  0.0939
  398MOL0     N52455   7.923   8.090   6.250 -0.8087  0.5916  0.2910
  398MOL0     C52456   8.960   8.321   5.971  0.2585 -0.2708  0.7028
  398MOL0     C52457   9.054   8.232   5.912  0.1526  0.3592 -0.5492
  398MOL0     C52458   9.272   7.966   5.635 -0.3824 -0.4105 -0.3688
  398MOL0     C52459   9.376   7.997   5.543  0.3024  0.1140 -0.3786
  398MOL0     C52460   9.453   7.891   5.483  0.0277  0.0051  0.2965
  398MOL0     C52461   9.417   7.766   5.504 -0.2880  0.3323  0.4569
  398MOL0     O52462   9.481   7.663   5.434  0.2824  0.5658  0.6353
  398MOL0     C52463   9.579   7.595   5.519 -0.0333 -0.3612 -0.1849
  398MOL0     C52464   9.661   7.504   5.422  0.7980 -0.2768 -0.2478
  398MOL0     C52465   9.792   7.441   5.478  0.6399 -0.2391 -0.1493
  398MOL0     C52466   9.768   7.366   5.616  0.0937 -1.4529  1.4328
  398MOL0     C52467   9.894   7.300   5.642 -0.1527  0.0218 -0.0392
  398MOL0     C52468  10.004   7.238   5.651 -0.1835 -1.8536  0.0285
  398MOL0     C52469   9.307   7.732   5.585  0.7392 -0.9703 -1.0819
  398MOL0     C52470   9.242   7.830   5.665  0.8482  0.3307  1.4400
  398MOL0     H52471   8.871   8.012   5.754  1.5762 -0.3167  1.2366
  398MOL0     H52472   8.684   8.164   5.841  1.8757 -3.5376 -5.3030
  398MOL0     H52473   8.707   8.220   6.153 -0.3902 -2.1112 -4.4256
  398MOL0     H52474   8.552   8.288   6.078 -0.5052  1.3502 -0.0812
  398MOL0     H52475   8.570   8.484   6.188 -1.2935  0.1884  3.3847
  398MOL0     H52476   8.739   8.462   6.259  0.9565 -0.4464  0.4018
  398MOL0     H52477   8.518   8.448   6.402 -0.6157 -0.2206  0.2608
  398MOL0     H52478   8.653   8.318   6.415  0.5865  0.7890 -0.9823
  398MOL0     H52479   8.423   8.271   6.226  2.5104 -2.6199 -2.0739
  398MOL0     H52480   8.508   8.160   6.317  1.4223 -0.0154  0.7556
  398MOL0     H52481   8.313   8.362   6.429 -0.1722 -0.2885 -1.3891
  398MOL0     H52482   8.401   8.234   6.522  1.9324 -0.9180 -0.8256
  398MOL0     H52483   8.279   8.056   6.359  0.0541  0.4163 -1.5652
  398MOL0     H52484   8.179   8.184   6.305  4.1532 -0.6565 -3.6730
  398MOL0     H52485   8.185   8.106   6.600 -0.4063 -0.2205 -0.0773
  398MOL0     H52486   8.095   8.242   6.548 -1.7550 -0.5001 -0.3235
  398MOL0     H52487   7.959   8.038   6.574  2.0421 -1.7651  0.7268
  398MOL0     H52488   8.058   7.971   6.436 -1.9470 -2.4340  2.3516
  398MOL0     H52489   7.799   8.249   6.514  5.5183  0.4256  0.7882
  398MOL0     H52490   7.659   8.382   6.205 -0.8239  1.9871  2.6211
  398MOL0     H52491   7.626   8.393   6.370 -3.8390  0.6731 -0.0811
  398MOL0     H52492   7.515   8.151   6.242 -3.5127 -1.0856  0.8831
  398MOL0     H52493   7.451   8.301   6.179 -1.8958  0.1333  1.8876
  398MOL0     H52494   7.404   8.368   6.428  0.6626  0.0757  0.6655
  398MOL0     H52495   7.290   8.282   6.347 -0.4384 -1.7517  2.2180
  398MOL0     H52496   7.357   8.221   6.589  3.7239 -0.5374  2.3695
  398MOL0     H52497   7.515   8.178   6.520  0.2235  2.5721 -0.1485
  398MOL0     H52498   7.365   8.050   6.738 -0.6538  1.1706  1.7454
  398MOL0     H52499   7.197   7.973   6.894 -0.0789  1.2947 -0.0403
  398MOL0     H52500   6.714   7.777   7.004  0.9720 -0.7953 -1.7466
  398MOL0     H52501   6.655   7.664   7.215 -0.7841  0.2347  0.6295
  398MOL0     H52502   6.599   7.571   7.425  1.8824 -0.8846 -1.5856
  398MOL0     H52503   6.644   7.723   7.503 -0.9530 -0.1148 -1.2953
  398MOL0     H52504   6.784   7.575   7.667  0.0992  1.4096 -0.4924
  398MOL0     H52505   6.741   7.428   7.587  4.7324  1.4216  2.6695
  398MOL0     H52506   6.539   7.403   7.654 -0.2837  0.0691 -1.9732
  398MOL0     H52507   6.500   7.575   7.677  1.1682 -0.8680 -1.6445
  398MOL0     H52508   6.674   7.398   7.869 -0.0057  1.4291  0.3049
  398MOL0     H52509   6.649   7.573   7.875  2.7195 -0.0871 -0.7937
  398MOL0     H52510   6.407   7.390   7.892 -0.1908  1.2838 -1.4989
  398MOL0     H52511   6.420   7.562   7.917 -1.9081 -1.3451  2.1314
  398MOL0     H52512   6.569   7.535   8.107  1.8879  0.0776 -2.9014
  398MOL0     H52513   6.560   7.357   8.078 -1.5347 -1.0230 -1.1883
  398MOL0     H52514   6.322   7.542   8.124  1.0178  1.5711  1.9107
  398MOL0     H52515   6.315   7.359   8.133  3.1191 -2.4909  1.3548
  398MOL0     H52516   6.323   7.504   8.364  0.6002 -4.5672  2.6647
  398MOL0     H52517   6.479   7.566   8.308  3.4688 -1.0015  2.0886
  398MOL0     H52518   7.041   7.748   7.387 -0.6546 -1.0585  0.3259
  398MOL0     H52519   7.109   7.846   7.173  1.6323 -2.3256  0.1267
  398MOL0     H52520   6.933   7.869   6.571  0.4410  0.7170 -1.0002
  398MOL0     H52521   7.124   7.931   6.414  2.3071  0.5435 -1.0842
  398MOL0     H52522   8.988   8.402   6.037 -3.8831  2.6642 -0.7432
  398MOL0     H52523   9.160   8.250   5.928 -0.1551  1.2214  0.7194
  398MOL0     H52524   9.393   8.104   5.531 -1.7382  0.3974 -1.2473
  398MOL0     H52525   9.543   7.909   5.425  1.2088 -0.2222  1.9890
  398MOL0     H52526   9.530   7.537   5.597  0.0099 -0.6142 -0.3418
  398MOL0     H52527   9.651   7.666   5.560  0.3497  1.3739 -3.4959
  398MOL0     H52528   9.591   7.422   5.404 -0.4876  0.6769  0.2167
  398MOL0     H52529   9.686   7.554   5.328 -1.1467  1.0572 -0.1298
  398MOL0     H52530   9.874   7.513   5.490  0.4068  0.1768 -1.0086
  398MOL0     H52531   9.812   7.353   5.415  1.1909  0.2190 -0.6347
  398MOL0     H52532   9.730   7.429   5.698 -2.9811 -0.9069 -0.2479
  398MOL0     H52533   9.682   7.302   5.593 -1.9149  2.1668 -2.5486
  398MOL0     H52534  10.098   7.187   5.652  0.2889 -1.0137 -0.2277
  398MOL0     H52535   9.268   7.633   5.601  0.7379 -1.0145 -1.3440
  398MOL0     H52536   9.169   7.805   5.741 -4.1288 -0.2292 -2.9214
  399MOL0     O52537   4.367   3.001  11.318  0.0481 -0.1973  0.0045
  399MOL0     C52538   4.247   2.998  11.350  0.7885  0.0851  0.2471
  399MOL0     O52539   4.153   3.102  11.328  0.1124  0.2245 -0.5172
  399MOL0     C52540   4.202   3.229  11.321  1.4076 -0.8970  1.0059
  399MOL0     C52541   4.239   3.291  11.193  0.4904  0.8484 -0.6880
  399MOL0     C52542   4.287   3.417  11.184  0.3520 -0.1664  0.7197
  399MOL0     C52543   4.311   3.493  11.302 -0.5661  0.1615 -0.3287
  399MOL0     O52544   4.376   3.617  11.296 -0.2315 -0.1969 -0.6925
  399MOL0     C52545   4.300   3.736  11.341  0.2033 -0.1504 -0.7445
  399MOL0     C52546   4.231   3.811  11.231  1.3792  0.1549  0.4847
  399MOL0     C52547   4.185   3.715  11.115  0.0948 -0.7089  0.2066
  399MOL0     C52548   4.105   3.788  10.994  0.3999 -0.7281  0.3053
  399MOL0     C52549   4.160   3.919  10.942 -0.3765 -0.3053  0.1412
  399MOL0     C52550   4.240   3.901  10.804 -0.6374 -0.2962  0.1065
  399MOL0     C52551   4.324   4.029  10.762  0.6316  0.8789  0.2205
  399MOL0     C52552   4.244   4.165  10.757 -0.3406 -0.0752  0.2272
  399MOL0     N52553   4.292   4.262  10.659 -0.1547  0.0783 -0.9889
  399MOL0     C52554   4.426   4.305  10.654  0.0893  0.2280 -0.3501
  399MOL0     C52555   4.433   4.399  10.560 -0.5326  0.8584  0.4930
  399MOL0     C52556   4.564   4.463  10.517  0.3712  0.5266 -0.3080
  399MOL0     C52557   4.589   4.495  10.364  0.5655 -0.2403  0.3439
  399MOL0     C52558   4.600   4.369  10.278  0.0509 -0.2351  0.0093
  399MOL0     C52559   4.607   4.409  10.127 -0.2977 -0.6495 -0.5284
  399MOL0     O52560   4.537   4.315  10.052  0.7056  0.9622  0.0024
  399MOL0     C52561   4.594   4.192  10.035  0.6608  0.2958  0.4295
  399MOL0     C52562   4.515   4.089   9.989  0.4177 -0.6687 -0.7349
  399MOL0     C52563   4.562   3.961   9.975 -0.0270 -0.0994  0.2257
  399MOL0     C52564   4.683   3.917  10.036  0.2135  1.2342  0.3061
  399MOL0     C52565   4.718   3.782  10.043  0.7270 -0.3424 -0.0834
  399MOL0     O52566   4.691   3.693   9.941  0.1685  0.1864  0.2923
  399MOL0     C52567   4.723   3.561   9.964  0.8362  0.2518 -0.0360
  399MOL0     C52568   4.818   3.496   9.885 -0.2794 -0.1478  0.3376
  399MOL0     C52569   4.864   3.367   9.909 -0.7522 -1.4208  0.3560
  399MOL0     C52570   4.809   3.301  10.019 -0.2047  0.2830 -0.2422
  399MOL0     O52571   4.841   3.174  10.063  0.1854  0.3796  0.2164
  399MOL0     C52572   4.978   3.152  10.090  0.3943 -0.2394  0.3805
  399MOL0     C52573   5.005   3.022  10.166  1.0428 -0.2789 -0.1578
  399MOL0     C52574   5.162   3.005  10.186  0.6203  0.5251 -0.8039
  399MOL0     C52575   5.218   3.073  10.312 -0.2320  0.4031  0.4239
  399MOL0     C52576   5.151   3.017  10.437  0.2910  0.1111 -0.8158
  399MOL0     C52577   5.237   3.043  10.567 -0.3463 -0.5415 -1.1150
  399MOL0     C52578   5.197   2.998  10.713  0.5840 -0.2581 -0.3949
  399MOL0     C52579   5.318   2.962  10.804 -0.6813  0.1233 -0.3041
  399MOL0    Cl52580   5.253   2.922  10.967 -0.1862  0.2432  0.2139
  399MOL0     C52581   4.707   3.353  10.089  0.1828 -1.6931  0.0751
  399MOL0     C52582   4.672   3.487  10.062 -0.1957 -0.2008 -0.7556
  399MOL0     O52583   4.788   3.755  10.142 -0.7647 -0.6334 -0.0539
  399MOL0     C52584   4.772   4.016  10.075 -1.3448 -0.5921 -0.0259
  399MOL0     C52585   4.724   4.154  10.063 -1.0007 -0.0478  0.7762
  399MOL0     N52586   4.295   4.411  10.504 -0.3180  0.4101  0.1875
  399MOL0     N52587   4.217   4.333  10.572  0.4342 -0.1658 -0.8493
  399MOL0     C52588   4.278   3.437  11.428  1.1367 -0.3706  0.4572
  399MOL0     C52589   4.228   3.306  11.434  0.3562  0.7512 -0.0086
  399MOL0     C52590   4.188   2.879  11.411  0.0354 -0.8288 -1.1901
  399MOL0     C52591   4.259   2.762  11.424 -0.5907  0.9531 -1.8256
  399MOL0     C52592   4.202   2.650  11.492  0.7501 -0.5486  0.1334
  399MOL0     C52593   4.075   2.653  11.549  0.7885  0.1365  0.2164
  399MOL0     O52594   4.043   2.535  11.611 -0.1691  0.5938 -0.3156
  399MOL0     C52595   3.918   2.544  11.684 -0.2599 -0.2517  0.8868
  399MOL0     C52596   3.858   2.406  11.705  0.0280  0.0505  0.4915
  399MOL0     C52597   3.813   2.335  11.565  0.0888  0.2916 -0.2176
  399MOL0     C52598   3.661   2.350  11.540 -0.6854 -0.2055 -1.1460
  399MOL0     C52599   3.570   2.278  11.636  0.7235  0.2642  0.6942
  399MOL0     C52600   3.500   2.210  11.712  0.1208 -0.2508  0.2819
  399MOL0     C52601   4.000   2.764  11.515  0.7701 -0.4116 -0.2021
  399MOL0     C52602   4.048   2.872  11.449 -0.0728  1.1263 -0.2480
  399MOL0     H52603   4.236   3.235  11.100  0.8568 -1.9209  0.8622
  399MOL0     H52604   4.306   3.460  11.087 -0.9436  0.4254  0.7105
  399MOL0     H52605   4.367   3.808  11.389  0.2139  1.7328 -3.3930
  399MOL0     H52606   4.223   3.702  11.411 -2.4076 -0.8492 -3.7276
  399MOL0     H52607   4.307   3.883  11.200  2.2075 -0.1253  1.7930
  399MOL0     H52608   4.135   3.852  11.263  0.3324 -0.6990 -1.3844
  399MOL0     H52609   4.129   3.633  11.161 -0.7775  0.4128  1.1978
  399MOL0     H52610   4.280   3.674  11.078 -0.5561 -3.0370  0.9665
  399MOL0     H52611   4.112   3.730  10.902 -3.1746 -0.2816 -0.3818
  399MOL0     H52612   4.002   3.805  11.028  1.6520  2.4549  3.1048
  399MOL0     H52613   4.216   3.971  11.020  0.4357  1.9187 -1.7966
  399MOL0     H52614   4.074   3.983  10.920  1.7944  1.9176 -2.7450
  399MOL0     H52615   4.166   3.893  10.724 -1.6313  3.1876  0.5110
  399MOL0     H52616   4.319   3.826  10.812  2.5464  2.6031 -1.1901
  399MOL0     H52617   4.406   4.049  10.832  1.2947 -1.3632  0.1748
  399MOL0     H52618   4.369   4.010  10.664 -1.4824 -0.5568 -0.5509
  399MOL0     H52619   4.223   4.222  10.848 -0.4845 -2.5142  1.8018
  399MOL0     H52620   4.139   4.141  10.737  0.4398 -1.9741 -2.0116
  399MOL0     H52621   4.505   4.275  10.722 -1.8055 -1.4761  1.2603
  399MOL0     H52622   4.653   4.404  10.539  0.5238  0.0192 -2.0834
  399MOL0     H52623   4.575   4.561  10.564 -0.5038  1.6042 -2.2306
  399MOL0     H52624   4.690   4.537  10.365  0.7780 -0.5511  3.3276
  399MOL0     H52625   4.515   4.572  10.338 -0.9462 -1.2324  1.4984
  399MOL0     H52626   4.686   4.303  10.294  0.3545 -0.0881 -0.9404
  399MOL0     H52627   4.508   4.314  10.300  1.1235 -0.9590  3.0594
  399MOL0     H52628   4.709   4.431  10.095 -0.1605 -1.1174 -0.4219
  399MOL0     H52629   4.544   4.498  10.121 -1.2870 -1.1472  1.4499
  399MOL0     H52630   4.409   4.110   9.973 -0.4771  0.1588  4.5854
  399MOL0     H52631   4.498   3.898   9.914 -1.0318  0.7559  0.3640
  399MOL0     H52632   4.854   3.545   9.795  1.4394  0.5896  1.3780
  399MOL0     H52633   4.932   3.321   9.837 -1.0554 -1.6485  0.2128
  399MOL0     H52634   5.026   3.228  10.153 -0.0048  1.9282 -1.8035
  399MOL0     H52635   5.027   3.142   9.993  2.0064 -1.6568  1.2667
  399MOL0     H52636   4.962   2.944  10.103  0.0105  0.5112 -0.4446
  399MOL0     H52637   4.955   3.027  10.263  2.4383  2.1851  0.5154
  399MOL0     H52638   5.210   3.050  10.099  1.0759  1.8837  0.1167
  399MOL0     H52639   5.182   2.898  10.192  2.0911  0.8517  0.9076
  399MOL0     H52640   5.325   3.055  10.324  0.1618  1.7956 -0.6785
  399MOL0     H52641   5.207   3.182  10.303 -1.8655  0.1037 -2.3377
  399MOL0     H52642   5.118   2.913  10.430 -1.3093  0.5158  0.2770
  399MOL0     H52643   5.053   3.064  10.443 -0.8132 -2.0213 -1.0855
  399MOL0     H52644   5.263   3.149  10.564  3.3643 -1.0390  3.1440
  399MOL0     H52645   5.332   2.992  10.545  0.3179 -0.5030  1.3216
  399MOL0     H52646   5.120   3.063  10.754  0.5499  0.3832 -1.4438
  399MOL0     H52647   5.137   2.907  10.712  0.2883 -0.1199  1.7673
  399MOL0     H52648   5.380   3.051  10.817 -0.0747 -0.2823 -0.4149
  399MOL0     H52649   5.385   2.881  10.773  1.6789  1.4010  1.1714
  399MOL0     H52650   4.658   3.301  10.171  0.4282  0.2555  1.5309
  399MOL0     H52651   4.604   3.531  10.134  1.2305 -0.9822  1.1499
  399MOL0     H52652   4.869   3.990  10.116 -1.7471  0.3990  1.6574
  399MOL0     H52653   4.797   4.231  10.089 -0.1567 -0.9032  1.0284
  399MOL0     H52654   4.299   3.487  11.522  1.0347 -0.0526  0.3131
  399MOL0     H52655   4.206   3.262  11.530  0.0881  0.0088 -0.3979
  399MOL0     H52656   4.365   2.772  11.400 -0.3905  1.5050 -0.7891
  399MOL0     H52657   4.253   2.554  11.502 -0.5417 -1.1821  0.8602
  399MOL0     H52658   3.838   2.603  11.639 -2.3950 -4.5720 -1.7001
  399MOL0     H52659   3.942   2.576  11.785  0.7460  0.1869  0.5194
  399MOL0     H52660   3.924   2.333  11.753  1.0275 -1.6355 -3.0820
  399MOL0     H52661   3.777   2.433  11.773 -0.0460 -1.9252  1.2707
  399MOL0     H52662   3.840   2.230  11.572  3.1088  0.5448 -4.3751
  399MOL0     H52663   3.871   2.360  11.476 -0.3079  2.3935  0.0585
  399MOL0     H52664   3.633   2.453  11.561 -0.7985 -0.8614  2.4600
  399MOL0     H52665   3.633   2.322  11.438  2.8253 -1.8577 -1.7984
  399MOL0     H52666   3.449   2.157  11.790  1.9897  0.4088  2.0127
  399MOL0     H52667   3.898   2.795  11.535  0.5746 -1.0737 -0.1356
  399MOL0     H52668   3.987   2.961  11.443 -0.7447  0.6815 -0.1673
  400MOL0     O52669   5.270  10.075   3.121 -0.5538 -0.3975 -0.0975
  400MOL0     C52670   5.317   9.962   3.136 -0.6708  0.5200 -0.0173
  400MOL0     O52671   5.452   9.930   3.151  0.6575 -0.3373 -0.4859
  400MOL0     C52672   5.551  10.020   3.161 -0.1339 -0.2755  0.3466
  400MOL0     C52673   5.652   9.976   3.250 -0.4041  0.3205  0.5869
  400MOL0     C52674   5.760  10.072   3.281 -1.0148  0.4116  0.0527
  400MOL0     C52675   5.768  10.206   3.231  0.3089 -0.6360  0.1849
  400MOL0     O52676   5.862  10.297   3.274  0.6415  0.1809  0.2886
  400MOL0     C52677   5.959  10.332   3.172  0.7139  0.2389  0.8893
  400MOL0     C52678   6.070  10.233   3.138 -1.1579 -0.4632 -0.4152
  400MOL0     C52679   6.186  10.249   3.251  0.2444  0.1654 -0.0275
  400MOL0     C52680   6.307  10.344   3.209 -0.0664 -0.2792  0.5956
  400MOL0     C52681   6.404  10.368   3.333  0.5621  0.6237  0.8379
  400MOL0     C52682   6.520  10.463   3.308 -0.4049  0.2895  0.6011
  400MOL0     C52683   6.581  10.523   3.439  0.4603  0.3251 -0.3432
  400MOL0     C52684   6.694  10.447   3.507  0.3449 -0.3895  0.0096
  400MOL0     N52685   6.807  10.444   3.417 -1.2108  0.0893 -0.3674
  400MOL0     C52686   6.884  10.551   3.376 -0.2555 -0.6845 -0.1118
  400MOL0     C52687   6.976  10.503   3.291 -0.1324  0.1302  0.5099
  400MOL0     C52688   7.075  10.590   3.221 -0.5540 -0.6738 -0.1988
  400MOL0     C52689   7.206  10.514   3.224 -0.3175 -0.8880  0.4815
  400MOL0     C52690   7.326  10.595   3.176 -0.8238 -0.0558  0.4755
  400MOL0     C52691   7.351  10.706   3.274  0.1681 -0.2054  0.4606
  400MOL0     O52692   7.464  10.774   3.239 -0.5522 -0.3988 -0.6152
  400MOL0     C52693   7.589  10.739   3.295  0.4736 -0.0552  0.0572
  400MOL0     C52694   7.706  10.818   3.261  1.0004  0.1453 -0.3126
  400MOL0     C52695   7.830  10.798   3.327 -0.8188 -0.2641 -0.0944
  400MOL0     C52696   7.858  10.698   3.418 -0.4034 -0.2616  0.1598
  400MOL0     C52697   7.993  10.669   3.466  0.2932  0.3606 -0.8056
  400MOL0     O52698   8.016  10.542   3.511  0.1422 -0.0880 -0.1667
  400MOL0     C52699   8.133  10.496   3.568 -0.8081 -0.9364 -0.7019
  400MOL0     C52700   8.176  10.363   3.544 -0.4558  0.1702 -0.2626
  400MOL0     C52701   8.292  10.313   3.609  0.3319  0.2176 -0.4914
  400MOL0     C52702   8.367  10.394   3.695 -0.5285 -0.2910 -0.4012
  400MOL0     O52703   8.471  10.354   3.772 -0.4035  0.0951 -0.4189
  400MOL0     C52704   8.476  10.218   3.811 -0.0357  0.9096 -1.2623
  400MOL0     C52705   8.619  10.177   3.851  0.1658  0.1315  0.2050
  400MOL0     C52706   8.680  10.276   3.955 -0.9152 -0.7616  1.5161
  400MOL0     C52707   8.834  10.259   3.956  0.2397 -0.0646  0.0889
  400MOL0     C52708   8.888  10.159   4.060  0.0149  0.3290  0.7727
  400MOL0     C52709   8.884  10.024   3.993  0.3661 -0.0841 -0.9291
  400MOL0     C52710   8.956   9.912   4.069  0.0032 -0.2236 -0.3768
  400MOL0     C52711   8.879   9.887   4.197 -0.1024  0.1874 -0.2100
  400MOL0    Cl52712   8.932   9.735   4.270  0.1375  0.2554  0.0849
  400MOL0     C52713   8.330  10.524   3.714  0.1465  0.7995 -0.1183
  400MOL0     C52714   8.213  10.574   3.651  0.0363 -0.5306 -0.0092
  400MOL0     O52715   8.078  10.754   3.455 -0.1483  0.2298  0.5580
  400MOL0     C52716   7.746  10.620   3.456  0.4589 -0.2049  0.8446
  400MOL0     C52717   7.620  10.641   3.390 -0.4338 -0.6046 -0.9216
  400MOL0     N52718   6.965  10.367   3.288 -0.1714  0.3773 -0.5604
  400MOL0     N52719   6.866  10.337   3.363  0.0983 -0.3466 -0.6478
  400MOL0     C52720   5.660  10.243   3.153  0.1623  0.6510  0.1525
  400MOL0     C52721   5.553  10.155   3.112 -0.2962 -0.1280 -0.8079
  400MOL0     C52722   5.202   9.861   3.136  0.1809  0.3436 -0.2225
  400MOL0     C52723   5.061   9.902   3.140 -0.3017  0.6127  0.1996
  400MOL0     C52724   4.962   9.815   3.133  0.0667  0.3874 -0.1530
  400MOL0     C52725   4.996   9.676   3.133  0.1753 -0.3358 -0.0411
  400MOL0     O52726   4.909   9.573   3.133  0.0075  0.3259  0.7753
  400MOL0     C52727   4.773   9.589   3.165  0.1656  0.7683  0.6542
  400MOL0     C52728   4.727   9.619   3.308  0.6630 -0.6118 -0.9398
  400MOL0     C52729   4.817   9.550   3.413  0.3952 -0.1112  0.2449
  400MOL0     C52730   4.796   9.607   3.560  0.2100 -0.3578 -0.0606
  400MOL0     C52731   4.845   9.744   3.562  0.0188  1.2910 -1.1775
  400MOL0     C52732   4.905   9.843   3.544  0.2145 -0.4211 -0.6723
  400MOL0     C52733   5.122   9.633   3.122 -0.7044 -1.4883  0.4039
  400MOL0     C52734   5.232   9.732   3.121 -0.6795  0.4136  0.4593
  400MOL0     H52735   5.648   9.870   3.269 -2.3804  0.3424  0.4605
  400MOL0     H52736   5.838  10.029   3.343  1.7436 -0.0105 -3.3659
  400MOL0     H52737   6.001  10.431   3.194  2.9433 -0.1335 -1.1969
  400MOL0     H52738   5.904  10.352   3.080 -2.4344  1.2177  2.8356
  400MOL0     H52739   6.108  10.246   3.037 -0.2613  1.6603  0.1590
  400MOL0     H52740   6.022  10.134   3.138 -2.5475  0.1861 -1.1530
  400MOL0     H52741   6.222  10.152   3.286  0.7109  0.0415 -0.8276
  400MOL0     H52742   6.139  10.292   3.341  1.8237  2.8753 -0.3935
  400MOL0     H52743   6.370  10.289   3.139  0.0964  0.2201  0.3446
  400MOL0     H52744   6.266  10.433   3.160 -5.0296 -2.0546  1.0002
  400MOL0     H52745   6.441  10.269   3.362 -3.1238 -2.0590 -2.4491
  400MOL0     H52746   6.335  10.397   3.412 -2.7346  3.1674 -2.5948
  400MOL0     H52747   6.467  10.539   3.250  0.9932  0.4570 -0.4993
  400MOL0     H52748   6.605  10.429   3.248  0.4469  1.2868  1.1968
  400MOL0     H52749   6.614  10.623   3.409 -0.0849 -0.3566 -3.5142
  400MOL0     H52750   6.495  10.535   3.506  1.2699 -1.2672  1.0542
  400MOL0     H52751   6.652  10.349   3.533 -0.5485 -0.5920 -2.0087
  400MOL0     H52752   6.732  10.494   3.598  0.3567 -1.0048  0.3304
  400MOL0     H52753   6.870  10.654   3.405  3.5767 -0.5046  1.6486
  400MOL0     H52754   7.078  10.685   3.275  1.8432 -1.5704  1.4237
  400MOL0     H52755   7.050  10.609   3.116  1.0950  0.8002 -0.3678
  400MOL0     H52756   7.198  10.431   3.153  0.5835 -0.3400 -0.2717
  400MOL0     H52757   7.226  10.473   3.324 -1.2448  4.6101  3.3211
  400MOL0     H52758   7.417  10.535   3.162 -1.0756 -0.6137  1.1954
  400MOL0     H52759   7.319  10.627   3.071 -0.7400 -0.5905  0.3013
  400MOL0     H52760   7.370  10.667   3.374 -0.3034  1.9719  1.4763
  400MOL0     H52761   7.262  10.770   3.274  0.1129 -0.2164 -1.3339
  400MOL0     H52762   7.694  10.898   3.189  3.7193  0.1082 -0.9148
  400MOL0     H52763   7.910  10.850   3.275 -0.6856 -1.6147 -1.2979
  400MOL0     H52764   8.122  10.309   3.467  1.5172  0.5775 -2.0412
  400MOL0     H52765   8.314  10.208   3.595  2.5388  0.1298  2.5883
  400MOL0     H52766   8.456  10.145   3.732 -2.6794 -1.8582  1.6448
  400MOL0     H52767   8.416  10.216   3.903  1.6278  1.7390 -0.1001
  400MOL0     H52768   8.672  10.188   3.755 -1.3945  1.3082 -0.5740
  400MOL0     H52769   8.625  10.069   3.868 -0.5815 -0.6035 -3.3103
  400MOL0     H52770   8.654  10.242   4.056 -2.9548  1.8132  1.9460
  400MOL0     H52771   8.650  10.377   3.928 -0.6754 -0.6912  1.5143
  400MOL0     H52772   8.864  10.238   3.853 -4.2937 -0.9384 -1.2700
  400MOL0     H52773   8.875  10.357   3.982  0.1745 -0.1586  0.5643
  400MOL0     H52774   8.818  10.156   4.144  0.1540  2.5978  1.0162
  400MOL0     H52775   8.989  10.186   4.092 -0.3462  0.5071  1.7823
  400MOL0     H52776   8.923  10.025   3.891 -0.2825  0.6476 -1.1834
  400MOL0     H52777   8.779  10.003   3.972  0.2774  1.6903 -2.5615
  400MOL0     H52778   8.919   9.832   4.004 -0.6913  1.4615 -2.1838
  400MOL0     H52779   9.065   9.917   4.076 -0.1123  0.4680  1.4994
  400MOL0     H52780   8.773   9.871   4.176  0.2370  0.3431 -2.2340
  400MOL0     H52781   8.888   9.966   4.272 -2.8102 -0.0523  0.4614
  400MOL0     H52782   8.404  10.588   3.761 -0.2851  3.4622 -2.7748
  400MOL0     H52783   8.183  10.676   3.673 -1.2303 -0.9922  0.5196
  400MOL0     H52784   7.756  10.550   3.539  0.6474 -0.3202  0.7255
  400MOL0     H52785   7.538  10.575   3.418  0.2674 -1.3202 -0.5529
  400MOL0     H52786   5.654  10.345   3.118 -3.8113 -0.3211 -2.6757
  400MOL0     H52787   5.474  10.203   3.056  1.0597  0.0689 -2.6680
  400MOL0     H52788   5.038  10.008   3.136  1.2240  0.9648  0.4013
  400MOL0     H52789   4.859   9.847   3.143  0.1828  0.7676 -0.1369
  400MOL0     H52790   4.755   9.486   3.131  1.4687  1.4208 -2.2626
  400MOL0     H52791   4.726   9.661   3.098 -0.8224  0.8994  1.4511
  400MOL0     H52792   4.722   9.726   3.332 -3.4680 -0.7704 -0.3323
  400MOL0     H52793   4.625   9.585   3.328  1.0791 -1.1018  0.4510
  400MOL0     H52794   4.915   9.575   3.372 -1.1734 -2.3412 -6.1809
  400MOL0     H52795   4.808   9.441   3.404 -1.1349 -0.0037  0.0755
  400MOL0     H52796   4.690   9.593   3.584 -0.2043  2.3211  0.0041
  400MOL0     H52797   4.846   9.554   3.641  3.1813  3.9159  1.2463
  400MOL0     H52798   4.934   9.946   3.531  0.5528 -0.5244 -0.7555
  400MOL0     H52799   5.148   9.528   3.118  1.8694 -0.9177  0.5557
  400MOL0     H52800   5.335   9.697   3.120 -0.9907 -0.5282  0.4479
  401MOL0     O52801   3.729   9.329   8.297 -0.0025  0.2956 -1.0440
  401MOL0     C52802   3.678   9.364   8.401  0.6867  0.0785  0.0143
  401MOL0     O52803   3.559   9.308   8.451 -0.7518  0.3681 -0.4743
  401MOL0     C52804   3.521   9.191   8.388  0.5966 -0.3459  0.3249
  401MOL0     C52805   3.428   9.191   8.285 -0.3794 -0.1582  0.0884
  401MOL0     C52806   3.380   9.073   8.233  0.3700  0.1153  0.6829
  401MOL0     C52807   3.420   8.946   8.285  1.0359  0.8769 -0.2185
  401MOL0     O52808   3.397   8.816   8.245 -0.0277  0.0126  0.3157
  401MOL0     C52809   3.291   8.809   8.142  0.6039 -0.1341 -1.1639
  401MOL0     C52810   3.269   8.667   8.105 -1.3749  0.7688 -0.0996
  401MOL0     C52811   3.160   8.602   8.184  0.0767 -0.2805  0.7284
  401MOL0     C52812   3.156   8.452   8.141 -0.0379  0.7909 -1.1113
  401MOL0     C52813   3.028   8.380   8.186  0.7249  0.4316  0.4014
  401MOL0     C52814   3.019   8.236   8.130  0.4742  0.2814  1.1574
  401MOL0     C52815   2.915   8.155   8.207  0.5797  0.8965 -0.1947
  401MOL0     C52816   2.928   7.998   8.206 -0.1294  0.1322 -0.5610
  401MOL0     N52817   2.919   7.929   8.078  0.3958 -0.3245 -0.7815
  401MOL0     C52818   2.986   7.963   7.960 -0.2178 -0.7651 -1.1247
  401MOL0     C52819   2.945   7.880   7.862 -0.4208  0.8059  0.8266
  401MOL0     C52820   2.985   7.886   7.716  0.4749  0.1043 -1.0443
  401MOL0     C52821   2.978   8.027   7.657 -0.2018 -0.0088  0.2789
  401MOL0     C52822   2.837   8.091   7.639 -0.9457 -0.0741 -0.1399
  401MOL0     C52823   2.857   8.249   7.609  0.4252  0.4067 -0.2493
  401MOL0     O52824   2.884   8.328   7.732  0.4860  0.5960 -0.1664
  401MOL0     C52825   2.904   8.463   7.719 -0.3813  0.9072  1.1856
  401MOL0     C52826   2.954   8.536   7.823 -0.0070 -1.0789  0.4167
  401MOL0     C52827   2.955   8.676   7.808  0.5536  1.1897 -0.8314
  401MOL0     C52828   2.936   8.743   7.685 -0.0636 -0.0735 -0.5822
  401MOL0     C52829   2.945   8.886   7.676  0.9340  0.7520  0.1368
  401MOL0     O52830   3.027   8.942   7.770 -0.3656 -0.0851  0.3304
  401MOL0     C52831   3.075   9.065   7.772 -0.2039  0.0743 -0.3051
  401MOL0     C52832   3.017   9.177   7.713 -0.1335 -0.5180 -0.0468
  401MOL0     C52833   3.079   9.299   7.727  0.0484  0.2121 -0.9974
  401MOL0     C52834   3.209   9.313   7.778  0.0072 -0.0499 -0.1600
  401MOL0     O52835   3.245   9.441   7.799  0.6269 -0.0700 -0.0908
  401MOL0     C52836   3.379   9.463   7.837 -1.2820 -0.0698  0.2887
  401MOL0     C52837   3.405   9.620   7.847  0.6002  0.0287 -0.3495
  401MOL0     C52838   3.531   9.647   7.927  0.2188 -0.5069 -0.5855
  401MOL0     C52839   3.596   9.786   7.928  0.6936 -0.2865 -0.3722
  401MOL0     C52840   3.507   9.904   7.974 -0.3399  1.3645  0.5314
  401MOL0     C52841   3.587  10.025   7.917  1.2055  0.7610 -0.0306
  401MOL0     C52842   3.553  10.050   7.766 -0.1901  0.0941  0.0822
  401MOL0     C52843   3.634  10.170   7.719 -0.1078  0.0369  0.6133
  401MOL0    Cl52844   3.800  10.195   7.773  0.0972 -0.1427  0.1955
  401MOL0     C52845   3.266   9.203   7.851 -0.8920  0.2847 -0.1014
  401MOL0     C52846   3.201   9.081   7.841  1.1565 -0.7006 -0.1254
  401MOL0     O52847   2.912   8.927   7.567  1.3809 -0.8793  0.0610
  401MOL0     C52848   2.892   8.659   7.580 -1.0065 -0.9214  0.2035
  401MOL0     C52849   2.865   8.531   7.601 -0.3027  0.1637 -0.4947
  401MOL0     N52850   2.848   7.794   7.923 -0.6625 -0.0613 -0.3194
  401MOL0     N52851   2.828   7.827   8.052 -0.2067  0.1133  0.1224
  401MOL0     C52852   3.498   8.948   8.397  0.6932 -0.7873 -0.4267
  401MOL0     C52853   3.552   9.072   8.450 -0.0267  0.5814  0.7015
  401MOL0     C52854   3.741   9.446   8.498 -0.4912  0.5412  0.9411
  401MOL0     C52855   3.858   9.509   8.454 -0.0371  0.1006 -0.2087
  401MOL0     C52856   3.944   9.574   8.543 -0.0073 -0.2242  0.0081
  401MOL0     C52857   3.910   9.575   8.682 -0.4505 -0.0019  0.5448
  401MOL0     O52858   4.001   9.617   8.776  0.4698 -0.3310 -0.7339
  401MOL0     C52859   3.978   9.755   8.824  0.2969 -0.2417 -0.2855
  401MOL0     C52860   4.090   9.847   8.763  0.2379 -0.9765 -0.1336
  401MOL0     C52861   4.221   9.848   8.849 -0.1256 -0.4930 -1.2118
  401MOL0     C52862   4.229   9.978   8.936  1.6603  0.3538 -0.5911
  401MOL0     C52863   4.318   9.955   9.055 -0.4688 -0.0997 -1.0284
  401MOL0     C52864   4.386   9.944   9.153  0.7456 -0.6440  0.4191
  401MOL0     C52865   3.779   9.535   8.720 -0.7764  0.0486 -0.1339
  401MOL0     C52866   3.699   9.470   8.624  0.1059 -0.6953  0.4870
  401MOL0     H52867   3.395   9.277   8.229 -1.2216  0.4685  1.4907
  401MOL0     H52868   3.294   9.092   8.170  1.4150 -1.9777 -1.5256
  401MOL0     H52869   3.315   8.874   8.058 -0.1591  4.5421  1.8692
  401MOL0     H52870   3.200   8.859   8.175  1.7873  2.3318 -1.4566
  401MOL0     H52871   3.368   8.621   8.106 -1.3635  0.7116 -1.6880
  401MOL0     H52872   3.245   8.673   7.999  2.2854  0.0038 -1.1311
  401MOL0     H52873   3.059   8.641   8.170  0.0403 -1.4440 -3.8036
  401MOL0     H52874   3.193   8.618   8.287 -2.0957  4.3627  0.9601
  401MOL0     H52875   3.185   8.433   8.038 -1.5093 -0.6854 -1.2949
  401MOL0     H52876   3.235   8.403   8.200 -1.1003  1.3332  0.8712
  401MOL0     H52877   2.942   8.438   8.150  1.6464  2.1486  0.8889
  401MOL0     H52878   3.033   8.367   8.294  1.4466 -3.7480  0.0347
  401MOL0     H52879   3.119   8.195   8.117  1.1971  2.7264 -3.0821
  401MOL0     H52880   2.997   8.227   8.023  0.6582  0.5046  1.0979
  401MOL0     H52881   2.916   8.182   8.313 -1.5840  2.9612 -0.6065
  401MOL0     H52882   2.809   8.165   8.182 -0.0373  1.4389  2.3603
  401MOL0     H52883   2.851   7.955   8.271  3.3436 -4.1598  1.2680
  401MOL0     H52884   3.026   7.967   8.245 -1.5576  0.2682  3.6189
  401MOL0     H52885   3.063   8.038   7.953 -0.3357 -0.3182  1.2720
  401MOL0     H52886   2.930   7.810   7.661 -0.0385 -0.7467  0.5841
  401MOL0     H52887   3.091   7.859   7.711  1.8157  3.6225  2.8661
  401MOL0     H52888   3.001   8.012   7.551 -2.4210  2.0397 -0.5953
  401MOL0     H52889   3.042   8.103   7.702  0.8138  1.7737 -3.7626
  401MOL0     H52890   2.794   8.039   7.553  0.3073 -2.1980  0.4455
  401MOL0     H52891   2.771   8.079   7.725  1.3634  3.3659  2.3914
  401MOL0     H52892   2.761   8.281   7.568  0.5007  0.8418 -0.0987
  401MOL0     H52893   2.937   8.268   7.537 -0.8807 -1.7585 -2.3779
  401MOL0     H52894   2.960   8.488   7.920  2.1258 -0.7404  0.5007
  401MOL0     H52895   2.966   8.737   7.897  4.1113  1.0412 -1.0070
  401MOL0     H52896   2.930   9.163   7.650  0.6239 -3.1986 -0.6150
  401MOL0     H52897   3.036   9.392   7.692 -0.1730  1.6994  2.7101
  401MOL0     H52898   3.446   9.415   7.766 -1.9416 -0.5754 -0.0053
  401MOL0     H52899   3.406   9.415   7.931  1.5162  0.1620 -0.3050
  401MOL0     H52900   3.322   9.650   7.912  0.7746  0.0750 -0.1485
  401MOL0     H52901   3.408   9.670   7.751  1.2071  0.2703 -0.2053
  401MOL0     H52902   3.606   9.595   7.868  0.6770  0.1129 -0.5642
  401MOL0     H52903   3.535   9.606   8.028  1.8945 -0.5264 -0.6373
  401MOL0     H52904   3.687   9.766   7.986 -1.4461 -2.3379  2.6193
  401MOL0     H52905   3.626   9.815   7.827 -0.5935 -3.8877 -1.9498
  401MOL0     H52906   3.497   9.912   8.083  2.3322 -0.8073  1.0396
  401MOL0     H52907   3.408   9.896   7.927  0.4616 -0.6755 -0.9533
  401MOL0     H52908   3.692   9.995   7.920  1.4719  1.7611  0.9999
  401MOL0     H52909   3.569  10.116   7.974 -1.9634 -1.0624  2.2180
  401MOL0     H52910   3.572   9.974   7.689 -1.0033 -0.0364 -0.0019
  401MOL0     H52911   3.447  10.078   7.764 -0.1217  0.3461 -0.0294
  401MOL0     H52912   3.578  10.256   7.757 -0.9937 -0.7638  1.1722
  401MOL0     H52913   3.641  10.173   7.610 -2.8436  1.1777  0.4058
  401MOL0     H52914   3.350   9.213   7.919  0.8104 -2.5887 -1.5804
  401MOL0     H52915   3.235   8.989   7.888  1.2312 -0.4146  0.3900
  401MOL0     H52916   2.854   8.701   7.487 -4.1380 -0.3993  1.6178
  401MOL0     H52917   2.824   8.470   7.521  0.6108  0.8844 -1.5546
  401MOL0     H52918   3.508   8.853   8.448 -1.1262 -0.4763  0.5992
  401MOL0     H52919   3.623   9.079   8.531  0.6980  1.4928  0.0053
  401MOL0     H52920   3.892   9.496   8.352  3.6946 -1.8347  1.1030
  401MOL0     H52921   4.042   9.615   8.518  0.2801 -0.3319  0.9072
  401MOL0     H52922   3.997   9.765   8.931 -0.7765 -1.6289  0.0741
  401MOL0     H52923   3.876   9.779   8.793 -0.1859  0.7579  1.8709
  401MOL0     H52924   4.120   9.804   8.667  3.8868 -0.6558  0.7311
  401MOL0     H52925   4.045   9.945   8.746  0.3919 -0.4745  2.0385
  401MOL0     H52926   4.302   9.849   8.775  1.6773  1.7765  0.6593
  401MOL0     H52927   4.248   9.757   8.905  5.5277  1.1462 -0.6340
  401MOL0     H52928   4.273  10.052   8.870 -0.1378  0.8917 -1.2348
  401MOL0     H52929   4.132  10.016   8.968  0.7778 -2.8588  0.9612
  401MOL0     H52930   4.444   9.943   9.243  1.5460 -2.8466 -0.0717
  401MOL0     H52931   3.745   9.539   8.823  3.5521 -0.8331  1.5085
  401MOL0     H52932   3.606   9.422   8.654  0.6749 -2.1176  0.0771
  402MOL0     O52933   0.175   9.778   3.507  0.4415  0.3711 -0.2502
  402MOL0     C52934   0.150   9.830   3.396  0.3086  1.1566  0.2952
  402MOL0     O52935   0.092   9.951   3.374  0.2694 -0.2047  0.7870
  402MOL0     C52936   0.042  10.031   3.468  0.4605 -0.1434 -0.4509
  402MOL0     C52937   0.013  10.004   3.598  0.8486  0.1341 -0.1433
  402MOL0     C52938  -0.060  10.093   3.682  0.7627 -0.9045  0.9202
  402MOL0     C52939  -0.084  10.223   3.635  0.2023  0.4671  1.3927
  402MOL0     O52940  -0.132  10.318   3.723  0.0496 -0.4631 -0.0645
  402MOL0     C52941  -0.239  10.406   3.693  0.2754  0.8487  0.4225
  402MOL0     C52942  -0.203  10.549   3.673 -1.0400  0.8261 -0.3201
  402MOL0     C52943  -0.101  10.610   3.776  0.3588 -1.3850  0.1227
  402MOL0     C52944  -0.165  10.621   3.913 -0.7793 -0.4324 -0.0176
  402MOL0     C52945  -0.058  10.663   4.020  0.0170 -0.2810  0.8871
  402MOL0     C52946  -0.131  10.692   4.153 -0.2031  0.6927 -1.0830
  402MOL0     C52947  -0.040  10.705   4.276 -0.4145 -0.1242  0.1720
  402MOL0     C52948   0.085  10.790   4.258  0.1675  0.6874  1.0462
  402MOL0     N52949   0.044  10.927   4.221 -0.7587  0.0531 -0.0458
  402MOL0     C52950   0.074  11.035   4.302  0.0418 -0.5224 -0.6859
  402MOL0     C52951   0.036  11.146   4.234 -0.6510 -0.8369  0.2594
  402MOL0     C52952   0.065  11.294   4.263  0.5009 -0.5634 -0.4003
  402MOL0     C52953  -0.069  11.364   4.280  0.1705  0.0549 -0.2765
  402MOL0     C52954  -0.038  11.509   4.319 -1.2557 -0.6029  0.4876
  402MOL0     C52955  -0.045  11.541   4.462  0.6803  0.5870  1.2019
  402MOL0     O52956  -0.048  11.680   4.479  0.4395  0.3253  0.0895
  402MOL0     C52957   0.063  11.759   4.480  1.1745 -0.4543 -0.4552
  402MOL0     C52958   0.140  11.761   4.594 -0.3755 -1.1323 -0.3497
  402MOL0     C52959   0.250  11.854   4.604 -0.0322 -0.9007  0.4317
  402MOL0     C52960   0.291  11.941   4.492  0.3692 -0.1917 -0.3660
  402MOL0     C52961   0.402  12.039   4.501  0.0819 -0.4605 -0.2168
  402MOL0     O52962   0.461  12.080   4.382 -0.6955  0.7906  0.4652
  402MOL0     C52963   0.551  12.185   4.387 -0.0223 -0.4238 -0.1569
  402MOL0     C52964   0.529  12.301   4.463 -0.0218  0.1898 -0.5281
  402MOL0     C52965   0.603  12.420   4.429  0.1429  0.6267 -0.4712
  402MOL0     C52966   0.693  12.414   4.320 -0.5989 -0.5523  0.9305
  402MOL0     O52967   0.759  12.531   4.282  0.3318  0.8321 -0.6072
  402MOL0     C52968   0.864  12.535   4.181  0.9646  0.0583  0.6717
  402MOL0     C52969   0.869  12.676   4.128 -0.2757 -0.2683 -0.0472
  402MOL0     C52970   0.766  12.698   4.022  0.3784 -0.0671  0.3810
  402MOL0     C52971   0.754  12.839   3.965 -0.3993 -0.7662  0.1758
  402MOL0     C52972   0.661  12.852   3.845  0.0085 -0.3595  0.4571
  402MOL0     C52973   0.528  12.782   3.858  0.3689 -0.3608  0.4460
  402MOL0     C52974   0.413  12.850   3.775  0.6742  0.4851  0.4198
  402MOL0     C52975   0.273  12.780   3.783  0.5868 -0.6554 -0.2177
  402MOL0    Cl52976   0.154  12.862   3.686 -0.3237 -0.2157 -0.4768
  402MOL0     C52977   0.715  12.295   4.248 -0.1135 -0.4139 -1.1550
  402MOL0     C52978   0.656  12.175   4.296  0.1787 -0.4213  0.2086
  402MOL0     O52979   0.434  12.074   4.619 -0.4620 -1.1606 -0.8776
  402MOL0     C52980   0.209  11.929   4.375 -0.3649  0.3654 -0.2899
  402MOL0     C52981   0.091  11.845   4.369 -0.4143  0.8040  0.5547
  402MOL0     N52982  -0.016  11.106   4.107 -0.1723 -0.4755 -0.0745
  402MOL0     N52983  -0.013  10.976   4.109  0.2366 -0.0055  0.3118
  402MOL0     C52984  -0.035  10.260   3.504 -0.9881 -0.3934 -0.2658
  402MOL0     C52985   0.019  10.157   3.415 -0.0027  0.4328 -0.7680
  402MOL0     C52986   0.194   9.757   3.278 -0.0671 -0.4329 -0.5871
  402MOL0     C52987   0.233   9.832   3.170 -0.5210 -0.1575  0.2199
  402MOL0     C52988   0.268   9.774   3.048  0.1849 -1.0834 -0.0096
  402MOL0     C52989   0.296   9.634   3.045 -0.3023  0.6209  0.8465
  402MOL0     O52990   0.338   9.558   2.940 -0.2404 -0.2016  0.4428
  402MOL0     C52991   0.419   9.624   2.838  0.1998 -0.5322 -0.3695
  402MOL0     C52992   0.346   9.674   2.714 -0.0750 -0.5841  0.3691
  402MOL0     C52993   0.261   9.564   2.649 -0.2062  0.4046 -1.3482
  402MOL0     C52994   0.341   9.484   2.541 -0.0325 -0.1478  0.0898
  402MOL0     C52995   0.375   9.572   2.425 -0.2513  0.4701 -0.0917
  402MOL0     C52996   0.391   9.645   2.330  0.4057  0.2504 -0.4115
  402MOL0     C52997   0.256   9.561   3.161  0.2244 -0.2341 -0.7079
  402MOL0     C52998   0.207   9.620   3.280 -0.3314  0.5021  0.3829
  402MOL0     H52999   0.019   9.905   3.643 -3.7446 -0.5433 -0.5347
  402MOL0     H53000  -0.089  10.061   3.782  0.6844 -1.6119  0.6755
  402MOL0     H53001  -0.305  10.398   3.779  5.5413  0.8640  4.9995
  402MOL0     H53002  -0.289  10.380   3.599  2.4605  1.9047 -1.1402
  402MOL0     H53003  -0.300  10.600   3.671 -2.8306 -2.1146  2.1911
  402MOL0     H53004  -0.143  10.560   3.582  0.3106 -0.0598  0.4321
  402MOL0     H53005  -0.081  10.712   3.741 -1.8903 -1.0442 -0.3230
  402MOL0     H53006  -0.011  10.547   3.774  0.3594 -1.3736 -0.3377
  402MOL0     H53007  -0.253  10.684   3.902 -0.8094 -0.7913 -2.4316
  402MOL0     H53008  -0.199  10.520   3.939  1.1512 -1.2354 -0.4271
  402MOL0     H53009  -0.012  10.756   3.986  1.8014 -1.3004  0.3200
  402MOL0     H53010   0.017  10.584   4.030  1.8410  1.1575 -0.6302
  402MOL0     H53011  -0.215  10.630   4.186 -2.3637  2.8300 -2.2251
  402MOL0     H53012  -0.183  10.788   4.154  0.4304  1.0336 -0.4742
  402MOL0     H53013  -0.100  10.748   4.357 -0.3196  1.3998 -0.5349
  402MOL0     H53014  -0.016  10.601   4.301 -0.5181  0.0718  1.1211
  402MOL0     H53015   0.162  10.746   4.194 -1.4188  0.6442 -0.9106
  402MOL0     H53016   0.130  10.794   4.358 -1.6978 -2.7973  2.1952
  402MOL0     H53017   0.126  11.038   4.397  0.0241 -1.9328 -0.6044
  402MOL0     H53018   0.114  11.335   4.174 -1.1546  1.7048 -0.3675
  402MOL0     H53019   0.128  11.301   4.351 -2.2765 -1.7159  1.8222
  402MOL0     H53020  -0.140  11.322   4.351  0.4504 -2.0170 -1.1395
  402MOL0     H53021  -0.123  11.355   4.185 -1.1869  1.3956  0.3412
  402MOL0     H53022   0.058  11.541   4.277 -1.0512 -2.6692 -0.7926
  402MOL0     H53023  -0.111  11.566   4.261 -1.2370 -1.3375 -0.2779
  402MOL0     H53024   0.040  11.492   4.511  1.1556 -0.5675 -0.6666
  402MOL0     H53025  -0.136  11.495   4.501  2.1745 -1.1525  2.8039
  402MOL0     H53026   0.116  11.696   4.678  0.3128 -0.5026  0.3466
  402MOL0     H53027   0.295  11.866   4.702  1.2657  1.5350 -0.3879
  402MOL0     H53028   0.457  12.311   4.543  0.5297  0.8943 -0.1063
  402MOL0     H53029   0.595  12.504   4.497 -2.2433  0.6558 -0.7328
  402MOL0     H53030   0.840  12.471   4.096 -1.9748 -0.9236  2.1013
  402MOL0     H53031   0.959  12.503   4.224  1.3987  0.7756  0.2546
  402MOL0     H53032   0.971  12.696   4.091  0.0396 -1.2244  0.2738
  402MOL0     H53033   0.849  12.743   4.211 -0.3819 -1.0146  0.5390
  402MOL0     H53034   0.677  12.679   4.082  1.7199 -0.4720  2.3864
  402MOL0     H53035   0.759  12.625   3.942 -2.8089 -0.1950  0.6687
  402MOL0     H53036   0.736  12.922   4.034  2.6975  3.4270 -3.4498
  402MOL0     H53037   0.856  12.857   3.930 -0.9381  2.2452 -0.1060
  402MOL0     H53038   0.703  12.814   3.752 -0.5704  0.5928 -0.2090
  402MOL0     H53039   0.646  12.959   3.828  0.1484 -0.5315 -0.7797
  402MOL0     H53040   0.504  12.792   3.964  1.3732  3.9629  0.4748
  402MOL0     H53041   0.542  12.677   3.830 -0.3830 -0.5106  0.6178
  402MOL0     H53042   0.407  12.956   3.798 -0.7992  0.2662  1.1219
  402MOL0     H53043   0.436  12.836   3.669 -0.2447  1.7941  0.0258
  402MOL0     H53044   0.252  12.765   3.890  1.7290  1.4368  0.3565
  402MOL0     H53045   0.285  12.682   3.736 -0.5083 -1.1618  0.5041
  402MOL0     H53046   0.792  12.279   4.172  0.7847 -0.2803 -0.2990
  402MOL0     H53047   0.674  12.086   4.238  1.8120  0.0289 -0.0211
  402MOL0     H53048   0.227  11.997   4.293  0.3659 -0.2108 -0.6207
  402MOL0     H53049   0.021  11.840   4.286 -1.1379  2.1258  1.0509
  402MOL0     H53050  -0.063  10.356   3.462  0.0057  0.1660  0.3060
  402MOL0     H53051   0.021  10.170   3.307 -0.0761  0.1362 -0.8040
  402MOL0     H53052   0.211   9.937   3.188 -0.7913 -0.6018  2.7682
  402MOL0     H53053   0.265   9.841   2.963  2.3179 -0.4002  0.3991
  402MOL0     H53054   0.506   9.562   2.814  1.7997  0.7498  1.7110
  402MOL0     H53055   0.464   9.709   2.890 -1.1685 -0.1777  0.2778
  402MOL0     H53056   0.273   9.751   2.742 -3.3383 -1.2886 -4.7961
  402MOL0     H53057   0.422   9.724   2.653 -2.1151  1.4358 -0.6747
  402MOL0     H53058   0.181   9.615   2.595 -0.6273  0.1394 -0.9846
  402MOL0     H53059   0.219   9.491   2.719 -0.2594 -0.9683 -2.7415
  402MOL0     H53060   0.435   9.459   2.591  0.7001  1.0120 -0.6426
  402MOL0     H53061   0.300   9.391   2.501  2.3384 -0.5299 -1.6603
  402MOL0     H53062   0.400   9.702   2.239 -2.5581 -0.8261 -1.4798
  402MOL0     H53063   0.259   9.453   3.157  0.9213 -0.2304 -0.4522
  402MOL0     H53064   0.184   9.564   3.370  3.8641 -1.3048  0.5647
  403MOL0     O53065   2.885   0.298  11.153 -0.6524 -0.6490  0.0761
  403MOL0     C53066   2.853   0.345  11.263 -0.4940 -0.4978 -0.1465
  403MOL0     O53067   2.916   0.333  11.386  0.2773 -0.6378  0.3155
  403MOL0     C53068   3.017   0.239  11.391  0.7800 -0.5812  0.3463
  403MOL0     C53069   2.983   0.110  11.420 -0.2664 -0.6962 -0.1907
  403MOL0     C53070   3.091   0.015  11.402  1.6011  0.1464 -0.0152
  403MOL0     C53071   3.216   0.040  11.353 -0.6787 -0.6148 -0.5121
  403MOL0     O53072   3.313  -0.052  11.340 -0.0581 -1.0658 -0.4788
  403MOL0     C53073   3.295  -0.177  11.275  0.1699 -0.2885  0.2596
  403MOL0     C53074   3.436  -0.244  11.250 -0.6591  0.1626 -0.5777
  403MOL0     C53075   3.545  -0.152  11.178  0.6077 -0.2725 -0.0976
  403MOL0     C53076   3.671  -0.239  11.159 -0.1460 -0.3847  0.6096
  403MOL0     C53077   3.798  -0.162  11.112  0.9954 -0.8538  0.5291
  403MOL0     C53078   3.816  -0.167  10.960  0.3050  0.0781  0.9744
  403MOL0     C53079   3.937  -0.082  10.904 -0.3176  0.7498  0.4242
  403MOL0     C53080   3.966  -0.117  10.751  0.2452  0.2667  0.2086
  403MOL0     N53081   3.943   0.002  10.671  0.0895 -0.3027 -0.6548
  403MOL0     C53082   4.037   0.109  10.657 -0.1359  0.3190 -0.0912
  403MOL0     C53083   3.991   0.198  10.569  0.4052 -1.0303 -0.6056
  403MOL0     C53084   4.066   0.320  10.525  0.8486  0.1908 -0.2685
  403MOL0     C53085   4.074   0.424  10.639 -0.1189  0.2308 -1.1993
  403MOL0     C53086   4.167   0.531  10.588 -0.9870 -1.2639  0.3583
  403MOL0     C53087   4.157   0.661  10.657  0.0472 -0.2637  0.1903
  403MOL0     O53088   4.134   0.660  10.795 -0.0100  0.0089  0.0301
  403MOL0     C53089   4.073   0.768  10.858  0.7115  0.0292 -0.1712
  403MOL0     C53090   4.055   0.751  11.001  0.3902  0.1471  0.4851
  403MOL0     C53091   3.993   0.847  11.073  0.7585 -1.1426  0.4166
  403MOL0     C53092   3.946   0.961  11.014  0.2076 -0.0638  0.5867
  403MOL0     C53093   3.876   1.054  11.100  0.2694 -0.1068  0.6817
  403MOL0     O53094   3.821   1.012  11.226  0.1174 -0.2591 -0.0499
  403MOL0     C53095   3.735   1.107  11.285 -0.3165  1.0243  0.3154
  403MOL0     C53096   3.729   1.120  11.419 -0.7027 -0.8439  0.3966
  403MOL0     C53097   3.632   1.198  11.481 -0.6383 -0.8707 -0.2031
  403MOL0     C53098   3.532   1.255  11.411 -0.3819 -0.5600 -0.5745
  403MOL0     O53099   3.442   1.335  11.479  0.0183  0.4340  0.7507
  403MOL0     C53100   3.334   1.398  11.402  0.5616  0.2089 -0.1664
  403MOL0     C53101   3.223   1.436  11.496 -0.0947 -0.5433  0.5666
  403MOL0     C53102   3.139   1.558  11.436 -0.7396 -0.2692  0.6633
  403MOL0     C53103   3.021   1.602  11.525 -0.8876  0.2070  0.5191
  403MOL0     C53104   2.927   1.689  11.435  0.1130  0.6114  0.2638
  403MOL0     C53105   2.844   1.788  11.509 -0.0698  0.3683 -0.1396
  403MOL0     C53106   2.764   1.867  11.408 -0.6058  0.1940 -0.1606
  403MOL0     C53107   2.665   1.970  11.468 -1.0270 -1.1840 -0.0416
  403MOL0    Cl53108   2.580   2.067  11.335 -0.0860 -0.1569 -0.0481
  403MOL0     C53109   3.529   1.234  11.271 -0.7130 -0.6716  0.4707
  403MOL0     C53110   3.624   1.151  11.214  0.2365 -0.6029  0.3259
  403MOL0     O53111   3.866   1.167  11.051  0.7498 -0.2326  0.8703
  403MOL0     C53112   3.967   0.973  10.871 -0.2228 -0.3202 -1.2340
  403MOL0     C53113   4.027   0.886  10.798 -0.0823  0.1902 -0.2298
  403MOL0     N53114   3.867   0.150  10.530  0.5096 -0.6091 -0.3478
  403MOL0     N53115   3.841   0.036  10.584 -0.7340 -0.4173  0.2737
  403MOL0     C53116   3.244   0.177  11.325  0.2707  0.2529 -0.2786
  403MOL0     C53117   3.145   0.273  11.353  0.2898 -0.0639  1.2310
  403MOL0     C53118   2.717   0.402  11.257 -0.8046 -1.0472  0.2102
  403MOL0     C53119   2.607   0.332  11.198  0.0958  0.2888  0.0994
  403MOL0     C53120   2.481   0.377  11.196  0.0701  0.7961  0.4553
  403MOL0     C53121   2.451   0.494  11.252  0.0542 -1.1148  0.6135
  403MOL0     O53122   2.322   0.534  11.238  0.1569  0.3373 -1.1525
  403MOL0     C53123   2.275   0.610  11.355 -0.0179  1.1281  0.2138
  403MOL0     C53124   2.126   0.636  11.344  0.3288 -0.6783  0.0141
  403MOL0     C53125   2.038   0.507  11.342 -0.4541 -0.5745  0.7603
  403MOL0     C53126   2.036   0.429  11.479 -0.0475 -0.0449  0.5822
  403MOL0     C53127   1.920   0.338  11.494  0.0344 -1.3052  0.4279
  403MOL0     C53128   1.827   0.262  11.497 -0.4135 -0.4627 -0.1538
  403MOL0     C53129   2.556   0.579  11.292  0.5573  0.4998 -0.5437
  403MOL0     C53130   2.695   0.532  11.308 -0.6451 -0.7139  0.7827
  403MOL0     H53131   2.880   0.096  11.450 -0.8117 -0.1683 -1.7377
  403MOL0     H53132   3.082  -0.089  11.433 -0.8310  0.4567  0.5228
  403MOL0     H53133   3.248  -0.156  11.179 -2.7439 -0.0368  1.6209
  403MOL0     H53134   3.229  -0.235  11.340 -1.6414  0.2027 -1.0845
  403MOL0     H53135   3.425  -0.331  11.185 -0.3241 -1.2011  1.1387
  403MOL0     H53136   3.471  -0.266  11.351 -1.4080  4.5139  0.8401
  403MOL0     H53137   3.577  -0.065  11.237 -0.8901 -0.3133  0.8145
  403MOL0     H53138   3.511  -0.104  11.086  2.5739 -0.2171 -0.8376
  403MOL0     H53139   3.694  -0.284  11.256 -0.0336 -0.3714  0.5881
  403MOL0     H53140   3.645  -0.313  11.083  1.4390  1.2219 -1.6455
  403MOL0     H53141   3.877  -0.216  11.164  3.0686 -0.6289 -2.1857
  403MOL0     H53142   3.781  -0.060  11.148 -3.8513 -0.7417 -1.3070
  403MOL0     H53143   3.730  -0.125  10.907  1.9891  0.0842 -2.0077
  403MOL0     H53144   3.816  -0.270  10.924 -0.0326  0.2989  0.3256
  403MOL0     H53145   3.910   0.024  10.914  0.8392  0.9740  1.3545
  403MOL0     H53146   4.028  -0.105  10.960  0.1642 -0.7791 -0.9137
  403MOL0     H53147   3.900  -0.200  10.725  0.0936  0.5582 -0.3604
  403MOL0     H53148   4.069  -0.154  10.750 -0.6533 -2.5079  1.2039
  403MOL0     H53149   4.126   0.122  10.717 -0.6503  0.4348  0.6675
  403MOL0     H53150   4.020   0.365  10.436 -1.3193 -0.7891  0.2861
  403MOL0     H53151   4.166   0.283  10.500  0.2116 -0.6574 -1.7397
  403MOL0     H53152   4.107   0.386  10.736 -0.1500 -0.0972 -1.3157
  403MOL0     H53153   3.979   0.477  10.649  0.8766  1.6517  4.6340
  403MOL0     H53154   4.272   0.501  10.591 -0.4918 -1.5134 -5.8875
  403MOL0     H53155   4.154   0.548  10.480 -3.5873 -0.7196  0.6747
  403MOL0     H53156   4.085   0.730  10.611 -0.8858 -0.4430  1.3452
  403MOL0     H53157   4.253   0.714  10.650 -0.1219  0.6261  3.2280
  403MOL0     H53158   4.081   0.661  11.056 -1.4938 -2.6381 -2.7283
  403MOL0     H53159   3.982   0.836  11.181 -0.7482 -1.2926  0.2663
  403MOL0     H53160   3.805   1.069  11.478 -2.2584 -4.1057 -0.1863
  403MOL0     H53161   3.634   1.212  11.589  1.2491  0.9019 -0.4127
  403MOL0     H53162   3.290   1.323  11.335 -3.4934  0.3402  2.0445
  403MOL0     H53163   3.376   1.484  11.350  1.6247  0.8408  1.6756
  403MOL0     H53164   3.276   1.474  11.584  2.4810 -1.6549 -0.4295
  403MOL0     H53165   3.157   1.354  11.525 -3.0268  1.9017  1.4367
  403MOL0     H53166   3.124   1.530  11.331 -0.4717  1.9579 -0.0021
  403MOL0     H53167   3.206   1.644  11.432  1.6742 -2.0592 -0.0676
  403MOL0     H53168   2.969   1.512  11.560 -1.4648  1.2030  2.3009
  403MOL0     H53169   3.050   1.651  11.618  2.1252 -0.8355  0.2402
  403MOL0     H53170   2.869   1.621  11.373  1.8556 -1.7956  1.1342
  403MOL0     H53171   2.982   1.751  11.364 -0.7520  0.3800 -0.6230
  403MOL0     H53172   2.918   1.848  11.561  0.8116  0.4915 -1.4798
  403MOL0     H53173   2.781   1.751  11.590  0.5769  2.4078  1.3911
  403MOL0     H53174   2.837   1.921  11.346 -1.9066 -0.6112 -2.5056
  403MOL0     H53175   2.704   1.801  11.345 -0.5196 -1.3940  1.3720
  403MOL0     H53176   2.732   2.033  11.528  0.2491 -0.3519 -2.1958
  403MOL0     H53177   2.589   1.922  11.530  1.3096 -3.7589  1.0509
  403MOL0     H53178   3.468   1.293  11.204 -0.5814 -1.6274 -0.5271
  403MOL0     H53179   3.634   1.127  11.108  0.5992  0.9962 -0.0320
  403MOL0     H53180   3.922   1.053  10.813 -1.3713 -1.7219 -2.3836
  403MOL0     H53181   4.026   0.895  10.689 -0.6034 -0.4357 -0.2845
  403MOL0     H53182   3.341   0.205  11.286  0.8631 -0.4138  0.6659
  403MOL0     H53183   3.170   0.378  11.338 -0.6378  0.1555  1.1738
  403MOL0     H53184   2.631   0.244  11.140 -3.0930  0.5091 -1.8213
  403MOL0     H53185   2.408   0.313  11.148  2.3499 -0.9063 -0.9713
  403MOL0     H53186   2.328   0.706  11.358  2.6988 -0.3133  1.5372
  403MOL0     H53187   2.308   0.553  11.442  2.5554 -0.3170 -1.5474
  403MOL0     H53188   2.098   0.698  11.430  0.3940 -1.6960  0.7832
  403MOL0     H53189   2.119   0.692  11.250 -1.0699 -1.6424 -0.4829
  403MOL0     H53190   2.068   0.441  11.259  0.9168 -0.2265  0.9607
  403MOL0     H53191   1.935   0.531  11.314 -0.5181  0.2755  1.6926
  403MOL0     H53192   2.121   0.361  11.491 -0.9750 -0.9195  2.8389
  403MOL0     H53193   2.044   0.499  11.563  2.5156  0.5867 -0.0751
  403MOL0     H53194   1.747   0.191  11.496 -0.0714 -0.9237 -2.9631
  403MOL0     H53195   2.543   0.685  11.312 -0.9078  0.1324  0.6313
  403MOL0     H53196   2.771   0.602  11.342 -0.8309 -0.2538  0.2802
  404MOL0     O53197   7.332   7.663   9.788 -0.4373  0.1820 -0.1218
  404MOL0     C53198   7.356   7.758   9.705  0.5453  0.6721  0.2294
  404MOL0     O53199   7.405   7.737   9.584  0.2467  0.4195 -0.2295
  404MOL0     C53200   7.466   7.624   9.542 -0.7122 -0.4306  0.8562
  404MOL0     C53201   7.461   7.593   9.408 -0.0267 -1.4701 -0.0260
  404MOL0     C53202   7.547   7.509   9.338 -0.8758  0.9489 -0.2881
  404MOL0     C53203   7.645   7.434   9.410  0.4598 -1.1064  0.1676
  404MOL0     O53204   7.713   7.330   9.350 -0.1278  0.9755 -0.1277
  404MOL0     C53205   7.666   7.201   9.401 -0.2361  0.0648  0.2418
  404MOL0     C53206   7.769   7.090   9.362 -0.8849 -0.6845  0.2957
  404MOL0     C53207   7.729   6.949   9.403  0.1456  0.7761 -0.4991
  404MOL0     C53208   7.832   6.851   9.333  0.1936  0.3672 -0.0200
  404MOL0     C53209   7.820   6.713   9.375 -0.0913 -0.6260 -0.0122
  404MOL0     C53210   7.914   6.630   9.287 -0.7462  0.0707 -0.5493
  404MOL0     C53211   7.922   6.485   9.326  0.0076  0.1856  0.6798
  404MOL0     C53212   7.808   6.389   9.294  0.1844 -0.0414 -0.4880
  404MOL0     N53213   7.850   6.260   9.243  0.0336 -0.0738 -0.1311
  404MOL0     C53214   7.837   6.134   9.309  0.2946 -0.3706 -0.0665
  404MOL0     C53215   7.909   6.049   9.236  0.0357 -0.0754 -0.7496
  404MOL0     C53216   7.921   5.901   9.254  0.0188  0.9790 -0.0303
  404MOL0     C53217   7.803   5.814   9.255  0.5462  0.2896 -0.1615
  404MOL0     C53218   7.747   5.809   9.115  0.3154  1.2933  0.0828
  404MOL0     C53219   7.629   5.705   9.107  0.1154 -0.9211  0.4768
  404MOL0     O53220   7.680   5.566   9.097  0.2301 -0.2213  0.8220
  404MOL0     C53221   7.747   5.539   8.980 -0.6968 -0.8766  0.4732
  404MOL0     C53222   7.677   5.501   8.867 -0.3708 -0.1686  0.5875
  404MOL0     C53223   7.741   5.461   8.753 -0.6063  0.4294 -0.5276
  404MOL0     C53224   7.874   5.473   8.742 -0.5806 -0.1822  0.2577
  404MOL0     C53225   7.947   5.438   8.612  0.1568  0.2679  0.4318
  404MOL0     O53226   8.078   5.422   8.622 -0.1120 -0.3768  0.7385
  404MOL0     C53227   8.155   5.360   8.532  0.3891  0.2218  1.6065
  404MOL0     C53228   8.251   5.418   8.445 -0.4041 -0.3354  1.2568
  404MOL0     C53229   8.348   5.346   8.373  0.8213 -0.0563 -0.9332
  404MOL0     C53230   8.346   5.201   8.372 -0.0569 -0.3938  0.1098
  404MOL0     O53231   8.419   5.120   8.293  0.6881 -0.0959 -0.0323
  404MOL0     C53232   8.540   5.164   8.227  0.7003 -0.2566 -0.8152
  404MOL0     C53233   8.644   5.158   8.341 -0.0350 -0.4113 -0.9517
  404MOL0     C53234   8.785   5.128   8.296 -0.3334 -0.4070 -0.5014
  404MOL0     C53235   8.819   5.002   8.229  0.0311  0.2948  0.6548
  404MOL0     C53236   8.822   4.876   8.309 -0.2077  0.3092 -0.4689
  404MOL0     C53237   8.888   4.759   8.235 -0.0890  0.3275 -0.0812
  404MOL0     C53238   8.876   4.638   8.323  0.1200 -0.2133 -0.6512
  404MOL0     C53239   8.965   4.521   8.279 -0.5135 -0.2732  0.4585
  404MOL0    Cl53240   9.135   4.570   8.274 -0.3415 -0.1862  0.1462
  404MOL0     C53241   8.251   5.145   8.444 -0.5730 -0.3904  0.8030
  404MOL0     C53242   8.156   5.222   8.529 -0.5219 -0.2327 -0.5058
  404MOL0     O53243   7.887   5.416   8.509  0.0924  0.4143 -0.8483
  404MOL0     C53244   7.950   5.516   8.851 -1.1455  0.7155 -0.4424
  404MOL0     C53245   7.889   5.553   8.965 -0.2388  0.7712 -0.8725
  404MOL0     N53246   7.962   6.118   9.128  0.4583 -0.1964  0.3340
  404MOL0     N53247   7.919   6.244   9.123 -0.3460  1.1184 -0.4838
  404MOL0     C53248   7.650   7.455   9.545  0.2539 -0.6187  0.0537
  404MOL0     C53249   7.559   7.539   9.616  0.6233  0.1631 -1.1800
  404MOL0     C53250   7.310   7.895   9.744  0.8768  0.5967 -1.1841
  404MOL0     C53251   7.237   7.907   9.862  0.8917  0.8947 -0.0350
  404MOL0     C53252   7.212   8.034   9.923  0.7348 -0.8519 -0.5492
  404MOL0     C53253   7.251   8.149   9.856 -0.3616  0.8721 -0.3284
  404MOL0     O53254   7.237   8.273   9.914  0.7288 -0.3164  0.4745
  404MOL0     C53255   7.102   8.308   9.950  0.6922 -0.6495  0.4475
  404MOL0     C53256   7.092   8.424  10.042 -0.4546  0.2560 -0.2680
  404MOL0     C53257   7.069   8.558   9.970  0.5256 -0.4125 -0.4843
  404MOL0     C53258   7.084   8.686  10.065  0.0283  1.0757 -0.1051
  404MOL0     C53259   6.978   8.684  10.161 -0.2044 -0.1764 -0.4296
  404MOL0     C53260   6.900   8.671  10.248  0.1630  0.3668 -0.7726
  404MOL0     C53261   7.318   8.130   9.734  0.6059 -0.2232 -0.1599
  404MOL0     C53262   7.347   8.010   9.679  0.7347  0.4464 -0.6517
  404MOL0     H53263   7.387   7.656   9.359 -0.7491 -0.5765  2.1157
  404MOL0     H53264   7.554   7.496   9.230  4.3455 -2.0507  0.1094
  404MOL0     H53265   7.579   7.177   9.339 -0.3536 -1.7522  1.0439
  404MOL0     H53266   7.651   7.192   9.509 -1.8033 -0.2589  0.0147
  404MOL0     H53267   7.858   7.122   9.419 -1.6859  0.4119  0.9752
  404MOL0     H53268   7.785   7.097   9.254 -1.6777 -1.8016  0.0879
  404MOL0     H53269   7.628   6.917   9.375  0.5893 -2.0407  0.7517
  404MOL0     H53270   7.723   6.949   9.512  0.2290  0.6702 -0.4946
  404MOL0     H53271   7.832   6.866   9.224 -1.5653  0.9433  0.0313
  404MOL0     H53272   7.931   6.884   9.366  0.5353 -1.7839  1.2925
  404MOL0     H53273   7.718   6.676   9.354  0.4659 -1.4355 -1.4730
  404MOL0     H53274   7.835   6.706   9.483 -2.4991  4.1545  0.8871
  404MOL0     H53275   8.013   6.675   9.300 -1.8362  2.6197 -0.3955
  404MOL0     H53276   7.891   6.632   9.180 -2.2220  0.4617 -0.2507
  404MOL0     H53277   8.006   6.444   9.269 -0.6077 -0.1158 -0.0325
  404MOL0     H53278   7.934   6.479   9.434 -1.3700  2.0830  1.0004
  404MOL0     H53279   7.754   6.443   9.216 -1.2353  1.6012  1.5052
  404MOL0     H53280   7.738   6.370   9.376  1.7269 -2.3267  0.3845
  404MOL0     H53281   7.773   6.106   9.391  0.1368 -3.0812 -1.0066
  404MOL0     H53282   7.953   5.889   9.358  2.3204  0.3663 -0.7504
  404MOL0     H53283   7.994   5.868   9.180  0.9290  1.0471  0.8018
  404MOL0     H53284   7.713   5.844   9.311 -1.0615 -1.1422 -1.8329
  404MOL0     H53285   7.829   5.716   9.295  0.4159 -0.4912 -1.8728
  404MOL0     H53286   7.693   5.902   9.096 -0.8252  0.8887  1.1602
  404MOL0     H53287   7.829   5.806   9.043  0.5790 -0.1624  0.4107
  404MOL0     H53288   7.566   5.725   9.020 -1.1184 -0.8499  1.3683
  404MOL0     H53289   7.564   5.717   9.194 -1.6531 -0.3408 -0.8624
  404MOL0     H53290   7.569   5.495   8.879 -0.4380 -3.9220 -0.5087
  404MOL0     H53291   7.687   5.411   8.673 -0.8321  0.2921 -0.2944
  404MOL0     H53292   8.253   5.526   8.437  0.3756 -0.4914 -3.2934
  404MOL0     H53293   8.426   5.397   8.318 -0.5804  0.7030 -2.2680
  404MOL0     H53294   8.531   5.264   8.184 -0.8868  0.6455  1.4345
  404MOL0     H53295   8.551   5.088   8.149  2.7118 -3.0031  1.9169
  404MOL0     H53296   8.625   5.079   8.415 -1.9071  2.2744  1.6545
  404MOL0     H53297   8.634   5.250   8.398  2.5679 -0.4628 -0.3229
  404MOL0     H53298   8.849   5.127   8.385 -0.1944  0.1203 -0.5908
  404MOL0     H53299   8.816   5.217   8.241 -1.9372 -1.0185 -2.5360
  404MOL0     H53300   8.749   4.992   8.146  3.0071  4.4000 -2.8003
  404MOL0     H53301   8.912   5.024   8.177 -0.5805 -0.4173 -0.7892
  404MOL0     H53302   8.716   4.851   8.324 -0.7711  2.0495 -1.3179
  404MOL0     H53303   8.877   4.892   8.402  1.9028  2.4095 -1.9693
  404MOL0     H53304   8.994   4.776   8.218  0.1513 -1.4083 -0.5331
  404MOL0     H53305   8.834   4.745   8.141 -2.0415  2.4845  0.6243
  404MOL0     H53306   8.902   4.661   8.427  0.4329  1.4026 -1.0516
  404MOL0     H53307   8.772   4.605   8.318  0.6545 -2.0612 -0.3668
  404MOL0     H53308   8.942   4.495   8.176 -0.2374  2.4391 -0.3589
  404MOL0     H53309   8.941   4.434   8.341 -1.6311 -0.6245 -0.4258
  404MOL0     H53310   8.244   5.038   8.456 -0.8483 -0.2928  1.6129
  404MOL0     H53311   8.081   5.188   8.600 -0.1259  3.0679  1.7311
  404MOL0     H53312   8.058   5.526   8.851 -0.9879  0.3586  3.1471
  404MOL0     H53313   7.950   5.592   9.045  0.9727 -0.3290 -1.2217
  404MOL0     H53314   7.721   7.403   9.609  1.7180  3.6663  2.3505
  404MOL0     H53315   7.566   7.550   9.724 -3.0715 -0.4784 -0.7590
  404MOL0     H53316   7.189   7.820   9.906  1.0421 -0.5082 -2.4493
  404MOL0     H53317   7.166   8.035  10.021 -2.1571 -0.2520 -1.8053
  404MOL0     H53318   7.056   8.225  10.003  0.2346 -1.2772 -0.8836
  404MOL0     H53319   7.037   8.328   9.863  1.0405  0.4910  0.4249
  404MOL0     H53320   7.007   8.416  10.110  0.4440 -0.9160  0.7762
  404MOL0     H53321   7.189   8.426  10.093  0.5233 -0.1595 -2.0356
  404MOL0     H53322   6.972   8.564   9.920  0.9320  0.2180 -1.2297
  404MOL0     H53323   7.150   8.569   9.897  1.6462 -1.2745  0.6030
  404MOL0     H53324   7.178   8.682  10.120  2.3648  1.3843 -3.7188
  404MOL0     H53325   7.089   8.776  10.003 -0.1656  1.0203 -0.2015
  404MOL0     H53326   6.831   8.658  10.330 -0.2060 -0.3117 -1.1795
  404MOL0     H53327   7.357   8.226   9.700 -1.4504  0.4763 -0.6588
  404MOL0     H53328   7.403   8.002   9.586  0.7668 -0.6255 -0.5604
  405MOL0     O53329   6.369   2.422   1.675  1.0081  0.2037  0.5856
  405MOL0     C53330   6.315   2.371   1.578 -0.0359 -0.4196  0.7259
  405MOL0     O53331   6.356   2.269   1.512  0.4556  0.8390 -0.6251
  405MOL0     C53332   6.457   2.178   1.548 -0.3544 -0.1949  0.3397
  405MOL0     C53333   6.487   2.147   1.684  0.1726  0.1950  0.0068
  405MOL0     C53334   6.591   2.064   1.710 -0.7891  0.5118  0.9587
  405MOL0     C53335   6.668   2.007   1.611 -0.5069  0.1332 -0.2257
  405MOL0     O53336   6.767   1.915   1.638 -0.1868 -1.1429  0.6623
  405MOL0     C53337   6.829   1.911   1.774 -1.2731 -0.4771 -0.2422
  405MOL0     C53338   6.947   1.809   1.804  1.1101  0.3363 -1.0545
  405MOL0     C53339   7.042   1.801   1.681  0.7403  0.5318  0.6609
  405MOL0     C53340   7.097   1.943   1.640  0.9636  0.0928 -0.2078
  405MOL0     C53341   7.200   1.928   1.532 -1.0016  0.3223  0.6064
  405MOL0     C53342   7.264   2.061   1.502  0.8220  0.4155  0.2694
  405MOL0     C53343   7.392   2.049   1.402  0.2249 -0.5617  0.6430
  405MOL0     C53344   7.493   2.158   1.421 -1.2426  0.3402  0.3358
  405MOL0     N53345   7.455   2.293   1.383 -0.4758 -0.0588  0.3184
  405MOL0     C53346   7.403   2.384   1.471 -0.5893  0.0798  0.2310
  405MOL0     C53347   7.406   2.495   1.407  0.4243 -1.1480 -0.4046
  405MOL0     C53348   7.396   2.631   1.473 -0.0996  0.8466 -0.8210
  405MOL0     C53349   7.259   2.685   1.468  0.0175  0.6028 -0.9389
  405MOL0     C53350   7.150   2.611   1.555  0.3675  0.0896 -0.4847
  405MOL0     C53351   7.153   2.613   1.707 -0.5485  0.0813 -0.1945
  405MOL0     O53352   7.251   2.525   1.763 -0.4923 -0.0157  0.1551
  405MOL0     C53353   7.266   2.520   1.899 -0.6296 -0.0737  0.3028
  405MOL0     C53354   7.361   2.419   1.951 -0.0388 -0.5966 -0.3729
  405MOL0     C53355   7.397   2.428   2.087 -0.5879 -0.0915 -0.5826
  405MOL0     C53356   7.338   2.515   2.184  0.2960 -0.3691  0.1153
  405MOL0     C53357   7.369   2.521   2.325  0.7725 -0.2152 -0.3160
  405MOL0     O53358   7.482   2.462   2.364 -0.4846 -0.0290  0.3498
  405MOL0     C53359   7.533   2.478   2.490  0.2903  0.4237  0.0245
  405MOL0     C53360   7.516   2.591   2.579  0.5766 -0.8505 -0.4512
  405MOL0     C53361   7.594   2.596   2.692 -1.0153  0.3462 -0.7042
  405MOL0     C53362   7.690   2.502   2.724 -0.6446 -0.2606 -0.5321
  405MOL0     O53363   7.747   2.501   2.847 -0.6534  0.0479 -0.2279
  405MOL0     C53364   7.842   2.607   2.864 -0.2623  0.1818  0.4588
  405MOL0     C53365   7.928   2.599   2.983  0.9660 -0.3335  0.5197
  405MOL0     C53366   7.850   2.630   3.107 -0.2629  0.2769  1.2070
  405MOL0     C53367   7.952   2.639   3.219 -0.7689 -0.0662 -0.5112
  405MOL0     C53368   7.936   2.762   3.303 -0.0446 -0.2283  0.2980
  405MOL0     C53369   8.038   2.745   3.422 -0.2374 -0.2208 -0.3615
  405MOL0     C53370   8.017   2.852   3.523  0.0679 -0.0760 -0.4449
  405MOL0     C53371   8.102   2.978   3.492  0.7725 -0.3087  0.2580
  405MOL0    Cl53372   8.277   2.955   3.527  0.2876  0.7464 -0.1973
  405MOL0     C53373   7.711   2.393   2.640 -0.1170  1.1996  0.5485
  405MOL0     C53374   7.624   2.383   2.528  0.7563  0.3237 -0.0478
  405MOL0     O53375   7.287   2.581   2.392 -0.3133  0.0760 -0.8496
  405MOL0     C53376   7.242   2.606   2.131 -0.5641 -0.4402  0.7750
  405MOL0     C53377   7.216   2.603   1.989 -1.0402 -0.6479 -0.6016
  405MOL0     N53378   7.464   2.474   1.282  0.1682  0.4836 -0.3334
  405MOL0     N53379   7.482   2.353   1.264 -0.1806 -0.0454 -0.0246
  405MOL0     C53380   6.636   2.028   1.475  1.1750 -0.2204  0.5643
  405MOL0     C53381   6.513   2.104   1.447 -1.0714 -0.6182  0.5305
  405MOL0     C53382   6.190   2.436   1.532 -0.3915 -0.6510 -0.2906
  405MOL0     C53383   6.162   2.572   1.560  0.8769 -0.1525 -0.2530
  405MOL0     C53384   6.037   2.627   1.512  0.5262  0.1893 -0.3110
  405MOL0     C53385   5.944   2.556   1.444 -0.6926  0.0081  0.0417
  405MOL0     O53386   5.831   2.624   1.403  0.1155  0.6083  0.4882
  405MOL0     C53387   5.708   2.586   1.466 -0.5431 -0.7330 -0.1820
  405MOL0     C53388   5.603   2.583   1.361  0.3132 -0.3963  0.2821
  405MOL0     C53389   5.619   2.477   1.260 -0.1470  0.0029  0.4910
  405MOL0     C53390   5.498   2.472   1.171  0.0349 -0.4222  1.1874
  405MOL0     C53391   5.495   2.560   1.052 -1.0311  0.7901  0.3293
  405MOL0     C53392   5.483   2.646   0.969  1.1069  0.1901  0.8257
  405MOL0     C53393   5.972   2.420   1.422 -0.3842 -0.5880 -0.3120
  405MOL0     C53394   6.092   2.361   1.464  0.0962 -0.5008 -0.0905
  405MOL0     H53395   6.442   2.201   1.767  2.0223  2.5655 -0.3866
  405MOL0     H53396   6.635   2.047   1.808  1.8182 -1.7217 -0.4558
  405MOL0     H53397   6.748   1.879   1.841  0.9599 -2.0660  1.8922
  405MOL0     H53398   6.854   2.013   1.806 -0.2530 -1.5246  2.6229
  405MOL0     H53399   6.898   1.716   1.833  0.7169  1.3161  1.7806
  405MOL0     H53400   7.004   1.837   1.893  1.1311  3.8180 -2.0154
  405MOL0     H53401   6.982   1.751   1.605  2.4255  0.7560 -0.8708
  405MOL0     H53402   7.125   1.736   1.708  1.5871  0.7144 -1.3480
  405MOL0     H53403   7.014   2.005   1.605  1.1722  1.8943  2.2120
  405MOL0     H53404   7.130   1.995   1.731  0.7265 -0.1384  0.0120
  405MOL0     H53405   7.144   1.896   1.444 -1.4711 -2.4192  1.8004
  405MOL0     H53406   7.279   1.854   1.552  0.0877  1.7514  1.8488
  405MOL0     H53407   7.300   2.095   1.600 -2.8859  1.0253  1.5601
  405MOL0     H53408   7.187   2.128   1.463 -0.3272  0.6029  2.6754
  405MOL0     H53409   7.439   1.950   1.403 -0.6360 -0.9811  0.9687
  405MOL0     H53410   7.360   2.067   1.299  1.7792 -2.3767 -0.2174
  405MOL0     H53411   7.576   2.141   1.353  1.0763  3.6779  2.0546
  405MOL0     H53412   7.528   2.155   1.525 -1.5224  1.2677  0.4637
  405MOL0     H53413   7.363   2.360   1.569 -2.8820 -5.7583 -1.7138
  405MOL0     H53414   7.469   2.692   1.419 -1.3015  1.8190 -1.4046
  405MOL0     H53415   7.425   2.610   1.576  3.0210 -3.2896 -2.2507
  405MOL0     H53416   7.239   2.701   1.361  0.2775  0.4257 -1.0127
  405MOL0     H53417   7.250   2.787   1.506  1.5963  0.5746 -0.4516
  405MOL0     H53418   7.055   2.657   1.528 -0.0062 -0.2630  0.2158
  405MOL0     H53419   7.129   2.509   1.520 -3.9113  1.1851 -1.6249
  405MOL0     H53420   7.059   2.570   1.743  0.5500 -0.4734  2.3037
  405MOL0     H53421   7.172   2.711   1.751 -0.2670 -0.1089  0.1180
  405MOL0     H53422   7.408   2.360   1.873  1.0543  1.6411 -1.5054
  405MOL0     H53423   7.482   2.365   2.111 -1.1233 -0.3972  0.5615
  405MOL0     H53424   7.442   2.668   2.561 -0.3831 -0.8052  3.0198
  405MOL0     H53425   7.580   2.679   2.761 -1.3584 -0.5095  0.2717
  405MOL0     H53426   7.796   2.706   2.853  1.4759  1.0459  0.5795
  405MOL0     H53427   7.896   2.602   2.769 -1.3554  4.2426 -0.5745
  405MOL0     H53428   8.020   2.657   2.969 -0.0739  1.0073 -1.1524
  405MOL0     H53429   7.960   2.494   2.990 -3.7816 -2.2315 -1.9017
  405MOL0     H53430   7.789   2.540   3.119 -0.5263  0.4221  0.9499
  405MOL0     H53431   7.790   2.721   3.100  1.0250  1.1395  0.9196
  405MOL0     H53432   7.923   2.548   3.273  1.0572  0.0968  0.8585
  405MOL0     H53433   8.055   2.639   3.185 -0.0216  2.4136  1.4856
  405MOL0     H53434   7.838   2.757   3.352 -0.9424  0.0107 -1.3880
  405MOL0     H53435   7.953   2.854   3.247 -1.6358  0.5400  0.9982
  405MOL0     H53436   8.142   2.732   3.392 -0.8226 -0.7277 -2.3094
  405MOL0     H53437   8.017   2.650   3.472 -2.1328  0.8119  0.9748
  405MOL0     H53438   7.910   2.871   3.534  0.0422 -0.3080 -0.3019
  405MOL0     H53439   8.057   2.807   3.614  0.9185 -1.6327 -1.5366
  405MOL0     H53440   8.067   3.046   3.570  0.3657  1.7302 -1.6133
  405MOL0     H53441   8.089   3.028   3.396 -1.6003  2.1777  1.7313
  405MOL0     H53442   7.787   2.318   2.659  0.2915 -0.3381 -5.1439
  405MOL0     H53443   7.627   2.307   2.451 -1.1152  0.1465  0.0025
  405MOL0     H53444   7.186   2.678   2.190 -1.6193  1.8268 -2.6891
  405MOL0     H53445   7.140   2.677   1.965 -1.6578 -1.0885 -0.0531
  405MOL0     H53446   6.679   1.964   1.398 -0.4912  0.8804 -1.3825
  405MOL0     H53447   6.484   2.118   1.344  3.1074 -0.3691 -0.8187
  405MOL0     H53448   6.229   2.626   1.627  0.4350 -1.5002  1.3251
  405MOL0     H53449   6.022   2.734   1.527 -0.8814 -0.2064  1.4023
  405MOL0     H53450   5.671   2.665   1.533 -0.8967  1.4601 -2.7986
  405MOL0     H53451   5.713   2.484   1.505 -2.4136 -1.0071 -0.5506
  405MOL0     H53452   5.515   2.552   1.419  1.5594 -2.7751  1.0497
  405MOL0     H53453   5.591   2.677   1.307  1.4635 -1.0151 -1.1123
  405MOL0     H53454   5.631   2.379   1.308  3.5241  0.1604  0.2326
  405MOL0     H53455   5.705   2.503   1.197  0.5203  3.2153  2.4502
  405MOL0     H53456   5.501   2.370   1.131 -3.4676  0.5044 -2.0441
  405MOL0     H53457   5.400   2.486   1.219 -0.8201 -0.0633 -0.5470
  405MOL0     H53458   5.489   2.719   0.891  2.6374 -1.4918 -0.7444
  405MOL0     H53459   5.893   2.358   1.380 -1.2535 -2.2304  3.2981
  405MOL0     H53460   6.125   2.259   1.450 -1.4287 -0.9707 -0.4203
  406MOL0     O53461   2.498   7.513   6.930  0.6188  0.0657 -0.6559
  406MOL0     C53462   2.396   7.463   6.879 -0.4892 -0.5896  0.1925
  406MOL0     O53463   2.314   7.519   6.792  0.2070 -0.3128  0.3229
  406MOL0     C53464   2.292   7.650   6.768 -0.1498  0.3371 -0.0781
  406MOL0     C53465   2.326   7.753   6.862 -0.7570  0.4590 -0.0157
  406MOL0     C53466   2.279   7.880   6.833 -0.5698  0.6466  0.1475
  406MOL0     C53467   2.194   7.906   6.726 -0.3182 -0.4981  0.2908
  406MOL0     O53468   2.142   8.029   6.710  0.4451  0.4208 -1.3317
  406MOL0     C53469   2.053   8.064   6.601 -0.3999  0.6197 -0.0894
  406MOL0     C53470   2.011   8.199   6.621  0.0124 -0.1759 -0.0208
  406MOL0     C53471   2.113   8.309   6.610  1.1297 -1.0933 -0.3023
  406MOL0     C53472   2.042   8.455   6.603 -0.2555 -0.1573 -0.2673
  406MOL0     C53473   2.146   8.565   6.623  0.3103  0.2522 -0.5518
  406MOL0     C53474   2.091   8.709   6.606 -0.2357  0.6242 -0.1654
  406MOL0     C53475   2.197   8.816   6.633 -0.4086 -0.4911 -0.2753
  406MOL0     C53476   2.149   8.953   6.576 -0.1200  0.2397 -0.6352
  406MOL0     N53477   2.037   9.013   6.643  0.4650  0.4199  0.0818
  406MOL0     C53478   1.946   9.092   6.573 -0.2085 -0.1386 -0.0018
  406MOL0     C53479   1.867   9.145   6.669  0.3139 -0.5738 -0.7210
  406MOL0     C53480   1.762   9.240   6.662 -0.1198 -0.2513 -0.0876
  406MOL0     C53481   1.622   9.172   6.669  0.1533  0.8063 -0.1164
  406MOL0     C53482   1.513   9.265   6.632  0.1408 -0.0176  1.3872
  406MOL0     C53483   1.381   9.199   6.595  0.6332  0.9536 -0.2683
  406MOL0     O53484   1.393   9.122   6.474  0.1018 -0.0099  0.2921
  406MOL0     C53485   1.285   9.061   6.419  0.3291  0.6235  0.7847
  406MOL0     C53486   1.151   9.070   6.446  0.2512  0.4911  0.2308
  406MOL0     C53487   1.058   8.996   6.372  0.1316 -1.0490  0.2369
  406MOL0     C53488   1.098   8.922   6.254  0.4747  0.2166 -0.4818
  406MOL0     C53489   1.011   8.848   6.176 -1.0233  0.3895 -1.0155
  406MOL0     O53490   1.048   8.826   6.044  0.1489  0.1185  0.2603
  406MOL0     C53491   0.967   8.762   5.961 -0.1895 -0.6951 -0.8397
  406MOL0     C53492   0.828   8.776   5.948  0.0053  0.2049  0.8162
  406MOL0     C53493   0.764   8.705   5.843  0.6508  0.6687 -0.6956
  406MOL0     C53494   0.833   8.605   5.766  1.1507 -0.2970  0.0214
  406MOL0     O53495   0.772   8.541   5.661  0.7076 -0.4325  0.2294
  406MOL0     C53496   0.630   8.509   5.689  0.0212 -0.7834 -0.3184
  406MOL0     C53497   0.576   8.408   5.582 -0.5820 -0.5205 -0.7093
  406MOL0     C53498   0.427   8.378   5.621  0.4625  0.2908  0.6929
  406MOL0     C53499   0.342   8.341   5.496  1.1181  0.1228 -0.7690
  406MOL0     C53500   0.192   8.301   5.534 -0.9649 -0.3965 -0.1986
  406MOL0     C53501   0.113   8.258   5.410  0.1285  0.2595  0.0622
  406MOL0     C53502  -0.029   8.197   5.449 -0.2548 -0.5002 -0.1218
  406MOL0     C53503  -0.126   8.168   5.334 -0.2153  0.7055  0.6844
  406MOL0    Cl53504  -0.174   8.311   5.252  0.2969  0.2270  0.1387
  406MOL0     C53505   0.966   8.598   5.780 -0.6531 -0.7158  0.6876
  406MOL0     C53506   1.034   8.667   5.882 -0.0007 -0.9309 -0.8039
  406MOL0     O53507   0.907   8.821   6.229 -0.2789  0.2469  0.3566
  406MOL0     C53508   1.233   8.913   6.225 -1.2552 -0.0980  0.0905
  406MOL0     C53509   1.325   8.981   6.313  1.1195 -0.8257 -1.1223
  406MOL0     N53510   1.909   9.101   6.792  0.2464  0.4314  1.2525
  406MOL0     N53511   2.007   9.023   6.776  0.5924  0.3943 -0.2263
  406MOL0     C53512   2.159   7.810   6.639  0.1758  1.0280  1.5099
  406MOL0     C53513   2.216   7.682   6.656 -0.2879  1.1989 -0.1893
  406MOL0     C53514   2.365   7.320   6.905 -0.6080 -1.4027  0.1541
  406MOL0     C53515   2.244   7.279   6.853  0.0229  0.8252  0.1683
  406MOL0     C53516   2.208   7.149   6.867 -0.6032 -1.0275 -0.5086
  406MOL0     C53517   2.284   7.054   6.940 -0.1469 -0.0943 -0.4381
  406MOL0     O53518   2.244   6.931   6.980  0.0640 -0.1908 -0.0359
  406MOL0     C53519   2.176   6.848   6.887  0.6674  0.5645  1.0738
  406MOL0     C53520   2.262   6.733   6.833  0.0907  0.0042 -0.1395
  406MOL0     C53521   2.167   6.628   6.764  0.0490  0.3799  0.2098
  406MOL0     C53522   2.245   6.504   6.717 -0.9904  0.0868  0.6005
  406MOL0     C53523   2.349   6.522   6.614  0.3428 -0.3834  0.0031
  406MOL0     C53524   2.432   6.545   6.523  0.1172 -0.4570 -0.0829
  406MOL0     C53525   2.412   7.100   6.991  0.4199  0.1803  0.3516
  406MOL0     C53526   2.450   7.232   6.963  0.8009 -0.4507 -0.0196
  406MOL0     H53527   2.387   7.736   6.950 -1.1999  0.8483  0.3772
  406MOL0     H53528   2.286   7.962   6.904 -2.6303  0.6236  0.4391
  406MOL0     H53529   1.968   7.996   6.610  0.4312 -0.8044 -2.2110
  406MOL0     H53530   2.100   8.060   6.503  0.7646  3.0576  0.2855
  406MOL0     H53531   1.961   8.202   6.718 -4.7033  2.0165 -2.2322
  406MOL0     H53532   1.953   8.226   6.533  0.9633  1.9928 -0.0497
  406MOL0     H53533   2.185   8.300   6.529  1.1248  1.9156 -0.7830
  406MOL0     H53534   2.176   8.313   6.700 -0.8838 -0.6656  1.1734
  406MOL0     H53535   1.982   8.469   6.513 -2.2084  2.5204  1.2885
  406MOL0     H53536   1.968   8.467   6.683 -0.3047 -0.6621 -0.2346
  406MOL0     H53537   2.229   8.550   6.553  0.2755  1.6527 -0.9050
  406MOL0     H53538   2.174   8.557   6.728 -0.2242  0.9297 -0.3593
  406MOL0     H53539   2.009   8.713   6.679  2.3523  3.8664  2.9628
  406MOL0     H53540   2.048   8.720   6.506 -4.2233  3.2636  1.5622
  406MOL0     H53541   2.221   8.795   6.737 -2.3749 -0.4639  0.2340
  406MOL0     H53542   2.291   8.790   6.582  0.1400 -1.9714  1.3790
  406MOL0     H53543   2.123   8.935   6.471 -1.8328 -3.3593  0.2521
  406MOL0     H53544   2.234   9.021   6.585  0.0080 -0.2454  2.8590
  406MOL0     H53545   1.950   9.123   6.470 -1.3474 -1.2370 -0.4082
  406MOL0     H53546   1.766   9.290   6.565 -0.8714 -1.7494 -0.9393
  406MOL0     H53547   1.776   9.312   6.743  0.8848 -1.4977  0.8816
  406MOL0     H53548   1.613   9.142   6.773 -1.1192 -0.8837 -0.6754
  406MOL0     H53549   1.615   9.086   6.602  1.9915  1.1809 -0.8688
  406MOL0     H53550   1.482   9.334   6.710 -2.8602  0.4863 -0.0986
  406MOL0     H53551   1.552   9.329   6.552 -2.3562  0.4365  0.4301
  406MOL0     H53552   1.292   9.263   6.594 -0.9962 -1.1531 -2.5653
  406MOL0     H53553   1.365   9.134   6.682 -2.2866 -0.0869 -1.4749
  406MOL0     H53554   1.123   9.134   6.530  2.9088  0.3398  1.3443
  406MOL0     H53555   0.953   9.010   6.397  0.4899  1.2449  0.6280
  406MOL0     H53556   0.790   8.847   6.021 -0.6521 -0.9869  1.6737
  406MOL0     H53557   0.657   8.720   5.831  0.3306 -1.5521 -1.0341
  406MOL0     H53558   0.571   8.602   5.686 -0.6898 -1.2435 -0.9172
  406MOL0     H53559   0.621   8.453   5.783 -0.4205  0.0966  0.1777
  406MOL0     H53560   0.633   8.316   5.593 -3.0054 -2.0330  0.0308
  406MOL0     H53561   0.589   8.445   5.480  0.5523  0.4361 -0.2377
  406MOL0     H53562   0.380   8.467   5.664 -1.5118  0.2524 -1.1535
  406MOL0     H53563   0.430   8.290   5.686  1.1168 -0.5962 -0.4999
  406MOL0     H53564   0.332   8.429   5.431 -2.4630  0.5715  0.1528
  406MOL0     H53565   0.369   8.252   5.438 -4.6130  0.0397 -4.1583
  406MOL0     H53566   0.146   8.395   5.564  2.4519  2.1759 -2.2766
  406MOL0     H53567   0.178   8.227   5.614 -0.5444 -0.3841 -0.1104
  406MOL0     H53568   0.171   8.180   5.361 -1.0825 -0.2168 -0.6536
  406MOL0     H53569   0.102   8.342   5.342 -0.7948 -0.0906 -0.2379
  406MOL0     H53570  -0.003   8.103   5.499  2.8723  1.8715  3.2139
  406MOL0     H53571  -0.078   8.268   5.515 -0.2191 -1.9854  1.5960
  406MOL0     H53572  -0.213   8.120   5.378  0.4573 -2.1300 -0.8795
  406MOL0     H53573  -0.090   8.102   5.255 -0.8697  1.6847 -0.4658
  406MOL0     H53574   1.036   8.536   5.724 -1.6020 -0.2658 -1.0600
  406MOL0     H53575   1.137   8.658   5.915  0.6056  0.2544 -2.2442
  406MOL0     H53576   1.286   8.852   6.152  1.2937 -0.9661  2.4888
  406MOL0     H53577   1.432   8.989   6.293  1.4692 -1.1504  0.4212
  406MOL0     H53578   2.100   7.835   6.551  1.7595 -2.5940 -0.8122
  406MOL0     H53579   2.176   7.612   6.584  1.1055 -0.6530  0.7588
  406MOL0     H53580   2.166   7.326   6.794 -0.3996 -1.6270 -1.3942
  406MOL0     H53581   2.108   7.126   6.831 -0.8935 -0.6881  0.0503
  406MOL0     H53582   2.144   6.891   6.792 -0.1806 -1.5860  0.3477
  406MOL0     H53583   2.086   6.812   6.938  0.4467 -1.0611 -0.4016
  406MOL0     H53584   2.335   6.773   6.762  0.6462 -0.3858  0.2017
  406MOL0     H53585   2.327   6.684   6.906  1.2559  0.2878 -0.9620
  406MOL0     H53586   2.113   6.668   6.678 -0.0265 -0.3450 -0.0848
  406MOL0     H53587   2.092   6.598   6.837 -0.2625 -4.2924 -1.6468
  406MOL0     H53588   2.294   6.461   6.805  1.1129  2.2381  0.5813
  406MOL0     H53589   2.182   6.427   6.672  1.6507 -2.2518  0.6005
  406MOL0     H53590   2.484   6.558   6.431 -1.4273  1.6015 -0.7447
  406MOL0     H53591   2.483   7.036   7.042  0.6792 -0.9929 -1.3776
  406MOL0     H53592   2.548   7.270   6.990  0.8484  2.5366 -3.7105
  407MOL0     O53593   0.590  10.511   6.596  0.0039  0.1890  0.2304
  407MOL0     C53594   0.650  10.585   6.516  0.0139 -0.7131 -0.2442
  407MOL0     O53595   0.792  10.593   6.510  0.2875  0.6933 -0.0251
  407MOL0     C53596   0.859  10.543   6.624 -0.2334 -0.4997  0.5114
  407MOL0     C53597   0.870  10.611   6.736 -0.6208 -0.1359  0.0825
  407MOL0     C53598   0.906  10.551   6.854 -0.3462 -0.5021  0.5241
  407MOL0     C53599   0.957  10.422   6.860 -0.5309 -0.3725  0.9624
  407MOL0     O53600   1.008  10.363   6.974 -0.7100  0.4715 -0.2074
  407MOL0     C53601   0.956  10.389   7.103  0.3792  0.4780  0.0779
  407MOL0     C53602   0.968  10.271   7.193  0.5035  0.6700 -0.7271
  407MOL0     C53603   0.888  10.148   7.136 -0.1374  0.1737 -0.2889
  407MOL0     C53604   0.823  10.075   7.262 -0.3939  0.0207 -0.1570
  407MOL0     C53605   0.760   9.945   7.213  0.9373 -0.2373 -0.8721
  407MOL0     C53606   0.665   9.903   7.324  0.4008  1.0400  0.2568
  407MOL0     C53607   0.609   9.771   7.285 -0.2087  0.4523 -0.0470
  407MOL0     C53608   0.481   9.753   7.368 -0.0266  0.0564 -0.3481
  407MOL0     N53609   0.356   9.804   7.294 -0.5776 -0.7191 -0.4625
  407MOL0     C53610   0.226   9.750   7.314 -0.4728 -1.0490  0.2194
  407MOL0     C53611   0.133   9.845   7.275 -0.0208  0.2598  0.2903
  407MOL0     C53612  -0.013   9.832   7.229  0.2946 -0.1808 -1.4626
  407MOL0     C53613  -0.082   9.703   7.293  0.0910 -0.2539  0.4734
  407MOL0     C53614  -0.112   9.731   7.445 -0.0822 -0.4244  0.1622
  407MOL0     C53615  -0.185   9.629   7.525 -1.2411  0.7917 -1.2782
  407MOL0     O53616  -0.312   9.604   7.471  0.4516 -0.0302 -0.5327
  407MOL0     C53617  -0.372   9.488   7.496  0.6666 -1.1338 -0.0780
  407MOL0     C53618  -0.312   9.371   7.545  0.0177  0.1941 -0.5566
  407MOL0     C53619  -0.391   9.250   7.565 -0.7996 -0.8680 -0.3262
  407MOL0     C53620  -0.532   9.248   7.552 -0.6690 -0.0926 -0.4610
  407MOL0     C53621  -0.612   9.127   7.569  0.4100  0.1340 -0.2314
  407MOL0     O53622  -0.726   9.116   7.495  0.1225  0.0522 -0.0724
  407MOL0     C53623  -0.804   9.005   7.522  0.4577 -0.6868 -0.1691
  407MOL0     C53624  -0.863   8.939   7.411 -0.4521 -0.8865 -0.1694
  407MOL0     C53625  -0.936   8.825   7.423 -0.4192  0.3295  0.2120
  407MOL0     C53626  -0.983   8.774   7.544  0.6973  0.8162 -0.1182
  407MOL0     O53627  -1.063   8.663   7.576  0.4293  0.1430 -0.1807
  407MOL0     C53628  -1.080   8.550   7.487  0.2131 -0.0670 -0.4300
  407MOL0     C53629  -0.953   8.466   7.469 -0.3871 -0.5993 -0.2759
  407MOL0     C53630  -0.916   8.389   7.588 -0.5408  0.3592 -0.3371
  407MOL0     C53631  -0.969   8.244   7.599  0.4629  0.0821  0.2093
  407MOL0     C53632  -0.953   8.186   7.734 -0.0049  0.1164 -0.0798
  407MOL0     C53633  -0.802   8.172   7.776  0.4035 -0.2314 -0.0043
  407MOL0     C53634  -0.796   8.089   7.900  0.3115  0.3847 -0.7896
  407MOL0     C53635  -0.658   8.127   7.970  0.4133  0.0574 -0.6497
  407MOL0    Cl53636  -0.511   8.152   7.880 -0.8307  0.5003  0.0420
  407MOL0     C53637  -0.929   8.844   7.656  0.3388 -0.3938  0.3233
  407MOL0     C53638  -0.840   8.953   7.642 -0.0519  0.9941  0.5039
  407MOL0     O53639  -0.582   9.058   7.667 -0.0190 -0.5328  0.1677
  407MOL0     C53640  -0.586   9.360   7.499  0.6818 -0.3822  0.4591
  407MOL0     C53641  -0.514   9.485   7.471  0.8274  0.2315 -0.2178
  407MOL0     N53642   0.206   9.957   7.247  0.4150  0.6262  0.4730
  407MOL0     N53643   0.334   9.934   7.259  0.0615 -0.2539 -0.4327
  407MOL0     C53644   0.960  10.345   6.747 -0.2768  0.5232  0.5375
  407MOL0     C53645   0.901  10.406   6.628 -0.2597 -0.1301  0.2100
  407MOL0     C53646   0.571  10.677   6.441 -0.1154  0.6875 -1.1480
  407MOL0     C53647   0.436  10.698   6.475  0.9607  0.7570 -0.0989
  407MOL0     C53648   0.352  10.781   6.403 -0.4692  0.4178  0.8333
  407MOL0     C53649   0.405  10.872   6.312 -0.0951 -0.2797  0.5383
  407MOL0     O53650   0.330  10.958   6.241  0.4846  0.1915  0.1548
  407MOL0     C53651   0.189  10.968   6.260 -0.3425  0.4559  0.0214
  407MOL0     C53652   0.133  11.085   6.177 -0.1278 -0.0046 -0.1949
  407MOL0     C53653   0.214  11.130   6.054  0.0492 -0.2957 -0.8864
  407MOL0     C53654   0.136  11.233   5.966 -0.3106  0.1758  0.5636
  407MOL0     C53655   0.078  11.357   6.020 -0.2332 -0.6336 -0.8137
  407MOL0     C53656   0.024  11.458   6.067  0.5818  1.0136  0.5535
  407MOL0     C53657   0.545  10.859   6.290 -0.0313  0.1832  0.8505
  407MOL0     C53658   0.628  10.762   6.350  0.7936  0.1534  0.2667
  407MOL0     H53659   0.826  10.710   6.739 -3.4601 -1.3054  2.0481
  407MOL0     H53660   0.907  10.620   6.938 -0.9236  0.0641  0.0779
  407MOL0     H53661   0.850  10.418   7.097 -0.3899 -2.3439 -2.5892
  407MOL0     H53662   1.012  10.477   7.136  0.0407  2.2115 -3.5005
  407MOL0     H53663   0.913  10.289   7.286 -0.3056 -2.5185 -0.4848
  407MOL0     H53664   1.069  10.235   7.216 -0.7062 -1.3911  1.9468
  407MOL0     H53665   0.955  10.085   7.076  1.2685 -0.0297  1.4285
  407MOL0     H53666   0.806  10.177   7.070  0.2110 -0.5536 -1.0597
  407MOL0     H53667   0.898  10.042   7.335 -0.0053  0.0631 -0.5343
  407MOL0     H53668   0.746  10.132   7.315 -1.7286 -0.6359 -1.3279
  407MOL0     H53669   0.843   9.874   7.202  2.3605  1.2369 -0.0217
  407MOL0     H53670   0.707   9.972   7.120 -0.5494  0.5584  0.1601
  407MOL0     H53671   0.589   9.979   7.341  2.2918  2.8319  1.0670
  407MOL0     H53672   0.706   9.877   7.422 -2.2471 -1.6959  0.7692
  407MOL0     H53673   0.586   9.748   7.181  1.6092 -1.4979 -0.0900
  407MOL0     H53674   0.677   9.692   7.320 -1.0286  0.9730  3.0821
  407MOL0     H53675   0.493   9.805   7.463 -0.3955 -0.9195  0.2560
  407MOL0     H53676   0.468   9.648   7.399 -1.3790  0.2849 -0.1013
  407MOL0     H53677   0.198   9.646   7.332  0.6212 -1.3740  0.1675
  407MOL0     H53678  -0.036   9.826   7.122 -2.3495  1.8526 -1.1144
  407MOL0     H53679  -0.062   9.925   7.261  1.0543 -0.4458  0.5971
  407MOL0     H53680  -0.015   9.617   7.288  0.8004  0.3550 -2.7460
  407MOL0     H53681  -0.172   9.681   7.235 -0.0284 -1.2861  1.0294
  407MOL0     H53682  -0.021   9.741   7.505 -0.6193 -3.2539  1.5985
  407MOL0     H53683  -0.174   9.821   7.448  2.1236  1.2154 -0.7331
  407MOL0     H53684  -0.197   9.661   7.629 -2.1492 -0.1348 -1.0779
  407MOL0     H53685  -0.123   9.540   7.524  1.2847  2.4200 -0.0420
  407MOL0     H53686  -0.210   9.361   7.579 -1.2152 -4.1623  2.7203
  407MOL0     H53687  -0.337   9.168   7.609 -0.3682 -0.3802  0.0677
  407MOL0     H53688  -0.849   8.983   7.313 -0.7486 -2.4308 -0.9283
  407MOL0     H53689  -0.977   8.785   7.331 -2.2899  0.2121  1.0691
  407MOL0     H53690  -1.108   8.581   7.385  1.4443  0.6407 -0.5772
  407MOL0     H53691  -1.166   8.497   7.528 -0.1894  1.1984  0.4175
  407MOL0     H53692  -0.871   8.533   7.446 -0.5337 -0.2920  0.0859
  407MOL0     H53693  -0.967   8.392   7.389  1.2048  0.5122 -1.6365
  407MOL0     H53694  -0.957   8.436   7.677 -1.1116  2.2006 -1.4999
  407MOL0     H53695  -0.808   8.396   7.605 -0.7071  0.9906  0.4914
  407MOL0     H53696  -1.075   8.233   7.577  0.2656 -1.0012  1.5829
  407MOL0     H53697  -0.912   8.185   7.526 -0.9684 -0.2003 -0.7347
  407MOL0     H53698  -0.991   8.084   7.750  1.4808 -0.9079 -2.4991
  407MOL0     H53699  -1.007   8.260   7.794 -0.7235  1.8601 -2.6862
  407MOL0     H53700  -0.761   8.271   7.797  0.2138 -0.6130  2.4169
  407MOL0     H53701  -0.732   8.124   7.707 -0.8462 -1.7808 -0.2566
  407MOL0     H53702  -0.884   8.100   7.964  1.4722  0.1594  0.9269
  407MOL0     H53703  -0.794   7.983   7.873 -2.0311  0.0454  0.1055
  407MOL0     H53704  -0.632   8.044   8.037  2.6282 -0.7735 -2.4041
  407MOL0     H53705  -0.683   8.219   8.024 -2.2137  1.3971 -3.7678
  407MOL0     H53706  -0.953   8.816   7.759  3.0849  0.4350  1.2816
  407MOL0     H53707  -0.810   8.994   7.738  0.2451 -2.8359  2.2424
  407MOL0     H53708  -0.691   9.357   7.473  0.9567  0.2395 -0.7783
  407MOL0     H53709  -0.572   9.568   7.433  2.4409  2.7379  2.4516
  407MOL0     H53710   0.986  10.241   6.763  0.0294  0.5082 -0.0388
  407MOL0     H53711   0.874  10.348   6.541 -1.0562  0.0021  0.3616
  407MOL0     H53712   0.388  10.642   6.555 -0.2057  2.2368  0.2870
  407MOL0     H53713   0.245  10.771   6.417 -1.0963 -1.1394 -3.5121
  407MOL0     H53714   0.171  10.995   6.365 -1.0769 -1.6399  0.4859
  407MOL0     H53715   0.136  10.875   6.237 -0.3665  0.6235 -0.6277
  407MOL0     H53716   0.026  11.083   6.156 -0.2684  0.3131  0.4673
  407MOL0     H53717   0.161  11.163   6.249  0.4883  0.8637 -1.3241
  407MOL0     H53718   0.233  11.037   5.999 -0.7208 -0.8344 -0.2536
  407MOL0     H53719   0.311  11.175   6.076 -0.6547 -0.0196  1.9693
  407MOL0     H53720   0.203  11.267   5.887  0.2874  3.4248  2.3350
  407MOL0     H53721   0.047  11.185   5.922  1.4397 -2.0546 -0.7608
  407MOL0     H53722  -0.035  11.542   6.096 -0.7915 -0.5921  2.7724
  407MOL0     H53723   0.593  10.930   6.224  3.2244 -2.3361  0.2483
  407MOL0     H53724   0.734  10.753   6.328  0.9415 -3.3013  1.6554
  408MOL0     O53725   3.995  10.196  11.149 -0.4322  0.1840 -0.6157
  408MOL0     C53726   4.087  10.277  11.169  0.3947  1.0232  0.2773
  408MOL0     O53727   4.161  10.340  11.063  0.6844 -0.5403  0.1434
  408MOL0     C53728   4.127  10.305  10.931  0.1435  0.0916 -0.8446
  408MOL0     C53729   4.036  10.385  10.861  0.3488  0.4628 -0.3766
  408MOL0     C53730   4.012  10.357  10.724  0.7004  0.6134 -0.3588
  408MOL0     C53731   4.076  10.245  10.660  0.5337 -0.1094 -0.4008
  408MOL0     O53732   4.076  10.226  10.524  0.7062  0.2446 -1.0436
  408MOL0     C53733   3.966  10.298  10.451 -0.4853  0.5258 -0.0628
  408MOL0     C53734   3.948  10.247  10.308  0.7966  0.4428  0.2222
  408MOL0     C53735   3.865  10.121  10.295  0.0604  0.0617 -0.6421
  408MOL0     C53736   3.892  10.073  10.151  0.1237  0.2957 -0.6318
  408MOL0     C53737   3.826   9.944  10.105  0.9320  0.8459  0.6123
  408MOL0     C53738   3.691   9.950  10.041 -0.4736  0.0616  0.9099
  408MOL0     C53739   3.590   9.877  10.108 -0.7040  0.3178 -0.8503
  408MOL0     C53740   3.466   9.858  10.017  0.8891  0.2531  0.1139
  408MOL0     N53741   3.495   9.772   9.906 -0.3493 -0.4530  0.6427
  408MOL0     C53742   3.553   9.647   9.919  0.6018  1.0331  0.9053
  408MOL0     C53743   3.602   9.618   9.795 -0.0395 -0.0879 -0.3314
  408MOL0     C53744   3.695   9.503   9.765  0.8188  0.8315 -0.6699
  408MOL0     C53745   3.803   9.493   9.883 -0.0655 -0.2980 -0.2024
  408MOL0     C53746   3.887   9.612   9.874 -0.0253 -0.8861  0.0403
  408MOL0     C53747   3.997   9.629   9.983 -0.3109  0.0189  0.2668
  408MOL0     O53748   4.081   9.746   9.928 -0.4396  0.0391 -0.1470
  408MOL0     C53749   4.187   9.735   9.841 -0.0353  0.1833  0.5964
  408MOL0     C53750   4.245   9.861   9.786 -0.6208  0.3183  0.4087
  408MOL0     C53751   4.334   9.857   9.682  0.8029  0.5527 -0.5917
  408MOL0     C53752   4.380   9.731   9.637  0.1010 -0.2729  0.2815
  408MOL0     C53753   4.473   9.727   9.519  0.6960  0.4760 -0.7527
  408MOL0     O53754   4.470   9.604   9.453 -0.1900 -0.6785  0.8221
  408MOL0     C53755   4.562   9.599   9.344  1.4073  0.5576 -0.3981
  408MOL0     C53756   4.517   9.625   9.215 -0.4229 -0.1414 -0.6799
  408MOL0     C53757   4.599   9.630   9.107  0.0934 -1.1027 -0.6561
  408MOL0     C53758   4.736   9.606   9.121 -0.8519  0.0627 -0.7501
  408MOL0     O53759   4.814   9.610   9.011  0.4340  0.6579 -0.0194
  408MOL0     C53760   4.952   9.585   9.021 -0.1878 -0.3208 -0.2713
  408MOL0     C53761   5.050   9.598   8.902  0.0451 -0.0120 -0.4547
  408MOL0     C53762   5.103   9.737   8.889 -0.5963  0.3298  0.4387
  408MOL0     C53763   5.173   9.758   8.756  0.1547 -0.0812 -0.2692
  408MOL0     C53764   5.231   9.896   8.735 -0.0679  0.3137 -0.6269
  408MOL0     C53765   5.357   9.937   8.832 -0.4964  0.8695  0.0463
  408MOL0     C53766   5.373  10.091   8.819 -0.6384 -0.4513 -0.4351
  408MOL0     C53767   5.432  10.143   8.685 -0.2133 -0.1667 -0.4188
  408MOL0    Cl53768   5.594  10.079   8.685  0.3369  0.1426  0.3246
  408MOL0     C53769   4.785   9.555   9.245 -0.2064 -0.2283 -0.5771
  408MOL0     C53770   4.699   9.558   9.352 -0.4947 -1.2387 -0.3883
  408MOL0     O53771   4.546   9.824   9.493 -0.5719  0.2194  0.1133
  408MOL0     C53772   4.340   9.614   9.694  0.8670  0.3217 -0.9705
  408MOL0     C53773   4.247   9.614   9.796 -0.2069 -0.5049 -0.1682
  408MOL0     N53774   3.559   9.724   9.710 -0.0771  0.0562 -0.2420
  408MOL0     N53775   3.481   9.806   9.776 -0.0061 -0.9770 -0.3154
  408MOL0     C53776   4.169  10.165  10.739  0.1984  0.2516  1.9125
  408MOL0     C53777   4.193  10.200  10.878  0.3356 -0.5781  0.2935
  408MOL0     C53778   4.130  10.305  11.307 -0.1853  0.5656  0.1814
  408MOL0     C53779   4.254  10.367  11.327 -0.5260 -0.6310  0.0816
  408MOL0     C53780   4.291  10.407  11.459 -0.7814  0.5047  0.3662
  408MOL0     C53781   4.219  10.371  11.576  0.7878  0.1439  0.2357
  408MOL0     O53782   4.254  10.407  11.705  0.1666  0.1151 -0.0356
  408MOL0     C53783   4.178  10.340  11.807  0.5033  1.1518  0.6926
  408MOL0     C53784   4.234  10.379  11.946  0.2416 -0.4260 -0.4958
  408MOL0     C53785   4.351  10.286  11.989  0.0288  0.2218  0.5471
  408MOL0     C53786   4.368  10.282  12.142  0.3200  0.0734 -0.2007
  408MOL0     C53787   4.422  10.153  12.189 -0.0932  0.5917 -0.0788
  408MOL0     C53788   4.469  10.055  12.234 -0.1553  0.0665 -0.4003
  408MOL0     C53789   4.084  10.329  11.547 -0.5723  0.5518 -0.3974
  408MOL0     C53790   4.048  10.280  11.424 -0.8178 -0.5125  0.8295
  408MOL0     H53791   3.985  10.463  10.918 -3.3956  0.7262 -3.6635
  408MOL0     H53792   3.950  10.422  10.663  3.1615  2.4088 -1.1333
  408MOL0     H53793   3.998  10.402  10.454 -2.1075  1.0353  2.2125
  408MOL0     H53794   3.863  10.307  10.487 -0.7334  0.1447 -0.6647
  408MOL0     H53795   4.052  10.230  10.278  0.9988  0.0587  1.1296
  408MOL0     H53796   3.910  10.329  10.245  2.9029  0.1217 -1.6170
  408MOL0     H53797   3.760  10.145  10.312 -0.4120 -2.7040  0.9526
  408MOL0     H53798   3.883  10.059  10.384  0.6573  0.3336 -0.5709
  408MOL0     H53799   3.864  10.143  10.072  0.0423  0.5262 -0.4023
  408MOL0     H53800   3.999  10.055  10.138 -0.1603 -1.8065 -0.3240
  408MOL0     H53801   3.825   9.865  10.181  1.7851  1.7484  1.5781
  408MOL0     H53802   3.895   9.901  10.031 -0.7505 -0.0805 -0.5016
  408MOL0     H53803   3.715   9.913   9.941 -3.1636 -1.5505  0.7593
  408MOL0     H53804   3.661  10.055  10.029  2.1777  0.9138  1.0653
  408MOL0     H53805   3.634   9.780  10.133  0.9453  1.2576  0.1012
  408MOL0     H53806   3.565   9.923  10.205  0.8314 -3.8719  1.7874
  408MOL0     H53807   3.430   9.951   9.971 -0.9489 -0.9203 -0.9484
  408MOL0     H53808   3.379   9.817  10.069  0.3519  1.7000  0.4292
  408MOL0     H53809   3.554   9.585  10.008  2.3225 -2.3631 -1.2968
  408MOL0     H53810   3.742   9.505   9.667 -0.9917 -1.0385 -1.6769
  408MOL0     H53811   3.633   9.413   9.771 -0.1369  1.4848 -0.4821
  408MOL0     H53812   3.866   9.411   9.848  1.3136  1.3661 -1.8130
  408MOL0     H53813   3.775   9.455   9.982 -2.2290 -2.4907 -1.5164
  408MOL0     H53814   3.933   9.623   9.775 -0.0770 -2.9663 -0.2579
  408MOL0     H53815   3.826   9.701   9.893  1.1703  0.5094 -2.2741
  408MOL0     H53816   4.057   9.540   9.999 -0.9088 -0.5137 -0.3924
  408MOL0     H53817   3.936   9.655  10.071 -0.5670  0.2976  0.0100
  408MOL0     H53818   4.218   9.961   9.818 -0.3125  1.2678 -2.1180
  408MOL0     H53819   4.383   9.939   9.630  0.7860  0.6041 -0.5260
  408MOL0     H53820   4.413   9.656   9.215 -0.2581  0.4775  0.7159
  408MOL0     H53821   4.571   9.653   9.005  3.2447 -1.8884 -1.8385
  408MOL0     H53822   4.962   9.479   9.042 -0.8216 -0.4299 -0.5225
  408MOL0     H53823   4.973   9.654   9.104 -0.6904 -1.8808  1.1944
  408MOL0     H53824   4.996   9.563   8.815 -1.4418  0.0897  0.3945
  408MOL0     H53825   5.138   9.537   8.924 -0.7283  0.3155  5.0251
  408MOL0     H53826   5.176   9.763   8.966 -0.3506  2.5523 -0.4589
  408MOL0     H53827   5.023   9.809   8.910 -3.0151 -1.6177 -1.3946
  408MOL0     H53828   5.254   9.686   8.745  1.8202  1.7549 -0.5909
  408MOL0     H53829   5.095   9.739   8.682  0.5921 -0.2950 -0.6767
  408MOL0     H53830   5.152   9.972   8.746 -0.4640 -0.1575 -0.1788
  408MOL0     H53831   5.266   9.899   8.631  2.6622  1.1806  0.2373
  408MOL0     H53832   5.449   9.881   8.810  0.0975  2.0235 -0.5180
  408MOL0     H53833   5.322   9.928   8.935 -0.2746  1.0222  0.1387
  408MOL0     H53834   5.272  10.132   8.824 -1.5331 -1.5330 -4.9802
  408MOL0     H53835   5.421  10.143   8.902 -0.9940  1.8551 -1.6177
  408MOL0     H53836   5.433  10.252   8.687  0.3219 -0.1757  0.0026
  408MOL0     H53837   5.367  10.102   8.607  2.6067 -1.9053 -2.0386
  408MOL0     H53838   4.888   9.526   9.262 -0.4750  0.1548  2.2087
  408MOL0     H53839   4.744   9.542   9.449  2.6617  1.6593 -1.2190
  408MOL0     H53840   4.379   9.518   9.662 -1.3397 -1.1509  0.4804
  408MOL0     H53841   4.203   9.521   9.832 -0.9508  0.6053  1.9496
  408MOL0     H53842   4.225  10.085  10.692  0.6473  1.6564 -0.0713
  408MOL0     H53843   4.272  10.149  10.932  1.1965  0.2137 -0.2106
  408MOL0     H53844   4.311  10.405  11.243  2.9555  2.3374  3.4131
  408MOL0     H53845   4.386  10.456  11.480  0.3847 -0.9083 -1.3493
  408MOL0     H53846   4.179  10.232  11.786 -4.7373  1.1686 -1.2147
  408MOL0     H53847   4.071  10.364  11.800 -0.5400 -1.8180  3.4473
  408MOL0     H53848   4.270  10.482  11.942  1.7311 -0.8595  0.8038
  408MOL0     H53849   4.154  10.354  12.016  2.6804 -2.3605  1.8410
  408MOL0     H53850   4.439  10.320  11.935 -2.1806  1.6872 -2.4115
  408MOL0     H53851   4.338  10.183  11.955  4.8926 -0.0142 -1.2742
  408MOL0     H53852   4.446  10.355  12.165 -1.2897  0.7062  4.2320
  408MOL0     H53853   4.270  10.295  12.189 -0.4949 -1.8528 -1.2370
  408MOL0     H53854   4.527   9.974  12.273 -0.3812 -0.7465 -1.6592
  408MOL0     H53855   4.011  10.312  11.625  1.3376 -1.9466  0.9819
  408MOL0     H53856   3.948  10.244  11.402 -0.5336  0.1051 -1.8845
  409MOL0     O53857   6.328   7.595   8.656 -0.4881 -0.5777  0.0583
  409MOL0     C53858   6.260   7.570   8.760 -0.6351  0.5743  0.6450
  409MOL0     O53859   6.137   7.605   8.794 -0.3361  0.1233  1.0467
  409MOL0     C53860   6.069   7.687   8.714 -0.0624 -0.3285  0.1570
  409MOL0     C53861   6.115   7.796   8.652  0.7481 -1.2236  0.2476
  409MOL0     C53862   6.035   7.881   8.568  0.2701  0.7732 -0.7028
  409MOL0     C53863   5.904   7.854   8.553 -0.4556 -0.3663 -0.3089
  409MOL0     O53864   5.835   7.950   8.480 -0.6297  0.4551 -0.0759
  409MOL0     C53865   5.703   7.908   8.435 -1.1630 -0.3567 -0.8839
  409MOL0     C53866   5.638   8.006   8.344  0.4164  0.0348 -0.0656
  409MOL0     C53867   5.501   7.951   8.297 -0.4608  0.8976 -0.1298
  409MOL0     C53868   5.452   8.033   8.179 -0.0080  0.4818 -0.1238
  409MOL0     C53869   5.303   7.989   8.140 -0.9025  0.7434 -0.4379
  409MOL0     C53870   5.277   8.001   7.988  0.2366  1.6596  1.4901
  409MOL0     C53871   5.343   7.883   7.920 -0.4984  0.1442 -0.0585
  409MOL0     C53872   5.297   7.857   7.775  0.2898 -0.9379  0.3466
  409MOL0     N53873   5.399   7.922   7.687  0.0690 -0.8596  0.0118
  409MOL0     C53874   5.380   8.046   7.643 -0.0411 -0.3792 -1.1545
  409MOL0     C53875   5.494   8.086   7.573  0.5782  0.0524 -0.3468
  409MOL0     C53876   5.527   8.216   7.493  0.6929 -0.3951  0.5634
  409MOL0     C53877   5.421   8.232   7.378 -0.2721 -0.4626 -0.1252
  409MOL0     C53878   5.456   8.355   7.288 -0.0634 -0.1492 -0.6721
  409MOL0     C53879   5.343   8.387   7.190 -0.8066  0.5484  1.0737
  409MOL0     O53880   5.383   8.506   7.117 -0.3052  1.1580  0.9103
  409MOL0     C53881   5.288   8.545   7.029 -0.6711  0.5182  0.6001
  409MOL0     C53882   5.213   8.457   6.948  0.8458  0.1705 -0.3921
  409MOL0     C53883   5.113   8.509   6.861  0.0595 -0.6581  1.0063
  409MOL0     C53884   5.114   8.653   6.844  0.1265  0.0857  0.4764
  409MOL0     C53885   5.019   8.725   6.749 -0.3625  1.0251  0.0498
  409MOL0     O53886   5.042   8.847   6.708 -0.2844  0.0518  0.6912
  409MOL0     C53887   4.963   8.895   6.605 -0.4845  0.2473  0.8483
  409MOL0     C53888   4.912   9.018   6.614  1.0034 -1.1644 -0.0766
  409MOL0     C53889   4.856   9.081   6.498  0.6180  0.6362  0.0975
  409MOL0     C53890   4.846   9.015   6.375  1.1180  0.5763 -0.0506
  409MOL0     O53891   4.789   9.068   6.264  0.3201  0.2594 -0.3771
  409MOL0     C53892   4.727   9.192   6.263 -0.0074 -0.0205 -0.0672
  409MOL0     C53893   4.704   9.240   6.122  1.4137  0.5033 -1.2182
  409MOL0     C53894   4.827   9.263   6.045  0.3779 -0.7865  0.4293
  409MOL0     C53895   4.796   9.291   5.897 -0.1095 -0.2145 -1.2337
  409MOL0     C53896   4.710   9.421   5.885  0.3601  0.3463 -0.7152
  409MOL0     C53897   4.750   9.498   5.759  0.3577  0.2057  0.2900
  409MOL0     C53898   4.699   9.419   5.634 -0.2151  0.3760 -0.8178
  409MOL0     C53899   4.655   9.508   5.517 -0.6504 -0.1706 -0.2502
  409MOL0    Cl53900   4.635   9.405   5.378  0.3458  0.2864 -0.1356
  409MOL0     C53901   4.910   8.886   6.368  0.4469  0.0928 -0.8315
  409MOL0     C53902   4.956   8.822   6.485  0.6473  0.2068  0.2123
  409MOL0     O53903   4.920   8.655   6.725  0.9589 -0.1479  0.2337
  409MOL0     C53904   5.201   8.735   6.919  0.4999  0.5979  0.9483
  409MOL0     C53905   5.288   8.681   7.009  1.3199  0.4959  0.5342
  409MOL0     N53906   5.581   7.972   7.584  0.2969  0.2873  0.3971
  409MOL0     N53907   5.521   7.880   7.649 -0.3501 -0.2742 -0.8191
  409MOL0     C53908   5.849   7.739   8.613 -0.4246  0.6393 -0.7651
  409MOL0     C53909   5.929   7.664   8.705  0.8863  0.9741  0.4149
  409MOL0     C53910   6.312   7.474   8.864 -0.1316 -0.4069  0.1303
  409MOL0     C53911   6.432   7.405   8.841  0.2280  0.8877 -0.4633
  409MOL0     C53912   6.488   7.313   8.935 -0.3555 -0.0124 -0.1067
  409MOL0     C53913   6.428   7.295   9.059 -0.9162 -0.3084  0.6412
  409MOL0     O53914   6.476   7.217   9.163 -0.2067  0.7289 -0.2546
  409MOL0     C53915   6.621   7.201   9.166 -0.0697  0.3208  0.7931
  409MOL0     C53916   6.652   7.145   9.305 -0.1184  0.0413 -0.7148
  409MOL0     C53917   6.799   7.134   9.346  0.5937 -0.3303 -0.3542
  409MOL0     C53918   6.858   7.013   9.276  0.6146  0.5931  0.3222
  409MOL0     C53919   6.987   6.963   9.334  0.9326 -0.7490  0.3198
  409MOL0     C53920   7.099   6.940   9.363  0.0213  0.5399  1.2861
  409MOL0     C53921   6.300   7.366   9.078 -0.3698  0.2074 -0.5804
  409MOL0     C53922   6.251   7.450   8.982 -0.3497 -0.0494  0.2585
  409MOL0     H53923   6.211   7.830   8.688  0.2569 -0.7551  1.1741
  409MOL0     H53924   6.080   7.962   8.512  1.6884  0.6871  0.2357
  409MOL0     H53925   5.641   7.898   8.525  0.3604 -1.3192  0.1175
  409MOL0     H53926   5.711   7.814   8.378 -0.5258 -1.9388  1.6385
  409MOL0     H53927   5.697   8.002   8.253  1.5161 -0.9422  0.6594
  409MOL0     H53928   5.629   8.108   8.384 -1.5108 -1.0861  2.6662
  409MOL0     H53929   5.442   7.953   8.388  1.5328 -0.6675  1.2919
  409MOL0     H53930   5.504   7.844   8.273 -2.1810  0.9328 -0.6328
  409MOL0     H53931   5.446   8.141   8.196 -2.2390  0.6528 -1.5871
  409MOL0     H53932   5.523   8.003   8.101 -2.0143 -5.9333 -0.0514
  409MOL0     H53933   5.224   8.047   8.189 -0.2532 -0.9121  2.7936
  409MOL0     H53934   5.276   7.887   8.168 -0.0593  0.6110 -0.0989
  409MOL0     H53935   5.313   8.095   7.946  2.0679 -0.3641 -1.9781
  409MOL0     H53936   5.170   8.001   7.964  0.4953  0.3798  0.2191
  409MOL0     H53937   5.450   7.904   7.915 -0.5574  0.9958  1.6232
  409MOL0     H53938   5.343   7.790   7.979  1.2264  2.2182  3.5537
  409MOL0     H53939   5.197   7.891   7.747  0.8233 -1.0019 -1.8677
  409MOL0     H53940   5.290   7.751   7.751 -2.6683 -1.0869  1.5067
  409MOL0     H53941   5.287   8.102   7.652  0.4341  0.2557 -0.0217
  409MOL0     H53942   5.632   8.219   7.463  1.4533  2.5396  3.0019
  409MOL0     H53943   5.506   8.306   7.551 -2.5476 -2.3558  2.7235
  409MOL0     H53944   5.317   8.243   7.408 -0.7553 -0.2439 -1.7725
  409MOL0     H53945   5.424   8.139   7.320 -0.4270  0.0786 -1.0274
  409MOL0     H53946   5.465   8.442   7.354  2.6630  0.5122 -1.7575
  409MOL0     H53947   5.549   8.336   7.233  2.9838  3.3702  2.7309
  409MOL0     H53948   5.253   8.393   7.252 -1.1288  5.0337  0.4855
  409MOL0     H53949   5.353   8.297   7.128  0.7631  0.0743  1.9634
  409MOL0     H53950   5.199   8.353   6.975 -1.6462 -0.1291 -2.4537
  409MOL0     H53951   5.038   8.440   6.824 -0.3538  0.1610  0.2784
  409MOL0     H53952   4.937   9.075   6.703 -0.5988 -1.2027  0.4171
  409MOL0     H53953   4.825   9.185   6.497 -2.6514 -0.2161 -1.2098
  409MOL0     H53954   4.780   9.272   6.317 -0.2670 -1.2459  2.1368
  409MOL0     H53955   4.633   9.185   6.318  1.7540 -1.8128  2.9809
  409MOL0     H53956   4.647   9.334   6.116  1.1547  0.5338  0.8005
  409MOL0     H53957   4.635   9.165   6.081  1.1520  0.8975 -1.5121
  409MOL0     H53958   4.887   9.171   6.043  1.8971  0.1776 -1.0051
  409MOL0     H53959   4.885   9.347   6.085  1.1586 -0.3981 -1.4162
  409MOL0     H53960   4.887   9.322   5.844  0.1779 -1.0721 -1.2479
  409MOL0     H53961   4.739   9.206   5.860 -0.8061 -0.5816  0.5715
  409MOL0     H53962   4.723   9.489   5.970 -1.1974 -0.7296  0.4283
  409MOL0     H53963   4.608   9.382   5.890  0.4787  0.1142  3.5702
  409MOL0     H53964   4.856   9.525   5.755  0.6462 -0.9164 -2.9853
  409MOL0     H53965   4.687   9.586   5.747  1.0029  0.3165 -3.5579
  409MOL0     H53966   4.787   9.361   5.606  0.8741 -0.3254  3.3514
  409MOL0     H53967   4.626   9.340   5.652  1.7675 -1.3330  0.0859
  409MOL0     H53968   4.720   9.590   5.487 -0.2414 -1.9761 -5.1170
  409MOL0     H53969   4.562   9.561   5.542 -0.9150 -1.6890  2.3128
  409MOL0     H53970   4.907   8.831   6.274  0.1539 -0.8611 -0.2764
  409MOL0     H53971   4.993   8.721   6.474 -2.6163 -1.3619  2.2306
  409MOL0     H53972   5.216   8.842   6.906  1.8407  0.7668  3.3870
  409MOL0     H53973   5.342   8.754   7.068  1.5427 -0.3413  1.4072
  409MOL0     H53974   5.748   7.701   8.610 -0.0888 -1.1669  3.6351
  409MOL0     H53975   5.873   7.585   8.754  1.9766  0.1865  0.4473
  409MOL0     H53976   6.479   7.403   8.744 -0.0378 -0.5751 -0.5909
  409MOL0     H53977   6.575   7.254   8.908  0.8212  1.4182  0.4379
  409MOL0     H53978   6.661   7.303   9.162  1.2077 -0.1579 -2.5696
  409MOL0     H53979   6.660   7.133   9.089 -1.7432 -2.1598  1.9969
  409MOL0     H53980   6.592   7.193   9.383 -0.6438  0.6620 -1.4988
  409MOL0     H53981   6.614   7.043   9.314 -0.5798  0.3968  3.1524
  409MOL0     H53982   6.801   7.122   9.455 -2.0712 -0.6269 -0.2841
  409MOL0     H53983   6.851   7.229   9.326  0.5695 -0.1871  0.2222
  409MOL0     H53984   6.784   6.933   9.276 -0.1491  1.2775  0.4284
  409MOL0     H53985   6.860   7.030   9.168 -1.1543  2.9706  0.5716
  409MOL0     H53986   7.202   6.921   9.384 -0.2054  0.0953  2.0619
  409MOL0     H53987   6.257   7.351   9.177  2.3116 -1.1673  0.4995
  409MOL0     H53988   6.158   7.501   9.003 -0.3110  0.4629 -0.7929
  410MOL0     O53989   1.418   0.636   0.965 -0.7392  0.1688  0.4526
  410MOL0     C53990   1.496   0.543   0.976  1.4608  0.0713  0.4236
  410MOL0     O53991   1.581   0.527   1.075  0.1745  0.0157 -0.3227
  410MOL0     C53992   1.589   0.626   1.172  0.2264 -0.3089  0.9737
  410MOL0     C53993   1.715   0.679   1.191 -0.4580 -0.8636  0.1230
  410MOL0     C53994   1.726   0.792   1.275 -0.5811 -0.7755  0.6911
  410MOL0     C53995   1.627   0.847   1.354 -0.5424  0.2705  0.0618
  410MOL0     O53996   1.658   0.965   1.415  0.7360  0.7758 -0.5531
  410MOL0     C53997   1.540   1.049   1.425  0.0354  0.1025 -0.1807
  410MOL0     C53998   1.570   1.194   1.459  0.9633  0.7657  0.0685
  410MOL0     C53999   1.657   1.223   1.571 -0.6146  0.3611 -0.1648
  410MOL0     C54000   1.632   1.133   1.692  0.0628 -0.5544 -0.6761
  410MOL0     C54001   1.730   1.138   1.818  0.2996  0.4264 -1.0699
  410MOL0     C54002   1.726   1.275   1.886  0.3028 -0.7194 -0.3897
  410MOL0     C54003   1.619   1.296   1.999  0.3897  0.0700  0.5859
  410MOL0     C54004   1.610   1.442   2.048 -0.1246 -0.5294  0.2716
  410MOL0     N54005   1.500   1.462   2.144 -0.1657  0.2147 -0.3422
  410MOL0     C54006   1.446   1.372   2.233  0.8063 -0.1408  0.6156
  410MOL0     C54007   1.364   1.448   2.311  0.4914 -0.8208  0.9782
  410MOL0     C54008   1.303   1.402   2.440 -0.0269  0.3341  0.7715
  410MOL0     C54009   1.157   1.341   2.414 -0.3830 -0.5437 -0.0728
  410MOL0     C54010   1.152   1.257   2.281  0.9385  0.2334 -0.0248
  410MOL0     C54011   1.038   1.156   2.261  0.3041  0.9183  0.5962
  410MOL0     O54012   1.062   1.073   2.147 -0.4027 -0.9883  0.6059
  410MOL0     C54013   0.962   1.028   2.079 -0.0354 -0.0001 -0.7015
  410MOL0     C54014   0.858   0.969   2.160  0.5424  0.3691 -0.3239
  410MOL0     C54015   0.741   0.934   2.102 -0.5889  0.2930 -0.6329
  410MOL0     C54016   0.719   0.952   1.968  0.4135 -0.0186  0.5587
  410MOL0     C54017   0.580   0.930   1.912  0.8615 -0.2855  0.5713
  410MOL0     O54018   0.554   1.016   1.803 -0.3895  0.1404 -0.8085
  410MOL0     C54019   0.471   0.986   1.700  0.4030 -0.2781 -0.3041
  410MOL0     C54020   0.436   0.855   1.668  0.2059  0.7158  0.6974
  410MOL0     C54021   0.338   0.823   1.569 -0.7317  0.8222  0.6197
  410MOL0     C54022   0.284   0.923   1.488  0.9148 -0.7525  0.1457
  410MOL0     O54023   0.190   0.891   1.391  0.0933 -0.7244  0.5463
  410MOL0     C54024   0.162   0.981   1.281 -0.3256 -0.0899 -0.7461
  410MOL0     C54025   0.278   1.022   1.186  0.6829 -0.0345 -0.3158
  410MOL0     C54026   0.244   1.078   1.051 -0.1487  0.1074  0.2963
  410MOL0     C54027   0.116   1.152   1.041  0.3720 -0.5419 -0.7482
  410MOL0     C54028   0.074   1.177   0.896  0.3060 -0.7697 -1.0556
  410MOL0     C54029  -0.059   1.252   0.905  0.1519 -0.2365 -0.1083
  410MOL0     C54030  -0.088   1.331   0.770  0.6350  1.2496  0.0254
  410MOL0     C54031  -0.197   1.436   0.788  0.1539 -0.6724 -0.2997
  410MOL0    Cl54032  -0.338   1.362   0.857 -0.1348 -0.2872  0.3818
  410MOL0     C54033   0.331   1.054   1.517 -0.9705 -0.3026 -0.0386
  410MOL0     C54034   0.419   1.089   1.622 -0.1854 -0.0144 -0.0521
  410MOL0     O54035   0.491   0.865   1.965  0.3097 -0.4972  0.0980
  410MOL0     C54036   0.825   0.999   1.890  0.0733 -0.7770  0.2990
  410MOL0     C54037   0.945   1.043   1.939 -1.1093  0.0664  0.5978
  410MOL0     N54038   1.373   1.580   2.257 -1.0419 -0.1924 -0.1888
  410MOL0     N54039   1.436   1.578   2.138 -0.1843 -0.0561 -0.2613
  410MOL0     C54040   1.501   0.780   1.328 -0.2748  0.1754 -0.0359
  410MOL0     C54041   1.480   0.669   1.246  0.5048  0.1688 -0.3890
  410MOL0     C54042   1.485   0.439   0.884 -0.0784  0.8217  0.6371
  410MOL0     C54043   1.596   0.358   0.848  0.3105 -0.3405 -0.3332
  410MOL0     C54044   1.586   0.256   0.754 -0.0435  0.6735  0.4273
  410MOL0     C54045   1.464   0.241   0.682 -0.1356  0.2565  0.4990
  410MOL0     O54046   1.449   0.134   0.600 -0.6655 -0.0428 -1.1898
  410MOL0     C54047   1.334   0.109   0.516 -0.6870 -0.3516  0.4313
  410MOL0     C54048   1.325   0.209   0.396  0.2113  0.5112  0.2277
  410MOL0     C54049   1.420   0.180   0.276  0.5257 -0.6179  0.5884
  410MOL0     C54050   1.403   0.034   0.238 -0.4350 -1.0564  0.4344
  410MOL0     C54051   1.500   0.002   0.133 -0.4903  0.6929 -0.3605
  410MOL0     C54052   1.557  -0.023   0.032 -0.3885  0.1087 -1.2457
  410MOL0     C54053   1.361   0.329   0.712 -0.4209 -0.3240  0.0676
  410MOL0     C54054   1.368   0.433   0.807 -0.0918  0.2559 -0.0339
  410MOL0     H54055   1.790   0.657   1.116 -0.1705  1.6905 -0.4349
  410MOL0     H54056   1.825   0.834   1.288 -0.9816  0.3780  0.1141
  410MOL0     H54057   1.456   1.014   1.487  0.3294 -0.3905 -0.0590
  410MOL0     H54058   1.493   1.042   1.326 -2.0957  0.4111  0.7540
  410MOL0     H54059   1.471   1.239   1.469  1.0729  1.0169  0.0267
  410MOL0     H54060   1.607   1.239   1.367  2.6272  0.0204  0.3327
  410MOL0     H54061   1.644   1.326   1.607 -3.9519  0.6898 -2.0040
  410MOL0     H54062   1.765   1.209   1.561 -0.1011  1.4207  2.7891
  410MOL0     H54063   1.540   1.172   1.736  0.4771  2.2022 -2.0669
  410MOL0     H54064   1.623   1.029   1.657 -3.1197 -0.2474 -1.0996
  410MOL0     H54065   1.832   1.122   1.781  1.5617  2.5069  1.2222
  410MOL0     H54066   1.706   1.062   1.893  3.7130 -0.4291 -0.6657
  410MOL0     H54067   1.714   1.348   1.805 -0.4939 -0.9738 -0.5124
  410MOL0     H54068   1.826   1.290   1.928 -0.8400 -0.2702  2.3936
  410MOL0     H54069   1.525   1.254   1.961 -0.2991  1.2181  0.9711
  410MOL0     H54070   1.646   1.241   2.089  0.9037  0.7494  0.8523
  410MOL0     H54071   1.598   1.515   1.967 -0.2566  0.5507  1.2448
  410MOL0     H54072   1.705   1.453   2.102  0.2530 -1.4614 -0.1778
  410MOL0     H54073   1.480   1.269   2.239  0.4879 -0.2021  1.4874
  410MOL0     H54074   1.303   1.474   2.522  0.3736  1.2942 -0.0454
  410MOL0     H54075   1.370   1.327   2.483  3.6816  1.1745 -2.9413
  410MOL0     H54076   1.100   1.434   2.405 -0.6942 -0.7603 -0.3576
  410MOL0     H54077   1.118   1.285   2.499  1.4286  1.2934  2.1208
  410MOL0     H54078   1.160   1.319   2.192  3.8914  0.2336  0.1480
  410MOL0     H54079   1.239   1.192   2.291 -0.2603 -1.3209  0.8665
  410MOL0     H54080   0.953   1.224   2.247  1.3861  2.0141 -0.8992
  410MOL0     H54081   1.028   1.092   2.350  2.8725 -0.1922  0.1709
  410MOL0     H54082   0.880   0.971   2.266  0.1900  0.2112 -0.2447
  410MOL0     H54083   0.673   0.893   2.176  1.4039 -1.2134  0.4455
  410MOL0     H54084   0.483   0.771   1.717  0.2400  1.2264  1.5654
  410MOL0     H54085   0.325   0.718   1.545  3.1072  0.1197  0.9456
  410MOL0     H54086   0.123   1.075   1.322  2.3978  0.7481  0.1562
  410MOL0     H54087   0.079   0.945   1.220  0.2940  0.4840 -1.9570
  410MOL0     H54088   0.322   0.926   1.158 -1.9211  0.1853 -6.5548
  410MOL0     H54089   0.346   1.088   1.240  1.3993 -0.4263 -0.7269
  410MOL0     H54090   0.222   0.984   0.999 -1.2658  2.7396 -4.6468
  410MOL0     H54091   0.328   1.130   1.004 -0.6087  0.3542 -0.2755
  410MOL0     H54092   0.036   1.087   1.077 -1.1481  0.2294 -2.5853
  410MOL0     H54093   0.121   1.246   1.097 -3.3814  0.2022 -1.4215
  410MOL0     H54094   0.050   1.084   0.843 -3.5260  0.9392 -2.7392
  410MOL0     H54095   0.149   1.237   0.843  0.4050 -0.5200 -0.6398
  410MOL0     H54096  -0.057   1.331   0.981 -0.8405  0.6512 -0.9632
  410MOL0     H54097  -0.132   1.173   0.928  1.3156 -1.1130  0.6908
  410MOL0     H54098   0.009   1.372   0.741  2.0640 -1.9856 -0.1975
  410MOL0     H54099  -0.133   1.265   0.696  0.1793  0.8133  0.6821
  410MOL0     H54100  -0.225   1.474   0.690 -0.4912  1.4537  0.6518
  410MOL0     H54101  -0.168   1.518   0.855  0.2487  0.0618 -1.2317
  410MOL0     H54102   0.296   1.138   1.459  0.1743 -1.2334 -2.2149
  410MOL0     H54103   0.450   1.193   1.624 -0.2121 -0.0172  0.6497
  410MOL0     H54104   0.835   0.996   1.781 -0.1430  1.8831  0.1405
  410MOL0     H54105   1.029   1.078   1.881 -0.9883  2.5589  2.1562
  410MOL0     H54106   1.413   0.819   1.379 -0.3566 -0.2170  0.1248
  410MOL0     H54107   1.382   0.622   1.245  1.5663 -2.3629  1.5138
  410MOL0     H54108   1.689   0.377   0.901  0.5930 -1.4300 -0.4155
  410MOL0     H54109   1.667   0.187   0.734 -1.1287  0.4930 -4.6302
  410MOL0     H54110   1.246   0.132   0.576 -2.3690  0.3293 -2.1388
  410MOL0     H54111   1.323   0.003   0.491 -4.1306 -0.1721  0.7208
  410MOL0     H54112   1.226   0.199   0.351 -0.6847  1.6521  1.8233
  410MOL0     H54113   1.334   0.313   0.428 -0.3933  0.5882  0.1645
  410MOL0     H54114   1.517   0.204   0.320  0.3425  0.1030  0.6143
  410MOL0     H54115   1.395   0.247   0.194  0.9133 -1.9205 -0.6362
  410MOL0     H54116   1.455  -0.028   0.311  1.8172 -2.6127 -2.2785
  410MOL0     H54117   1.298   0.015   0.214 -0.4674  0.3304 -0.6234
  410MOL0     H54118   1.611  -0.038  -0.059  1.2299  0.5542 -0.4180
  410MOL0     H54119   1.276   0.316   0.646 -0.2365  1.7625 -0.6640
  410MOL0     H54120   1.283   0.501   0.811 -1.3901 -1.3459  1.1251
  411MOL0     O54121   4.249   7.404   6.386 -0.1209  0.2591  0.4349
  411MOL0     C54122   4.284   7.524   6.355 -0.8554  0.0103  0.1907
  411MOL0     O54123   4.322   7.571   6.230  0.3057 -0.7297 -0.3273
  411MOL0     C54124   4.264   7.507   6.128  0.4064  0.1219  0.3420
  411MOL0     C54125   4.133   7.523   6.088  0.9465  0.0831  0.9391
  411MOL0     C54126   4.093   7.491   5.960  0.0092 -0.6877 -0.3369
  411MOL0     C54127   4.177   7.432   5.874  0.6075  0.3520 -0.8586
  411MOL0     O54128   4.146   7.404   5.741  0.0920  0.3512 -0.3283
  411MOL0     C54129   4.001   7.389   5.707 -0.6055 -0.3157 -0.8615
  411MOL0     C54130   3.980   7.322   5.574 -1.1615  0.5421 -0.4326
  411MOL0     C54131   4.079   7.213   5.540 -0.1078  0.0448 -0.2376
  411MOL0     C54132   4.088   7.099   5.638  0.2418 -1.1574  0.4079
  411MOL0     C54133   4.118   6.974   5.558 -0.0592  0.2142 -0.6549
  411MOL0     C54134   4.193   6.872   5.643  0.3687 -0.5945 -0.6631
  411MOL0     C54135   4.217   6.743   5.574 -0.0667 -0.5819  1.1851
  411MOL0     C54136   4.265   6.633   5.666 -0.9658  0.5625  0.3706
  411MOL0     N54137   4.295   6.521   5.582  0.1897  0.5665 -0.3764
  411MOL0     C54138   4.208   6.407   5.566 -0.1706 -0.6586 -0.1309
  411MOL0     C54139   4.260   6.346   5.465 -0.5568 -0.0008  0.8136
  411MOL0     C54140   4.200   6.219   5.411 -0.4864  0.3066  0.0102
  411MOL0     C54141   4.167   6.118   5.528 -0.8400  0.9851 -0.4129
  411MOL0     C54142   4.094   5.997   5.468  0.1773  0.4648  0.0662
  411MOL0     C54143   4.140   5.859   5.511 -0.1265 -1.0321  0.0762
  411MOL0     O54144   4.178   5.830   5.639 -0.2644 -0.0587  0.0357
  411MOL0     C54145   4.089   5.780   5.731  0.3297  0.5258 -0.1614
  411MOL0     C54146   4.133   5.717   5.852  0.1619  0.3541 -0.3955
  411MOL0     C54147   4.036   5.663   5.942 -0.0524  0.9584 -0.3221
  411MOL0     C54148   3.902   5.693   5.928  0.1748  0.1420  0.5924
  411MOL0     C54149   3.810   5.648   6.030 -0.1181 -0.1913 -0.5435
  411MOL0     O54150   3.684   5.691   6.008  0.1248 -0.7637 -0.5979
  411MOL0     C54151   3.604   5.678   6.114  0.0817 -0.4277  0.1458
  411MOL0     C54152   3.592   5.781   6.205  0.9418 -0.4857 -0.2186
  411MOL0     C54153   3.501   5.771   6.316  0.6251  0.1743 -0.7962
  411MOL0     C54154   3.421   5.653   6.335 -0.1972  0.1646 -0.3840
  411MOL0     O54155   3.319   5.640   6.427 -0.6803 -0.4896 -0.7470
  411MOL0     C54156   3.359   5.657   6.562  0.2785  0.1348 -0.4900
  411MOL0     C54157   3.320   5.790   6.620  0.3048 -1.7069  0.3602
  411MOL0     C54158   3.178   5.829   6.580  0.1394 -0.9236 -0.0698
  411MOL0     C54159   3.145   5.940   6.678  0.1782  0.1104 -0.2924
  411MOL0     C54160   3.010   6.011   6.642  0.1576 -1.0599 -0.4854
  411MOL0     C54161   2.882   5.922   6.632 -0.3641  0.0785 -0.1070
  411MOL0     C54162   2.842   5.852   6.765 -0.0531 -0.2772  0.8898
  411MOL0     C54163   2.690   5.849   6.775  0.4599 -0.4781  0.0613
  411MOL0    Cl54164   2.588   6.005   6.795 -0.0659  0.5879 -0.1095
  411MOL0     C54165   3.444   5.548   6.250  0.6837  0.2393 -0.2992
  411MOL0     C54166   3.533   5.561   6.141  0.0087  0.3652  0.8912
  411MOL0     O54167   3.853   5.600   6.136 -0.4326  0.4180  1.4489
  411MOL0     C54168   3.857   5.746   5.805 -0.3898 -0.3577  0.0208
  411MOL0     C54169   3.948   5.782   5.703 -1.4078 -0.0170 -0.4171
  411MOL0     N54170   4.383   6.401   5.429 -0.3229 -0.0488  0.9092
  411MOL0     N54171   4.396   6.510   5.493 -0.1406 -0.3044  0.5013
  411MOL0     C54172   4.308   7.394   5.912  0.5453 -0.0735  0.5968
  411MOL0     C54173   4.351   7.425   6.045  0.2486 -0.6612  0.7365
  411MOL0     C54174   4.277   7.625   6.458  0.0996 -0.2116 -0.6835
  411MOL0     C54175   4.315   7.759   6.433  0.3596 -0.3336 -0.0254
  411MOL0     C54176   4.319   7.854   6.529 -0.4027  0.2771 -1.0017
  411MOL0     C54177   4.274   7.826   6.661 -0.5233  0.7718  1.0450
  411MOL0     O54178   4.271   7.915   6.768 -0.5146 -0.2309  0.4183
  411MOL0     C54179   4.397   7.951   6.821 -0.4675  0.6786 -0.1369
  411MOL0     C54180   4.414   7.899   6.963  0.9743  0.6930 -0.5352
  411MOL0     C54181   4.334   7.969   7.080 -0.4819 -0.3260  0.1277
  411MOL0     C54182   4.373   7.924   7.224  0.2935 -1.4119 -0.7027
  411MOL0     C54183   4.327   8.013   7.325 -0.5781 -0.0554  0.0365
  411MOL0     C54184   4.289   8.080   7.413 -0.5125  0.2183 -0.3191
  411MOL0     C54185   4.230   7.694   6.685 -0.5454 -0.4753 -0.3655
  411MOL0     C54186   4.224   7.596   6.587  0.3410  0.3627  0.0908
  411MOL0     H54187   4.066   7.572   6.158 -1.8273 -3.8282  1.4167
  411MOL0     H54188   3.997   7.528   5.926  1.5541  3.1875 -0.9756
  411MOL0     H54189   3.951   7.485   5.700 -0.8474 -0.4958 -1.6649
  411MOL0     H54190   3.956   7.333   5.790 -1.4257  0.2280 -0.9296
  411MOL0     H54191   3.983   7.392   5.490  1.3428 -1.2598 -1.9773
  411MOL0     H54192   3.877   7.289   5.586 -1.8668  2.4809 -0.7543
  411MOL0     H54193   4.172   7.262   5.511 -0.1481 -0.6952 -1.7116
  411MOL0     H54194   4.034   7.169   5.450 -0.1582  1.9886 -1.2248
  411MOL0     H54195   4.172   7.112   5.707  1.3148 -1.3014 -0.8387
  411MOL0     H54196   3.996   7.086   5.697 -1.8517 -1.0763 -2.6313
  411MOL0     H54197   4.187   6.998   5.477 -0.6556  0.0457 -1.2295
  411MOL0     H54198   4.022   6.939   5.517 -0.2454 -0.1665  0.0852
  411MOL0     H54199   4.132   6.853   5.732  0.4376  4.8475  0.8987
  411MOL0     H54200   4.283   6.917   5.688 -1.1540  0.6608  1.3390
  411MOL0     H54201   4.133   6.700   5.519  0.4743 -1.2116  0.8469
  411MOL0     H54202   4.302   6.761   5.508 -0.5813  1.2940  0.9826
  411MOL0     H54203   4.185   6.617   5.739 -2.4740  2.2323 -0.8215
  411MOL0     H54204   4.352   6.659   5.727 -1.6783 -3.1179  3.3209
  411MOL0     H54205   4.110   6.395   5.611  0.2233  1.1259  1.3215
  411MOL0     H54206   4.271   6.166   5.346 -2.8812 -1.9918 -0.9376
  411MOL0     H54207   4.123   6.247   5.339  3.6061  0.1095 -5.0244
  411MOL0     H54208   4.105   6.167   5.604  1.8492 -1.9296  4.1242
  411MOL0     H54209   4.251   6.077   5.585  1.6947  1.4989 -3.5016
  411MOL0     H54210   3.990   5.999   5.503 -0.0584 -0.3091 -0.5616
  411MOL0     H54211   4.111   5.984   5.361  1.8380  1.0502  0.2227
  411MOL0     H54212   4.240   5.868   5.466 -0.7953  4.6982 -1.1028
  411MOL0     H54213   4.079   5.784   5.460  0.4355 -0.6864 -1.1642
  411MOL0     H54214   4.241   5.723   5.866  0.0703 -1.4408  1.6275
  411MOL0     H54215   4.071   5.607   6.028 -1.0269  3.5506  1.9102
  411MOL0     H54216   3.659   5.865   6.193  0.8265 -0.3694 -0.0588
  411MOL0     H54217   3.488   5.864   6.371  1.1994  1.0815 -2.1222
  411MOL0     H54218   3.467   5.639   6.565  0.0089 -1.6832 -0.4821
  411MOL0     H54219   3.310   5.574   6.615 -2.6006  0.9847 -1.6418
  411MOL0     H54220   3.372   5.870   6.567 -2.4504 -1.4907 -2.3641
  411MOL0     H54221   3.330   5.795   6.729 -1.3095 -0.2938  0.5016
  411MOL0     H54222   3.097   5.756   6.583 -1.2507  0.5726  0.6955
  411MOL0     H54223   3.180   5.875   6.481 -2.8235  2.5958  1.2723
  411MOL0     H54224   3.130   5.903   6.779 -3.6197  1.3286 -0.2438
  411MOL0     H54225   3.224   6.016   6.681  0.2973 -0.0422  0.7917
  411MOL0     H54226   3.033   6.069   6.551  0.1986 -1.3149 -0.6390
  411MOL0     H54227   2.983   6.081   6.721 -0.7011 -2.9359  0.9565
  411MOL0     H54228   2.905   5.845   6.557  0.5286  0.9471 -0.7597
  411MOL0     H54229   2.803   5.985   6.590  0.1929  0.1666 -1.0737
  411MOL0     H54230   2.877   5.749   6.761 -0.1844 -0.2920 -1.1420
  411MOL0     H54231   2.879   5.904   6.854  0.2529 -0.4372  0.8574
  411MOL0     H54232   2.665   5.782   6.858  0.7737 -0.9460 -0.2186
  411MOL0     H54233   2.651   5.794   6.690 -0.6581 -1.5657  1.2279
  411MOL0     H54234   3.390   5.454   6.260  1.8799 -0.7201 -2.1740
  411MOL0     H54235   3.545   5.478   6.072  0.2741 -0.8184  2.3102
  411MOL0     H54236   3.751   5.767   5.789 -0.4232  1.6330  2.2539
  411MOL0     H54237   3.907   5.844   5.624  0.7277  0.8233 -0.9529
  411MOL0     H54238   4.365   7.326   5.849  0.1381  1.0692 -1.0690
  411MOL0     H54239   4.451   7.398   6.076  0.8096  0.2481 -0.2143
  411MOL0     H54240   4.352   7.768   6.331 -1.1301 -0.7913 -0.6387
  411MOL0     H54241   4.351   7.958   6.525  2.8949 -0.1773  4.0651
  411MOL0     H54242   4.394   8.060   6.817 -1.2062  0.9164  3.4708
  411MOL0     H54243   4.478   7.914   6.757  0.7309 -2.4601  2.8567
  411MOL0     H54244   4.380   7.795   6.970 -0.2535  0.8505 -3.2877
  411MOL0     H54245   4.520   7.906   6.988  0.5200  2.7681  1.0444
  411MOL0     H54246   4.227   7.944   7.072 -0.8578  1.0475  0.6303
  411MOL0     H54247   4.347   8.077   7.065 -2.7448  0.6247  3.7038
  411MOL0     H54248   4.319   7.830   7.235 -2.7320  0.1747 -1.1806
  411MOL0     H54249   4.481   7.913   7.239  0.4437  1.0920  0.7705
  411MOL0     H54250   4.263   8.143   7.496 -1.0693 -3.0334  2.1784
  411MOL0     H54251   4.206   7.663   6.786  1.5304 -1.5994 -0.1665
  411MOL0     H54252   4.190   7.496   6.614  2.0567 -0.2495  0.0675
  412MOL0     O54253   3.796   0.197   6.999 -0.8711  0.4470  1.1684
  412MOL0     C54254   3.753   0.312   7.023 -0.4119 -0.1872  0.8986
  412MOL0     O54255   3.830   0.402   7.078 -0.4678 -0.4180 -0.5230
  412MOL0     C54256   3.957   0.377   7.123 -0.7266 -0.3663  0.1292
  412MOL0     C54257   3.998   0.378   7.257 -0.1968  0.1791  0.3429
  412MOL0     C54258   4.132   0.341   7.302 -0.0775  0.1340  0.0552
  412MOL0     C54259   4.239   0.324   7.205 -0.5860  2.0695 -0.2301
  412MOL0     O54260   4.372   0.293   7.242  0.4028 -0.0421  0.5161
  412MOL0     C54261   4.449   0.397   7.297  0.1244 -0.0469 -0.0084
  412MOL0     C54262   4.575   0.360   7.372  0.7564 -0.8268 -0.5759
  412MOL0     C54263   4.628   0.480   7.454 -0.3721  0.9198 -0.2112
  412MOL0     C54264   4.775   0.465   7.509  0.1060  0.5423  0.4894
  412MOL0     C54265   4.878   0.478   7.390  0.7970 -0.4587  0.8181
  412MOL0     C54266   5.025   0.469   7.448  0.8373 -0.5241  0.4766
  412MOL0     C54267   5.136   0.452   7.341 -0.2345 -0.6700  0.2571
  412MOL0     C54268   5.127   0.543   7.219  0.2282  0.8780  0.1660
  412MOL0     N54269   5.154   0.688   7.256  0.5359 -0.3152 -0.4695
  412MOL0     C54270   5.252   0.739   7.339 -0.1313 -0.1505 -1.2273
  412MOL0     C54271   5.211   0.862   7.368  0.9723 -0.2584 -0.1805
  412MOL0     C54272   5.275   0.950   7.472 -1.1314 -0.7003  0.3043
  412MOL0     C54273   5.361   1.055   7.394 -0.5497 -0.1069 -0.6071
  412MOL0     C54274   5.443   1.146   7.484 -1.4077 -0.4111 -0.2384
  412MOL0     C54275   5.535   1.074   7.577  0.8573  0.2897 -0.7327
  412MOL0     O54276   5.599   0.969   7.511  0.0404 -0.4553 -0.0051
  412MOL0     C54277   5.705   0.998   7.432  0.1612 -0.0777  0.3897
  412MOL0     C54278   5.767   0.888   7.375  0.8551 -0.2123 -0.0496
  412MOL0     C54279   5.896   0.901   7.313  0.3555 -0.3321  1.6455
  412MOL0     C54280   5.960   1.027   7.296  0.2612 -0.5037  0.2833
  412MOL0     C54281   6.089   1.050   7.224 -0.1632  0.4229 -0.4724
  412MOL0     O54282   6.151   1.171   7.238  0.4891 -0.3802 -0.4127
  412MOL0     C54283   6.246   1.204   7.151 -0.5156 -1.2021  0.4345
  412MOL0     C54284   6.224   1.235   7.017  0.7479  0.2750 -0.1616
  412MOL0     C54285   6.327   1.257   6.927 -1.4391  0.1603  0.7766
  412MOL0     C54286   6.458   1.262   6.968 -1.4392 -0.3531  0.8474
  412MOL0     O54287   6.567   1.285   6.889 -0.1590  0.6287 -1.1299
  412MOL0     C54288   6.540   1.357   6.765  1.1032  0.2941  0.1309
  412MOL0     C54289   6.653   1.446   6.719  0.5239  0.4859 -0.0367
  412MOL0     C54290   6.603   1.559   6.627  1.1426  0.4975 -1.3175
  412MOL0     C54291   6.707   1.658   6.606  0.0728  1.2853  0.0386
  412MOL0     C54292   6.657   1.773   6.516 -0.4981  0.5425 -0.1136
  412MOL0     C54293   6.773   1.862   6.500 -1.0759 -0.5450 -0.0373
  412MOL0     C54294   6.765   1.972   6.401  0.2525 -0.1729 -0.0047
  412MOL0     C54295   6.902   2.007   6.347 -0.5369 -0.9809  0.1931
  412MOL0    Cl54296   7.024   2.043   6.474  0.1050 -0.4204  0.6088
  412MOL0     C54297   6.487   1.256   7.109  0.2389  0.0293  0.7853
  412MOL0     C54298   6.380   1.222   7.201  0.7042  0.1967  0.1550
  412MOL0     O54299   6.129   0.961   7.150  0.1016  0.7786 -0.1119
  412MOL0     C54300   5.892   1.138   7.345 -0.7314  0.9183  0.0408
  412MOL0     C54301   5.765   1.125   7.406  0.1397  0.1908  0.1323
  412MOL0     N54302   5.088   0.892   7.292 -0.5056 -0.3672 -1.0846
  412MOL0     N54303   5.059   0.782   7.238 -0.3033 -0.5413  0.7842
  412MOL0     C54304   4.206   0.341   7.081 -0.2745 -1.1186 -0.0096
  412MOL0     C54305   4.066   0.361   7.036 -0.5384 -0.2767 -0.0096
  412MOL0     C54306   3.605   0.342   7.007 -0.3423  0.1754  0.5787
  412MOL0     C54307   3.544   0.456   7.058  0.4998 -0.7889  0.3017
  412MOL0     C54308   3.403   0.472   7.055 -0.5396 -0.6818 -0.4313
  412MOL0     C54309   3.324   0.374   7.004  0.1057 -0.7235  0.7018
  412MOL0     O54310   3.193   0.405   6.972  0.5927  0.5177  0.0048
  412MOL0     C54311   3.123   0.507   7.048  0.3165 -0.5607 -0.3011
  412MOL0     C54312   2.996   0.554   6.977  0.4626 -0.1969  0.5985
  412MOL0     C54313   3.037   0.599   6.833 -0.2942  0.9238  0.1528
  412MOL0     C54314   2.925   0.648   6.740  0.5630 -0.3645 -0.1102
  412MOL0     C54315   2.833   0.752   6.797 -0.7270 -0.3624 -0.0465
  412MOL0     C54316   2.765   0.846   6.834  0.0316 -0.5595  0.4267
  412MOL0     C54317   3.378   0.256   6.968 -0.2057 -0.5009 -0.5021
  412MOL0     C54318   3.516   0.233   6.973 -0.9168  0.2322  0.1484
  412MOL0     H54319   3.907   0.388   7.314 -1.5702  3.5707 -2.0897
  412MOL0     H54320   4.151   0.339   7.409  4.3957  1.3081 -0.5505
  412MOL0     H54321   4.380   0.449   7.364 -1.3078 -0.6842 -0.9508
  412MOL0     H54322   4.493   0.467   7.225 -0.2610 -0.9281 -1.1121
  412MOL0     H54323   4.648   0.322   7.301 -0.3774  0.1983 -2.4008
  412MOL0     H54324   4.532   0.287   7.441 -1.9370 -0.3319 -1.6054
  412MOL0     H54325   4.564   0.491   7.542 -1.6007 -1.7412 -0.6637
  412MOL0     H54326   4.638   0.570   7.393  3.8603  0.1169 -0.9643
  412MOL0     H54327   4.798   0.549   7.575  1.8378  0.0704  0.5498
  412MOL0     H54328   4.793   0.372   7.565  1.0529 -0.7860 -1.8611
  412MOL0     H54329   4.862   0.571   7.335 -0.6961 -0.2924  1.4738
  412MOL0     H54330   4.858   0.393   7.323 -4.5776 -0.8331  2.4237
  412MOL0     H54331   5.032   0.381   7.513  1.1713 -0.1845  0.9059
  412MOL0     H54332   5.043   0.554   7.514 -0.5404 -1.7614  2.5776
  412MOL0     H54333   5.232   0.461   7.393 -0.1443 -0.4850  0.0576
  412MOL0     H54334   5.139   0.349   7.305 -0.3754 -1.4607  2.3621
  412MOL0     H54335   5.029   0.524   7.176  0.4620 -0.7359  0.3133
  412MOL0     H54336   5.196   0.515   7.139 -2.4566  2.7750 -3.0945
  412MOL0     H54337   5.340   0.702   7.392 -0.0451 -0.4858 -1.5966
  412MOL0     H54338   5.331   0.892   7.546  2.5658  1.1495 -0.7669
  412MOL0     H54339   5.195   1.002   7.525 -1.5368 -1.9656  0.9697
  412MOL0     H54340   5.306   1.107   7.316 -2.8966 -0.6667  0.6009
  412MOL0     H54341   5.440   1.001   7.340  0.8479  1.0822  0.1453
  412MOL0     H54342   5.515   1.209   7.432  0.7262  0.2222  3.2001
  412MOL0     H54343   5.369   1.217   7.523 -1.7798 -0.1107 -1.4524
  412MOL0     H54344   5.476   1.030   7.658  0.0696 -0.7467 -1.8431
  412MOL0     H54345   5.607   1.141   7.626  0.5069  1.4459 -1.7449
  412MOL0     H54346   5.732   0.785   7.377  1.2040 -0.3973 -1.9071
  412MOL0     H54347   5.939   0.810   7.274  3.1072  1.6772 -0.4381
  412MOL0     H54348   6.122   1.231   6.981  0.8484 -1.3496 -0.3279
  412MOL0     H54349   6.297   1.273   6.824  1.5825 -0.3022 -0.2720
  412MOL0     H54350   6.457   1.425   6.783  0.0862 -0.9588  0.2997
  412MOL0     H54351   6.517   1.283   6.688  1.9733 -1.7147  1.6983
  412MOL0     H54352   6.728   1.386   6.667  0.4909  2.2128 -2.2082
  412MOL0     H54353   6.684   1.487   6.816 -0.3278 -3.3978  2.0863
  412MOL0     H54354   6.513   1.611   6.661  1.2650 -0.4010  0.4885
  412MOL0     H54355   6.566   1.509   6.537  0.6778 -3.7263  0.9490
  412MOL0     H54356   6.747   1.705   6.697  0.8135  1.1820 -0.2224
  412MOL0     H54357   6.787   1.610   6.549 -2.2299  2.1397 -4.3226
  412MOL0     H54358   6.580   1.824   6.574 -1.2900  0.0680 -0.7260
  412MOL0     H54359   6.621   1.748   6.416  1.8920 -1.9054 -0.4924
  412MOL0     H54360   6.851   1.799   6.457 -0.5491  1.8883 -3.0013
  412MOL0     H54361   6.803   1.902   6.597  0.2106 -1.5786  0.0214
  412MOL0     H54362   6.694   1.954   6.320 -0.0640  2.2052 -0.3120
  412MOL0     H54363   6.731   2.061   6.454 -0.0079 -0.1261 -0.2499
  412MOL0     H54364   6.890   2.091   6.277  3.1567 -0.4536  0.0218
  412MOL0     H54365   6.946   1.927   6.287  0.8981  0.0572 -0.1922
  412MOL0     H54366   6.586   1.279   7.148 -0.0788 -0.5429  1.9616
  412MOL0     H54367   6.395   1.193   7.304  3.3361  2.1835  0.4522
  412MOL0     H54368   5.936   1.234   7.322  2.1575  0.0646  1.5227
  412MOL0     H54369   5.728   1.220   7.443  2.9987  1.6043 -0.3200
  412MOL0     H54370   4.278   0.340   7.000  0.2183  0.5766  0.3614
  412MOL0     H54371   4.048   0.365   6.929 -0.1094  1.8688 -0.0484
  412MOL0     H54372   3.607   0.538   7.092 -2.2458  1.8879 -0.5982
  412MOL0     H54373   3.374   0.565   7.102  3.6604  2.3239 -3.0762
  412MOL0     H54374   3.183   0.599   7.058  0.4944 -0.5115 -1.5837
  412MOL0     H54375   3.096   0.468   7.146 -1.6855 -0.9863 -0.9818
  412MOL0     H54376   2.914   0.482   6.987 -2.4740  3.1645  3.3211
  412MOL0     H54377   2.951   0.638   7.031 -2.8422  0.2760 -2.4960
  412MOL0     H54378   3.071   0.508   6.783 -3.6590 -2.3395  3.1733
  412MOL0     H54379   3.128   0.659   6.832  1.6910 -1.8600 -1.0845
  412MOL0     H54380   2.975   0.687   6.650  1.7616 -1.8666 -0.1248
  412MOL0     H54381   2.867   0.559   6.713  1.0011 -1.0551  1.1529
  412MOL0     H54382   2.713   0.933   6.869  1.0585  0.0230  0.5250
  412MOL0     H54383   3.305   0.179   6.945 -2.3979  1.0503  0.8045
  412MOL0     H54384   3.558   0.138   6.940 -0.8593  0.1846  0.3591
  413MOL0     O54385   8.447   4.132   2.438 -0.6876  0.8041 -0.2345
  413MOL0     C54386   8.438   4.216   2.523  1.1874 -0.6027 -0.0639
  413MOL0     O54387   8.392   4.195   2.642  0.5757  0.1544 -0.4536
  413MOL0     C54388   8.372   4.066   2.675  0.1657 -0.0958 -0.5398
  413MOL0     C54389   8.456   3.999   2.767  0.3830 -0.3215 -0.4005
  413MOL0     C54390   8.415   3.872   2.810  0.5089  0.7170 -0.2559
  413MOL0     C54391   8.296   3.807   2.768 -0.7102 -0.2896 -0.8818
  413MOL0     O54392   8.271   3.682   2.828 -0.3575 -0.3036 -0.4600
  413MOL0     C54393   8.151   3.621   2.812 -0.2395  0.7838  1.0246
  413MOL0     C54394   8.123   3.521   2.920 -0.5393  0.3198  0.0461
  413MOL0     C54395   8.109   3.592   3.057 -0.6455 -0.4112  0.8240
  413MOL0     C54396   8.098   3.480   3.170  0.5458  0.0229  0.3182
  413MOL0     C54397   8.044   3.545   3.302 -0.8786  0.1175 -0.8344
  413MOL0     C54398   7.899   3.581   3.295  0.6652 -0.1507  0.2587
  413MOL0     C54399   7.867   3.688   3.398  1.3195 -0.1597  0.4686
  413MOL0     C54400   7.871   3.651   3.543  0.0785 -0.6881 -0.5323
  413MOL0     N54401   7.809   3.748   3.640 -0.2026  0.1511  0.1431
  413MOL0     C54402   7.745   3.870   3.619 -0.6937  0.6160  0.6739
  413MOL0     C54403   7.676   3.895   3.731  0.1196  0.1727 -0.1312
  413MOL0     C54404   7.607   4.026   3.768  0.2547 -0.3950 -0.4526
  413MOL0     C54405   7.651   4.093   3.903  0.3133 -0.6605  0.6166
  413MOL0     C54406   7.609   4.022   4.031  0.7314 -0.2893 -0.8307
  413MOL0     C54407   7.650   4.083   4.164  0.2091  0.2556 -0.1464
  413MOL0     O54408   7.791   4.088   4.164 -0.2567 -0.0236  0.0469
  413MOL0     C54409   7.863   4.079   4.287  0.4729  1.0345  0.9435
  413MOL0     C54410   7.808   4.072   4.420 -0.0644  0.5545 -0.0377
  413MOL0     C54411   7.881   4.061   4.540 -0.8581 -0.2238  0.6574
  413MOL0     C54412   8.019   4.063   4.523  0.4599  0.6805  0.2737
  413MOL0     C54413   8.108   4.048   4.632 -0.5034  0.5235 -0.9518
  413MOL0     O54414   8.052   3.975   4.734 -0.1731  0.3199  0.3727
  413MOL0     C54415   8.123   3.942   4.844  0.1270 -0.2833  0.1408
  413MOL0     C54416   8.090   3.826   4.898  0.0708 -0.1529  0.0035
  413MOL0     C54417   8.144   3.785   5.018 -0.3225  0.7582 -0.0305
  413MOL0     C54418   8.253   3.846   5.078  0.5956  0.7654 -0.0708
  413MOL0     O54419   8.311   3.814   5.195 -1.0430  0.3467  0.4930
  413MOL0     C54420   8.233   3.750   5.300 -0.1454 -0.7064  0.4688
  413MOL0     C54421   8.329   3.712   5.416 -0.2749 -0.5685 -0.0316
  413MOL0     C54422   8.258   3.626   5.524  0.1727  0.2460  0.0277
  413MOL0     C54423   8.347   3.597   5.644 -0.8487  0.3926 -0.3063
  413MOL0     C54424   8.498   3.556   5.610 -0.4488 -1.0845  0.0437
  413MOL0     C54425   8.501   3.427   5.510 -0.6027 -0.3192 -0.8608
  413MOL0     C54426   8.409   3.305   5.557 -1.2492 -0.4222  0.0537
  413MOL0     C54427   8.407   3.199   5.447  0.0044  0.7814 -0.3760
  413MOL0    Cl54428   8.578   3.135   5.409  0.1090  0.3329 -0.2319
  413MOL0     C54429   8.314   3.943   5.002 -0.6855 -1.2574  0.1278
  413MOL0     C54430   8.238   4.008   4.892 -0.3006 -0.0635  0.7910
  413MOL0     O54431   8.226   4.082   4.626  0.6117  0.1621 -0.3129
  413MOL0     C54432   8.078   4.068   4.393 -0.2568 -0.0370  0.0428
  413MOL0     C54433   7.998   4.071   4.279  0.2519 -0.3066  0.3167
  413MOL0     N54434   7.693   3.782   3.819 -0.3520 -0.0490 -0.1139
  413MOL0     N54435   7.770   3.702   3.757 -0.4280  0.2040  0.1205
  413MOL0     C54436   8.223   3.874   2.674  0.9024 -0.3097 -0.4323
  413MOL0     C54437   8.260   4.005   2.630  1.6515  0.6509  0.8268
  413MOL0     C54438   8.501   4.348   2.485  0.3824  0.3522 -0.1147
  413MOL0     C54439   8.571   4.422   2.584 -0.2953  0.5105 -0.8939
  413MOL0     C54440   8.646   4.543   2.552  0.0502  1.2631  0.2645
  413MOL0     C54441   8.652   4.571   2.418 -0.8222 -0.1342  0.4538
  413MOL0     O54442   8.728   4.673   2.367 -0.0217  0.2247  1.2503
  413MOL0     C54443   8.863   4.682   2.410  0.6968 -0.4268 -0.3033
  413MOL0     C54444   8.933   4.803   2.336 -0.6840 -0.1322 -0.4883
  413MOL0     C54445   8.852   4.927   2.322  0.0615  0.8954  0.1446
  413MOL0     C54446   8.886   5.000   2.189  0.4918 -0.5684 -0.5457
  413MOL0     C54447   8.836   5.137   2.179 -1.0316 -0.2883 -0.9654
  413MOL0     C54448   8.795   5.247   2.174  0.1801  0.1579 -0.3072
  413MOL0     C54449   8.577   4.503   2.323  0.2126 -0.6802 -0.1651
  413MOL0     C54450   8.502   4.397   2.359 -0.3871 -0.4792 -0.4226
  413MOL0     H54451   8.548   4.045   2.801  0.4801 -1.3570  0.8195
  413MOL0     H54452   8.484   3.830   2.882  1.3255  0.0649 -1.4029
  413MOL0     H54453   8.146   3.564   2.719 -0.3670  1.1160  0.8237
  413MOL0     H54454   8.070   3.694   2.802 -0.4037  0.4665 -0.1275
  413MOL0     H54455   8.210   3.455   2.914 -1.0240 -0.1985 -3.9353
  413MOL0     H54456   8.035   3.458   2.909  0.9988 -3.1142  4.4893
  413MOL0     H54457   8.026   3.662   3.057 -0.2416  0.0818 -0.3212
  413MOL0     H54458   8.194   3.656   3.082 -0.5945 -0.2274  0.1825
  413MOL0     H54459   8.034   3.396   3.140  1.4991 -0.5926 -0.0394
  413MOL0     H54460   8.200   3.446   3.188  0.4984  1.1360  3.0820
  413MOL0     H54461   8.090   3.637   3.340 -3.9441  1.5173 -0.1890
  413MOL0     H54462   8.066   3.469   3.378  1.2385  1.3197 -0.1324
  413MOL0     H54463   7.835   3.493   3.302 -0.4716  0.5754 -0.6174
  413MOL0     H54464   7.871   3.624   3.198 -0.9284  1.0016  1.1935
  413MOL0     H54465   7.924   3.780   3.383 -1.1359  1.3454 -0.3321
  413MOL0     H54466   7.763   3.718   3.382  0.0126 -2.0848  4.0658
  413MOL0     H54467   7.974   3.667   3.575 -0.7640  1.2736  1.5195
  413MOL0     H54468   7.838   3.548   3.560 -2.1777  0.1300  0.5263
  413MOL0     H54469   7.749   3.939   3.535  2.9463  2.5487  2.2135
  413MOL0     H54470   7.500   4.007   3.779  0.1566 -0.9472 -2.0442
  413MOL0     H54471   7.610   4.102   3.690 -2.2215  0.5561  0.2803
  413MOL0     H54472   7.605   4.192   3.907  1.3974 -0.0135 -1.6411
  413MOL0     H54473   7.758   4.114   3.912  0.6508 -1.4182 -1.2772
  413MOL0     H54474   7.501   4.033   4.033  0.8605  1.1037 -0.4409
  413MOL0     H54475   7.644   3.919   4.035 -1.2316 -0.9646  0.1278
  413MOL0     H54476   7.611   4.033   4.253  0.8449  1.3595  0.7774
  413MOL0     H54477   7.603   4.182   4.169 -2.0708 -0.7709  0.3864
  413MOL0     H54478   7.702   4.084   4.439  0.1628  1.7825  0.5976
  413MOL0     H54479   7.819   4.039   4.626 -0.5406  0.1369  0.9837
  413MOL0     H54480   7.993   3.783   4.872 -0.6064  0.5633  1.2773
  413MOL0     H54481   8.101   3.695   5.061 -0.0542  0.3782 -0.5626
  413MOL0     H54482   8.188   3.659   5.259 -2.2677  0.3249  0.4191
  413MOL0     H54483   8.151   3.807   5.344  0.2212 -2.7597  4.1842
  413MOL0     H54484   8.375   3.803   5.456  1.6726 -0.7147 -1.7188
  413MOL0     H54485   8.421   3.666   5.378  0.2013  0.9736 -0.8362
  413MOL0     H54486   8.205   3.537   5.487  2.1551 -0.3407 -1.6218
  413MOL0     H54487   8.186   3.698   5.563 -0.7904 -1.5280  1.6903
  413MOL0     H54488   8.344   3.683   5.712 -0.1305  0.5392 -0.4511
  413MOL0     H54489   8.301   3.513   5.698 -0.2915  0.4115  0.2176
  413MOL0     H54490   8.546   3.531   5.706 -0.9612  0.9535  0.8929
  413MOL0     H54491   8.564   3.638   5.580  1.2326 -0.6201  4.2554
  413MOL0     H54492   8.609   3.409   5.504 -0.2576  1.8772 -2.3849
  413MOL0     H54493   8.477   3.469   5.412 -0.7412 -0.1933 -0.7741
  413MOL0     H54494   8.439   3.254   5.649 -3.1379 -1.0430  0.3658
  413MOL0     H54495   8.306   3.339   5.571 -1.3507 -0.9609  0.6468
  413MOL0     H54496   8.365   3.241   5.355  0.5738  1.0447 -0.5137
  413MOL0     H54497   8.340   3.118   5.479 -1.3491  1.9932 -0.0062
  413MOL0     H54498   8.417   3.963   5.032 -1.2989 -1.2020  2.3750
  413MOL0     H54499   8.274   4.099   4.845 -0.7676 -1.2382 -2.0365
  413MOL0     H54500   8.186   4.079   4.388  0.1800 -2.4458  1.9784
  413MOL0     H54501   8.048   4.083   4.183  3.6982 -5.7263  1.0001
  413MOL0     H54502   8.142   3.832   2.616  2.5562  0.9223 -3.9716
  413MOL0     H54503   8.198   4.071   2.570 -1.8782 -1.6223  1.6875
  413MOL0     H54504   8.562   4.387   2.686  3.8470 -0.4445 -0.6730
  413MOL0     H54505   8.699   4.603   2.625 -1.1826  2.4390  0.2221
  413MOL0     H54506   8.907   4.584   2.389  0.4927 -0.1553 -2.2551
  413MOL0     H54507   8.870   4.698   2.518 -0.5851 -2.1198  0.0755
  413MOL0     H54508   9.025   4.829   2.388  0.0041  2.4501 -2.8014
  413MOL0     H54509   8.958   4.766   2.236 -1.7630  0.4234 -0.9857
  413MOL0     H54510   8.875   4.991   2.407 -2.1942  4.2467 -1.5548
  413MOL0     H54511   8.746   4.901   2.322  0.3805 -1.0323 -3.4324
  413MOL0     H54512   8.995   5.010   2.180  0.5514  2.2862  1.8857
  413MOL0     H54513   8.837   4.952   2.104 -4.7619  1.3968  1.0051
  413MOL0     H54514   8.740   5.339   2.176  1.1136  0.7579 -1.2048
  413MOL0     H54515   8.574   4.532   2.218 -0.3945 -4.1069 -1.2452
  413MOL0     H54516   8.444   4.348   2.282 -2.2628  1.1128 -0.1120
  414MOL0     O54517   3.864   6.194   1.621 -0.0382  0.1484 -0.1952
  414MOL0     C54518   3.774   6.267   1.579  0.6643 -0.4414  0.3448
  414MOL0     O54519   3.759   6.399   1.588 -0.0365  0.0947 -0.1120
  414MOL0     C54520   3.873   6.476   1.609  0.3681  0.3174  1.5043
  414MOL0     C54521   3.997   6.458   1.535  0.3704 -0.2742 -0.0532
  414MOL0     C54522   4.104   6.546   1.553 -0.7639  0.2046 -0.2752
  414MOL0     C54523   4.096   6.652   1.645  0.3682 -0.9250  0.0242
  414MOL0     O54524   4.210   6.720   1.653 -0.3573 -0.4024 -0.6059
  414MOL0     C54525   4.214   6.850   1.715 -0.6379  0.1992 -0.5120
  414MOL0     C54526   4.294   6.825   1.845  0.0453  0.7533  0.0688
  414MOL0     C54527   4.320   6.952   1.929  0.0709  0.3704 -0.7137
  414MOL0     C54528   4.401   7.065   1.864  0.2387 -0.5673  0.5723
  414MOL0     C54529   4.456   7.160   1.971  0.7164  0.4884  0.0229
  414MOL0     C54530   4.511   7.285   1.898  0.0589 -0.7816  0.0442
  414MOL0     C54531   4.578   7.377   1.998  0.8507  0.0309 -0.2178
  414MOL0     C54532   4.675   7.474   1.925 -0.2535 -0.8598 -0.2924
  414MOL0     N54533   4.793   7.418   1.868  0.0818 -0.9129 -0.0840
  414MOL0     C54534   4.902   7.485   1.809  0.6186  0.1547  0.6678
  414MOL0     C54535   4.982   7.393   1.750 -0.9201 -0.0262 -0.3697
  414MOL0     C54536   5.098   7.432   1.661 -0.6233 -0.2998  0.3517
  414MOL0     C54537   5.202   7.318   1.651 -0.4137 -0.4876  0.6992
  414MOL0     C54538   5.331   7.348   1.571  0.5229  0.1271  0.8807
  414MOL0     C54539   5.415   7.457   1.641 -0.2895 -0.3229 -0.0266
  414MOL0     O54540   5.390   7.588   1.596 -0.0575  0.1900 -0.1369
  414MOL0     C54541   5.501   7.671   1.615 -0.3520 -0.4595  0.4509
  414MOL0     C54542   5.507   7.789   1.529 -0.4366 -0.5740  0.0650
  414MOL0     C54543   5.613   7.883   1.548 -0.4116  0.2768 -0.2425
  414MOL0     C54544   5.722   7.867   1.640  0.1048 -0.4406  0.3243
  414MOL0     C54545   5.824   7.970   1.664  0.0468  0.7335  0.1157
  414MOL0     O54546   5.895   7.951   1.784 -0.2580  0.1555 -0.3169
  414MOL0     C54547   6.001   8.032   1.811  0.0612  0.2469 -1.0903
  414MOL0     C54548   6.127   7.995   1.784 -0.9845 -0.4933  0.5127
  414MOL0     C54549   6.234   8.071   1.825 -0.7997  1.0009 -0.1979
  414MOL0     C54550   6.203   8.185   1.908 -0.4670 -0.4274  0.3086
  414MOL0     O54551   6.303   8.269   1.955  0.3726 -0.0903 -0.8369
  414MOL0     C54552   6.417   8.226   2.031 -1.4152 -0.3135 -0.6269
  414MOL0     C54553   6.495   8.326   2.109  0.1943  0.0901  0.0277
  414MOL0     C54554   6.402   8.378   2.227 -0.8472  0.4213  0.4166
  414MOL0     C54555   6.394   8.284   2.337  0.2952  0.7348  0.4572
  414MOL0     C54556   6.412   8.360   2.471 -0.2891 -0.5330 -0.1089
  414MOL0     C54557   6.324   8.479   2.505 -0.4530  0.3883  0.1504
  414MOL0     C54558   6.311   8.494   2.654  0.0052 -0.9786  0.6258
  414MOL0     C54559   6.449   8.511   2.726  0.1246  0.4644 -0.4092
  414MOL0    Cl54560   6.448   8.589   2.884  0.2414 -0.3848 -0.1686
  414MOL0     C54561   6.072   8.230   1.927 -0.2904  0.1296 -0.8056
  414MOL0     C54562   5.968   8.146   1.884  0.2067 -0.4621 -0.0775
  414MOL0     O54563   5.834   8.060   1.581 -0.6601  0.1518 -0.3273
  414MOL0     C54564   5.698   7.762   1.734 -0.2938  0.1347 -0.9643
  414MOL0     C54565   5.600   7.664   1.719  0.7206 -0.4548 -0.5343
  414MOL0     N54566   4.931   7.272   1.775  0.9084  0.3607 -0.6051
  414MOL0     N54567   4.827   7.283   1.853 -0.0582 -0.2094 -0.4412
  414MOL0     C54568   3.977   6.679   1.711  0.1165 -0.1883 -0.5773
  414MOL0     C54569   3.874   6.588   1.697  0.4644 -0.4227 -0.9381
  414MOL0     C54570   3.662   6.215   1.491  0.5156  0.2931  1.3293
  414MOL0     C54571   3.525   6.245   1.512  1.0409 -0.0259  0.1204
  414MOL0     C54572   3.422   6.188   1.437  0.4361 -0.0372  0.4825
  414MOL0     C54573   3.466   6.089   1.348  1.2524  0.2955 -1.0660
  414MOL0     O54574   3.369   6.011   1.286 -0.0690  0.1010  0.0043
  414MOL0     C54575   3.331   6.060   1.155 -0.3890 -0.1964  0.3186
  414MOL0     C54576   3.435   6.040   1.043 -0.0725 -0.4277 -0.6470
  414MOL0     C54577   3.370   6.093   0.912 -0.4049 -0.5085  0.1734
  414MOL0     C54578   3.451   6.065   0.794  0.0576 -0.8881 -0.6918
  414MOL0     C54579   3.369   6.109   0.674 -0.3275 -0.0138  0.1045
  414MOL0     C54580   3.308   6.143   0.577 -0.0761  0.1712 -0.2708
  414MOL0     C54581   3.599   6.048   1.327  0.0906 -0.2139  0.5032
  414MOL0     C54582   3.699   6.116   1.396 -0.0880  0.4756 -0.5819
  414MOL0     H54583   4.023   6.368   1.481 -0.2054 -1.0109  0.8735
  414MOL0     H54584   4.202   6.527   1.511  1.1312  3.0750  2.4143
  414MOL0     H54585   4.118   6.895   1.744 -1.0086 -1.7634  1.6445
  414MOL0     H54586   4.266   6.931   1.664 -0.5163  2.1015  2.3678
  414MOL0     H54587   4.393   6.791   1.815  0.9733  1.3718  2.2154
  414MOL0     H54588   4.233   6.746   1.892 -1.8706  0.7646 -2.2084
  414MOL0     H54589   4.376   6.925   2.019 -0.5410  1.0609 -0.1234
  414MOL0     H54590   4.233   6.990   1.982  0.8636 -0.5333  1.3321
  414MOL0     H54591   4.483   7.011   1.816 -0.1533 -0.8896  0.2632
  414MOL0     H54592   4.345   7.114   1.784 -0.8632 -1.1294  0.9730
  414MOL0     H54593   4.532   7.109   2.031 -0.5735  0.9479  2.1688
  414MOL0     H54594   4.372   7.192   2.034 -1.2985 -1.2973 -1.5949
  414MOL0     H54595   4.436   7.350   1.850  2.4887  3.1741  1.1602
  414MOL0     H54596   4.575   7.252   1.815  1.8118  2.2659  0.0418
  414MOL0     H54597   4.499   7.431   2.051  2.5992  2.7843 -0.2571
  414MOL0     H54598   4.633   7.317   2.070 -0.5109 -2.8982 -1.4516
  414MOL0     H54599   4.708   7.548   1.999  0.2778  0.9803 -2.2626
  414MOL0     H54600   4.635   7.524   1.836 -0.0520 -1.4019 -0.6900
  414MOL0     H54601   4.922   7.590   1.822  1.1053  0.9124 -4.2037
  414MOL0     H54602   5.156   7.515   1.702  3.7316 -0.3751 -4.6469
  414MOL0     H54603   5.049   7.461   1.568 -1.9098 -2.8979  0.1305
  414MOL0     H54604   5.140   7.241   1.604  2.2177 -1.6825 -1.1317
  414MOL0     H54605   5.232   7.284   1.751 -0.7473 -2.0403  0.3083
  414MOL0     H54606   5.382   7.251   1.566  2.0357  0.9617 -0.4565
  414MOL0     H54607   5.313   7.378   1.468  0.4259 -0.6087  0.6803
  414MOL0     H54608   5.517   7.431   1.614  0.2090  0.1540  1.3319
  414MOL0     H54609   5.411   7.433   1.748 -0.5491 -0.2612 -0.0216
  414MOL0     H54610   5.428   7.808   1.458  1.0462 -2.0458 -2.1015
  414MOL0     H54611   5.606   7.977   1.494 -0.1951  1.3009  1.4533
  414MOL0     H54612   6.158   7.905   1.731  1.3151  1.3414 -1.4990
  414MOL0     H54613   6.337   8.045   1.800 -0.6902  0.5620  0.6723
  414MOL0     H54614   6.483   8.191   1.951 -0.0940 -1.4850  0.9274
  414MOL0     H54615   6.376   8.148   2.095  0.2907 -0.6737  0.0700
  414MOL0     H54616   6.521   8.412   2.046 -1.7013  1.7448  1.3950
  414MOL0     H54617   6.586   8.288   2.156  1.4846  1.8526 -0.9546
  414MOL0     H54618   6.300   8.403   2.195 -0.0940  3.1152 -0.1075
  414MOL0     H54619   6.444   8.476   2.251 -2.5563  1.7487 -1.6239
  414MOL0     H54620   6.297   8.234   2.330  1.4283 -2.0583  2.7394
  414MOL0     H54621   6.472   8.208   2.331  0.5973  0.7828  2.8458
  414MOL0     H54622   6.514   8.401   2.475 -1.0338  1.4264 -0.1315
  414MOL0     H54623   6.401   8.289   2.554  0.6340 -2.0922 -1.2510
  414MOL0     H54624   6.234   8.470   2.443  0.6323  2.3860 -1.8374
  414MOL0     H54625   6.374   8.567   2.464 -1.3890  2.3892  2.9990
  414MOL0     H54626   6.257   8.589   2.663  1.1333 -0.3634  1.1373
  414MOL0     H54627   6.251   8.408   2.685 -1.1743 -0.2058  0.5784
  414MOL0     H54628   6.523   8.562   2.664  2.5940 -3.1326 -0.7271
  414MOL0     H54629   6.474   8.405   2.732 -1.6864 -0.0821 -1.5654
  414MOL0     H54630   6.052   8.322   1.982  0.7213 -0.0555 -0.0954
  414MOL0     H54631   5.868   8.167   1.921 -0.4045  1.1862 -2.4602
  414MOL0     H54632   5.780   7.754   1.805  2.0219  2.2451 -3.1739
  414MOL0     H54633   5.596   7.583   1.791 -3.5814  0.7219  0.8580
  414MOL0     H54634   3.952   6.764   1.773 -1.4725 -1.1973  0.2420
  414MOL0     H54635   3.779   6.599   1.747 -0.3045 -2.8196 -1.7095
  414MOL0     H54636   3.486   6.327   1.571 -1.7943  0.0497 -1.6797
  414MOL0     H54637   3.317   6.216   1.432  0.1750  0.0054  4.1270
  414MOL0     H54638   3.324   6.169   1.167 -0.1493 -0.0312 -0.9083
  414MOL0     H54639   3.232   6.018   1.136 -1.2224  2.1842 -1.1642
  414MOL0     H54640   3.525   6.097   1.072 -0.9100  0.9001 -0.5549
  414MOL0     H54641   3.452   5.932   1.041  1.4228 -0.2297 -0.2495
  414MOL0     H54642   3.342   6.198   0.921 -2.1297 -1.0889  2.3124
  414MOL0     H54643   3.280   6.035   0.890 -0.2426 -0.7432  0.1149
  414MOL0     H54644   3.542   6.125   0.801 -1.6683  1.8358  0.3321
  414MOL0     H54645   3.475   5.959   0.786  0.0148 -1.1115  1.4853
  414MOL0     H54646   3.256   6.179   0.491 -1.4923 -0.0107  0.4779
  414MOL0     H54647   3.626   5.969   1.257  0.9696  0.3059  0.2291
  414MOL0     H54648   3.802   6.084   1.397 -0.9354 -2.5945  1.3961
  415MOL0     O54649   9.760   7.020   9.306 -0.5118  0.5447  0.6074
  415MOL0     C54650   9.850   7.047   9.217  0.9518  0.1973  0.4677
  415MOL0     O54651   9.912   6.960   9.136 -1.2896 -0.4568  0.2753
  415MOL0     C54652   9.878   6.831   9.113 -0.6205  0.7309 -0.6198
  415MOL0     C54653   9.763   6.762   9.145  0.1802  0.4096  0.7374
  415MOL0     C54654   9.744   6.627   9.136 -0.1237 -0.0778 -0.3419
  415MOL0     C54655   9.847   6.550   9.074  1.7140  0.7377 -0.4173
  415MOL0     O54656   9.810   6.415   9.043  0.5581  1.0095 -0.6966
  415MOL0     C54657   9.870   6.352   8.928 -0.1357 -0.7019  0.5175
  415MOL0     C54658   9.833   6.213   8.934  0.3851 -0.0253 -0.2437
  415MOL0     C54659   9.914   6.116   8.845  0.0015 -0.1138  0.0721
  415MOL0     C54660   9.846   5.980   8.841 -0.9318  0.8041  0.0528
  415MOL0     C54661   9.889   5.893   8.720  0.4311 -0.4854  0.5528
  415MOL0     C54662   9.873   5.745   8.752  0.0667 -0.4533  0.2986
  415MOL0     C54663   9.911   5.651   8.628 -0.0080  0.0325 -0.7846
  415MOL0     C54664  10.053   5.663   8.586 -0.1336 -0.3894  0.4838
  415MOL0     N54665  10.115   5.541   8.534 -0.2056 -0.6668  0.3328
  415MOL0     C54666  10.058   5.428   8.481  0.9186  0.0235  0.1430
  415MOL0     C54667  10.158   5.339   8.436  0.2709 -0.8993 -0.5041
  415MOL0     C54668  10.150   5.198   8.375  0.6608 -0.3475 -0.1532
  415MOL0     C54669  10.199   5.175   8.234 -0.3163 -0.3053  0.3068
  415MOL0     C54670  10.078   5.178   8.134 -0.2540 -0.3149 -0.0551
  415MOL0     C54671  10.126   5.148   7.986 -0.0268 -0.1217  0.1173
  415MOL0     O54672  10.006   5.139   7.896  0.7577  0.0739 -0.0586
  415MOL0     C54673   9.915   5.241   7.908  0.1054  0.5121  0.1807
  415MOL0     C54674   9.781   5.222   7.941 -0.0698 -0.2979  0.5374
  415MOL0     C54675   9.694   5.335   7.938  0.3218 -0.4827 -0.1737
  415MOL0     C54676   9.744   5.467   7.920 -0.5836  0.8487  0.0941
  415MOL0     C54677   9.655   5.579   7.922 -1.5242 -0.7044  1.2314
  415MOL0     O54678   9.702   5.706   7.883 -0.1175  0.4044 -0.6071
  415MOL0     C54679   9.621   5.814   7.888 -0.1461  0.2606 -0.3573
  415MOL0     C54680   9.655   5.921   7.964  1.1163 -0.6498  0.3394
  415MOL0     C54681   9.574   6.038   7.964 -0.5637  0.4320  0.3648
  415MOL0     C54682   9.476   6.050   7.869  0.4154 -0.3038 -1.0811
  415MOL0     O54683   9.408   6.170   7.871 -0.1902 -0.4870  0.2991
  415MOL0     C54684   9.285   6.203   7.799  0.0718 -0.0603  0.0292
  415MOL0     C54685   9.246   6.355   7.804 -0.6214 -0.6038 -1.0296
  415MOL0     C54686   9.136   6.392   7.712  0.4510 -0.0554 -0.5072
  415MOL0     C54687   8.988   6.334   7.734 -0.7726 -0.3213  0.1663
  415MOL0     C54688   8.898   6.351   7.616 -0.7956 -0.4600 -0.1122
  415MOL0     C54689   8.751   6.303   7.637  1.0742 -0.6485  1.4068
  415MOL0     C54690   8.658   6.350   7.525 -0.2157  0.9074  0.5258
  415MOL0     C54691   8.527   6.414   7.573  0.9364 -0.5685  0.0113
  415MOL0    Cl54692   8.578   6.575   7.645  0.1744  0.9369 -0.7310
  415MOL0     C54693   9.437   5.938   7.790  0.1099  0.8968 -0.0591
  415MOL0     C54694   9.513   5.823   7.798  0.3711  0.3029  0.3389
  415MOL0     O54695   9.541   5.561   7.940 -0.2343  0.9813  0.2408
  415MOL0     C54696   9.878   5.485   7.884 -0.0286 -1.0142 -0.3141
  415MOL0     C54697   9.960   5.369   7.872 -0.3295 -0.2906 -0.3764
  415MOL0     N54698  10.270   5.409   8.477  0.0389  0.2001 -0.1197
  415MOL0     N54699  10.250   5.529   8.525  0.0110  0.2619 -0.4349
  415MOL0     C54700   9.960   6.616   9.036 -0.6630  0.2465 -0.0843
  415MOL0     C54701   9.985   6.750   9.066  0.7958 -0.0703  0.0783
  415MOL0     C54702   9.887   7.183   9.179 -1.4166 -0.0027 -0.2643
  415MOL0     C54703   9.835   7.297   9.253 -0.1686  0.0454 -0.5519
  415MOL0     C54704   9.893   7.425   9.248  0.1017  0.6762  0.0174
  415MOL0     C54705   9.999   7.454   9.164 -0.7240 -0.3015  0.1294
  415MOL0     O54706  10.061   7.575   9.159  0.0900  0.5893 -0.0523
  415MOL0     C54707  10.075   7.651   9.277  0.9585 -0.0370 -0.0843
  415MOL0     C54708  10.219   7.703   9.274  0.6399  0.6519  0.3808
  415MOL0     C54709  10.314   7.594   9.302 -1.0555 -0.5713 -0.2586
  415MOL0     C54710  10.452   7.649   9.353 -0.1826  0.5885 -0.0701
  415MOL0     C54711  10.520   7.723   9.257 -0.3971 -1.0730  0.9654
  415MOL0     C54712  10.581   7.801   9.185 -0.1698 -0.1106  0.0908
  415MOL0     C54713  10.038   7.347   9.074  0.0873 -0.3168  0.4962
  415MOL0     C54714   9.978   7.215   9.080 -0.8941 -0.4860  0.7482
  415MOL0     H54715   9.683   6.819   9.191  1.0945  1.2727  1.3226
  415MOL0     H54716   9.650   6.575   9.151  0.8611 -1.3252  2.0845
  415MOL0     H54717   9.979   6.352   8.930 -0.0543  0.6551 -1.5582
  415MOL0     H54718   9.847   6.394   8.830  1.8620 -1.5231 -0.3585
  415MOL0     H54719   9.732   6.196   8.894 -0.7393 -4.0286  3.5090
  415MOL0     H54720   9.816   6.191   9.040  3.5709  0.7029  0.5048
  415MOL0     H54721  10.018   6.118   8.879  1.5746  2.1831 -4.1414
  415MOL0     H54722   9.924   6.160   8.746  1.1061 -0.7739 -0.1280
  415MOL0     H54723   9.864   5.928   8.935 -0.9873  1.0289  0.1900
  415MOL0     H54724   9.737   5.982   8.842 -0.9858 -0.6255 -0.9982
  415MOL0     H54725   9.994   5.914   8.700  0.2838  0.4324  0.6980
  415MOL0     H54726   9.836   5.903   8.624  0.7454  0.0480  0.4330
  415MOL0     H54727   9.766   5.724   8.766 -0.4534 -2.5563 -4.5424
  415MOL0     H54728   9.930   5.720   8.842  0.8598  0.1928 -0.0128
  415MOL0     H54729   9.888   5.552   8.670 -5.4786  1.4371  0.2491
  415MOL0     H54730   9.847   5.666   8.541 -0.5220 -0.8930 -0.5751
  415MOL0     H54731  10.121   5.694   8.666 -1.0338 -1.3439  1.6635
  415MOL0     H54732  10.065   5.748   8.518  0.5617 -0.4166  0.5630
  415MOL0     H54733   9.953   5.400   8.481  1.3775 -1.7793 -0.4433
  415MOL0     H54734  10.052   5.152   8.389  0.2916 -0.4732 -2.6379
  415MOL0     H54735  10.206   5.135   8.444 -0.9757 -0.5932  1.0026
  415MOL0     H54736  10.266   5.088   8.233  1.4748  1.0113  0.4475
  415MOL0     H54737  10.256   5.266   8.213 -0.3037 -0.5258 -0.6690
  415MOL0     H54738   9.993   5.112   8.155  0.1116 -1.2821 -1.4316
  415MOL0     H54739  10.042   5.281   8.139 -2.3307 -0.8345 -2.1821
  415MOL0     H54740  10.170   5.048   7.989  2.1768  0.7793 -0.1650
  415MOL0     H54741  10.200   5.218   7.945 -1.1604 -0.3956 -2.6072
  415MOL0     H54742   9.740   5.123   7.959  0.1888 -0.6606 -0.8134
  415MOL0     H54743   9.596   5.311   7.979  0.1427  0.8345  0.2175
  415MOL0     H54744   9.740   5.910   8.032  0.6644  2.8700  1.7259
  415MOL0     H54745   9.607   6.115   8.033  0.4322  1.0140 -0.7155
  415MOL0     H54746   9.204   6.149   7.850  1.3930 -1.7811  0.3873
  415MOL0     H54747   9.295   6.163   7.697  0.1907 -4.7466  1.6267
  415MOL0     H54748   9.340   6.410   7.793 -1.2797  0.4200 -1.7278
  415MOL0     H54749   9.226   6.371   7.911  0.1654 -0.4285 -0.9031
  415MOL0     H54750   9.168   6.360   7.612 -1.3067  1.0821 -1.4954
  415MOL0     H54751   9.128   6.500   7.695  1.9473  0.2492  0.5314
  415MOL0     H54752   9.001   6.231   7.771  2.8364 -0.7247 -1.8436
  415MOL0     H54753   8.941   6.379   7.822  1.3893 -0.3569  1.4025
  415MOL0     H54754   8.940   6.294   7.532  0.8087 -1.0024  1.0145
  415MOL0     H54755   8.911   6.456   7.591 -0.5997 -0.1124  1.3478
  415MOL0     H54756   8.709   6.348   7.728 -2.0831  0.7255 -0.5788
  415MOL0     H54757   8.743   6.194   7.639 -2.2759 -0.5246  0.3551
  415MOL0     H54758   8.706   6.426   7.463 -0.8287  1.6036  0.8879
  415MOL0     H54759   8.634   6.266   7.459  0.9295 -0.4504  1.7872
  415MOL0     H54760   8.482   6.337   7.637 -2.1726  0.4537 -0.7620
  415MOL0     H54761   8.467   6.424   7.482  1.4784  1.5654 -0.1477
  415MOL0     H54762   9.351   5.937   7.724  0.8870 -0.1962 -1.0893
  415MOL0     H54763   9.489   5.737   7.736 -0.7463 -1.3503  2.8812
  415MOL0     H54764   9.912   5.588   7.884 -2.0727 -0.2844 -0.0738
  415MOL0     H54765  10.066   5.387   7.860  0.5019 -1.9126  3.1211
  415MOL0     H54766  10.034   6.557   8.985  1.5400 -0.1553  3.2370
  415MOL0     H54767  10.083   6.794   9.052  0.9835 -1.2293 -2.9980
  415MOL0     H54768   9.742   7.277   9.305 -1.8252 -0.0866 -3.3529
  415MOL0     H54769   9.849   7.498   9.316 -0.5090  0.1426  0.2030
  415MOL0     H54770  10.053   7.590   9.365  0.7650  0.3236  0.1161
  415MOL0     H54771  10.014   7.741   9.266 -1.5214 -1.2915  2.2444
  415MOL0     H54772  10.235   7.754   9.178 -0.1406  3.2007  1.5491
  415MOL0     H54773  10.217   7.778   9.353  2.9881  2.5923 -1.2572
  415MOL0     H54774  10.331   7.533   9.212 -4.3762 -1.2632 -0.5728
  415MOL0     H54775  10.275   7.521   9.373  1.9373 -0.7750  1.3263
  415MOL0     H54776  10.442   7.725   9.432 -0.7793 -0.9075  1.3640
  415MOL0     H54777  10.492   7.562   9.405 -1.3206  0.4485  0.6042
  415MOL0     H54778  10.635   7.869   9.123 -0.4828  0.7467  0.7305
  415MOL0     H54779  10.094   7.366   8.984  1.3584 -1.9024  0.9147
  415MOL0     H54780  10.013   7.139   9.011  2.1079  0.6793  0.8141
  416MOL0     O54781   6.231   9.168   2.006 -1.4745  0.3985 -0.5446
  416MOL0     C54782   6.287   9.274   2.042  0.5816 -0.1291  0.4216
  416MOL0     O54783   6.325   9.316   2.169  0.4074  0.1301 -0.6406
  416MOL0     C54784   6.278   9.250   2.277  0.7167 -0.0638  1.3625
  416MOL0     C54785   6.366   9.212   2.376 -0.2111  0.0877 -0.4809
  416MOL0     C54786   6.330   9.128   2.477 -0.5490  0.4248 -1.3724
  416MOL0     C54787   6.206   9.072   2.466 -0.2335 -0.2584 -1.2343
  416MOL0     O54788   6.145   8.999   2.563  0.1218  0.1183 -0.4142
  416MOL0     C54789   6.223   8.952   2.682 -1.5449 -0.4867  0.9600
  416MOL0     C54790   6.127   8.918   2.803  0.6684  0.6278 -0.3478
  416MOL0     C54791   6.193   8.845   2.914  0.1509  0.4370  0.0646
  416MOL0     C54792   6.100   8.842   3.041  0.0293  0.0289 -0.5767
  416MOL0     C54793   6.147   8.714   3.111  0.0231  0.1134 -0.4112
  416MOL0     C54794   6.063   8.693   3.236 -0.1256 -1.2626  1.1211
  416MOL0     C54795   6.132   8.787   3.349  0.2886 -0.4761  0.0791
  416MOL0     C54796   6.118   8.704   3.478  0.0233  0.1741  0.7227
  416MOL0     N54797   5.984   8.690   3.530 -0.7673 -0.7211 -0.4296
  416MOL0     C54798   5.902   8.577   3.519  0.1958  0.3729 -0.3230
  416MOL0     C54799   5.824   8.573   3.622 -0.1785 -1.2270  0.0078
  416MOL0     C54800   5.711   8.495   3.667  0.3388  0.9226 -0.0453
  416MOL0     C54801   5.701   8.376   3.571  1.1078 -0.2003 -0.2981
  416MOL0     C54802   5.574   8.296   3.592 -0.7888 -0.1245 -0.0356
  416MOL0     C54803   5.576   8.184   3.495  0.5402 -0.3294 -0.6876
  416MOL0     O54804   5.642   8.073   3.558  0.5302 -0.3088 -0.4576
  416MOL0     C54805   5.571   7.973   3.615 -0.9067  0.3785 -0.1142
  416MOL0     C54806   5.436   7.967   3.634 -0.1282 -0.3072 -0.3274
  416MOL0     C54807   5.368   7.862   3.687  0.1205  0.0662 -0.5240
  416MOL0     C54808   5.441   7.751   3.723 -0.6841 -0.0167 -0.3818
  416MOL0     C54809   5.382   7.622   3.778 -0.6891  0.8653  0.2331
  416MOL0     O54810   5.473   7.541   3.831  0.3479 -0.1952  0.5609
  416MOL0     C54811   5.449   7.426   3.904 -0.2444  0.4548  0.8802
  416MOL0     C54812   5.559   7.334   3.911  0.2386 -0.6018 -1.1310
  416MOL0     C54813   5.543   7.207   3.981 -0.6571 -0.1786  1.5997
  416MOL0     C54814   5.416   7.168   4.025  0.6157 -1.1350 -0.3988
  416MOL0     O54815   5.399   7.036   4.068 -0.0546 -0.4672 -0.7113
  416MOL0     C54816   5.265   6.991   4.103 -0.7712 -0.5530  0.4475
  416MOL0     C54817   5.270   6.851   4.178 -1.3983 -0.0868  0.9155
  416MOL0     C54818   5.310   6.739   4.080  0.5376 -1.2200  0.4632
  416MOL0     C54819   5.292   6.599   4.142  0.3197  0.1761  0.0843
  416MOL0     C54820   5.281   6.482   4.043 -0.5854 -1.1713  0.4027
  416MOL0     C54821   5.391   6.463   3.948 -0.5716 -0.2861  0.4493
  416MOL0     C54822   5.530   6.452   4.027 -0.0711 -0.3204  0.4567
  416MOL0     C54823   5.634   6.395   3.928 -1.1095  0.3147 -0.4146
  416MOL0    Cl54824   5.624   6.216   3.962  0.0539  0.1239 -0.5243
  416MOL0     C54825   5.312   7.264   4.022  0.0377 -0.4988 -0.7934
  416MOL0     C54826   5.333   7.388   3.961 -0.2629  0.6233  1.1422
  416MOL0     O54827   5.256   7.603   3.769 -1.1004  0.1103  0.4804
  416MOL0     C54828   5.583   7.753   3.715  0.0552 -0.5858 -0.0553
  416MOL0     C54829   5.644   7.868   3.667 -0.6716  0.4264  0.0005
  416MOL0     N54830   5.863   8.671   3.706  0.1185 -0.3226  0.8170
  416MOL0     N54831   5.953   8.746   3.650 -0.3420  0.1715 -0.3707
  416MOL0     C54832   6.115   9.108   2.375 -0.4186 -0.3679 -0.3468
  416MOL0     C54833   6.145   9.206   2.284 -0.7754  0.3111 -0.1093
  416MOL0     C54834   6.284   9.375   1.940  0.3313  0.0639 -0.3495
  416MOL0     C54835   6.246   9.344   1.814  0.7775 -0.2205  0.4131
  416MOL0     C54836   6.228   9.442   1.715 -1.1103 -0.7317 -0.6643
  416MOL0     C54837   6.241   9.576   1.747  0.0503  1.1506  0.0449
  416MOL0     O54838   6.227   9.671   1.652  0.1102  0.1474  0.4690
  416MOL0     C54839   6.171   9.796   1.689 -0.6986  0.1006 -0.5101
  416MOL0     C54840   6.109   9.852   1.560  0.3067  0.1799 -0.7683
  416MOL0     C54841   6.030   9.980   1.566 -0.2521  0.4668 -0.0672
  416MOL0     C54842   6.106  10.094   1.637  1.1929 -0.5581  0.2490
  416MOL0     C54843   6.016  10.214   1.623  0.4379  0.6602  0.0344
  416MOL0     C54844   5.947  10.310   1.608  0.2790 -1.1408  0.4568
  416MOL0     C54845   6.279   9.605   1.875 -1.2047  0.6153 -0.3337
  416MOL0     C54846   6.311   9.511   1.972  0.0794  0.3112 -0.2198
  416MOL0     H54847   6.471   9.237   2.363 -0.4298  0.3927 -1.7938
  416MOL0     H54848   6.400   9.100   2.554 -2.1624  0.9891  0.3799
  416MOL0     H54849   6.282   9.032   2.729 -0.1555 -0.3081 -0.9650
  416MOL0     H54850   6.281   8.865   2.653 -1.0571 -0.3787  1.5892
  416MOL0     H54851   6.054   8.846   2.766 -0.8639  0.3738  2.8704
  416MOL0     H54852   6.070   9.000   2.848  2.0106 -0.2155  3.2077
  416MOL0     H54853   6.285   8.899   2.936  2.1486 -3.0072  0.9109
  416MOL0     H54854   6.222   8.746   2.878 -2.2968  0.7893 -3.4829
  416MOL0     H54855   6.114   8.933   3.100  0.7066  0.3501 -1.2201
  416MOL0     H54856   5.999   8.846   3.000 -0.2982  0.5851  0.2694
  416MOL0     H54857   6.255   8.703   3.122 -0.3977 -2.7928  2.2925
  416MOL0     H54858   6.124   8.634   3.039 -1.5141  2.6807 -2.9752
  416MOL0     H54859   6.087   8.589   3.259  2.5109 -1.2428 -1.0792
  416MOL0     H54860   5.957   8.711   3.216  0.6515  1.6721 -1.0530
  416MOL0     H54861   6.239   8.805   3.334  1.6583 -6.5298 -0.2375
  416MOL0     H54862   6.073   8.877   3.366  1.0358 -0.0417  0.4372
  416MOL0     H54863   6.171   8.755   3.560 -1.1011  0.8764  1.0361
  416MOL0     H54864   6.154   8.601   3.466  2.1449  0.9082  0.2729
  416MOL0     H54865   5.890   8.495   3.450 -2.8801 -0.0702  0.5534
  416MOL0     H54866   5.632   8.568   3.643  0.4238  1.1740  0.4249
  416MOL0     H54867   5.704   8.471   3.773  3.0899 -0.5271 -0.1095
  416MOL0     H54868   5.784   8.307   3.591 -0.1422 -1.2553  1.5836
  416MOL0     H54869   5.703   8.408   3.467 -0.2024  3.7613  0.7085
  416MOL0     H54870   5.570   8.256   3.693  1.3015  0.5852  0.3682
  416MOL0     H54871   5.494   8.367   3.571  0.2609  0.5823 -1.9299
  416MOL0     H54872   5.623   8.206   3.399  2.6170 -0.1500  0.3146
  416MOL0     H54873   5.473   8.165   3.463 -0.2748  1.4892  0.6648
  416MOL0     H54874   5.373   8.053   3.613 -0.4093  0.1110  1.9324
  416MOL0     H54875   5.260   7.870   3.691 -0.0923 -0.3926 -3.3414
  416MOL0     H54876   5.652   7.377   3.875 -1.0320  3.6285  0.1303
  416MOL0     H54877   5.620   7.133   3.998 -2.4468 -2.2304  1.2140
  416MOL0     H54878   5.190   6.993   4.024 -1.1208 -1.9091  0.7257
  416MOL0     H54879   5.228   7.055   4.184 -0.0330 -0.8234  1.0208
  416MOL0     H54880   5.172   6.829   4.220 -2.6248  0.9086 -1.2736
  416MOL0     H54881   5.337   6.856   4.265 -3.5370 -1.2760  2.7365
  416MOL0     H54882   5.406   6.758   4.032 -0.2633 -0.1624 -0.7646
  416MOL0     H54883   5.246   6.748   3.992  1.1296 -2.2467 -0.0961
  416MOL0     H54884   5.378   6.590   4.209 -0.0590  1.4809  0.7755
  416MOL0     H54885   5.203   6.608   4.205  0.6547 -0.0422  0.5973
  416MOL0     H54886   5.189   6.489   3.984 -0.7785 -3.2324  0.3977
  416MOL0     H54887   5.284   6.388   4.099  0.9304 -1.3147  0.1299
  416MOL0     H54888   5.402   6.547   3.879  2.0804  0.6392  1.8676
  416MOL0     H54889   5.384   6.374   3.884  2.5380 -1.8917  2.0801
  416MOL0     H54890   5.557   6.555   4.053 -2.9101  0.3446  1.0957
  416MOL0     H54891   5.523   6.402   4.124 -1.9159  4.1731  2.9539
  416MOL0     H54892   5.738   6.419   3.950  0.4596 -3.9942 -2.1025
  416MOL0     H54893   5.610   6.422   3.825 -2.8430  0.5035  0.0074
  416MOL0     H54894   5.214   7.231   4.056 -0.4316 -1.0543 -2.5710
  416MOL0     H54895   5.251   7.459   3.965 -0.4649  0.4010  0.9653
  416MOL0     H54896   5.638   7.663   3.740  1.5276  0.3947  0.3424
  416MOL0     H54897   5.750   7.856   3.648 -0.9453 -2.0953 -0.2163
  416MOL0     H54898   6.029   9.043   2.372  0.6219 -1.7426 -1.6272
  416MOL0     H54899   6.075   9.238   2.207  2.9656  1.3989 -3.3942
  416MOL0     H54900   6.224   9.240   1.791  0.9121 -0.1708  0.0445
  416MOL0     H54901   6.197   9.425   1.612 -0.4111 -0.4136 -0.9325
  416MOL0     H54902   6.254   9.858   1.722 -1.6299  1.5378 -0.7864
  416MOL0     H54903   6.102   9.773   1.771  0.4134 -3.3099 -0.3791
  416MOL0     H54904   6.186   9.853   1.482  1.5465  1.0692  0.4255
  416MOL0     H54905   6.027   9.788   1.525 -0.9766  2.6528 -2.6266
  416MOL0     H54906   5.942   9.968   1.630  0.7157  1.8415  1.6241
  416MOL0     H54907   5.998  10.011   1.467  2.9833  0.9695 -1.0487
  416MOL0     H54908   6.137  10.069   1.739  0.1477 -1.3197  0.3968
  416MOL0     H54909   6.198  10.106   1.579 -1.1908  2.6841 -3.3785
  416MOL0     H54910   5.887  10.395   1.583 -0.5399 -0.4507  4.1826
  416MOL0     H54911   6.301   9.706   1.908 -0.5461  0.2462  0.3836
  416MOL0     H54912   6.361   9.536   2.065  1.0060 -3.4202  0.4533
  417MOL0     O54913   2.137   2.915   4.899  0.5385 -0.9832 -0.7587
  417MOL0     C54914   2.181   2.941   4.781 -0.1930 -0.8658 -1.7817
  417MOL0     O54915   2.102   2.983   4.683 -0.2953  0.4078  0.6229
  417MOL0     C54916   1.970   2.994   4.689 -0.0504 -0.3315 -0.0278
  417MOL0     C54917   1.911   3.104   4.627 -0.0702  1.0202  0.3913
  417MOL0     C54918   1.773   3.126   4.636  0.1509  0.3806 -0.1312
  417MOL0     C54919   1.684   3.040   4.701  0.2180  0.5744 -0.5418
  417MOL0     O54920   1.553   3.072   4.708  1.1228  0.3461  0.8058
  417MOL0     C54921   1.479   3.005   4.806  0.6097  0.7276  0.0693
  417MOL0     C54922   1.333   3.046   4.806  0.1693  0.0530 -0.5749
  417MOL0     C54923   1.288   3.179   4.869 -0.1140  0.8284  0.1885
  417MOL0     C54924   1.136   3.189   4.868 -1.0571  0.7447 -0.0540
  417MOL0     C54925   1.077   3.324   4.886 -0.1362 -0.0620  0.8320
  417MOL0     C54926   0.926   3.330   4.900  0.3735  0.4747  0.1558
  417MOL0     C54927   0.875   3.472   4.914 -0.3415 -0.4830 -0.9611
  417MOL0     C54928   0.920   3.584   4.812  0.1099  0.3613  0.7325
  417MOL0     N54929   0.895   3.541   4.672  0.1296  0.2903  0.9383
  417MOL0     C54930   0.974   3.506   4.555 -0.4668 -0.1894 -0.7203
  417MOL0     C54931   0.893   3.527   4.447  0.1195  0.7487  0.7701
  417MOL0     C54932   0.926   3.529   4.297 -0.3025 -0.1654  0.2386
  417MOL0     C54933   1.017   3.645   4.266 -0.2521 -0.0198  0.6032
  417MOL0     C54934   0.966   3.729   4.137 -0.3119 -0.1762  0.3578
  417MOL0     C54935   1.043   3.860   4.117 -0.0036  0.5828 -0.1452
  417MOL0     O54936   1.190   3.836   4.115  0.7898  0.2536  0.1143
  417MOL0     C54937   1.281   3.930   4.069 -0.0035 -0.3366  0.6913
  417MOL0     C54938   1.404   3.881   4.025  0.1866 -1.3391 -0.5383
  417MOL0     C54939   1.498   3.967   3.952 -0.2282 -0.0661 -0.3705
  417MOL0     C54940   1.465   4.097   3.939 -0.1157 -0.2434  0.2896
  417MOL0     C54941   1.551   4.178   3.854 -0.4476 -0.1641  1.5339
  417MOL0     O54942   1.500   4.304   3.821  0.0527  0.2988  0.5130
  417MOL0     C54943   1.593   4.389   3.763  0.1542 -0.5420 -0.6731
  417MOL0     C54944   1.579   4.409   3.624 -0.5904  0.5268  0.4186
  417MOL0     C54945   1.669   4.495   3.567 -0.6400  0.5043 -0.2711
  417MOL0     C54946   1.769   4.577   3.637  0.2169 -0.1126  0.3242
  417MOL0     O54947   1.849   4.663   3.565  0.1392  0.0978  0.2155
  417MOL0     C54948   1.982   4.680   3.613 -0.4158  0.5786 -0.3390
  417MOL0     C54949   2.061   4.766   3.514 -0.3338  0.2093  0.3894
  417MOL0     C54950   2.181   4.835   3.575  0.0785 -1.0479  0.3064
  417MOL0     C54951   2.286   4.897   3.467  0.6662 -0.6114  0.7111
  417MOL0     C54952   2.293   5.051   3.474 -0.4886  0.0590 -0.1060
  417MOL0     C54953   2.166   5.105   3.401 -0.2936  0.2016  0.0379
  417MOL0     C54954   2.155   5.255   3.400 -0.1229  0.0214 -0.1564
  417MOL0     C54955   2.284   5.332   3.354  0.8162  0.2147 -0.3101
  417MOL0    Cl54956   2.334   5.299   3.187  0.0091  0.2307  0.0388
  417MOL0     C54957   1.766   4.574   3.771  0.2767  0.6332 -0.8476
  417MOL0     C54958   1.676   4.475   3.836  0.1921 -0.8392 -0.6604
  417MOL0     O54959   1.661   4.137   3.809  1.3500 -0.0207 -0.7192
  417MOL0     C54960   1.346   4.150   3.987 -0.6224 -0.2122 -0.2338
  417MOL0     C54961   1.260   4.065   4.054  0.9831 -0.5752 -0.7217
  417MOL0     N54962   0.765   3.567   4.492  0.2782 -0.5648  0.2404
  417MOL0     N54963   0.770   3.563   4.621  0.2124  0.3503  0.7224
  417MOL0     C54964   1.745   2.925   4.752  0.1175  0.7262 -0.0516
  417MOL0     C54965   1.888   2.900   4.746  0.1028  1.1671 -0.9238
  417MOL0     C54966   2.321   2.920   4.760 -0.3796 -0.4780 -0.4100
  417MOL0     C54967   2.388   2.829   4.835 -1.2829 -0.1868  0.7585
  417MOL0     C54968   2.519   2.796   4.806 -1.1000  0.1380  0.0665
  417MOL0     C54969   2.589   2.871   4.709 -0.1948  0.5970  0.9288
  417MOL0     O54970   2.723   2.845   4.676  0.0600  0.3979  0.3377
  417MOL0     C54971   2.806   2.929   4.600 -0.4539 -0.9604 -0.3815
  417MOL0     C54972   2.926   2.839   4.545 -0.0980 -0.1990 -0.5758
  417MOL0     C54973   3.027   2.789   4.644 -0.1059  0.1072 -0.4584
  417MOL0     C54974   2.987   2.697   4.756 -0.9360 -0.0313 -1.3129
  417MOL0     C54975   2.918   2.583   4.708 -1.2661 -0.4147  0.6124
  417MOL0     C54976   2.852   2.488   4.681  0.0381  0.1159 -0.0121
  417MOL0     C54977   2.518   2.974   4.638 -0.0723  0.7784  0.2153
  417MOL0     C54978   2.385   3.001   4.661 -0.3757  0.2447 -0.2678
  417MOL0     H54979   1.976   3.180   4.585  0.7766 -0.6485 -1.4939
  417MOL0     H54980   1.718   3.209   4.591 -1.8808 -0.0547  1.3660
  417MOL0     H54981   1.515   3.019   4.908 -1.7670  2.2069  0.7999
  417MOL0     H54982   1.480   2.902   4.767 -2.9247  1.5851 -2.8959
  417MOL0     H54983   1.277   2.966   4.854 -0.2385 -1.4440 -3.3131
  417MOL0     H54984   1.292   3.030   4.705 -1.0295 -1.0908  0.0683
  417MOL0     H54985   1.325   3.258   4.804  2.7565  0.9633  1.8404
  417MOL0     H54986   1.324   3.192   4.971 -0.9368 -0.9061  0.7494
  417MOL0     H54987   1.094   3.152   4.774 -1.4917  1.2548 -0.0640
  417MOL0     H54988   1.084   3.126   4.941  0.2528  0.4435  0.6549
  417MOL0     H54989   1.110   3.376   4.796  0.0899  1.0809  1.5433
  417MOL0     H54990   1.132   3.380   4.963  3.7026  1.7707 -2.8777
  417MOL0     H54991   0.891   3.265   4.981 -0.9464  0.2268 -0.5948
  417MOL0     H54992   0.892   3.287   4.805  0.7755  2.7418 -1.0682
  417MOL0     H54993   0.766   3.470   4.920 -0.4318  2.7433  3.7618
  417MOL0     H54994   0.920   3.501   5.009  0.8545 -0.3378 -1.5584
  417MOL0     H54995   1.023   3.620   4.813  0.4407 -0.4913 -0.2535
  417MOL0     H54996   0.853   3.665   4.840 -0.7720  0.2745 -1.0009
  417MOL0     H54997   1.080   3.485   4.561  0.0109  1.1608 -3.1571
  417MOL0     H54998   0.832   3.543   4.243  1.0111  0.9398 -1.8971
  417MOL0     H54999   0.970   3.434   4.265  1.7688  0.1350  1.9541
  417MOL0     H55000   1.120   3.609   4.254 -0.2025 -0.7534  2.8161
  417MOL0     H55001   1.037   3.710   4.351  2.5719 -0.5011  0.4006
  417MOL0     H55002   0.987   3.672   4.046 -1.9621 -0.9980  0.4563
  417MOL0     H55003   0.864   3.766   4.151  0.7582  3.1346  0.3665
  417MOL0     H55004   1.014   3.932   4.194 -0.4194  0.4555 -0.1765
  417MOL0     H55005   1.020   3.894   4.015  2.8056  2.5228 -0.2364
  417MOL0     H55006   1.421   3.774   4.031  2.9730 -1.0119 -1.1631
  417MOL0     H55007   1.580   3.926   3.895 -1.8523 -1.0967 -2.0796
  417MOL0     H55008   1.512   4.343   3.570 -0.9631  1.4758 -0.3324
  417MOL0     H55009   1.669   4.512   3.459 -2.3790 -0.1896 -0.4078
  417MOL0     H55010   2.033   4.585   3.627 -2.7624 -0.8310 -0.8446
  417MOL0     H55011   1.968   4.734   3.707  1.1373  1.0640 -0.3614
  417MOL0     H55012   1.996   4.845   3.477  3.0342  1.9064 -2.4066
  417MOL0     H55013   2.089   4.700   3.431 -0.8519  0.8991 -0.3459
  417MOL0     H55014   2.229   4.768   3.647 -0.6049  0.9318  2.7624
  417MOL0     H55015   2.146   4.910   3.646 -1.9337 -0.2664 -1.4161
  417MOL0     H55016   2.385   4.862   3.498  0.8171 -0.8615 -0.0376
  417MOL0     H55017   2.253   4.855   3.371 -0.1774 -1.0197  1.1702
  417MOL0     H55018   2.384   5.095   3.433 -0.7701  3.0240  2.1425
  417MOL0     H55019   2.297   5.081   3.579 -1.5546  1.4162 -0.4314
  417MOL0     H55020   2.072   5.067   3.442  0.5829 -1.6906  0.4271
  417MOL0     H55021   2.186   5.057   3.305 -0.8540 -1.3720  0.6738
  417MOL0     H55022   2.076   5.281   3.329  1.7588  0.1301 -2.3106
  417MOL0     H55023   2.129   5.284   3.503  2.0184  0.8664  0.1994
  417MOL0     H55024   2.365   5.311   3.425 -0.3154 -0.2188  0.8948
  417MOL0     H55025   2.265   5.438   3.376  0.4135  0.0142  0.3053
  417MOL0     H55026   1.829   4.642   3.828 -2.5419  2.5020  0.3015
  417MOL0     H55027   1.664   4.465   3.944 -0.9533  0.4190 -0.6477
  417MOL0     H55028   1.325   4.256   3.981  4.3849  1.0829  0.5948
  417MOL0     H55029   1.173   4.107   4.104  1.5287  0.7115 -0.8091
  417MOL0     H55030   1.688   2.851   4.807 -1.0833 -1.1406 -3.5540
  417MOL0     H55031   1.931   2.804   4.770 -1.6849 -0.0732 -2.4086
  417MOL0     H55032   2.333   2.772   4.910  0.2816 -2.2109  0.4239
  417MOL0     H55033   2.573   2.720   4.861  0.6508  1.9466  0.9998
  417MOL0     H55034   2.847   3.010   4.660  2.5288 -2.4689 -0.2046
  417MOL0     H55035   2.756   2.970   4.512  1.3069  0.2826 -0.8495
  417MOL0     H55036   2.899   2.751   4.487 -1.1565  0.2907 -0.8641
  417MOL0     H55037   2.974   2.902   4.469  1.7946 -2.6473 -1.5271
  417MOL0     H55038   3.084   2.866   4.695 -1.8742  0.0273  1.8005
  417MOL0     H55039   3.105   2.732   4.594  0.2682  2.4209 -2.7239
  417MOL0     H55040   3.066   2.667   4.825  1.1469  1.4478 -2.9374
  417MOL0     H55041   2.921   2.749   4.826 -1.3357 -3.0948  0.7797
  417MOL0     H55042   2.781   2.413   4.653  2.8308 -1.5736 -3.4640
  417MOL0     H55043   2.563   3.032   4.559  1.3120 -1.7687 -0.9940
  417MOL0     H55044   2.331   3.076   4.604  3.2904  2.7188 -0.7988
  418MOL0     O55045  10.533   6.077   1.413 -0.8884  0.1013  0.3134
  418MOL0     C55046  10.429   6.136   1.405  0.4577  0.1220  0.2067
  418MOL0     O55047  10.313   6.098   1.474 -0.2595 -0.9203 -0.0502
  418MOL0     C55048  10.331   5.994   1.555 -0.2324 -0.3359  0.3180
  418MOL0     C55049  10.275   5.877   1.500 -0.1842 -0.1010  0.0727
  418MOL0     C55050  10.266   5.764   1.584 -0.2752 -0.1260  0.1795
  418MOL0     C55051  10.307   5.771   1.715  0.1923  0.4067 -0.7282
  418MOL0     O55052  10.336   5.654   1.799  0.2447 -0.6659  0.0867
  418MOL0     C55053  10.228   5.560   1.796 -0.2697 -0.7634  0.5811
  418MOL0     C55054  10.260   5.457   1.893 -0.1803 -0.0230  0.6489
  418MOL0     C55055  10.255   5.520   2.033  0.2951  0.3193 -0.3202
  418MOL0     C55056  10.313   5.437   2.147 -1.9543 -1.1579 -0.4116
  418MOL0     C55057  10.292   5.518   2.280  0.0686 -0.9807 -0.3157
  418MOL0     C55058  10.307   5.444   2.411  0.9726  0.2490  1.2334
  418MOL0     C55059  10.458   5.446   2.432 -0.8501  0.3591 -0.4985
  418MOL0     C55060  10.508   5.393   2.563  1.3488  0.5821 -0.1808
  418MOL0     N55061  10.460   5.254   2.583  0.0278 -0.8858 -0.3643
  418MOL0     C55062  10.333   5.222   2.641 -0.6446 -0.9233  0.5254
  418MOL0     C55063  10.333   5.086   2.622 -0.4933 -1.4971  0.0234
  418MOL0     C55064  10.213   5.004   2.648 -0.2550 -0.0622  0.6387
  418MOL0     C55065  10.095   5.049   2.543 -0.1703 -1.1558 -0.5381
  418MOL0     C55066   9.954   5.015   2.589  0.1218  0.2191 -0.0571
  418MOL0     C55067   9.937   4.860   2.582  0.1654 -0.2942  0.4008
  418MOL0     O55068   9.799   4.827   2.603  0.2189 -0.0407 -0.3734
  418MOL0     C55069   9.769   4.692   2.628 -0.6053  0.4629 -0.0551
  418MOL0     C55070   9.646   4.675   2.699 -0.7109  0.2052  0.0481
  418MOL0     C55071   9.598   4.549   2.727 -0.0022  0.1071 -0.0946
  418MOL0     C55072   9.681   4.441   2.685  1.3720 -0.0118 -0.6338
  418MOL0     C55073   9.635   4.304   2.719  0.0113 -0.2340 -0.2894
  418MOL0     O55074   9.543   4.310   2.816  0.1763 -0.4739 -0.3309
  418MOL0     C55075   9.503   4.209   2.893 -0.4257  0.4296 -0.3865
  418MOL0     C55076   9.516   4.071   2.848 -0.2430 -0.1023 -0.8368
  418MOL0     C55077   9.466   3.975   2.945  0.2740  0.1208 -0.4902
  418MOL0     C55078   9.384   4.014   3.056  0.1745  1.1581  0.5506
  418MOL0     O55079   9.316   3.907   3.119  0.3953 -0.0824 -0.0335
  418MOL0     C55080   9.284   3.927   3.253  0.2350 -0.4398  0.2055
  418MOL0     C55081   9.322   3.808   3.329 -0.2545 -0.1223  0.2451
  418MOL0     C55082   9.214   3.703   3.328  0.1662  0.0528 -0.1342
  418MOL0     C55083   9.270   3.581   3.394  1.0409  0.8480 -0.3458
  418MOL0     C55084   9.170   3.459   3.383 -0.2672 -0.5518 -0.4586
  418MOL0     C55085   9.090   3.438   3.254  0.1523 -0.2998 -0.0728
  418MOL0     C55086   9.045   3.291   3.268  0.4910  0.3288  0.0855
  418MOL0     C55087   8.919   3.256   3.189  0.0646  0.1153  0.2272
  418MOL0    Cl55088   8.886   3.078   3.219 -0.4360 -0.0225 -0.0536
  418MOL0     C55089   9.372   4.147   3.083 -0.6640 -0.4832  0.4867
  418MOL0     C55090   9.436   4.253   3.008 -0.0078 -0.2076 -0.1058
  418MOL0     O55091   9.687   4.210   2.659 -0.2634  0.7252 -0.2528
  418MOL0     C55092   9.804   4.458   2.625 -1.4474 -0.3267 -0.1960
  418MOL0     C55093   9.848   4.585   2.590  0.0345  0.5105  0.0950
  418MOL0     N55094  10.434   5.045   2.550  0.1779  0.4953 -0.0464
  418MOL0     N55095  10.515   5.145   2.532 -0.1608  0.0426  1.2485
  418MOL0     C55096  10.360   5.890   1.761 -0.9314  0.7121  0.4225
  418MOL0     C55097  10.375   6.000   1.682 -0.8996 -0.1812  0.4123
  418MOL0     C55098  10.397   6.238   1.308 -0.6666  1.2174  0.3827
  418MOL0     C55099  10.492   6.261   1.199  0.8442  0.8052 -0.4079
  418MOL0     C55100  10.477   6.358   1.097 -0.1510  0.0245  0.3782
  418MOL0     C55101  10.355   6.437   1.101  0.2288 -0.1321 -0.0401
  418MOL0     O55102  10.351   6.527   1.000 -0.8073 -0.3814  0.5949
  418MOL0     C55103  10.237   6.618   0.997 -0.0151  0.0378 -0.0812
  418MOL0     C55104  10.264   6.729   1.093  0.1994  0.0927  0.4546
  418MOL0     C55105  10.346   6.834   1.031 -0.6349 -0.8660  0.8734
  418MOL0     C55106  10.502   6.833   1.055 -0.2220  0.4653 -0.0668
  418MOL0     C55107  10.559   6.883   1.187 -0.9264  0.4633  1.2354
  418MOL0     C55108  10.597   6.942   1.285  0.0779  0.1690 -0.4252
  418MOL0     C55109  10.269   6.423   1.208 -0.5983 -0.4885 -0.3196
  418MOL0     C55110  10.284   6.322   1.306  0.1442 -0.2661  0.4735
  418MOL0     H55111  10.234   5.881   1.400  1.9768 -2.8261 -1.0591
  418MOL0     H55112  10.234   5.668   1.545 -3.3714  1.4745 -1.5848
  418MOL0     H55113  10.226   5.511   1.698  1.0930  2.9976 -1.5353
  418MOL0     H55114  10.136   5.616   1.814 -0.3208  0.9116 -3.7785
  418MOL0     H55115  10.358   5.411   1.877  0.1631  0.3586  1.5742
  418MOL0     H55116  10.182   5.380   1.890 -0.0408 -0.1510  0.2863
  418MOL0     H55117  10.149   5.540   2.050  0.4633  0.8413  0.1693
  418MOL0     H55118  10.293   5.623   2.030 -2.5409  1.4166 -2.5007
  418MOL0     H55119  10.275   5.334   2.148 -0.5196 -1.8103 -3.3446
  418MOL0     H55120  10.421   5.423   2.138 -1.2310  2.7796  0.2239
  418MOL0     H55121  10.184   5.540   2.278  0.1061 -0.8536 -1.6725
  418MOL0     H55122  10.354   5.608   2.280  1.1196 -1.5273 -4.4312
  418MOL0     H55123  10.263   5.344   2.399  2.3482 -0.3007  0.5324
  418MOL0     H55124  10.258   5.486   2.499 -2.8276  0.0817 -0.6088
  418MOL0     H55125  10.511   5.392   2.353 -2.0278 -0.4951 -0.7431
  418MOL0     H55126  10.510   5.542   2.426  2.6388 -1.4402 -1.1055
  418MOL0     H55127  10.463   5.458   2.638 -1.1559  1.9233 -2.6899
  418MOL0     H55128  10.617   5.395   2.563  1.5853 -3.2463 -1.6930
  418MOL0     H55129  10.253   5.280   2.685 -0.6821  0.9030 -1.7486
  418MOL0     H55130  10.181   5.023   2.751  0.1973  1.5530  0.5046
  418MOL0     H55131  10.240   4.898   2.645  1.7479  0.3998  1.2960
  418MOL0     H55132  10.110   4.998   2.448 -0.4150  0.0340 -1.2381
  418MOL0     H55133  10.089   5.155   2.517 -0.2117 -1.1683 -0.5795
  418MOL0     H55134   9.940   5.058   2.688  1.4305  1.7027 -0.4795
  418MOL0     H55135   9.891   5.073   2.520  1.4177  2.9895  0.9541
  418MOL0     H55136  10.003   4.804   2.650  2.3515  0.5809 -0.8743
  418MOL0     H55137   9.966   4.825   2.482  0.0977 -3.1536  1.2758
  418MOL0     H55138   9.597   4.768   2.724 -4.1780 -1.9169  1.8145
  418MOL0     H55139   9.507   4.541   2.786 -0.8642 -2.2137 -1.5587
  418MOL0     H55140   9.540   4.044   2.746 -1.2754 -0.5880 -0.9559
  418MOL0     H55141   9.481   3.870   2.925 -0.3871  0.1682 -1.2598
  418MOL0     H55142   9.180   3.960   3.245  0.1184 -0.7129  0.5729
  418MOL0     H55143   9.356   4.000   3.292  0.4023 -0.4772 -0.0313
  418MOL0     H55144   9.364   3.841   3.425  2.6412  1.8355 -1.5539
  418MOL0     H55145   9.416   3.764   3.294  1.4067 -0.6862  4.6835
  418MOL0     H55146   9.184   3.676   3.227 -1.7365 -1.4628  0.7509
  418MOL0     H55147   9.122   3.737   3.378 -0.3479  1.9225 -2.1808
  418MOL0     H55148   9.361   3.557   3.338  0.9160  3.3004 -1.7616
  418MOL0     H55149   9.294   3.599   3.499 -0.6867  1.3376  0.0047
  418MOL0     H55150   9.098   3.462   3.466  0.4206  0.0966  0.1281
  418MOL0     H55151   9.229   3.370   3.406 -1.7168 -1.5945 -0.6167
  418MOL0     H55152   9.158   3.450   3.169  2.6619  0.2824  1.9068
  418MOL0     H55153   9.007   3.507   3.236  1.5002  1.9245  1.6612
  418MOL0     H55154   9.124   3.224   3.232 -0.3017 -1.0036  0.7765
  418MOL0     H55155   9.018   3.278   3.373 -0.6859 -0.0219 -0.2434
  418MOL0     H55156   8.948   3.283   3.087 -0.8799 -0.3447 -0.1738
  418MOL0     H55157   8.827   3.313   3.206 -1.5891 -1.5169 -2.5552
  418MOL0     H55158   9.314   4.183   3.167  0.6367  1.2086  0.7281
  418MOL0     H55159   9.426   4.358   3.033  0.5172 -0.3909  0.9180
  418MOL0     H55160   9.861   4.367   2.607 -0.4975  0.4728 -1.4167
  418MOL0     H55161   9.941   4.601   2.537 -2.1175  0.8955 -3.9661
  418MOL0     H55162  10.421   5.893   1.850  0.8056 -0.9886 -0.6337
  418MOL0     H55163  10.423   6.092   1.713 -1.1896  0.1602 -0.1174
  418MOL0     H55164  10.580   6.199   1.212 -1.1218 -2.2580 -0.6905
  418MOL0     H55165  10.556   6.376   1.025  1.3521 -0.7481  1.7560
  418MOL0     H55166  10.146   6.562   1.017  0.5673 -0.7197  0.4978
  418MOL0     H55167  10.234   6.657   0.895 -0.9078 -2.3683 -1.0443
  418MOL0     H55168  10.171   6.777   1.124 -0.2382 -1.7542  2.2770
  418MOL0     H55169  10.307   6.693   1.188  1.0107  0.1968  0.1369
  418MOL0     H55170  10.321   6.933   1.071 -0.7635 -1.0256  1.1900
  418MOL0     H55171  10.332   6.845   0.923  1.1940  4.3307  0.8458
  418MOL0     H55172  10.527   6.726   1.056 -1.5095  0.1436  1.5567
  418MOL0     H55173  10.550   6.880   0.968 -1.0953 -2.5156 -2.3523
  418MOL0     H55174  10.614   6.992   1.379 -0.4560 -0.4885  0.0304
  418MOL0     H55175  10.172   6.472   1.214 -1.3309 -1.7027 -1.5324
  418MOL0     H55176  10.217   6.323   1.392 -1.2567 -3.9226 -0.3836
  419MOL0     O55177   6.496   8.464   0.384  0.5271 -0.6094 -0.3648
  419MOL0     C55178   6.555   8.569   0.414  0.0669 -0.8851  0.2423
  419MOL0     O55179   6.636   8.639   0.332  0.2119  0.3665  0.6418
  419MOL0     C55180   6.663   8.589   0.204  0.4409  0.6586 -0.3239
  419MOL0     C55181   6.679   8.689   0.103  0.7357 -0.3236 -0.1053
  419MOL0     C55182   6.683   8.665  -0.035 -0.1647  0.4907 -0.1934
  419MOL0     C55183   6.662   8.545  -0.084  0.1046 -0.1160  0.1075
  419MOL0     O55184   6.656   8.513  -0.214 -0.5304 -0.4056 -0.1328
  419MOL0     C55185   6.704   8.605  -0.315 -0.1762  0.4298 -0.0995
  419MOL0     C55186   6.760   8.521  -0.435  0.3622 -0.1098 -0.4439
  419MOL0     C55187   6.827   8.595  -0.547 -0.5256 -0.5927 -0.2440
  419MOL0     C55188   6.976   8.617  -0.525  0.9691 -0.3131  1.2202
  419MOL0     C55189   7.037   8.667  -0.668  0.7158 -0.3001 -0.2475
  419MOL0     C55190   7.072   8.560  -0.771 -0.7403  0.1709  0.1764
  419MOL0     C55191   7.114   8.599  -0.911  0.4922 -0.2483 -0.4665
  419MOL0     C55192   7.186   8.487  -0.983  0.4660  0.0352 -0.7384
  419MOL0     N55193   7.320   8.456  -0.922  0.6911 -0.3486  0.4553
  419MOL0     C55194   7.386   8.338  -0.964 -0.4547 -0.3947 -1.2579
  419MOL0     C55195   7.519   8.361  -0.933  0.6093 -0.4070 -0.4309
  419MOL0     C55196   7.647   8.298  -0.981 -0.1681 -0.3550 -0.2750
  419MOL0     C55197   7.730   8.234  -0.866 -0.3725  0.5677 -0.9968
  419MOL0     C55198   7.657   8.100  -0.824  0.1820  1.7763 -0.4432
  419MOL0     C55199   7.751   8.033  -0.725 -0.1131 -0.4432  0.5678
  419MOL0     O55200   7.877   7.991  -0.787 -0.5539 -0.1030 -0.9773
  419MOL0     C55201   7.935   7.862  -0.769  0.6000 -0.0766  0.3621
  419MOL0     C55202   8.042   7.836  -0.850  0.1993  0.0259 -0.0077
  419MOL0     C55203   8.101   7.708  -0.846 -0.5852  0.1248  0.7745
  419MOL0     C55204   8.052   7.606  -0.766  1.5068  0.2542 -0.6448
  419MOL0     C55205   8.092   7.462  -0.778  0.2923 -0.4231 -0.3646
  419MOL0     O55206   8.012   7.369  -0.719  0.4131 -0.6819  0.3056
  419MOL0     C55207   8.036   7.234  -0.741  0.3524 -1.0046  0.6724
  419MOL0     C55208   8.056   7.146  -0.629  0.0079  1.2683  0.7022
  419MOL0     C55209   8.058   7.008  -0.636  0.2045  0.3975 -0.2751
  419MOL0     C55210   8.081   6.954  -0.769  0.1069  0.0136 -0.0791
  419MOL0     O55211   8.100   6.819  -0.777 -0.1756  1.2312  0.4320
  419MOL0     C55212   8.110   6.750  -0.906  0.2789  0.0033 -0.2752
  419MOL0     C55213   8.151   6.610  -0.863 -0.3207 -0.5711 -0.6134
  419MOL0     C55214   8.162   6.501  -0.972  1.4139 -0.3699 -0.4592
  419MOL0     C55215   8.196   6.370  -0.909  0.0002 -0.2061 -0.3809
  419MOL0     C55216   8.208   6.264  -1.019  0.8212 -0.0255  0.1769
  419MOL0     C55217   8.222   6.113  -0.967  0.2443 -0.5343  0.2659
  419MOL0     C55218   8.322   6.041  -1.052 -0.7592 -0.3839 -0.5063
  419MOL0     C55219   8.315   5.895  -1.006 -0.2351 -0.5566  0.8370
  419MOL0    Cl55220   8.472   5.822  -1.049 -0.4391 -0.2709  0.1825
  419MOL0     C55221   8.082   7.037  -0.884  0.5107  0.2947 -0.5095
  419MOL0     C55222   8.045   7.173  -0.873 -0.8312 -0.3114 -0.4690
  419MOL0     O55223   8.180   7.439  -0.859 -1.0243 -0.0333  0.3630
  419MOL0     C55224   7.938   7.630  -0.670 -1.0304 -0.6785  1.2948
  419MOL0     C55225   7.887   7.758  -0.673 -0.9514  0.3802 -0.5177
  419MOL0     N55226   7.530   8.493  -0.902  0.5459  0.4087 -0.8938
  419MOL0     N55227   7.414   8.547  -0.882 -0.8730 -0.4200 -0.8176
  419MOL0     C55228   6.651   8.438   0.005 -0.7479  0.1208 -0.0028
  419MOL0     C55229   6.654   8.461   0.146  0.1220 -0.3104 -0.2570
  419MOL0     C55230   6.546   8.622   0.558 -0.0264 -0.3395  0.1510
  419MOL0     C55231   6.639   8.711   0.595  0.8027 -0.5333 -0.9668
  419MOL0     C55232   6.623   8.768   0.721  0.0282  0.8617  0.2333
  419MOL0     C55233   6.509   8.741   0.804  0.5860  0.0070 -0.4872
  419MOL0     O55234   6.511   8.803   0.924  0.1567 -0.2213 -0.0571
  419MOL0     C55235   6.393   8.794   1.006  0.0768 -0.8233 -0.2473
  419MOL0     C55236   6.398   8.880   1.130 -0.4589 -0.3781  0.1927
  419MOL0     C55237   6.535   8.874   1.201  0.2424  0.4329 -0.3486
  419MOL0     C55238   6.556   8.997   1.291  0.1436 -0.1952 -0.4524
  419MOL0     C55239   6.693   9.014   1.344  0.9088 -0.3742  0.3740
  419MOL0     C55240   6.803   9.014   1.393  0.4817 -0.6980 -0.1768
  419MOL0     C55241   6.428   8.638   0.766 -0.1039  0.7922 -0.3697
  419MOL0     C55242   6.448   8.576   0.644  0.6308  0.3063  0.4172
  419MOL0     H55243   6.669   8.788   0.144  0.8871 -0.3825  0.0750
  419MOL0     H55244   6.694   8.746  -0.107  3.1640 -0.9129 -1.4912
  419MOL0     H55245   6.787   8.659  -0.270 -1.3762  0.6823  1.9134
  419MOL0     H55246   6.615   8.663  -0.340 -0.6565 -0.5138 -0.6607
  419MOL0     H55247   6.663   8.475  -0.457  0.2080  0.4820 -1.0562
  419MOL0     H55248   6.827   8.443  -0.398  1.2425 -0.1825 -2.0856
  419MOL0     H55249   6.778   8.693  -0.554  1.7898  0.5851 -1.1834
  419MOL0     H55250   6.814   8.538  -0.639  0.1843  1.4232 -1.6909
  419MOL0     H55251   6.993   8.700  -0.456 -1.1283  0.0366  1.3857
  419MOL0     H55252   7.024   8.524  -0.492  2.9220  0.5135  0.8659
  419MOL0     H55253   7.131   8.717  -0.644 -0.7918  1.4403  2.6173
  419MOL0     H55254   6.966   8.742  -0.702 -1.6718 -1.6254  1.4924
  419MOL0     H55255   6.994   8.484  -0.785  0.6031 -1.2720  0.2158
  419MOL0     H55256   7.162   8.510  -0.733  0.5932  0.4713 -2.3897
  419MOL0     H55257   7.024   8.639  -0.959  1.0613  1.4510 -0.2001
  419MOL0     H55258   7.179   8.687  -0.900 -3.0784  2.3817  2.2890
  419MOL0     H55259   7.206   8.528  -1.083  1.9457  1.1775 -0.0124
  419MOL0     H55260   7.124   8.397  -0.974 -0.8393  1.1162  2.3532
  419MOL0     H55261   7.342   8.245  -1.000 -1.0925 -0.8194  0.5155
  419MOL0     H55262   7.708   8.371  -1.034  0.0854 -1.3278 -1.3661
  419MOL0     H55263   7.611   8.226  -1.056 -0.6897  0.1972 -0.5644
  419MOL0     H55264   7.732   8.297  -0.777  0.8350  0.6610 -1.0787
  419MOL0     H55265   7.836   8.235  -0.895 -0.6306 -0.4112 -2.0678
  419MOL0     H55266   7.561   8.122  -0.775 -0.3330 -1.9258  0.4741
  419MOL0     H55267   7.630   8.044  -0.914 -1.3866 -0.8052  1.5001
  419MOL0     H55268   7.698   7.949  -0.678  0.8378 -0.7723  1.0769
  419MOL0     H55269   7.772   8.106  -0.646  1.0647  1.6754 -1.5614
  419MOL0     H55270   8.088   7.914  -0.909 -0.3587  0.6954  0.4265
  419MOL0     H55271   8.181   7.680  -0.915 -1.7303  0.2077 -0.6401
  419MOL0     H55272   8.036   7.194  -0.533 -1.2488  2.5041 -0.1394
  419MOL0     H55273   8.059   6.940  -0.551  0.9052  0.0059 -0.5876
  419MOL0     H55274   8.180   6.794  -0.977  2.3058 -0.6808  1.2064
  419MOL0     H55275   8.008   6.754  -0.944 -0.3831 -0.1994  1.3662
  419MOL0     H55276   8.077   6.574  -0.792  2.4546 -0.3870  2.6710
  419MOL0     H55277   8.256   6.618  -0.830  0.8811 -1.2446 -3.9116
  419MOL0     H55278   8.241   6.531  -1.042 -0.5460  1.6338 -1.9690
  419MOL0     H55279   8.067   6.491  -1.027  1.7311 -2.9882 -0.6696
  419MOL0     H55280   8.298   6.366  -0.870 -1.0646 -2.0305  2.5838
  419MOL0     H55281   8.132   6.334  -0.829  0.4779 -3.8125 -1.4462
  419MOL0     H55282   8.292   6.301  -1.079 -1.9306  6.0182 -0.7672
  419MOL0     H55283   8.113   6.263  -1.074  0.4587 -0.4005  0.8048
  419MOL0     H55284   8.120   6.073  -0.962  0.0695 -0.0130  1.1970
  419MOL0     H55285   8.262   6.118  -0.866 -1.3814  2.1260  0.8749
  419MOL0     H55286   8.322   6.057  -1.160  3.7003  0.4779 -0.5677
  419MOL0     H55287   8.419   6.083  -1.025  0.4310 -3.2774  0.0753
  419MOL0     H55288   8.223   5.867  -1.057 -0.3855  1.6955 -0.2999
  419MOL0     H55289   8.315   5.883  -0.897  0.2173  1.0884  1.0458
  419MOL0     H55290   8.104   7.001  -0.984 -0.0274 -2.6223  0.3163
  419MOL0     H55291   8.018   7.225  -0.965  0.0170 -0.3601 -0.7565
  419MOL0     H55292   7.913   7.553  -0.598 -2.8366 -1.3935 -0.0413
  419MOL0     H55293   7.810   7.764  -0.598  0.4528 -0.3655  1.0517
  419MOL0     H55294   6.629   8.340  -0.036 -1.9760  1.3990 -2.6919
  419MOL0     H55295   6.652   8.378   0.217  3.8033 -0.9741 -0.7073
  419MOL0     H55296   6.713   8.749   0.525 -0.2297  0.5618 -1.5075
  419MOL0     H55297   6.703   8.830   0.759 -0.3638 -1.4097  5.8131
  419MOL0     H55298   6.379   8.694   1.047 -1.6063 -0.1866  0.8435
  419MOL0     H55299   6.303   8.812   0.946  0.5737  0.4598 -0.6637
  419MOL0     H55300   6.388   8.980   1.088  1.0679 -0.8550 -1.4373
  419MOL0     H55301   6.324   8.851   1.204 -1.0486  2.8141  1.0002
  419MOL0     H55302   6.623   8.879   1.136  2.6200  2.5053  2.7676
  419MOL0     H55303   6.536   8.781   1.259 -1.7254  0.4926 -0.1497
  419MOL0     H55304   6.530   9.072   1.216  0.0531 -0.0640 -0.2905
  419MOL0     H55305   6.480   8.992   1.370  2.1191 -2.0844  1.4710
  419MOL0     H55306   6.904   9.012   1.430 -0.1925 -1.1254  1.7757
  419MOL0     H55307   6.346   8.594   0.822  1.9132 -0.3322  1.8778
  419MOL0     H55308   6.380   8.493   0.627  0.1178  0.8203 -0.0981
  420MOL0     O55309   4.405   6.001   8.827 -0.4389 -0.6956  0.5360
  420MOL0     C55310   4.518   6.040   8.816  1.2702  0.2020  0.1962
  420MOL0     O55311   4.568   6.065   8.692  0.2766 -0.0775 -0.5048
  420MOL0     C55312   4.493   6.113   8.577  0.0282  0.1971  0.4683
  420MOL0     C55313   4.367   6.065   8.541  1.2764  0.0230  0.1885
  420MOL0     C55314   4.291   6.126   8.441 -1.0687 -0.6898  0.1261
  420MOL0     C55315   4.339   6.236   8.367  1.0024  0.1524 -0.7532
  420MOL0     O55316   4.269   6.296   8.265 -0.8840 -0.8770 -0.6762
  420MOL0     C55317   4.137   6.264   8.234  0.9820 -0.3856  0.2666
  420MOL0     C55318   4.070   6.327   8.107 -0.0519 -0.9100 -0.2825
  420MOL0     C55319   3.977   6.235   8.033 -0.8298 -0.2633  0.1376
  420MOL0     C55320   3.870   6.317   7.961  1.0081 -0.4737  0.2390
  420MOL0     C55321   3.773   6.214   7.895 -0.4107  0.3112 -0.4705
  420MOL0     C55322   3.683   6.281   7.798  0.0396  0.4596 -0.3260
  420MOL0     C55323   3.626   6.161   7.709 -0.8390  0.2789 -0.7180
  420MOL0     C55324   3.541   6.212   7.598 -0.4900 -0.1565 -0.2593
  420MOL0     N55325   3.417   6.269   7.647  0.1280 -0.4049  0.3364
  420MOL0     C55326   3.418   6.403   7.688  0.5837 -1.1151  0.2157
  420MOL0     C55327   3.306   6.417   7.757  0.4483  0.3213 -0.0066
  420MOL0     C55328   3.261   6.554   7.801  0.7913  0.3959  0.2168
  420MOL0     C55329   3.105   6.569   7.781 -0.1786  0.0798 -0.9556
  420MOL0     C55330   3.049   6.708   7.826  0.1676  0.2736  0.9919
  420MOL0     C55331   3.112   6.832   7.750  0.0637  0.7406  0.8881
  420MOL0     O55332   3.034   6.949   7.753  0.6881 -0.4974 -0.1865
  420MOL0     C55333   2.937   6.975   7.659 -0.5825 -0.2957 -0.4060
  420MOL0     C55334   2.887   7.105   7.650  0.3327 -0.0976 -0.4545
  420MOL0     C55335   2.797   7.132   7.546 -0.9719 -0.2888  0.5898
  420MOL0     C55336   2.746   7.042   7.455  0.3858 -0.0766 -0.2269
  420MOL0     C55337   2.632   7.085   7.357  0.4847 -0.6528 -0.1466
  420MOL0     O55338   2.581   7.219   7.363 -0.2970  0.5728 -0.0024
  420MOL0     C55339   2.454   7.251   7.315  0.3333  0.2733  0.6738
  420MOL0     C55340   2.432   7.387   7.290  0.1110  0.4174  0.4276
  420MOL0     C55341   2.304   7.431   7.267 -0.0960  0.4289 -0.4581
  420MOL0     C55342   2.200   7.343   7.240 -0.3347 -0.1699 -0.1406
  420MOL0     O55343   2.085   7.409   7.208  0.6356  0.1416 -0.7462
  420MOL0     C55344   1.973   7.334   7.152  0.2961 -0.3492 -0.7296
  420MOL0     C55345   1.882   7.284   7.269  0.3100  0.0766 -0.4615
  420MOL0     C55346   1.808   7.412   7.334  0.2987 -0.0595  0.2686
  420MOL0     C55347   1.768   7.386   7.483 -0.6254 -0.4032  0.5996
  420MOL0     C55348   1.650   7.294   7.492  0.4058 -0.4946 -0.2518
  420MOL0     C55349   1.605   7.294   7.632  0.4294 -0.0115 -0.0741
  420MOL0     C55350   1.455   7.293   7.647  0.0427 -0.0272 -0.1802
  420MOL0     C55351   1.390   7.151   7.642  1.1960  0.7342 -0.6055
  420MOL0    Cl55352   1.454   7.021   7.752 -0.1573  0.6389 -0.2720
  420MOL0     C55353   2.222   7.206   7.270  0.1296  0.1409  0.4916
  420MOL0     C55354   2.353   7.159   7.297 -0.4144  0.1395  0.9071
  420MOL0     O55355   2.605   6.999   7.277 -0.4184 -0.3903 -0.5181
  420MOL0     C55356   2.798   6.910   7.468 -0.1138  0.9468  0.4587
  420MOL0     C55357   2.893   6.882   7.568 -0.6925 -0.9834 -0.8444
  420MOL0     N55358   3.232   6.298   7.748 -0.7852 -0.5106 -0.2344
  420MOL0     N55359   3.307   6.211   7.696 -0.0483 -0.3577 -0.8659
  420MOL0     C55360   4.478   6.286   8.403  0.7166 -0.1762 -0.6874
  420MOL0     C55361   4.548   6.222   8.509  0.2769 -0.3859 -0.3249
  420MOL0     C55362   4.613   6.024   8.930  0.6301 -0.3522 -1.1795
  420MOL0     C55363   4.575   6.063   9.057 -0.4265 -1.6378  0.7640
  420MOL0     C55364   4.659   6.042   9.168 -0.4708 -0.6794  0.0197
  420MOL0     C55365   4.789   5.986   9.150  0.2527  0.1191 -0.2463
  420MOL0     O55366   4.880   5.958   9.253 -0.6287 -0.8318  0.8443
  420MOL0     C55367   4.833   5.976   9.389 -1.1397  0.3683 -0.0298
  420MOL0     C55368   4.923   5.918   9.491 -0.0408  0.7300  0.0926
  420MOL0     C55369   5.063   5.984   9.491 -0.1607 -0.3059 -0.3564
  420MOL0     C55370   5.169   5.907   9.566  0.7134 -0.2799 -0.6374
  420MOL0     C55371   5.142   5.915   9.711  0.5319 -0.6108 -0.7434
  420MOL0     C55372   5.119   5.926   9.828  0.4486 -0.3866 -0.3498
  420MOL0     C55373   4.825   5.953   9.020 -0.9175 -0.6769  0.3755
  420MOL0     C55374   4.742   5.975   8.912 -0.0996  0.0973 -0.0137
  420MOL0     H55375   4.310   5.981   8.580 -0.2483  0.8368 -0.2297
  420MOL0     H55376   4.200   6.071   8.418 -2.0136 -0.6694  3.4217
  420MOL0     H55377   4.075   6.291   8.320 -0.9103 -0.1526 -1.1123
  420MOL0     H55378   4.122   6.157   8.222 -1.4963 -0.0055 -0.4544
  420MOL0     H55379   4.152   6.353   8.040 -1.0273 -2.4175 -2.1652
  420MOL0     H55380   4.019   6.422   8.122 -0.4607 -1.0461 -0.7688
  420MOL0     H55381   3.935   6.168   8.109  1.6261 -0.6428  1.2638
  420MOL0     H55382   4.030   6.171   7.962  1.2192 -1.0287  2.2246
  420MOL0     H55383   3.817   6.381   8.031  0.6454 -0.1792 -0.2956
  420MOL0     H55384   3.927   6.381   7.893 -0.8479 -0.0359 -0.9676
  420MOL0     H55385   3.714   6.163   7.972  0.4322  0.0462  0.0304
  420MOL0     H55386   3.838   6.141   7.845  0.4773  1.5679 -1.1912
  420MOL0     H55387   3.733   6.343   7.723  0.7674  0.4068  0.1124
  420MOL0     H55388   3.601   6.343   7.837  0.7732  1.6562 -0.6175
  420MOL0     H55389   3.701   6.086   7.684  0.7052  0.7699  1.9678
  420MOL0     H55390   3.556   6.106   7.773  0.6012 -2.0541 -1.0120
  420MOL0     H55391   3.516   6.123   7.539 -2.0746 -0.9157  1.4695
  420MOL0     H55392   3.591   6.279   7.528  3.2140 -1.1238  1.2030
  420MOL0     H55393   3.477   6.483   7.645 -0.2900 -1.7553 -2.3762
  420MOL0     H55394   3.311   6.623   7.733 -0.6273 -1.3109 -2.7903
  420MOL0     H55395   3.291   6.571   7.904  0.0049 -0.9225  0.6893
  420MOL0     H55396   3.066   6.497   7.854 -0.0272  0.3918 -0.5618
  420MOL0     H55397   3.067   6.542   7.682 -4.7828  1.4232  0.2210
  420MOL0     H55398   2.945   6.692   7.794  0.9438 -0.1829 -1.5101
  420MOL0     H55399   3.053   6.722   7.935  3.4831 -2.5976  1.4064
  420MOL0     H55400   3.146   6.797   7.652 -0.0468  0.9203  0.7867
  420MOL0     H55401   3.197   6.858   7.814  2.4492  2.0451 -2.5204
  420MOL0     H55402   2.926   7.175   7.723 -2.7155 -0.2327  1.4994
  420MOL0     H55403   2.750   7.230   7.543 -1.2161 -0.4148  0.2565
  420MOL0     H55404   2.507   7.463   7.310  0.7728  0.4661 -1.9381
  420MOL0     H55405   2.281   7.536   7.252  0.6470  1.1023  2.4542
  420MOL0     H55406   2.020   7.253   7.096  2.4301  0.0167  0.4054
  420MOL0     H55407   1.923   7.395   7.077  0.1474 -0.7627 -0.9691
  420MOL0     H55408   1.944   7.230   7.341 -0.3065  1.2338  0.9997
  420MOL0     H55409   1.812   7.219   7.216  0.3221  1.3061 -2.0884
  420MOL0     H55410   1.711   7.426   7.286  1.4342 -0.6872 -2.3663
  420MOL0     H55411   1.863   7.506   7.324  1.8989 -1.0575 -0.9159
  420MOL0     H55412   1.857   7.347   7.532  0.5336  1.4304  0.0269
  420MOL0     H55413   1.745   7.486   7.520  0.7608  0.3517 -0.4923
  420MOL0     H55414   1.668   7.186   7.485  0.1252 -0.6017  0.5720
  420MOL0     H55415   1.574   7.330   7.423  1.9541  0.2374 -1.6536
  420MOL0     H55416   1.643   7.384   7.680  2.4345 -0.9118  0.1229
  420MOL0     H55417   1.641   7.207   7.688 -3.8879 -0.7169  2.0918
  420MOL0     H55418   1.426   7.330   7.746  2.7462 -1.9361  1.4462
  420MOL0     H55419   1.397   7.347   7.571 -0.0804  1.7629  1.1040
  420MOL0     H55420   1.395   7.112   7.539  1.2655 -0.6260 -0.1070
  420MOL0     H55421   1.283   7.155   7.663  1.2251  0.3548 -0.3782
  420MOL0     H55422   2.146   7.130   7.259 -0.3008  0.7392 -1.0998
  420MOL0     H55423   2.362   7.051   7.306 -1.3517 -0.1914 -1.4122
  420MOL0     H55424   2.768   6.836   7.395 -0.8459 -1.3828  2.9399
  420MOL0     H55425   2.929   6.780   7.576  0.6676 -0.4478  0.3336
  420MOL0     H55426   4.517   6.372   8.349 -0.4986  0.8062 -0.0622
  420MOL0     H55427   4.644   6.270   8.527  0.8769 -1.5575 -0.3470
  420MOL0     H55428   4.487   6.125   9.071  2.6097  3.5003 -0.3501
  420MOL0     H55429   4.628   6.071   9.268 -0.5708  3.0629 -0.9273
  420MOL0     H55430   4.742   5.915   9.397  0.1766 -1.7579 -0.5466
  420MOL0     H55431   4.805   6.079   9.412 -2.2786 -0.3181  1.8860
  420MOL0     H55432   4.874   5.921   9.589 -1.2902  0.5137 -0.5106
  420MOL0     H55433   4.932   5.810   9.475 -3.6142 -0.0063  1.9689
  420MOL0     H55434   5.055   6.083   9.535  0.0472 -1.6532  2.9762
  420MOL0     H55435   5.108   5.991   9.391  1.8100 -0.2431  0.4730
  420MOL0     H55436   5.170   5.800   9.543 -4.2481 -1.1360  1.7112
  420MOL0     H55437   5.269   5.945   9.545  2.0521 -2.6279  0.9441
  420MOL0     H55438   5.095   5.940   9.932  2.0329 -1.6709  0.2292
  420MOL0     H55439   4.919   5.904   8.997 -0.4863 -0.6284  1.9049
  420MOL0     H55440   4.774   5.941   8.814 -2.8634 -1.3889 -0.5190
  421MOL0     O55441   6.812   6.876  11.046 -0.5725  0.2050 -0.4985
  421MOL0     C55442   6.933   6.888  11.051 -0.1092 -0.5114 -0.4700
  421MOL0     O55443   7.001   6.958  10.958 -0.5693  0.1689 -0.1233
  421MOL0     C55444   6.915   7.031  10.874 -0.4013 -0.0166  0.5999
  421MOL0     C55445   6.907   7.170  10.899  0.2606  0.6654  0.5564
  421MOL0     C55446   6.804   7.235  10.828 -0.2163 -0.4427  0.2391
  421MOL0     C55447   6.729   7.177  10.718 -0.1466 -0.8348 -0.1848
  421MOL0     O55448   6.631   7.240  10.648 -0.2699  0.3443 -0.5009
  421MOL0     C55449   6.644   7.378  10.613  0.8295  1.0855  0.7387
  421MOL0     C55450   6.578   7.417  10.481  0.2661 -0.1491 -0.2191
  421MOL0     C55451   6.426   7.420  10.483  0.3693  0.9704  0.3636
  421MOL0     C55452   6.368   7.357  10.358  0.3416 -0.4943 -0.0672
  421MOL0     C55453   6.388   7.209  10.341  0.0033 -0.3658  0.0590
  421MOL0     C55454   6.313   7.119  10.438  1.0044  0.0512 -0.4195
  421MOL0     C55455   6.334   6.973  10.393 -0.4737  0.7430 -0.6047
  421MOL0     C55456   6.307   6.863  10.492  0.7834  0.7480 -0.1160
  421MOL0     N55457   6.337   6.726  10.431  0.5295  0.5169  0.7307
  421MOL0     C55458   6.252   6.636  10.363 -0.1228  0.4121  0.7391
  421MOL0     C55459   6.335   6.522  10.340  0.2836  0.5829 -0.3088
  421MOL0     C55460   6.299   6.408  10.250 -1.3641  0.0022  0.1060
  421MOL0     C55461   6.393   6.297  10.255  0.3027  0.3898  0.5487
  421MOL0     C55462   6.330   6.181  10.190  0.1052  0.7986  0.3850
  421MOL0     C55463   6.420   6.061  10.167 -0.1912 -0.1566 -0.0234
  421MOL0     O55464   6.360   5.961  10.079 -0.1809 -0.4571  0.4975
  421MOL0     C55465   6.262   5.874  10.123 -0.7222 -0.4723 -0.8204
  421MOL0     C55466   6.228   5.844  10.262 -0.6808 -0.2260  0.9694
  421MOL0     C55467   6.108   5.783  10.311  0.9737  0.6370  1.0770
  421MOL0     C55468   6.027   5.717  10.213 -0.4245  0.2309 -0.9975
  421MOL0     C55469   5.922   5.623  10.244  1.0371 -0.3705 -0.3695
  421MOL0     O55470   5.882   5.536  10.146 -0.0659 -0.3033  0.5690
  421MOL0     C55471   5.772   5.445  10.155  0.0568  0.6661 -0.1777
  421MOL0     C55472   5.684   5.437  10.049 -0.2181 -0.1668  0.0026
  421MOL0     C55473   5.572   5.360  10.071  0.0144  0.1714 -0.1619
  421MOL0     C55474   5.547   5.283  10.190  0.4285  0.0058  0.5494
  421MOL0     O55475   5.435   5.212  10.208  0.6301 -0.3404 -1.1057
  421MOL0     C55476   5.348   5.162  10.099 -0.2522 -0.5800 -0.8721
  421MOL0     C55477   5.439   5.064  10.015 -0.2650 -0.4272 -0.1062
  421MOL0     C55478   5.392   5.031   9.873 -0.3972  0.8907  0.5659
  421MOL0     C55479   5.370   5.131   9.768 -0.2013 -0.3324  0.8703
  421MOL0     C55480   5.499   5.162   9.683  0.0336  0.2037  0.5866
  421MOL0     C55481   5.563   5.046   9.602 -1.2649 -0.6959 -0.2118
  421MOL0     C55482   5.707   5.079   9.578  0.5167  0.8391  0.2497
  421MOL0     C55483   5.778   5.028   9.450  0.4422  0.4779 -1.1293
  421MOL0    Cl55484   5.749   4.852   9.408  0.7585  0.1406 -0.0331
  421MOL0     C55485   5.647   5.282  10.285 -0.1698 -0.8058 -0.7566
  421MOL0     C55486   5.765   5.355  10.265  1.2181  1.7488  0.9237
  421MOL0     O55487   5.869   5.627  10.355  0.0454 -0.2551  0.3555
  421MOL0     C55488   6.066   5.735  10.076 -0.4022  0.4162  0.5358
  421MOL0     C55489   6.171   5.811  10.034  0.1047  0.6396  0.1463
  421MOL0     N55490   6.465   6.553  10.381 -0.3333  0.1203 -0.5779
  421MOL0     N55491   6.460   6.666  10.447  0.1641  0.1679  0.2813
  421MOL0     C55492   6.744   7.041  10.701  0.3287 -0.2390  0.3339
  421MOL0     C55493   6.835   6.970  10.777 -0.5541  0.2163  0.1646
  421MOL0     C55494   7.006   6.849  11.171  0.4116 -0.6912  0.5689
  421MOL0     C55495   7.120   6.927  11.200  0.0268 -0.6106 -0.7621
  421MOL0     C55496   7.193   6.904  11.318  0.0080 -0.0750  0.4247
  421MOL0     C55497   7.141   6.813  11.411 -0.8159 -0.7340 -0.6727
  421MOL0     O55498   7.199   6.808  11.530 -0.3309  0.0066  0.1129
  421MOL0     C55499   7.183   6.930  11.605 -0.0765 -0.1502  0.3618
  421MOL0     C55500   7.221   6.918  11.757  0.4326  0.0141  0.3064
  421MOL0     C55501   7.357   6.866  11.774  0.2153 -1.0016 -0.2816
  421MOL0     C55502   7.381   6.832  11.917  0.5581 -0.1360  0.1037
  421MOL0     C55503   7.299   6.720  11.978 -0.6016 -0.6614 -0.0043
  421MOL0     C55504   7.227   6.632  12.008 -0.5405 -0.8387 -0.7687
  421MOL0     C55505   7.039   6.741  11.388  0.9058  0.3437 -0.1029
  421MOL0     C55506   6.963   6.755  11.268 -1.1317 -0.0978 -0.6884
  421MOL0     H55507   6.964   7.209  10.983  0.6150  0.2394  0.5171
  421MOL0     H55508   6.784   7.340  10.846  0.3366 -0.0856 -1.0602
  421MOL0     H55509   6.751   7.401  10.607  0.9761  0.0048 -1.7889
  421MOL0     H55510   6.600   7.445  10.688  0.6156  0.0714  1.5444
  421MOL0     H55511   6.613   7.347  10.404  0.1190  0.0009 -0.4228
  421MOL0     H55512   6.601   7.518  10.446 -0.5562 -0.0755 -0.5712
  421MOL0     H55513   6.408   7.527  10.497 -0.1760  0.6875  2.0360
  421MOL0     H55514   6.379   7.364  10.564 -0.9005  3.1405  1.1964
  421MOL0     H55515   6.260   7.374  10.353 -0.0178 -1.6161  2.5971
  421MOL0     H55516   6.415   7.408  10.273 -2.3780  1.3471 -0.5914
  421MOL0     H55517   6.493   7.178  10.349  0.5177  0.9625 -1.1812
  421MOL0     H55518   6.342   7.188  10.245 -0.6517 -0.9355  0.4957
  421MOL0     H55519   6.206   7.142  10.431  1.0652  1.7047  2.3360
  421MOL0     H55520   6.347   7.142  10.540  2.9328  1.2860 -1.2840
  421MOL0     H55521   6.291   6.964  10.293  3.7527  1.9700 -2.7843
  421MOL0     H55522   6.443   6.965  10.386  0.1346  3.5475  2.9234
  421MOL0     H55523   6.206   6.867  10.535  1.4260  1.0417  1.4336
  421MOL0     H55524   6.374   6.876  10.577  0.5740 -0.1987  0.2104
  421MOL0     H55525   6.148   6.641  10.334  0.4100  0.1074 -1.3439
  421MOL0     H55526   6.306   6.451  10.149 -1.4261 -0.6161 -0.1667
  421MOL0     H55527   6.202   6.358  10.262  0.1727 -3.6860 -1.3310
  421MOL0     H55528   6.413   6.263  10.357 -0.5424 -0.2428  0.5199
  421MOL0     H55529   6.478   6.333  10.196  0.1898 -1.9371 -1.1743
  421MOL0     H55530   6.249   6.144  10.255 -0.0237  1.5374  0.6538
  421MOL0     H55531   6.280   6.221  10.101  1.6823  2.8954  0.3676
  421MOL0     H55532   6.459   6.028  10.264  0.8430  1.9619  0.3405
  421MOL0     H55533   6.507   6.098  10.113 -0.6528  0.0611 -0.6415
  421MOL0     H55534   6.285   5.883  10.345  2.6251  0.0673 -1.2587
  421MOL0     H55535   6.093   5.776  10.418 -0.6770  1.7196  0.9462
  421MOL0     H55536   5.715   5.503   9.968  2.8011  0.1615  1.3333
  421MOL0     H55537   5.513   5.349   9.981  1.9558 -2.4261 -1.2331
  421MOL0     H55538   5.314   5.242  10.033 -1.5892 -1.0854 -0.8297
  421MOL0     H55539   5.255   5.120  10.139 -0.4413 -0.3457 -1.0678
  421MOL0     H55540   5.467   4.970  10.063  2.0573  0.0980 -0.3204
  421MOL0     H55541   5.539   5.106   9.998 -0.6695  0.4013 -0.5002
  421MOL0     H55542   5.298   4.979   9.892 -0.0934  0.3696  0.6716
  421MOL0     H55543   5.468   4.959   9.841 -0.0642  1.6936 -0.5130
  421MOL0     H55544   5.305   5.081   9.696  0.8056  4.6737 -4.2645
  421MOL0     H55545   5.323   5.223   9.805 -0.8585  0.8519 -2.5446
  421MOL0     H55546   5.572   5.186   9.761  1.7997 -1.6715 -0.3651
  421MOL0     H55547   5.482   5.257   9.632 -1.4730 -0.7192 -0.7109
  421MOL0     H55548   5.510   5.038   9.507 -0.5657 -0.6929 -0.6111
  421MOL0     H55549   5.556   4.949   9.652 -0.7199  0.1280  1.5150
  421MOL0     H55550   5.712   5.188   9.566 -2.0244  0.7361 -3.1017
  421MOL0     H55551   5.759   5.053   9.671 -0.6156  0.8945  0.9260
  421MOL0     H55552   5.886   5.032   9.469  0.9329 -0.7589 -3.2929
  421MOL0     H55553   5.748   5.088   9.363 -0.6217 -1.0224 -1.8421
  421MOL0     H55554   5.629   5.213  10.367  0.1673 -2.5535 -2.0904
  421MOL0     H55555   5.844   5.348  10.339  3.9121  3.6365 -1.5660
  421MOL0     H55556   6.017   5.676   9.999  0.0121 -1.4085  1.5984
  421MOL0     H55557   6.190   5.825   9.928  1.3409  0.0459  0.2700
  421MOL0     H55558   6.679   6.990  10.631  1.2584  0.9489 -1.4683
  421MOL0     H55559   6.846   6.862  10.776 -2.0944  0.0335 -0.7406
  421MOL0     H55560   7.170   7.002  11.140  2.3691  0.3845  2.1276
  421MOL0     H55561   7.276   6.973  11.323 -1.2947  1.5015  0.8786
  421MOL0     H55562   7.077   6.958  11.602  0.3559  1.6132  0.1228
  421MOL0     H55563   7.249   7.010  11.570  1.7675 -0.4106  2.9663
  421MOL0     H55564   7.207   7.012  11.811  2.0786 -0.4212  1.5741
  421MOL0     H55565   7.148   6.850  11.802 -0.8905  1.8286  0.9952
  421MOL0     H55566   7.418   6.952  11.747  2.1166 -0.7991  3.8264
  421MOL0     H55567   7.371   6.785  11.702 -1.1683 -0.2745 -1.3994
  421MOL0     H55568   7.484   6.796  11.925  0.9838  0.5460 -1.8081
  421MOL0     H55569   7.375   6.921  11.980  1.6421 -1.4355  2.1649
  421MOL0     H55570   7.160   6.550  12.024 -2.9558  0.8482 -1.7400
  421MOL0     H55571   6.990   6.668  11.452 -1.5648 -0.3953 -2.6161
  421MOL0     H55572   6.881   6.685  11.252 -1.9414  0.7110 -0.1627
  422MOL0     O55573   6.998   8.063   7.485 -0.4440  0.8344 -0.1748
  422MOL0     C55574   6.926   8.045   7.588 -0.5568  0.5927 -0.4749
  422MOL0     O55575   6.981   8.042   7.720  0.2262 -0.3865 -0.5823
  422MOL0     C55576   7.115   8.065   7.751  0.4056  0.4273  0.1409
  422MOL0     C55577   7.232   8.033   7.677 -0.5439  0.0032 -1.1711
  422MOL0     C55578   7.365   8.061   7.717  0.1636 -0.7444 -0.4432
  422MOL0     C55579   7.387   8.133   7.836  0.8467  0.0346 -0.1561
  422MOL0     O55580   7.507   8.160   7.886 -0.4105  0.0987 -0.1869
  422MOL0     C55581   7.517   8.252   8.004  0.1496  0.3281 -0.8179
  422MOL0     C55582   7.657   8.282   8.039 -0.1436 -0.0044  0.1296
  422MOL0     C55583   7.664   8.322   8.178  0.4816 -0.4355  0.2391
  422MOL0     C55584   7.799   8.375   8.218  0.2007 -0.2539 -0.7620
  422MOL0     C55585   7.922   8.284   8.215  0.2418 -0.0676 -1.0812
  422MOL0     C55586   7.916   8.158   8.311 -0.0334 -0.1927  0.0104
  422MOL0     C55587   7.973   8.176   8.460  0.0407  0.5717 -0.8412
  422MOL0     C55588   7.878   8.097   8.558  0.3204 -0.6551  0.4712
  422MOL0     N55589   7.938   7.968   8.581 -0.1448 -0.1716 -0.2602
  422MOL0     C55590   8.072   7.944   8.631  0.3420  0.2233 -0.3285
  422MOL0     C55591   8.077   7.816   8.655  1.0830  0.2956 -0.4567
  422MOL0     C55592   8.180   7.734   8.737 -1.5358 -0.4275 -0.1972
  422MOL0     C55593   8.265   7.641   8.647  0.4454  1.2599 -0.2381
  422MOL0     C55594   8.350   7.540   8.734 -0.6002 -0.1631 -0.0561
  422MOL0     C55595   8.272   7.406   8.761 -0.9663  0.1506  0.6881
  422MOL0     O55596   8.345   7.306   8.845  0.7138  0.7267  0.7877
  422MOL0     C55597   8.395   7.202   8.781 -0.3870  0.3359  0.1474
  422MOL0     C55598   8.448   7.187   8.655 -0.0524 -0.5143  0.1970
  422MOL0     C55599   8.497   7.062   8.618  0.4756  0.2311  0.1381
  422MOL0     C55600   8.484   6.949   8.698  0.3085  0.8100 -0.9062
  422MOL0     C55601   8.521   6.813   8.651  0.4623  0.6390  0.5916
  422MOL0     O55602   8.586   6.726   8.736  0.7611 -0.0268  0.0508
  422MOL0     C55603   8.629   6.602   8.699  0.2062  0.6856  0.4110
  422MOL0     C55604   8.574   6.527   8.592  1.0800 -0.0649  0.4227
  422MOL0     C55605   8.613   6.398   8.564  0.4284  0.9796 -0.2753
  422MOL0     C55606   8.719   6.332   8.634 -0.6289 -0.6724 -1.0582
  422MOL0     O55607   8.769   6.208   8.586 -0.3974  0.2101 -0.0442
  422MOL0     C55608   8.844   6.131   8.677  0.1080  1.3029  0.4512
  422MOL0     C55609   8.848   5.991   8.622  0.0280 -1.0495 -0.2096
  422MOL0     C55610   8.720   5.918   8.654  0.6161 -0.2748  0.9321
  422MOL0     C55611   8.732   5.763   8.653 -0.4441  0.2237  0.4222
  422MOL0     C55612   8.599   5.694   8.657  1.1359  0.0196  0.8894
  422MOL0     C55613   8.600   5.541   8.643 -1.1526 -0.3609  0.1826
  422MOL0     C55614   8.632   5.471   8.772 -0.6701  0.0281 -0.3488
  422MOL0     C55615   8.608   5.313   8.782 -0.4376 -0.3413 -0.6696
  422MOL0    Cl55616   8.443   5.280   8.768  0.7030 -0.2210 -0.2427
  422MOL0     C55617   8.779   6.413   8.730  0.1899  0.0292 -0.3671
  422MOL0     C55618   8.730   6.541   8.766 -0.5466  0.4205 -0.5487
  422MOL0     O55619   8.499   6.783   8.526 -0.3229 -0.2684 -0.2545
  422MOL0     C55620   8.446   6.971   8.828  0.2984 -0.2338  0.0277
  422MOL0     C55621   8.388   7.093   8.866  0.3862  0.4684  0.7438
  422MOL0     N55622   7.957   7.755   8.621 -0.5536  0.3839 -0.8437
  422MOL0     N55623   7.876   7.849   8.584  1.6958 -0.6931 -0.0517
  422MOL0     C55624   7.263   8.167   7.904 -0.9797 -0.3900 -0.4438
  422MOL0     C55625   7.136   8.135   7.869  0.2410 -0.0113  0.8997
  422MOL0     C55626   6.778   8.047   7.585 -0.8033  1.1161  0.5518
  422MOL0     C55627   6.717   8.034   7.702 -0.6451 -0.6268 -0.3562
  422MOL0     C55628   6.576   8.018   7.711  0.5222 -0.2137 -0.4899
  422MOL0     C55629   6.500   8.033   7.595 -0.2983  0.4037 -1.0886
  422MOL0     O55630   6.367   8.025   7.591  0.1145 -0.0181  0.5556
  422MOL0     C55631   6.291   8.049   7.713  0.4573  0.5549 -0.0032
  422MOL0     C55632   6.145   7.993   7.694  0.1017  0.1535  0.3458
  422MOL0     C55633   6.137   7.843   7.678 -0.7013 -0.1915  0.8432
  422MOL0     C55634   6.208   7.743   7.776  0.9651 -0.3044  0.4276
  422MOL0     C55635   6.215   7.612   7.708 -0.7922  0.2000 -0.6686
  422MOL0     C55636   6.211   7.499   7.656  0.3695 -0.1046 -1.1355
  422MOL0     C55637   6.567   8.042   7.475 -0.0778 -0.8834  0.0948
  422MOL0     C55638   6.707   8.044   7.464 -0.1007  0.2177 -0.4335
  422MOL0     H55639   7.220   7.973   7.587 -1.9192 -2.3415  0.4913
  422MOL0     H55640   7.453   8.031   7.660  0.7008  0.6573 -0.3770
  422MOL0     H55641   7.460   8.228   8.094  0.5210  2.5830  0.0962
  422MOL0     H55642   7.473   8.347   7.970 -2.6894 -1.0183 -1.2011
  422MOL0     H55643   7.712   8.348   7.973 -1.8026 -1.1524 -2.5794
  422MOL0     H55644   7.722   8.194   8.032  0.3393  0.1666  1.8971
  422MOL0     H55645   7.623   8.239   8.236 -1.0124 -0.1903 -0.4089
  422MOL0     H55646   7.592   8.404   8.192  2.3186  1.5900 -1.3965
  422MOL0     H55647   7.817   8.463   8.155  2.6412 -0.5199 -0.5226
  422MOL0     H55648   7.792   8.404   8.323  3.3663  0.6204 -0.7004
  422MOL0     H55649   8.010   8.342   8.245 -0.8166 -0.1286  2.6109
  422MOL0     H55650   7.937   8.257   8.110  1.1007 -2.3016 -0.4195
  422MOL0     H55651   7.973   8.081   8.259  0.0462 -0.9191  1.1493
  422MOL0     H55652   7.814   8.119   8.312 -1.0662  2.0223 -3.0802
  422MOL0     H55653   8.075   8.137   8.469  0.3561  1.2869 -1.2744
  422MOL0     H55654   7.977   8.283   8.482 -2.3270  0.6846 -0.7337
  422MOL0     H55655   7.777   8.069   8.527  0.4522 -1.9624  1.1394
  422MOL0     H55656   7.875   8.156   8.650 -1.4768 -0.1250  0.1112
  422MOL0     H55657   8.149   8.015   8.659 -0.0440  0.4054  0.2727
  422MOL0     H55658   8.127   7.672   8.810  1.0794 -1.0499  1.3186
  422MOL0     H55659   8.237   7.808   8.794 -3.2743 -0.3702  1.5827
  422MOL0     H55660   8.339   7.702   8.596  1.2275 -0.8129 -1.7430
  422MOL0     H55661   8.206   7.591   8.569  0.2777 -0.4101  0.9108
  422MOL0     H55662   8.441   7.519   8.678  0.0080 -0.3144  0.9487
  422MOL0     H55663   8.380   7.569   8.835 -0.4205 -3.7770  1.0777
  422MOL0     H55664   8.262   7.364   8.660  2.4463  1.1748 -0.2442
  422MOL0     H55665   8.171   7.428   8.795 -1.6376  4.4304 -3.0730
  422MOL0     H55666   8.455   7.266   8.581 -0.1955 -2.8926 -2.5192
  422MOL0     H55667   8.553   7.046   8.527  1.1666  0.5812  0.4963
  422MOL0     H55668   8.491   6.570   8.537  0.5698  4.0875  3.9610
  422MOL0     H55669   8.557   6.341   8.491 -1.9330 -0.5695  2.5702
  422MOL0     H55670   8.796   6.134   8.776  0.2412  2.6245  0.4969
  422MOL0     H55671   8.941   6.179   8.695  0.2531  1.1089  0.1831
  422MOL0     H55672   8.921   5.930   8.676 -1.5032 -0.5137  2.6406
  422MOL0     H55673   8.870   5.996   8.515  0.2329 -2.8256 -0.2815
  422MOL0     H55674   8.648   5.938   8.574  0.4199 -1.1355  0.8925
  422MOL0     H55675   8.671   5.957   8.744 -2.0454 -1.5135  0.1057
  422MOL0     H55676   8.785   5.738   8.561  4.1868  1.0744  2.6056
  422MOL0     H55677   8.806   5.718   8.720  1.2496  0.3218 -1.2998
  422MOL0     H55678   8.541   5.726   8.570 -1.2889 -1.8791  1.6946
  422MOL0     H55679   8.544   5.719   8.749  2.3722 -0.7880  1.8881
  422MOL0     H55680   8.672   5.501   8.571 -1.5221 -3.9261  1.5847
  422MOL0     H55681   8.500   5.511   8.611 -0.4803 -1.9679 -0.5891
  422MOL0     H55682   8.738   5.487   8.795  0.3321 -3.7793 -1.5311
  422MOL0     H55683   8.571   5.527   8.844  0.8345 -1.8740  2.6126
  422MOL0     H55684   8.660   5.278   8.872  0.2355  4.6840  1.2069
  422MOL0     H55685   8.646   5.280   8.685  0.7563 -0.3597 -0.2117
  422MOL0     H55686   8.866   6.390   8.791  1.4807  2.5035 -1.1301
  422MOL0     H55687   8.789   6.594   8.840 -2.4928  0.6293  0.9363
  422MOL0     H55688   8.456   6.893   8.903  2.4649 -0.2439 -0.2028
  422MOL0     H55689   8.347   7.116   8.964  0.8901  1.7201  0.6750
  422MOL0     H55690   7.261   8.235   7.989 -0.3755 -0.7770 -0.1082
  422MOL0     H55691   7.046   8.164   7.922 -0.6800  3.2953 -2.0380
  422MOL0     H55692   6.764   8.029   7.799 -2.0805  1.3209  0.5111
  422MOL0     H55693   6.539   8.011   7.813  1.0349 -0.8156 -0.3447
  422MOL0     H55694   6.288   8.158   7.726  1.8774  1.1991 -3.6900
  422MOL0     H55695   6.326   8.007   7.807 -2.8281  1.1876  1.6578
  422MOL0     H55696   6.076   8.019   7.775 -2.6703 -0.0249 -1.7773
  422MOL0     H55697   6.103   8.043   7.606  0.3398  1.4807  0.9652
  422MOL0     H55698   6.163   7.818   7.575 -1.0378 -0.5117  0.8328
  422MOL0     H55699   6.032   7.812   7.676 -1.2760  1.6539  0.2072
  422MOL0     H55700   6.314   7.767   7.787  1.9928 -3.5499 -1.0714
  422MOL0     H55701   6.163   7.742   7.875  2.4410 -0.2038  1.1139
  422MOL0     H55702   6.225   7.399   7.622 -0.3247 -1.7400  2.8298
  422MOL0     H55703   6.504   8.041   7.386  0.9617 -0.0791 -0.6790
  422MOL0     H55704   6.770   8.054   7.376  1.0863  1.9210  0.5472
  423MOL0     O55705   3.281   8.805   4.533 -1.0015 -0.4153 -0.5590
  423MOL0     C55706   3.192   8.735   4.482 -0.1087 -0.8183 -0.1232
  423MOL0     O55707   3.059   8.770   4.480 -0.4038 -0.4801  0.2112
  423MOL0     C55708   3.012   8.866   4.575 -0.2566 -0.2979 -1.0535
  423MOL0     C55709   3.036   8.992   4.555 -0.2745 -0.1208  0.7821
  423MOL0     C55710   2.993   9.098   4.631  0.2633 -0.0822  0.0807
  423MOL0     C55711   2.929   9.067   4.748 -0.2521 -0.1023 -1.0804
  423MOL0     O55712   2.891   9.158   4.852  0.7240  0.3448  0.7202
  423MOL0     C55713   2.937   9.290   4.866 -0.2504  0.4868  0.2206
  423MOL0     C55714   2.943   9.302   5.018 -0.3395 -0.0662  0.0119
  423MOL0     C55715   2.988   9.448   5.051  1.0908  0.5379 -0.6386
  423MOL0     C55716   2.884   9.559   5.010  1.1911 -0.2250 -0.1990
  423MOL0     C55717   2.919   9.694   5.082  0.1770  0.0120  0.4764
  423MOL0     C55718   2.930   9.701   5.235  0.6958  0.1776  0.2831
  423MOL0     C55719   2.964   9.843   5.288  0.9691 -0.2209  0.3714
  423MOL0     C55720   2.898   9.883   5.420  0.0289  0.4570  0.3149
  423MOL0     N55721   2.936  10.021   5.465  0.4689  0.2114 -0.2405
  423MOL0     C55722   3.046  10.042   5.539  0.2869 -0.8179 -0.3720
  423MOL0     C55723   3.030  10.180   5.576 -1.1024  0.1167  0.0114
  423MOL0     C55724   3.104  10.258   5.674  0.6587 -0.8570  0.0037
  423MOL0     C55725   3.078  10.219   5.826 -0.8199  0.6091  1.4991
  423MOL0     C55726   2.942  10.258   5.867 -0.0477  0.8658 -0.5459
  423MOL0     C55727   2.833  10.154   5.832 -1.4474  0.2283  0.7877
  423MOL0     O55728   2.736  10.142   5.935 -0.4537 -0.3035  0.1072
  423MOL0     C55729   2.623  10.085   5.896 -0.0822 -1.0159 -0.3470
  423MOL0     C55730   2.519  10.117   5.972  0.8014  0.0809 -0.9189
  423MOL0     C55731   2.396  10.054   5.957  0.3930  0.7031  0.2013
  423MOL0     C55732   2.376   9.961   5.853  0.5325 -0.3217 -0.2050
  423MOL0     C55733   2.243   9.906   5.828 -0.3291 -0.1247  0.5642
  423MOL0     O55734   2.150   9.906   5.927 -0.7028  0.3335  0.1424
  423MOL0     C55735   2.016   9.887   5.904  0.6952 -0.6292 -0.8680
  423MOL0     C55736   1.932   9.970   5.829  0.2488  0.3950  0.4651
  423MOL0     C55737   1.793   9.941   5.805 -0.6406  0.2301 -0.3834
  423MOL0     C55738   1.742   9.832   5.876  0.8017  1.0618 -0.3682
  423MOL0     O55739   1.608   9.791   5.869  0.3839 -0.6805  0.3554
  423MOL0     C55740   1.512   9.871   5.795 -1.0761  0.4345 -0.3496
  423MOL0     C55741   1.461   9.994   5.869  0.6863  0.1647  0.2177
  423MOL0     C55742   1.378  10.088   5.791 -0.2485  0.1331  0.2832
  423MOL0     C55743   1.328  10.213   5.870 -1.2097  0.0989 -0.4762
  423MOL0     C55744   1.227  10.179   5.982 -0.6982  0.7626 -0.7224
  423MOL0     C55745   1.157  10.303   6.050 -1.6659 -0.2656 -0.0595
  423MOL0     C55746   1.034  10.278   6.135 -0.1743 -0.6695 -0.0512
  423MOL0     C55747   0.969  10.398   6.211 -0.1190  0.8955 -0.3086
  423MOL0    Cl55748   0.821  10.313   6.266  0.3207  0.2869 -0.1741
  423MOL0     C55749   1.830   9.741   5.936 -0.1604 -0.2205  0.5697
  423MOL0     C55750   1.963   9.773   5.961  0.2459  0.6293  0.2932
  423MOL0     O55751   2.215   9.866   5.712  0.3789 -0.0625  0.3973
  423MOL0     C55752   2.482   9.927   5.776  0.1419  0.3447 -0.0736
  423MOL0     C55753   2.606   9.982   5.792 -0.2343  0.1971 -0.3197
  423MOL0     N55754   2.918  10.231   5.517 -0.7772  0.3403  0.0804
  423MOL0     N55755   2.863  10.133   5.447  0.7153  0.0186  0.6234
  423MOL0     C55756   2.911   8.933   4.776  0.7545  0.4617  0.4683
  423MOL0     C55757   2.952   8.832   4.688 -0.1747 -0.7611 -0.4880
  423MOL0     C55758   3.226   8.596   4.443  0.3820  0.7693  0.1231
  423MOL0     C55759   3.137   8.519   4.375  1.9168  0.2769  0.5836
  423MOL0     C55760   3.162   8.392   4.332 -0.9356 -0.2495 -0.0083
  423MOL0     C55761   3.285   8.329   4.353 -1.0149  0.4121  0.6510
  423MOL0     O55762   3.320   8.198   4.317  0.6238  0.5386 -0.3159
  423MOL0     C55763   3.224   8.102   4.263  0.6414 -0.1967  0.4435
  423MOL0     C55764   3.127   8.029   4.351 -0.5868 -1.3726 -0.2508
  423MOL0     C55765   3.200   7.936   4.457 -0.3888 -0.2111  0.5430
  423MOL0     C55766   3.170   7.967   4.609  0.7744  0.1667 -0.0129
  423MOL0     C55767   3.253   7.886   4.701 -0.8804  0.0003 -0.6478
  423MOL0     C55768   3.330   7.839   4.782  0.3820  0.1150 -0.6516
  423MOL0     C55769   3.383   8.403   4.426 -0.0515 -0.0528  0.4500
  423MOL0     C55770   3.352   8.534   4.474  1.1303 -0.3373  0.6341
  423MOL0     H55771   3.090   9.018   4.465  0.6488  1.8398  1.8446
  423MOL0     H55772   3.002   9.205   4.618  1.7344  0.2457  2.9268
  423MOL0     H55773   2.864   9.365   4.835 -1.8383 -0.6750  0.9882
  423MOL0     H55774   3.017   9.302   4.793 -1.3013 -2.3064 -1.5546
  423MOL0     H55775   3.019   9.233   5.058 -1.4469 -0.1520  2.1378
  423MOL0     H55776   2.841   9.285   5.054 -0.1164 -0.3894  0.5167
  423MOL0     H55777   3.080   9.475   4.998 -0.2417  0.0899 -3.3761
  423MOL0     H55778   2.992   9.456   5.160  3.5822 -2.0305 -0.4392
  423MOL0     H55779   2.873   9.582   4.904 -1.2374 -2.3902 -0.5337
  423MOL0     H55780   2.785   9.526   5.042  1.2593  0.2346  0.4977
  423MOL0     H55781   2.854   9.776   5.051 -0.4786 -0.5601  0.3267
  423MOL0     H55782   3.020   9.709   5.042 -0.0306  3.0828  0.8156
  423MOL0     H55783   3.007   9.637   5.278  1.8122  2.3790  1.7709
  423MOL0     H55784   2.828   9.670   5.260  0.5168 -0.2472 -0.9356
  423MOL0     H55785   3.071   9.861   5.306  1.6069 -1.3849 -1.8598
  423MOL0     H55786   2.927   9.914   5.214  2.5963  1.1923  0.8375
  423MOL0     H55787   2.934   9.817   5.500 -1.2286 -0.1828  0.3780
  423MOL0     H55788   2.789   9.875   5.424  0.0033 -1.0808 -2.0419
  423MOL0     H55789   3.124   9.971   5.565  0.3000  0.4353  3.5990
  423MOL0     H55790   3.083  10.364   5.663  2.1614 -0.2719  2.1221
  423MOL0     H55791   3.210  10.236   5.658  0.7818 -0.7833  0.6897
  423MOL0     H55792   3.159  10.264   5.884  1.9499 -2.3723  0.2844
  423MOL0     H55793   3.093  10.111   5.837 -0.1743  0.2926 -1.4837
  423MOL0     H55794   2.941  10.263   5.976  0.2572  1.3101 -0.5617
  423MOL0     H55795   2.915  10.359   5.836 -1.7023  0.7035  0.2502
  423MOL0     H55796   2.884  10.058   5.821 -2.0205 -0.5475  4.0372
  423MOL0     H55797   2.778  10.198   5.748 -3.1314 -1.2709  1.0478
  423MOL0     H55798   2.528  10.195   6.047  0.8392  0.8252 -1.6828
  423MOL0     H55799   2.311  10.083   6.019 -0.2412  0.3428 -0.4781
  423MOL0     H55800   1.981  10.057   5.788  1.0721 -0.0957  0.3771
  423MOL0     H55801   1.741  10.008   5.737  4.4221  1.7469 -3.3712
  423MOL0     H55802   1.423   9.815   5.764  0.4176 -2.3719  0.1158
  423MOL0     H55803   1.557   9.898   5.699 -0.8927  2.2944  0.2066
  423MOL0     H55804   1.539  10.063   5.903  1.3724 -0.1926 -0.5903
  423MOL0     H55805   1.402   9.962   5.955  0.6908  2.1659  1.0194
  423MOL0     H55806   1.288  10.033   5.761  1.7080 -3.7251  0.8434
  423MOL0     H55807   1.439  10.125   5.708  0.0397  0.2967  0.5671
  423MOL0     H55808   1.414  10.261   5.917 -1.8799  0.1165  0.7795
  423MOL0     H55809   1.273  10.288   5.813 -2.0918  1.2783  1.8376
  423MOL0     H55810   1.283  10.123   6.058 -2.6827 -1.2674 -0.6122
  423MOL0     H55811   1.141  10.118   5.950 -0.8687  0.5235  0.1687
  423MOL0     H55812   1.129  10.371   5.969  0.1383  0.7296  0.1167
  423MOL0     H55813   1.233  10.358   6.106 -2.4938 -0.0665  0.9183
  423MOL0     H55814   0.955  10.235   6.073  0.7226 -0.1607 -1.6026
  423MOL0     H55815   1.055  10.202   6.211 -2.3847 -2.6135 -1.2763
  423MOL0     H55816   0.956  10.485   6.146  1.7896  0.1243 -1.8214
  423MOL0     H55817   1.025  10.428   6.300 -1.6578 -0.1520  1.0779
  423MOL0     H55818   1.784   9.668   6.001 -2.9561  0.3842 -0.6070
  423MOL0     H55819   2.021   9.700   6.017 -0.2590  0.5399  0.7132
  423MOL0     H55820   2.475   9.842   5.709 -0.2872 -0.8232  1.3856
  423MOL0     H55821   2.684   9.943   5.728  3.0400 -1.6106  4.2704
  423MOL0     H55822   2.846   8.887   4.850 -1.5359 -2.7858 -3.1782
  423MOL0     H55823   2.933   8.728   4.716 -3.2234 -0.2155 -0.2011
  423MOL0     H55824   3.051   8.569   4.333  2.0539  0.1293  0.1173
  423MOL0     H55825   3.081   8.345   4.278 -2.5087  1.7264  0.5247
  423MOL0     H55826   3.281   8.031   4.202 -1.1926 -0.5621 -0.9169
  423MOL0     H55827   3.164   8.167   4.200  0.3548 -0.6484  0.2454
  423MOL0     H55828   3.060   8.100   4.399 -1.0776  0.6180 -3.5595
  423MOL0     H55829   3.047   7.978   4.296 -1.1738 -2.5910  1.6167
  423MOL0     H55830   3.308   7.953   4.450 -0.7197  1.4605 -1.7561
  423MOL0     H55831   3.169   7.834   4.433  0.8542 -0.3865 -0.4064
  423MOL0     H55832   3.187   8.073   4.629  0.1419  0.4398 -0.9006
  423MOL0     H55833   3.063   7.953   4.622  0.9250 -0.2992  0.8425
  423MOL0     H55834   3.387   7.796   4.862 -1.8248 -1.6980  0.0316
  423MOL0     H55835   3.480   8.367   4.459 -0.8419  0.7767  4.1080
  423MOL0     H55836   3.423   8.585   4.538  1.4878 -1.8477  1.4824
  424MOL0     O55837  10.445   1.431   7.696  0.4678  0.3509  0.4829
  424MOL0     C55838  10.373   1.372   7.787 -0.9188 -0.9995 -0.0885
  424MOL0     O55839  10.290   1.432   7.870 -0.5087  0.4236 -0.1790
  424MOL0     C55840  10.240   1.553   7.831 -0.3545 -0.5953  0.0192
  424MOL0     C55841  10.243   1.664   7.913  0.9306  1.0681 -0.2410
  424MOL0     C55842  10.175   1.772   7.880  0.7357 -0.5594  0.1704
  424MOL0     C55843  10.092   1.785   7.766  0.0466  0.1912 -0.1261
  424MOL0     O55844  10.023   1.891   7.713 -0.6267 -0.7636 -0.2766
  424MOL0     C55845   9.980   1.992   7.802 -0.0992  0.1160  0.7799
  424MOL0     C55846   9.873   1.940   7.906 -0.9374  0.2876  0.4510
  424MOL0     C55847   9.800   2.067   7.959  0.2516 -0.2998 -0.3819
  424MOL0     C55848   9.697   2.018   8.068 -1.0448 -0.1123  0.9035
  424MOL0     C55849   9.623   2.129   8.140 -0.6129 -0.7340 -0.3567
  424MOL0     C55850   9.500   2.072   8.221 -0.3516 -0.8797 -0.3457
  424MOL0     C55851   9.409   2.187   8.247  0.0259  0.4777 -0.7622
  424MOL0     C55852   9.273   2.123   8.294 -0.4514  0.7532 -0.2579
  424MOL0     N55853   9.258   2.160   8.430  0.6667 -0.0807  0.3371
  424MOL0     C55854   9.292   2.086   8.538 -0.4655  0.6172 -0.1437
  424MOL0     C55855   9.271   2.165   8.641  0.1100 -0.8492 -0.1103
  424MOL0     C55856   9.303   2.125   8.780  0.1994  1.0451 -0.6427
  424MOL0     C55857   9.425   2.036   8.777  0.0135  0.1430  0.5925
  424MOL0     C55858   9.444   1.987   8.927  1.0559 -0.5627 -0.0908
  424MOL0     C55859   9.534   1.872   8.924  1.2299 -0.6374  0.3466
  424MOL0     O55860   9.675   1.888   8.899 -0.1843  0.5057 -0.2770
  424MOL0     C55861   9.763   1.796   8.954  0.0312  0.3350  0.9606
  424MOL0     C55862   9.729   1.670   9.002  0.4987 -0.1326  0.3279
  424MOL0     C55863   9.825   1.587   9.053  0.4942  0.6166 -0.0617
  424MOL0     C55864   9.957   1.633   9.066 -0.3349 -0.6975  0.9381
  424MOL0     C55865  10.060   1.556   9.133  0.0503  0.0788  1.2791
  424MOL0     O55866  10.187   1.601   9.132 -0.5849 -0.7469 -0.3039
  424MOL0     C55867  10.280   1.523   9.185  0.1766 -0.5126 -0.1478
  424MOL0     C55868  10.368   1.447   9.110 -0.2457  0.5579  0.3491
  424MOL0     C55869  10.452   1.357   9.185 -0.5584 -0.5405  0.0377
  424MOL0     C55870  10.462   1.353   9.325 -0.4824 -0.1270  0.6625
  424MOL0     O55871  10.533   1.263   9.402  0.7498 -0.2385 -0.0031
  424MOL0     C55872  10.532   1.120   9.350 -0.0134 -0.3224 -0.5848
  424MOL0     C55873  10.519   1.025   9.472  1.0801 -0.7148 -0.0902
  424MOL0     C55874  10.529   0.878   9.427  0.6977 -0.2125 -0.4376
  424MOL0     C55875  10.504   0.795   9.560 -0.7628 -1.4489  0.2769
  424MOL0     C55876  10.510   0.640   9.524 -0.8348 -0.3327  0.6528
  424MOL0     C55877  10.512   0.555   9.652 -0.1657 -0.6217  0.1140
  424MOL0     C55878  10.506   0.399   9.615 -0.6208  0.2271  0.0392
  424MOL0     C55879  10.643   0.327   9.637 -0.3627 -0.2078 -0.5207
  424MOL0    Cl55880  10.739   0.368   9.498  0.2201  0.0446  0.5528
  424MOL0     C55881  10.393   1.456   9.390 -0.2382  0.2837  0.4946
  424MOL0     C55882  10.307   1.536   9.322 -0.2604 -0.3443 -0.4723
  424MOL0     O55883  10.022   1.445   9.159  0.1019 -0.0107  0.1560
  424MOL0     C55884   9.995   1.754   9.004 -0.9452  0.1427 -0.6359
  424MOL0     C55885   9.901   1.833   8.948 -1.6854 -0.2375  0.4622
  424MOL0     N55886   9.215   2.288   8.601 -0.3728  0.1016  0.1924
  424MOL0     N55887   9.210   2.281   8.479  0.4475 -0.5011  0.7105
  424MOL0     C55888  10.100   1.676   7.676 -0.6250  0.6131 -0.1769
  424MOL0     C55889  10.171   1.564   7.710  0.1514 -0.3435 -0.1713
  424MOL0     C55890  10.388   1.222   7.801  0.2508 -0.5219  0.4474
  424MOL0     C55891  10.448   1.145   7.696  0.1960  0.0588  0.0318
  424MOL0     C55892  10.467   1.011   7.720 -0.3976 -0.4881  0.2686
  424MOL0     C55893  10.436   0.926   7.830  1.1027 -0.0754 -0.2999
  424MOL0     O55894  10.448   0.788   7.843  0.3294  0.1031 -0.8697
  424MOL0     C55895  10.508   0.715   7.733  0.8826 -0.1316 -0.0839
  424MOL0     C55896  10.408   0.648   7.635 -0.4497  0.0671  0.1822
  424MOL0     C55897  10.481   0.587   7.515 -0.8944  0.5549  0.1058
  424MOL0     C55898  10.386   0.477   7.454  0.6513  0.0475  0.4349
  424MOL0     C55899  10.459   0.421   7.337  0.0911  0.0314  0.9381
  424MOL0     C55900  10.498   0.372   7.234  0.2310  0.4609  0.6759
  424MOL0     C55901  10.361   1.005   7.930 -0.3179 -0.4255 -0.8487
  424MOL0     C55902  10.343   1.146   7.917 -0.3209  0.9141 -0.0754
  424MOL0     H55903  10.300   1.655   8.005  1.7611  1.3820 -0.7176
  424MOL0     H55904  10.180   1.857   7.948 -0.9362  0.2144 -0.6085
  424MOL0     H55905   9.916   2.062   7.747  1.3040  0.2501 -0.7697
  424MOL0     H55906  10.073   2.037   7.837  0.1658  0.5804 -0.4723
  424MOL0     H55907   9.925   1.887   7.987 -0.1853 -1.2257 -0.9605
  424MOL0     H55908   9.808   1.866   7.859  0.1314 -0.6117  0.3287
  424MOL0     H55909   9.746   2.120   7.880  1.2735  0.3042 -0.6921
  424MOL0     H55910   9.864   2.133   8.019 -0.8934 -1.7249  2.6480
  424MOL0     H55911   9.629   1.952   8.015  2.1251 -2.0195 -1.1244
  424MOL0     H55912   9.752   1.964   8.146 -0.3350 -1.7514 -0.6627
  424MOL0     H55913   9.586   2.197   8.063  0.0062 -0.8307 -0.7440
  424MOL0     H55914   9.700   2.170   8.206  1.2044 -2.1500 -1.5042
  424MOL0     H55915   9.546   2.038   8.313 -0.9407  0.8510  0.6396
  424MOL0     H55916   9.453   1.997   8.156 -0.1384 -2.4118  1.2107
  424MOL0     H55917   9.448   2.261   8.317 -1.8594  0.8029  0.0098
  424MOL0     H55918   9.373   2.241   8.159  0.7205  0.8106 -0.8436
  424MOL0     H55919   9.274   2.015   8.278  1.5601  0.8638 -1.1638
  424MOL0     H55920   9.189   2.165   8.239 -0.9328  1.2482  0.8133
  424MOL0     H55921   9.318   1.981   8.527  2.4047  1.0716  1.2634
  424MOL0     H55922   9.225   2.059   8.820  2.7242 -1.7210  0.0509
  424MOL0     H55923   9.316   2.210   8.848 -0.8986 -0.0147  0.9756
  424MOL0     H55924   9.516   2.083   8.738 -0.4724  2.2246  1.8453
  424MOL0     H55925   9.403   1.953   8.708  0.2324  0.6506 -0.0938
  424MOL0     H55926   9.478   2.072   8.987 -0.4491 -0.1242  0.1880
  424MOL0     H55927   9.343   1.969   8.963  0.8503  0.0492 -0.3490
  424MOL0     H55928   9.499   1.804   8.846  0.7254 -0.0487  0.0526
  424MOL0     H55929   9.519   1.832   9.025 -1.6226 -2.5743 -0.7316
  424MOL0     H55930   9.628   1.632   8.996 -0.7890  3.0637 -0.5876
  424MOL0     H55931   9.805   1.485   9.084  0.5846  0.7925  0.5858
  424MOL0     H55932  10.364   1.441   9.002  3.7725 -0.3009  0.0929
  424MOL0     H55933  10.509   1.281   9.132 -0.8345 -0.9303  0.2905
  424MOL0     H55934  10.621   1.092   9.293  1.0648  2.1297 -0.2193
  424MOL0     H55935  10.451   1.097   9.280 -2.1794  1.7013  1.0822
  424MOL0     H55936  10.416   1.043   9.504  1.5024  0.3639  0.7161
  424MOL0     H55937  10.586   1.064   9.549  0.0551  1.4990 -0.2369
  424MOL0     H55938  10.614   0.855   9.362  1.2979  2.0097 -0.5189
  424MOL0     H55939  10.440   0.855   9.369  0.9821 -1.4680 -0.4127
  424MOL0     H55940  10.574   0.819   9.640 -3.1788 -0.9397  2.3464
  424MOL0     H55941  10.406   0.818   9.602  0.0671  1.1128  1.0087
  424MOL0     H55942  10.603   0.616   9.471 -0.9465 -0.0085  0.3087
  424MOL0     H55943  10.421   0.613   9.468 -1.6634  1.5475  1.0107
  424MOL0     H55944  10.438   0.577   9.730  1.0354 -2.6446  1.9843
  424MOL0     H55945  10.599   0.591   9.708 -0.9463  0.2601  0.8050
  424MOL0     H55946  10.436   0.351   9.684 -0.3554 -3.1982 -1.8770
  424MOL0     H55947  10.463   0.384   9.516 -3.7346 -1.4946  1.5159
  424MOL0     H55948  10.622   0.220   9.639  1.7956 -0.6747  1.4522
  424MOL0     H55949  10.689   0.364   9.729 -3.3691  1.3390  0.4938
  424MOL0     H55950  10.406   1.465   9.497  1.1727  0.1672  0.3537
  424MOL0     H55951  10.258   1.605   9.389 -1.3182 -3.7439  2.5790
  424MOL0     H55952  10.097   1.789   8.993  0.7502 -4.1058 -0.1164
  424MOL0     H55953   9.934   1.921   8.894 -4.1449 -0.6931 -1.9626
  424MOL0     H55954  10.028   1.677   7.594 -0.4371  3.2668 -0.4076
  424MOL0     H55955  10.181   1.480   7.641  2.5676 -0.7662  0.6235
  424MOL0     H55956  10.463   1.200   7.604  0.2926 -1.6961 -1.0409
  424MOL0     H55957  10.502   0.958   7.632  2.8876 -0.3132  1.3274
  424MOL0     H55958  10.569   0.634   7.774 -0.3098  0.1609  2.4903
  424MOL0     H55959  10.582   0.776   7.680 -1.8070  0.6024 -3.3372
  424MOL0     H55960  10.352   0.574   7.693  3.0767 -1.4518  1.9337
  424MOL0     H55961  10.349   0.728   7.589  1.5812  1.2434 -0.5066
  424MOL0     H55962  10.564   0.528   7.556 -1.3114  0.8370  1.3828
  424MOL0     H55963  10.500   0.674   7.450 -0.2516  1.0376  0.9145
  424MOL0     H55964  10.371   0.397   7.527 -1.3008  0.8480  0.9614
  424MOL0     H55965  10.295   0.532   7.428  0.2801  0.9631  3.3738
  424MOL0     H55966  10.530   0.350   7.134  0.2160  1.2839  0.4824
  424MOL0     H55967  10.307   0.961   8.012 -0.1659  0.8884 -0.0222
  424MOL0     H55968  10.297   1.200   7.999 -1.2974  2.0622 -1.3575
  425MOL0     O55969   2.549   0.034  10.941  0.0976  0.3158 -0.2675
  425MOL0     C55970   2.591  -0.049  10.863  1.2774  0.6627  0.0177
  425MOL0     O55971   2.523  -0.158  10.806  0.2628  0.3659  0.1561
  425MOL0     C55972   2.395  -0.192  10.857 -0.1411 -0.2939  0.5677
  425MOL0     C55973   2.372  -0.328  10.855 -0.6513 -0.5692 -0.1009
  425MOL0     C55974   2.248  -0.382  10.908 -0.5081  0.2621  0.9499
  425MOL0     C55975   2.160  -0.293  10.974 -0.6908 -0.3176  0.0222
  425MOL0     O55976   2.051  -0.346  11.033 -0.7963 -0.6574  0.1936
  425MOL0     C55977   1.998  -0.267  11.141  0.6867 -0.0265  0.2460
  425MOL0     C55978   1.888  -0.365  11.204 -0.1791 -0.6539  0.1287
  425MOL0     C55979   1.878  -0.366  11.364 -0.0940  0.7443  0.0891
  425MOL0     C55980   1.876  -0.229  11.428 -0.4510 -0.5095  0.2617
  425MOL0     C55981   1.894  -0.242  11.579  0.1761  0.5980  0.0748
  425MOL0     C55982   1.853  -0.116  11.654  0.1633 -0.5269 -0.4020
  425MOL0     C55983   1.782  -0.159  11.781  0.0593  0.6148 -0.5174
  425MOL0     C55984   1.732  -0.036  11.862 -0.2546 -0.1328  1.0868
  425MOL0     N55985   1.841   0.050  11.899  0.3345 -0.4192 -0.5481
  425MOL0     C55986   1.941   0.024  11.989 -0.6215 -0.5698 -0.0179
  425MOL0     C55987   2.002   0.146  11.991 -0.2853 -0.8016  0.4492
  425MOL0     C55988   2.124   0.157  12.069 -0.3299  0.1313  0.6068
  425MOL0     C55989   2.089   0.150  12.219 -0.5670 -0.4831  1.5612
  425MOL0     C55990   2.007   0.278  12.259 -1.0747 -1.3100  0.4561
  425MOL0     C55991   2.092   0.409  12.258  1.1753 -0.2395 -0.4628
  425MOL0     O55992   2.205   0.396  12.351 -0.1529 -0.6684  0.4132
  425MOL0     C55993   2.206   0.455  12.486  0.7564 -0.1442  0.5923
  425MOL0     C55994   2.328   0.476  12.553 -0.6791 -0.2404  1.2634
  425MOL0     C55995   2.334   0.539  12.674 -0.2815 -0.5130 -0.3977
  425MOL0     C55996   2.217   0.572  12.743 -0.0947 -0.2089  0.1784
  425MOL0     C55997   2.214   0.642  12.878 -0.8602  0.0643  0.1714
  425MOL0     O55998   2.329   0.620  12.949  0.3872 -0.2782  0.2594
  425MOL0     C55999   2.350   0.709  13.054 -0.4660 -0.3997 -0.2304
  425MOL0     C56000   2.383   0.664  13.186  0.7802  0.5056  0.5057
  425MOL0     C56001   2.414   0.763  13.284  0.2123 -0.4144  0.1653
  425MOL0     C56002   2.414   0.893  13.257 -0.0798 -1.5574 -0.2501
  425MOL0     O56003   2.444   0.978  13.364  0.1572  0.7490  0.5909
  425MOL0     C56004   2.328   1.057  13.395 -0.1043  0.1252  0.1207
  425MOL0     C56005   2.359   1.142  13.520  1.1239  0.1480  0.5836
  425MOL0     C56006   2.294   1.282  13.517  0.8120 -2.0390  0.0432
  425MOL0     C56007   2.141   1.294  13.538  0.9274  0.7900  1.1340
  425MOL0     C56008   2.084   1.218  13.651 -0.4063  0.1113 -1.0972
  425MOL0     C56009   1.944   1.284  13.696  0.5154  0.6777  0.2744
  425MOL0     C56010   1.867   1.206  13.800  0.5954  0.5563 -0.1564
  425MOL0     C56011   1.736   1.264  13.842 -0.1740 -0.3027  0.2406
  425MOL0    Cl56012   1.641   1.156  13.951  0.3506  0.0135  0.1702
  425MOL0     C56013   2.393   0.938  13.129 -0.3583 -0.8496  0.5798
  425MOL0     C56014   2.367   0.846  13.030 -0.4972  0.6423 -0.2138
  425MOL0     O56015   2.115   0.703  12.914  0.3878 -0.2562 -0.4088
  425MOL0     C56016   2.093   0.535  12.689  0.0771 -0.3621  0.6002
  425MOL0     C56017   2.091   0.485  12.558  0.6027  0.2944  0.2524
  425MOL0     N56018   1.946   0.238  11.909 -1.0419  0.4055  0.3866
  425MOL0     N56019   1.837   0.180  11.861 -0.3367  0.2272  0.7479
  425MOL0     C56020   2.189  -0.155  10.970 -0.1072 -1.3424 -0.3537
  425MOL0     C56021   2.301  -0.104  10.912  0.7103 -1.0156  0.6635
  425MOL0     C56022   2.723  -0.023  10.807  0.6354  0.4254 -0.5571
  425MOL0     C56023   2.757  -0.068  10.682 -1.2298  0.9681 -0.9840
  425MOL0     C56024   2.878  -0.035  10.627 -0.7499  0.3131 -0.7945
  425MOL0     C56025   2.974   0.048  10.702  0.0771  0.4626  0.0234
  425MOL0     O56026   3.097   0.083  10.662 -0.3851  0.5778  0.1802
  425MOL0     C56027   3.136   0.056  10.531 -0.0732  0.1720 -0.1003
  425MOL0     C56028   3.257   0.145  10.497  0.0121  0.1923  0.1421
  425MOL0     C56029   3.337   0.081  10.384  1.0703  0.5133  0.9916
  425MOL0     C56030   3.263   0.055  10.260  0.0677 -0.0868 -0.2991
  425MOL0     C56031   3.346   0.026  10.150 -0.2297 -0.2896  0.6851
  425MOL0     C56032   3.416  -0.026  10.065  0.1957  0.0623 -0.4283
  425MOL0     C56033   2.937   0.094  10.823  0.8521  0.5223 -0.3754
  425MOL0     C56034   2.810   0.063  10.875  0.7758 -0.5284 -0.1381
  425MOL0     H56035   2.460  -0.382  10.821 -0.1349 -1.1678  2.0242
  425MOL0     H56036   2.233  -0.488  10.890  3.0612  0.0397 -2.2427
  425MOL0     H56037   1.951  -0.173  11.109 -1.5937 -1.0561  0.4098
  425MOL0     H56038   2.075  -0.238  11.213  0.5871 -0.0016  0.3426
  425MOL0     H56039   1.909  -0.468  11.176 -3.3680 -1.6607  1.0426
  425MOL0     H56040   1.786  -0.346  11.168 -0.6181 -1.1667  1.0610
  425MOL0     H56041   1.974  -0.413  11.389 -0.5453 -0.6910 -0.7666
  425MOL0     H56042   1.806  -0.438  11.404  2.1138 -0.1560  2.8102
  425MOL0     H56043   1.959  -0.160  11.407 -0.3626  0.2030  2.6167
  425MOL0     H56044   1.783  -0.180  11.398  1.4532  2.0559 -1.9315
  425MOL0     H56045   1.999  -0.263  11.601  0.5059  2.1019 -0.0075
  425MOL0     H56046   1.847  -0.337  11.608  1.0836 -0.4820 -1.8086
  425MOL0     H56047   1.782  -0.057  11.595  1.6548 -2.0364 -4.0229
  425MOL0     H56048   1.938  -0.048  11.670 -1.4300  1.2873  0.7829
  425MOL0     H56049   1.701  -0.226  11.751 -2.3502  2.5262  1.2311
  425MOL0     H56050   1.850  -0.223  11.838 -1.3812 -0.8066 -0.3215
  425MOL0     H56051   1.685  -0.077  11.952  0.1977 -2.0733  0.4771
  425MOL0     H56052   1.655   0.017  11.806 -0.7593  0.4394  2.2827
  425MOL0     H56053   1.977  -0.065  12.039 -1.5416 -0.6278  0.5550
  425MOL0     H56054   2.180   0.250  12.059 -0.1675  0.0661  0.9013
  425MOL0     H56055   2.192   0.074  12.049  1.3627  1.7240 -0.6637
  425MOL0     H56056   2.186   0.147  12.269  2.4978  0.6769 -3.5774
  425MOL0     H56057   2.031   0.060  12.245 -2.0379 -1.1530 -3.1384
  425MOL0     H56058   1.909   0.286  12.210 -0.2973 -3.6526 -1.7144
  425MOL0     H56059   1.987   0.267  12.366 -1.9660 -2.3618  0.2049
  425MOL0     H56060   2.019   0.478  12.301 -0.5123 -2.2014  0.0136
  425MOL0     H56061   2.125   0.442  12.159 -0.2723  2.8771 -0.0246
  425MOL0     H56062   2.414   0.432  12.504 -0.3185  0.4071  1.3197
  425MOL0     H56063   2.429   0.563  12.721  0.0186  3.2168 -2.4795
  425MOL0     H56064   2.376   0.556  13.199 -2.4000  0.9205  4.6345
  425MOL0     H56065   2.443   0.724  13.381 -1.3001 -2.3807 -0.1014
  425MOL0     H56066   2.235   1.003  13.420 -0.3488  0.7298  0.5503
  425MOL0     H56067   2.329   1.119  13.305  0.4907  1.3822  0.9583
  425MOL0     H56068   2.466   1.163  13.510  1.1076 -0.8441 -2.6250
  425MOL0     H56069   2.332   1.082  13.607 -0.1572 -0.0162  0.0895
  425MOL0     H56070   2.312   1.332  13.421  1.2926 -0.6750  0.8081
  425MOL0     H56071   2.351   1.349  13.582  0.2750 -0.8549 -0.6802
  425MOL0     H56072   2.127   1.402  13.548  2.8524  1.5479 -2.4528
  425MOL0     H56073   2.106   1.258  13.441  2.4004 -0.3383  0.9829
  425MOL0     H56074   2.160   1.226  13.728 -2.5888 -2.1392  1.5080
  425MOL0     H56075   2.065   1.111  13.636 -1.4717  0.2808 -1.0981
  425MOL0     H56076   1.882   1.286  13.606  2.0356 -0.0663 -0.8369
  425MOL0     H56077   1.952   1.386  13.734 -2.5032  0.6042  1.3553
  425MOL0     H56078   1.847   1.106  13.761 -1.9876  1.0187 -0.1501
  425MOL0     H56079   1.936   1.198  13.884  2.2741  3.0902 -1.1558
  425MOL0     H56080   1.683   1.289  13.750 -2.4935  0.0079  1.5745
  425MOL0     H56081   1.743   1.361  13.892  0.2923  0.1771 -0.7268
  425MOL0     H56082   2.395   1.044  13.106 -1.1452 -0.9010  0.2467
  425MOL0     H56083   2.351   0.871  12.926  0.3253  0.6515 -0.3425
  425MOL0     H56084   1.997   0.575  12.722  0.8347  0.5558  1.7754
  425MOL0     H56085   1.997   0.467  12.507  0.4682  2.4624 -0.3393
  425MOL0     H56086   2.121  -0.083  11.015 -1.7561 -3.3301  0.4498
  425MOL0     H56087   2.322   0.002  10.909  1.1512 -1.1193 -0.8620
  425MOL0     H56088   2.684  -0.140  10.647 -7.0057  3.7520  3.5725
  425MOL0     H56089   2.895  -0.072  10.526  6.4030 -2.2239  0.7803
  425MOL0     H56090   3.048   0.057  10.465  0.4865  0.0534 -0.8707
  425MOL0     H56091   3.160  -0.051  10.532 -1.1139 -0.0983 -1.2254
  425MOL0     H56092   3.222   0.244  10.466 -0.8617 -1.4403 -5.2492
  425MOL0     H56093   3.333   0.164  10.573  1.0655  2.2471 -1.3079
  425MOL0     H56094   3.374  -0.010  10.431 -1.6561 -2.0575 -1.3838
  425MOL0     H56095   3.429   0.140  10.372  1.3760 -0.2613 -0.9082
  425MOL0     H56096   3.201  -0.032  10.281 -2.0739  1.4794  0.2138
  425MOL0     H56097   3.199   0.142  10.243 -2.4247 -1.6846  0.3957
  425MOL0     H56098   3.465  -0.074   9.983  0.5772  2.2274 -1.5279
  425MOL0     H56099   3.001   0.160  10.881  0.9395 -2.2284  3.0062
  425MOL0     H56100   2.775   0.108  10.968  3.4631 -0.6893  1.0349
  426MOL0     O56101   6.134   1.680   6.229  0.0932  0.3506 -0.2791
  426MOL0     C56102   6.011   1.693   6.247  0.3919  0.1587 -0.3183
  426MOL0     O56103   5.924   1.605   6.315  0.6224  1.0192 -0.8142
  426MOL0     C56104   5.975   1.490   6.384 -0.2544 -0.2500  0.2265
  426MOL0     C56105   5.876   1.400   6.430  0.3120 -0.5065  0.0054
  426MOL0     C56106   5.917   1.292   6.513 -0.4926 -0.1241  1.3023
  426MOL0     C56107   6.050   1.276   6.556 -0.9586  0.7343  0.8641
  426MOL0     O56108   6.102   1.172   6.628 -0.7124  0.4062  0.0629
  426MOL0     C56109   6.028   1.050   6.647  0.4424 -0.5200  0.1805
  426MOL0     C56110   5.982   1.026   6.790  1.2199  0.0838 -0.0027
  426MOL0     C56111   5.876   0.915   6.804 -0.5596 -0.6815 -0.1474
  426MOL0     C56112   5.901   0.833   6.933 -0.2441 -0.6596  0.0044
  426MOL0     C56113   5.821   0.692   6.930  0.2878 -0.7310 -0.9170
  426MOL0     C56114   5.889   0.594   6.824  0.9137 -0.7418 -0.0396
  426MOL0     C56115   5.838   0.449   6.834  0.6012 -1.2138 -0.6251
  426MOL0     C56116   5.909   0.364   6.726 -0.1692 -0.4663  0.1847
  426MOL0     N56117   5.845   0.241   6.700  0.1737  0.5651 -0.3809
  426MOL0     C56118   5.778   0.199   6.590  0.5218 -0.4446 -0.1798
  426MOL0     C56119   5.771   0.066   6.601  0.7282 -0.0581  0.3635
  426MOL0     C56120   5.741  -0.034   6.487 -0.4638 -0.5456 -0.3522
  426MOL0     C56121   5.686  -0.163   6.540  1.1419 -0.7760  0.4124
  426MOL0     C56122   5.562  -0.124   6.639  0.7846 -0.2662  0.1553
  426MOL0     C56123   5.458  -0.038   6.577 -0.3009 -1.0992 -0.0429
  426MOL0     O56124   5.434  -0.068   6.437 -0.1972 -0.2499 -0.1937
  426MOL0     C56125   5.327  -0.003   6.363 -0.7694  0.4273 -0.8924
  426MOL0     C56126   5.207   0.048   6.419  0.5781 -0.4922  0.4009
  426MOL0     C56127   5.100   0.089   6.334  0.8102 -0.5746  0.0345
  426MOL0     C56128   5.111   0.068   6.197 -0.5631  0.5727 -0.4114
  426MOL0     C56129   5.001   0.099   6.106  1.5239 -0.3277  0.2741
  426MOL0     O56130   5.032   0.147   5.978  0.0685  0.3424  0.6226
  426MOL0     C56131   4.930   0.199   5.896  0.7240 -0.8587  0.2886
  426MOL0     C56132   4.970   0.262   5.779 -0.9525  0.2973  0.9373
  426MOL0     C56133   4.892   0.324   5.678 -0.4300 -0.8525 -1.3982
  426MOL0     C56134   4.759   0.303   5.684 -0.1620  0.8279  0.0865
  426MOL0     O56135   4.677   0.378   5.597  0.4834 -0.4571  0.2727
  426MOL0     C56136   4.545   0.318   5.562 -0.9555 -0.0651  0.3424
  426MOL0     C56137   4.473   0.405   5.460 -0.2606 -0.0304  0.2538
  426MOL0     C56138   4.565   0.444   5.335  0.0335 -0.7411  0.4911
  426MOL0     C56139   4.494   0.560   5.264  0.4751  0.2371 -0.6310
  426MOL0     C56140   4.541   0.577   5.124  0.7014  1.1809 -0.2870
  426MOL0     C56141   4.701   0.590   5.127  0.8987 -0.3171 -0.4848
  426MOL0     C56142   4.753   0.579   4.982 -0.2191 -1.1316  0.6839
  426MOL0     C56143   4.905   0.575   4.981 -0.3481 -0.2966 -0.7761
  426MOL0    Cl56144   4.962   0.746   4.987 -0.1079 -0.0931  0.6928
  426MOL0     C56145   4.709   0.224   5.790  0.3687  0.0299  0.3042
  426MOL0     C56146   4.793   0.175   5.896  0.3347 -0.0442  0.5331
  426MOL0     O56147   4.886   0.089   6.154 -0.2944 -0.6245  0.1306
  426MOL0     C56148   5.240   0.031   6.139 -0.1706 -0.8031  0.4931
  426MOL0     C56149   5.346  -0.009   6.224  0.6272 -0.1782  0.3171
  426MOL0     N56150   5.824   0.035   6.727  0.4374  0.1668 -0.1166
  426MOL0     N56151   5.862   0.142   6.783 -0.9036 -0.2489  0.4129
  426MOL0     C56152   6.144   1.374   6.518  1.1502 -0.8106 -0.1659
  426MOL0     C56153   6.112   1.485   6.437 -0.1508  0.2082  0.2589
  426MOL0     C56154   5.933   1.797   6.183  0.2006  0.2100 -1.1185
  426MOL0     C56155   5.798   1.824   6.196  0.2455  0.3645 -0.2491
  426MOL0     C56156   5.728   1.915   6.123 -0.2239 -0.1669 -0.5196
  426MOL0     C56157   5.804   2.013   6.048 -0.2432  0.8156  1.3347
  426MOL0     O56158   5.753   2.120   5.988  0.1407 -0.3557  0.0678
  426MOL0     C56159   5.611   2.109   5.970  0.8146 -0.4683  0.0884
  426MOL0     C56160   5.573   2.202   5.858  0.1642  0.1469  0.8979
  426MOL0     C56161   5.640   2.342   5.856  0.0254  0.4345 -0.5983
  426MOL0     C56162   5.592   2.434   5.973 -0.1384  0.5866  0.0993
  426MOL0     C56163   5.451   2.470   5.957 -0.6907 -0.3024 -0.1559
  426MOL0     C56164   5.344   2.513   5.944  0.5689  0.5470  0.7399
  426MOL0     C56165   5.950   1.999   6.048 -0.1169 -1.0671  0.2851
  426MOL0     C56166   6.010   1.891   6.107 -0.0072  1.1052 -0.2656
  426MOL0     H56167   5.775   1.410   6.391 -0.0016  0.0832  0.9518
  426MOL0     H56168   5.838   1.223   6.544 -1.8332 -0.8971 -3.2054
  426MOL0     H56169   6.090   0.962   6.628  0.6415 -0.6593  1.4020
  426MOL0     H56170   5.947   1.035   6.576  0.3394 -0.4889  0.2917
  426MOL0     H56171   5.930   1.117   6.822  1.7353  1.6148 -3.1040
  426MOL0     H56172   6.072   1.021   6.852  0.6167 -3.3556  0.8259
  426MOL0     H56173   5.887   0.847   6.720 -2.4604 -0.0397 -0.9871
  426MOL0     H56174   5.782   0.972   6.809  0.7237  1.5330  0.2407
  426MOL0     H56175   6.008   0.814   6.942 -0.6617 -2.6569  1.5424
  426MOL0     H56176   5.873   0.871   7.032  1.5827 -2.6594  1.3675
  426MOL0     H56177   5.716   0.702   6.904  0.5059  1.0679 -1.2159
  426MOL0     H56178   5.836   0.639   7.025  0.7263 -2.3435 -1.8382
  426MOL0     H56179   5.995   0.588   6.848  1.7233  3.1234 -1.8041
  426MOL0     H56180   5.882   0.641   6.726 -1.8890 -1.1009 -0.0952
  426MOL0     H56181   5.854   0.425   6.940  0.9398 -4.3633 -1.2673
  426MOL0     H56182   5.731   0.463   6.816  0.6352  0.2257  0.2017
  426MOL0     H56183   6.009   0.342   6.766  0.5914 -1.1382 -1.9651
  426MOL0     H56184   5.915   0.431   6.640 -1.6013  1.9657  1.8410
  426MOL0     H56185   5.745   0.257   6.504  0.0503  1.4608  1.2204
  426MOL0     H56186   5.832  -0.056   6.430 -1.7366 -4.9198 -1.0087
  426MOL0     H56187   5.663   0.010   6.425  0.6991  1.2338 -0.6397
  426MOL0     H56188   5.767  -0.203   6.603  1.4631  2.3448  2.1570
  426MOL0     H56189   5.661  -0.223   6.452 -2.5645  1.1440 -0.0278
  426MOL0     H56190   5.520  -0.221   6.668  0.5343  0.0922  1.0172
  426MOL0     H56191   5.599  -0.064   6.722 -1.6137  1.7526 -0.1021
  426MOL0     H56192   5.494   0.064   6.594 -0.4487 -1.6326  4.4707
  426MOL0     H56193   5.362  -0.056   6.625 -0.0283  1.6507  1.7460
  426MOL0     H56194   5.195   0.060   6.526 -0.1107 -0.7960  0.3642
  426MOL0     H56195   5.002   0.124   6.365  0.9553 -0.1399  0.0122
  426MOL0     H56196   5.078   0.258   5.770 -1.0862 -1.5692 -0.6260
  426MOL0     H56197   4.926   0.390   5.599 -0.1743 -0.7164 -1.1746
  426MOL0     H56198   4.480   0.312   5.650  0.8203  1.9027  1.9059
  426MOL0     H56199   4.566   0.219   5.522  0.1051  0.3434 -0.1551
  426MOL0     H56200   4.441   0.498   5.507  2.2692  0.9794  0.0855
  426MOL0     H56201   4.395   0.337   5.423  1.4152 -0.3210 -3.2002
  426MOL0     H56202   4.571   0.355   5.272 -0.7471 -0.5688  0.1538
  426MOL0     H56203   4.662   0.469   5.378  2.1569 -4.5547 -1.6457
  426MOL0     H56204   4.386   0.544   5.275  1.1094 -3.4465  2.4766
  426MOL0     H56205   4.516   0.651   5.321 -0.5764  0.1341 -0.0206
  426MOL0     H56206   4.499   0.672   5.089  0.6487  0.9379 -0.8892
  426MOL0     H56207   4.510   0.488   5.068 -1.2646 -0.6890  3.3744
  426MOL0     H56208   4.756   0.509   5.176  0.9546  0.2584  0.4276
  426MOL0     H56209   4.731   0.681   5.180 -2.7185  1.4397 -1.1573
  426MOL0     H56210   4.716   0.488   4.934  0.9312 -2.7326  2.6896
  426MOL0     H56211   4.708   0.663   4.928 -0.3249  0.8576  3.6391
  426MOL0     H56212   4.953   0.509   4.908  0.6648  2.0351 -2.3122
  426MOL0     H56213   4.947   0.541   5.076 -2.1593  2.4186  1.1182
  426MOL0     H56214   4.603   0.239   5.809  0.5019  2.3354 -0.4710
  426MOL0     H56215   4.748   0.108   5.969 -0.2331  1.7791  1.9272
  426MOL0     H56216   5.245   0.021   6.031 -2.3306 -2.5972  0.4900
  426MOL0     H56217   5.449  -0.026   6.195  1.8714  2.6593  2.5682
  426MOL0     H56218   6.234   1.369   6.577  1.3562 -1.4892 -0.5327
  426MOL0     H56219   6.186   1.558   6.404 -0.1616 -1.0185 -2.8152
  426MOL0     H56220   5.733   1.767   6.262 -2.2798  2.1912 -0.9775
  426MOL0     H56221   5.621   1.919   6.137 -0.5849  2.6441 -3.1176
  426MOL0     H56222   5.564   2.136   6.065  0.3540 -3.6676  0.8745
  426MOL0     H56223   5.563   2.012   5.955 -0.5125 -0.0025  1.1428
  426MOL0     H56224   5.608   2.154   5.766  1.3371  0.6320  1.0620
  426MOL0     H56225   5.466   2.209   5.841  0.3157 -1.5124 -1.0587
  426MOL0     H56226   5.610   2.399   5.768  0.8100 -3.9809 -4.0836
  426MOL0     H56227   5.749   2.344   5.866 -0.1550  2.3913  1.9381
  426MOL0     H56228   5.603   2.375   6.065 -0.4117  0.0035 -0.2381
  426MOL0     H56229   5.654   2.524   5.980  2.2017 -0.9521  0.1898
  426MOL0     H56230   5.239   2.534   5.940 -0.3780 -2.9772  2.7086
  426MOL0     H56231   6.009   2.077   6.001  1.5285 -2.3062  0.2339
  426MOL0     H56232   6.118   1.897   6.111  0.2722 -1.7959 -1.3267
  427MOL0     O56233   6.609   4.291   2.671 -0.6390 -0.2743  0.2932
  427MOL0     C56234   6.616   4.168   2.654 -0.6249 -0.4225 -0.1456
  427MOL0     O56235   6.727   4.093   2.681  0.1567  0.6080 -0.1150
  427MOL0     C56236   6.807   4.141   2.777 -0.2171 -0.4112  0.2788
  427MOL0     C56237   6.900   4.246   2.754  0.1710 -0.2873  0.4202
  427MOL0     C56238   6.989   4.297   2.846 -0.9879 -0.3524  1.0716
  427MOL0     C56239   6.985   4.243   2.979 -0.1855  0.1386 -0.7065
  427MOL0     O56240   7.059   4.312   3.074  0.2412  0.2047 -0.7989
  427MOL0     C56241   7.034   4.282   3.216 -0.1442 -0.0524 -0.5614
  427MOL0     C56242   7.124   4.347   3.309 -1.2891 -0.1720  0.3034
  427MOL0     C56243   7.189   4.478   3.253 -0.2909  0.4389  1.1842
  427MOL0     C56244   7.270   4.569   3.352 -1.2217  0.7228  0.4031
  427MOL0     C56245   7.423   4.584   3.354  0.8797 -0.3743  0.4259
  427MOL0     C56246   7.484   4.460   3.412 -0.0273  0.2952 -0.4913
  427MOL0     C56247   7.624   4.495   3.455  0.6754 -0.8726  0.3430
  427MOL0     C56248   7.693   4.371   3.500  0.8157 -0.3571  0.4201
  427MOL0     N56249   7.832   4.388   3.548  0.7799  0.5045  0.3764
  427MOL0     C56250   7.863   4.443   3.666 -0.5890  0.6965  0.2060
  427MOL0     C56251   8.000   4.446   3.665  0.3344  0.5114 -0.0139
  427MOL0     C56252   8.098   4.486   3.773 -0.6586 -0.7608  0.3230
  427MOL0     C56253   8.201   4.593   3.709  0.5441  0.6203  0.4770
  427MOL0     C56254   8.145   4.732   3.703  0.7344 -0.2291 -0.9032
  427MOL0     C56255   8.245   4.851   3.654  0.7274 -0.0155  0.3173
  427MOL0     O56256   8.367   4.853   3.733  0.3094  0.0963 -0.5589
  427MOL0     C56257   8.361   4.932   3.845 -0.5201 -0.5080 -0.4441
  427MOL0     C56258   8.245   5.007   3.875  0.3455 -0.8937  0.8851
  427MOL0     C56259   8.246   5.102   3.976  0.0350 -0.2507 -0.7523
  427MOL0     C56260   8.342   5.100   4.074 -0.0105  0.2733  0.5245
  427MOL0     C56261   8.338   5.203   4.182  0.9198  0.6447  0.2776
  427MOL0     O56262   8.220   5.266   4.200  0.4936 -0.1063  0.1867
  427MOL0     C56263   8.210   5.374   4.296 -0.2572  1.0629 -0.3744
  427MOL0     C56264   8.101   5.376   4.383 -0.5769  0.1104  0.4646
  427MOL0     C56265   8.078   5.471   4.472 -0.6034 -0.6221 -1.1094
  427MOL0     C56266   8.158   5.587   4.482 -0.7136  0.4751  0.0868
  427MOL0     O56267   8.118   5.698   4.561 -0.1025  0.8590  0.1399
  427MOL0     C56268   8.194   5.813   4.591 -0.1299 -0.4292 -0.3527
  427MOL0     C56269   8.298   5.770   4.695 -0.2856 -0.2786  0.1454
  427MOL0     C56270   8.423   5.857   4.727  0.5335 -0.5834 -0.2947
  427MOL0     C56271   8.525   5.777   4.812  0.9886 -0.1324 -0.9049
  427MOL0     C56272   8.631   5.864   4.884  0.7653 -0.0087  0.3150
  427MOL0     C56273   8.742   5.899   4.796  0.7831 -0.0881 -0.4727
  427MOL0     C56274   8.853   5.960   4.876 -0.1035  0.3289 -0.7760
  427MOL0     C56275   8.997   5.935   4.813 -0.1411  0.9580  0.0870
  427MOL0    Cl56276   9.025   5.760   4.815  0.3597 -0.7229  0.2110
  427MOL0     C56277   8.277   5.589   4.398 -0.0782 -0.8361 -0.7355
  427MOL0     C56278   8.304   5.484   4.310 -0.0666  0.8148  0.0129
  427MOL0     O56279   8.434   5.206   4.260 -0.3473  0.4372  0.0624
  427MOL0     C56280   8.462   5.031   4.046 -0.4779  0.7778  0.2379
  427MOL0     C56281   8.474   4.948   3.928 -0.1633  0.2284 -1.2524
  427MOL0     N56282   8.041   4.408   3.540  1.7306  0.3328  0.0422
  427MOL0     N56283   7.939   4.351   3.471 -0.6075 -0.6577  0.3089
  427MOL0     C56284   6.905   4.132   3.000 -0.0962 -0.3913  0.4839
  427MOL0     C56285   6.825   4.079   2.897  0.4621 -0.0205  0.4535
  427MOL0     C56286   6.507   4.095   2.583  0.4064 -0.8168 -0.1252
  427MOL0     C56287   6.466   3.964   2.605 -0.5255  0.2040 -0.1854
  427MOL0     C56288   6.360   3.902   2.548 -0.3435  0.2659 -0.7834
  427MOL0     C56289   6.271   3.971   2.465 -0.6063  0.3737 -0.1913
  427MOL0     O56290   6.169   3.905   2.427 -0.1257  0.0851  0.3490
  427MOL0     C56291   6.064   3.962   2.351  1.0333 -0.4204  0.3178
  427MOL0     C56292   5.982   4.084   2.414 -0.5090  0.3267  0.1908
  427MOL0     C56293   5.909   4.049   2.547  0.1627  0.8846  0.1160
  427MOL0     C56294   5.834   4.165   2.610  0.1209 -0.7855  0.3270
  427MOL0     C56295   5.772   4.140   2.741 -0.5249  0.0456 -0.9511
  427MOL0     C56296   5.742   4.112   2.857  0.7432 -0.3063 -0.5374
  427MOL0     C56297   6.309   4.107   2.444 -0.1621  0.4750  0.2508
  427MOL0     C56298   6.428   4.159   2.485 -0.8424 -0.3950  0.9580
  427MOL0     H56299   6.892   4.294   2.657  0.0863  0.0421  0.5903
  427MOL0     H56300   7.048   4.385   2.824 -1.8256  0.3573  1.5862
  427MOL0     H56301   7.040   4.174   3.229  0.4976 -0.1538 -1.5985
  427MOL0     H56302   6.935   4.327   3.230  0.7615  2.7288 -2.2396
  427MOL0     H56303   7.208   4.279   3.321 -2.5672 -2.0961 -1.0805
  427MOL0     H56304   7.085   4.373   3.408  1.9656 -0.2157  1.7276
  427MOL0     H56305   7.097   4.531   3.227 -1.0571 -1.1831  0.4693
  427MOL0     H56306   7.243   4.465   3.159 -0.7086 -0.1673  1.0240
  427MOL0     H56307   7.239   4.672   3.336  0.0235  1.0519  0.0049
  427MOL0     H56308   7.232   4.542   3.451  1.1568  1.1024  1.4904
  427MOL0     H56309   7.446   4.674   3.412  0.8319 -0.2947  0.3209
  427MOL0     H56310   7.455   4.593   3.250 -0.7180 -1.0317 -0.1480
  427MOL0     H56311   7.472   4.376   3.343  0.7360  0.2963 -0.6341
  427MOL0     H56312   7.433   4.427   3.503  1.2937  1.1388  0.5940
  427MOL0     H56313   7.675   4.558   3.382 -1.6129  0.4224 -0.2617
  427MOL0     H56314   7.604   4.569   3.534  0.0703  1.1244 -1.5628
  427MOL0     H56315   7.689   4.305   3.412 -0.5784 -1.0542  0.9784
  427MOL0     H56316   7.634   4.313   3.571 -0.5506  0.3754 -0.0935
  427MOL0     H56317   7.795   4.493   3.734 -0.5723  0.9156  0.0610
  427MOL0     H56318   8.155   4.398   3.805 -0.7979 -1.2540 -0.7312
  427MOL0     H56319   8.048   4.522   3.863  0.4313 -1.5784  1.2836
  427MOL0     H56320   8.243   4.558   3.614 -0.3435 -0.1070  0.3324
  427MOL0     H56321   8.284   4.592   3.781 -0.3478  1.2511  1.5392
  427MOL0     H56322   8.056   4.730   3.638  0.3447  5.2645 -0.9603
  427MOL0     H56323   8.110   4.759   3.802  1.0823  2.2501 -1.3884
  427MOL0     H56324   8.188   4.943   3.638  0.3553 -0.3832 -0.5609
  427MOL0     H56325   8.274   4.829   3.551 -0.5054 -0.4873  0.0458
  427MOL0     H56326   8.156   4.997   3.813  0.7202  0.9973 -0.0335
  427MOL0     H56327   8.153   5.158   3.981  0.0871 -0.1537 -0.8795
  427MOL0     H56328   8.036   5.289   4.379 -2.6083  1.6109 -3.6679
  427MOL0     H56329   7.983   5.481   4.524  1.8310 -1.7138  4.2104
  427MOL0     H56330   8.127   5.886   4.636  0.6326 -1.1698  2.1494
  427MOL0     H56331   8.244   5.866   4.509 -1.0529  2.0140  0.5622
  427MOL0     H56332   8.326   5.664   4.692  1.7654  0.1938  0.5908
  427MOL0     H56333   8.229   5.766   4.780 -3.1301  2.5400 -1.8344
  427MOL0     H56334   8.383   5.943   4.782  0.8233 -0.9758  0.5502
  427MOL0     H56335   8.466   5.897   4.635  2.8457 -2.7215 -0.2492
  427MOL0     H56336   8.477   5.719   4.891  2.3948  0.2912  0.3066
  427MOL0     H56337   8.569   5.705   4.742  3.1604  1.4101 -1.2319
  427MOL0     H56338   8.675   5.794   4.957  3.7371  1.4554  0.0957
  427MOL0     H56339   8.591   5.957   4.925 -0.9825  0.6342 -2.6091
  427MOL0     H56340   8.702   5.964   4.718  2.0769  0.2709 -0.8621
  427MOL0     H56341   8.772   5.807   4.744 -1.5677 -0.3567 -1.4833
  427MOL0     H56342   8.841   6.066   4.900  1.5294 -0.0001  2.0627
  427MOL0     H56343   8.847   5.909   4.973  1.4891  1.5519  0.0223
  427MOL0     H56344   9.077   5.985   4.869 -1.3587 -1.3780  4.3686
  427MOL0     H56345   8.990   5.963   4.708 -1.5061  1.8211  0.3850
  427MOL0     H56346   8.327   5.684   4.383 -1.8695  0.1452 -0.8164
  427MOL0     H56347   8.377   5.520   4.238  0.6026  5.1791  2.5247
  427MOL0     H56348   8.540   5.051   4.119 -2.9149  0.9475  2.9826
  427MOL0     H56349   8.564   4.894   3.901  1.7580  2.4935  0.1883
  427MOL0     H56350   6.918   4.084   3.096 -2.1568  1.4097  1.7767
  427MOL0     H56351   6.776   3.984   2.914 -1.5239  0.3688 -2.3586
  427MOL0     H56352   6.506   3.892   2.675 -1.5874 -1.8068 -1.5094
  427MOL0     H56353   6.329   3.803   2.577 -0.0636  0.3289 -0.2580
  427MOL0     H56354   5.997   3.877   2.335  2.1459 -1.2580 -0.0302
  427MOL0     H56355   6.093   3.997   2.251  3.4567 -1.0970  0.7099
  427MOL0     H56356   6.039   4.176   2.427  0.6205 -0.1526 -1.1061
  427MOL0     H56357   5.906   4.108   2.339 -0.6983 -1.6502 -0.3206
  427MOL0     H56358   5.981   4.019   2.624  1.5124  4.9938  0.7101
  427MOL0     H56359   5.842   3.970   2.512 -0.3967  2.7424 -3.5038
  427MOL0     H56360   5.888   4.259   2.621 -1.8931  0.4143  0.6093
  427MOL0     H56361   5.751   4.189   2.543 -2.1570 -1.6527  2.6347
  427MOL0     H56362   5.701   4.094   2.954  0.5111 -2.4905 -0.9748
  427MOL0     H56363   6.237   4.156   2.381 -2.9327 -2.0894  1.1745
  427MOL0     H56364   6.443   4.258   2.443 -2.6028  0.1299  1.5060
  428MOL0     O56365   4.672   8.274   1.686  0.6246  0.1858  0.2032
  428MOL0     C56366   4.789   8.278   1.734  0.3997 -0.3647  0.1393
  428MOL0     O56367   4.864   8.171   1.770  0.3586  0.1639  0.0155
  428MOL0     C56368   4.815   8.051   1.716  0.1079 -0.1356  0.4446
  428MOL0     C56369   4.747   7.960   1.803 -0.1349 -0.4912  0.6269
  428MOL0     C56370   4.706   7.834   1.765 -0.1014 -0.0376 -0.5441
  428MOL0     C56371   4.740   7.793   1.627  0.9847  0.6823 -0.9423
  428MOL0     O56372   4.701   7.669   1.585  0.4648 -0.3126  0.2290
  428MOL0     C56373   4.738   7.624   1.447 -0.2709  0.2927 -1.4888
  428MOL0     C56374   4.674   7.480   1.435  0.1527 -0.3629  0.2707
  428MOL0     C56375   4.527   7.458   1.384 -0.7245 -0.5342  0.0457
  428MOL0     C56376   4.428   7.460   1.509  0.0885 -0.0970  0.9726
  428MOL0     C56377   4.357   7.591   1.510 -0.0499 -1.2060  0.5872
  428MOL0     C56378   4.291   7.627   1.639 -0.0765 -0.7626 -0.6070
  428MOL0     C56379   4.378   7.712   1.740  0.1986 -0.6589 -0.0814
  428MOL0     C56380   4.289   7.746   1.857  0.5383  0.0379  0.4414
  428MOL0     N56381   4.357   7.844   1.951  0.0557 -0.4981  0.3651
  428MOL0     C56382   4.352   7.983   1.933 -0.0498 -0.1073  0.5013
  428MOL0     C56383   4.414   8.029   2.043 -1.4602 -0.0555 -0.0103
  428MOL0     C56384   4.459   8.171   2.085  0.3014  0.4358 -0.8072
  428MOL0     C56385   4.430   8.277   1.975 -0.0213  0.4100 -1.4350
  428MOL0     C56386   4.467   8.419   2.008 -0.9481 -0.4648 -0.2545
  428MOL0     C56387   4.420   8.511   1.894 -1.4091  0.8011  0.3719
  428MOL0     O56388   4.276   8.528   1.885 -0.1214 -0.1344 -0.6921
  428MOL0     C56389   4.206   8.601   1.978  0.4086  0.2204  0.2772
  428MOL0     C56390   4.091   8.551   2.019 -1.4502  0.6800 -0.0661
  428MOL0     C56391   4.018   8.620   2.119 -0.0366 -0.3443 -0.0320
  428MOL0     C56392   4.063   8.731   2.186  0.1038 -0.5526  0.6238
  428MOL0     C56393   3.985   8.800   2.296  0.6987  0.5381  0.8601
  428MOL0     O56394   3.861   8.744   2.324 -0.0756  0.2800 -0.9024
  428MOL0     C56395   3.805   8.767   2.450  0.8912 -0.2477  0.1852
  428MOL0     C56396   3.668   8.782   2.447 -0.7398 -0.5481  1.1918
  428MOL0     C56397   3.594   8.789   2.569 -0.6448 -0.0018  0.2379
  428MOL0     C56398   3.660   8.789   2.687  0.1048 -0.1935 -0.4423
  428MOL0     O56399   3.588   8.797   2.802  0.0675  0.0596  0.0449
  428MOL0     C56400   3.646   8.777   2.935  0.8138  1.3912  0.2695
  428MOL0     C56401   3.528   8.768   3.032  0.8405 -0.0618  0.3219
  428MOL0     C56402   3.581   8.754   3.172  0.7511 -0.6005 -0.0202
  428MOL0     C56403   3.463   8.719   3.274  0.7043  0.7956  0.3657
  428MOL0     C56404   3.523   8.678   3.405  0.7725  0.3448  0.5505
  428MOL0     C56405   3.590   8.798   3.480  0.5689 -1.0637  0.7409
  428MOL0     C56406   3.629   8.756   3.621 -0.1408 -0.7961 -0.8972
  428MOL0     C56407   3.675   8.870   3.719  0.4109  0.2065 -0.3212
  428MOL0    Cl56408   3.528   8.960   3.743 -0.3500  0.2276 -0.2818
  428MOL0     C56409   3.804   8.790   2.681 -0.3995  0.7214  0.1213
  428MOL0     C56410   3.879   8.781   2.569 -0.4303  0.4289 -0.0929
  428MOL0     O56411   4.054   8.875   2.362 -0.1462 -0.1192  0.3231
  428MOL0     C56412   4.190   8.779   2.147 -0.6158  1.1887  0.6044
  428MOL0     C56413   4.254   8.713   2.041 -0.6342 -0.0576 -0.1728
  428MOL0     N56414   4.453   7.917   2.121 -0.2496  0.7060  0.4713
  428MOL0     N56415   4.428   7.805   2.060  0.0954 -0.0546 -1.2193
  428MOL0     C56416   4.802   7.884   1.546 -0.6634 -0.1304 -0.1910
  428MOL0     C56417   4.847   8.009   1.587 -0.6307  0.4065  0.3224
  428MOL0     C56418   4.853   8.412   1.753 -0.3542  0.0245  1.1482
  428MOL0     C56419   4.775   8.524   1.756  0.3064 -0.1546  0.8680
  428MOL0     C56420   4.836   8.653   1.770 -0.7964  0.7970  0.3776
  428MOL0     C56421   4.981   8.661   1.779  0.3261  0.5373 -0.0715
  428MOL0     O56422   5.031   8.787   1.781  0.8275 -0.6842 -0.5553
  428MOL0     C56423   5.166   8.809   1.808  0.0359  0.4253 -0.1428
  428MOL0     C56424   5.200   8.806   1.959  0.1375 -0.6560 -0.1972
  428MOL0     C56425   5.119   8.922   2.037  0.6148  0.6021 -0.3474
  428MOL0     C56426   5.185   8.922   2.171 -0.7050 -0.2862 -0.5892
  428MOL0     C56427   5.116   9.017   2.265  1.3536 -0.7829 -0.8274
  428MOL0     C56428   5.039   9.096   2.333 -0.4605  0.5626 -0.2609
  428MOL0     C56429   5.057   8.541   1.772  1.5922 -0.1634  0.5760
  428MOL0     C56430   4.994   8.420   1.759  0.4182  0.2416  0.3255
  428MOL0     H56431   4.734   8.001   1.903 -1.0142  1.4557 -0.2332
  428MOL0     H56432   4.640   7.778   1.830 -0.9175  0.2958 -1.0649
  428MOL0     H56433   4.846   7.623   1.436 -0.3275  0.1463 -2.0997
  428MOL0     H56434   4.697   7.698   1.378 -1.5555  1.1087  0.0911
  428MOL0     H56435   4.689   7.428   1.530  0.9274  1.1292  1.0071
  428MOL0     H56436   4.722   7.428   1.352 -1.0501  0.4517 -0.9620
  428MOL0     H56437   4.523   7.361   1.333  2.2129  0.1166 -1.6917
  428MOL0     H56438   4.509   7.544   1.320 -2.2785 -0.6315  0.3083
  428MOL0     H56439   4.352   7.384   1.488  0.9145 -0.3416 -1.4444
  428MOL0     H56440   4.477   7.428   1.601 -1.1904 -0.9256  1.3975
  428MOL0     H56441   4.288   7.577   1.426  0.1536  0.8378  0.0384
  428MOL0     H56442   4.427   7.669   1.479 -0.3296 -1.6630 -1.3442
  428MOL0     H56443   4.249   7.538   1.687 -0.4165  0.1351  0.8171
  428MOL0     H56444   4.213   7.696   1.606  2.3234  2.1613 -0.5515
  428MOL0     H56445   4.463   7.648   1.767  2.0620  1.5775 -0.3641
  428MOL0     H56446   4.406   7.812   1.707 -0.6225  0.5696  2.6681
  428MOL0     H56447   4.284   7.648   1.906  2.6479  0.2502  1.1945
  428MOL0     H56448   4.195   7.790   1.824  0.3808  1.8809  3.0606
  428MOL0     H56449   4.312   8.037   1.848  0.0567 -1.7929 -0.6725
  428MOL0     H56450   4.563   8.174   2.121 -0.8278  1.0726  2.8730
  428MOL0     H56451   4.420   8.196   2.184  4.7056 -3.6781  2.4203
  428MOL0     H56452   4.322   8.272   1.956 -0.0863 -0.6349 -0.8653
  428MOL0     H56453   4.473   8.240   1.881  0.9226 -2.0410 -0.1273
  428MOL0     H56454   4.426   8.446   2.106  0.0246 -0.5699  0.1976
  428MOL0     H56455   4.575   8.431   2.022 -1.0792  4.3539 -1.7799
  428MOL0     H56456   4.451   8.453   1.807 -2.6368  0.4475  0.1452
  428MOL0     H56457   4.469   8.609   1.898  0.5161 -0.1617  1.5404
  428MOL0     H56458   4.054   8.459   1.973  3.6641 -0.3523 -2.8044
  428MOL0     H56459   3.924   8.569   2.138  0.8614 -1.4506  1.7311
  428MOL0     H56460   3.607   8.762   2.359  1.1571 -0.8189 -0.1089
  428MOL0     H56461   3.486   8.795   2.568 -0.6580 -0.1607 -0.7927
  428MOL0     H56462   3.699   8.871   2.954  1.4312  1.2814 -0.8266
  428MOL0     H56463   3.701   8.683   2.947 -0.8306  0.1165 -1.6406
  428MOL0     H56464   3.462   8.686   3.003  3.2940 -2.0931  0.1093
  428MOL0     H56465   3.469   8.860   3.026 -2.2199 -1.9750 -2.3164
  428MOL0     H56466   3.634   8.840   3.211  0.3376 -0.4698  0.2596
  428MOL0     H56467   3.652   8.671   3.177  1.3151 -0.0993  0.3572
  428MOL0     H56468   3.392   8.801   3.285 -1.9158 -0.8626 -2.5744
  428MOL0     H56469   3.413   8.631   3.234  0.1262  1.6275 -0.7831
  428MOL0     H56470   3.599   8.603   3.384 -0.7458 -1.6610  1.8115
  428MOL0     H56471   3.442   8.636   3.465  1.0168  2.1289  2.2648
  428MOL0     H56472   3.511   8.874   3.481  1.8775  0.3404  0.7146
  428MOL0     H56473   3.668   8.834   3.413  0.7231 -4.0057 -0.7780
  428MOL0     H56474   3.544   8.709   3.670  0.5883 -2.0686 -0.8186
  428MOL0     H56475   3.698   8.671   3.622  2.5336  1.2022  0.3152
  428MOL0     H56476   3.756   8.936   3.687  0.2085  2.4669  3.2560
  428MOL0     H56477   3.694   8.822   3.816  0.1619 -1.1726 -0.9342
  428MOL0     H56478   3.863   8.809   2.770 -0.0650 -0.5121  0.1848
  428MOL0     H56479   3.987   8.780   2.578 -0.0021 -1.3900 -3.6193
  428MOL0     H56480   4.239   8.862   2.197  1.6189  0.9787 -1.0916
  428MOL0     H56481   4.356   8.746   2.020 -0.3580 -0.3205  0.7071
  428MOL0     H56482   4.826   7.862   1.443 -1.7827  1.7741 -0.9072
  428MOL0     H56483   4.919   8.064   1.527  1.4635 -1.3405  1.0954
  428MOL0     H56484   4.671   8.518   1.726 -0.3444  0.3063  2.8866
  428MOL0     H56485   4.769   8.739   1.771 -1.4737  0.3383 -1.8009
  428MOL0     H56486   5.193   8.909   1.773 -1.1793  0.6292 -0.5378
  428MOL0     H56487   5.223   8.737   1.749 -0.1190  1.2893 -1.3844
  428MOL0     H56488   5.189   8.708   2.006 -2.4497 -0.3115  0.0135
  428MOL0     H56489   5.306   8.833   1.960  0.0439 -0.2738  1.3304
  428MOL0     H56490   5.018   8.881   2.039  0.9673 -0.5012 -2.3969
  428MOL0     H56491   5.116   9.023   1.995 -1.8663  1.1598  0.9436
  428MOL0     H56492   5.179   8.823   2.217 -0.8638  0.1865  0.4483
  428MOL0     H56493   5.290   8.950   2.155 -0.7828  0.7578  0.5683
  428MOL0     H56494   4.979   9.161   2.394 -0.3395  1.1605 -0.7698
  428MOL0     H56495   5.166   8.538   1.779  2.0266 -0.8342 -3.6611
  428MOL0     H56496   5.048   8.326   1.765  1.8037  1.1045  2.2941
  429MOL0     O56497   8.684   6.727   3.484 -0.1363  0.3443  0.1690
  429MOL0     C56498   8.723   6.774   3.591  0.6334  0.1305  0.2854
  429MOL0     O56499   8.636   6.788   3.700  0.1992 -0.6827  0.5649
  429MOL0     C56500   8.505   6.756   3.685 -0.1264 -0.2715  0.2379
  429MOL0     C56501   8.448   6.694   3.792  1.0125 -0.3770  0.2210
  429MOL0     C56502   8.323   6.631   3.790  0.1284  0.3543  1.8432
  429MOL0     C56503   8.238   6.653   3.677 -0.2772 -0.3492 -1.1084
  429MOL0     O56504   8.114   6.592   3.695 -0.1178 -0.8117  0.7135
  429MOL0     C56505   8.006   6.680   3.672  0.8155 -1.5448  0.3925
  429MOL0     C56506   7.886   6.646   3.761  0.0207 -0.4453 -0.6276
  429MOL0     C56507   7.801   6.529   3.702  1.5062 -0.7002 -0.8467
  429MOL0     C56508   7.652   6.530   3.748  0.6609  0.6348 -0.0669
  429MOL0     C56509   7.557   6.614   3.667 -0.1292  0.9241  0.5184
  429MOL0     C56510   7.459   6.696   3.743  0.8503 -0.7098  0.3231
  429MOL0     C56511   7.392   6.806   3.654  0.7059 -0.7203 -0.2679
  429MOL0     C56512   7.342   6.930   3.737 -0.6719 -0.4119 -0.3385
  429MOL0     N56513   7.425   6.985   3.851  0.2478 -0.1419  0.1302
  429MOL0     C56514   7.559   7.005   3.866 -0.9188  0.2389  0.3847
  429MOL0     C56515   7.579   7.029   3.996  0.5537 -0.5774 -1.3293
  429MOL0     C56516   7.716   7.045   4.052 -0.0750  0.3597 -0.4029
  429MOL0     C56517   7.789   6.912   4.069 -0.2459  0.7924  0.2128
  429MOL0     C56518   7.926   6.925   4.140 -0.4130  0.2114 -0.1517
  429MOL0     C56519   7.931   6.828   4.268  0.2764 -0.6349  0.0701
  429MOL0     O56520   8.037   6.845   4.361  0.2316  0.2206  0.9602
  429MOL0     C56521   8.149   6.774   4.324  0.4103 -0.2914 -0.3624
  429MOL0     C56522   8.245   6.812   4.235 -0.1328 -0.0404 -0.0363
  429MOL0     C56523   8.343   6.728   4.185 -0.4916 -0.8579  0.1010
  429MOL0     C56524   8.361   6.603   4.247  1.0346 -0.2428  0.4456
  429MOL0     C56525   8.462   6.507   4.195  0.4360  0.3147  0.4337
  429MOL0     O56526   8.452   6.386   4.230  0.1857  0.2318  0.3422
  429MOL0     C56527   8.544   6.292   4.178  1.4107  0.0066 -0.5110
  429MOL0     C56528   8.648   6.238   4.247 -0.0884 -0.1523  0.0342
  429MOL0     C56529   8.737   6.143   4.196 -0.2797 -0.7976  0.1691
  429MOL0     C56530   8.718   6.095   4.064  0.5924 -0.7980  0.8494
  429MOL0     O56531   8.801   5.995   4.013 -0.3089 -1.0970 -0.6048
  429MOL0     C56532   8.778   5.937   3.886  0.6090  0.3166  0.9814
  429MOL0     C56533   8.878   5.825   3.886  0.3045  0.9144 -0.7852
  429MOL0     C56534   9.028   5.861   3.878  0.6663  0.3029 -0.5440
  429MOL0     C56535   9.064   5.964   3.782  0.0888  0.5603  0.3535
  429MOL0     C56536   9.208   6.000   3.782 -0.2214  0.8883  0.2883
  429MOL0     C56537   9.317   5.897   3.753 -0.5780 -0.1724 -1.2160
  429MOL0     C56538   9.309   5.841   3.610  0.0391 -0.6916 -0.2124
  429MOL0     C56539   9.448   5.802   3.563 -0.2745 -1.1219 -0.2573
  429MOL0    Cl56540   9.533   5.962   3.508 -0.5557 -0.2321  0.3870
  429MOL0     C56541   8.605   6.147   3.991 -0.7884  0.4148  0.4290
  429MOL0     C56542   8.522   6.242   4.048 -0.1660  0.2236 -0.0773
  429MOL0     O56543   8.547   6.550   4.116  0.6482  0.0670 -0.4891
  429MOL0     C56544   8.269   6.564   4.339 -0.1961 -0.7122 -0.1116
  429MOL0     C56545   8.163   6.647   4.376  0.1203 -0.6691  1.0755
  429MOL0     N56546   7.462   7.048   4.052 -0.7001 -0.5012  0.3232
  429MOL0     N56547   7.370   7.035   3.963 -1.3989  0.7116  0.4401
  429MOL0     C56548   8.289   6.730   3.568 -0.1192  0.1607 -1.1057
  429MOL0     C56549   8.418   6.773   3.569  0.1776  0.1156  0.0573
  429MOL0     C56550   8.870   6.803   3.596 -1.0949  0.5675 -0.1825
  429MOL0     C56551   8.957   6.752   3.500 -0.7561 -0.5788 -0.0847
  429MOL0     C56552   9.100   6.747   3.522 -0.8128 -0.4913  0.5871
  429MOL0     C56553   9.141   6.808   3.641 -0.2960  0.0505 -0.0435
  429MOL0     O56554   9.279   6.817   3.680 -0.1348 -0.2458 -0.0353
  429MOL0     C56555   9.377   6.743   3.613 -0.0266  0.4826  0.2946
  429MOL0     C56556   9.450   6.815   3.503  0.6331 -0.4280  0.7495
  429MOL0     C56557   9.580   6.751   3.457  0.0658 -0.1709 -0.1214
  429MOL0     C56558   9.556   6.662   3.336 -0.5319 -0.4933 -1.3568
  429MOL0     C56559   9.521   6.737   3.211  0.0644 -0.5315 -0.8412
  429MOL0     C56560   9.516   6.778   3.098  0.5557  0.8028 -0.3788
  429MOL0     C56561   9.050   6.863   3.727  0.7602 -0.1743  0.6958
  429MOL0     C56562   8.913   6.864   3.708  0.3737  0.5614  1.0385
  429MOL0     H56563   8.503   6.682   3.885  0.5870 -2.0576  0.2947
  429MOL0     H56564   8.298   6.566   3.873  0.7398  0.5537  2.1938
  429MOL0     H56565   7.978   6.684   3.567  2.7218 -2.2880 -0.1812
  429MOL0     H56566   8.039   6.783   3.692 -2.5470  0.4327 -3.0231
  429MOL0     H56567   7.825   6.737   3.760  0.8241  0.1404 -2.6574
  429MOL0     H56568   7.913   6.635   3.866 -2.5690 -0.0816  0.1481
  429MOL0     H56569   7.840   6.434   3.740  0.5305 -0.3965  1.0543
  429MOL0     H56570   7.796   6.536   3.593  0.5616  2.0657 -0.7110
  429MOL0     H56571   7.623   6.426   3.766  2.1884  0.5550  2.5120
  429MOL0     H56572   7.658   6.568   3.851  1.1664 -0.9750  0.5310
  429MOL0     H56573   7.507   6.539   3.605 -1.6682  1.0074  1.5974
  429MOL0     H56574   7.615   6.684   3.607 -0.0796 -0.1526 -0.7598
  429MOL0     H56575   7.522   6.741   3.821 -1.5693  1.1915  1.2839
  429MOL0     H56576   7.389   6.631   3.797 -0.1602  1.5759  1.9144
  429MOL0     H56577   7.456   6.847   3.576  0.8673  1.1388  0.7854
  429MOL0     H56578   7.300   6.766   3.610 -2.0742  1.7795  2.7495
  429MOL0     H56579   7.236   6.938   3.763 -0.6863 -1.0332 -0.1994
  429MOL0     H56580   7.355   7.015   3.669  0.4470  0.3626  0.8024
  429MOL0     H56581   7.629   7.005   3.783 -0.5962  1.6084  0.6362
  429MOL0     H56582   7.711   7.100   4.147 -0.1146  1.0945 -0.8248
  429MOL0     H56583   7.771   7.114   3.987  1.2297  1.6630  1.9521
  429MOL0     H56584   7.817   6.867   3.973 -0.0736  0.4041  0.4475
  429MOL0     H56585   7.727   6.838   4.120 -0.9745 -0.4440 -2.2816
  429MOL0     H56586   8.005   6.889   4.074 -0.3364 -0.9112  0.5209
  429MOL0     H56587   7.937   7.033   4.154  0.4781  0.0437  0.5745
  429MOL0     H56588   7.936   6.721   4.247  2.6622 -0.9057  1.5968
  429MOL0     H56589   7.839   6.853   4.322 -0.2569  1.1111 -1.5245
  429MOL0     H56590   8.233   6.918   4.213 -1.2125 -0.6868 -3.0938
  429MOL0     H56591   8.406   6.774   4.110 -1.4185  2.0970  1.0116
  429MOL0     H56592   8.671   6.275   4.347 -3.5124 -1.6133  1.5250
  429MOL0     H56593   8.823   6.124   4.259  1.0192  0.0889 -1.2579
  429MOL0     H56594   8.790   6.009   3.805 -1.6361 -0.2679  0.0346
  429MOL0     H56595   8.677   5.897   3.875  2.0363 -2.9529 -3.5006
  429MOL0     H56596   8.867   5.764   3.796 -2.5449  2.9062 -1.9451
  429MOL0     H56597   8.861   5.763   3.974  0.2303  1.1426 -0.6368
  429MOL0     H56598   9.093   5.776   3.861  4.8904  3.3821 -1.4451
  429MOL0     H56599   9.056   5.900   3.976  3.0351 -2.8275  0.1731
  429MOL0     H56600   9.042   5.927   3.682 -0.8335 -0.8715  1.0536
  429MOL0     H56601   8.995   6.048   3.800 -1.6581 -1.1912  2.5174
  429MOL0     H56602   9.231   6.042   3.881  0.5493  1.8501 -0.2807
  429MOL0     H56603   9.227   6.086   3.718  1.1069  0.7931  0.5190
  429MOL0     H56604   9.315   5.827   3.837  1.8635  3.9417  2.6847
  429MOL0     H56605   9.412   5.948   3.771 -1.1535 -0.0247  1.9271
  429MOL0     H56606   9.243   5.754   3.615  0.1549 -0.8860 -1.6512
  429MOL0     H56607   9.263   5.910   3.538 -1.0037 -1.4493 -0.2883
  429MOL0     H56608   9.439   5.744   3.471 -0.8333  0.2132 -1.0756
  429MOL0     H56609   9.514   5.751   3.635  1.3073  1.0765 -0.0512
  429MOL0     H56610   8.585   6.106   3.893 -0.4738 -2.8988  1.6225
  429MOL0     H56611   8.441   6.287   3.992 -1.0155 -0.4547  0.5750
  429MOL0     H56612   8.284   6.462   4.373  1.8896  0.3468  2.5200
  429MOL0     H56613   8.099   6.607   4.453  0.9311 -0.4061  1.8975
  429MOL0     H56614   8.225   6.773   3.491  1.1860  3.4149 -0.5330
  429MOL0     H56615   8.456   6.822   3.480  0.7411  0.0791  0.2733
  429MOL0     H56616   8.920   6.704   3.409  5.4098  1.0031 -4.0064
  429MOL0     H56617   9.167   6.713   3.444  0.4744 -0.0683  1.4753
  429MOL0     H56618   9.325   6.651   3.583 -0.7051  0.8904  0.1820
  429MOL0     H56619   9.450   6.709   3.687  0.9009  0.4294 -0.6331
  429MOL0     H56620   9.389   6.825   3.413  3.8588 -1.0960 -1.7088
  429MOL0     H56621   9.467   6.918   3.537  0.4113  0.2255 -1.0390
  429MOL0     H56622   9.631   6.706   3.543 -1.2439 -1.7963 -0.1407
  429MOL0     H56623   9.640   6.835   3.420 -4.0436  2.1274 -2.2535
  429MOL0     H56624   9.649   6.606   3.323  0.7737  0.7119  1.8048
  429MOL0     H56625   9.476   6.591   3.355  0.0231 -1.2500 -1.7589
  429MOL0     H56626   9.494   6.809   2.998 -1.0026  3.1472  0.6053
  429MOL0     H56627   9.099   6.908   3.812  0.7876 -1.5143  1.4137
  429MOL0     H56628   8.857   6.892   3.797 -2.9170  1.5460 -1.1598
  430MOL0     O56629   5.031   0.248   3.355 -0.7307  0.3977  0.1451
  430MOL0     C56630   4.996   0.260   3.469  0.1517 -0.2330 -0.1121
  430MOL0     O56631   5.016   0.373   3.546  0.2673  0.0596 -0.1247
  430MOL0     C56632   5.060   0.486   3.481  0.0103 -0.3890  1.0842
  430MOL0     C56633   4.963   0.586   3.447 -0.1197 -0.1478 -0.7723
  430MOL0     C56634   5.003   0.710   3.408  0.2614 -0.0760 -0.1750
  430MOL0     C56635   5.131   0.735   3.377 -1.0806  0.0425  0.1850
  430MOL0     O56636   5.170   0.857   3.335 -0.3168  0.2770  0.3216
  430MOL0     C56637   5.211   0.871   3.198  0.5725  0.0459  0.1105
  430MOL0     C56638   5.357   0.876   3.188 -0.3271 -0.2230 -0.1110
  430MOL0     C56639   5.420   0.925   3.054  0.5260  0.3953  0.6898
  430MOL0     C56640   5.574   0.969   3.085  0.3088 -0.0492  1.0353
  430MOL0     C56641   5.660   0.848   3.119  0.2427  0.9033  0.0558
  430MOL0     C56642   5.646   0.731   3.011 -0.1638  0.4996 -0.2908
  430MOL0     C56643   5.759   0.639   3.023 -0.8659  0.8825  0.3528
  430MOL0     C56644   5.771   0.578   3.161 -0.5789  0.2345  0.0835
  430MOL0     N56645   5.863   0.462   3.170 -0.0299  0.3182 -0.0761
  430MOL0     C56646   5.979   0.431   3.098 -0.4621  0.4863 -0.7057
  430MOL0     C56647   6.033   0.327   3.159  0.1000  0.5602 -0.5900
  430MOL0     C56648   6.180   0.281   3.146  0.0430 -0.5079  0.0028
  430MOL0     C56649   6.266   0.261   3.284  0.4217 -0.0862  0.6818
  430MOL0     C56650   6.187   0.172   3.381 -0.2101  1.2705  0.0074
  430MOL0     C56651   6.281   0.132   3.502  0.3192 -1.1410  1.1982
  430MOL0     O56652   6.321  -0.006   3.499 -0.7810  0.6723 -0.2531
  430MOL0     C56653   6.448  -0.033   3.517 -0.7799 -0.6272  0.5260
  430MOL0     C56654   6.479  -0.167   3.547  0.6697 -1.0352 -0.3106
  430MOL0     C56655   6.613  -0.219   3.557 -0.8076 -0.1578  0.1540
  430MOL0     C56656   6.723  -0.126   3.552 -0.1709 -0.6285 -0.6065
  430MOL0     C56657   6.861  -0.172   3.574  0.3401 -0.1975 -0.2211
  430MOL0     O56658   6.878  -0.305   3.573 -0.4448 -0.0334 -0.2820
  430MOL0     C56659   7.007  -0.343   3.575 -0.5182  0.2269 -0.0764
  430MOL0     C56660   7.086  -0.329   3.462 -0.0970  0.4559 -0.2869
  430MOL0     C56661   7.213  -0.392   3.464 -0.1830 -0.2278 -0.1896
  430MOL0     C56662   7.258  -0.460   3.577 -0.6057 -0.0310 -0.2270
  430MOL0     O56663   7.378  -0.517   3.579 -0.1432 -0.0372 -1.3282
  430MOL0     C56664   7.440  -0.525   3.709  0.1929  0.3861  0.5113
  430MOL0     C56665   7.567  -0.603   3.673 -0.3777  0.9218 -0.1565
  430MOL0     C56666   7.655  -0.620   3.795 -0.2586 -0.3787 -0.0041
  430MOL0     C56667   7.791  -0.672   3.781 -0.3378  0.6624 -0.5986
  430MOL0     C56668   7.879  -0.633   3.906 -0.0031  0.0504 -0.3255
  430MOL0     C56669   8.028  -0.679   3.893  0.4135 -0.1797 -0.7961
  430MOL0     C56670   8.102  -0.668   4.017  0.4421 -0.3299  0.5811
  430MOL0     C56671   8.244  -0.714   4.002 -0.2515 -0.0956  0.3497
  430MOL0    Cl56672   8.264  -0.880   4.026  0.4538  0.2003 -0.1066
  430MOL0     C56673   7.177  -0.446   3.693  0.1187  0.1511 -0.7099
  430MOL0     C56674   7.049  -0.394   3.695 -1.3983  0.4681  0.1397
  430MOL0     O56675   6.955  -0.088   3.575  0.0088 -0.2198  0.2062
  430MOL0     C56676   6.694   0.004   3.515  0.6683  0.2996  0.3520
  430MOL0     C56677   6.566   0.050   3.486  0.4961  0.3781  0.1832
  430MOL0     N56678   5.942   0.282   3.254  0.9173 -0.1933  0.1164
  430MOL0     N56679   5.845   0.367   3.261  2.0958 -0.4003 -0.3081
  430MOL0     C56680   5.230   0.625   3.377  0.5163  0.0092  0.5232
  430MOL0     C56681   5.192   0.509   3.441  0.1521 -0.1474 -0.0522
  430MOL0     C56682   4.962   0.139   3.532  0.4279 -0.6669  0.7651
  430MOL0     C56683   4.904   0.034   3.465  0.6396  0.1815  0.7497
  430MOL0     C56684   4.865  -0.082   3.525  0.8982  0.3191  0.0965
  430MOL0     C56685   4.901  -0.096   3.660  0.3677 -0.6775 -1.0911
  430MOL0     O56686   4.899  -0.219   3.726  0.1379 -1.0857 -0.2196
  430MOL0     C56687   4.872  -0.343   3.665  0.6373 -0.0327  0.2061
  430MOL0     C56688   4.726  -0.392   3.657  0.0399  0.5469 -0.2809
  430MOL0     C56689   4.660  -0.365   3.795  0.3060  0.1316 -0.7967
  430MOL0     C56690   4.522  -0.436   3.812 -0.2153  1.3497  0.5643
  430MOL0     C56691   4.542  -0.586   3.821  0.0876  0.4713 -0.1428
  430MOL0     C56692   4.568  -0.706   3.810  0.2214 -1.0550 -0.6817
  430MOL0     C56693   4.969   0.006   3.731  0.2535  0.3433 -0.3339
  430MOL0     C56694   5.001   0.121   3.666 -0.2190  0.6725 -0.2419
  430MOL0     H56695   4.862   0.580   3.487 -1.6840  0.3278 -4.3234
  430MOL0     H56696   4.933   0.793   3.401  0.3740  0.3640  2.7593
  430MOL0     H56697   5.170   0.965   3.159  2.0097  1.0420  0.8904
  430MOL0     H56698   5.169   0.799   3.127  0.9493  2.0469 -2.3197
  430MOL0     H56699   5.402   0.777   3.202 -0.8594 -0.2953  1.2280
  430MOL0     H56700   5.401   0.939   3.266  0.6315 -1.7314  0.6059
  430MOL0     H56701   5.363   1.013   3.023  0.6775  0.4477  0.5539
  430MOL0     H56702   5.411   0.847   2.979 -0.4379 -0.5158  1.7142
  430MOL0     H56703   5.614   1.018   2.996  0.8570 -0.7417  0.8932
  430MOL0     H56704   5.586   1.047   3.160  3.0544 -1.0010  1.7150
  430MOL0     H56705   5.623   0.809   3.214 -0.2415  0.5741 -0.2640
  430MOL0     H56706   5.765   0.878   3.128  1.4122 -3.1399  2.8543
  430MOL0     H56707   5.641   0.767   2.908  1.6216 -0.0828 -0.6245
  430MOL0     H56708   5.556   0.671   3.027  0.9512 -0.9188  1.0971
  430MOL0     H56709   5.742   0.557   2.952 -1.6579  0.6902  0.7557
  430MOL0     H56710   5.856   0.688   3.012  1.3455 -2.7809  1.7716
  430MOL0     H56711   5.679   0.564   3.218 -0.7718  1.6775  0.1575
  430MOL0     H56712   5.817   0.655   3.224  0.0848  1.8039 -2.1924
  430MOL0     H56713   6.028   0.488   3.020  0.3911 -1.7007 -1.8526
  430MOL0     H56714   6.232   0.358   3.089 -1.6469  0.9952  0.3894
  430MOL0     H56715   6.177   0.192   3.082  1.0114  0.1114 -0.9299
  430MOL0     H56716   6.289   0.357   3.330  0.9049 -0.0146  0.3011
  430MOL0     H56717   6.362   0.213   3.262  1.3760  0.9726  2.3718
  430MOL0     H56718   6.108   0.229   3.433 -0.6219 -0.8344  1.8638
  430MOL0     H56719   6.138   0.090   3.327 -2.7829  0.6795  2.9258
  430MOL0     H56720   6.217   0.144   3.589 -0.4415 -0.8726  0.6182
  430MOL0     H56721   6.364   0.203   3.509 -1.0372  1.3509 -3.4626
  430MOL0     H56722   6.393  -0.233   3.549 -1.5095  1.6595 -0.0976
  430MOL0     H56723   6.636  -0.321   3.587  4.5727  0.5381 -0.6184
  430MOL0     H56724   7.045  -0.288   3.370 -1.8838  2.2819  1.2259
  430MOL0     H56725   7.273  -0.379   3.374  0.1450 -2.4221 -0.3283
  430MOL0     H56726   7.387  -0.584   3.785 -0.8432  2.2089  1.2770
  430MOL0     H56727   7.462  -0.426   3.750  1.9142  0.7703 -1.2174
  430MOL0     H56728   7.626  -0.542   3.603 -0.8222  2.0055  0.3862
  430MOL0     H56729   7.547  -0.694   3.616 -0.6918  1.9290 -1.7152
  430MOL0     H56730   7.594  -0.680   3.863 -1.9027  0.4278 -0.6909
  430MOL0     H56731   7.653  -0.523   3.844 -2.1469 -0.9078  1.0836
  430MOL0     H56732   7.779  -0.781   3.779 -1.3081  0.7577 -0.5516
  430MOL0     H56733   7.840  -0.635   3.691 -2.1923  0.6954 -1.6650
  430MOL0     H56734   7.833  -0.691   3.987 -0.3776 -3.1630 -2.6208
  430MOL0     H56735   7.871  -0.527   3.929  1.1874  0.8071 -2.9816
  430MOL0     H56736   8.078  -0.632   3.808  0.2914  1.8158  0.1810
  430MOL0     H56737   8.039  -0.786   3.873  1.7763  0.3438 -3.1705
  430MOL0     H56738   8.103  -0.564   4.051 -0.1587 -0.2021  0.2154
  430MOL0     H56739   8.072  -0.738   4.095 -3.8776 -0.7854 -1.2404
  430MOL0     H56740   8.301  -0.675   4.086  0.7669 -0.0316 -0.3457
  430MOL0     H56741   8.293  -0.675   3.912  3.4001 -1.6067  1.4885
  430MOL0     H56742   7.208  -0.470   3.794  0.0946 -1.0608 -0.9773
  430MOL0     H56743   6.982  -0.403   3.779 -1.3894 -2.7107 -0.0839
  430MOL0     H56744   6.782   0.067   3.508  0.9621 -0.0835  0.5633
  430MOL0     H56745   6.557   0.151   3.448  0.8728  1.1212  1.9432
  430MOL0     H56746   5.336   0.645   3.362 -0.1066  1.9258 -1.9013
  430MOL0     H56747   5.255   0.426   3.473  0.0061  1.2662  4.6065
  430MOL0     H56748   4.884   0.054   3.360  0.2210 -2.0998  0.3501
  430MOL0     H56749   4.812  -0.162   3.474  1.2371 -0.5979  1.1541
  430MOL0     H56750   4.927  -0.420   3.719  0.9435  0.2002  0.2321
  430MOL0     H56751   4.916  -0.332   3.565 -1.7414 -3.0703 -1.3499
  430MOL0     H56752   4.683  -0.339   3.572  1.3297  1.2073 -0.5441
  430MOL0     H56753   4.730  -0.494   3.620 -0.4620  1.6886 -3.8421
  430MOL0     H56754   4.634  -0.261   3.812  0.5584  0.1828 -0.7188
  430MOL0     H56755   4.734  -0.397   3.869  2.4304 -0.3717 -2.9865
  430MOL0     H56756   4.467  -0.397   3.898  0.4848  2.8623  0.3507
  430MOL0     H56757   4.462  -0.420   3.722 -2.3277 -2.9448  0.9563
  430MOL0     H56758   4.586  -0.811   3.800 -3.2739 -1.8547  0.0033
  430MOL0     H56759   5.007  -0.020   3.829 -0.0699  0.6234 -0.1344
  430MOL0     H56760   5.047   0.201   3.723  3.5147 -0.1325 -1.8113
  431MOL0     O56761   3.431   8.109   9.366 -0.1819 -0.5572  0.4282
  431MOL0     C56762   3.484   8.083   9.475  0.2445 -0.2426  1.1950
  431MOL0     O56763   3.509   8.179   9.566  0.5618  0.1021  0.4545
  431MOL0     C56764   3.456   8.297   9.530  0.4906 -0.7418  0.2286
  431MOL0     C56765   3.346   8.354   9.595 -0.6203  0.2180 -0.4620
  431MOL0     C56766   3.299   8.483   9.565 -0.0740  0.2628 -0.1009
  431MOL0     C56767   3.376   8.570   9.493 -0.4424 -1.0394 -0.2284
  431MOL0     O56768   3.314   8.693   9.450 -0.0602 -0.2053 -0.3754
  431MOL0     C56769   3.318   8.806   9.537  0.6484 -0.1154  0.1905
  431MOL0     C56770   3.248   8.776   9.668 -0.1466 -1.5238 -0.1124
  431MOL0     C56771   3.333   8.724   9.783 -0.3804 -0.9573  0.2509
  431MOL0     C56772   3.426   8.842   9.827  0.2191 -0.3180 -0.2597
  431MOL0     C56773   3.538   8.778   9.918 -0.0921  0.0025  0.6521
  431MOL0     C56774   3.612   8.872  10.020 -0.3422 -0.3245  0.1689
  431MOL0     C56775   3.664   9.001   9.945 -0.2538  0.2830 -0.5371
  431MOL0     C56776   3.754   9.085  10.035  0.8294 -0.6661  0.0435
  431MOL0     N56777   3.679   9.148  10.151 -0.7573 -1.3612 -0.2555
  431MOL0     C56778   3.650   9.088  10.275 -0.2661  0.5647 -0.9195
  431MOL0     C56779   3.595   9.190  10.345 -0.4902 -0.6491  0.1646
  431MOL0     C56780   3.529   9.164  10.479  0.3187 -0.0843 -0.2056
  431MOL0     C56781   3.627   9.109  10.583 -0.1949  0.2658 -0.6313
  431MOL0     C56782   3.558   9.052  10.704  0.6984  0.3045 -0.1615
  431MOL0     C56783   3.493   9.151  10.805  0.2058  0.8023  0.4044
  431MOL0     O56784   3.388   9.206  10.735 -0.1822  0.8135 -0.2123
  431MOL0     C56785   3.291   9.278  10.803 -0.5050  0.1436 -0.7805
  431MOL0     C56786   3.199   9.332  10.716  1.3310  0.5749 -0.1492
  431MOL0     C56787   3.097   9.418  10.774  0.3352  0.0789 -0.2925
  431MOL0     C56788   3.107   9.452  10.908  0.7107  0.6270 -0.4942
  431MOL0     C56789   2.999   9.541  10.957  1.1170  0.4109 -0.3040
  431MOL0     O56790   2.892   9.582  10.873 -0.3623  0.2066 -0.4376
  431MOL0     C56791   2.812   9.691  10.905  0.5124  0.8126  0.2286
  431MOL0     C56792   2.867   9.808  10.923  0.3886  0.0558 -0.7562
  431MOL0     C56793   2.788   9.922  10.957 -0.4247  0.3728 -1.1873
  431MOL0     C56794   2.656   9.905  10.982  0.2893  1.4719  0.1271
  431MOL0     O56795   2.567  10.008  11.022 -0.2243  0.3488  0.6473
  431MOL0     C56796   2.621  10.122  11.097 -0.1378  0.3065  0.4895
  431MOL0     C56797   2.651  10.236  10.998  0.2551 -1.0802  0.2391
  431MOL0     C56798   2.691  10.365  11.067 -0.0902 -0.0068 -0.8916
  431MOL0     C56799   2.816  10.358  11.145  0.1063 -0.0258  0.1823
  431MOL0     C56800   2.892  10.486  11.147 -0.5718  0.6297  0.4479
  431MOL0     C56801   3.030  10.496  11.211 -0.4412 -0.2151  0.3625
  431MOL0     C56802   3.104  10.631  11.172 -0.0044 -0.1382 -0.1294
  431MOL0     C56803   3.131  10.660  11.025 -1.2074 -0.2081  0.0684
  431MOL0    Cl56804   3.205  10.510  10.949 -0.1392 -0.1897  0.2571
  431MOL0     C56805   2.596   9.777  10.954 -0.4491  0.0119 -0.1785
  431MOL0     C56806   2.668   9.674  10.898  0.1367  0.3689 -0.8745
  431MOL0     O56807   3.016   9.587  11.072 -0.4477 -0.7021  0.3367
  431MOL0     C56808   3.204   9.399  10.993  1.1860  0.1919 -0.1188
  431MOL0     C56809   3.295   9.309  10.935 -0.0288  0.4360 -0.7621
  431MOL0     N56810   3.572   9.296  10.258 -0.0236  0.2307  0.6144
  431MOL0     N56811   3.634   9.276  10.144 -0.0384  0.4019  0.0810
  431MOL0     C56812   3.494   8.515   9.439 -0.8347 -0.0853  0.3600
  431MOL0     C56813   3.531   8.379   9.445 -0.1976 -0.9486 -0.4595
  431MOL0     C56814   3.516   7.936   9.500 -0.0615 -0.1894 -0.1756
  431MOL0     C56815   3.477   7.832   9.415  0.3293  0.0722  0.0956
  431MOL0     C56816   3.513   7.700   9.444  0.0032  0.5901 -0.3899
  431MOL0     C56817   3.604   7.662   9.550  1.1149  0.8369  0.0384
  431MOL0     O56818   3.636   7.529   9.552 -0.4814 -0.4905  0.0435
  431MOL0     C56819   3.710   7.480   9.663 -1.0202 -0.2126  0.0339
  431MOL0     C56820   3.770   7.335   9.659 -0.1287 -0.8978  0.0461
  431MOL0     C56821   3.696   7.231   9.592 -0.2994 -0.8709  0.2475
  431MOL0     C56822   3.768   7.091   9.594 -0.3272  0.3955  0.7693
  431MOL0     C56823   3.707   6.994   9.686  0.4968  0.1460  0.1946
  431MOL0     C56824   3.668   6.899   9.754  0.2817  0.6457  0.6056
  431MOL0     C56825   3.639   7.764   9.637  0.1719 -0.4329 -0.1310
  431MOL0     C56826   3.602   7.901   9.614  0.0860  0.2869  0.4454
  431MOL0     H56827   3.283   8.300   9.665 -0.9916  1.1137 -0.0955
  431MOL0     H56828   3.205   8.506   9.614 -0.6349 -0.2581 -0.9147
  431MOL0     H56829   3.268   8.886   9.482 -0.0639 -2.5138 -2.8870
  431MOL0     H56830   3.420   8.846   9.546  0.3591  1.2139 -1.8066
  431MOL0     H56831   3.152   8.723   9.657 -0.2061 -1.4676  0.1241
  431MOL0     H56832   3.202   8.867   9.707  1.6182 -0.1352 -1.1242
  431MOL0     H56833   3.398   8.646   9.742  0.2293 -0.5901  0.5191
  431MOL0     H56834   3.267   8.696   9.865 -1.5459 -2.3374 -1.0950
  431MOL0     H56835   3.477   8.889   9.743  2.4469  1.6712  2.0237
  431MOL0     H56836   3.363   8.916   9.878 -2.2002 -2.2681 -0.2645
  431MOL0     H56837   3.613   8.717   9.866 -1.3727 -0.9592 -0.1165
  431MOL0     H56838   3.478   8.713   9.982 -2.3251 -0.7831 -2.0315
  431MOL0     H56839   3.696   8.811  10.054  2.5655  2.7484 -0.9284
  431MOL0     H56840   3.536   8.892  10.096 -1.4743  0.2462 -1.0739
  431MOL0     H56841   3.728   8.972   9.861  2.0638  0.3016  1.1226
  431MOL0     H56842   3.580   9.063   9.913 -1.0536  0.5300  1.8888
  431MOL0     H56843   3.806   9.167   9.986 -2.2366  1.5035  0.0847
  431MOL0     H56844   3.835   9.025  10.077  1.8475  0.5946 -0.0502
  431MOL0     H56845   3.678   8.985  10.295  2.2413  1.3532  0.0684
  431MOL0     H56846   3.441   9.101  10.467 -0.5248  0.8577  0.9108
  431MOL0     H56847   3.488   9.258  10.516  2.2237  1.3785 -1.6107
  431MOL0     H56848   3.697   9.188  10.611 -0.7296  0.1610  1.0650
  431MOL0     H56849   3.692   9.030  10.544  0.6762 -0.4044  1.9872
  431MOL0     H56850   3.492   8.976  10.663  1.8385 -0.8825  0.1337
  431MOL0     H56851   3.636   9.005  10.765  4.2478  4.1137 -1.2359
  431MOL0     H56852   3.557   9.222  10.859  2.1384 -1.4302  1.2310
  431MOL0     H56853   3.439   9.090  10.877 -1.6103  0.0076 -1.5426
  431MOL0     H56854   3.211   9.307  10.611  1.1329  0.6018 -0.1781
  431MOL0     H56855   3.014   9.458  10.716 -0.5413  2.0835  2.1749
  431MOL0     H56856   2.974   9.821  10.909  0.3422  2.9810  0.7156
  431MOL0     H56857   2.819  10.024  10.977 -2.3570  1.0153 -1.2933
  431MOL0     H56858   2.706  10.091  11.158 -0.7364  1.2712  1.8520
  431MOL0     H56859   2.538  10.156  11.159 -3.1525 -2.6412 -1.5944
  431MOL0     H56860   2.577  10.257  10.920  0.8794  1.0437  0.1522
  431MOL0     H56861   2.747  10.208  10.952 -0.2352 -2.9884  0.2995
  431MOL0     H56862   2.608  10.395  11.133  0.3588  0.2759 -0.4536
  431MOL0     H56863   2.707  10.441  10.990  0.0239  1.6360  0.7092
  431MOL0     H56864   2.788  10.328  11.247 -0.1889  0.4832  0.2545
  431MOL0     H56865   2.894  10.289  11.111  2.0831  1.8146  0.7891
  431MOL0     H56866   2.840  10.559  11.210  1.5851  1.7222  1.0186
  431MOL0     H56867   2.891  10.535  11.049 -4.2613 -0.3969 -0.1995
  431MOL0     H56868   3.103  10.419  11.185  1.1022  1.1662  0.4905
  431MOL0     H56869   3.013  10.506  11.319 -1.4330  2.1531  0.0491
  431MOL0     H56870   3.033  10.705  11.212 -1.1313 -2.3002  2.1032
  431MOL0     H56871   3.196  10.654  11.227  0.2241  0.5676 -0.7787
  431MOL0     H56872   3.198  10.744  11.007  0.3856 -1.0027  1.9831
  431MOL0     H56873   3.038  10.681  10.972  0.3568 -0.5683 -3.0539
  431MOL0     H56874   2.493   9.773  10.987 -0.5892 -0.4660 -0.6456
  431MOL0     H56875   2.623   9.576  10.884 -0.3382  0.3799  0.4570
  431MOL0     H56876   3.198   9.417  11.100  0.9728 -1.2520  0.1206
  431MOL0     H56877   3.366   9.252  10.995  0.9365  0.7378 -1.6041
  431MOL0     H56878   3.546   8.576   9.366 -1.5350 -0.5906 -0.5892
  431MOL0     H56879   3.629   8.354   9.404 -0.3296  0.4377 -1.6589
  431MOL0     H56880   3.411   7.852   9.331 -1.3257 -1.6311  0.9253
  431MOL0     H56881   3.477   7.624   9.376 -1.3682 -0.0099  0.9662
  431MOL0     H56882   3.636   7.466   9.743 -0.7915  1.0101  0.4828
  431MOL0     H56883   3.790   7.547   9.695  0.0558 -0.9058 -1.1163
  431MOL0     H56884   3.864   7.353   9.607 -1.9573 -0.4363 -3.4198
  431MOL0     H56885   3.786   7.303   9.762  0.1514  1.2321  0.7174
  431MOL0     H56886   3.680   7.274   9.492  2.3707  1.1804  0.5991
  431MOL0     H56887   3.596   7.228   9.636 -0.9690 -0.0297 -1.1358
  431MOL0     H56888   3.778   7.052   9.492  3.7567  0.6939  0.8878
  431MOL0     H56889   3.873   7.107   9.620  0.7069  2.1907 -3.5803
  431MOL0     H56890   3.615   6.819   9.801 -2.0521  2.7636  1.7983
  431MOL0     H56891   3.698   7.737   9.725 -0.0304 -1.6748 -0.3642
  431MOL0     H56892   3.636   7.974   9.687  0.6769  0.4828 -0.0167
  432MOL0     O56893   4.358   7.642   8.263 -0.3827 -0.5053  0.6507
  432MOL0     C56894   4.316   7.533   8.217  0.5134  0.0123  0.1399
  432MOL0     O56895   4.382   7.450   8.128  0.8093  0.0135  0.1153
  432MOL0     C56896   4.491   7.483   8.057 -0.5388  0.1344 -0.6158
  432MOL0     C56897   4.535   7.383   7.967 -0.9218 -0.6224 -0.7416
  432MOL0     C56898   4.651   7.403   7.890  0.4654 -1.5273 -0.1376
  432MOL0     C56899   4.723   7.520   7.905 -0.1120 -0.6108 -0.1573
  432MOL0     O56900   4.828   7.527   7.813 -0.1690  0.4101  0.7307
  432MOL0     C56901   4.952   7.582   7.851 -0.5294 -0.1313 -0.7611
  432MOL0     C56902   5.028   7.491   7.941  0.4722  0.5598 -0.5172
  432MOL0     C56903   5.158   7.548   7.986 -0.1951  0.4969 -0.2647
  432MOL0     C56904   5.241   7.453   8.076  1.1053  0.9668  0.1913
  432MOL0     C56905   5.371   7.493   8.135  0.3870 -0.6759  0.0769
  432MOL0     C56906   5.448   7.386   8.206  0.2011 -0.8549 -0.4427
  432MOL0     C56907   5.503   7.285   8.110 -0.3561 -0.9528 -0.5291
  432MOL0     C56908   5.628   7.217   8.168  0.4197  0.4390  0.8168
  432MOL0     N56909   5.704   7.138   8.068 -0.4835 -0.1842  0.2002
  432MOL0     C56910   5.781   7.193   7.964  0.1851 -0.0836 -0.1231
  432MOL0     C56911   5.839   7.093   7.898 -0.2512  0.8938 -0.0082
  432MOL0     C56912   5.922   7.106   7.774 -0.2483 -0.7145 -0.4527
  432MOL0     C56913   6.071   7.126   7.813  0.6594 -0.2665 -0.6480
  432MOL0     C56914   6.171   7.039   7.733 -0.8483  0.5441  0.6253
  432MOL0     C56915   6.319   7.043   7.767 -0.2962  0.3311  0.2863
  432MOL0     O56916   6.330   7.022   7.904 -0.1692  0.0419 -0.5880
  432MOL0     C56917   6.443   7.061   7.974  0.2429  0.3518 -0.0557
  432MOL0     C56918   6.564   7.116   7.918  0.1949  0.1733  0.2853
  432MOL0     C56919   6.680   7.131   8.000  0.2347 -1.2628 -0.2833
  432MOL0     C56920   6.684   7.126   8.139 -0.5061  0.9044 -0.4138
  432MOL0     C56921   6.796   7.159   8.234 -0.0071  0.2662  0.5583
  432MOL0     O56922   6.919   7.178   8.174 -0.1951  0.1659  0.3546
  432MOL0     C56923   7.008   7.227   8.260  0.3903 -0.6841 -0.0399
  432MOL0     C56924   7.078   7.145   8.350 -0.5913  0.1843  0.2414
  432MOL0     C56925   7.191   7.186   8.417 -0.3220  0.8064  0.3415
  432MOL0     C56926   7.228   7.322   8.414  0.0376  0.1900 -0.0017
  432MOL0     O56927   7.338   7.366   8.479  0.3785  0.1720  0.0817
  432MOL0     C56928   7.466   7.296   8.448 -0.4068 -0.1474 -0.8016
  432MOL0     C56929   7.495   7.297   8.306 -0.0151  0.6990  0.2398
  432MOL0     C56930   7.516   7.436   8.252  0.1106  0.2681  0.9561
  432MOL0     C56931   7.486   7.426   8.106  0.0925 -0.6049  0.7889
  432MOL0     C56932   7.563   7.325   8.025  0.0632 -0.5172 -0.0084
  432MOL0     C56933   7.711   7.362   8.022 -0.0930 -0.1285 -0.8594
  432MOL0     C56934   7.772   7.279   7.908  0.8990 -0.4390 -0.0207
  432MOL0     C56935   7.932   7.269   7.926  0.4346 -0.9873 -0.2091
  432MOL0    Cl56936   8.000   7.169   7.797  0.0842  0.2721  0.7779
  432MOL0     C56937   7.164   7.412   8.325  0.2360 -0.0076 -0.6922
  432MOL0     C56938   7.058   7.359   8.249  0.0688  0.7752 -0.2816
  432MOL0     O56939   6.781   7.144   8.359  1.0852 -0.1263  0.2332
  432MOL0     C56940   6.561   7.090   8.182  0.2486 -0.0108 -0.0333
  432MOL0     C56941   6.444   7.064   8.113 -0.0442  0.1782 -0.4898
  432MOL0     N56942   5.801   6.983   7.962  0.0573 -0.3567  0.0647
  432MOL0     N56943   5.721   7.007   8.051 -0.5027  0.2056  0.5594
  432MOL0     C56944   4.670   7.627   7.983 -0.3676 -0.4360 -0.8725
  432MOL0     C56945   4.555   7.606   8.060 -0.5639 -0.1658  0.2151
  432MOL0     C56946   4.186   7.485   8.268 -0.2782 -1.9425 -0.3117
  432MOL0     C56947   4.094   7.578   8.320  0.2382  0.1174 -0.0998
  432MOL0     C56948   3.981   7.533   8.393 -0.0143 -0.6080 -0.4934
  432MOL0     C56949   3.950   7.402   8.396  0.5005 -0.7380 -0.7093
  432MOL0     O56950   3.830   7.362   8.445  0.2131  0.1037 -0.0291
  432MOL0     C56951   3.822   7.228   8.500  0.8324 -0.4830  0.2922
  432MOL0     C56952   3.727   7.128   8.419 -0.3023 -0.9855 -0.5581
  432MOL0     C56953   3.588   7.194   8.384 -0.6471 -0.0096  0.3692
  432MOL0     C56954   3.472   7.142   8.474  0.0929 -0.2577  0.0030
  432MOL0     C56955   3.453   7.002   8.454 -0.0212 -0.2096  0.9248
  432MOL0     C56956   3.417   6.888   8.432  0.6326 -0.6690 -0.6963
  432MOL0     C56957   4.046   7.312   8.338  0.1887  0.4829  0.6777
  432MOL0     C56958   4.159   7.350   8.270 -0.3639  0.3839 -0.4129
  432MOL0     H56959   4.474   7.294   7.952 -0.7173 -0.6568 -1.4333
  432MOL0     H56960   4.675   7.343   7.803  2.3076  2.7446 -2.9167
  432MOL0     H56961   4.944   7.676   7.906  2.3326 -0.2004 -0.0432
  432MOL0     H56962   5.023   7.605   7.771  3.2158 -1.3776  1.9153
  432MOL0     H56963   5.040   7.391   7.899 -0.5701  0.4381 -0.5447
  432MOL0     H56964   4.968   7.473   8.031 -0.6338  1.1119 -1.1246
  432MOL0     H56965   5.150   7.636   8.050  0.0121 -0.1379  0.6707
  432MOL0     H56966   5.220   7.581   7.902  0.9442  0.6894  0.6250
  432MOL0     H56967   5.187   7.413   8.163  2.8182 -0.7798  0.5218
  432MOL0     H56968   5.258   7.369   8.007 -0.5993  1.9240 -1.4846
  432MOL0     H56969   5.351   7.569   8.212  1.6407  0.2832 -0.5088
  432MOL0     H56970   5.441   7.540   8.066  1.0310 -1.6682  0.0412
  432MOL0     H56971   5.398   7.318   8.276  0.8457 -0.0702  0.8195
  432MOL0     H56972   5.527   7.434   8.265 -1.2217  0.8742  0.1578
  432MOL0     H56973   5.419   7.220   8.084  0.6770 -1.5991 -2.4570
  432MOL0     H56974   5.528   7.336   8.017 -1.6967  1.5938  0.4148
  432MOL0     H56975   5.588   7.157   8.251 -1.7410  0.2842 -0.2542
  432MOL0     H56976   5.703   7.286   8.208  0.1158  1.8968 -1.0008
  432MOL0     H56977   5.800   7.293   7.926 -0.1409 -0.0395 -0.1688
  432MOL0     H56978   5.893   7.182   7.701  0.0200 -0.4673 -0.3021
  432MOL0     H56979   5.907   7.013   7.719 -1.5371  0.3547 -2.0408
  432MOL0     H56980   6.090   7.095   7.916 -1.1461 -1.1304 -0.5271
  432MOL0     H56981   6.097   7.231   7.803 -0.1427  0.1855  1.5661
  432MOL0     H56982   6.139   6.939   7.764  2.0571 -0.7867 -0.2272
  432MOL0     H56983   6.167   7.054   7.624 -0.5571 -0.3068  0.4849
  432MOL0     H56984   6.357   7.141   7.737  2.2238 -1.4526 -3.0484
  432MOL0     H56985   6.388   6.970   7.724 -0.2257  0.3560  0.3565
  432MOL0     H56986   6.569   7.119   7.810 -0.2277  0.9207  0.2784
  432MOL0     H56987   6.770   7.155   7.946  0.4162 -1.8842 -0.2657
  432MOL0     H56988   7.040   7.045   8.372 -2.0012  1.4864  5.0761
  432MOL0     H56989   7.231   7.118   8.491 -0.9610 -0.1656 -0.1913
  432MOL0     H56990   7.452   7.194   8.486  1.7054 -0.2969 -0.3449
  432MOL0     H56991   7.547   7.330   8.513  0.1344 -0.1878 -1.4595
  432MOL0     H56992   7.418   7.238   8.255 -0.0178 -1.5569  2.6691
  432MOL0     H56993   7.586   7.238   8.297 -1.9482 -3.4336  3.7201
  432MOL0     H56994   7.621   7.463   8.269  0.3231 -1.2193  2.2581
  432MOL0     H56995   7.452   7.509   8.302  1.7796  1.0992  1.9815
  432MOL0     H56996   7.379   7.410   8.090  0.0277  0.5441 -0.0831
  432MOL0     H56997   7.501   7.525   8.061  3.0592 -0.4566  1.8892
  432MOL0     H56998   7.520   7.339   7.926  0.7325  0.7888 -0.1456
  432MOL0     H56999   7.542   7.223   8.058  2.6383 -0.7106  1.3069
  432MOL0     H57000   7.763   7.329   8.112  4.7712 -3.4238 -4.3881
  432MOL0     H57001   7.724   7.468   7.998  0.1054 -0.7191 -3.6807
  432MOL0     H57002   7.725   7.181   7.921  0.0755  0.2348  2.8537
  432MOL0     H57003   7.752   7.328   7.812 -1.0275 -0.5353  0.2849
  432MOL0     H57004   7.965   7.225   8.020  0.2106  2.7146  1.8176
  432MOL0     H57005   7.981   7.367   7.928  0.5649 -0.8383 -3.8107
  432MOL0     H57006   7.212   7.508   8.312  2.5661 -0.9027  0.8746
  432MOL0     H57007   7.007   7.409   8.168 -1.9648 -1.8080 -0.7178
  432MOL0     H57008   6.564   7.075   8.290  1.2124 -0.9111 -0.1684
  432MOL0     H57009   6.355   7.033   8.168  0.5870  1.9352  1.6478
  432MOL0     H57010   4.714   7.726   7.991 -0.8530 -0.2285 -0.6819
  432MOL0     H57011   4.530   7.700   8.109 -0.6422 -1.8068  3.6068
  432MOL0     H57012   4.116   7.684   8.312  1.5804 -0.2152 -1.2517
  432MOL0     H57013   3.918   7.605   8.445  0.3643 -1.2540  0.9066
  432MOL0     H57014   3.781   7.233   8.602 -1.9891 -1.7967 -0.6721
  432MOL0     H57015   3.918   7.177   8.507  1.5964  0.6647 -1.3225
  432MOL0     H57016   3.774   7.127   8.321 -1.4660  0.2299 -1.1698
  432MOL0     H57017   3.719   7.033   8.473  0.5183 -0.0056  1.3708
  432MOL0     H57018   3.566   7.168   8.280 -0.7723 -2.6383  0.9905
  432MOL0     H57019   3.604   7.302   8.395  0.9250 -0.0600 -1.0972
  432MOL0     H57020   3.506   7.162   8.576  1.5198 -1.2779 -0.2523
  432MOL0     H57021   3.380   7.200   8.466  1.6318  2.1525 -1.2207
  432MOL0     H57022   3.396   6.784   8.420 -1.0707 -0.4948  0.4239
  432MOL0     H57023   4.031   7.205   8.337  3.8044 -0.1770  2.0112
  432MOL0     H57024   4.215   7.277   8.213 -1.4225 -1.2644  0.5907
  433MOL0     O57025   4.860   7.684  11.451 -0.2128 -0.7689  0.5030
  433MOL0     C57026   4.763   7.728  11.522 -0.0468 -0.2006  0.7874
  433MOL0     O57027   4.778   7.820  11.613 -0.2099  0.2093 -0.4181
  433MOL0     C57028   4.879   7.914  11.600 -0.4126  0.1524  0.3705
  433MOL0     C57029   4.841   8.045  11.570  0.0891 -0.2273 -0.6947
  433MOL0     C57030   4.931   8.152  11.584  0.5479 -0.4133 -0.7526
  433MOL0     C57031   5.063   8.125  11.619  0.0731  0.1686  0.5434
  433MOL0     O57032   5.169   8.212  11.605  0.6641  0.5122  0.2856
  433MOL0     C57033   5.157   8.355  11.631  0.3508 -0.5247 -0.0630
  433MOL0     C57034   5.289   8.396  11.711 -0.4283  0.4068 -0.4344
  433MOL0     C57035   5.412   8.362  11.640 -2.3609  0.3966  0.3999
  433MOL0     C57036   5.534   8.394  11.731 -0.7788  0.3443 -0.9258
  433MOL0     C57037   5.676   8.363  11.663  0.3150  0.0277 -0.7041
  433MOL0     C57038   5.743   8.227  11.715  0.3447 -0.1741  0.4490
  433MOL0     C57039   5.682   8.084  11.689  0.8207  0.5932 -0.2604
  433MOL0     C57040   5.679   8.042  11.554  0.3964  0.4624  0.7063
  433MOL0     N57041   5.640   7.898  11.542 -0.6638  1.1942  0.0848
  433MOL0     C57042   5.529   7.842  11.593 -0.6248 -0.9966  0.2449
  433MOL0     C57043   5.529   7.712  11.554  0.2483  0.8080  0.6938
  433MOL0     C57044   5.421   7.606  11.560  0.7509  0.2995  0.0526
  433MOL0     C57045   5.329   7.605  11.442 -0.0687  0.1445 -0.3241
  433MOL0     C57046   5.218   7.704  11.449  0.0711 -0.1251  0.5974
  433MOL0     C57047   5.158   7.751  11.320  0.4151 -0.8159  0.4953
  433MOL0     O57048   5.256   7.820  11.241  0.2021  0.0183  0.3071
  433MOL0     C57049   5.292   7.951  11.270 -0.1307 -0.6755 -0.4660
  433MOL0     C57050   5.427   7.993  11.274  0.5016  0.4359 -0.4483
  433MOL0     C57051   5.462   8.123  11.279 -0.3037 -0.3044 -0.0703
  433MOL0     C57052   5.366   8.227  11.287 -0.4899 -0.9977  0.0870
  433MOL0     C57053   5.405   8.373  11.286 -0.0555  0.5897 -0.3129
  433MOL0     O57054   5.311   8.457  11.262  0.4552  0.3907 -0.1853
  433MOL0     C57055   5.335   8.593  11.244  0.4564 -0.1483 -0.3689
  433MOL0     C57056   5.369   8.630  11.114 -0.1736 -0.0818  0.6951
  433MOL0     C57057   5.382   8.769  11.096 -1.3681 -0.7943  0.2422
  433MOL0     C57058   5.348   8.858  11.196 -0.1091 -0.2728 -0.0314
  433MOL0     O57059   5.334   8.994  11.169  0.7614  0.5232  0.0005
  433MOL0     C57060   5.237   9.022  11.061  0.2112  0.1427 -0.5749
  433MOL0     C57061   5.153   9.142  11.104  0.8665  0.1850  0.6525
  433MOL0     C57062   5.249   9.264  11.098 -0.9102 -0.6503  0.3615
  433MOL0     C57063   5.189   9.406  11.090 -0.2520  1.2572 -0.0612
  433MOL0     C57064   5.290   9.524  11.114 -0.5850  0.9822  0.2868
  433MOL0     C57065   5.216   9.654  11.119 -0.2925  0.1751  0.2926
  433MOL0     C57066   5.305   9.777  11.097 -0.1829 -0.2050  0.4316
  433MOL0     C57067   5.432   9.770  11.197 -0.8066  0.2760 -0.2632
  433MOL0    Cl57068   5.380   9.774  11.368  0.3866  0.0046  0.2276
  433MOL0     C57069   5.312   8.811  11.317  0.1210 -0.9151 -0.0353
  433MOL0     C57070   5.303   8.684  11.344  0.3811  0.5943 -0.0835
  433MOL0     O57071   5.523   8.391  11.302 -0.0984  0.2851 -0.3404
  433MOL0     C57072   5.226   8.189  11.296  0.2604  0.5054  0.0548
  433MOL0     C57073   5.190   8.052  11.283  0.0183  0.1335 -0.3114
  433MOL0     N57074   5.657   7.685  11.498  0.3709 -0.8093  0.2156
  433MOL0     N57075   5.715   7.795  11.496  0.2544  0.0934 -0.3123
  433MOL0     C57076   5.102   7.991  11.630  0.5914 -0.7816 -0.7388
  433MOL0     C57077   5.010   7.888  11.641 -0.0968 -0.4778  0.1189
  433MOL0     C57078   4.630   7.680  11.497  0.6185 -0.6839 -0.3289
  433MOL0     C57079   4.597   7.585  11.401  0.1155 -0.4392  0.8486
  433MOL0     C57080   4.468   7.540  11.377  0.6369  0.5095  0.0096
  433MOL0     C57081   4.364   7.579  11.457  0.0461 -0.3365 -0.0502
  433MOL0     O57082   4.239   7.543  11.442 -0.1864 -0.6696 -0.3292
  433MOL0     C57083   4.210   7.420  11.378  0.0042 -0.4820  1.6246
  433MOL0     C57084   4.057   7.379  11.386  0.4750  0.4008  0.7789
  433MOL0     C57085   4.008   7.395  11.531 -0.4614 -0.6628  0.4815
  433MOL0     C57086   3.866   7.350  11.536 -0.2836  0.4206 -0.4550
  433MOL0     C57087   3.813   7.353  11.668 -0.6219 -0.2970 -0.3169
  433MOL0     C57088   3.769   7.350  11.785 -0.7716  0.4900  0.0179
  433MOL0     C57089   4.395   7.663  11.553 -0.0469  0.2162 -0.6679
  433MOL0     C57090   4.519   7.717  11.578 -0.4583  0.3771  0.0037
  433MOL0     H57091   4.740   8.066  11.536  0.2569  1.6158 -0.1747
  433MOL0     H57092   4.904   8.248  11.540  0.1013 -0.9060 -1.5981
  433MOL0     H57093   5.072   8.380  11.695 -1.8798  0.3661 -3.1526
  433MOL0     H57094   5.170   8.404  11.534  1.4655  1.6166  1.0921
  433MOL0     H57095   5.290   8.341  11.806 -0.4446 -1.1811 -1.3312
  433MOL0     H57096   5.280   8.504  11.725 -0.1835  0.5706 -1.4854
  433MOL0     H57097   5.407   8.409  11.541 -0.6022  0.7731  0.4545
  433MOL0     H57098   5.421   8.256  11.615 -4.6040  0.3250 -0.3689
  433MOL0     H57099   5.528   8.502  11.747  0.9612  0.4542 -0.8381
  433MOL0     H57100   5.538   8.350  11.831  4.7105  1.1851 -0.4740
  433MOL0     H57101   5.745   8.443  11.691  0.3428 -0.3998  0.5263
  433MOL0     H57102   5.672   8.373  11.554  0.5431 -0.7623 -0.7912
  433MOL0     H57103   5.762   8.228  11.822  0.3877 -0.3314  0.4436
  433MOL0     H57104   5.831   8.214  11.651 -1.6648 -2.4674 -2.1074
  433MOL0     H57105   5.729   8.007  11.750 -2.1469 -1.0765  0.1527
  433MOL0     H57106   5.576   8.096  11.713  0.0925  0.1694 -2.9550
  433MOL0     H57107   5.771   8.052  11.496 -0.0150  1.0039  0.1348
  433MOL0     H57108   5.587   8.086  11.514  0.1616 -1.1475 -0.6402
  433MOL0     H57109   5.450   7.901  11.640 -1.1495 -0.2732 -1.4826
  433MOL0     H57110   5.351   7.619  11.643  0.9868  1.5025  0.0899
  433MOL0     H57111   5.472   7.511  11.579  0.8915  0.6557  1.6002
  433MOL0     H57112   5.281   7.508  11.425 -2.0686  1.2683 -1.5200
  433MOL0     H57113   5.388   7.620  11.351 -0.6273 -0.5207 -0.8105
  433MOL0     H57114   5.146   7.652  11.514  0.0869  0.9048  1.4794
  433MOL0     H57115   5.256   7.793  11.500  0.3069  0.5642 -0.7429
  433MOL0     H57116   5.074   7.820  11.334  2.4328  2.0925 -0.5683
  433MOL0     H57117   5.125   7.669  11.255  1.2223 -0.2692 -0.6318
  433MOL0     H57118   5.498   7.913  11.256 -1.5915 -2.0381  1.4851
  433MOL0     H57119   5.569   8.142  11.283  0.6026 -3.7681 -3.1490
  433MOL0     H57120   5.379   8.553  11.038 -0.1255 -1.1135  1.7179
  433MOL0     H57121   5.410   8.810  11.000 -1.7950  3.4472  1.7141
  433MOL0     H57122   5.173   8.934  11.045  1.3630 -0.4861 -1.9132
  433MOL0     H57123   5.291   9.043  10.969 -1.7994 -1.8360 -2.3275
  433MOL0     H57124   5.116   9.150  11.207  0.7755  0.3350  0.6089
  433MOL0     H57125   5.078   9.162  11.027  2.2629  2.4385 -0.2449
  433MOL0     H57126   5.315   9.266  11.010  1.1175 -1.0119  1.7988
  433MOL0     H57127   5.319   9.250  11.181  0.3261 -1.4137 -0.7573
  433MOL0     H57128   5.136   9.409  10.994  0.3654  1.0737 -0.4159
  433MOL0     H57129   5.108   9.401  11.165 -0.2869 -0.0970 -0.1488
  433MOL0     H57130   5.358   9.519  11.029 -0.9329 -0.0563  0.0486
  433MOL0     H57131   5.350   9.509  11.204 -0.5408 -2.2773 -0.1555
  433MOL0     H57132   5.174   9.659  11.220 -1.3450 -0.4996 -0.0985
  433MOL0     H57133   5.140   9.657  11.041  1.5731  2.4198 -1.5807
  433MOL0     H57134   5.343   9.780  10.995  0.1690  4.0108  0.4903
  433MOL0     H57135   5.242   9.867  11.102  1.0414  0.6182  2.7730
  433MOL0     H57136   5.484   9.866  11.183 -3.9588  2.1127 -0.4103
  433MOL0     H57137   5.504   9.691  11.177 -0.5801 -0.1717  2.0197
  433MOL0     H57138   5.290   8.887  11.392  1.3199  0.8765 -1.3957
  433MOL0     H57139   5.252   8.648  11.433  0.4190  1.1020  0.1433
  433MOL0     H57140   5.153   8.268  11.282  0.5274  0.7848  0.2359
  433MOL0     H57141   5.089   8.016  11.266  0.4359 -1.5353  0.4582
  433MOL0     H57142   5.202   7.972  11.666 -0.0066  0.3069  1.6804
  433MOL0     H57143   5.041   7.796  11.689 -0.5365 -0.3497  0.6510
  433MOL0     H57144   4.677   7.546  11.338 -1.5021  0.4974 -1.9417
  433MOL0     H57145   4.456   7.457  11.308 -5.1216 -0.6674  1.8527
  433MOL0     H57146   4.281   7.354  11.428  2.7007  0.7928 -0.3325
  433MOL0     H57147   4.233   7.432  11.272  2.7076 -1.6667  1.9898
  433MOL0     H57148   3.990   7.431  11.317 -1.0988  0.3000  2.1504
  433MOL0     H57149   4.040   7.273  11.362 -3.3758  0.7997  1.0452
  433MOL0     H57150   4.008   7.503  11.549 -0.6479  0.2469 -3.8340
  433MOL0     H57151   4.071   7.348  11.607  1.8780  1.2975 -0.1185
  433MOL0     H57152   3.801   7.411  11.471  1.4805 -0.6904 -3.4363
  433MOL0     H57153   3.867   7.248  11.496 -3.2873  0.3950 -0.7050
  433MOL0     H57154   3.732   7.359  11.885  1.7459  2.6492  0.8811
  433MOL0     H57155   4.337   7.688  11.641 -1.1956  0.5790 -1.5067
  433MOL0     H57156   4.540   7.775  11.668  1.8982  0.9575 -0.8421
  434MOL0     O57157   0.298  10.916   4.490 -0.4029  0.7188 -0.7722
  434MOL0     C57158   0.397  10.874   4.552 -0.6147  0.0824 -0.4359
  434MOL0     O57159   0.531  10.915   4.533 -0.6409 -0.1729 -0.2713
  434MOL0     C57160   0.567  11.012   4.458 -0.2686  0.1776  0.6468
  434MOL0     C57161   0.535  11.020   4.318  0.7414 -0.8345  0.1230
  434MOL0     C57162   0.589  11.119   4.232 -0.1442  0.6812 -0.7532
  434MOL0     C57163   0.688  11.200   4.288 -0.4541 -0.1781 -0.0138
  434MOL0     O57164   0.754  11.307   4.217  0.2255 -0.0027 -0.4581
  434MOL0     C57165   0.704  11.349   4.091 -0.1618 -0.2853 -0.3984
  434MOL0     C57166   0.759  11.495   4.079 -0.0081 -0.4041  0.0112
  434MOL0     C57167   0.686  11.570   3.973  0.0925  0.1025  0.4951
  434MOL0     C57168   0.689  11.494   3.838 -0.5161 -0.7187 -0.3798
  434MOL0     C57169   0.607  11.584   3.737  0.2970 -0.0598  0.9431
  434MOL0     C57170   0.545  11.498   3.623  0.0472  0.5962  0.5762
  434MOL0     C57171   0.640  11.405   3.556 -0.4475  0.4485 -0.5429
  434MOL0     C57172   0.561  11.314   3.460 -0.1558 -0.2975 -0.3432
  434MOL0     N57173   0.660  11.226   3.393 -0.1975  0.7819 -0.2200
  434MOL0     C57174   0.699  11.101   3.440 -0.2995  0.5181  0.5072
  434MOL0     C57175   0.787  11.054   3.350 -1.2067  0.3684  0.1253
  434MOL0     C57176   0.857  10.922   3.351  0.9658 -0.0647 -0.5545
  434MOL0     C57177   0.775  10.820   3.276 -0.5844 -0.0270  0.4286
  434MOL0     C57178   0.847  10.683   3.278  0.1874 -0.1390 -0.6277
  434MOL0     C57179   0.829  10.599   3.412  0.2606 -0.2553  1.0778
  434MOL0     O57180   0.844  10.667   3.536 -1.5208  0.4002  0.0611
  434MOL0     C57181   0.818  10.590   3.650 -0.8371 -0.2150 -0.3531
  434MOL0     C57182   0.768  10.464   3.653  0.4081  0.4293  0.5091
  434MOL0     C57183   0.775  10.388   3.772 -0.2257 -0.8829  0.5278
  434MOL0     C57184   0.822  10.449   3.891 -0.0060 -0.1050  0.0538
  434MOL0     C57185   0.824  10.374   4.023 -0.6257 -0.3590 -0.0253
  434MOL0     O57186   0.887  10.437   4.128  0.1808 -0.3548  0.0170
  434MOL0     C57187   0.871  10.373   4.247 -0.3526 -0.0652  0.4713
  434MOL0     C57188   0.747  10.385   4.318 -0.1913  0.0000  0.3306
  434MOL0     C57189   0.726  10.309   4.440 -0.9234  0.7881  0.4908
  434MOL0     C57190   0.823  10.218   4.485 -0.3728 -0.0552  0.3224
  434MOL0     O57191   0.820  10.138   4.596  0.2166  0.0395 -0.3818
  434MOL0     C57192   0.728  10.145   4.711 -0.4863 -0.4781 -0.2971
  434MOL0     C57193   0.820  10.120   4.834  0.3274 -0.5741  0.1071
  434MOL0     C57194   0.735  10.077   4.955 -0.2298 -0.6429 -0.2078
  434MOL0     C57195   0.688   9.925   4.953 -0.6798  0.2189  0.4314
  434MOL0     C57196   0.803   9.823   4.925  0.7080 -0.1644 -0.1027
  434MOL0     C57197   0.783   9.690   5.007 -0.8942 -0.2077  1.0858
  434MOL0     C57198   0.835   9.567   4.945  0.1739  0.6437 -0.4846
  434MOL0     C57199   0.988   9.583   4.941  0.4456 -0.8918 -0.1494
  434MOL0    Cl57200   1.068   9.593   5.104 -0.2088  0.3490 -0.6810
  434MOL0     C57201   0.941  10.201   4.407  0.6793 -0.0502 -0.1832
  434MOL0     C57202   0.964  10.283   4.291 -0.3427  0.3259 -0.4485
  434MOL0     O57203   0.745  10.280   4.034  0.3505 -0.2022 -0.2953
  434MOL0     C57204   0.872  10.583   3.887  0.4657  0.4404 -0.8666
  434MOL0     C57205   0.876  10.646   3.767  0.7400 -0.2860  0.5450
  434MOL0     N57206   0.789  11.144   3.246 -0.2810  0.1707  0.9271
  434MOL0     N57207   0.720  11.247   3.275 -0.2518  0.9110  0.0179
  434MOL0     C57208   0.730  11.181   4.424 -0.4179 -0.4321  0.0668
  434MOL0     C57209   0.662  11.098   4.505 -0.2215 -0.4255  0.0562
  434MOL0     C57210   0.353  10.797   4.672  0.2983  0.0100  0.0079
  434MOL0     C57211   0.248  10.704   4.667 -0.7639 -0.4772  1.1391
  434MOL0     C57212   0.227  10.631   4.785  0.2103  0.1426 -0.5705
  434MOL0     C57213   0.304  10.646   4.897 -0.3281  0.2341 -0.8569
  434MOL0     O57214   0.272  10.564   5.005  0.2875  0.1414  0.1467
  434MOL0     C57215   0.321  10.613   5.132  1.5849  0.0132 -0.1430
  434MOL0     C57216   0.245  10.551   5.244  0.9341 -0.2444 -0.4152
  434MOL0     C57217   0.145  10.669   5.289  0.0996  0.3469  0.9419
  434MOL0     C57218   0.051  10.641   5.411 -0.1665  0.8291 -0.3041
  434MOL0     C57219   0.142  10.622   5.529  0.5401 -0.0695 -0.8310
  434MOL0     C57220   0.217  10.593   5.618  1.1920  0.2104 -0.1308
  434MOL0     C57221   0.410  10.739   4.894  0.4948 -0.0905  0.4714
  434MOL0     C57222   0.438  10.809   4.783  0.4099  0.0461  1.0282
  434MOL0     H57223   0.457  10.960   4.273  0.5901  0.4198 -1.3771
  434MOL0     H57224   0.563  11.119   4.127 -0.7670 -2.8068 -0.7034
  434MOL0     H57225   0.595  11.350   4.094 -0.1784  0.3113 -0.9771
  434MOL0     H57226   0.744  11.282   4.014  0.7173  2.1084 -2.1146
  434MOL0     H57227   0.868  11.485   4.081 -0.1130 -1.8299 -0.2194
  434MOL0     H57228   0.736  11.545   4.174  1.3850 -1.2951  0.8580
  434MOL0     H57229   0.741  11.664   3.967 -0.2251  0.2714  0.2185
  434MOL0     H57230   0.581  11.582   3.998 -1.1301 -1.3114 -3.2837
  434MOL0     H57231   0.792  11.475   3.809 -0.2403  0.7974 -0.4767
  434MOL0     H57232   0.631  11.401   3.844  0.4012 -1.4233 -1.9769
  434MOL0     H57233   0.666  11.660   3.684  1.1659 -3.0851 -2.9237
  434MOL0     H57234   0.522  11.637   3.780  0.4595  0.1509  1.0027
  434MOL0     H57235   0.510  11.574   3.553  1.5495  3.5056  2.7507
  434MOL0     H57236   0.452  11.442   3.643 -0.8752  0.3418 -3.4946
  434MOL0     H57237   0.723  11.456   3.506  0.9179 -3.1894 -2.3609
  434MOL0     H57238   0.688  11.339   3.629 -2.4512 -1.7472 -1.1169
  434MOL0     H57239   0.517  11.378   3.383 -0.4942 -2.6518 -2.2163
  434MOL0     H57240   0.477  11.255   3.496 -1.6082  1.8144 -0.1132
  434MOL0     H57241   0.677  11.036   3.524  5.6668 -0.8430  1.5160
  434MOL0     H57242   0.881  10.894   3.454 -1.1997  1.0224  0.3041
  434MOL0     H57243   0.956  10.939   3.308  0.8905 -0.1718 -0.7754
  434MOL0     H57244   0.768  10.859   3.174 -0.4749  0.0432  0.4470
  434MOL0     H57245   0.674  10.820   3.319  0.6016  1.1932  3.5315
  434MOL0     H57246   0.820  10.636   3.183 -0.2296 -0.8630 -0.1602
  434MOL0     H57247   0.954  10.706   3.270  0.0990  1.1672  1.0843
  434MOL0     H57248   0.888  10.508   3.400 -0.7877 -0.6821 -1.4443
  434MOL0     H57249   0.725  10.566   3.419  0.1760 -0.0540  0.7911
  434MOL0     H57250   0.741  10.405   3.566  1.8134 -0.7766  0.8536
  434MOL0     H57251   0.734  10.287   3.774 -2.6398  0.0271  2.8001
  434MOL0     H57252   0.673  10.463   4.301  1.2605  0.8102 -3.3196
  434MOL0     H57253   0.631  10.316   4.492 -1.2876  1.3922 -0.2357
  434MOL0     H57254   0.660  10.059   4.703 -1.8765  0.3909  1.5890
  434MOL0     H57255   0.667  10.235   4.718 -0.8390 -0.7980  4.9732
  434MOL0     H57256   0.869  10.216   4.851 -1.3772  0.0237  2.0198
  434MOL0     H57257   0.897  10.045   4.812  2.3219  1.7889 -1.4308
  434MOL0     H57258   0.657  10.152   4.971  0.8982  1.2156 -2.8097
  434MOL0     H57259   0.793  10.089   5.047  2.5316 -2.1984 -1.6408
  434MOL0     H57260   0.632   9.914   5.047  1.6994 -0.6373  1.8167
  434MOL0     H57261   0.619   9.927   4.868 -0.5146 -1.7011  0.2107
  434MOL0     H57262   0.903   9.862   4.947  1.3489 -1.6797 -0.1923
  434MOL0     H57263   0.813   9.799   4.819 -2.8027  2.9873 -1.3995
  434MOL0     H57264   0.676   9.666   5.007 -0.9484 -0.4885 -2.4913
  434MOL0     H57265   0.813   9.706   5.111  1.6176 -2.1050  0.7255
  434MOL0     H57266   0.811   9.493   5.022  2.9291  3.0297  2.9919
  434MOL0     H57267   0.799   9.548   4.843 -0.4118  0.0508 -0.1783
  434MOL0     H57268   1.015   9.670   4.880  2.5118 -1.1065  0.3780
  434MOL0     H57269   1.028   9.497   4.886  0.2764  0.0520 -1.8265
  434MOL0     H57270   1.019  10.141   4.452  0.4310 -2.0270 -2.2439
  434MOL0     H57271   1.059  10.262   4.244 -1.1365 -1.6441 -1.3152
  434MOL0     H57272   0.901  10.647   3.970  0.1593  2.6266 -2.3576
  434MOL0     H57273   0.910  10.748   3.754  0.4020 -0.0879  1.1980
  434MOL0     H57274   0.813  11.243   4.458 -1.6888  2.0784 -1.1228
  434MOL0     H57275   0.713  11.077   4.599  0.6398  3.6551  0.7101
  434MOL0     H57276   0.201  10.684   4.572  1.5951  0.8491 -0.4254
  434MOL0     H57277   0.149  10.556   4.779  3.5323 -3.8424  1.4927
  434MOL0     H57278   0.309  10.722   5.130  0.6240 -0.0551 -2.9520
  434MOL0     H57279   0.420  10.571   5.151  0.5973 -2.0892  0.6197
  434MOL0     H57280   0.191  10.461   5.213 -0.6157  0.7232 -0.6261
  434MOL0     H57281   0.306  10.515   5.328 -0.3490  0.3229  0.7938
  434MOL0     H57282   0.080  10.699   5.206 -0.4167 -1.9793  0.4102
  434MOL0     H57283   0.197  10.761   5.314 -1.5910  1.4150  0.6964
  434MOL0     H57284  -0.004  10.730   5.443  1.5222  1.8758 -0.2157
  434MOL0     H57285  -0.011  10.554   5.384  0.4105  0.6051 -0.9488
  434MOL0     H57286   0.290  10.570   5.693 -0.1086  2.1883  1.8723
  434MOL0     H57287   0.472  10.757   4.981  2.6050  1.1657 -1.2091
  434MOL0     H57288   0.522  10.878   4.779  1.4591 -1.2357 -0.0394
  435MOL0     O57289   7.020   6.275   3.411  0.3396 -0.2299  0.0475
  435MOL0     C57290   7.133   6.313   3.453  0.5229  0.6254  0.0195
  435MOL0     O57291   7.164   6.431   3.507 -0.1622 -0.0711 -0.3103
  435MOL0     C57292   7.074   6.536   3.487 -0.4345  0.3850 -0.3190
  435MOL0     C57293   7.067   6.638   3.581  0.7450  0.0097  0.1729
  435MOL0     C57294   6.979   6.748   3.569  0.5743  0.4375 -0.9842
  435MOL0     C57295   6.901   6.767   3.459  0.7680 -0.1511 -0.3179
  435MOL0     O57296   6.821   6.880   3.448  0.6195  0.5225  0.4997
  435MOL0     C57297   6.719   6.891   3.346  0.2216  0.3255 -0.0988
  435MOL0     C57298   6.660   7.035   3.343 -0.2006 -0.4150 -0.3693
  435MOL0     C57299   6.572   7.045   3.225 -0.7694 -0.2422 -0.2909
  435MOL0     C57300   6.536   7.189   3.202 -0.1038 -0.5045  0.2454
  435MOL0     C57301   6.466   7.204   3.057 -0.6620  0.3610 -0.3875
  435MOL0     C57302   6.405   7.345   3.023 -0.0110  0.5922  0.0699
  435MOL0     C57303   6.505   7.457   3.059 -0.2301 -0.1171 -0.4925
  435MOL0     C57304   6.468   7.592   2.994 -0.5610  1.0557  0.1716
  435MOL0     N57305   6.363   7.664   3.065 -0.2860  0.4799  0.1082
  435MOL0     C57306   6.230   7.645   3.018  0.0063 -0.9195  0.7604
  435MOL0     C57307   6.156   7.709   3.120 -0.8331  0.0496 -0.5553
  435MOL0     C57308   6.009   7.727   3.116 -0.3105 -1.1963  0.1820
  435MOL0     C57309   5.938   7.601   3.136  0.2202  0.4811 -0.2928
  435MOL0     C57310   5.789   7.612   3.112  0.1733  0.0504  0.2057
  435MOL0     C57311   5.723   7.740   3.168  0.1072  0.3276  0.0360
  435MOL0     O57312   5.580   7.745   3.137 -0.1962 -0.5352 -0.4657
  435MOL0     C57313   5.520   7.864   3.166  0.9928 -0.0908  0.5093
  435MOL0     C57314   5.485   7.952   3.063 -0.3628  0.8309  1.0821
  435MOL0     C57315   5.400   8.061   3.086  0.1038 -0.2821  1.1290
  435MOL0     C57316   5.339   8.082   3.209  0.8735 -0.6037 -0.3579
  435MOL0     C57317   5.233   8.187   3.229  0.1991 -0.5350 -0.5788
  435MOL0     O57318   5.175   8.244   3.115 -0.2573  0.2350 -0.2646
  435MOL0     C57319   5.078   8.342   3.113 -0.2129 -0.1133  1.1229
  435MOL0     C57320   5.037   8.429   3.220 -0.3694  0.2929  0.4090
  435MOL0     C57321   4.949   8.535   3.196  0.1602  0.1922  0.0788
  435MOL0     C57322   4.908   8.567   3.066 -0.2736 -0.6466  0.7138
  435MOL0     O57323   4.813   8.668   3.054  0.2414 -0.5793  0.1832
  435MOL0     C57324   4.693   8.634   2.979 -0.6281  0.2603 -1.6716
  435MOL0     C57325   4.615   8.521   3.045  0.2716  0.5946  1.0370
  435MOL0     C57326   4.572   8.546   3.187 -0.3004 -0.4085 -1.0760
  435MOL0     C57327   4.461   8.460   3.238  0.3987 -0.6853 -0.2914
  435MOL0     C57328   4.377   8.540   3.349  0.3277  0.9150 -0.0482
  435MOL0     C57329   4.453   8.594   3.467  0.2325  0.8936  0.0899
  435MOL0     C57330   4.453   8.498   3.583  0.3785  0.0623  0.3969
  435MOL0     C57331   4.575   8.529   3.679 -0.4675 -0.0638  0.8704
  435MOL0    Cl57332   4.593   8.693   3.748  0.0967  0.0869  0.2316
  435MOL0     C57333   4.941   8.478   2.967  0.3436 -1.1038 -0.2487
  435MOL0     C57334   5.018   8.363   2.989  0.1187 -1.4989 -0.0902
  435MOL0     O57335   5.212   8.219   3.347  0.3805  0.0010 -0.3177
  435MOL0     C57336   5.361   7.990   3.313 -0.6743  1.1722  0.1077
  435MOL0     C57337   5.454   7.885   3.285 -0.1032 -0.0151  0.6305
  435MOL0     N57338   6.244   7.738   3.224 -0.1175  0.5895  0.2997
  435MOL0     N57339   6.372   7.711   3.191  0.2671 -0.4876  0.5199
  435MOL0     C57340   6.902   6.662   3.370 -0.6243  0.4749  0.0692
  435MOL0     C57341   6.989   6.559   3.375 -0.5302  0.0348  0.2574
  435MOL0     C57342   7.250   6.215   3.440  0.0961 -0.8940  0.3728
  435MOL0     C57343   7.239   6.084   3.397 -0.8783  0.6744 -0.5016
  435MOL0     C57344   7.345   5.994   3.397  0.2888 -0.0033 -0.2732
  435MOL0     C57345   7.466   6.039   3.445  0.2006 -1.8869  0.3483
  435MOL0     O57346   7.583   5.969   3.426 -0.6313 -0.9427  0.7668
  435MOL0     C57347   7.599   5.850   3.359 -0.2148  0.0204 -0.7221
  435MOL0     C57348   7.731   5.862   3.282 -0.4811 -0.3654  0.6772
  435MOL0     C57349   7.869   5.889   3.353 -0.8127  0.3185  0.4004
  435MOL0     C57350   7.892   5.793   3.467  0.1950 -0.1300  0.3305
  435MOL0     C57351   8.033   5.763   3.494 -0.0865 -1.5821  0.0536
  435MOL0     C57352   8.153   5.743   3.511  1.6541  0.9586 -0.5832
  435MOL0     C57353   7.476   6.168   3.503 -0.6300  0.9482  0.5934
  435MOL0     C57354   7.372   6.256   3.492  0.3837  0.9892  0.0938
  435MOL0     H57355   7.132   6.644   3.668  0.5493 -0.1938  0.3307
  435MOL0     H57356   6.973   6.822   3.649 -3.1007 -1.3167  0.6154
  435MOL0     H57357   6.639   6.821   3.372 -0.7289  1.8089  1.1821
  435MOL0     H57358   6.757   6.866   3.247 -2.0991 -0.0010 -0.9624
  435MOL0     H57359   6.740   7.110   3.339 -1.3463  0.9371  0.6819
  435MOL0     H57360   6.598   7.055   3.431  1.3287  0.5857  0.5268
  435MOL0     H57361   6.481   6.985   3.231 -0.6633 -0.2952  1.0016
  435MOL0     H57362   6.631   7.024   3.135 -1.3494 -0.2310 -0.6777
  435MOL0     H57363   6.470   7.215   3.285 -0.1418  0.3327 -0.0347
  435MOL0     H57364   6.628   7.249   3.206 -1.6565  2.0730 -0.4957
  435MOL0     H57365   6.381   7.134   3.062 -1.1274  0.9386 -0.0119
  435MOL0     H57366   6.532   7.179   2.974 -1.2988 -0.8486 -0.5580
  435MOL0     H57367   6.315   7.346   3.084  1.9345  3.4192  3.2040
  435MOL0     H57368   6.376   7.351   2.917 -0.7305 -2.5391  0.0011
  435MOL0     H57369   6.540   7.468   3.162  0.7867 -3.1362 -0.4104
  435MOL0     H57370   6.607   7.436   3.027  0.4774  1.6475  0.4654
  435MOL0     H57371   6.442   7.579   2.889 -0.1383  1.4509  0.0196
  435MOL0     H57372   6.557   7.654   3.004 -0.6322  1.2185 -0.1909
  435MOL0     H57373   6.195   7.594   2.929 -1.6848  1.1691  0.1249
  435MOL0     H57374   5.983   7.759   3.015 -1.9538  1.6960  1.3984
  435MOL0     H57375   5.990   7.809   3.186 -1.7227 -0.0034 -1.5272
  435MOL0     H57376   5.953   7.560   3.236  0.9541  2.0100  0.2627
  435MOL0     H57377   5.983   7.526   3.071 -1.4483 -2.4974  1.7614
  435MOL0     H57378   5.779   7.598   3.004  0.5753 -0.5626  0.2439
  435MOL0     H57379   5.739   7.530   3.165  3.3515 -2.3828 -0.2458
  435MOL0     H57380   5.778   7.821   3.119  3.0105  0.0916  2.5814
  435MOL0     H57381   5.731   7.745   3.277 -2.0505  1.6932  0.1910
  435MOL0     H57382   5.511   7.932   2.960  0.1253  1.2902  1.1103
  435MOL0     H57383   5.365   8.123   3.004 -3.8574 -0.8590  2.1345
  435MOL0     H57384   5.060   8.396   3.320 -1.3460  0.3816  0.6686
  435MOL0     H57385   4.906   8.590   3.279  2.8078 -0.4081  2.0008
  435MOL0     H57386   4.718   8.601   2.878 -1.1486  0.1761 -1.7773
  435MOL0     H57387   4.623   8.718   2.969 -1.3582 -0.0250  0.6014
  435MOL0     H57388   4.680   8.433   3.052 -0.8598 -0.5507 -1.6398
  435MOL0     H57389   4.540   8.473   2.981  1.4609  1.3318 -1.0024
  435MOL0     H57390   4.536   8.649   3.194  1.5923  0.2015  1.7708
  435MOL0     H57391   4.661   8.522   3.246  0.3867  1.5011 -1.2731
  435MOL0     H57392   4.382   8.440   3.164  3.0885 -0.0935 -3.5825
  435MOL0     H57393   4.492   8.364   3.281 -0.6365 -0.9915 -0.1907
  435MOL0     H57394   4.292   8.483   3.388 -1.5419  1.0223 -3.5193
  435MOL0     H57395   4.334   8.631   3.305 -1.5004  0.5461  0.8701
  435MOL0     H57396   4.405   8.680   3.515 -1.4746 -0.3024  0.5832
  435MOL0     H57397   4.555   8.626   3.441  0.8397  0.8518  2.2031
  435MOL0     H57398   4.358   8.513   3.635  1.6360  4.7948  1.7785
  435MOL0     H57399   4.454   8.395   3.545 -2.6147 -0.0745  0.4537
  435MOL0     H57400   4.669   8.495   3.635  0.1129  0.8673  1.3584
  435MOL0     H57401   4.567   8.469   3.770  1.5286  0.5966  1.5331
  435MOL0     H57402   4.904   8.485   2.865  0.8967 -0.8935 -0.4382
  435MOL0     H57403   5.041   8.298   2.905  1.6335 -1.6749  0.4295
  435MOL0     H57404   5.302   8.000   3.404  0.3580  0.2018  0.9246
  435MOL0     H57405   5.470   7.808   3.361  0.3850  1.6309  2.2821
  435MOL0     H57406   6.836   6.662   3.284  0.3022 -2.9430 -0.7632
  435MOL0     H57407   6.991   6.494   3.288 -1.0158  0.8275 -0.3601
  435MOL0     H57408   7.147   6.052   3.350 -0.7505  2.1708 -1.8682
  435MOL0     H57409   7.322   5.904   3.341  0.1032  1.0334 -1.9301
  435MOL0     H57410   7.515   5.839   3.291 -3.8554 -3.6299  3.6689
  435MOL0     H57411   7.600   5.771   3.435 -1.1467 -0.0680 -0.7906
  435MOL0     H57412   7.729   5.785   3.205 -1.2484  2.0553 -1.9135
  435MOL0     H57413   7.728   5.953   3.221  1.2139 -0.7472 -0.0238
  435MOL0     H57414   7.878   5.993   3.387 -0.9124 -0.1982  2.1068
  435MOL0     H57415   7.944   5.869   3.277 -1.0014  0.5615  0.1483
  435MOL0     H57416   7.842   5.832   3.556  0.7052 -1.3781  1.1788
  435MOL0     H57417   7.838   5.700   3.447 -0.4805  1.0804 -5.2986
  435MOL0     H57418   8.257   5.726   3.529  1.4958  1.2297  0.6717
  435MOL0     H57419   7.576   6.196   3.534  0.1200 -2.3091  1.5096
  435MOL0     H57420   7.389   6.354   3.535  1.9314 -0.3659  2.8593
  436MOL0     O57421   8.038   2.389   2.086 -0.1496  0.2084  0.3160
  436MOL0     C57422   7.952   2.327   2.133  0.4561  0.8723 -1.0469
  436MOL0     O57423   7.843   2.295   2.060  0.7193  0.1547 -0.4158
  436MOL0     C57424   7.826   2.315   1.923 -0.4210  0.3266 -0.0418
  436MOL0     C57425   7.917   2.261   1.828 -0.0399  0.2170  0.8379
  436MOL0     C57426   7.875   2.267   1.695 -0.0910  0.6087  0.6071
  436MOL0     C57427   7.759   2.319   1.654  0.0527  0.4573 -0.4872
  436MOL0     O57428   7.742   2.329   1.515  0.9659 -0.3760  0.8404
  436MOL0     C57429   7.846   2.385   1.432 -0.0110  0.9465  0.6109
  436MOL0     C57430   7.840   2.543   1.439  0.4273  0.8203  0.1913
  436MOL0     C57431   7.977   2.602   1.411  0.5412 -0.4483 -0.0384
  436MOL0     C57432   7.945   2.760   1.413  0.9417  0.2551  0.2154
  436MOL0     C57433   8.069   2.844   1.386 -0.6291  0.4880 -0.0154
  436MOL0     C57434   8.161   2.848   1.512 -0.4708 -0.2940 -0.4634
  436MOL0     C57435   8.282   2.943   1.491  0.2644 -0.2708  0.4884
  436MOL0     C57436   8.362   2.921   1.363 -0.0454  0.6202 -0.7962
  436MOL0     N57437   8.428   2.796   1.366  0.1576 -0.6710  0.1082
  436MOL0     C57438   8.390   2.677   1.317 -0.4635 -0.1521  0.4323
  436MOL0     C57439   8.505   2.601   1.301  0.7392  0.3591  0.1386
  436MOL0     C57440   8.510   2.459   1.258  0.1813 -1.3406  0.1627
  436MOL0     C57441   8.475   2.355   1.365  0.2024 -0.3502 -0.3001
  436MOL0     C57442   8.324   2.368   1.409 -0.0828 -0.4828  0.4223
  436MOL0     C57443   8.277   2.264   1.515  1.4521  0.0841 -0.1293
  436MOL0     O57444   8.267   2.124   1.469  0.1118 -0.2361  0.3411
  436MOL0     C57445   8.258   2.020   1.561  1.2581 -0.1920 -0.1258
  436MOL0     C57446   8.184   2.012   1.682  0.3460 -1.0422 -0.5057
  436MOL0     C57447   8.189   1.912   1.787 -0.3935  0.3486  1.0287
  436MOL0     C57448   8.259   1.803   1.750 -0.3674 -0.5869  0.3929
  436MOL0     C57449   8.267   1.688   1.840 -0.5334  0.5445  0.2329
  436MOL0     O57450   8.188   1.703   1.959  0.2269 -0.2513 -0.0101
  436MOL0     C57451   8.185   1.609   2.052 -0.5180  0.0649 -0.8015
  436MOL0     C57452   8.247   1.633   2.175  0.4719 -0.1939 -0.7808
  436MOL0     C57453   8.250   1.524   2.264 -0.1127 -0.1431 -0.3900
  436MOL0     C57454   8.172   1.405   2.248 -0.5845  0.2083 -1.4643
  436MOL0     O57455   8.185   1.296   2.336  0.2488  0.0818 -0.2683
  436MOL0     C57456   8.287   1.297   2.432  0.2898 -0.6647  0.3907
  436MOL0     C57457   8.240   1.312   2.576  0.6756 -0.5271 -0.0932
  436MOL0     C57458   8.140   1.445   2.599  0.3290  0.9839 -0.1103
  436MOL0     C57459   8.078   1.442   2.741  0.6735  0.3935  0.2469
  436MOL0     C57460   8.029   1.583   2.775 -0.2454 -0.2535 -0.3731
  436MOL0     C57461   7.878   1.604   2.750 -0.5336 -0.2223 -0.0205
  436MOL0     C57462   7.839   1.755   2.779 -0.5510 -0.1324  0.7687
  436MOL0     C57463   7.775   1.794   2.917 -0.9488  0.6229  0.1255
  436MOL0    Cl57464   7.890   1.802   3.050  0.1665 -0.3322  0.5614
  436MOL0     C57465   8.107   1.390   2.129  0.4691  0.5946  0.6218
  436MOL0     C57466   8.126   1.487   2.033  0.3615  0.2835  0.7582
  436MOL0     O57467   8.349   1.597   1.813  0.5964 -0.5865 -0.0551
  436MOL0     C57468   8.343   1.804   1.636  1.0393 -0.8044  0.8831
  436MOL0     C57469   8.329   1.906   1.537  0.5325 -0.7215 -0.0685
  436MOL0     N57470   8.606   2.681   1.338 -0.7319 -0.3708  0.0535
  436MOL0     N57471   8.556   2.787   1.387 -0.0184 -0.2869 -0.2733
  436MOL0     C57472   7.671   2.378   1.743  0.2045  0.7084  0.3173
  436MOL0     C57473   7.704   2.375   1.881 -0.2634 -0.5213 -0.7278
  436MOL0     C57474   7.955   2.275   2.276  0.6871 -0.3252  0.1799
  436MOL0     C57475   8.058   2.310   2.360 -0.4806 -0.1931 -0.1595
  436MOL0     C57476   8.046   2.256   2.488 -0.0622 -0.0994  0.7034
  436MOL0     C57477   7.957   2.156   2.527 -0.5850  0.2127  0.0059
  436MOL0     O57478   7.966   2.096   2.653  0.2117  0.1401 -0.3402
  436MOL0     C57479   8.026   2.175   2.764  0.4160 -0.8592  0.8638
  436MOL0     C57480   8.007   2.078   2.881  0.9057  0.2067 -0.0089
  436MOL0     C57481   8.090   2.111   3.001  0.5725  0.5459 -0.3780
  436MOL0     C57482   8.054   2.260   3.049 -0.9243 -0.1775 -0.6702
  436MOL0     C57483   8.080   2.280   3.194  1.0361  0.8802 -0.4249
  436MOL0     C57484   8.107   2.309   3.310 -0.5294 -0.9292  0.7019
  436MOL0     C57485   7.856   2.123   2.435  1.1884  0.7243  0.4302
  436MOL0     C57486   7.845   2.191   2.313 -0.6052 -0.8066 -0.0027
  436MOL0     H57487   8.014   2.221   1.854  0.3867  0.6694 -0.0271
  436MOL0     H57488   7.945   2.222   1.625  0.2861  0.0483  1.3244
  436MOL0     H57489   7.823   2.359   1.328 -1.7573  1.1224  0.9195
  436MOL0     H57490   7.941   2.352   1.475 -0.9048 -0.9479  1.2348
  436MOL0     H57491   7.803   2.579   1.535 -1.7508  2.5245 -1.1662
  436MOL0     H57492   7.781   2.572   1.351 -0.7845  0.0895  0.7458
  436MOL0     H57493   8.012   2.585   1.308  0.7311  2.4618 -0.5313
  436MOL0     H57494   8.056   2.561   1.474  1.0361  0.8104  0.1836
  436MOL0     H57495   7.867   2.787   1.342  0.1996  0.1414  0.9652
  436MOL0     H57496   7.908   2.785   1.513 -0.6991  1.9771 -0.7616
  436MOL0     H57497   8.029   2.943   1.361 -0.8673  0.3243 -0.2898
  436MOL0     H57498   8.136   2.805   1.309  0.5015  0.4012  0.9866
  436MOL0     H57499   8.198   2.748   1.536  0.2675  0.1758  0.4443
  436MOL0     H57500   8.110   2.881   1.604  0.2141  0.2658 -0.2736
  436MOL0     H57501   8.245   3.046   1.486  0.5579 -0.2178 -1.1333
  436MOL0     H57502   8.359   2.940   1.568 -2.1923 -0.8548  3.1192
  436MOL0     H57503   8.440   2.997   1.355  2.1181 -1.4742 -0.5862
  436MOL0     H57504   8.303   2.938   1.272  0.3211  0.8128 -1.0012
  436MOL0     H57505   8.295   2.651   1.271 -0.5186  3.0565 -1.5720
  436MOL0     H57506   8.614   2.451   1.225  0.1309 -1.4679  0.0316
  436MOL0     H57507   8.448   2.435   1.171  1.2677 -0.5416 -0.8623
  436MOL0     H57508   8.531   2.364   1.458 -2.8504  0.8529  1.5886
  436MOL0     H57509   8.500   2.261   1.315  3.2760  1.6926 -2.9929
  436MOL0     H57510   8.309   2.468   1.451 -0.2237 -0.1965 -0.2880
  436MOL0     H57511   8.250   2.355   1.329 -0.6171  3.1032  0.1412
  436MOL0     H57512   8.179   2.290   1.557  0.4450 -1.9471 -1.1097
  436MOL0     H57513   8.341   2.265   1.603  1.5702 -2.8865 -0.0792
  436MOL0     H57514   8.123   2.097   1.709 -0.7100 -1.5989 -1.0994
  436MOL0     H57515   8.132   1.915   1.879 -0.0532 -2.2183  1.3990
  436MOL0     H57516   8.303   1.724   2.194 -0.9017  0.7291 -0.9944
  436MOL0     H57517   8.308   1.542   2.354 -0.3952 -1.3328  0.0503
  436MOL0     H57518   8.365   1.370   2.408 -0.2243  0.3382  1.6752
  436MOL0     H57519   8.329   1.196   2.421 -1.1194 -1.2751  0.3165
  436MOL0     H57520   8.331   1.337   2.632 -0.0223  0.2113  0.7314
  436MOL0     H57521   8.196   1.217   2.608  0.6270 -0.0594  1.3219
  436MOL0     H57522   8.058   1.440   2.526 -1.5396 -2.2904  1.9379
  436MOL0     H57523   8.204   1.532   2.587  2.3404 -0.6462 -2.1776
  436MOL0     H57524   7.997   1.369   2.746 -0.5996  1.7331 -0.0475
  436MOL0     H57525   8.159   1.416   2.809 -0.3291 -1.2143  0.8766
  436MOL0     H57526   8.085   1.663   2.728 -0.1979 -0.9166 -1.4748
  436MOL0     H57527   8.035   1.597   2.884 -1.8458  2.4139 -0.5624
  436MOL0     H57528   7.818   1.539   2.814 -0.8215 -1.2464 -1.2855
  436MOL0     H57529   7.847   1.581   2.648 -0.4831  0.0445 -0.0976
  436MOL0     H57530   7.924   1.823   2.764 -0.0196 -0.7772  0.7845
  436MOL0     H57531   7.759   1.778   2.709 -1.2105 -0.0879  1.5189
  436MOL0     H57532   7.708   1.709   2.928 -1.9859  1.6439  2.3744
  436MOL0     H57533   7.709   1.881   2.928 -3.0493 -0.9611  0.7659
  436MOL0     H57534   8.043   1.304   2.116 -1.3221  1.9444  0.1041
  436MOL0     H57535   8.098   1.467   1.930 -0.3201 -0.4558  1.0733
  436MOL0     H57536   8.432   1.744   1.616 -0.0247 -1.9121 -0.7513
  436MOL0     H57537   8.394   1.910   1.449 -0.1481 -1.1934 -0.6027
  436MOL0     H57538   7.590   2.444   1.713  1.0600  0.1506 -3.8401
  436MOL0     H57539   7.638   2.425   1.951  2.2339  1.9676  0.0352
  436MOL0     H57540   8.134   2.384   2.340 -0.8101  0.8116  1.9909
  436MOL0     H57541   8.112   2.308   2.557 -0.1892  1.3995 -0.2485
  436MOL0     H57542   7.979   2.269   2.792 -0.4629 -1.1442  0.3824
  436MOL0     H57543   8.132   2.188   2.739  0.0076  1.8612  0.2997
  436MOL0     H57544   7.900   2.087   2.904  0.8891  2.1148 -0.6364
  436MOL0     H57545   8.012   1.971   2.862  0.6761  0.2514 -0.3332
  436MOL0     H57546   8.198   2.106   2.985  0.1015 -1.7704 -4.0444
  436MOL0     H57547   8.071   2.052   3.091  1.8934  3.8658  2.3125
  436MOL0     H57548   8.103   2.342   2.995 -1.8153 -0.2945 -1.6773
  436MOL0     H57549   7.946   2.271   3.033 -1.0726 -2.3450 -1.3910
  436MOL0     H57550   8.131   2.340   3.409 -0.0232  1.7534 -0.1859
  436MOL0     H57551   7.793   2.041   2.467 -0.1505  1.9741  1.1468
  436MOL0     H57552   7.758   2.164   2.255 -0.2067  0.2117 -1.1092
  437MOL0     O57553   7.210   0.816   0.932  0.2225 -0.7461 -0.2523
  437MOL0     C57554   7.234   0.875   1.032 -0.1604 -0.6570 -1.0817
  437MOL0     O57555   7.280   1.009   1.046 -0.5341 -0.3673 -0.0695
  437MOL0     C57556   7.248   1.089   0.943 -0.7599 -0.2912  0.1600
  437MOL0     C57557   7.113   1.133   0.922  0.0800 -0.4985  0.4614
  437MOL0     C57558   7.086   1.195   0.804  0.0046 -0.0735  0.8422
  437MOL0     C57559   7.178   1.213   0.694 -0.9385  0.3771  0.0765
  437MOL0     O57560   7.156   1.258   0.567  0.0791  0.1901 -0.6054
  437MOL0     C57561   7.017   1.292   0.542 -0.4806  0.5105 -0.2421
  437MOL0     C57562   6.929   1.184   0.503  0.8676 -0.8379  0.4688
  437MOL0     C57563   6.944   1.144   0.357 -0.5610 -0.7981  0.6658
  437MOL0     C57564   6.832   1.172   0.251  0.0004  0.1219 -1.2053
  437MOL0     C57565   6.711   1.069   0.260  0.6264 -0.1906  0.2557
  437MOL0     C57566   6.748   0.935   0.194 -0.1883 -0.8079 -0.5610
  437MOL0     C57567   6.671   0.827   0.256 -0.4862  0.2663 -0.0622
  437MOL0     C57568   6.694   0.694   0.190 -0.3221 -0.8925  0.0126
  437MOL0     N57569   6.604   0.589   0.258 -0.3820 -0.2745 -0.0852
  437MOL0     C57570   6.640   0.509   0.360 -0.4928 -0.1331 -0.4395
  437MOL0     C57571   6.535   0.438   0.391  0.3863  1.0660  1.1768
  437MOL0     C57572   6.521   0.331   0.497 -0.1478  0.3100  0.0763
  437MOL0     C57573   6.421   0.222   0.455 -1.0969  0.1410 -1.1320
  437MOL0     C57574   6.480   0.093   0.379 -0.6920 -0.1082 -0.3314
  437MOL0     C57575   6.520   0.121   0.231  0.0865 -0.6968 -0.3089
  437MOL0     O57576   6.645   0.186   0.217  0.9471 -0.8426  0.0144
  437MOL0     C57577   6.700   0.205   0.092  0.5079 -0.6585 -0.0482
  437MOL0     C57578   6.828   0.146   0.069 -0.0147 -0.4786  0.2235
  437MOL0     C57579   6.886   0.160  -0.057 -0.3064 -0.5556  0.1320
  437MOL0     C57580   6.828   0.245  -0.162 -1.0430  0.8651 -0.3349
  437MOL0     C57581   6.888   0.277  -0.293  0.5864 -0.1337  0.1480
  437MOL0     O57582   6.831   0.369  -0.381  0.6059  0.3078  0.2570
  437MOL0     C57583   6.871   0.361  -0.507  0.3581 -0.4200  0.3388
  437MOL0     C57584   6.851   0.257  -0.601  0.0696 -0.1481 -1.1849
  437MOL0     C57585   6.882   0.274  -0.739  0.1297 -0.1717 -0.2428
  437MOL0     C57586   6.924   0.397  -0.784 -0.5584 -0.2784  0.5797
  437MOL0     O57587   6.956   0.420  -0.916 -0.1761  0.1115 -0.3643
  437MOL0     C57588   7.082   0.377  -0.959  0.4081 -0.7269  0.7026
  437MOL0     C57589   7.091   0.251  -1.040 -0.0710  1.0884  0.7417
  437MOL0     C57590   7.229   0.190  -1.030  0.1498  0.1565 -0.2034
  437MOL0     C57591   7.323   0.259  -1.133  0.2866  0.1746 -0.2301
  437MOL0     C57592   7.452   0.182  -1.153 -0.1958 -0.0084 -0.1796
  437MOL0     C57593   7.524   0.163  -1.016 -0.1016 -0.5044  0.0221
  437MOL0     C57594   7.674   0.125  -1.031 -0.6064 -0.0150 -0.5852
  437MOL0     C57595   7.771   0.129  -0.908 -0.4149 -0.5572  1.0579
  437MOL0    Cl57596   7.735   0.017  -0.780 -0.2253  0.3553  0.0996
  437MOL0     C57597   6.950   0.496  -0.699 -0.7406  1.3412 -0.2335
  437MOL0     C57598   6.930   0.488  -0.563  0.1073  0.4548 -0.4380
  437MOL0     O57599   6.983   0.205  -0.310 -0.2809 -0.0645  0.0563
  437MOL0     C57600   6.699   0.311  -0.134  0.0674  0.3576 -0.1140
  437MOL0     C57601   6.651   0.284  -0.008  0.1519  0.3604  0.3556
  437MOL0     N57602   6.441   0.470   0.283 -0.5399  0.7129 -0.3536
  437MOL0     N57603   6.489   0.555   0.202  0.6873  1.0142  0.0513
  437MOL0     C57604   7.314   1.178   0.729 -0.8900 -0.7486 -0.3779
  437MOL0     C57605   7.349   1.113   0.847 -1.5239 -1.1939  0.3059
  437MOL0     C57606   7.237   0.788   1.157 -0.1760  0.4415  0.2280
  437MOL0     C57607   7.167   0.672   1.160 -0.1424 -0.0345 -0.0161
  437MOL0     C57608   7.174   0.578   1.271 -0.7860  1.4514  0.4314
  437MOL0     C57609   7.237   0.622   1.386 -0.9546  0.4887 -0.3007
  437MOL0     O57610   7.236   0.539   1.493  0.2536  0.2303 -0.5679
  437MOL0     C57611   7.326   0.571   1.601 -0.2904  0.2027 -0.6370
  437MOL0     C57612   7.310   0.462   1.712 -0.1102  0.3243 -0.0809
  437MOL0     C57613   7.427   0.448   1.806 -0.3689  0.3234 -0.6986
  437MOL0     C57614   7.396   0.341   1.916  0.1979  0.0929  0.4529
  437MOL0     C57615   7.397   0.198   1.880 -0.4384  0.5317 -0.4013
  437MOL0     C57616   7.405   0.078   1.863  0.2665 -0.1190  0.9294
  437MOL0     C57617   7.303   0.746   1.384  0.5773 -0.2294 -0.2757
  437MOL0     C57618   7.309   0.824   1.271 -0.1734 -0.1999 -0.6188
  437MOL0     H57619   7.033   1.103   0.988 -0.0446 -0.9473  0.1104
  437MOL0     H57620   6.981   1.219   0.817 -0.1120  1.7365 -2.4434
  437MOL0     H57621   7.019   1.368   0.463 -0.0106 -1.0214 -1.7730
  437MOL0     H57622   6.965   1.350   0.618  0.2944  1.2400 -0.2604
  437MOL0     H57623   6.827   1.212   0.531  0.9804 -1.4922  1.5907
  437MOL0     H57624   6.940   1.093   0.563  0.2988 -1.0137  0.3111
  437MOL0     H57625   6.971   1.039   0.345  0.1975 -0.5724  0.3100
  437MOL0     H57626   7.028   1.201   0.316 -1.0376 -0.4132  0.2071
  437MOL0     H57627   6.801   1.274   0.275  2.5475  0.8550 -0.8243
  437MOL0     H57628   6.881   1.178   0.153 -1.0101  2.3626 -1.6483
  437MOL0     H57629   6.621   1.095   0.204  1.1657 -1.8219 -1.4854
  437MOL0     H57630   6.692   1.055   0.367 -1.0836  3.6375  0.6001
  437MOL0     H57631   6.854   0.921   0.214  0.1097  2.6073  0.9486
  437MOL0     H57632   6.729   0.934   0.086  0.2814  0.4588 -0.6707
  437MOL0     H57633   6.695   0.813   0.362 -0.1941  0.1493 -0.1423
  437MOL0     H57634   6.565   0.851   0.250 -0.6004  0.0945  1.0426
  437MOL0     H57635   6.800   0.667   0.197  0.5908  2.1816 -0.6577
  437MOL0     H57636   6.672   0.711   0.084  0.9774 -0.0179 -0.1426
  437MOL0     H57637   6.739   0.499   0.405 -0.9885 -1.6942  0.3463
  437MOL0     H57638   6.476   0.381   0.584 -1.5367 -2.1336  0.8377
  437MOL0     H57639   6.614   0.276   0.513 -1.3436 -1.4325  1.4410
  437MOL0     H57640   6.344   0.265   0.390 -0.2497  1.6283 -1.1829
  437MOL0     H57641   6.380   0.181   0.547 -1.9050 -2.5757 -2.5782
  437MOL0     H57642   6.564   0.049   0.433 -2.3219 -2.2368  0.6140
  437MOL0     H57643   6.407   0.011   0.373  1.5805 -2.1306 -3.1037
  437MOL0     H57644   6.449   0.185   0.177 -1.0089 -0.9886  0.7361
  437MOL0     H57645   6.534   0.039   0.161  1.0289  0.7363 -1.8694
  437MOL0     H57646   6.883   0.088   0.142 -0.2699 -0.9915  0.0083
  437MOL0     H57647   6.982   0.113  -0.076  1.3836  2.2125  1.2751
  437MOL0     H57648   6.808   0.161  -0.573 -0.2891  0.2752 -0.2459
  437MOL0     H57649   6.868   0.201  -0.818 -2.7136  0.2383 -0.2348
  437MOL0     H57650   7.140   0.358  -0.868  1.3992  1.7459  0.6660
  437MOL0     H57651   7.127   0.458  -1.018  1.2270 -1.6707  0.0091
  437MOL0     H57652   7.060   0.257  -1.144  1.3639 -0.9758  0.1391
  437MOL0     H57653   7.024   0.180  -0.991  0.5790 -0.1700 -0.1252
  437MOL0     H57654   7.218   0.084  -1.055 -0.3982 -0.3181  1.8635
  437MOL0     H57655   7.275   0.202  -0.931  0.4453  3.1990 -0.6306
  437MOL0     H57656   7.277   0.272  -1.232  0.6645 -1.5410 -0.6692
  437MOL0     H57657   7.338   0.362  -1.100 -0.3709 -0.2358  1.4271
  437MOL0     H57658   7.523   0.235  -1.217  0.1450  0.0090  0.2073
  437MOL0     H57659   7.433   0.083  -1.197  3.2549 -1.6678  1.6007
  437MOL0     H57660   7.480   0.074  -0.969  2.6118 -2.3370 -0.6060
  437MOL0     H57661   7.522   0.251  -0.952 -0.3573 -1.0001  0.7101
  437MOL0     H57662   7.674   0.020  -1.061  0.2899 -0.3379  0.4952
  437MOL0     H57663   7.715   0.175  -1.119 -0.6570 -1.6012 -1.5458
  437MOL0     H57664   7.777   0.223  -0.853 -0.3260 -0.3015  0.6089
  437MOL0     H57665   7.872   0.108  -0.944 -0.1174  3.0841 -0.5936
  437MOL0     H57666   6.997   0.584  -0.741 -2.7518  2.3471 -0.4793
  437MOL0     H57667   6.954   0.574  -0.501  2.1773 -0.0039 -0.5221
  437MOL0     H57668   6.642   0.381  -0.195  0.6377  2.9293  2.0891
  437MOL0     H57669   6.561   0.338   0.021 -0.8001  1.0488 -3.3270
  437MOL0     H57670   7.393   1.195   0.657  0.5609  3.0072  1.7677
  437MOL0     H57671   7.435   1.056   0.880 -0.1471 -1.5406 -3.3852
  437MOL0     H57672   7.105   0.652   1.074 -2.2086  3.1920  0.5733
  437MOL0     H57673   7.125   0.482   1.274 -0.6954  1.3827 -0.1871
  437MOL0     H57674   7.297   0.660   1.659 -1.1126 -1.8830  2.4041
  437MOL0     H57675   7.429   0.587   1.568 -0.1325  0.7466  0.0740
  437MOL0     H57676   7.219   0.476   1.771  0.0088  0.4700  0.0715
  437MOL0     H57677   7.293   0.373   1.651  0.6169  1.3355 -1.8380
  437MOL0     H57678   7.448   0.542   1.858  3.8228 -1.1774  0.7099
  437MOL0     H57679   7.517   0.431   1.746 -1.3489  0.5467 -2.2875
  437MOL0     H57680   7.478   0.351   1.988  1.8910 -2.0359 -1.0275
  437MOL0     H57681   7.306   0.362   1.973 -1.9420 -0.4632 -2.4863
  437MOL0     H57682   7.419  -0.025   1.840  0.4896  0.1727 -0.3330
  437MOL0     H57683   7.364   0.780   1.467  1.0182 -0.6898 -0.4042
  437MOL0     H57684   7.370   0.913   1.277  0.4937 -0.4324 -2.9548
  438MOL0     O57685   1.864   4.823   2.134 -0.3664  0.2112  0.1722
  438MOL0     C57686   1.765   4.773   2.088 -0.3108 -0.0380  0.3015
  438MOL0     O57687   1.760   4.657   2.032  0.0656 -0.1022  0.5949
  438MOL0     C57688   1.873   4.598   1.990 -0.2146 -0.2472  0.7663
  438MOL0     C57689   1.944   4.514   2.075 -0.2969  0.5519 -0.2297
  438MOL0     C57690   2.054   4.438   2.017 -0.0299 -0.3662  0.7031
  438MOL0     C57691   2.087   4.460   1.883 -0.2504 -0.0686 -0.1572
  438MOL0     O57692   2.190   4.403   1.813 -0.4381 -0.9508  0.2680
  438MOL0     C57693   2.314   4.427   1.886  0.5088  0.0261  0.1029
  438MOL0     C57694   2.433   4.429   1.800  0.7060  0.7005 -0.1313
  438MOL0     C57695   2.557   4.406   1.878 -0.1548  0.5560 -0.7636
  438MOL0     C57696   2.674   4.471   1.808  0.7215 -1.2723 -0.9907
  438MOL0     C57697   2.788   4.495   1.905 -0.6130  0.4409  0.5992
  438MOL0     C57698   2.901   4.563   1.815  0.7056 -0.5038 -0.4455
  438MOL0     C57699   3.047   4.571   1.867  0.1184 -0.2583 -0.2155
  438MOL0     C57700   3.047   4.627   2.008  0.6713  0.0463 -0.1756
  438MOL0     N57701   3.179   4.608   2.080  0.3541 -1.0608 -0.3090
  438MOL0     C57702   3.276   4.707   2.091  0.2835  0.7008  0.0815
  438MOL0     C57703   3.361   4.658   2.184 -0.3832  0.3890  0.0286
  438MOL0     C57704   3.479   4.729   2.239 -0.7870  1.0880  0.9939
  438MOL0     C57705   3.588   4.631   2.299 -0.1255 -0.4851  0.2800
  438MOL0     C57706   3.696   4.700   2.370 -0.6426  0.1228 -0.8213
  438MOL0     C57707   3.650   4.759   2.506  0.1223  0.3303  0.3841
  438MOL0     O57708   3.723   4.693   2.606 -0.2668 -0.4003  0.3844
  438MOL0     C57709   3.690   4.703   2.742  0.5123  0.0484  0.3904
  438MOL0     C57710   3.797   4.692   2.829 -0.0022 -0.3363 -0.3961
  438MOL0     C57711   3.788   4.708   2.965 -0.3699 -0.9190  0.8396
  438MOL0     C57712   3.663   4.728   3.022 -0.3306  0.9574 -0.3915
  438MOL0     C57713   3.657   4.727   3.173 -0.3046  0.4192 -0.3482
  438MOL0     O57714   3.534   4.738   3.227  0.7273  0.1893  0.3610
  438MOL0     C57715   3.494   4.741   3.357  0.0293 -0.3947 -0.0126
  438MOL0     C57716   3.572   4.761   3.463  0.1003  1.8693  0.4003
  438MOL0     C57717   3.513   4.753   3.586 -0.4145  0.2458  0.4546
  438MOL0     C57718   3.382   4.759   3.608 -0.3154 -0.0026  0.7715
  438MOL0     O57719   3.337   4.786   3.741 -0.5665 -0.1162  0.4641
  438MOL0     C57720   3.196   4.808   3.762 -0.6275  0.1472  0.1225
  438MOL0     C57721   3.145   4.674   3.794  0.8986 -0.4796 -0.7013
  438MOL0     C57722   3.198   4.607   3.917 -0.3444  0.7517 -1.2916
  438MOL0     C57723   3.160   4.460   3.929  0.2255 -0.4428  0.6761
  438MOL0     C57724   3.167   4.390   4.065 -0.3302 -0.0986 -0.1077
  438MOL0     C57725   3.297   4.418   4.137 -0.3531  0.8485 -0.1894
  438MOL0     C57726   3.336   4.308   4.250  0.2719 -0.3878  0.3555
  438MOL0     C57727   3.483   4.346   4.300  0.1470  0.3152 -0.3080
  438MOL0    Cl57728   3.516   4.243   4.439 -0.4493 -0.3364 -0.2170
  438MOL0     C57729   3.300   4.747   3.493  0.2791 -0.3725  0.0040
  438MOL0     C57730   3.361   4.728   3.375  0.9387 -1.3549  0.6077
  438MOL0     O57731   3.756   4.707   3.235  0.6817 -0.3793 -0.0894
  438MOL0     C57732   3.551   4.738   2.936  0.2001 -1.1288  0.0954
  438MOL0     C57733   3.565   4.720   2.795 -0.4347  0.0579 -0.4210
  438MOL0     N57734   3.309   4.542   2.238  0.4767 -0.3800 -0.1991
  438MOL0     N57735   3.197   4.516   2.172  0.2874  0.3903  0.0070
  438MOL0     C57736   2.013   4.546   1.802  0.5655  1.2177  0.9375
  438MOL0     C57737   1.902   4.613   1.854 -0.5775 -0.8777 -0.3571
  438MOL0     C57738   1.636   4.832   2.117  0.1393 -0.2493 -0.1103
  438MOL0     C57739   1.529   4.826   2.036 -0.1587 -0.6239 -0.1057
  438MOL0     C57740   1.408   4.886   2.078  0.2054 -0.2104  0.2904
  438MOL0     C57741   1.394   4.955   2.202 -0.0128  0.3240 -0.1116
  438MOL0     O57742   1.278   5.009   2.246  0.7521 -0.4570  0.0831
  438MOL0     C57743   1.168   5.044   2.149  0.6802  0.1865 -0.0277
  438MOL0     C57744   1.172   5.168   2.075 -0.9267  0.0452 -0.0649
  438MOL0     C57745   1.249   5.149   1.936  0.0267 -0.0431  0.4201
  438MOL0     C57746   1.168   5.117   1.809  0.0661  0.1240 -0.0328
  438MOL0     C57747   1.101   4.988   1.813 -0.5980 -0.0952  1.0800
  438MOL0     C57748   1.048   4.880   1.806 -0.5320  0.3984  0.0570
  438MOL0     C57749   1.500   4.963   2.287 -0.2093  0.6332 -0.2709
  438MOL0     C57750   1.620   4.905   2.238  0.9674 -0.4352  0.1344
  438MOL0     H57751   1.906   4.499   2.176 -0.8260 -0.0399 -0.5114
  438MOL0     H57752   2.119   4.381   2.083 -0.8851  0.1467  2.0312
  438MOL0     H57753   2.335   4.348   1.960  2.0933 -1.5422 -1.8993
  438MOL0     H57754   2.320   4.522   1.940  4.1247 -0.9791  1.8179
  438MOL0     H57755   2.438   4.526   1.750  0.4662 -0.2967 -2.1779
  438MOL0     H57756   2.437   4.348   1.727  2.7584 -0.3763  1.0684
  438MOL0     H57757   2.573   4.298   1.882  1.4138  0.7436  4.0171
  438MOL0     H57758   2.552   4.453   1.977 -0.3079 -2.0215  0.5261
  438MOL0     H57759   2.707   4.412   1.723  1.3664  0.9729 -2.3915
  438MOL0     H57760   2.637   4.568   1.773 -0.3539 -1.8939 -1.6195
  438MOL0     H57761   2.837   4.406   1.947  2.3206  1.8127  0.3972
  438MOL0     H57762   2.766   4.568   1.984  0.9461  1.8172 -0.1763
  438MOL0     H57763   2.880   4.665   1.784  3.5223  0.0288 -0.8850
  438MOL0     H57764   2.900   4.507   1.721  0.7693 -2.8845  0.8930
  438MOL0     H57765   3.100   4.476   1.867  1.3620  0.4152 -0.3559
  438MOL0     H57766   3.109   4.641   1.810 -2.6348  3.2922  0.7534
  438MOL0     H57767   2.965   4.573   2.057 -1.3647 -0.8667 -4.1615
  438MOL0     H57768   3.020   4.733   2.014 -0.7162 -0.1743 -1.8074
  438MOL0     H57769   3.281   4.791   2.023 -1.5872  0.5392 -0.2934
  438MOL0     H57770   3.453   4.800   2.319  0.3507 -0.0837  2.4597
  438MOL0     H57771   3.534   4.782   2.161 -0.4408  0.0741  0.5372
  438MOL0     H57772   3.643   4.573   2.225 -0.3457 -2.9246  1.9267
  438MOL0     H57773   3.540   4.561   2.368  2.6355 -0.4384  2.4013
  438MOL0     H57774   3.789   4.644   2.386 -1.6612 -0.8640  2.3861
  438MOL0     H57775   3.736   4.783   2.311 -0.3622  0.9373  0.4729
  438MOL0     H57776   3.543   4.739   2.524  0.7447 -2.0547  1.8918
  438MOL0     H57777   3.663   4.867   2.514  5.2149 -0.0704  0.8037
  438MOL0     H57778   3.890   4.668   2.778 -0.4038  2.3685 -2.6819
  438MOL0     H57779   3.878   4.694   3.024 -0.6581 -0.6954  1.3379
  438MOL0     H57780   3.680   4.751   3.465 -0.1304 -2.3402  0.8866
  438MOL0     H57781   3.578   4.761   3.673 -1.0142 -3.0895  1.3410
  438MOL0     H57782   3.152   4.850   3.671 -0.6951 -1.6202 -0.6964
  438MOL0     H57783   3.187   4.876   3.847  5.0858  0.9605  0.5299
  438MOL0     H57784   3.168   4.608   3.710 -1.7719 -0.6599 -1.3895
  438MOL0     H57785   3.036   4.673   3.807  0.6821  3.0588 -1.2131
  438MOL0     H57786   3.167   4.656   4.010  0.8961 -0.8718  0.0612
  438MOL0     H57787   3.305   4.620   3.935 -0.5651  1.2924 -0.2410
  438MOL0     H57788   3.062   4.443   3.882  1.5144  2.7365 -3.8711
  438MOL0     H57789   3.225   4.405   3.860 -1.2273 -2.9797  1.1983
  438MOL0     H57790   3.158   4.281   4.056  0.6105 -0.1471 -0.6068
  438MOL0     H57791   3.081   4.420   4.126 -2.9574 -0.4556 -3.3587
  438MOL0     H57792   3.287   4.510   4.195  0.9997  2.3572 -2.1884
  438MOL0     H57793   3.381   4.428   4.067 -0.4756  2.1584 -0.1757
  438MOL0     H57794   3.258   4.322   4.326  1.3139  3.0315  0.9977
  438MOL0     H57795   3.341   4.206   4.213 -1.4803 -1.1275  1.9759
  438MOL0     H57796   3.483   4.452   4.326  4.5991  0.4558 -0.1954
  438MOL0     H57797   3.560   4.335   4.224  0.0535  0.4765 -0.4276
  438MOL0     H57798   3.195   4.769   3.506  0.8055  1.2672  2.2139
  438MOL0     H57799   3.300   4.693   3.291  0.1321  1.7841 -0.2542
  438MOL0     H57800   3.451   4.734   2.978 -0.9493 -1.0989 -2.4180
  438MOL0     H57801   3.481   4.710   2.727  0.5559 -1.1117 -1.5069
  438MOL0     H57802   2.048   4.553   1.700 -1.1001  4.1166  0.4496
  438MOL0     H57803   1.853   4.683   1.787 -2.3632  0.2289  1.9762
  438MOL0     H57804   1.538   4.757   1.952 -0.9594 -1.3587  0.3920
  438MOL0     H57805   1.332   4.861   2.004  0.4795 -1.9609  0.5525
  438MOL0     H57806   1.079   5.044   2.212 -0.6344  2.0402 -1.7429
  438MOL0     H57807   1.145   4.961   2.081  1.1978  0.1359 -0.1465
  438MOL0     H57808   1.068   5.194   2.056 -0.4899  0.4915 -2.1045
  438MOL0     H57809   1.212   5.244   2.143  1.6495 -2.1841  1.0856
  438MOL0     H57810   1.333   5.081   1.948  1.6057  1.3028 -2.1216
  438MOL0     H57811   1.298   5.244   1.910  2.1534 -0.5833  2.1454
  438MOL0     H57812   1.091   5.194   1.804  0.9182  0.9277 -0.9676
  438MOL0     H57813   1.234   5.121   1.722 -3.0842  2.4872 -2.5351
  438MOL0     H57814   0.997   4.786   1.795 -2.2871  1.1264  1.3220
  438MOL0     H57815   1.501   5.006   2.387  3.0588  0.4784 -0.1398
  438MOL0     H57816   1.710   4.908   2.299  1.2504  0.1071 -0.2968
  439MOL0     O57817   2.083   3.969   3.831 -0.5800  0.1612  0.1140
  439MOL0     C57818   2.013   3.872   3.864 -0.2449 -0.2449  1.2368
  439MOL0     O57819   2.042   3.786   3.966  0.1635 -0.1215 -0.2592
  439MOL0     C57820   2.165   3.801   4.026 -0.6599 -0.8684 -1.5268
  439MOL0     C57821   2.183   3.884   4.141 -0.1746 -0.3928  0.4319
  439MOL0     C57822   2.306   3.887   4.207  0.0816  0.1031 -0.7276
  439MOL0     C57823   2.419   3.811   4.158  0.5645 -0.7951  0.0437
  439MOL0     O57824   2.544   3.829   4.212  0.6453  0.3908 -1.0562
  439MOL0     C57825   2.575   3.894   4.328  0.1773 -0.6874 -0.1885
  439MOL0     C57826   2.708   3.865   4.390 -0.2298  0.8468  0.5705
  439MOL0     C57827   2.714   3.874   4.532 -0.2476  0.1200  0.5809
  439MOL0     C57828   2.849   3.835   4.589  0.6049 -0.2657 -0.3567
  439MOL0     C57829   2.845   3.878   4.737 -0.1197  0.5433 -0.0172
  439MOL0     C57830   2.988   3.877   4.795  0.7026  1.0894 -0.1443
  439MOL0     C57831   3.016   3.889   4.950 -0.9075  0.1063 -0.4737
  439MOL0     C57832   2.970   4.027   5.014 -0.5558 -0.0629 -0.3484
  439MOL0     N57833   3.041   4.138   4.950 -0.0987  0.1252  0.5494
  439MOL0     C57834   2.987   4.237   4.876  0.4573  0.3882  0.7276
  439MOL0     C57835   3.080   4.336   4.869 -0.6149  0.2654 -0.2544
  439MOL0     C57836   3.073   4.472   4.806  0.1875  0.6877 -0.5575
  439MOL0     C57837   3.182   4.487   4.691 -0.0251  0.6502 -0.9635
  439MOL0     C57838   3.130   4.591   4.585  0.1630 -0.0643 -0.5727
  439MOL0     C57839   3.043   4.537   4.471  0.4955  0.2657  0.4238
  439MOL0     O57840   3.040   4.630   4.369 -0.2014 -0.2746  0.7861
  439MOL0     C57841   2.935   4.643   4.282  0.0187 -0.6082  0.2915
  439MOL0     C57842   2.947   4.736   4.183  0.1763  0.0149 -0.4538
  439MOL0     C57843   2.851   4.765   4.093  0.3548  0.3446 -0.0354
  439MOL0     C57844   2.726   4.695   4.095  0.1267 -0.2753 -0.0889
  439MOL0     C57845   2.607   4.737   4.025 -0.6269  0.5282 -0.2532
  439MOL0     O57846   2.484   4.704   4.079  0.2075  0.2416 -0.4270
  439MOL0     C57847   2.363   4.761   4.037 -0.7761  0.5980 -0.4971
  439MOL0     C57848   2.354   4.885   3.971  0.8208  0.1935  0.1194
  439MOL0     C57849   2.232   4.924   3.926  0.1413 -0.3830  0.3085
  439MOL0     C57850   2.111   4.847   3.952 -0.4238 -0.5240  0.3225
  439MOL0     O57851   1.980   4.872   3.916  0.1605  0.0097 -0.1115
  439MOL0     C57852   1.952   5.011   3.903  0.4870  0.0213  0.0697
  439MOL0     C57853   1.793   5.027   3.921 -0.6010  0.4841 -0.8090
  439MOL0     C57854   1.757   5.166   3.985  0.4924  1.0357 -0.0892
  439MOL0     C57855   1.609   5.189   3.994 -0.1083  0.8903  0.6653
  439MOL0     C57856   1.540   5.233   3.863 -0.4875  0.0826 -0.1242
  439MOL0     C57857   1.573   5.370   3.821  0.0509 -0.1064  0.3456
  439MOL0     C57858   1.569   5.494   3.917 -0.5911 -0.5170 -0.2317
  439MOL0     C57859   1.572   5.627   3.837 -0.0486  0.1922  0.4698
  439MOL0    Cl57860   1.439   5.729   3.899 -0.1342  0.1828  0.4602
  439MOL0     C57861   2.122   4.730   4.019 -0.4348  0.7409  0.6883
  439MOL0     C57862   2.246   4.688   4.062 -0.1056  0.4382  0.4042
  439MOL0     O57863   2.625   4.803   3.920 -0.1982 -0.1010  0.6493
  439MOL0     C57864   2.713   4.586   4.189  0.4417 -0.0656 -0.6769
  439MOL0     C57865   2.819   4.561   4.279  0.3776 -0.1934 -0.3524
  439MOL0     N57866   3.197   4.296   4.937  0.1237  0.2409 -0.4092
  439MOL0     N57867   3.177   4.174   4.985  0.7718  0.4700  1.0023
  439MOL0     C57868   2.395   3.727   4.045 -0.7928 -0.6077 -0.9272
  439MOL0     C57869   2.271   3.726   3.980  0.3997 -1.7054  0.0050
  439MOL0     C57870   1.897   3.845   3.780 -0.7880 -0.4382 -1.2817
  439MOL0     C57871   1.839   3.712   3.771 -0.0000 -0.0511  0.5075
  439MOL0     C57872   1.724   3.701   3.695 -0.7023 -0.2042 -0.3236
  439MOL0     C57873   1.677   3.809   3.609  0.1782  0.4553 -0.2086
  439MOL0     O57874   1.561   3.806   3.535  0.2153  0.3559 -0.0901
  439MOL0     C57875   1.469   3.696   3.553  0.5494 -0.5353 -0.7006
  439MOL0     C57876   1.356   3.710   3.446  0.9815 -0.0611 -0.2839
  439MOL0     C57877   1.243   3.804   3.495 -0.3100  0.4424  0.0876
  439MOL0     C57878   1.199   3.887   3.368  0.0067 -0.2761  0.1535
  439MOL0     C57879   1.149   3.798   3.266 -0.7345  0.9541  0.0907
  439MOL0     C57880   1.103   3.718   3.187  0.0078  0.1006 -0.3151
  439MOL0     C57881   1.740   3.924   3.607 -0.4431 -0.7409  0.2149
  439MOL0     C57882   1.850   3.949   3.699  0.5521 -0.6116  0.7702
  439MOL0     H57883   2.110   3.950   4.188  0.7204  1.0366 -0.1180
  439MOL0     H57884   2.313   3.931   4.306 -0.0424 -1.3567 -0.0486
  439MOL0     H57885   2.503   3.871   4.407 -1.8520  2.7049 -0.8279
  439MOL0     H57886   2.572   4.003   4.316  0.7328 -0.5898  0.4382
  439MOL0     H57887   2.786   3.922   4.338  1.4253 -0.6673  1.3000
  439MOL0     H57888   2.718   3.761   4.359  0.3920  0.3038  2.4439
  439MOL0     H57889   2.632   3.818   4.576 -1.1783 -0.2279 -1.4974
  439MOL0     H57890   2.698   3.978   4.563  0.7941  0.3307  0.4514
  439MOL0     H57891   2.851   3.726   4.584 -1.9412 -0.5871  2.4135
  439MOL0     H57892   2.932   3.891   4.543  1.4338 -0.0349  1.3577
  439MOL0     H57893   2.777   3.809   4.788 -0.2422 -0.2370 -1.1864
  439MOL0     H57894   2.804   3.979   4.740  2.1361  1.8186 -4.0216
  439MOL0     H57895   3.038   3.956   4.738  0.1359  1.2809 -0.3831
  439MOL0     H57896   3.028   3.779   4.767  0.1059 -0.4224  3.6495
  439MOL0     H57897   2.960   3.811   5.002 -0.5621 -0.2880 -0.6845
  439MOL0     H57898   3.121   3.864   4.967 -0.4571  1.0992 -1.6533
  439MOL0     H57899   2.979   4.033   5.123 -2.8182  0.0495 -0.1281
  439MOL0     H57900   2.862   4.044   5.011 -0.5786  0.8040  2.4702
  439MOL0     H57901   2.883   4.257   4.852  0.9333  1.2071 -0.8093
  439MOL0     H57902   3.077   4.544   4.888 -0.5030  1.2743 -1.0256
  439MOL0     H57903   2.970   4.477   4.769  0.1396  3.2917 -0.2776
  439MOL0     H57904   3.199   4.394   4.636 -0.2993  1.3840 -2.3242
  439MOL0     H57905   3.278   4.521   4.731 -0.4738 -0.8924  1.6773
  439MOL0     H57906   3.081   4.671   4.642 -0.6676 -1.9087  1.4525
  439MOL0     H57907   3.215   4.638   4.534  1.2393  1.0920  2.0721
  439MOL0     H57908   2.941   4.521   4.509  0.1659  5.1189  2.1860
  439MOL0     H57909   3.079   4.440   4.435 -0.8156 -0.5493  1.2195
  439MOL0     H57910   3.032   4.795   4.215 -0.6299  0.5306  0.8389
  439MOL0     H57911   2.868   4.853   4.031 -0.3516  0.2991 -0.2962
  439MOL0     H57912   2.443   4.941   3.944 -0.0553 -0.3643 -4.7907
  439MOL0     H57913   2.215   5.028   3.897 -2.3029 -0.4442  1.3047
  439MOL0     H57914   1.967   5.032   3.797  2.3877 -2.5035 -0.2448
  439MOL0     H57915   2.016   5.070   3.969  2.0537 -2.4523  0.9088
  439MOL0     H57916   1.755   4.941   3.977  0.1335 -0.1219 -1.2137
  439MOL0     H57917   1.751   4.996   3.825  0.1554 -1.8119 -0.4726
  439MOL0     H57918   1.805   5.247   3.930  2.1876  3.4974  4.4797
  439MOL0     H57919   1.797   5.155   4.086 -0.9771  0.7006  0.4862
  439MOL0     H57920   1.559   5.100   4.035 -1.6935  1.9961  1.2367
  439MOL0     H57921   1.584   5.267   4.067 -3.3465  0.3710  0.2667
  439MOL0     H57922   1.432   5.227   3.878 -0.6107  0.7507 -0.6896
  439MOL0     H57923   1.570   5.172   3.778  2.4478  1.5805 -0.2726
  439MOL0     H57924   1.492   5.386   3.749  1.7003  1.1550 -1.3194
  439MOL0     H57925   1.669   5.382   3.770  0.8406 -2.8118  1.0183
  439MOL0     H57926   1.481   5.490   3.981 -1.5623 -2.9517 -1.5869
  439MOL0     H57927   1.653   5.488   3.987 -0.3039  0.5833 -0.4531
  439MOL0     H57928   1.558   5.610   3.730  4.5415 -3.4820  0.1136
  439MOL0     H57929   1.671   5.671   3.848 -0.3841  0.7277  1.4607
  439MOL0     H57930   2.033   4.670   4.033 -1.9667  1.8200 -3.0245
  439MOL0     H57931   2.259   4.598   4.119 -0.7631 -1.7258 -2.6129
  439MOL0     H57932   2.627   4.520   4.197  1.0523 -0.8114  0.0709
  439MOL0     H57933   2.804   4.483   4.353  2.2503  0.8635  1.2479
  439MOL0     H57934   2.469   3.654   4.013 -1.9897 -1.1660 -2.5604
  439MOL0     H57935   2.263   3.681   3.882 -1.1921 -1.0231 -0.1997
  439MOL0     H57936   1.882   3.623   3.815  1.3452  0.9323  1.2601
  439MOL0     H57937   1.682   3.601   3.692  0.5414 -0.7340 -0.8469
  439MOL0     H57938   1.423   3.693   3.651 -2.5953 -1.1880 -2.0842
  439MOL0     H57939   1.510   3.595   3.542  0.1830 -0.6730 -0.8190
  439MOL0     H57940   1.397   3.723   3.345 -1.5625  1.5900 -1.2016
  439MOL0     H57941   1.315   3.609   3.453  0.8237  0.1189  2.8731
  439MOL0     H57942   1.284   3.872   3.570  0.3836 -1.8691  1.9225
  439MOL0     H57943   1.158   3.749   3.535  1.1397 -1.5264  0.6548
  439MOL0     H57944   1.120   3.955   3.401  0.6769  0.1460  0.9573
  439MOL0     H57945   1.280   3.948   3.327  0.0175  0.9518  1.8613
  439MOL0     H57946   1.039   3.649   3.136 -2.1388  0.3437  1.8443
  439MOL0     H57947   1.711   4.018   3.562 -0.5038  0.0169  1.7727
  439MOL0     H57948   1.894   4.048   3.706 -0.3631 -0.0609 -0.6861
  440MOL0     O57949   3.612   3.221   4.290  0.1393 -0.4664 -0.2595
  440MOL0     C57950   3.567   3.130   4.355  0.4268  0.1430 -0.4744
  440MOL0     O57951   3.633   3.065   4.458  0.5374 -0.3410  0.0551
  440MOL0     C57952   3.751   3.111   4.504  0.2426  0.0297 -0.1797
  440MOL0     C57953   3.861   3.022   4.493 -0.2125  0.1254 -0.4042
  440MOL0     C57954   3.990   3.075   4.531  0.3750  0.3776  1.1973
  440MOL0     C57955   3.996   3.197   4.586  0.3955 -0.2726  0.3637
  440MOL0     O57956   4.120   3.241   4.630  1.2944  1.4234 -0.3397
  440MOL0     C57957   4.132   3.358   4.714  0.0518 -0.2310 -0.0598
  440MOL0     C57958   4.270   3.375   4.765  0.0017  0.2376 -0.3076
  440MOL0     C57959   4.309   3.258   4.858 -0.5211  0.9950  0.4517
  440MOL0     C57960   4.463   3.249   4.871  0.7200  0.4167 -0.4251
  440MOL0     C57961   4.512   3.314   4.992 -0.7603 -1.2962  0.2152
  440MOL0     C57962   4.669   3.323   5.001  2.2042  0.8211  0.3215
  440MOL0     C57963   4.718   3.376   5.134  0.1088  0.4368 -0.5184
  440MOL0     C57964   4.868   3.351   5.155 -0.9080  0.1999  0.2177
  440MOL0     N57965   4.920   3.420   5.271 -0.4389 -0.1684 -0.3317
  440MOL0     C57966   4.935   3.560   5.298 -0.3450  0.1633  0.3733
  440MOL0     C57967   4.970   3.564   5.435 -0.6193 -0.8310  0.9830
  440MOL0     C57968   4.998   3.676   5.530  1.2979 -0.7009 -0.3276
  440MOL0     C57969   4.869   3.722   5.603 -0.0876 -0.4371  0.5248
  440MOL0     C57970   4.758   3.785   5.504 -1.4168 -0.4319 -0.9712
  440MOL0     C57971   4.801   3.914   5.443  0.3469 -0.1552 -0.3486
  440MOL0     O57972   4.808   4.026   5.533  0.4938  1.4488 -0.6137
  440MOL0     C57973   4.916   4.115   5.506  0.6181  0.0696  0.4368
  440MOL0     C57974   4.921   4.171   5.382  0.3291 -0.0696 -0.5276
  440MOL0     C57975   5.018   4.267   5.352 -0.5536  1.2942  0.5588
  440MOL0     C57976   5.107   4.305   5.455 -1.4074  0.7725  0.8685
  440MOL0     C57977   5.217   4.399   5.431 -0.1096 -0.6341 -0.1562
  440MOL0     O57978   5.246   4.449   5.308 -0.0466 -0.0070 -0.3535
  440MOL0     C57979   5.341   4.529   5.263  0.2412  0.5508  0.5385
  440MOL0     C57980   5.344   4.570   5.130  0.9316 -0.9006 -0.7335
  440MOL0     C57981   5.456   4.631   5.074 -0.4182  0.1286 -0.0341
  440MOL0     C57982   5.558   4.670   5.150 -0.2694  0.9733 -0.2630
  440MOL0     O57983   5.663   4.742   5.109  0.6380  0.8285 -0.8960
  440MOL0     C57984   5.734   4.669   5.010  0.1731 -0.6309 -0.3435
  440MOL0     C57985   5.874   4.737   4.987  0.2457 -0.4457  0.1011
  440MOL0     C57986   5.867   4.869   4.894 -0.7543 -1.0004  0.2546
  440MOL0     C57987   6.004   4.929   4.849 -0.4573  0.8155 -0.8178
  440MOL0     C57988   6.098   4.969   4.964  0.7739 -0.3246  0.1068
  440MOL0     C57989   6.198   5.084   4.923 -0.0594  0.1526 -0.0973
  440MOL0     C57990   6.137   5.225   4.966  0.0048  0.1423 -0.1768
  440MOL0     C57991   5.993   5.267   4.927 -0.1092 -0.4133 -0.9048
  440MOL0    Cl57992   5.978   5.268   4.745 -0.3324  0.3386 -0.2971
  440MOL0     C57993   5.572   4.624   5.282  0.5575  0.6140  0.2214
  440MOL0     C57994   5.465   4.540   5.335  0.9518 -0.1313  0.3900
  440MOL0     O57995   5.274   4.437   5.531 -0.3772  0.0579 -0.1963
  440MOL0     C57996   5.099   4.249   5.586  0.0576 -0.4499  0.4011
  440MOL0     C57997   5.004   4.156   5.611  0.8069  0.1009  0.1949
  440MOL0     N57998   4.974   3.431   5.482 -0.6727  0.1170  0.3865
  440MOL0     N57999   4.941   3.347   5.383  0.2851 -0.2123  0.2018
  440MOL0     C58000   3.884   3.278   4.606 -0.4103 -0.1275 -0.0004
  440MOL0     C58001   3.763   3.230   4.566  0.0934  0.1908 -0.3701
  440MOL0     C58002   3.436   3.072   4.298  0.0189 -0.5230  0.5455
  440MOL0     C58003   3.351   2.994   4.364  0.1422  0.3219 -0.2671
  440MOL0     C58004   3.225   2.950   4.319 -0.2094  0.5789  0.2258
  440MOL0     C58005   3.176   2.996   4.194 -0.0156  0.7692  0.2260
  440MOL0     O58006   3.054   2.945   4.150  0.0367 -0.3290  0.0856
  440MOL0     C58007   2.967   3.014   4.063  0.0622  0.6245 -0.6182
  440MOL0     C58008   2.895   3.121   4.136 -0.8180 -0.5134 -0.4547
  440MOL0     C58009   2.790   3.188   4.045  0.1940  0.2529  0.0694
  440MOL0     C58010   2.834   3.312   3.969 -1.1786  0.3459 -0.4022
  440MOL0     C58011   2.728   3.396   3.908 -0.6681 -0.0707 -0.5856
  440MOL0     C58012   2.629   3.466   3.879 -0.2499 -0.7157 -0.7562
  440MOL0     C58013   3.258   3.068   4.116  0.6377  0.3721 -0.2669
  440MOL0     C58014   3.387   3.107   4.171 -0.7860  0.1325  0.5484
  440MOL0     H58015   3.852   2.922   4.450 -0.8340  0.2572 -0.6004
  440MOL0     H58016   4.071   3.005   4.514 -3.1275 -5.2126  4.4561
  440MOL0     H58017   4.067   3.355   4.801 -1.6658  1.4720 -1.1957
  440MOL0     H58018   4.098   3.435   4.644 -0.4098 -2.1962 -2.1522
  440MOL0     H58019   4.267   3.468   4.822  1.8517 -0.5632  1.2053
  440MOL0     H58020   4.346   3.381   4.686  2.6093 -1.4221  1.8989
  440MOL0     H58021   4.273   3.171   4.801  3.0762  1.7722 -3.6014
  440MOL0     H58022   4.256   3.275   4.951 -1.1837 -0.8283  0.4594
  440MOL0     H58023   4.485   3.143   4.890  0.4102 -0.2767 -3.4015
  440MOL0     H58024   4.514   3.286   4.782  2.0947 -1.1783 -0.3530
  440MOL0     H58025   4.468   3.247   5.067 -1.0672  0.9769  2.1673
  440MOL0     H58026   4.471   3.416   4.989  1.8904 -0.1182  1.2497
  440MOL0     H58027   4.693   3.388   4.916  1.7015 -0.8209 -1.1270
  440MOL0     H58028   4.711   3.223   4.985  2.1894  1.2463 -3.1796
  440MOL0     H58029   4.681   3.477   5.155  0.1018  0.2990  0.1386
  440MOL0     H58030   4.663   3.307   5.198 -0.3806 -0.2122 -1.6100
  440MOL0     H58031   4.919   3.393   5.068  0.6187  0.3609  1.1741
  440MOL0     H58032   4.892   3.245   5.169 -1.0293  0.4731  3.0213
  440MOL0     H58033   4.934   3.648   5.234  0.4621  1.6659  2.3176
  440MOL0     H58034   5.048   3.761   5.483  1.3115 -1.0188 -0.8954
  440MOL0     H58035   5.065   3.631   5.604  2.1415 -0.6341 -1.0302
  440MOL0     H58036   4.908   3.795   5.675 -0.6132 -0.1876  0.5626
  440MOL0     H58037   4.831   3.633   5.654 -2.6938  1.3714  2.0142
  440MOL0     H58038   4.745   3.713   5.423  0.9892 -1.5472 -0.4701
  440MOL0     H58039   4.664   3.787   5.560  0.6117 -0.9890  2.8194
  440MOL0     H58040   4.733   3.938   5.361 -1.9259  0.5026  1.5909
  440MOL0     H58041   4.899   3.905   5.396  0.8426 -2.3146  0.9447
  440MOL0     H58042   4.859   4.145   5.297 -0.1699  0.7801 -0.4404
  440MOL0     H58043   5.020   4.299   5.248 -0.5616  0.9398  0.4482
  440MOL0     H58044   5.263   4.547   5.062  0.6557  1.5264 -1.3118
  440MOL0     H58045   5.465   4.648   4.967 -0.6037  2.5093  0.2825
  440MOL0     H58046   5.680   4.678   4.915 -0.5866  1.0479  0.2119
  440MOL0     H58047   5.752   4.562   5.020  0.1146 -0.8118 -1.9277
  440MOL0     H58048   5.945   4.680   4.927  0.0165  0.2044 -0.8146
  440MOL0     H58049   5.916   4.760   5.085 -0.0715  0.3278  0.0626
  440MOL0     H58050   5.806   4.946   4.943 -2.6075 -0.2931 -2.8686
  440MOL0     H58051   5.804   4.846   4.808  1.6595 -0.1009 -1.8875
  440MOL0     H58052   6.065   4.860   4.789  2.1488  1.9329  0.3625
  440MOL0     H58053   5.971   5.019   4.795 -3.2759  0.2107 -0.2148
  440MOL0     H58054   6.162   4.884   4.990  1.0996 -1.0713 -2.7887
  440MOL0     H58055   6.046   5.007   5.052  1.7681 -1.4094  1.2078
  440MOL0     H58056   6.216   5.082   4.815  2.9121 -0.9745  0.3064
  440MOL0     H58057   6.295   5.065   4.970  0.2448  1.3164 -0.2149
  440MOL0     H58058   6.127   5.212   5.074  0.9316  1.2532  0.0664
  440MOL0     H58059   6.198   5.315   4.950 -0.9437  0.5878 -1.4246
  440MOL0     H58060   5.964   5.366   4.965 -1.8447 -0.3116 -2.3356
  440MOL0     H58061   5.921   5.199   4.975 -3.0670  2.4707 -0.9068
  440MOL0     H58062   5.664   4.657   5.328  0.2049  1.2770  0.4593
  440MOL0     H58063   5.474   4.503   5.436 -0.1451 -2.0548 -0.1821
  440MOL0     H58064   5.168   4.269   5.668 -0.2989 -3.6265  1.6140
  440MOL0     H58065   4.978   4.120   5.710 -2.2056 -1.7300 -1.0982
  440MOL0     H58066   3.891   3.380   4.645  1.2521  0.6303 -2.1095
  440MOL0     H58067   3.676   3.294   4.578 -1.9028 -2.5429  0.9040
  440MOL0     H58068   3.399   2.959   4.454  1.5248  1.5292 -0.4911
  440MOL0     H58069   3.176   2.878   4.383  0.1468 -0.2807 -0.4442
  440MOL0     H58070   2.904   2.930   4.030  0.9759  0.1977 -1.3187
  440MOL0     H58071   3.023   3.061   3.981 -0.3700 -1.3673 -2.1337
  440MOL0     H58072   2.846   3.080   4.225  1.2801  3.4304  2.8592
  440MOL0     H58073   2.965   3.198   4.170 -0.1926 -1.5840  0.7714
  440MOL0     H58074   2.708   3.218   4.110  0.6459  1.1504  0.2396
  440MOL0     H58075   2.750   3.105   3.985  2.3222  0.4717 -1.7951
  440MOL0     H58076   2.881   3.378   4.042 -5.2200  2.2759  0.7840
  440MOL0     H58077   2.908   3.295   3.891 -1.4379 -1.2728 -0.3358
  440MOL0     H58078   2.543   3.521   3.848 -0.1916 -0.2471 -0.1125
  440MOL0     H58079   3.228   3.099   4.016 -0.7247 -1.8112 -0.6159
  440MOL0     H58080   3.450   3.169   4.107 -0.0658  0.9646  2.0287
  441MOL0     O58081   3.241   4.859   7.780  1.1249 -0.1465 -0.5007
  441MOL0     C58082   3.235   4.749   7.829 -0.1949  0.8980  0.0328
  441MOL0     O58083   3.345   4.671   7.874 -0.4931 -0.0176  0.6349
  441MOL0     C58084   3.471   4.710   7.852 -0.8508  0.8632  0.4353
  441MOL0     C58085   3.553   4.613   7.798 -0.6032  0.5251  0.9707
  441MOL0     C58086   3.688   4.634   7.773 -0.0742 -0.5608  0.0206
  441MOL0     C58087   3.743   4.759   7.799  0.0326 -1.0857  0.2207
  441MOL0     O58088   3.867   4.794   7.758 -0.4025 -0.1708  0.3872
  441MOL0     C58089   3.960   4.695   7.708  0.8071  0.7494  0.0004
  441MOL0     C58090   4.052   4.775   7.610  0.1058  1.1548  0.7106
  441MOL0     C58091   4.101   4.687   7.489 -0.0240 -0.7640  0.0515
  441MOL0     C58092   4.194   4.570   7.524 -1.4477 -1.2043 -0.6237
  441MOL0     C58093   4.243   4.497   7.398 -0.8627  0.1211 -0.3355
  441MOL0     C58094   4.134   4.414   7.339  0.9308  0.4330  0.5194
  441MOL0     C58095   4.177   4.306   7.244 -0.1613  0.6982  0.3332
  441MOL0     C58096   4.225   4.359   7.110 -0.3084 -0.6374 -0.8756
  441MOL0     N58097   4.115   4.396   7.021 -1.3001  0.3592 -0.0582
  441MOL0     C58098   4.055   4.517   7.023  0.4038 -1.4698  0.3581
  441MOL0     C58099   3.948   4.510   6.937 -1.2267 -0.9827 -0.1983
  441MOL0     C58100   3.829   4.597   6.915  0.1896  0.0679  0.8914
  441MOL0     C58101   3.735   4.561   6.798  0.3583  0.1915  1.0227
  441MOL0     C58102   3.791   4.605   6.652 -1.0042 -0.4092  0.1432
  441MOL0     C58103   3.702   4.599   6.530  0.6593 -0.3237 -0.2121
  441MOL0     O58104   3.598   4.695   6.556  0.5116  0.2825  0.2304
  441MOL0     C58105   3.503   4.714   6.455  0.0319  0.1843 -0.1658
  441MOL0     C58106   3.381   4.784   6.491 -0.5820  0.1939 -0.8495
  441MOL0     C58107   3.274   4.802   6.408 -0.0738 -0.2598  0.8143
  441MOL0     C58108   3.271   4.747   6.270 -0.2985 -0.1755  1.1592
  441MOL0     C58109   3.157   4.751   6.166  0.1196  0.0485 -1.1667
  441MOL0     O58110   3.159   4.673   6.049  0.0428 -0.3995 -0.4793
  441MOL0     C58111   3.064   4.701   5.950  0.4462 -0.1401 -1.5412
  441MOL0     C58112   3.105   4.761   5.833 -0.0115  0.0923  0.3503
  441MOL0     C58113   3.016   4.788   5.730 -0.7393  0.5597  0.1823
  441MOL0     C58114   2.889   4.760   5.739  0.4417 -0.2601  0.5174
  441MOL0     O58115   2.803   4.793   5.633 -0.5227 -1.0618 -0.4975
  441MOL0     C58116   2.755   4.703   5.549 -0.2146  0.7540  0.0195
  441MOL0     C58117   2.672   4.774   5.441  0.0140 -0.6850 -0.8354
  441MOL0     C58118   2.523   4.807   5.481 -1.0915  0.1430  0.1632
  441MOL0     C58119   2.464   4.868   5.352  0.0553 -0.3643  0.4752
  441MOL0     C58120   2.326   4.942   5.380  1.0671 -0.8061  1.2578
  441MOL0     C58121   2.226   4.833   5.398 -0.3043 -0.6148  0.3200
  441MOL0     C58122   2.088   4.885   5.363 -0.1140  0.5169 -0.3952
  441MOL0     C58123   1.999   4.766   5.352  0.5659 -1.4095 -1.5312
  441MOL0    Cl58124   1.840   4.832   5.292  0.0258 -0.4505  0.0148
  441MOL0     C58125   2.837   4.713   5.861 -0.3020 -0.4355 -0.2720
  441MOL0     C58126   2.922   4.678   5.965 -0.5365 -0.4106 -0.7925
  441MOL0     O58127   3.061   4.811   6.211 -0.5748 -0.1980  0.1056
  441MOL0     C58128   3.396   4.691   6.237  0.5430 -0.2181 -1.5629
  441MOL0     C58129   3.506   4.662   6.323 -0.4518  0.2034 -0.4259
  441MOL0     N58130   3.969   4.384   6.882 -0.7099  0.2227  0.6366
  441MOL0     N58131   4.070   4.315   6.925 -0.3627  0.6300  0.1557
  441MOL0     C58132   3.652   4.858   7.840  0.0195 -0.3431  0.0959
  441MOL0     C58133   3.518   4.839   7.861 -0.1076  0.7354 -0.3576
  441MOL0     C58134   3.090   4.699   7.841 -0.6693 -0.1444 -0.0569
  441MOL0     C58135   2.979   4.750   7.776 -0.0961 -0.3388 -1.5131
  441MOL0     C58136   2.854   4.676   7.787  0.2580 -0.5276  0.1421
  441MOL0     C58137   2.838   4.566   7.877  0.6853  0.3974  1.4874
  441MOL0     O58138   2.723   4.488   7.883 -0.3183 -0.0801  0.9014
  441MOL0     C58139   2.604   4.527   7.812 -0.7017 -0.0209 -0.5765
  441MOL0     C58140   2.536   4.645   7.880  0.4100 -0.4798  0.9463
  441MOL0     C58141   2.387   4.672   7.824 -0.6680 -0.6190 -1.2562
  441MOL0     C58142   2.350   4.659   7.670 -0.5893  0.4934  0.7303
  441MOL0     C58143   2.437   4.745   7.583  0.4614  0.1162  0.3241
  441MOL0     C58144   2.503   4.796   7.497 -0.7287  1.2619 -0.2117
  441MOL0     C58145   2.952   4.526   7.950  0.9592 -0.2805  0.6310
  441MOL0     C58146   3.076   4.592   7.931  0.1587 -0.4670  0.6363
  441MOL0     H58147   3.515   4.514   7.775 -0.2806  0.6849 -0.3400
  441MOL0     H58148   3.743   4.557   7.721  0.9827  0.9464 -1.2052
  441MOL0     H58149   3.907   4.613   7.658  0.0052  0.9103  0.5741
  441MOL0     H58150   4.017   4.656   7.793  0.5758 -2.5800 -1.2054
  441MOL0     H58151   4.132   4.822   7.667 -1.8399  2.6787  2.3423
  441MOL0     H58152   3.990   4.858   7.575 -0.0730  1.3872  1.5530
  441MOL0     H58153   4.157   4.745   7.415  1.2153 -1.4754  0.4032
  441MOL0     H58154   4.017   4.654   7.427  2.9653 -2.3395 -3.5652
  441MOL0     H58155   4.266   4.605   7.598 -4.1107  0.9240  1.1786
  441MOL0     H58156   4.131   4.500   7.579 -1.9624  0.7245  1.3808
  441MOL0     H58157   4.332   4.438   7.423  0.7556  2.6536  0.3189
  441MOL0     H58158   4.273   4.575   7.327 -1.4230  0.0504 -0.6473
  441MOL0     H58159   4.055   4.482   7.306  2.4816  3.1572  2.0947
  441MOL0     H58160   4.082   4.362   7.420 -0.6357  0.2477 -0.5526
  441MOL0     H58161   4.267   4.252   7.273  0.6088 -2.2695 -6.0215
  441MOL0     H58162   4.091   4.241   7.225  0.1373  1.2198 -3.7655
  441MOL0     H58163   4.295   4.286   7.068 -1.7157 -1.6939 -1.4652
  441MOL0     H58164   4.274   4.453   7.137 -3.2404  1.5348 -2.5698
  441MOL0     H58165   4.071   4.594   7.098  1.8782  0.0835 -1.4522
  441MOL0     H58166   3.865   4.700   6.901 -1.5889  0.2227 -4.8449
  441MOL0     H58167   3.778   4.599   7.012 -2.8615  1.7181 -0.5788
  441MOL0     H58168   3.640   4.608   6.826 -0.9545 -3.6779  4.1422
  441MOL0     H58169   3.726   4.452   6.795 -0.6102  0.2832 -0.5209
  441MOL0     H58170   3.830   4.707   6.641  2.3759 -1.8210 -3.9318
  441MOL0     H58171   3.879   4.542   6.635  0.5973  1.9066 -0.7672
  441MOL0     H58172   3.656   4.501   6.509  1.0615 -0.7756  0.9428
  441MOL0     H58173   3.760   4.638   6.446 -0.9554  0.9115 -0.7957
  441MOL0     H58174   3.371   4.821   6.592  0.9233  1.8381 -1.2577
  441MOL0     H58175   3.190   4.861   6.442  1.8275  2.2398  1.4755
  441MOL0     H58176   3.206   4.797   5.816 -1.5713  4.3191 -1.5269
  441MOL0     H58177   3.052   4.827   5.635  0.2288 -0.6228  0.0413
  441MOL0     H58178   2.706   4.631   5.616  0.4929  1.6297  1.5319
  441MOL0     H58179   2.836   4.643   5.508  0.9995  1.5008  1.2383
  441MOL0     H58180   2.665   4.712   5.352  2.3792 -0.4385 -1.2556
  441MOL0     H58181   2.730   4.866   5.428  0.1604 -0.9715 -2.4116
  441MOL0     H58182   2.501   4.877   5.562  0.3366  1.0301 -0.1790
  441MOL0     H58183   2.460   4.724   5.515 -1.4671  0.9986  1.6841
  441MOL0     H58184   2.530   4.953   5.335  1.3318 -1.0587  1.7028
  441MOL0     H58185   2.474   4.804   5.263  2.7991 -0.2712  0.6200
  441MOL0     H58186   2.294   5.009   5.300  0.9937  0.5463  2.3751
  441MOL0     H58187   2.326   4.996   5.475  0.2428  3.2684 -0.8260
  441MOL0     H58188   2.233   4.789   5.498  3.8714  3.2097  2.0455
  441MOL0     H58189   2.249   4.753   5.328  0.0946  0.2885 -0.6125
  441MOL0     H58190   2.056   4.946   5.448 -1.0149  1.7734 -1.5670
  441MOL0     H58191   2.093   4.944   5.271  1.8168 -1.5404 -1.7119
  441MOL0     H58192   1.993   4.727   5.454  1.1374 -0.9031 -1.2919
  441MOL0     H58193   2.044   4.683   5.297 -0.8944 -1.8219 -2.1351
  441MOL0     H58194   2.729   4.711   5.870 -0.2675  0.2803  0.3875
  441MOL0     H58195   2.889   4.633   6.058 -0.6072  0.5933 -0.3159
  441MOL0     H58196   3.409   4.648   6.138  0.9916  0.1474 -1.6658
  441MOL0     H58197   3.586   4.599   6.283 -1.2324 -2.1705  1.5363
  441MOL0     H58198   3.678   4.963   7.836 -0.7185 -0.0777  1.4688
  441MOL0     H58199   3.452   4.918   7.897 -0.0862  0.3288  0.5940
  441MOL0     H58200   2.996   4.837   7.714 -2.1095 -0.0477 -1.7385
  441MOL0     H58201   2.771   4.711   7.726  0.6821 -0.9312 -0.6889
  441MOL0     H58202   2.535   4.442   7.806 -0.9694  0.1311  0.1800
  441MOL0     H58203   2.642   4.549   7.712 -0.9003  2.6685 -0.1202
  441MOL0     H58204   2.521   4.620   7.985  2.4458 -3.1679  0.7001
  441MOL0     H58205   2.596   4.737   7.877  1.4415 -1.0791  2.2292
  441MOL0     H58206   2.367   4.770   7.867  3.5652  0.3072 -0.9150
  441MOL0     H58207   2.319   4.602   7.873  1.3755 -1.0107  1.2481
  441MOL0     H58208   2.371   4.557   7.637 -1.5520  0.6979 -0.5819
  441MOL0     H58209   2.247   4.682   7.641  0.3117  0.1463 -3.2229
  441MOL0     H58210   2.578   4.829   7.429  4.1762 -3.6710  2.0522
  441MOL0     H58211   2.940   4.444   8.020  0.2044  0.7844  1.7971
  441MOL0     H58212   3.166   4.555   7.980  0.8144 -1.9263 -1.5699
  442MOL0     O58213   6.341   0.272  11.244  0.0436  0.4993  0.2919
  442MOL0     C58214   6.341   0.163  11.179 -0.0276  0.2661  1.3647
  442MOL0     O58215   6.356   0.145  11.042 -0.3106  0.5966  0.4150
  442MOL0     C58216   6.404   0.246  10.962 -0.1026  0.1191 -0.2249
  442MOL0     C58217   6.511   0.329  10.994 -0.7348  1.1189 -0.6165
  442MOL0     C58218   6.548   0.431  10.909  0.5611  0.1200 -0.4462
  442MOL0     C58219   6.481   0.456  10.785  0.7259 -0.2914 -0.5072
  442MOL0     O58220   6.506   0.562  10.703  0.3254  0.6754 -0.1520
  442MOL0     C58221   6.613   0.523  10.608 -0.3206 -0.1840  0.5872
  442MOL0     C58222   6.621   0.634  10.493  1.1317  0.0977 -0.7903
  442MOL0     C58223   6.749   0.656  10.411 -1.2182  0.2724  0.4778
  442MOL0     C58224   6.735   0.658  10.254 -0.4183  0.2588 -0.7411
  442MOL0     C58225   6.862   0.717  10.186  0.2003  0.4885  1.2746
  442MOL0     C58226   6.942   0.819  10.271 -0.8716 -0.6859 -0.2458
  442MOL0     C58227   7.040   0.907  10.179  0.9491  0.0089  0.0396
  442MOL0     C58228   7.166   0.830  10.119  0.3802  0.1257  0.3982
  442MOL0     N58229   7.259   0.765  10.221 -0.1252 -0.1843 -0.4034
  442MOL0     C58230   7.271   0.785  10.356  0.1867  0.4305 -0.0895
  442MOL0     C58231   7.345   0.679  10.393  0.1264  0.3907  0.2496
  442MOL0     C58232   7.405   0.665  10.536 -0.5832  0.1536  0.4167
  442MOL0     C58233   7.307   0.601  10.638  0.1228 -0.9375  0.1908
  442MOL0     C58234   7.304   0.673  10.771  0.3952 -0.7528 -0.5389
  442MOL0     C58235   7.440   0.677  10.842 -0.1336 -0.6824 -0.4652
  442MOL0     O58236   7.520   0.565  10.816 -0.6415  1.3299  0.8338
  442MOL0     C58237   7.646   0.555  10.876 -0.2895  0.3338 -0.2916
  442MOL0     C58238   7.735   0.468  10.815  0.4636  0.3979 -0.0995
  442MOL0     C58239   7.864   0.448  10.867  0.3270  0.4438  0.1114
  442MOL0     C58240   7.911   0.505  10.977 -0.6140  0.9121 -0.8667
  442MOL0     C58241   8.041   0.470  11.036  0.4601  0.1003  0.5354
  442MOL0     O58242   8.136   0.428  10.950 -0.5165  0.8532  0.1782
  442MOL0     C58243   8.250   0.361  11.012  1.1647  0.5238 -0.0628
  442MOL0     C58244   8.233   0.238  11.074 -0.2312  0.5121 -0.5566
  442MOL0     C58245   8.337   0.181  11.143 -0.0703 -0.5134  0.0190
  442MOL0     C58246   8.461   0.237  11.135  0.1024 -0.4483 -0.5818
  442MOL0     O58247   8.561   0.178  11.200  0.8793 -0.1936 -0.2937
  442MOL0     C58248   8.590   0.253  11.324 -0.7293  0.7429 -0.2733
  442MOL0     C58249   8.689   0.172  11.412 -1.0941  0.3988 -0.4960
  442MOL0     C58250   8.742   0.260  11.536 -0.1588 -0.1537 -0.4919
  442MOL0     C58251   8.825   0.175  11.624  0.5811 -0.2781 -0.5947
  442MOL0     C58252   8.905   0.260  11.732 -0.2193  0.2293  0.0480
  442MOL0     C58253   8.967   0.175  11.841  0.6039 -0.2814  0.4304
  442MOL0     C58254   9.076   0.265  11.906 -1.2028  0.0065 -1.0874
  442MOL0     C58255   9.015   0.379  11.993  0.7086 -0.6351  0.5890
  442MOL0    Cl58256   8.957   0.330  12.152 -0.1871  0.0467  0.1831
  442MOL0     C58257   8.481   0.354  11.059 -0.4792 -0.3214 -0.5258
  442MOL0     C58258   8.372   0.419  11.000  0.0656  0.3865 -0.5599
  442MOL0     O58259   8.046   0.485  11.160  0.2442  0.2994  0.1403
  442MOL0     C58260   7.816   0.595  11.048 -0.0367 -0.7489  0.3596
  442MOL0     C58261   7.686   0.617  10.992 -0.5554 -0.0122 -0.4792
  442MOL0     N58262   7.385   0.601  10.287 -0.0640 -0.5072  0.2116
  442MOL0     N58263   7.328   0.658  10.188 -0.5353  0.7068  0.0524
  442MOL0     C58264   6.386   0.361  10.741 -0.1980  0.2403 -1.1064
  442MOL0     C58265   6.342   0.263  10.836 -0.0501 -0.5287  0.7939
  442MOL0     C58266   6.327   0.041  11.252 -0.5375 -1.0329 -0.4351
  442MOL0     C58267   6.314  -0.080  11.194 -0.6425  0.5246  1.1682
  442MOL0     C58268   6.307  -0.211  11.267  0.0386 -0.3585 -0.2007
  442MOL0     C58269   6.293  -0.209  11.407  0.7320  0.2004  0.1233
  442MOL0     O58270   6.275  -0.317  11.484 -0.4283 -0.4952  0.4372
  442MOL0     C58271   6.384  -0.417  11.482  0.3115 -1.2648 -0.4009
  442MOL0     C58272   6.362  -0.527  11.579 -0.5240  0.8020 -0.8458
  442MOL0     C58273   6.315  -0.496  11.716  1.1088 -0.0890 -0.0558
  442MOL0     C58274   6.396  -0.396  11.799 -0.7685  0.7077 -0.9459
  442MOL0     C58275   6.368  -0.413  11.942  0.2695  0.7539  1.1522
  442MOL0     C58276   6.330  -0.439  12.053  0.2028  0.9145 -0.2564
  442MOL0     C58277   6.304  -0.080  11.464  0.7633  0.5017 -0.5308
  442MOL0     C58278   6.316   0.036  11.393 -0.3182  0.0149 -0.4023
  442MOL0     H58279   6.559   0.321  11.091 -1.6948 -0.1181 -0.2185
  442MOL0     H58280   6.625   0.498  10.946  0.0369  0.4045  0.1508
  442MOL0     H58281   6.600   0.427  10.557  2.0030 -0.0563 -0.3596
  442MOL0     H58282   6.711   0.512  10.654 -0.8814 -1.0605  1.6260
  442MOL0     H58283   6.593   0.727  10.543  0.2152 -0.5659 -0.0121
  442MOL0     H58284   6.533   0.616  10.430  0.9092 -2.0929  0.0375
  442MOL0     H58285   6.831   0.585  10.425  0.7656  2.3880  0.3617
  442MOL0     H58286   6.793   0.750  10.446  1.7962 -0.5446 -0.7368
  442MOL0     H58287   6.726   0.554  10.221 -2.5114  0.8438 -2.2569
  442MOL0     H58288   6.639   0.709  10.237 -0.4623  0.5842  0.3863
  442MOL0     H58289   6.827   0.768  10.096 -2.3060  0.6419  2.2531
  442MOL0     H58290   6.923   0.631  10.157 -1.7901 -0.5973  0.0207
  442MOL0     H58291   6.992   0.779  10.360 -0.4936  0.8138  0.2347
  442MOL0     H58292   6.873   0.896  10.307 -0.2905 -0.2752 -0.0045
  442MOL0     H58293   6.982   0.939  10.093  2.6863  2.2062 -0.3826
  442MOL0     H58294   7.084   0.976  10.252  3.2057 -1.7749  0.4901
  442MOL0     H58295   7.224   0.906  10.067  1.7969 -2.3276 -1.8520
  442MOL0     H58296   7.146   0.756  10.041  2.8350 -0.1465 -0.0566
  442MOL0     H58297   7.228   0.870  10.407  0.5124  0.4229  0.2002
  442MOL0     H58298   7.435   0.765  10.568 -0.6147  1.0993 -2.2900
  442MOL0     H58299   7.499   0.611  10.555 -1.0122 -0.5237  0.6648
  442MOL0     H58300   7.342   0.499  10.652 -0.8253 -1.1516  1.2065
  442MOL0     H58301   7.207   0.608  10.593 -0.9887 -1.6441  2.3908
  442MOL0     H58302   7.263   0.774  10.776  0.0089 -0.9360  2.8325
  442MOL0     H58303   7.237   0.613  10.833  1.0374  0.0216  0.9682
  442MOL0     H58304   7.425   0.687  10.950  1.3295 -1.0240 -0.2114
  442MOL0     H58305   7.500   0.766  10.822  0.1944 -0.2618  2.0125
  442MOL0     H58306   7.704   0.404  10.733 -2.6565  3.3613 -1.5083
  442MOL0     H58307   7.924   0.376  10.812  0.3349 -0.7741  1.6717
  442MOL0     H58308   8.138   0.186  11.072 -0.5662  1.0826 -0.0197
  442MOL0     H58309   8.323   0.094  11.207  1.4375  0.4516  1.7655
  442MOL0     H58310   8.503   0.284  11.383 -0.5429  3.4247 -1.2489
  442MOL0     H58311   8.634   0.349  11.294  3.5038 -0.8657  0.1692
  442MOL0     H58312   8.770   0.135  11.348 -1.5931  0.4712 -1.1770
  442MOL0     H58313   8.641   0.080  11.445 -0.9938  0.9140  1.1608
  442MOL0     H58314   8.666   0.318  11.590 -0.8810 -0.1153 -1.5188
  442MOL0     H58315   8.804   0.342  11.497  2.1634 -1.1026  1.0328
  442MOL0     H58316   8.755   0.105  11.672 -0.3614  1.2441  0.3146
  442MOL0     H58317   8.905   0.122  11.570  1.6912 -0.4785  1.1373
  442MOL0     H58318   8.832   0.327  11.778 -1.6782 -0.0851 -1.6768
  442MOL0     H58319   8.983   0.307  11.672  1.1764 -1.4109  0.4666
  442MOL0     H58320   9.011   0.083  11.802 -1.6436 -0.8418 -0.9804
  442MOL0     H58321   8.886   0.141  11.906 -1.2068 -3.3828 -3.0857
  442MOL0     H58322   9.140   0.212  11.978  1.0554  3.8170  0.0043
  442MOL0     H58323   9.151   0.310  11.840 -0.9917 -1.1699 -1.6806
  442MOL0     H58324   8.932   0.415  11.932  0.2370 -1.4949  0.7173
  442MOL0     H58325   9.095   0.454  12.002 -0.8840  1.5237 -1.8581
  442MOL0     H58326   8.579   0.401  11.062  0.5268 -2.2509  3.5640
  442MOL0     H58327   8.394   0.521  10.972  2.3260  0.4678  1.1826
  442MOL0     H58328   7.832   0.635  11.148 -2.6529 -4.3202  2.4416
  442MOL0     H58329   7.619   0.673  11.057 -0.7769 -0.1168 -0.6125
  442MOL0     H58330   6.326   0.368  10.651  1.7014 -1.0161 -2.5640
  442MOL0     H58331   6.270   0.196  10.790 -0.2639  0.8246 -0.9450
  442MOL0     H58332   6.320  -0.094  11.087 -0.6455  3.6949  0.6641
  442MOL0     H58333   6.302  -0.308  11.220  3.0262 -0.5883 -0.2426
  442MOL0     H58334   6.468  -0.357  11.514 -1.1438  0.2497  0.7502
  442MOL0     H58335   6.407  -0.458  11.383  1.7216 -1.1862 -0.1205
  442MOL0     H58336   6.297  -0.605  11.540 -1.3380  1.4295 -0.7859
  442MOL0     H58337   6.458  -0.577  11.595 -1.6789 -0.8789  1.3781
  442MOL0     H58338   6.308  -0.588  11.774  3.1765 -0.4169 -0.2608
  442MOL0     H58339   6.214  -0.457  11.697  1.4669  0.7557 -0.2663
  442MOL0     H58340   6.501  -0.422  11.784 -0.8651  0.0984 -0.6040
  442MOL0     H58341   6.373  -0.294  11.766 -2.5232  0.3532 -0.9204
  442MOL0     H58342   6.297  -0.462  12.152 -2.7756  1.7739 -0.9739
  442MOL0     H58343   6.308  -0.066  11.572 -0.0227  1.9624 -0.6678
  442MOL0     H58344   6.331   0.131  11.443 -0.7822 -0.9426  1.6255
  443MOL0     O58345   4.728   9.015   8.952  0.3002  0.1734 -0.2199
  443MOL0     C58346   4.741   9.101   9.034  0.6673 -0.0931  0.4756
  443MOL0     O58347   4.843   9.180   9.056  0.3894  0.1765  0.2702
  443MOL0     C58348   4.937   9.185   8.959 -0.1269 -0.0208 -0.8061
  443MOL0     C58349   5.063   9.136   8.984 -0.1215 -0.5838 -0.4476
  443MOL0     C58350   5.156   9.131   8.885 -0.6097  1.3095  0.5967
  443MOL0     C58351   5.151   9.199   8.763  0.1785  0.5932 -0.6346
  443MOL0     O58352   5.263   9.206   8.682  0.1473  0.7522 -0.6607
  443MOL0     C58353   5.235   9.260   8.553 -0.2002 -0.2223  0.8960
  443MOL0     C58354   5.311   9.393   8.545  0.5199  0.3146  0.0688
  443MOL0     C58355   5.289   9.447   8.402  0.0090 -0.3894 -0.0314
  443MOL0     C58356   5.325   9.591   8.375 -0.2584 -0.4856 -0.0366
  443MOL0     C58357   5.271   9.650   8.242  0.3136 -0.4911  0.7461
  443MOL0     C58358   5.339   9.566   8.129 -0.6234  0.1181 -0.6496
  443MOL0     C58359   5.495   9.571   8.129 -0.3310 -0.1717  0.3345
  443MOL0     C58360   5.552   9.502   8.004 -0.4403  0.1255 -0.3282
  443MOL0     N58361   5.520   9.362   8.002 -0.2113 -0.3630 -0.3278
  443MOL0     C58362   5.559   9.268   8.094  0.3645  0.2151 -0.0072
  443MOL0     C58363   5.497   9.162   8.050  0.4986  0.2935  0.0221
  443MOL0     C58364   5.488   9.024   8.121  0.0022 -0.2267 -0.2554
  443MOL0     C58365   5.606   8.922   8.098  0.4025 -0.2739 -0.5780
  443MOL0     C58366   5.636   8.909   7.950 -0.5317 -0.5827 -0.6118
  443MOL0     C58367   5.521   8.869   7.856 -0.4030  0.0150  0.3752
  443MOL0     O58368   5.450   8.764   7.923 -0.9713  0.1641  0.1730
  443MOL0     C58369   5.360   8.689   7.851  0.2930 -0.4490  0.3811
  443MOL0     C58370   5.329   8.553   7.891  0.7137  0.7036 -1.6938
  443MOL0     C58371   5.248   8.472   7.813 -0.8558 -0.8759  0.9230
  443MOL0     C58372   5.199   8.516   7.693  0.3845 -0.6910  0.6676
  443MOL0     C58373   5.134   8.413   7.605  0.4143  0.5912 -0.4406
  443MOL0     O58374   5.080   8.456   7.488 -0.0714 -1.0617 -1.2140
  443MOL0     C58375   5.024   8.389   7.383  0.1681 -0.4163 -0.2168
  443MOL0     C58376   4.982   8.464   7.265 -0.1639 -0.2764  0.7298
  443MOL0     C58377   4.940   8.408   7.143  0.1319 -0.8447 -0.9889
  443MOL0     C58378   4.940   8.271   7.142 -0.2214 -0.1184  0.3615
  443MOL0     O58379   4.890   8.222   7.020  0.2582  0.2512  0.1014
  443MOL0     C58380   4.749   8.200   7.025 -0.3691 -0.9782  0.0940
  443MOL0     C58381   4.693   8.159   6.881  0.5897 -0.5744 -0.6681
  443MOL0     C58382   4.708   8.260   6.765  0.3405  0.2872 -0.5999
  443MOL0     C58383   4.608   8.216   6.654 -0.0638 -0.3098  0.0987
  443MOL0     C58384   4.629   8.293   6.521 -0.7071 -1.5126  0.6297
  443MOL0     C58385   4.627   8.450   6.528  0.5723  0.1281 -0.4991
  443MOL0     C58386   4.641   8.509   6.396  0.5906 -0.2741  0.5398
  443MOL0     C58387   4.610   8.654   6.365 -0.2219 -0.3901 -0.6823
  443MOL0    Cl58388   4.644   8.689   6.189 -0.0703 -0.2493 -0.2890
  443MOL0     C58389   4.977   8.196   7.251 -0.4930 -0.2494 -0.3347
  443MOL0     C58390   5.022   8.249   7.363 -1.0421 -0.6435 -0.3778
  443MOL0     O58391   5.115   8.297   7.644  0.2862 -0.2231 -0.7753
  443MOL0     C58392   5.216   8.651   7.653  0.7848 -0.0764  0.5350
  443MOL0     C58393   5.294   8.736   7.731  0.5602  0.1957 -0.0605
  443MOL0     N58394   5.426   9.186   7.936 -0.5764  0.2165  0.2620
  443MOL0     N58395   5.438   9.315   7.903 -0.2410  1.5299 -0.5395
  443MOL0     C58396   5.030   9.268   8.745 -1.1059 -1.3352 -0.5809
  443MOL0     C58397   4.930   9.261   8.840  0.0409  0.3620 -0.1436
  443MOL0     C58398   4.617   9.136   9.113 -0.1085 -0.4829 -0.2520
  443MOL0     C58399   4.631   9.228   9.223 -0.2129 -0.5759  0.2840
  443MOL0     C58400   4.516   9.248   9.303  0.1413  0.6899 -0.8107
  443MOL0     C58401   4.395   9.172   9.278  0.4207 -0.6840 -0.1456
  443MOL0     O58402   4.290   9.157   9.363  0.0909  0.1671 -0.6533
  443MOL0     C58403   4.251   9.256   9.457 -0.4546 -0.1430  0.6413
  443MOL0     C58404   4.126   9.222   9.540 -0.9595 -0.6378  0.2961
  443MOL0     C58405   3.986   9.225   9.462 -0.9989  0.0008  0.4640
  443MOL0     C58406   3.866   9.199   9.552 -0.1457  0.4840  0.0017
  443MOL0     C58407   3.857   9.049   9.567 -0.1266  0.2119  0.5342
  443MOL0     C58408   3.825   8.931   9.555 -0.3556 -0.0232  0.1663
  443MOL0     C58409   4.395   9.094   9.165  0.3450 -1.2844 -0.3610
  443MOL0     C58410   4.498   9.085   9.078 -0.0385 -0.6055 -0.2794
  443MOL0     H58411   5.066   9.098   9.086 -2.3204  1.0520  0.3174
  443MOL0     H58412   5.238   9.065   8.911  1.8294  2.5304 -3.1870
  443MOL0     H58413   5.130   9.271   8.527  0.0731 -0.8894 -0.5611
  443MOL0     H58414   5.258   9.185   8.477 -1.3987  1.2811 -1.0342
  443MOL0     H58415   5.417   9.379   8.569  0.2918 -0.2935  0.7680
  443MOL0     H58416   5.265   9.465   8.613  2.6395  3.3464 -1.4562
  443MOL0     H58417   5.184   9.435   8.374  1.0069 -1.0799 -4.0846
  443MOL0     H58418   5.337   9.380   8.330 -0.8714 -1.6063  0.4839
  443MOL0     H58419   5.278   9.650   8.455  0.5446 -0.1209  0.1792
  443MOL0     H58420   5.428   9.624   8.393 -0.8467  0.7194  1.3523
  443MOL0     H58421   5.300   9.753   8.224 -0.2274 -0.7715 -2.1687
  443MOL0     H58422   5.163   9.652   8.226  0.7200  2.5433 -3.0906
  443MOL0     H58423   5.302   9.584   8.027 -0.5657 -2.3015 -1.1443
  443MOL0     H58424   5.300   9.464   8.135 -2.2568  0.7600  0.5051
  443MOL0     H58425   5.513   9.677   8.114 -1.2367 -0.1670 -0.8807
  443MOL0     H58426   5.535   9.526   8.221 -0.2452 -1.6242 -0.3885
  443MOL0     H58427   5.661   9.510   8.005 -0.4775  1.5763 -2.0989
  443MOL0     H58428   5.513   9.557   7.918 -0.2293  0.2260 -0.3595
  443MOL0     H58429   5.627   9.270   8.178  0.0138  3.0727  0.3256
  443MOL0     H58430   5.388   8.988   8.094  0.7781 -3.2984  0.5652
  443MOL0     H58431   5.500   9.041   8.228 -5.0823 -1.2003  0.7394
  443MOL0     H58432   5.579   8.822   8.136  2.5147 -0.9940 -0.8792
  443MOL0     H58433   5.694   8.962   8.149 -0.6681 -0.3305  1.4276
  443MOL0     H58434   5.663   9.012   7.924 -1.7090 -0.2106 -0.4582
  443MOL0     H58435   5.712   8.831   7.959 -2.9667 -2.8892  2.2723
  443MOL0     H58436   5.565   8.841   7.760 -1.9752  0.1117 -0.4120
  443MOL0     H58437   5.452   8.952   7.839  0.5479  0.7974  0.2071
  443MOL0     H58438   5.366   8.523   7.989 -3.2727 -0.7760 -0.4322
  443MOL0     H58439   5.219   8.374   7.848 -0.1771 -1.3286  0.2480
  443MOL0     H58440   4.983   8.572   7.269  0.7067 -0.2611  0.4518
  443MOL0     H58441   4.916   8.474   7.060  3.9396 -0.7474 -2.2007
  443MOL0     H58442   4.712   8.296   7.061  0.0512 -1.5049  2.0441
  443MOL0     H58443   4.733   8.117   7.095  1.2172 -2.4513 -1.1981
  443MOL0     H58444   4.587   8.137   6.893  0.5343  0.2861  0.6420
  443MOL0     H58445   4.747   8.067   6.858  1.1777 -0.8558  1.5945
  443MOL0     H58446   4.815   8.257   6.744  0.6323  2.9873  0.0939
  443MOL0     H58447   4.675   8.359   6.798  2.9080  1.4297 -1.2325
  443MOL0     H58448   4.631   8.114   6.623 -1.3494 -0.1168 -1.6378
  443MOL0     H58449   4.506   8.215   6.694 -0.1557  0.0875 -0.1231
  443MOL0     H58450   4.553   8.271   6.445  2.5411 -1.0464 -3.1062
  443MOL0     H58451   4.723   8.274   6.467 -0.4623  2.3851 -0.6325
  443MOL0     H58452   4.706   8.490   6.592  0.9483 -2.3507  0.7068
  443MOL0     H58453   4.533   8.477   6.576 -1.5563 -3.3163 -2.4032
  443MOL0     H58454   4.744   8.489   6.365  0.5870 -1.6983  1.3470
  443MOL0     H58455   4.574   8.452   6.330 -0.4525 -1.7100  2.6828
  443MOL0     H58456   4.664   8.725   6.428 -2.5364  0.9929 -0.1319
  443MOL0     H58457   4.508   8.675   6.401 -0.2328 -1.7140  0.1024
  443MOL0     H58458   4.956   8.090   7.240  4.3893 -2.7598  7.0153
  443MOL0     H58459   5.040   8.178   7.443 -2.9474 -1.9364 -1.0378
  443MOL0     H58460   5.180   8.675   7.553 -2.5542  1.0814  1.8573
  443MOL0     H58461   5.317   8.836   7.695  3.4457 -0.8334 -1.3741
  443MOL0     H58462   5.028   9.330   8.657 -0.2450  1.3307  1.1621
  443MOL0     H58463   4.836   9.309   8.813 -1.6901 -2.3818  0.5827
  443MOL0     H58464   4.720   9.284   9.249 -0.4456 -0.7081  1.4445
  443MOL0     H58465   4.517   9.322   9.382  0.2331  1.3175 -1.3900
  443MOL0     H58466   4.240   9.349   9.401 -0.9938 -1.8493 -2.3030
  443MOL0     H58467   4.332   9.268   9.530  1.8954 -0.4299 -1.7550
  443MOL0     H58468   4.153   9.119   9.564  2.7766  0.2669  0.6170
  443MOL0     H58469   4.125   9.274   9.636 -1.7281  0.2385 -0.1681
  443MOL0     H58470   3.988   9.148   9.384  1.8562 -1.0892  1.5152
  443MOL0     H58471   3.962   9.323   9.421  0.8596  1.1087  1.9071
  443MOL0     H58472   3.876   9.255   9.646 -4.8656  1.3670  0.2203
  443MOL0     H58473   3.781   9.239   9.496  0.0403  1.0424  0.1126
  443MOL0     H58474   3.797   8.829   9.543 -2.8319  0.6663 -0.5783
  443MOL0     H58475   4.308   9.031   9.154  1.6122 -2.6456 -4.2845
  443MOL0     H58476   4.486   9.019   8.992 -1.6255 -0.7483  0.0114
  444MOL0     O58477   2.317   3.329   4.524 -0.0061 -0.3777  0.8479
  444MOL0     C58478   2.371   3.376   4.424  0.7966 -0.3177  0.5073
  444MOL0     O58479   2.305   3.430   4.320  0.0375 -0.2081 -0.3530
  444MOL0     C58480   2.173   3.453   4.328  0.1754 -0.2314 -0.3725
  444MOL0     C58481   2.086   3.343   4.329  0.1094 -0.0283  0.2733
  444MOL0     C58482   1.950   3.355   4.321  1.5735  0.3579 -0.2019
  444MOL0     C58483   1.902   3.488   4.342  0.1775 -0.2544 -0.5499
  444MOL0     O58484   1.770   3.490   4.373 -0.5626 -1.1976 -0.5640
  444MOL0     C58485   1.726   3.572   4.489  0.1472  0.4238  0.1006
  444MOL0     C58486   1.650   3.697   4.431  0.5211  0.2958 -0.7019
  444MOL0     C58487   1.528   3.655   4.347 -0.2516  0.2458  0.3486
  444MOL0     C58488   1.418   3.761   4.335  0.1944  1.2898  0.1108
  444MOL0     C58489   1.354   3.805   4.469  0.2146 -0.8461  0.1661
  444MOL0     C58490   1.269   3.937   4.447 -0.9696 -0.6034  1.0208
  444MOL0     C58491   1.219   3.995   4.570 -0.9253  0.5616 -1.2977
  444MOL0     C58492   1.113   3.907   4.641 -0.1209 -0.8321  0.0492
  444MOL0     N58493   1.036   3.985   4.741  0.0064  0.0914  0.4379
  444MOL0     C58494   1.023   3.962   4.873 -0.2529  0.0197  0.8019
  444MOL0     C58495   0.924   4.045   4.916  0.0242 -0.1289  0.0164
  444MOL0     C58496   0.892   4.058   5.057 -0.0816  0.2028 -0.7335
  444MOL0     C58497   0.988   4.157   5.128  0.4237  0.5352  0.2052
  444MOL0     C58498   0.979   4.143   5.280  0.9758  0.0702 -0.4703
  444MOL0     C58499   1.062   4.255   5.348 -1.4243  0.0057 -0.3009
  444MOL0     O58500   1.078   4.209   5.482  0.3802  0.0097 -0.4805
  444MOL0     C58501   1.125   4.289   5.572 -0.4832 -0.7505  0.0419
  444MOL0     C58502   1.135   4.430   5.565 -0.6403  0.8231 -0.6376
  444MOL0     C58503   1.178   4.509   5.673 -0.0132 -0.2810  0.1363
  444MOL0     C58504   1.220   4.456   5.790  0.5333 -0.5679 -0.0561
  444MOL0     C58505   1.255   4.534   5.910 -0.8306 -0.1103  0.4939
  444MOL0     O58506   1.365   4.496   5.969 -0.2092  0.9569 -0.4172
  444MOL0     C58507   1.431   4.569   6.075  0.7777 -0.5941 -0.0169
  444MOL0     C58508   1.374   4.582   6.202  0.2043  1.1251  0.2503
  444MOL0     C58509   1.450   4.642   6.303  0.1003 -0.5937 -0.7355
  444MOL0     C58510   1.575   4.686   6.286  0.0338  0.1594 -1.4981
  444MOL0     O58511   1.635   4.735   6.395 -0.1427 -0.2016 -0.5309
  444MOL0     C58512   1.710   4.851   6.376 -0.5884 -0.0623  0.2963
  444MOL0     C58513   1.671   4.960   6.481 -0.0913  0.3973 -0.7541
  444MOL0     C58514   1.532   5.002   6.457  0.2989 -0.2259  0.2472
  444MOL0     C58515   1.499   5.130   6.530  0.3921  0.7881  0.1035
  444MOL0     C58516   1.387   5.211   6.470  0.6322  0.7078  0.6346
  444MOL0     C58517   1.327   5.326   6.554  1.0879  0.0519 -0.1447
  444MOL0     C58518   1.240   5.426   6.471  0.4226  0.1442 -0.0633
  444MOL0     C58519   1.160   5.517   6.561 -0.1845 -0.1379  0.7186
  444MOL0    Cl58520   1.056   5.628   6.464 -0.6315  0.3605  0.4402
  444MOL0     C58521   1.627   4.666   6.163 -0.4246  0.1788  0.8986
  444MOL0     C58522   1.556   4.620   6.049  0.4683 -0.1266 -0.2284
  444MOL0     O58523   1.189   4.628   5.947 -0.2961  0.0004  0.3685
  444MOL0     C58524   1.212   4.320   5.802  0.1565  0.2900  0.4180
  444MOL0     C58525   1.161   4.237   5.700 -0.3295  0.1356  0.1895
  444MOL0     N58526   0.875   4.123   4.823  0.5934  0.5604  0.3252
  444MOL0     N58527   0.946   4.083   4.708 -0.2176 -0.1820 -0.7149
  444MOL0     C58528   1.986   3.596   4.338 -0.5416  0.2412  0.4519
  444MOL0     C58529   2.116   3.583   4.333 -0.1441  0.4289 -0.4307
  444MOL0     C58530   2.522   3.380   4.411  0.0541  0.1915  0.3743
  444MOL0     C58531   2.611   3.312   4.496 -0.5360 -0.0684 -0.5031
  444MOL0     C58532   2.753   3.322   4.468 -0.4630  0.4540  0.0319
  444MOL0     C58533   2.804   3.406   4.369  0.9101  0.0308  0.7803
  444MOL0     O58534   2.935   3.412   4.335 -0.0147  0.2276 -0.7342
  444MOL0     C58535   3.017   3.473   4.433  0.4700  0.5615  0.1436
  444MOL0     C58536   3.132   3.539   4.349  0.1743 -0.3155  0.3218
  444MOL0     C58537   3.219   3.427   4.291 -0.2923  0.2926  0.2445
  444MOL0     C58538   3.302   3.476   4.159 -0.0132  0.2677 -0.9912
  444MOL0     C58539   3.398   3.584   4.193  0.6547  0.4886  0.6023
  444MOL0     C58540   3.471   3.676   4.208  0.2963 -0.3677 -0.2485
  444MOL0     C58541   2.714   3.454   4.278  0.2999 -0.4616 -0.1845
  444MOL0     C58542   2.573   3.439   4.295  0.5411 -0.2629 -0.8984
  444MOL0     H58543   2.124   3.242   4.339 -0.1014 -0.2417 -0.9554
  444MOL0     H58544   1.883   3.269   4.330 -0.2944  1.5321 -2.0832
  444MOL0     H58545   1.814   3.594   4.550  1.5656  0.2693 -1.8017
  444MOL0     H58546   1.650   3.519   4.547 -0.4824 -0.8172 -1.7662
  444MOL0     H58547   1.728   3.755   4.381  0.9251  2.3622  2.0989
  444MOL0     H58548   1.629   3.755   4.521 -1.3538 -4.1251  2.0796
  444MOL0     H58549   1.474   3.566   4.380  0.6820 -0.2836  0.4913
  444MOL0     H58550   1.566   3.628   4.248 -3.4919  1.5691 -1.4316
  444MOL0     H58551   1.466   3.844   4.281 -0.6058  0.8800 -1.2679
  444MOL0     H58552   1.347   3.730   4.258  1.2551 -1.0356 -0.0034
  444MOL0     H58553   1.428   3.828   4.546 -0.3031  2.2370 -0.1126
  444MOL0     H58554   1.290   3.721   4.498  1.2885 -1.8000 -0.1783
  444MOL0     H58555   1.184   3.918   4.381  0.5285 -0.7359 -0.9743
  444MOL0     H58556   1.336   4.004   4.393 -0.8624 -1.3748  0.1777
  444MOL0     H58557   1.307   4.005   4.635  1.1191 -0.4117 -3.7324
  444MOL0     H58558   1.175   4.094   4.557 -1.3232  0.5715 -0.0631
  444MOL0     H58559   1.160   3.821   4.690  0.5217 -0.2842  0.4105
  444MOL0     H58560   1.037   3.867   4.572  2.0078 -2.0753 -1.7315
  444MOL0     H58561   1.082   3.903   4.942  2.4829  2.3409  0.6388
  444MOL0     H58562   0.895   3.958   5.100  2.2338  0.2264 -0.7353
  444MOL0     H58563   0.789   4.096   5.063  0.2910  1.4833 -1.8513
  444MOL0     H58564   0.969   4.259   5.094 -0.5441  0.2603 -0.1143
  444MOL0     H58565   1.088   4.117   5.113  1.7629  1.7387  4.4910
  444MOL0     H58566   0.879   4.143   5.323  1.5302 -3.8167  1.1918
  444MOL0     H58567   1.013   4.045   5.315 -2.5625 -0.9913  0.3868
  444MOL0     H58568   1.016   4.353   5.341  1.3969  1.2927 -3.0313
  444MOL0     H58569   1.151   4.265   5.285 -1.2889 -0.3883 -0.1783
  444MOL0     H58570   1.096   4.486   5.481 -0.4625  2.5560  0.3732
  444MOL0     H58571   1.182   4.616   5.652  0.6669 -0.4451 -0.6644
  444MOL0     H58572   1.276   4.536   6.212  0.3626  0.7180 -0.0224
  444MOL0     H58573   1.407   4.632   6.402  2.0533  1.6259  0.4537
  444MOL0     H58574   1.691   4.899   6.280  2.5443  0.7095 -0.0394
  444MOL0     H58575   1.815   4.819   6.373 -0.4628  0.3173  0.5206
  444MOL0     H58576   1.744   5.040   6.466  0.1721  0.3234  0.0528
  444MOL0     H58577   1.685   4.925   6.584  0.2736  3.3296  0.2819
  444MOL0     H58578   1.451   4.934   6.486 -2.3632  2.9039  0.8016
  444MOL0     H58579   1.508   5.029   6.354  0.0620  1.5013  0.7187
  444MOL0     H58580   1.458   5.104   6.628  0.4781  2.2166  0.5489
  444MOL0     H58581   1.584   5.199   6.536  0.3122  0.8408  0.6869
  444MOL0     H58582   1.298   5.149   6.453 -0.6789  1.9970  2.4073
  444MOL0     H58583   1.425   5.249   6.375 -1.5595  0.9151 -0.2331
  444MOL0     H58584   1.413   5.384   6.589  0.6460 -0.7479  2.4661
  444MOL0     H58585   1.274   5.291   6.642  0.6213 -2.3347 -1.2811
  444MOL0     H58586   1.308   5.485   6.409 -1.4663  1.7914 -0.6599
  444MOL0     H58587   1.167   5.364   6.420  0.3596  0.4790 -0.3828
  444MOL0     H58588   1.226   5.574   6.627 -0.0348  1.2321 -0.5746
  444MOL0     H58589   1.099   5.458   6.630 -1.1681  0.0809  0.0607
  444MOL0     H58590   1.731   4.696   6.157 -0.5690  0.4757 -0.3928
  444MOL0     H58591   1.608   4.602   5.955 -1.4922 -1.0539 -1.1839
  444MOL0     H58592   1.229   4.262   5.892 -0.5668 -2.7983 -1.2954
  444MOL0     H58593   1.144   4.130   5.710 -1.8601  0.3917  0.5606
  444MOL0     H58594   1.936   3.692   4.348 -1.5259 -0.2097  0.0508
  444MOL0     H58595   2.185   3.666   4.319  1.5680 -1.0436 -1.0580
  444MOL0     H58596   2.567   3.256   4.577 -2.6981  2.7501  0.4538
  444MOL0     H58597   2.828   3.259   4.515  0.9263  0.3322 -2.1929
  444MOL0     H58598   3.059   3.393   4.494 -1.2376  1.6176  2.8562
  444MOL0     H58599   2.970   3.552   4.491 -1.1487 -1.1843  1.3415
  444MOL0     H58600   3.090   3.603   4.271 -1.2325 -0.7264  0.7140
  444MOL0     H58601   3.198   3.601   4.411  1.2595  0.7063 -1.7670
  444MOL0     H58602   3.150   3.344   4.269 -2.1532  2.0149 -0.7422
  444MOL0     H58603   3.285   3.390   4.371  2.0375  4.0798  0.2972
  444MOL0     H58604   3.358   3.390   4.120  2.7150  1.0146  0.9824
  444MOL0     H58605   3.244   3.511   4.073  1.0781 -1.7946 -2.6998
  444MOL0     H58606   3.537   3.761   4.205 -0.6691  0.4697  1.0861
  444MOL0     H58607   2.741   3.507   4.188 -3.8711 -0.8928 -1.8992
  444MOL0     H58608   2.511   3.492   4.223  0.4926 -0.0372 -0.6931
  445MOL0     O58609   0.567   9.071   7.203 -0.3408 -0.0624 -0.0608
  445MOL0     C58610   0.637   8.993   7.130  0.8640 -0.7914 -0.5443
  445MOL0     O58611   0.586   8.920   7.020  0.1972  0.1590  0.0653
  445MOL0     C58612   0.449   8.935   6.996  0.1792  0.7151 -0.6102
  445MOL0     C58613   0.373   9.053   6.994  0.5610 -1.0042  0.0786
  445MOL0     C58614   0.243   9.060   6.954  0.3615 -0.1943 -0.6998
  445MOL0     C58615   0.181   8.942   6.910 -0.4762 -0.7229 -0.0824
  445MOL0     O58616   0.054   8.942   6.849  0.0437  0.4740 -0.1250
  445MOL0     C58617   0.053   8.873   6.719  0.2598  0.0235 -0.1753
  445MOL0     C58618   0.138   8.936   6.599 -0.0652  0.1431  0.2039
  445MOL0     C58619   0.110   8.866   6.464  0.1980 -0.7906  0.0209
  445MOL0     C58620  -0.038   8.829   6.440  0.3681  0.1645  0.7412
  445MOL0     C58621  -0.123   8.958   6.416 -0.1121 -0.2374  0.1279
  445MOL0     C58622  -0.267   8.930   6.408  0.2283 -0.1072 -0.0048
  445MOL0     C58623  -0.302   8.812   6.329  0.1363  0.6469  0.1797
  445MOL0     C58624  -0.260   8.818   6.177 -0.2688 -0.3880 -0.8383
  445MOL0     N58625  -0.316   8.708   6.103 -0.3427  0.8717 -0.6500
  445MOL0     C58626  -0.439   8.651   6.119 -0.4149 -0.1572 -0.9768
  445MOL0     C58627  -0.450   8.553   6.022 -0.6533 -0.3256  0.2040
  445MOL0     C58628  -0.578   8.478   5.997 -0.2629  0.0955 -0.0570
  445MOL0     C58629  -0.656   8.536   5.873 -0.2584  0.1593 -0.2471
  445MOL0     C58630  -0.788   8.458   5.845  0.4031 -0.0534 -0.2800
  445MOL0     C58631  -0.866   8.554   5.760 -0.1096 -0.6591 -0.1649
  445MOL0     O58632  -0.906   8.664   5.847  0.6985 -0.7649 -0.6931
  445MOL0     C58633  -1.003   8.760   5.813  0.1371  1.1435  0.9431
  445MOL0     C58634  -1.049   8.784   5.688 -0.1194 -0.0585 -0.0107
  445MOL0     C58635  -1.140   8.888   5.656  0.5704  0.1875  0.6736
  445MOL0     C58636  -1.201   8.956   5.760 -0.0122 -0.3562 -0.3056
  445MOL0     C58637  -1.313   9.057   5.729 -0.8853  0.2570 -0.4039
  445MOL0     O58638  -1.378   9.045   5.616  0.0304  0.4945  0.0580
  445MOL0     C58639  -1.496   9.113   5.596  0.2761  0.3786  0.8996
  445MOL0     C58640  -1.592   9.149   5.688 -0.0536 -0.4105 -0.1531
  445MOL0     C58641  -1.725   9.198   5.653 -0.5365  0.4273  0.4746
  445MOL0     C58642  -1.746   9.230   5.520  1.0552 -0.4931  0.0107
  445MOL0     O58643  -1.873   9.280   5.490  0.3137 -0.4916 -0.2550
  445MOL0     C58644  -1.909   9.280   5.351 -0.4308 -0.1752 -0.8388
  445MOL0     C58645  -2.060   9.317   5.341 -0.0630 -0.2895  0.2527
  445MOL0     C58646  -2.099   9.443   5.424 -0.7576  0.6717  0.0611
  445MOL0     C58647  -2.254   9.445   5.433 -0.2771 -0.0105 -0.0156
  445MOL0     C58648  -2.298   9.550   5.531  0.0698  0.1192 -0.0665
  445MOL0     C58649  -2.420   9.523   5.629  0.5837 -0.2839  0.7731
  445MOL0     C58650  -2.424   9.645   5.717 -0.4458 -0.6225  0.9137
  445MOL0     C58651  -2.517   9.636   5.830  0.0902  0.6351  0.4016
  445MOL0    Cl58652  -2.679   9.627   5.774  0.2448  0.2443  0.4076
  445MOL0     C58653  -1.650   9.194   5.421  0.2385 -0.2683  0.4607
  445MOL0     C58654  -1.527   9.140   5.465 -0.2903 -0.1890 -0.1956
  445MOL0     O58655  -1.346   9.139   5.819 -0.4143 -0.3084  0.3309
  445MOL0     C58656  -1.159   8.938   5.893 -0.0854 -0.0906  0.3103
  445MOL0     C58657  -1.067   8.839   5.916 -0.6366  0.4257 -0.2840
  445MOL0     N58658  -0.319   8.541   5.964 -0.0033  0.4409 -0.2890
  445MOL0     N58659  -0.256   8.637   6.011 -0.0466  0.0381 -0.5011
  445MOL0     C58660   0.250   8.820   6.918  0.9251  0.3762 -0.6867
  445MOL0     C58661   0.383   8.821   6.965  0.5143 -0.6316  1.0372
  445MOL0     C58662   0.781   8.993   7.153 -0.6416  0.1100 -0.7006
  445MOL0     C58663   0.847   9.074   7.250 -0.1689 -0.4061  1.0684
  445MOL0     C58664   0.987   9.090   7.251  1.1032 -0.1509 -0.8463
  445MOL0     C58665   1.073   9.016   7.162 -0.5867 -0.5699  0.6745
  445MOL0     O58666   1.208   9.034   7.147 -0.3932  0.3925 -0.8795
  445MOL0     C58667   1.267   9.114   7.263  0.2794 -0.1477  0.5595
  445MOL0     C58668   1.416   9.099   7.262  0.1621 -0.3573 -0.7819
  445MOL0     C58669   1.498   9.210   7.349  0.8304 -0.1180  0.9082
  445MOL0     C58670   1.456   9.353   7.306 -0.0349 -0.9018  0.4008
  445MOL0     C58671   1.541   9.450   7.374 -0.9659  0.3086 -0.8312
  445MOL0     C58672   1.664   9.589   7.445  0.2719  0.6773 -0.0483
  445MOL0     C58673   1.010   8.927   7.078  0.4200 -0.7428 -0.1609
  445MOL0     C58674   0.867   8.912   7.071 -0.1918 -0.3135  0.0842
  445MOL0     H58675   0.417   9.144   7.033  0.5600 -0.5210 -1.0183
  445MOL0     H58676   0.179   9.147   6.968 -2.3588 -1.7170 -2.8322
  445MOL0     H58677  -0.050   8.879   6.683  0.8413  1.8347 -1.6486
  445MOL0     H58678   0.082   8.768   6.731  0.7689  0.0964 -0.7246
  445MOL0     H58679   0.243   8.916   6.623  0.3056  0.0965 -1.3228
  445MOL0     H58680   0.126   9.044   6.593 -2.8279 -0.1414 -1.2104
  445MOL0     H58681   0.178   8.781   6.467  1.7019  0.3388 -0.9275
  445MOL0     H58682   0.136   8.930   6.379  0.4040  0.8743  1.2742
  445MOL0     H58683  -0.043   8.780   6.342  0.8688  2.3511 -0.4394
  445MOL0     H58684  -0.075   8.762   6.519 -0.1797 -1.0513 -0.5082
  445MOL0     H58685  -0.097   9.020   6.330  1.9056  2.3070  2.3958
  445MOL0     H58686  -0.107   9.016   6.508  1.7026  3.5395 -2.2897
  445MOL0     H58687  -0.315   9.022   6.375  1.4001  0.7341  0.5794
  445MOL0     H58688  -0.301   8.910   6.510  0.1154 -0.4805 -0.1141
  445MOL0     H58689  -0.270   8.716   6.370  1.2078  1.0629  0.3391
  445MOL0     H58690  -0.411   8.801   6.324  0.2448  0.1004 -1.5460
  445MOL0     H58691  -0.153   8.814   6.158 -0.3995 -0.2933 -1.6472
  445MOL0     H58692  -0.283   8.919   6.142 -0.4175 -0.8789 -2.2277
  445MOL0     H58693  -0.515   8.687   6.188  1.4061  2.7002 -0.2897
  445MOL0     H58694  -0.650   8.467   6.079 -0.5906 -2.7460 -0.6334
  445MOL0     H58695  -0.551   8.374   5.978  3.3097 -0.0167  4.1489
  445MOL0     H58696  -0.602   8.533   5.779 -2.1522 -1.0920 -1.3534
  445MOL0     H58697  -0.680   8.640   5.898 -0.3713 -0.4565  2.6281
  445MOL0     H58698  -0.784   8.368   5.784 -2.3243 -0.2891 -0.2204
  445MOL0     H58699  -0.846   8.437   5.935 -1.0674  0.0178 -1.1800
  445MOL0     H58700  -0.955   8.517   5.708  0.8608 -0.7964 -1.7923
  445MOL0     H58701  -0.795   8.597   5.689  3.4896 -3.1677  1.6005
  445MOL0     H58702  -1.003   8.738   5.602 -1.9739 -0.1148 -1.0164
  445MOL0     H58703  -1.153   8.914   5.551  0.4904 -1.1644  0.3298
  445MOL0     H58704  -1.577   9.115   5.790 -0.3692 -3.5735 -1.0432
  445MOL0     H58705  -1.789   9.213   5.739 -0.5706  0.1456  0.4991
  445MOL0     H58706  -1.897   9.184   5.299 -0.0645 -0.8459  0.4434
  445MOL0     H58707  -1.850   9.349   5.290 -2.0643  0.1240 -2.1632
  445MOL0     H58708  -2.119   9.230   5.370 -0.5840  0.3095  1.0249
  445MOL0     H58709  -2.091   9.345   5.240  1.9326  3.7869  0.5702
  445MOL0     H58710  -2.045   9.531   5.389  3.4462 -1.9463 -0.7089
  445MOL0     H58711  -2.058   9.434   5.525  2.3023 -1.7096 -1.2170
  445MOL0     H58712  -2.310   9.471   5.343 -1.2661  2.2069  1.1664
  445MOL0     H58713  -2.288   9.345   5.462  0.0141 -0.8412 -2.3265
  445MOL0     H58714  -2.338   9.634   5.472  2.8123  2.2713  0.9080
  445MOL0     H58715  -2.214   9.582   5.593  0.2372 -0.2082 -0.1262
  445MOL0     H58716  -2.400   9.436   5.692  3.5941 -2.5901 -2.9042
  445MOL0     H58717  -2.512   9.509   5.571  1.5238 -0.8015 -0.6426
  445MOL0     H58718  -2.332   9.662   5.772 -0.3314  2.6848 -0.0638
  445MOL0     H58719  -2.437   9.728   5.646  0.5354  0.4357  1.9273
  445MOL0     H58720  -2.505   9.722   5.896 -1.1023  1.2529 -0.1536
  445MOL0     H58721  -2.483   9.548   5.886 -1.3853 -1.6693 -2.0526
  445MOL0     H58722  -1.668   9.210   5.315  0.4258 -0.3191  0.4228
  445MOL0     H58723  -1.447   9.104   5.401  2.6353 -0.7756  3.4362
  445MOL0     H58724  -1.193   9.012   5.965 -0.7961  2.2203 -2.2678
  445MOL0     H58725  -1.038   8.822   6.019  0.5472  5.0620  0.3504
  445MOL0     H58726   0.210   8.726   6.881 -0.6428  0.9728 -0.5863
  445MOL0     H58727   0.427   8.721   6.961 -1.5209 -1.5528 -0.2111
  445MOL0     H58728   0.783   9.117   7.326  0.6189  1.0649  0.9347
  445MOL0     H58729   1.019   9.155   7.332  1.6332 -2.9108  1.3191
  445MOL0     H58730   1.224   9.074   7.355 -2.1125 -0.2438 -0.5121
  445MOL0     H58731   1.237   9.218   7.246 -1.7940 -0.4563  2.0095
  445MOL0     H58732   1.442   9.002   7.305 -2.6785  0.6916  4.0623
  445MOL0     H58733   1.450   9.101   7.158  2.4964  4.0808 -0.1865
  445MOL0     H58734   1.604   9.191   7.329  0.3847 -1.2457 -0.5859
  445MOL0     H58735   1.477   9.182   7.453  0.7520 -0.7857  0.7215
  445MOL0     H58736   1.458   9.371   7.198 -2.2191 -1.2513  0.2499
  445MOL0     H58737   1.352   9.364   7.337 -0.0863 -3.2859  1.2345
  445MOL0     H58738   1.732   9.659   7.489  0.7514  0.4544 -0.4162
  445MOL0     H58739   1.062   8.848   7.023  0.5062  0.0359 -1.2248
  445MOL0     H58740   0.831   8.825   7.018  0.3859  1.0649 -2.7217
  446MOL0     O58741   0.022   9.312   8.429  0.1198  0.6135 -0.7342
  446MOL0     C58742  -0.084   9.279   8.405  0.5408 -0.2612  0.4346
  446MOL0     O58743  -0.195   9.340   8.448 -0.6291  0.0752 -0.3070
  446MOL0     C58744  -0.194   9.470   8.499  0.3450  0.6675 -0.4520
  446MOL0     C58745  -0.276   9.494   8.607  0.7082 -0.1273  0.1437
  446MOL0     C58746  -0.275   9.611   8.677 -0.8587  0.7578 -1.4290
  446MOL0     C58747  -0.191   9.716   8.639  0.0388  0.4622  0.7219
  446MOL0     O58748  -0.194   9.837   8.706  0.0492  0.0919 -0.1604
  446MOL0     C58749  -0.172   9.836   8.849 -0.3557 -0.8332  0.2783
  446MOL0     C58750  -0.141   9.984   8.898  0.0042  0.1519  0.5126
  446MOL0     C58751  -0.263  10.078   8.874 -0.0936  0.3910 -0.3561
  446MOL0     C58752  -0.245  10.220   8.919 -0.7687  0.0561 -0.2612
  446MOL0     C58753  -0.274  10.255   9.065 -1.0439 -0.6865 -1.1349
  446MOL0     C58754  -0.167  10.221   9.161  0.1469 -0.4091 -0.1261
  446MOL0     C58755  -0.192  10.282   9.304  0.0590  0.3845 -0.0078
  446MOL0     C58756  -0.079  10.230   9.407 -0.0941  0.4870  0.0522
  446MOL0     N58757  -0.093  10.299   9.536 -0.0813 -0.2532  0.7428
  446MOL0     C58758  -0.202  10.268   9.611  0.6211  0.3284 -0.6222
  446MOL0     C58759  -0.242  10.381   9.677  0.4876 -0.6757  0.7554
  446MOL0     C58760  -0.364  10.407   9.756  0.3451  0.0976 -0.4543
  446MOL0     C58761  -0.487  10.337   9.701  0.8399 -0.8312 -0.6442
  446MOL0     C58762  -0.524  10.388   9.557  0.1510 -1.3435 -0.1853
  446MOL0     C58763  -0.624  10.302   9.490 -0.1475 -0.5632 -0.1577
  446MOL0     O58764  -0.539  10.200   9.429  0.1225  0.2942  0.0264
  446MOL0     C58765  -0.585  10.111   9.333  0.1969 -0.2319 -0.4225
  446MOL0     C58766  -0.497  10.026   9.263  0.0387 -0.2026 -0.6309
  446MOL0     C58767  -0.523   9.964   9.145 -0.0079 -0.3138  0.3781
  446MOL0     C58768  -0.656   9.975   9.097 -0.9124 -0.2738  0.2272
  446MOL0     C58769  -0.697   9.899   8.977  0.0984 -0.5621 -0.8204
  446MOL0     O58770  -0.622   9.783   8.952 -0.2279 -0.7153 -0.5454
  446MOL0     C58771  -0.628   9.747   8.826  0.0973 -0.0761  0.8719
  446MOL0     C58772  -0.554   9.816   8.730  0.3822 -0.1003  0.4342
  446MOL0     C58773  -0.555   9.786   8.594  0.0642 -0.6917  0.9978
  446MOL0     C58774  -0.639   9.682   8.548  0.5256  1.3651 -0.2922
  446MOL0     O58775  -0.653   9.633   8.419 -0.8148 -0.1817  0.4287
  446MOL0     C58776  -0.586   9.700   8.304  0.3620 -0.4207  0.3103
  446MOL0     C58777  -0.451   9.642   8.301 -0.5254  0.2721  0.7840
  446MOL0     C58778  -0.361   9.672   8.174  0.3158  0.4194 -0.5836
  446MOL0     C58779  -0.340   9.827   8.147  1.1516  0.1446  0.7560
  446MOL0     C58780  -0.245   9.852   8.023  0.3917 -0.1720  0.6916
  446MOL0     C58781  -0.175   9.986   8.029 -0.3056  0.7113  0.2902
  446MOL0     C58782  -0.250  10.099   8.090  0.0406 -0.3858 -0.1705
  446MOL0     C58783  -0.373  10.146   8.008  0.2616  0.0620  0.2405
  446MOL0    Cl58784  -0.315  10.264   7.889  0.1849 -0.3787 -0.0645
  446MOL0     C58785  -0.716   9.609   8.640  0.2292  0.0838  0.3086
  446MOL0     C58786  -0.710   9.651   8.778  0.1675 -1.2856  0.1634
  446MOL0     O58787  -0.797   9.933   8.922 -0.1658  0.2061 -0.1287
  446MOL0     C58788  -0.750  10.047   9.172  0.8340 -0.9931  0.0603
  446MOL0     C58789  -0.717  10.112   9.294  0.3790 -0.2644  0.6147
  446MOL0     N58790  -0.158  10.484   9.630 -0.3750 -0.1633  0.8556
  446MOL0     N58791  -0.067  10.427   9.543  0.5368 -0.8151  0.6026
  446MOL0     C58792  -0.111   9.702   8.525  0.5716 -0.1197 -0.2720
  446MOL0     C58793  -0.118   9.576   8.454 -0.8848 -0.4585 -0.5450
  446MOL0     C58794  -0.087   9.156   8.327  0.5092  0.7366  0.0707
  446MOL0     C58795  -0.201   9.113   8.278  0.3621 -0.2736 -0.1199
  446MOL0     C58796  -0.209   8.986   8.219 -0.9682  0.6877 -1.1106
  446MOL0     C58797  -0.092   8.907   8.191  0.0996  0.2492 -0.2026
  446MOL0     O58798  -0.120   8.790   8.128 -0.4061  0.8076 -0.2029
  446MOL0     C58799  -0.007   8.731   8.046  0.4867 -0.2845 -0.3162
  446MOL0     C58800   0.007   8.789   7.905  0.2198 -0.3761  1.0070
  446MOL0     C58801  -0.096   8.749   7.797  0.0453 -0.4880  0.3454
  446MOL0     C58802  -0.065   8.612   7.732  0.0290  0.1280  0.4470
  446MOL0     C58803  -0.120   8.499   7.805 -1.8882  0.5193 -0.9289
  446MOL0     C58804  -0.168   8.404   7.856  0.3879 -0.3103  0.1928
  446MOL0     C58805   0.028   8.968   8.223 -0.0412 -1.5220  0.7495
  446MOL0     C58806   0.033   9.089   8.304  0.5527  0.6793 -0.2429
  446MOL0     H58807  -0.344   9.413   8.630 -1.2647  0.3292 -3.3323
  446MOL0     H58808  -0.343   9.628   8.760 -2.1293 -1.9955 -1.8163
  446MOL0     H58809  -0.095   9.769   8.888 -1.0891 -0.0045  3.3982
  446MOL0     H58810  -0.270   9.813   8.889 -1.2863  1.8097 -0.2447
  446MOL0     H58811  -0.047  10.008   8.846 -0.2010 -1.9915 -1.0098
  446MOL0     H58812  -0.120   9.984   9.005  0.1740  0.2748  0.4800
  446MOL0     H58813  -0.355  10.039   8.919 -0.1595  1.4854  0.4839
  446MOL0     H58814  -0.284  10.084   8.766 -0.1950  1.1146 -0.2998
  446MOL0     H58815  -0.140  10.237   8.894 -1.1223 -1.1368 -2.8061
  446MOL0     H58816  -0.300  10.292   8.858 -1.1056 -0.0600 -0.0953
  446MOL0     H58817  -0.374  10.214   9.077 -0.2348 -2.7270 -0.9427
  446MOL0     H58818  -0.283  10.363   9.076  0.7932 -0.4544 -1.6050
  446MOL0     H58819  -0.071  10.248   9.116  0.2762  3.3488  1.9626
  446MOL0     H58820  -0.151  10.115   9.183  0.5644 -0.3559 -0.1648
  446MOL0     H58821  -0.207  10.390   9.300 -1.8848  0.1297 -0.5885
  446MOL0     H58822  -0.286  10.247   9.347 -0.9577  2.1761 -0.6966
  446MOL0     H58823   0.016  10.263   9.364  0.1405 -0.3353 -0.0769
  446MOL0     H58824  -0.085  10.122   9.424 -1.4755 -0.2593 -3.9802
  446MOL0     H58825  -0.255  10.173   9.613 -0.9697  1.1778  1.5032
  446MOL0     H58826  -0.388  10.514   9.753 -0.4814 -0.0606 -4.0400
  446MOL0     H58827  -0.352  10.374   9.859 -2.4942 -2.0992 -0.6993
  446MOL0     H58828  -0.573  10.364   9.762  1.7130 -1.9283  1.1585
  446MOL0     H58829  -0.480  10.228   9.710 -0.0531 -0.7629  1.5632
  446MOL0     H58830  -0.571  10.487   9.561  3.1797  0.1714  2.3218
  446MOL0     H58831  -0.432  10.384   9.498  2.5234 -0.6195  3.1824
  446MOL0     H58832  -0.670  10.360   9.410 -0.8311  2.5134  2.2774
  446MOL0     H58833  -0.694  10.259   9.563  2.5279 -0.8329  2.4279
  446MOL0     H58834  -0.394  10.018   9.298 -0.7578 -1.2475  1.6849
  446MOL0     H58835  -0.451   9.896   9.101  3.8764  1.0008  4.0686
  446MOL0     H58836  -0.491   9.897   8.764  3.5889 -2.1379 -0.2267
  446MOL0     H58837  -0.485   9.835   8.528 -1.0939 -0.8483 -0.3904
  446MOL0     H58838  -0.594   9.804   8.337 -0.8854 -0.0256 -1.1434
  446MOL0     H58839  -0.629   9.695   8.203 -0.4633  1.2679  0.5445
  446MOL0     H58840  -0.460   9.533   8.311  0.0999  0.2974  1.8121
  446MOL0     H58841  -0.389   9.677   8.384 -0.3795  1.6258  0.1340
  446MOL0     H58842  -0.414   9.634   8.087 -0.6817 -0.0924  0.2189
  446MOL0     H58843  -0.270   9.613   8.175  2.5117  3.5422 -1.5352
  446MOL0     H58844  -0.433   9.875   8.114  0.9848 -1.5171 -1.4103
  446MOL0     H58845  -0.306   9.868   8.242  2.2202  1.4479 -0.1432
  446MOL0     H58846  -0.307   9.849   7.933 -1.4932 -2.7218  1.9638
  446MOL0     H58847  -0.180   9.765   8.010  0.7151  0.1193  0.3266
  446MOL0     H58848  -0.140  10.012   7.929 -1.3884 -0.9752 -0.5821
  446MOL0     H58849  -0.080   9.979   8.083 -0.8663  0.0603  1.2264
  446MOL0     H58850  -0.272  10.071   8.194 -1.0435 -0.4594 -0.4062
  446MOL0     H58851  -0.181  10.183   8.101 -2.7166  2.2299 -1.5869
  446MOL0     H58852  -0.452  10.186   8.072  2.1703 -1.0930  3.5772
  446MOL0     H58853  -0.414  10.059   7.956  1.8546 -1.4687  1.4517
  446MOL0     H58854  -0.772   9.520   8.612  2.5710 -2.3206  2.6091
  446MOL0     H58855  -0.768   9.593   8.849  0.9891 -2.2596  0.0599
  446MOL0     H58856  -0.855  10.047   9.142  1.0032  4.9762 -1.8425
  446MOL0     H58857  -0.797  10.165   9.346 -0.2179 -0.9668  0.4365
  446MOL0     H58858  -0.036   9.771   8.490  1.0083 -2.5539 -5.0589
  446MOL0     H58859  -0.050   9.559   8.372  0.0207 -3.1060  0.6483
  446MOL0     H58860  -0.295   9.165   8.286  0.1427 -0.3415 -1.8878
  446MOL0     H58861  -0.300   8.930   8.198  1.3148 -2.6439 -2.9963
  446MOL0     H58862  -0.015   8.622   8.035  2.1731 -0.3261 -1.4757
  446MOL0     H58863   0.085   8.738   8.105  0.2974 -0.7366  0.0422
  446MOL0     H58864   0.012   8.894   7.937  3.5949 -0.8338  2.3595
  446MOL0     H58865   0.107   8.766   7.869  0.8391  2.3576  0.7181
  446MOL0     H58866  -0.077   8.811   7.709 -1.3815 -1.4267 -0.6767
  446MOL0     H58867  -0.200   8.768   7.825 -0.7436 -2.3571 -1.0549
  446MOL0     H58868  -0.122   8.610   7.638 -3.8710 -0.1276  2.6075
  446MOL0     H58869   0.042   8.589   7.729 -0.2630 -1.4618  1.1902
  446MOL0     H58870  -0.205   8.327   7.920 -0.8399 -0.2388 -0.4001
  446MOL0     H58871   0.118   8.918   8.188  0.6038  1.0707 -1.6018
  446MOL0     H58872   0.129   9.131   8.333  0.1519  3.7549 -2.8396
  447MOL0     O58873  10.329  11.289   7.909  0.4583  0.7315  0.0249
  447MOL0     C58874  10.391  11.201   7.851  0.0745  0.3003  0.0269
  447MOL0     O58875  10.525  11.168   7.866 -0.2759 -0.3543  0.3467
  447MOL0     C58876  10.612  11.248   7.932 -0.0813 -0.2399  0.5850
  447MOL0     C58877  10.611  11.294   8.065 -0.6806 -0.1233  0.8320
  447MOL0     C58878  10.700  11.381   8.117 -0.5038 -0.4335 -0.8242
  447MOL0     C58879  10.806  11.418   8.039 -0.7827 -0.0944 -0.3491
  447MOL0     O58880  10.898  11.508   8.088  0.1341  0.5979 -0.0713
  447MOL0     C58881  11.034  11.472   8.081  1.1091  0.3223  0.6528
  447MOL0     C58882  11.064  11.367   8.197  0.1998  0.2115  0.3476
  447MOL0     C58883  11.222  11.344   8.213  0.1287  0.0999 -0.2242
  447MOL0     C58884  11.269  11.276   8.085 -0.2676 -0.0909  0.3782
  447MOL0     C58885  11.414  11.230   8.079 -0.9268 -0.4829 -0.3938
  447MOL0     C58886  11.509  11.367   8.086 -0.5694 -0.0876  0.3534
  447MOL0     C58887  11.470  11.491   7.998  0.0445  0.0344  0.0612
  447MOL0     C58888  11.580  11.605   8.009 -0.5894 -0.0403 -0.2466
  447MOL0     N58889  11.575  11.706   8.122 -0.8334  0.5595  0.5482
  447MOL0     C58890  11.481  11.785   8.151 -0.2456  0.4973 -0.1960
  447MOL0     C58891  11.516  11.835   8.270  0.1498 -0.5519  0.1740
  447MOL0     C58892  11.431  11.917   8.353  0.7261  0.3439  0.4802
  447MOL0     C58893  11.457  12.063   8.299  0.5361 -0.0612 -0.7293
  447MOL0     C58894  11.384  12.098   8.171  0.3323  1.0776 -1.0908
  447MOL0     C58895  11.400  12.238   8.142 -0.6420 -0.9335  0.2781
  447MOL0     O58896  11.354  12.327   8.244 -0.0987 -0.0895 -1.1346
  447MOL0     C58897  11.397  12.452   8.247  0.5067  0.1390 -0.1526
  447MOL0     C58898  11.362  12.521   8.368 -0.6614  0.1941 -0.6137
  447MOL0     C58899  11.385  12.662   8.376  0.2025  0.5811  1.4145
  447MOL0     C58900  11.468  12.719   8.285 -0.8898 -0.9121 -0.0727
  447MOL0     C58901  11.503  12.860   8.297 -0.9886 -0.0912  0.3261
  447MOL0     O58902  11.434  12.930   8.392  0.3793 -0.5221  0.2705
  447MOL0     C58903  11.447  13.071   8.397  0.3071  1.0299  0.4689
  447MOL0     C58904  11.452  13.159   8.286 -0.0420  0.8116 -0.4339
  447MOL0     C58905  11.481  13.296   8.299  0.4529  0.5105  0.2094
  447MOL0     C58906  11.508  13.351   8.429 -0.4804  0.8276 -0.8330
  447MOL0     O58907  11.546  13.470   8.440 -0.2285 -0.0012  0.0897
  447MOL0     C58908  11.661  13.487   8.521  0.1740 -0.2660 -0.2758
  447MOL0     C58909  11.723  13.614   8.481 -1.2552 -0.1374 -0.2612
  447MOL0     C58910  11.796  13.691   8.601  0.6873  0.3315 -0.1690
  447MOL0     C58911  11.863  13.803   8.538 -0.4172  0.8115  1.3419
  447MOL0     C58912  11.925  13.899   8.650 -0.6247 -0.6926  0.7068
  447MOL0     C58913  12.029  13.994   8.592  0.8490 -0.6650 -0.8749
  447MOL0     C58914  12.073  14.077   8.709 -0.7058  0.1856 -0.6493
  447MOL0     C58915  12.191  14.173   8.675 -0.0566  0.7475 -0.4075
  447MOL0    Cl58916  12.121  14.306   8.584  0.1918  0.4051  0.3119
  447MOL0     C58917  11.484  13.269   8.538 -0.0158 -0.4712 -0.6002
  447MOL0     C58918  11.453  13.138   8.523  0.3276 -0.0357  0.2567
  447MOL0     O58919  11.582  12.912   8.223  0.2528  0.2834 -0.2872
  447MOL0     C58920  11.511  12.646   8.175 -0.3220 -0.3827 -1.0029
  447MOL0     C58921  11.467  12.521   8.152  0.4709  0.3936  0.1380
  447MOL0     N58922  11.641  11.774   8.313  1.2375  1.1017 -0.1857
  447MOL0     N58923  11.669  11.686   8.216  0.6423  0.7188 -0.9138
  447MOL0     C58924  10.809  11.395   7.903  0.9311 -0.5997 -0.0430
  447MOL0     C58925  10.710  11.312   7.854 -0.6916  1.0369 -0.4099
  447MOL0     C58926  10.327  11.141   7.736 -0.1530 -0.6242  0.2351
  447MOL0     C58927  10.186  11.116   7.737  0.3080 -0.5205 -0.2253
  447MOL0     C58928  10.118  11.066   7.627 -0.2185 -0.6738  0.1706
  447MOL0     C58929  10.180  11.047   7.510 -0.7121  0.1130  1.4134
  447MOL0     O58930  10.099  11.005   7.402 -0.0416  0.5999 -0.8848
  447MOL0     C58931  10.004  11.094   7.351 -0.7552  0.0524  0.1859
  447MOL0     C58932   9.989  11.061   7.201  1.3686 -0.3277 -0.1075
  447MOL0     C58933   9.906  10.935   7.169  1.1734  0.6225 -0.1885
  447MOL0     C58934   9.772  10.944   7.245 -0.3386  0.8310 -0.6518
  447MOL0     C58935   9.693  10.824   7.220 -0.1071  0.4521 -0.3234
  447MOL0     C58936   9.625  10.724   7.199 -0.2677  0.6269 -0.4056
  447MOL0     C58937  10.324  11.073   7.506 -0.7984 -0.2338 -0.2618
  447MOL0     C58938  10.393  11.115   7.620  0.2605  0.9382  0.2294
  447MOL0     H58939  10.528  11.270   8.131  0.8165 -1.1196  2.4393
  447MOL0     H58940  10.701  11.407   8.222  1.2674  0.0560 -0.9219
  447MOL0     H58941  11.093  11.561   8.104 -0.9924  1.9787 -0.0111
  447MOL0     H58942  11.065  11.436   7.983  3.9609  0.1054  1.5579
  447MOL0     H58943  11.012  11.272   8.180 -3.0823  2.2299 -1.9289
  447MOL0     H58944  11.025  11.402   8.293  0.1655  0.0622  0.3881
  447MOL0     H58945  11.241  11.282   8.301  2.4926  2.9349  1.4141
  447MOL0     H58946  11.280  11.435   8.229  0.3998 -0.1729  0.3898
  447MOL0     H58947  11.204  11.191   8.063 -0.4514  0.8630 -3.4437
  447MOL0     H58948  11.259  11.344   8.000 -1.8843 -2.6120 -1.6177
  447MOL0     H58949  11.443  11.193   7.980  0.9350  1.6547 -0.7553
  447MOL0     H58950  11.430  11.169   8.168  2.6688  3.1792  1.8374
  447MOL0     H58951  11.612  11.347   8.056 -0.9936 -1.5719 -0.2004
  447MOL0     H58952  11.509  11.411   8.187  0.2085  0.5237  0.0921
  447MOL0     H58953  11.453  11.464   7.894 -0.5406 -0.3945  0.2617
  447MOL0     H58954  11.376  11.539   8.024 -1.1786 -0.0880 -3.5697
  447MOL0     H58955  11.581  11.652   7.911  2.0769 -4.1059 -2.4274
  447MOL0     H58956  11.683  11.570   8.015 -0.3931  0.7047  1.2179
  447MOL0     H58957  11.384  11.802   8.105 -1.7256 -0.1654  2.4840
  447MOL0     H58958  11.456  11.900   8.458 -1.7106 -0.1290  1.0587
  447MOL0     H58959  11.323  11.900   8.348  1.0099 -1.2816 -1.2756
  447MOL0     H58960  11.564  12.084   8.298  0.1186  2.8840  1.6763
  447MOL0     H58961  11.426  12.119   8.388  1.2359 -0.0933 -0.4636
  447MOL0     H58962  11.421  12.039   8.086 -2.2789 -1.1470 -0.8587
  447MOL0     H58963  11.282  12.057   8.176  0.2023  0.9634 -3.4606
  447MOL0     H58964  11.354  12.257   8.045  1.4529 -1.1097 -0.8008
  447MOL0     H58965  11.506  12.256   8.127 -1.3041  1.4263 -2.5081
  447MOL0     H58966  11.302  12.467   8.441  2.1797  0.5137  2.1904
  447MOL0     H58967  11.347  12.716   8.463  1.4337  1.2703  1.5367
  447MOL0     H58968  11.438  13.119   8.187 -2.8150 -0.7429  0.4870
  447MOL0     H58969  11.496  13.360   8.213 -2.8609  2.6743  1.0427
  447MOL0     H58970  11.739  13.410   8.528  0.6509  0.3475  3.7958
  447MOL0     H58971  11.641  13.500   8.628  0.2663  2.2817 -0.5203
  447MOL0     H58972  11.646  13.678   8.439 -0.8099 -1.2496 -3.0101
  447MOL0     H58973  11.799  13.587   8.407 -1.1749 -0.2784 -0.1280
  447MOL0     H58974  11.864  13.625   8.656 -1.3416 -1.8138 -0.0827
  447MOL0     H58975  11.731  13.734   8.677  0.1499 -1.4904  0.4698
  447MOL0     H58976  11.942  13.763   8.473 -1.2462 -2.0080  1.9401
  447MOL0     H58977  11.796  13.849   8.465  0.7262 -1.3985 -1.2814
  447MOL0     H58978  11.978  13.832   8.719  1.0956 -0.0798  0.0403
  447MOL0     H58979  11.845  13.958   8.695 -1.3122  2.8394 -4.3857
  447MOL0     H58980  11.985  14.052   8.511 -0.8643  1.2309  1.2937
  447MOL0     H58981  12.113  13.934   8.553  0.2656 -2.8328  0.9781
  447MOL0     H58982  11.991  14.147   8.730  0.5476  2.5044 -2.8942
  447MOL0     H58983  12.094  14.013   8.796  1.5367  0.8345 -0.6348
  447MOL0     H58984  12.259  14.111   8.616 -0.7273 -2.1331  1.6401
  447MOL0     H58985  12.239  14.209   8.766 -1.9583 -2.3469  2.0475
  447MOL0     H58986  11.490  13.315   8.636 -1.6999 -1.3324 -0.0565
  447MOL0     H58987  11.446  13.081   8.615  0.3031  0.4404  0.5479
  447MOL0     H58988  11.572  12.693   8.099  3.8770  0.8588  2.6693
  447MOL0     H58989  11.502  12.466   8.065  2.5284  1.1866  0.3923
  447MOL0     H58990  10.882  11.436   7.835 -0.0561  1.5728  0.1051
  447MOL0     H58991  10.709  11.286   7.748 -2.0249 -1.4112  0.1119
  447MOL0     H58992  10.129  11.131   7.828  1.1073 -1.0352  0.3702
  447MOL0     H58993  10.011  11.046   7.636 -0.4144 -1.5286 -2.9204
  447MOL0     H58994  10.050  11.193   7.352  0.9529 -0.6403 -1.8042
  447MOL0     H58995   9.918  11.090   7.419  0.1602  5.1447  2.0433
  447MOL0     H58996   9.935  11.141   7.150  0.7030 -1.0716 -0.6166
  447MOL0     H58997  10.087  11.051   7.154  0.0669 -1.3407 -2.8609
  447MOL0     H58998   9.953  10.842   7.199 -1.1465  0.2727  2.8697
  447MOL0     H58999   9.893  10.921   7.061 -0.9630 -2.2713  0.3200
  447MOL0     H59000   9.785  10.968   7.351  0.9819 -0.0206 -0.5977
  447MOL0     H59001   9.729  11.039   7.211  0.7403  2.6252  2.5614
  447MOL0     H59002   9.552  10.647   7.185 -0.7944  1.1638 -0.7036
  447MOL0     H59003  10.375  11.042   7.415  2.1347 -0.0964  1.2570
  447MOL0     H59004  10.496  11.149   7.606  1.3472 -2.3067 -0.6910
  448MOL0     O59005   8.984   0.190  10.163 -0.6550  0.7216  0.0718
  448MOL0     C59006   8.931   0.181  10.270  0.7800  0.2663 -0.2680
  448MOL0     O59007   8.802   0.219  10.290 -0.9617 -0.2961 -0.2055
  448MOL0     C59008   8.729   0.275  10.194 -0.2584 -0.1537 -0.4232
  448MOL0     C59009   8.760   0.401  10.141 -0.1522  0.6414 -0.7333
  448MOL0     C59010   8.671   0.458  10.050 -1.0338 -0.6480 -0.4989
  448MOL0     C59011   8.559   0.395  10.000  0.0251 -0.0439 -0.3991
  448MOL0     O59012   8.484   0.437   9.888  0.6699  0.3540  0.3005
  448MOL0     C59013   8.510   0.560   9.822 -0.8151 -0.5864  0.5786
  448MOL0     C59014   8.384   0.559   9.726  0.1620  0.0278  0.5899
  448MOL0     C59015   8.392   0.640   9.594 -0.1177 -0.5898  0.4256
  448MOL0     C59016   8.254   0.648   9.530 -0.6358  0.0645 -0.3047
  448MOL0     C59017   8.156   0.761   9.581 -0.3078 -0.0660  0.4390
  448MOL0     C59018   8.203   0.903   9.531 -0.4408 -0.8223  0.5536
  448MOL0     C59019   8.094   1.009   9.511 -0.2854 -1.0686 -0.9472
  448MOL0     C59020   8.018   1.004   9.373  0.5782  0.0815  0.2634
  448MOL0     N59021   8.123   1.023   9.270  0.4639 -0.0128 -0.4237
  448MOL0     C59022   8.175   1.140   9.213  1.1638  0.3326 -1.0737
  448MOL0     C59023   8.242   1.098   9.101  0.4977 -0.1031  0.2006
  448MOL0     C59024   8.322   1.192   9.007 -0.4461 -0.8264 -0.3016
  448MOL0     C59025   8.396   1.301   9.078 -0.7462  0.2420  0.6833
  448MOL0     C59026   8.436   1.422   9.003  0.2007 -1.0441  0.4321
  448MOL0     C59027   8.526   1.509   9.098  0.5269 -0.2484  0.8950
  448MOL0     O59028   8.519   1.646   9.062 -0.0484  0.4785 -0.6289
  448MOL0     C59029   8.425   1.732   9.117 -0.6299 -0.7020 -1.1317
  448MOL0     C59030   8.318   1.690   9.197 -0.1029 -0.2425 -0.7518
  448MOL0     C59031   8.226   1.785   9.235  0.2530  0.2759 -0.0666
  448MOL0     C59032   8.235   1.912   9.181  0.4640  0.2297 -0.3793
  448MOL0     C59033   8.131   2.010   9.196 -0.4566  0.9308  0.0633
  448MOL0     O59034   8.139   2.130   9.137 -0.2731 -0.2151 -0.2376
  448MOL0     C59035   8.034   2.219   9.112  0.2283 -0.8975  0.0986
  448MOL0     C59036   7.897   2.198   9.097  0.4798 -0.3465  0.0185
  448MOL0     C59037   7.810   2.304   9.051 -0.2167  0.6019 -0.8872
  448MOL0     C59038   7.859   2.430   9.030  0.7524 -0.0062  0.1390
  448MOL0     O59039   7.765   2.525   9.003 -0.3170  0.4395  0.7648
  448MOL0     C59040   7.798   2.661   9.049  0.3474 -0.1124  0.0977
  448MOL0     C59041   7.681   2.772   9.021  0.3633  0.2762  0.5466
  448MOL0     C59042   7.562   2.768   9.112  0.2250 -0.2204 -0.3720
  448MOL0     C59043   7.484   2.634   9.110 -0.0558  0.6051  0.4209
  448MOL0     C59044   7.366   2.631   9.202  0.2783  0.3939 -0.6429
  448MOL0     C59045   7.279   2.756   9.203  0.2041 -0.4720  0.3520
  448MOL0     C59046   7.207   2.789   9.070  0.4172 -1.2127  0.9104
  448MOL0     C59047   7.121   2.924   9.083  0.2068 -0.5998 -0.6145
  448MOL0    Cl59048   7.083   3.020   8.940 -0.4190 -0.2917  0.2071
  448MOL0     C59049   7.997   2.453   9.060 -0.0582  0.2037  0.0206
  448MOL0     C59050   8.077   2.355   9.108  0.0415  0.4103 -0.2058
  448MOL0     O59051   8.039   1.989   9.278 -0.3333  0.8239 -0.3935
  448MOL0     C59052   8.346   1.950   9.104  0.1811 -0.6896  0.2035
  448MOL0     C59053   8.438   1.857   9.077 -0.0463 -0.6402  0.7788
  448MOL0     N59054   8.230   0.962   9.086  0.1956  0.4866  0.4875
  448MOL0     N59055   8.165   0.919   9.182 -0.4285  0.0055 -0.0164
  448MOL0     C59056   8.538   0.269  10.055 -0.0407 -0.5722  0.4996
  448MOL0     C59057   8.609   0.207  10.157 -1.1529  0.3576 -0.1891
  448MOL0     C59058   9.001   0.111  10.377 -0.3949 -1.4929 -0.8872
  448MOL0     C59059   8.934   0.085  10.503  0.2643  0.1058 -0.0560
  448MOL0     C59060   9.012   0.056  10.615 -0.1359  0.2981 -0.8592
  448MOL0     C59061   9.143   0.019  10.596 -0.0492  0.5133  0.3179
  448MOL0     O59062   9.217  -0.023  10.710 -0.1986  0.1446 -0.2797
  448MOL0     C59063   9.282  -0.148  10.696  0.2651  0.4943  0.0315
  448MOL0     C59064   9.182  -0.273  10.707 -0.0199  0.0612 -0.0616
  448MOL0     C59065   9.241  -0.394  10.789 -0.1383  0.2905  1.1263
  448MOL0     C59066   9.169  -0.519  10.786  0.4763  0.0248  0.2984
  448MOL0     C59067   9.128  -0.578  10.656  0.5471 -0.8217 -1.2526
  448MOL0     C59068   9.093  -0.626  10.556 -0.2251  1.3412 -0.8158
  448MOL0     C59069   9.207   0.037  10.479 -0.2058  0.1568 -0.2497
  448MOL0     C59070   9.135   0.074  10.366 -0.0124 -0.3230  0.1255
  448MOL0     H59071   8.841   0.445  10.198 -1.4694 -0.1244  1.8623
  448MOL0     H59072   8.701   0.559  10.022  3.0152 -1.3781  0.5216
  448MOL0     H59073   8.608   0.558   9.773 -0.2477  1.4198  1.4949
  448MOL0     H59074   8.498   0.646   9.889 -0.9719 -0.9187  0.9845
  448MOL0     H59075   8.297   0.597   9.781 -0.7290  2.6636 -2.3408
  448MOL0     H59076   8.367   0.457   9.692  0.5935  0.3721 -0.7296
  448MOL0     H59077   8.474   0.602   9.532  3.1446  5.8371 -0.1060
  448MOL0     H59078   8.421   0.744   9.615 -0.1158 -0.8000  1.5147
  448MOL0     H59079   8.268   0.664   9.423  0.2901 -2.3240 -0.6128
  448MOL0     H59080   8.205   0.550   9.529  1.0276 -0.8171 -1.2962
  448MOL0     H59081   8.140   0.761   9.689 -0.0297 -0.7779  0.4832
  448MOL0     H59082   8.063   0.732   9.531 -1.2173  0.4108  1.7820
  448MOL0     H59083   8.255   0.891   9.436 -0.3942 -1.7975  0.6901
  448MOL0     H59084   8.275   0.940   9.604 -0.2001 -1.6286  0.7401
  448MOL0     H59085   8.008   0.984   9.573  2.4771  0.0687  3.8236
  448MOL0     H59086   8.129   1.112   9.524  0.8547 -1.6668  1.1571
  448MOL0     H59087   7.939   1.079   9.363  2.0712  1.6377 -0.3015
  448MOL0     H59088   7.977   0.905   9.352  1.1051  0.0644 -0.7296
  448MOL0     H59089   8.162   1.241   9.252 -0.7215 -0.4127  0.4117
  448MOL0     H59090   8.254   1.237   8.933  1.6566  0.3001 -1.6617
  448MOL0     H59091   8.395   1.134   8.950  1.3521  1.6406 -0.6978
  448MOL0     H59092   8.493   1.261   9.112  0.7185  2.3533 -0.7334
  448MOL0     H59093   8.337   1.324   9.168 -0.9156 -0.5428  0.7844
  448MOL0     H59094   8.494   1.383   8.919 -2.8707 -2.4783 -1.1702
  448MOL0     H59095   8.349   1.481   8.976  0.8661  1.1047  2.6052
  448MOL0     H59096   8.629   1.482   9.074  0.0630 -0.6120 -0.8110
  448MOL0     H59097   8.509   1.477   9.201  1.6168 -3.7744  0.1248
  448MOL0     H59098   8.300   1.586   9.221  0.3214 -0.3326 -0.8015
  448MOL0     H59099   8.146   1.759   9.302  1.0981 -1.0765  0.4686
  448MOL0     H59100   7.848   2.102   9.113  0.1911 -0.4320 -1.2417
  448MOL0     H59101   7.706   2.275   9.044 -0.3842 -0.8064  3.6598
  448MOL0     H59102   7.897   2.692   9.014  3.3468 -5.5946  2.4315
  448MOL0     H59103   7.806   2.657   9.158 -3.3773  1.8790  0.6235
  448MOL0     H59104   7.636   2.755   8.923 -3.5130 -2.0582  2.4603
  448MOL0     H59105   7.717   2.875   9.017  3.3755 -0.7210 -0.8288
  448MOL0     H59106   7.503   2.857   9.088  1.4052  0.6643 -0.0553
  448MOL0     H59107   7.585   2.779   9.218  2.0667 -2.3981 -0.4853
  448MOL0     H59108   7.445   2.609   9.011  1.6529 -3.5597  0.5654
  448MOL0     H59109   7.551   2.555   9.147  0.8208  2.4493  3.0416
  448MOL0     H59110   7.406   2.617   9.303  1.5683 -0.3936 -1.2358
  448MOL0     H59111   7.289   2.555   9.185 -5.0245  3.7735  4.3020
  448MOL0     H59112   7.342   2.841   9.232 -2.2317  1.0964  1.3914
  448MOL0     H59113   7.199   2.748   9.278  1.2130  1.6843  1.7641
  448MOL0     H59114   7.277   2.807   8.987 -0.9223  0.1520  0.0209
  448MOL0     H59115   7.144   2.708   9.031  2.1100 -3.1099  1.9556
  448MOL0     H59116   7.167   3.002   9.145 -3.2659 -0.9664  2.8719
  448MOL0     H59117   7.030   2.909   9.142 -0.7669  5.0540 -0.1340
  448MOL0     H59118   8.030   2.556   9.052  1.0057  0.1975  3.1437
  448MOL0     H59119   8.182   2.376   9.125  0.5438 -2.4065  0.7872
  448MOL0     H59120   8.371   2.051   9.073 -1.4500 -0.7743 -1.5556
  448MOL0     H59121   8.524   1.885   9.017 -0.9738  0.2450 -0.1614
  448MOL0     H59122   8.454   0.218  10.008 -2.7455  3.0988  0.9119
  448MOL0     H59123   8.593   0.107  10.197 -0.1529  0.5267  0.6574
  448MOL0     H59124   8.829   0.109  10.517  0.7703  0.6935  3.8100
  448MOL0     H59125   8.979   0.045  10.717  1.9308 -0.1821 -0.2035
  448MOL0     H59126   9.361  -0.164  10.769  1.5199  2.3426 -0.8595
  448MOL0     H59127   9.331  -0.153  10.598 -0.0036 -1.0175 -0.0514
  448MOL0     H59128   9.110  -0.227  10.775 -2.3514 -1.6629 -1.2448
  448MOL0     H59129   9.127  -0.298  10.616 -1.6975 -1.4328  1.2706
  448MOL0     H59130   9.257  -0.366  10.894  3.6124 -3.0125  1.7044
  448MOL0     H59131   9.343  -0.415  10.755 -0.8455 -0.8864 -0.4183
  448MOL0     H59132   9.239  -0.582  10.842  0.8409 -1.1497 -1.4011
  448MOL0     H59133   9.087  -0.524  10.859  1.7742 -3.0016  1.7137
  448MOL0     H59134   9.069  -0.672  10.462 -0.7615  0.0500 -0.0705
  448MOL0     H59135   9.313   0.025  10.462 -0.0421  2.1142 -0.8055
  448MOL0     H59136   9.189   0.083  10.272  1.4248  3.6047  1.1220
  449MOL0     O59137   7.612   2.138   9.935  0.0999 -0.8562 -0.3121
  449MOL0     C59138   7.735   2.164   9.925  0.9522  0.5140  0.0032
  449MOL0     O59139   7.800   2.289   9.912  0.3369  0.6748  0.4661
  449MOL0     C59140   7.733   2.414   9.908 -0.2947 -0.1573  0.6569
  449MOL0     C59141   7.598   2.441   9.912  0.6251 -1.0262 -0.4088
  449MOL0     C59142   7.554   2.575   9.916  0.6111 -0.2654  0.2500
  449MOL0     C59143   7.651   2.683   9.894 -0.9640 -0.0002 -0.0096
  449MOL0     O59144   7.606   2.810   9.885  0.1643 -0.4617  0.5032
  449MOL0     C59145   7.698   2.909   9.840  0.2833 -0.7345 -0.9327
  449MOL0     C59146   7.614   3.033   9.782 -0.2644 -0.7454  0.9193
  449MOL0     C59147   7.699   3.139   9.700 -0.8327  0.6553 -0.7275
  449MOL0     C59148   7.620   3.265   9.663 -0.3956  0.9136 -0.6752
  449MOL0     C59149   7.586   3.358   9.777 -0.0485 -0.6586  0.3420
  449MOL0     C59150   7.686   3.377   9.890 -1.0322 -0.2128 -0.7912
  449MOL0     C59151   7.818   3.447   9.836 -0.2969 -0.1637 -1.6458
  449MOL0     C59152   7.927   3.425   9.948  0.1931  0.1273  0.1583
  449MOL0     N59153   7.965   3.278   9.969  0.2130  0.1565 -0.6296
  449MOL0     C59154   8.036   3.200   9.881  0.0112 -0.2462  0.4260
  449MOL0     C59155   8.042   3.078   9.931 -0.9845 -0.4764  0.1952
  449MOL0     C59156   8.110   2.956   9.882 -0.6841 -0.5433  0.0393
  449MOL0     C59157   8.229   2.918   9.976 -0.7071 -0.1660 -0.5981
  449MOL0     C59158   8.349   3.017   9.948  0.2231 -0.2287  0.4523
  449MOL0     C59159   8.471   2.984  10.019  0.5327 -0.8366  0.0823
  449MOL0     O59160   8.451   2.957  10.163 -0.3466 -0.4120  0.2588
  449MOL0     C59161   8.561   2.886  10.211  0.7551 -0.7756  0.7518
  449MOL0     C59162   8.546   2.791  10.314 -0.0885 -0.8591 -0.3830
  449MOL0     C59163   8.640   2.714  10.367 -0.3844 -0.0366  0.4953
  449MOL0     C59164   8.771   2.728  10.328 -0.5641 -0.6730  1.2135
  449MOL0     C59165   8.886   2.636  10.366 -0.2547  0.3049 -0.5159
  449MOL0     O59166   9.022   2.659  10.349  0.1486 -0.5296  0.0499
  449MOL0     C59167   9.103   2.546  10.368 -0.0852 -0.1656 -0.6919
  449MOL0     C59168   9.159   2.516  10.502  0.4932  0.2801  0.3876
  449MOL0     C59169   9.226   2.393  10.524  0.1198  0.3583 -0.0505
  449MOL0     C59170   9.256   2.303  10.417  0.3030  0.6932 -0.3300
  449MOL0     O59171   9.347   2.203  10.432  0.1973 -0.1080  0.1666
  449MOL0     C59172   9.372   2.150  10.565 -0.1439 -0.2223 -1.0357
  449MOL0     C59173   9.472   2.034  10.560 -0.0642  0.0674 -1.2944
  449MOL0     C59174   9.609   2.077  10.499  0.1276 -0.6091  0.6346
  449MOL0     C59175   9.716   1.973  10.517 -0.0280  0.3875  0.2685
  449MOL0     C59176   9.844   2.021  10.489 -1.5217  0.7339  0.3652
  449MOL0     C59177   9.955   1.916  10.502  0.4727  0.3595  0.2811
  449MOL0     C59178  10.094   1.966  10.493  0.6293  0.2486  1.1366
  449MOL0     C59179  10.193   1.845  10.469 -0.0196  0.2013  0.0330
  449MOL0    Cl59180  10.206   1.778  10.307  0.4338 -0.2136 -0.1524
  449MOL0     C59181   9.217   2.336  10.292  0.3920  1.1440 -0.4840
  449MOL0     C59182   9.155   2.462  10.266 -0.3828  0.1609 -0.2130
  449MOL0     O59183   8.839   2.528  10.403 -0.2881  1.1613 -0.0545
  449MOL0     C59184   8.807   2.823  10.224 -0.2195  0.8162  0.1222
  449MOL0     C59185   8.699   2.903  10.170  0.7408  1.3308 -0.3643
  449MOL0     N59186   7.961   3.075  10.050  1.2232  0.2227  0.9234
  449MOL0     N59187   7.917   3.192  10.069 -0.7137  0.1424  0.1578
  449MOL0     C59188   7.785   2.646   9.896  0.3756 -0.2947 -0.3598
  449MOL0     C59189   7.825   2.518   9.904  0.0237 -0.7514 -0.8873
  449MOL0     C59190   7.821   2.042   9.922 -0.3083  0.2878 -0.1870
  449MOL0     C59191   7.954   2.043   9.879  0.2781 -0.5093  0.1273
  449MOL0     C59192   8.027   1.922   9.888 -0.0181 -0.1307  0.6752
  449MOL0     C59193   7.987   1.809   9.948  0.5134 -0.9640 -0.9652
  449MOL0     O59194   8.087   1.716   9.965  0.2534 -0.2295  0.7331
  449MOL0     C59195   8.054   1.587  10.024  1.2014 -0.2980  0.2330
  449MOL0     C59196   8.159   1.481  10.034 -0.2644  0.0955  0.5457
  449MOL0     C59197   8.280   1.553  10.109 -1.2418  0.1826 -0.0086
  449MOL0     C59198   8.423   1.483  10.084 -0.9046 -0.5924 -0.9437
  449MOL0     C59199   8.422   1.351  10.148  0.3856 -0.7204 -0.6385
  449MOL0     C59200   8.404   1.241  10.201 -0.2309  0.0295 -0.8523
  449MOL0     C59201   7.849   1.795   9.980  0.1347  0.2018 -0.8682
  449MOL0     C59202   7.765   1.912   9.966 -0.3232  0.4172 -0.4961
  449MOL0     H59203   7.530   2.359   9.930 -0.1214 -0.4636 -0.6186
  449MOL0     H59204   7.451   2.604   9.935  0.8395 -0.3342  1.7190
  449MOL0     H59205   7.772   2.877   9.766  2.4595 -2.1266  1.6876
  449MOL0     H59206   7.762   2.936   9.924  0.0943 -0.9661 -0.7149
  449MOL0     H59207   7.569   3.083   9.868 -0.3004  2.5402 -0.8724
  449MOL0     H59208   7.531   3.005   9.716  2.7470 -0.9188 -3.2583
  449MOL0     H59209   7.724   3.089   9.606 -3.7726 -0.6107 -0.9204
  449MOL0     H59210   7.788   3.155   9.762 -1.2380 -5.3957  2.1315
  449MOL0     H59211   7.682   3.323   9.594 -1.7292  2.4584 -0.6099
  449MOL0     H59212   7.530   3.237   9.608 -0.4214 -0.3402 -0.0323
  449MOL0     H59213   7.488   3.325   9.812  0.5527 -1.7523  1.0397
  449MOL0     H59214   7.570   3.459   9.736  0.4725 -1.1082 -1.0296
  449MOL0     H59215   7.711   3.277   9.926 -0.1483  0.6291  1.0677
  449MOL0     H59216   7.649   3.437   9.974  0.5916  0.1777 -0.3299
  449MOL0     H59217   7.856   3.407   9.742  0.9360  1.9036 -2.1049
  449MOL0     H59218   7.809   3.556   9.833  1.8548  0.0664 -1.1742
  449MOL0     H59219   7.893   3.476  10.038 -2.1699  2.1089 -1.7084
  449MOL0     H59220   8.015   3.481   9.913 -0.1023  0.7401  0.3859
  449MOL0     H59221   8.093   3.229   9.793  2.0204  1.2933  2.1650
  449MOL0     H59222   8.155   2.980   9.785  0.9495  0.3330  0.9670
  449MOL0     H59223   8.036   2.877   9.868 -1.3712  0.4126 -2.2526
  449MOL0     H59224   8.256   2.816   9.949 -0.2695  0.3836 -2.4435
  449MOL0     H59225   8.204   2.928  10.082  0.1991 -0.1732 -0.3731
  449MOL0     H59226   8.364   3.021   9.840  0.0550  3.1067  0.4544
  449MOL0     H59227   8.320   3.118   9.978  0.2801  1.0007 -3.1771
  449MOL0     H59228   8.538   3.071  10.018  0.6983 -0.7994  3.0709
  449MOL0     H59229   8.505   2.891   9.974 -0.9608 -0.7440 -1.3072
  449MOL0     H59230   8.442   2.787  10.345 -0.3873  4.3206  0.1998
  449MOL0     H59231   8.628   2.632  10.437 -0.9024  0.6470  1.2149
  449MOL0     H59232   9.123   2.576  10.585 -2.2077  0.9391 -1.1552
  449MOL0     H59233   9.257   2.385  10.628 -0.9095  5.5407  0.9653
  449MOL0     H59234   9.280   2.114  10.613  1.2903 -1.4970  0.9224
  449MOL0     H59235   9.432   2.220  10.623  3.4738 -2.5956 -1.5714
  449MOL0     H59236   9.433   1.954  10.497  1.7596 -0.9445 -1.2083
  449MOL0     H59237   9.491   1.985  10.656 -2.6840  1.6378  0.1553
  449MOL0     H59238   9.643   2.161  10.560  0.1035 -1.4583  1.8592
  449MOL0     H59239   9.592   2.095  10.392 -0.4083  0.5910  0.9002
  449MOL0     H59240   9.717   1.941  10.621 -0.1318 -0.7033 -0.0570
  449MOL0     H59241   9.694   1.889  10.450 -3.7858  0.9185  0.6340
  449MOL0     H59242   9.871   2.094  10.566  0.4276 -0.3001  0.7348
  449MOL0     H59243   9.841   2.067  10.390  0.7117  0.9056  0.3299
  449MOL0     H59244   9.934   1.843  10.424  2.2686  0.7910 -0.6598
  449MOL0     H59245   9.942   1.860  10.595 -3.5635 -0.0956 -0.3544
  449MOL0     H59246  10.109   2.037  10.411  1.9989  0.7135  1.7475
  449MOL0     H59247  10.128   2.025  10.579  3.1559  0.0809  0.3430
  449MOL0     H59248  10.164   1.755  10.524 -2.1951  1.0175  0.3057
  449MOL0     H59249  10.292   1.888  10.488  1.3318 -2.2532 -0.9683
  449MOL0     H59250   9.249   2.282  10.203  0.1303  2.2757 -1.2855
  449MOL0     H59251   9.141   2.492  10.162 -1.1076 -0.5138 -0.3195
  449MOL0     H59252   8.898   2.835  10.167 -1.8146 -0.2802 -2.8282
  449MOL0     H59253   8.724   2.987  10.106 -2.3248  0.6602 -2.6069
  449MOL0     H59254   7.858   2.727   9.892  0.1297  0.2410  2.9261
  449MOL0     H59255   7.931   2.494   9.904  0.0421 -0.6978 -0.0425
  449MOL0     H59256   8.007   2.132   9.850 -1.5735  1.0510  1.2740
  449MOL0     H59257   8.126   1.939   9.846 -1.3248 -0.7150 -3.0053
  449MOL0     H59258   7.969   1.537   9.977  2.4743 -1.8101 -0.5572
  449MOL0     H59259   8.007   1.601  10.122  0.9085  1.0998 -0.0884
  449MOL0     H59260   8.121   1.398  10.094  0.6666 -1.4640 -0.9472
  449MOL0     H59261   8.184   1.447   9.933  2.8278  2.2582  0.4330
  449MOL0     H59262   8.263   1.564  10.217  1.2565  3.0969  0.2123
  449MOL0     H59263   8.290   1.659  10.084 -3.1838  0.8114  1.5429
  449MOL0     H59264   8.444   1.471   9.977 -2.0544  0.3828 -1.2957
  449MOL0     H59265   8.495   1.551  10.130 -1.4643 -1.5905  1.5568
  449MOL0     H59266   8.383   1.145  10.243  2.4721 -0.1369  0.3062
  449MOL0     H59267   7.810   1.703  10.023  1.5086 -1.0468 -2.1769
  449MOL0     H59268   7.660   1.913   9.994  0.0107  0.9961  0.8492
  450MOL0     O59269   0.158   1.052   9.489 -0.2322  0.5320  0.3103
  450MOL0     C59270   0.159   1.175   9.492  0.2304  0.6258  0.2012
  450MOL0     O59271   0.248   1.254   9.566  0.2105 -0.0665  0.4571
  450MOL0     C59272   0.354   1.197   9.624  0.2283 -0.2474 -0.3561
  450MOL0     C59273   0.371   1.226   9.759  0.2733  0.4619 -0.3734
  450MOL0     C59274   0.476   1.171   9.822 -0.2273  0.3052 -0.2048
  450MOL0     C59275   0.580   1.095   9.758 -0.5299 -1.1456  0.1744
  450MOL0     O59276   0.694   1.061   9.821 -0.1289  0.6291  0.5942
  450MOL0     C59277   0.682   0.996   9.945  0.1637  0.5447  0.3188
  450MOL0     C59278   0.817   0.921   9.982 -0.4791 -0.1911 -0.4623
  450MOL0     C59279   0.842   0.887  10.127 -0.2831 -0.4851  0.6376
  450MOL0     C59280   0.989   0.861  10.159 -0.2590 -0.9738 -0.1051
  450MOL0     C59281   1.006   0.815  10.305  0.1180  0.0829 -0.4448
  450MOL0     C59282   1.153   0.785  10.327  0.1324  0.4198 -0.2787
  450MOL0     C59283   1.189   0.748  10.474 -0.6472 -0.4139 -0.2063
  450MOL0     C59284   1.103   0.648  10.552  0.0433  0.3726  0.2614
  450MOL0     N59285   1.122   0.508  10.506  1.2943  0.0438  0.6085
  450MOL0     C59286   1.036   0.423  10.444 -0.0347 -0.9015  0.4559
  450MOL0     C59287   1.104   0.316  10.419 -0.6480 -0.4090 -0.1268
  450MOL0     C59288   1.069   0.194  10.349  0.3290  0.1616 -0.9284
  450MOL0     C59289   1.054   0.224  10.205  0.4097 -0.2934  0.7629
  450MOL0     C59290   1.183   0.275  10.141  1.1023 -0.1125  0.5115
  450MOL0     C59291   1.168   0.289   9.997 -1.1430  0.0336  1.1290
  450MOL0     O59292   1.288   0.363   9.956 -1.1927 -0.0980  1.2807
  450MOL0     C59293   1.401   0.294   9.935 -0.8035  0.9404  0.3656
  450MOL0     C59294   1.422   0.155   9.966 -0.8901  0.0373  0.0037
  450MOL0     C59295   1.537   0.090   9.928 -0.7680  0.7047  0.2115
  450MOL0     C59296   1.640   0.157   9.859 -0.9223 -0.6701  0.3214
  450MOL0     C59297   1.746   0.068   9.803 -0.2317 -0.1678 -0.6754
  450MOL0     O59298   1.750  -0.057   9.850 -0.0957 -0.2591 -0.7800
  450MOL0     C59299   1.840  -0.141   9.785  0.6506  0.3099 -0.6452
  450MOL0     C59300   1.833  -0.156   9.649 -0.2371 -0.6199  0.1133
  450MOL0     C59301   1.929  -0.239   9.588 -0.1923  1.2161  0.6421
  450MOL0     C59302   2.025  -0.308   9.658 -0.3567  0.0786  0.0308
  450MOL0     O59303   2.117  -0.391   9.602 -0.2594 -0.2588  0.9093
  450MOL0     C59304   2.170  -0.360   9.465  0.0005 -1.1693 -0.7851
  450MOL0     C59305   2.317  -0.397   9.461 -0.6169  0.6565 -0.9427
  450MOL0     C59306   2.405  -0.303   9.551 -0.0905 -0.1755  0.7478
  450MOL0     C59307   2.555  -0.342   9.543  0.0916 -0.5155  0.8863
  450MOL0     C59308   2.631  -0.277   9.658  0.7330  0.4707 -0.3909
  450MOL0     C59309   2.779  -0.293   9.637  0.0686 -0.4161  1.2871
  450MOL0     C59310   2.862  -0.207   9.733 -0.2478  0.1571 -0.1971
  450MOL0     C59311   3.020  -0.238   9.749 -0.0319  0.0236  0.4006
  450MOL0    Cl59312   3.015  -0.388   9.849  0.0557 -0.1095  0.2500
  450MOL0     C59313   2.028  -0.287   9.791 -0.0506 -0.1436 -0.4029
  450MOL0     C59314   1.932  -0.205   9.860  0.3627 -0.4917  0.6819
  450MOL0     O59315   1.825   0.119   9.725  0.3164  0.8083  0.1462
  450MOL0     C59316   1.630   0.300   9.847 -1.2275  0.0966  0.6731
  450MOL0     C59317   1.516   0.366   9.883 -0.3233  0.0317  0.3953
  450MOL0     N59318   1.235   0.326  10.464 -0.0493 -0.2310  0.2470
  450MOL0     N59319   1.236   0.444  10.521  0.4039  0.4553 -0.3160
  450MOL0     C59320   0.562   1.070   9.622  0.5779 -0.7118 -0.8330
  450MOL0     C59321   0.447   1.118   9.549  0.9743  1.3117 -0.6517
  450MOL0     C59322   0.060   1.246   9.406  0.6168 -0.0668  1.4987
  450MOL0     C59323   0.028   1.376   9.432 -0.0931  0.1236  0.2043
  450MOL0     C59324  -0.079   1.425   9.352  0.1337 -0.2505 -0.0118
  450MOL0     C59325  -0.143   1.355   9.248 -0.0105  0.4723 -0.2362
  450MOL0     O59326  -0.220   1.436   9.164  0.0655  0.6292  0.0294
  450MOL0     C59327  -0.275   1.395   9.041 -0.3955  0.0627  1.1808
  450MOL0     C59328  -0.265   1.505   8.933 -0.1027 -0.0162  0.7164
  450MOL0     C59329  -0.346   1.639   8.967 -0.6000  0.0378 -0.6856
  450MOL0     C59330  -0.280   1.720   9.083 -0.3163 -0.4872  0.1547
  450MOL0     C59331  -0.330   1.855   9.084  0.8291  0.0848  0.3603
  450MOL0     C59332  -0.360   1.974   9.072 -1.0643 -0.1272  0.1687
  450MOL0     C59333  -0.097   1.232   9.216 -0.0900  0.3865 -0.3859
  450MOL0     C59334   0.009   1.171   9.288 -0.2825 -0.3961 -0.1994
  450MOL0     H59335   0.300   1.296   9.802  0.5597 -0.4631  1.6937
  450MOL0     H59336   0.480   1.186   9.930 -3.0020 -0.3156  0.0526
  450MOL0     H59337   0.596   0.930   9.930  0.6188 -0.2441  1.0736
  450MOL0     H59338   0.652   1.074  10.015  2.4433  1.7665  0.0281
  450MOL0     H59339   0.894   0.995   9.959 -0.2247  0.5018  2.2145
  450MOL0     H59340   0.821   0.826   9.928 -0.6386 -2.8551  3.7480
  450MOL0     H59341   0.789   0.794  10.147  1.6234 -1.4181  1.5695
  450MOL0     H59342   0.804   0.967  10.192  0.8442  0.9119 -0.3681
  450MOL0     H59343   1.043   0.804  10.083 -1.1595 -0.9581 -0.7614
  450MOL0     H59344   1.046   0.955  10.155 -1.2743 -0.3839 -1.0574
  450MOL0     H59345   0.952   0.722  10.325 -0.7823  0.9249  1.2158
  450MOL0     H59346   0.975   0.888  10.380  1.0247 -0.1113  0.1269
  450MOL0     H59347   1.213   0.874  10.308 -2.1084  1.9066 -0.8337
  450MOL0     H59348   1.187   0.700  10.266 -1.1009 -0.9682  0.8911
  450MOL0     H59349   1.290   0.706  10.475 -0.9748 -1.3235 -1.8033
  450MOL0     H59350   1.212   0.838  10.532 -1.8694 -0.4830  0.4301
  450MOL0     H59351   0.999   0.676  10.533 -1.1716 -1.8444  2.9204
  450MOL0     H59352   1.131   0.662  10.656  0.3353 -2.2269  0.5984
  450MOL0     H59353   0.936   0.424  10.401  1.1549 -2.9649 -2.7645
  450MOL0     H59354   0.979   0.149  10.392  0.4213  0.1922 -0.7002
  450MOL0     H59355   1.148   0.119  10.360 -0.5064 -0.6080 -0.0116
  450MOL0     H59356   0.968   0.290  10.190  0.1273 -0.9406 -0.7091
  450MOL0     H59357   1.032   0.129  10.154  0.6107  0.4496 -0.7652
  450MOL0     H59358   1.204   0.372  10.185 -0.8934  1.1983 -1.2099
  450MOL0     H59359   1.267   0.208  10.158  1.1397  0.2102  1.6365
  450MOL0     H59360   1.078   0.350   9.984 -1.0348  0.2698  1.4809
  450MOL0     H59361   1.164   0.190   9.951  3.9993  0.4020 -0.6897
  450MOL0     H59362   1.350   0.095  10.020  0.2576 -1.2618  0.1658
  450MOL0     H59363   1.546  -0.017   9.945 -1.6071  0.2627 -1.8312
  450MOL0     H59364   1.763  -0.097   9.591 -1.4882  0.9850  3.0643
  450MOL0     H59365   1.934  -0.238   9.479  0.9484  1.3723  0.6856
  450MOL0     H59366   2.153  -0.253   9.444  0.4033 -0.3586  2.4201
  450MOL0     H59367   2.115  -0.410   9.385  2.2733 -1.1742 -2.4229
  450MOL0     H59368   2.350  -0.401   9.357  2.6020  2.3477 -0.1172
  450MOL0     H59369   2.332  -0.493   9.512  0.8416  1.3339 -0.0138
  450MOL0     H59370   2.378  -0.308   9.657 -0.7480  2.1285  0.7362
  450MOL0     H59371   2.376  -0.205   9.513 -2.1606 -0.3452  1.7088
  450MOL0     H59372   2.577  -0.449   9.549  1.2319 -0.5344 -2.1672
  450MOL0     H59373   2.585  -0.304   9.445 -0.8168  1.3198  1.2754
  450MOL0     H59374   2.603  -0.327   9.750  5.3623 -1.1535  0.3783
  450MOL0     H59375   2.610  -0.170   9.653  3.1300  0.9605 -2.4424
  450MOL0     H59376   2.792  -0.243   9.541  3.8119 -1.5631  1.0524
  450MOL0     H59377   2.807  -0.398   9.645 -2.0063 -0.8636  4.3484
  450MOL0     H59378   2.857  -0.101   9.707  1.4377  0.6079  1.0759
  450MOL0     H59379   2.827  -0.218   9.836  1.4464 -2.8876  0.1982
  450MOL0     H59380   3.071  -0.152   9.793  0.6731 -0.7978  1.2217
  450MOL0     H59381   3.060  -0.259   9.650  2.5590  0.0428  1.3664
  450MOL0     H59382   2.090  -0.354   9.850 -2.2490 -3.4152 -1.5025
  450MOL0     H59383   1.923  -0.192   9.968  1.5547 -0.7008  0.8205
  450MOL0     H59384   1.712   0.349   9.796 -2.4300  2.1605  0.5902
  450MOL0     H59385   1.519   0.471   9.857 -2.7360  1.6585  5.3576
  450MOL0     H59386   0.639   1.024   9.562  1.5037 -0.9765  0.5254
  450MOL0     H59387   0.429   1.090   9.446  0.7337 -0.6041 -0.1223
  450MOL0     H59388   0.071   1.439   9.509 -1.9122 -2.2124  3.3640
  450MOL0     H59389  -0.114   1.528   9.360  1.6010  0.2548  0.1625
  450MOL0     H59390  -0.376   1.352   9.048 -0.3053 -0.2386  0.7340
  450MOL0     H59391  -0.231   1.300   9.007 -0.4397 -0.6725  3.0709
  450MOL0     H59392  -0.159   1.524   8.915  0.1503 -0.2391  1.8948
  450MOL0     H59393  -0.308   1.459   8.844 -0.1341 -2.4046  1.8791
  450MOL0     H59394  -0.444   1.604   9.003 -0.2188  0.0777  0.4177
  450MOL0     H59395  -0.345   1.696   8.874  1.2871  1.7088  0.2714
  450MOL0     H59396  -0.291   1.673   9.181 -1.0839 -0.2887  0.1677
  450MOL0     H59397  -0.174   1.744   9.064 -1.3632  4.0576 -1.2300
  450MOL0     H59398  -0.387   2.078   9.062  1.7113  0.6383 -0.3241
  450MOL0     H59399  -0.113   1.179   9.122  0.4858  0.8148 -0.7311
  450MOL0     H59400   0.036   1.067   9.273 -2.0979 -0.9249 -0.0545
  451MOL0     O59401   5.800   6.167  11.317  0.3891 -0.4227  0.5035
  451MOL0     C59402   5.863   6.176  11.423 -1.7036 -0.5291 -1.0467
  451MOL0     O59403   5.939   6.281  11.458 -0.5250 -0.4005 -0.1977
  451MOL0     C59404   5.938   6.389  11.378 -0.0875  0.0133 -0.3978
  451MOL0     C59405   5.850   6.498  11.382  1.1512  0.4012 -0.3853
  451MOL0     C59406   5.864   6.602  11.295 -0.0236  0.2827  0.2033
  451MOL0     C59407   5.960   6.599  11.194 -0.9556 -0.4254 -0.5126
  451MOL0     O59408   5.987   6.690  11.092 -0.0620  0.5643  0.3924
  451MOL0     C59409   5.876   6.761  11.025  0.1787  0.1341  0.2755
  451MOL0     C59410   5.914   6.774  10.882 -0.0713  0.3879 -0.9579
  451MOL0     C59411   5.887   6.646  10.800  0.8939  0.2733 -0.6325
  451MOL0     C59412   5.992   6.615  10.697 -0.2804  0.4785 -0.3138
  451MOL0     C59413   5.927   6.521  10.591 -0.0786  0.5555  0.5374
  451MOL0     C59414   5.906   6.376  10.637 -0.0753 -1.2122 -0.0340
  451MOL0     C59415   5.837   6.288  10.523  0.2154  0.4088  0.5708
  451MOL0     C59416   5.944   6.244  10.417  0.3521 -0.4745 -1.0076
  451MOL0     N59417   5.892   6.137  10.331  0.4569 -0.9949 -0.5274
  451MOL0     C59418   5.759   6.129  10.282 -0.0600 -0.3308  0.0422
  451MOL0     C59419   5.768   6.040  10.181  0.0085 -0.6069 -0.2348
  451MOL0     C59420   5.664   6.006  10.080 -0.1477  0.8114  0.2667
  451MOL0     C59421   5.618   5.862  10.098 -0.8476  0.4171 -0.2729
  451MOL0     C59422   5.473   5.845  10.062 -0.2444  0.5444 -0.6563
  451MOL0     C59423   5.413   5.709  10.106 -0.5930 -0.5029  0.6256
  451MOL0     O59424   5.284   5.755  10.155  0.2597  0.6887 -0.4802
  451MOL0     C59425   5.220   5.651  10.218 -0.4627 -0.6763  0.2499
  451MOL0     C59426   5.261   5.532  10.266 -0.6932 -0.6234  0.3678
  451MOL0     C59427   5.180   5.451  10.354 -0.2178 -0.4532  0.3625
  451MOL0     C59428   5.048   5.476  10.372  0.0091  0.3754 -0.2821
  451MOL0     C59429   4.944   5.395  10.444  0.1652 -0.4945  0.4642
  451MOL0     O59430   4.982   5.301  10.526 -0.1462  0.0301  0.6770
  451MOL0     C59431   4.910   5.234  10.621 -0.5552 -0.4785  0.5601
  451MOL0     C59432   4.778   5.206  10.611 -0.4054  1.1294  0.3108
  451MOL0     C59433   4.713   5.128  10.711 -0.7217  0.2503  0.6100
  451MOL0     C59434   4.787   5.072  10.815  0.6545  0.3205 -0.3282
  451MOL0     O59435   4.717   4.972  10.883  0.4756 -0.0761 -0.1208
  451MOL0     C59436   4.704   5.004  11.029  0.4202 -0.2219 -0.3741
  451MOL0     C59437   4.725   4.876  11.106  0.1418  0.5307 -0.6638
  451MOL0     C59438   4.622   4.769  11.086  0.3535  0.1483 -0.6947
  451MOL0     C59439   4.472   4.789  11.104 -0.6639 -0.2790  0.1364
  451MOL0     C59440   4.407   4.834  10.972  0.1754  0.0689  0.2623
  451MOL0     C59441   4.357   4.715  10.898 -0.1845  0.1617  0.3248
  451MOL0     C59442   4.288   4.755  10.764 -0.4586  0.0175 -0.4966
  451MOL0     C59443   4.164   4.681  10.731 -0.4999  0.9289  0.3376
  451MOL0    Cl59444   4.011   4.749  10.792  0.2589  0.7845 -0.2958
  451MOL0     C59445   4.920   5.099  10.830 -0.1837 -0.1460  0.2288
  451MOL0     C59446   4.983   5.182  10.734 -1.0368 -0.7020  0.2808
  451MOL0     O59447   4.827   5.439  10.438  0.9036 -0.4080 -0.0718
  451MOL0     C59448   5.001   5.601  10.325 -0.1610 -0.7539  1.0149
  451MOL0     C59449   5.086   5.688  10.251 -0.2199 -0.4217 -0.3230
  451MOL0     N59450   5.902   5.994  10.178  0.0753 -0.4548 -0.3813
  451MOL0     N59451   5.972   6.046  10.269 -0.2878  0.1183 -0.2675
  451MOL0     C59452   6.045   6.491  11.188 -0.1235 -1.1357  0.1458
  451MOL0     C59453   6.036   6.394  11.283 -0.4927 -0.2099 -0.1903
  451MOL0     C59454   5.878   6.057  11.516 -0.3540 -0.2201 -0.7003
  451MOL0     C59455   5.942   6.059  11.652 -0.2481  0.1968  0.5382
  451MOL0     C59456   5.949   5.948  11.738  0.0006  0.0375  0.3188
  451MOL0     C59457   5.881   5.832  11.697 -0.1953  0.4588 -0.7621
  451MOL0     O59458   5.838   5.730  11.788 -0.8993 -0.1006  0.2243
  451MOL0     C59459   5.874   5.739  11.923  0.2650 -0.4520 -0.0714
  451MOL0     C59460   5.771   5.826  11.993 -0.2701  0.3095  0.1032
  451MOL0     C59461   5.629   5.765  11.978  0.0852  0.3564 -0.0693
  451MOL0     C59462   5.512   5.846  12.039  0.7535 -0.2831 -0.2852
  451MOL0     C59463   5.403   5.754  12.071 -0.2479 -0.4400 -0.3129
  451MOL0     C59464   5.312   5.674  12.095  0.3255 -0.0448 -0.0157
  451MOL0     C59465   5.836   5.819  11.567 -0.1323 -0.2179 -0.0117
  451MOL0     C59466   5.841   5.931  11.473  0.6688 -0.0357 -0.4087
  451MOL0     H59467   5.773   6.500  11.459 -0.1989 -1.8469 -1.5679
  451MOL0     H59468   5.801   6.690  11.300 -0.7037 -0.1681 -0.2471
  451MOL0     H59469   5.865   6.860  11.070  2.3393 -0.6811  2.8322
  451MOL0     H59470   5.782   6.705  11.031  0.9758 -1.1842  0.8845
  451MOL0     H59471   6.015   6.815  10.878 -0.7878  2.1472 -2.8406
  451MOL0     H59472   5.856   6.858  10.840 -0.8314  0.6999  0.6272
  451MOL0     H59473   5.790   6.642  10.750  1.2972 -2.2465 -1.3650
  451MOL0     H59474   5.876   6.564  10.871  1.6504 -1.0161 -1.9407
  451MOL0     H59475   6.028   6.706  10.648 -0.4915  3.6956  4.6898
  451MOL0     H59476   6.083   6.569  10.737  1.9034  0.9869 -4.2129
  451MOL0     H59477   5.994   6.517  10.505 -0.3822  2.7309  0.1363
  451MOL0     H59478   5.831   6.561  10.557 -1.3653  0.4560  3.6878
  451MOL0     H59479   5.850   6.384  10.731  2.1576 -0.1135  1.2763
  451MOL0     H59480   5.998   6.326  10.669 -1.1797 -1.2467  3.4550
  451MOL0     H59481   5.789   6.203  10.572  1.6041 -0.6043  0.2298
  451MOL0     H59482   5.766   6.358  10.477  0.0099 -1.4518 -2.1064
  451MOL0     H59483   6.035   6.204  10.462 -1.2067  0.0824  3.1518
  451MOL0     H59484   5.969   6.331  10.357 -1.7797  2.7340  2.3084
  451MOL0     H59485   5.677   6.197  10.298 -0.8731 -0.4296 -3.0348
  451MOL0     H59486   5.703   6.015   9.978 -0.6437  0.9153  0.0854
  451MOL0     H59487   5.578   6.072  10.092 -2.8709 -2.5730  1.2580
  451MOL0     H59488   5.626   5.839  10.205 -0.1612  1.0603 -0.1670
  451MOL0     H59489   5.681   5.791  10.044  1.4092  3.1565 -1.4924
  451MOL0     H59490   5.404   5.927  10.084 -0.7234 -0.5001  2.2228
  451MOL0     H59491   5.473   5.825   9.955 -2.4709 -1.3473 -0.3961
  451MOL0     H59492   5.484   5.656  10.170  3.2383  1.3734 -1.7488
  451MOL0     H59493   5.399   5.641  10.021  0.4395  0.8434 -0.6680
  451MOL0     H59494   5.360   5.494  10.245 -0.6944 -0.0640 -0.7054
  451MOL0     H59495   5.211   5.359  10.402 -1.4567 -0.2326  1.6488
  451MOL0     H59496   4.716   5.233  10.527 -0.2274  0.0831 -0.1724
  451MOL0     H59497   4.604   5.121  10.715 -0.9978  3.1977  0.3517
  451MOL0     H59498   4.599   5.033  11.040  0.1821 -1.2666  0.2611
  451MOL0     H59499   4.768   5.085  11.064 -0.4813  0.9796 -1.4161
  451MOL0     H59500   4.752   4.903  11.208  0.5647  0.9048 -0.8703
  451MOL0     H59501   4.823   4.844  11.071  0.8472 -1.1151  2.4365
  451MOL0     H59502   4.646   4.689  11.156  5.1668 -0.9653 -3.1894
  451MOL0     H59503   4.647   4.734  10.985  1.5837  0.4844 -0.5244
  451MOL0     H59504   4.435   4.690  11.133  0.2561 -0.3874  0.9867
  451MOL0     H59505   4.461   4.855  11.190  2.4481 -0.6214  0.9348
  451MOL0     H59506   4.468   4.899  10.909 -2.0995  1.7074 -0.3969
  451MOL0     H59507   4.318   4.888  11.007 -1.2048 -1.9692  0.0549
  451MOL0     H59508   4.284   4.660  10.958 -2.1145  1.6156 -0.5669
  451MOL0     H59509   4.443   4.657  10.863 -0.4190 -1.1742  1.8411
  451MOL0     H59510   4.268   4.862  10.756  1.0101  0.1613 -4.8947
  451MOL0     H59511   4.358   4.741  10.681  0.1377  1.2309 -0.2121
  451MOL0     H59512   4.190   4.584  10.774 -2.9368  0.5947  1.1851
  451MOL0     H59513   4.161   4.678  10.621  2.1664  0.0831  0.2209
  451MOL0     H59514   4.981   5.039  10.897 -0.0306 -1.7745 -1.2876
  451MOL0     H59515   5.090   5.190  10.748 -1.2642 -0.8012  2.4229
  451MOL0     H59516   4.895   5.626  10.331 -0.5044 -1.6567 -0.6919
  451MOL0     H59517   5.052   5.772  10.191  0.3151 -0.1757 -0.2856
  451MOL0     H59518   6.124   6.478  11.115 -1.3186 -2.1821 -1.0163
  451MOL0     H59519   6.106   6.311  11.290  0.8466  0.5138 -3.4019
  451MOL0     H59520   5.983   6.153  11.685  0.1711  0.3656 -0.4210
  451MOL0     H59521   5.984   5.967  11.839 -2.0499  0.0049  1.0735
  451MOL0     H59522   5.975   5.779  11.936 -0.4326  1.7525 -0.9673
  451MOL0     H59523   5.861   5.638  11.962 -1.5683  1.1403  4.0958
  451MOL0     H59524   5.787   5.819  12.101  0.4471 -0.0393 -0.0221
  451MOL0     H59525   5.771   5.926  11.947 -0.6064  0.4050  0.3104
  451MOL0     H59526   5.631   5.664  12.022  2.6451 -0.5767 -2.0997
  451MOL0     H59527   5.608   5.750  11.872 -2.3316  2.4039  0.0432
  451MOL0     H59528   5.535   5.882  12.140  1.1398  1.6489 -1.0314
  451MOL0     H59529   5.472   5.924  11.974 -3.9904 -2.4595 -0.3977
  451MOL0     H59530   5.233   5.603  12.112  0.4884 -0.1735  0.2163
  451MOL0     H59531   5.792   5.726  11.534  0.9208 -1.1475  1.1159
  451MOL0     H59532   5.814   5.925  11.368 -1.4647 -1.3043  0.1396
  452MOL0     O59533   5.209   1.253   3.441  0.0259  0.2078 -0.3669
  452MOL0     C59534   5.293   1.263   3.524 -0.2255 -0.0928 -0.5118
  452MOL0     O59535   5.360   1.375   3.568 -1.0216  0.7450 -0.0761
  452MOL0     C59536   5.311   1.506   3.553 -0.5110  0.0557 -0.3913
  452MOL0     C59537   5.183   1.548   3.529 -0.2175  0.8427  0.7267
  452MOL0     C59538   5.141   1.677   3.509  0.6046 -0.4367  0.1980
  452MOL0     C59539   5.242   1.772   3.496 -0.7570  0.6831 -0.4312
  452MOL0     O59540   5.230   1.899   3.467 -0.1822  0.0007  1.0884
  452MOL0     C59541   5.167   1.925   3.339  0.2462  0.4171 -0.0841
  452MOL0     C59542   5.163   2.076   3.298  0.7445  0.5250  0.4488
  452MOL0     C59543   5.275   2.106   3.190 -0.4165 -0.0661  0.0952
  452MOL0     C59544   5.244   2.232   3.121  0.2608  0.2991 -0.6893
  452MOL0     C59545   5.349   2.283   3.018 -0.2630  0.3625  0.1574
  452MOL0     C59546   5.489   2.323   3.076  0.9508 -0.0545  0.4602
  452MOL0     C59547   5.488   2.449   3.164 -0.2820  0.0001 -1.1172
  452MOL0     C59548   5.622   2.520   3.152  0.7756 -0.4122  0.1481
  452MOL0     N59549   5.635   2.645   3.234 -0.2967 -0.6263  0.9691
  452MOL0     C59550   5.577   2.669   3.351  0.0508 -0.4236 -0.5668
  452MOL0     C59551   5.647   2.777   3.398  0.1908 -1.0636 -0.9672
  452MOL0     C59552   5.635   2.873   3.518  1.4618 -0.0106  1.2978
  452MOL0     C59553   5.515   2.967   3.487 -0.6798 -0.4447  0.0673
  452MOL0     C59554   5.485   3.056   3.611 -0.6612  0.3348 -0.5532
  452MOL0     C59555   5.390   3.170   3.584 -0.9961  0.7150  0.1643
  452MOL0     O59556   5.261   3.117   3.544  0.1885  0.2318 -0.7659
  452MOL0     C59557   5.164   3.208   3.497 -1.3041 -0.1663  0.6132
  452MOL0     C59558   5.031   3.166   3.490 -0.7662  0.8739 -0.0364
  452MOL0     C59559   4.925   3.248   3.462 -0.0613 -0.0957  1.3638
  452MOL0     C59560   4.949   3.382   3.420 -0.8136 -0.5250  0.7311
  452MOL0     C59561   4.847   3.478   3.383  0.7505 -0.3228 -0.4604
  452MOL0     O59562   4.718   3.433   3.400  0.5879  0.3914 -0.3651
  452MOL0     C59563   4.614   3.505   3.342 -0.7141  0.1856  0.5619
  452MOL0     C59564   4.557   3.477   3.214 -0.2046  0.0166  0.1484
  452MOL0     C59565   4.457   3.559   3.170  0.3468  1.2487 -0.3877
  452MOL0     C59566   4.405   3.674   3.246 -0.0296  0.3359 -0.0950
  452MOL0     O59567   4.306   3.748   3.194 -0.4351 -0.6413  0.1013
  452MOL0     C59568   4.231   3.824   3.289  1.1008 -0.5568 -0.5679
  452MOL0     C59569   4.084   3.848   3.229  0.4929 -0.2663  0.0077
  452MOL0     C59570   4.045   3.737   3.139  0.2112 -0.3466 -0.0581
  452MOL0     C59571   4.000   3.621   3.229 -0.3731 -0.1059  0.0415
  452MOL0     C59572   3.905   3.522   3.169  0.6069  0.1963 -1.0238
  452MOL0     C59573   3.765   3.582   3.188 -0.2463 -0.7402 -0.2590
  452MOL0     C59574   3.655   3.474   3.173  0.3860 -0.1277  0.1856
  452MOL0     C59575   3.517   3.542   3.161  0.7676 -0.1211 -0.9877
  452MOL0    Cl59576   3.473   3.627   3.312  0.6850 -0.5847 -0.2346
  452MOL0     C59577   4.478   3.703   3.361  0.1819 -0.3038  0.1676
  452MOL0     C59578   4.577   3.618   3.408  0.0979  0.4349  0.2186
  452MOL0     O59579   4.881   3.575   3.324 -0.3486 -0.3280 -0.3463
  452MOL0     C59580   5.087   3.419   3.422  0.7447  0.0592  0.2448
  452MOL0     C59581   5.187   3.343   3.460  0.2055 -0.6076  0.4924
  452MOL0     N59582   5.745   2.811   3.302 -0.2201 -0.0863  0.3975
  452MOL0     N59583   5.732   2.732   3.206  0.5981  0.3437  0.4101
  452MOL0     C59584   5.379   1.732   3.512  0.4399 -0.5666 -0.2212
  452MOL0     C59585   5.410   1.603   3.552  0.0941 -0.2395  0.1994
  452MOL0     C59586   5.326   1.139   3.599  0.1562 -0.0484 -0.5395
  452MOL0     C59587   5.244   1.030   3.595  1.2654  0.5394 -1.0705
  452MOL0     C59588   5.267   0.908   3.657  0.4147 -0.2895 -0.8342
  452MOL0     C59589   5.364   0.896   3.751  0.9760 -0.9559  0.3691
  452MOL0     O59590   5.374   0.778   3.817 -0.7225 -0.0302  0.0737
  452MOL0     C59591   5.498   0.728   3.856  0.5676  0.3162 -0.7122
  452MOL0     C59592   5.492   0.580   3.892 -0.4306  0.8126  0.3600
  452MOL0     C59593   5.412   0.498   3.786 -0.0946 -0.0291 -0.0918
  452MOL0     C59594   5.416   0.346   3.813 -0.0668  0.2963  0.8091
  452MOL0     C59595   5.337   0.289   3.917 -0.1668 -0.2713  0.0153
  452MOL0     C59596   5.286   0.222   4.009 -0.0503 -0.1655 -0.2825
  452MOL0     C59597   5.449   1.015   3.771  1.1480  0.7803  0.0233
  452MOL0     C59598   5.439   1.125   3.688  0.3052 -1.2173 -0.0423
  452MOL0     H59599   5.102   1.476   3.537 -1.6359  2.2847 -0.0069
  452MOL0     H59600   5.034   1.693   3.498  0.2231 -1.3839  2.0933
  452MOL0     H59601   5.070   1.875   3.333 -0.6519  2.1247 -0.3708
  452MOL0     H59602   5.227   1.875   3.262 -1.0986 -1.0337 -0.2539
  452MOL0     H59603   5.172   2.147   3.381  1.0157  4.1498 -2.4297
  452MOL0     H59604   5.061   2.095   3.262  1.3845 -0.1075 -1.7953
  452MOL0     H59605   5.301   2.019   3.127 -1.9417 -1.7087  1.6270
  452MOL0     H59606   5.369   2.116   3.245 -0.5843 -2.3308  0.9301
  452MOL0     H59607   5.149   2.223   3.068  0.6318  0.2596 -1.3663
  452MOL0     H59608   5.231   2.295   3.209  1.7966 -0.8884  0.4441
  452MOL0     H59609   5.301   2.372   2.977  1.5140  0.2683 -2.3097
  452MOL0     H59610   5.368   2.211   2.938 -2.0709 -2.9914  2.4847
  452MOL0     H59611   5.550   2.359   2.994 -0.4914 -1.5372 -1.3562
  452MOL0     H59612   5.525   2.227   3.115  1.6107  0.8150  2.1013
  452MOL0     H59613   5.404   2.515   3.143 -2.1069 -1.9972 -0.4210
  452MOL0     H59614   5.471   2.422   3.269  1.2984  6.0170  1.0906
  452MOL0     H59615   5.638   2.549   3.048 -0.1159  1.2415  0.4361
  452MOL0     H59616   5.700   2.454   3.189  0.7228 -1.2167 -1.1301
  452MOL0     H59617   5.500   2.619   3.410  0.7149  1.3961  2.0360
  452MOL0     H59618   5.721   2.940   3.527  1.4729 -0.2083  3.1016
  452MOL0     H59619   5.628   2.823   3.616  2.7216 -0.9478  0.9331
  452MOL0     H59620   5.426   2.919   3.443 -0.1175  0.1924 -1.8813
  452MOL0     H59621   5.542   3.026   3.399  2.1222 -0.2561  0.9796
  452MOL0     H59622   5.453   3.005   3.702  1.1645  2.7200  1.5819
  452MOL0     H59623   5.583   3.086   3.649 -0.7207 -2.6728  2.4369
  452MOL0     H59624   5.431   3.230   3.502 -0.0570  3.2185  2.3677
  452MOL0     H59625   5.387   3.236   3.670  0.7978 -1.6189  2.1614
  452MOL0     H59626   5.015   3.063   3.520  2.8409  0.4414  0.8862
  452MOL0     H59627   4.822   3.215   3.460  0.0195 -0.6029 -2.6390
  452MOL0     H59628   4.588   3.392   3.154  0.4326  1.1830 -1.2437
  452MOL0     H59629   4.413   3.535   3.074  2.0621 -1.3287 -0.6377
  452MOL0     H59630   4.279   3.922   3.299  0.0715 -0.0819 -0.1417
  452MOL0     H59631   4.221   3.783   3.389 -2.5027  1.5092  0.1193
  452MOL0     H59632   4.094   3.937   3.166  0.3034  0.3379  0.8007
  452MOL0     H59633   4.008   3.884   3.299 -2.1843 -2.2767 -1.6886
  452MOL0     H59634   4.117   3.699   3.065  0.6736 -1.6920  1.0392
  452MOL0     H59635   3.953   3.768   3.088 -0.3975  3.1782  2.8071
  452MOL0     H59636   4.099   3.577   3.235  0.2685  1.3613  0.6954
  452MOL0     H59637   3.964   3.650   3.329 -1.8240  2.5126 -1.1175
  452MOL0     H59638   3.918   3.440   3.240  1.3439 -1.3928 -2.9030
  452MOL0     H59639   3.944   3.474   3.080 -0.1235  0.4238 -1.4793
  452MOL0     H59640   3.754   3.647   3.101 -0.2153  3.0096  2.3199
  452MOL0     H59641   3.755   3.645   3.276  3.4429  2.7909 -2.0440
  452MOL0     H59642   3.676   3.416   3.082  2.3986  0.8561 -0.0365
  452MOL0     H59643   3.653   3.407   3.259 -1.5525 -0.0408  0.2534
  452MOL0     H59644   3.443   3.462   3.171 -1.4852  2.0818  6.1297
  452MOL0     H59645   3.491   3.602   3.073 -3.4709  0.2861  0.3272
  452MOL0     H59646   4.450   3.790   3.420  1.3240 -0.6373  1.2467
  452MOL0     H59647   4.618   3.642   3.506  2.2847 -1.6685 -0.0719
  452MOL0     H59648   5.109   3.524   3.401 -2.3005  0.4943 -1.2388
  452MOL0     H59649   5.290   3.378   3.459  0.3819 -1.0505  1.7986
  452MOL0     H59650   5.457   1.807   3.508 -0.1860  0.3078  2.1426
  452MOL0     H59651   5.507   1.564   3.580  0.4185  0.5810  0.2311
  452MOL0     H59652   5.150   1.031   3.541  2.4506 -0.5697 -3.2838
  452MOL0     H59653   5.196   0.830   3.633  1.8253 -2.7646  2.2912
  452MOL0     H59654   5.521   0.782   3.948 -1.8912 -1.4063  1.0288
  452MOL0     H59655   5.578   0.741   3.782 -0.3731  3.2985 -1.3189
  452MOL0     H59656   5.594   0.540   3.884  0.0626  0.9926  4.1332
  452MOL0     H59657   5.455   0.571   3.994  3.7661  1.5913  2.1738
  452MOL0     H59658   5.462   0.507   3.689  2.5640 -3.5352  0.7266
  452MOL0     H59659   5.307   0.528   3.781  0.3572  1.4680 -1.2190
  452MOL0     H59660   5.375   0.304   3.721  2.8896  0.6015 -0.7386
  452MOL0     H59661   5.517   0.308   3.827 -0.7684 -2.0588 -0.0600
  452MOL0     H59662   5.237   0.159   4.080  0.9815  0.1048  0.6901
  452MOL0     H59663   5.532   0.999   3.840  0.1504 -3.9933  0.4530
  452MOL0     H59664   5.507   1.208   3.672  0.4310 -1.5513 -1.3261
  453MOL0     O59665   5.083   7.140   7.662 -0.9532 -0.1527 -0.2440
  453MOL0     C59666   5.194   7.125   7.607 -0.1325  0.6762  1.4731
  453MOL0     O59667   5.210   7.057   7.491  0.2721  0.1138  1.2514
  453MOL0     C59668   5.103   6.981   7.455  0.1694 -1.0179 -0.1503
  453MOL0     C59669   5.089   6.863   7.528 -0.0570  1.0071 -0.4519
  453MOL0     C59670   4.978   6.782   7.503  0.7036  0.4742  0.1103
  453MOL0     C59671   4.894   6.800   7.397  0.3646  1.0062 -0.6607
  453MOL0     O59672   4.805   6.700   7.375  1.1145  0.2704 -0.7316
  453MOL0     C59673   4.681   6.742   7.333 -0.5324  0.5791 -0.5665
  453MOL0     C59674   4.574   6.679   7.417 -0.0366 -0.3110  0.2399
  453MOL0     C59675   4.516   6.548   7.367  0.2068  0.2674  0.3375
  453MOL0     C59676   4.420   6.555   7.245 -0.0035  0.5999 -0.6346
  453MOL0     C59677   4.376   6.411   7.206 -0.3844 -0.5379 -1.0774
  453MOL0     C59678   4.499   6.333   7.145 -0.1506  0.0539  1.0854
  453MOL0     C59679   4.444   6.202   7.087  0.7062 -0.3808  1.9110
  453MOL0     C59680   4.359   6.222   6.965 -0.4975 -0.6382  0.3319
  453MOL0     N59681   4.373   6.098   6.884 -0.5816  0.2442 -0.2976
  453MOL0     C59682   4.486   6.048   6.832 -0.0893  0.1384  0.5030
  453MOL0     C59683   4.462   5.925   6.776  0.2151  0.0579 -0.6111
  453MOL0     C59684   4.577   5.848   6.724  0.3812 -1.3001  0.6127
  453MOL0     C59685   4.594   5.723   6.805 -0.1821 -0.7245 -0.6160
  453MOL0     C59686   4.669   5.755   6.937 -0.0249  0.1176 -0.4519
  453MOL0     C59687   4.821   5.722   6.925  0.1343 -0.5022  0.0311
  453MOL0     O59688   4.879   5.742   7.056 -0.6499  0.4286  0.1145
  453MOL0     C59689   4.967   5.840   7.083 -0.8809 -0.1744  0.0884
  453MOL0     C59690   5.093   5.814   7.147 -0.0271  0.2434 -1.0521
  453MOL0     C59691   5.196   5.904   7.148  0.1709 -0.1296 -0.7632
  453MOL0     C59692   5.175   6.028   7.085  0.3700 -1.0959  0.0996
  453MOL0     C59693   5.291   6.126   7.071  0.1928 -0.4779  0.6393
  453MOL0     O59694   5.374   6.144   7.179 -0.4644 -1.0925  1.4077
  453MOL0     C59695   5.505   6.193   7.156  0.7343 -0.0430 -0.0432
  453MOL0     C59696   5.591   6.163   7.045 -0.2886  0.5720 -1.1776
  453MOL0     C59697   5.719   6.239   7.036 -0.4560 -0.2026  0.0583
  453MOL0     C59698   5.773   6.306   7.144 -0.1460 -0.6150 -0.1100
  453MOL0     O59699   5.902   6.352   7.156  0.1626 -0.4624  0.4871
  453MOL0     C59700   5.975   6.377   7.036 -0.3791 -0.4855 -0.6136
  453MOL0     C59701   6.098   6.459   7.068 -0.7386  0.4539  0.2762
  453MOL0     C59702   6.194   6.509   6.951 -0.1353  0.6359  1.4824
  453MOL0     C59703   6.148   6.642   6.887  0.3316 -0.3776  0.3051
  453MOL0     C59704   6.204   6.695   6.758 -0.9131  0.4479 -0.0204
  453MOL0     C59705   6.354   6.733   6.774  0.1018  0.7726  0.2346
  453MOL0     C59706   6.398   6.833   6.663 -0.1702 -0.9926 -0.2412
  453MOL0     C59707   6.522   6.924   6.703 -0.1082  0.2562 -0.1281
  453MOL0    Cl59708   6.681   6.842   6.683  0.0225 -0.2369 -0.2570
  453MOL0     C59709   5.686   6.332   7.253  0.0401  0.0849  0.5013
  453MOL0     C59710   5.556   6.277   7.259  1.3379 -0.6554  0.4892
  453MOL0     O59711   5.306   6.166   6.952  0.2037 -0.3285 -0.1619
  453MOL0     C59712   5.049   6.059   7.031  0.6079 -0.0298 -0.3958
  453MOL0     C59713   4.940   5.968   7.033 -0.6993 -0.8331 -0.5434
  453MOL0     N59714   4.324   5.905   6.795  0.2172  0.3512 -0.2813
  453MOL0     N59715   4.268   6.008   6.861 -0.1422  0.1925  0.3156
  453MOL0     C59716   4.903   6.927   7.328 -0.6960  0.7408  0.5364
  453MOL0     C59717   5.006   7.014   7.356 -0.3720 -0.4486 -0.9456
  453MOL0     C59718   5.311   7.199   7.655  0.3587 -0.3811 -0.1997
  453MOL0     C59719   5.309   7.321   7.740  0.2403  0.9962  0.8235
  453MOL0     C59720   5.430   7.390   7.761  0.6610  0.3504 -1.3456
  453MOL0     C59721   5.555   7.353   7.710 -0.7859  0.1344 -0.0359
  453MOL0     O59722   5.671   7.419   7.734 -0.3880  0.1993 -0.4796
  453MOL0     C59723   5.662   7.552   7.683 -0.9283 -0.7123  0.6003
  453MOL0     C59724   5.798   7.620   7.659  0.0620  0.0134 -0.4945
  453MOL0     C59725   5.903   7.536   7.588 -0.0665 -0.5334 -0.8331
  453MOL0     C59726   5.862   7.447   7.473 -0.1888  0.6904 -0.0637
  453MOL0     C59727   5.976   7.370   7.427  0.7384 -0.7433  0.4714
  453MOL0     C59728   6.056   7.282   7.378  0.6601  1.2413 -0.2344
  453MOL0     C59729   5.549   7.239   7.631 -0.0066  0.4427 -0.9611
  453MOL0     C59730   5.436   7.166   7.615  0.9129  1.8145  0.7531
  453MOL0     H59731   5.150   6.848   7.616 -2.8026  1.9451  1.7442
  453MOL0     H59732   4.953   6.702   7.571 -1.7083  2.4547  1.7245
  453MOL0     H59733   4.663   6.725   7.226  2.2530 -2.0708 -0.7698
  453MOL0     H59734   4.670   6.848   7.358  0.8539  0.7148 -0.4113
  453MOL0     H59735   4.489   6.746   7.427 -2.0659 -2.7925  0.6637
  453MOL0     H59736   4.618   6.654   7.514  2.7209 -2.7020 -1.4380
  453MOL0     H59737   4.472   6.495   7.452  0.4053  1.2457  1.0692
  453MOL0     H59738   4.596   6.487   7.324 -1.8690 -2.0725 -0.4316
  453MOL0     H59739   4.329   6.603   7.280  0.8888  0.7172  1.7814
  453MOL0     H59740   4.464   6.602   7.157  2.7952  0.8602  0.7547
  453MOL0     H59741   4.295   6.431   7.136 -1.4753  1.0810  0.5834
  453MOL0     H59742   4.333   6.354   7.289 -0.2210 -0.4854 -0.9535
  453MOL0     H59743   4.582   6.305   7.210  1.3995  1.4109 -0.2241
  453MOL0     H59744   4.541   6.395   7.065 -1.1999  2.1061  2.0570
  453MOL0     H59745   4.526   6.132   7.068  0.2649 -0.7765  1.4252
  453MOL0     H59746   4.379   6.152   7.160  0.7267  0.1546  2.2994
  453MOL0     H59747   4.387   6.312   6.910  1.4973  0.0863  2.3798
  453MOL0     H59748   4.252   6.240   6.974 -0.2540 -0.1637  3.1517
  453MOL0     H59749   4.581   6.099   6.846 -2.1210  3.7116  2.8614
  453MOL0     H59750   4.664   5.914   6.735 -1.6887  2.0495 -1.4845
  453MOL0     H59751   4.561   5.807   6.624 -2.7014  1.3293 -0.1389
  453MOL0     H59752   4.653   5.649   6.750 -1.2961 -1.7005 -0.5417
  453MOL0     H59753   4.494   5.681   6.821  0.2195 -0.9278  1.6891
  453MOL0     H59754   4.656   5.860   6.964  0.4214 -0.0867  0.5982
  453MOL0     H59755   4.627   5.682   7.007  1.3270  0.3750  0.6687
  453MOL0     H59756   4.865   5.779   6.842 -0.4197 -1.3511 -0.8592
  453MOL0     H59757   4.826   5.618   6.893 -3.1467 -0.9881  0.7150
  453MOL0     H59758   5.104   5.720   7.202  0.9412  0.6961 -0.4438
  453MOL0     H59759   5.295   5.890   7.191  1.1674  1.5586 -2.3378
  453MOL0     H59760   5.557   6.098   6.966  1.6194  0.5111 -1.9780
  453MOL0     H59761   5.780   6.238   6.946  0.7818 -0.0796  0.8651
  453MOL0     H59762   5.910   6.440   6.974 -1.2887 -0.8087 -0.0083
  453MOL0     H59763   6.018   6.290   6.984  3.0984  1.1617 -0.7427
  453MOL0     H59764   6.160   6.393   7.128  1.6029 -1.3500 -3.7341
  453MOL0     H59765   6.073   6.551   7.122  0.1502  0.9578 -0.1390
  453MOL0     H59766   6.197   6.433   6.873  1.7576  0.0898  2.0454
  453MOL0     H59767   6.297   6.528   6.982  0.4453  1.2893 -0.6884
  453MOL0     H59768   6.040   6.626   6.881  0.7575 -4.6301  1.0096
  453MOL0     H59769   6.152   6.720   6.964  3.1110 -0.9694  0.8493
  453MOL0     H59770   6.154   6.787   6.724  1.1598  0.8683 -2.2396
  453MOL0     H59771   6.199   6.623   6.676 -3.0512 -0.6191  0.9770
  453MOL0     H59772   6.420   6.646   6.774 -0.6157  0.2031 -0.6397
  453MOL0     H59773   6.365   6.782   6.871 -0.4008 -1.3598  1.4337
  453MOL0     H59774   6.413   6.771   6.575 -0.3827 -1.8572  0.3216
  453MOL0     H59775   6.313   6.899   6.642  1.3005  1.4416  0.9686
  453MOL0     H59776   6.509   6.961   6.805 -0.2795  0.9365 -0.3907
  453MOL0     H59777   6.518   7.018   6.646  0.8055  1.3788  1.5730
  453MOL0     H59778   5.729   6.386   7.337  0.8724  2.1327 -1.1429
  453MOL0     H59779   5.490   6.297   7.343 -0.4183 -0.8481 -0.7861
  453MOL0     H59780   5.047   6.152   6.975  2.5381  2.5035  3.2823
  453MOL0     H59781   4.841   5.995   6.997 -0.0832 -0.8030 -2.2886
  453MOL0     H59782   4.841   6.954   7.243  0.4397  0.4682 -0.4016
  453MOL0     H59783   4.997   7.108   7.303 -2.5320 -1.9954 -3.5731
  453MOL0     H59784   5.207   7.352   7.760 -0.5353 -1.8541  1.7564
  453MOL0     H59785   5.428   7.487   7.810  1.8262 -0.6968  0.9354
  453MOL0     H59786   5.607   7.612   7.756 -3.7006 -1.2488 -0.9248
  453MOL0     H59787   5.612   7.539   7.587  0.7180  2.2524 -0.8063
  453MOL0     H59788   5.776   7.708   7.597 -1.7225  0.1645  0.2869
  453MOL0     H59789   5.840   7.651   7.755  0.2346 -2.8662  0.4315
  453MOL0     H59790   5.948   7.471   7.664  3.1844  1.1677 -1.0931
  453MOL0     H59791   5.991   7.594   7.557 -0.6425  2.1505  2.1219
  453MOL0     H59792   5.784   7.379   7.509 -0.1858 -0.3701 -1.9353
  453MOL0     H59793   5.826   7.514   7.394  4.5518  0.9835 -2.2982
  453MOL0     H59794   6.120   7.200   7.350 -0.9378 -0.9071  1.9888
  453MOL0     H59795   5.637   7.203   7.579  1.3939  3.7476 -1.1322
  453MOL0     H59796   5.451   7.077   7.554 -0.9613  0.7860  1.7099
  454MOL0     O59797   1.396   4.734   9.057 -0.3736 -0.2365 -0.5854
  454MOL0     C59798   1.354   4.716   9.173  0.1450  0.0658 -0.2268
  454MOL0     O59799   1.424   4.730   9.291  0.2785  0.4314 -0.0976
  454MOL0     C59800   1.559   4.730   9.300  0.3898  0.2250  0.5188
  454MOL0     C59801   1.612   4.657   9.410  0.5642 -0.0143 -0.2885
  454MOL0     C59802   1.744   4.636   9.427 -0.4562  1.0674  0.2194
  454MOL0     C59803   1.840   4.689   9.347  0.0919 -0.8355  0.5244
  454MOL0     O59804   1.974   4.646   9.378  0.4306 -0.7678  0.3427
  454MOL0     C59805   2.076   4.659   9.273 -0.4481 -0.7281 -0.9693
  454MOL0     C59806   2.207   4.655   9.358 -0.3837  0.5638  0.9369
  454MOL0     C59807   2.323   4.669   9.255  0.2674  0.3539 -1.1431
  454MOL0     C59808   2.445   4.608   9.334 -0.0892  0.2289 -0.8390
  454MOL0     C59809   2.580   4.604   9.267  0.3852 -0.0436  0.7505
  454MOL0     C59810   2.631   4.749   9.223 -0.1566 -0.0380  0.7417
  454MOL0     C59811   2.770   4.756   9.152 -1.1650  1.5583 -0.6158
  454MOL0     C59812   2.889   4.746   9.250 -1.0436  0.9226  0.5374
  454MOL0     N59813   3.029   4.761   9.198  0.7540  0.2206 -0.4111
  454MOL0     C59814   3.074   4.746   9.069  0.4015 -0.0659 -0.0635
  454MOL0     C59815   3.210   4.783   9.075  0.3718 -0.0770 -0.3505
  454MOL0     C59816   3.314   4.800   8.973  0.7533  0.0730  0.7761
  454MOL0     C59817   3.376   4.663   8.933  0.3393 -1.4570  0.4998
  454MOL0     C59818   3.485   4.603   9.027 -0.8913  0.6924  0.1162
  454MOL0     C59819   3.588   4.709   9.063 -1.0055  0.3044 -0.0041
  454MOL0     O59820   3.652   4.759   8.946 -0.1272  0.8227  0.0207
  454MOL0     C59821   3.768   4.702   8.902  0.6307 -0.0927  0.0823
  454MOL0     C59822   3.852   4.784   8.824 -0.3393 -0.5062  0.2418
  454MOL0     C59823   3.970   4.737   8.777  0.8794  0.3545 -0.0695
  454MOL0     C59824   4.006   4.606   8.804 -0.8104  0.5431 -1.1072
  454MOL0     C59825   4.128   4.548   8.753 -0.0698  0.2236 -0.4077
  454MOL0     O59826   4.208   4.637   8.679  0.5573 -0.2196  0.4934
  454MOL0     C59827   4.341   4.613   8.671 -0.1553 -0.7077 -0.2244
  454MOL0     C59828   4.396   4.497   8.630  1.0221  0.2023  0.6012
  454MOL0     C59829   4.537   4.476   8.642 -0.1015  1.7997 -0.0529
  454MOL0     C59830   4.615   4.572   8.703 -0.8863 -0.3660  0.1374
  454MOL0     O59831   4.749   4.563   8.724 -0.0080  0.5924  0.5034
  454MOL0     C59832   4.823   4.440   8.705  0.6633  0.2331 -0.1412
  454MOL0     C59833   4.970   4.458   8.735  0.3583 -0.0198 -1.4571
  454MOL0     C59834   5.044   4.340   8.738 -0.3983  0.1782 -0.2441
  454MOL0     C59835   5.192   4.374   8.782  0.1002 -0.0782 -0.8023
  454MOL0     C59836   5.277   4.251   8.780  0.3061  0.2478  0.3771
  454MOL0     C59837   5.421   4.285   8.747 -0.3461 -1.0041  0.3642
  454MOL0     C59838   5.511   4.157   8.774  0.6835 -0.0700  0.2589
  454MOL0     C59839   5.650   4.196   8.760 -0.8209  0.0108 -0.0969
  454MOL0    Cl59840   5.713   4.293   8.898 -0.2012 -0.1703 -0.1619
  454MOL0     C59841   4.557   4.690   8.734  0.3386 -0.1415  0.3820
  454MOL0     C59842   4.422   4.712   8.727 -0.4317  0.6330  1.7076
  454MOL0     O59843   4.160   4.432   8.778 -0.2029 -0.0083 -0.3304
  454MOL0     C59844   3.925   4.515   8.870 -0.6066 -0.9142  0.4204
  454MOL0     C59845   3.799   4.569   8.920  0.4861 -0.3053  0.6102
  454MOL0     N59846   3.241   4.803   9.207  0.6133 -0.5117 -0.3435
  454MOL0     N59847   3.131   4.806   9.278 -0.6015  0.9063  0.7568
  454MOL0     C59848   1.797   4.759   9.236 -0.1879 -0.5812  0.4663
  454MOL0     C59849   1.652   4.792   9.210 -0.2583 -0.3817  0.7106
  454MOL0     C59850   1.214   4.669   9.167 -0.3859 -0.1796 -0.4778
  454MOL0     C59851   1.134   4.676   9.283  0.2371 -0.0770  0.4579
  454MOL0     C59852   1.008   4.614   9.286 -0.3012 -0.9550  1.1293
  454MOL0     C59853   0.957   4.555   9.174  0.7023 -0.0103  0.6321
  454MOL0     O59854   0.820   4.516   9.189 -0.6372  0.6140 -0.4890
  454MOL0     C59855   0.807   4.373   9.168  0.3357  0.3599 -0.2596
  454MOL0     C59856   0.671   4.328   9.187 -1.2594  0.6510  0.3534
  454MOL0     C59857   0.661   4.173   9.152 -0.5347 -0.2398  0.5073
  454MOL0     C59858   0.509   4.146   9.114 -0.0160 -0.1689 -0.7480
  454MOL0     C59859   0.489   3.999   9.120  0.2055 -0.2861  0.3947
  454MOL0     C59860   0.467   3.883   9.086  0.5375  0.1255 -1.7700
  454MOL0     C59861   1.039   4.543   9.058 -0.3892 -0.1019 -0.7142
  454MOL0     C59862   1.160   4.601   9.057 -0.7298  0.4533  0.0567
  454MOL0     H59863   1.553   4.611   9.488 -3.8788  0.0454 -3.2437
  454MOL0     H59864   1.773   4.574   9.511 -1.8617  1.7819  1.2805
  454MOL0     H59865   2.074   4.754   9.218 -0.0768  0.7181  1.3681
  454MOL0     H59866   2.073   4.579   9.198  1.0212  0.9411 -2.9298
  454MOL0     H59867   2.212   4.563   9.416 -0.9581  0.0712  0.2206
  454MOL0     H59868   2.207   4.735   9.433  1.6362  0.5295  1.0168
  454MOL0     H59869   2.348   4.772   9.228 -1.2993  0.9143 -0.5741
  454MOL0     H59870   2.294   4.621   9.160 -1.5188  1.3502 -1.1461
  454MOL0     H59871   2.447   4.662   9.429 -0.2831 -1.7394  0.3545
  454MOL0     H59872   2.430   4.502   9.360  2.3738 -0.8375 -3.3261
  454MOL0     H59873   2.569   4.529   9.188  0.9645  1.4554 -0.8321
  454MOL0     H59874   2.659   4.568   9.334 -1.1392  1.3224  3.4279
  454MOL0     H59875   2.633   4.819   9.307 -0.5179  0.0914  0.6446
  454MOL0     H59876   2.563   4.798   9.153  2.5692  1.0070 -1.3624
  454MOL0     H59877   2.774   4.666   9.091 -0.0216  1.3878 -0.3048
  454MOL0     H59878   2.786   4.848   9.094  1.2596  0.9064 -1.0741
  454MOL0     H59879   2.885   4.654   9.308 -1.1113 -0.0924 -1.0114
  454MOL0     H59880   2.882   4.831   9.318  1.4331 -0.1900  2.3162
  454MOL0     H59881   3.014   4.724   8.982  1.1539 -0.0958 -0.5867
  454MOL0     H59882   3.399   4.864   9.000  1.2585  0.7468 -2.0707
  454MOL0     H59883   3.262   4.840   8.886 -1.9332 -1.6020  1.5088
  454MOL0     H59884   3.418   4.691   8.836 -1.1738  1.2020  0.5291
  454MOL0     H59885   3.300   4.590   8.902 -1.2198  0.0083  0.7825
  454MOL0     H59886   3.436   4.584   9.124 -1.2338  1.5645  0.1213
  454MOL0     H59887   3.523   4.510   8.984  3.0430  1.8398  0.7467
  454MOL0     H59888   3.655   4.665   9.138  0.1753 -0.1613 -1.3055
  454MOL0     H59889   3.536   4.791   9.115  0.6191  2.4017 -1.5127
  454MOL0     H59890   3.836   4.891   8.814  2.8015  0.1786  1.4514
  454MOL0     H59891   4.041   4.811   8.742 -1.1393  2.2210 -0.4346
  454MOL0     H59892   4.329   4.437   8.569 -0.2551  2.0036  0.1726
  454MOL0     H59893   4.581   4.381   8.613 -0.7274  1.2842  0.6405
  454MOL0     H59894   4.814   4.406   8.602 -2.7342 -0.0376  0.1364
  454MOL0     H59895   4.780   4.366   8.773  2.1035  1.8010  2.6454
  454MOL0     H59896   4.970   4.515   8.828  2.4476 -1.6586 -0.3869
  454MOL0     H59897   5.010   4.527   8.659  1.7186  1.2725  0.3368
  454MOL0     H59898   5.035   4.297   8.638 -0.6071  3.6800 -1.8911
  454MOL0     H59899   5.009   4.259   8.802 -0.5783 -1.2707 -2.0910
  454MOL0     H59900   5.233   4.446   8.710  2.7354 -0.0091  0.6248
  454MOL0     H59901   5.206   4.427   8.877  0.6667  3.8807 -2.8776
  454MOL0     H59902   5.244   4.186   8.698 -1.2495  1.6199 -0.1405
  454MOL0     H59903   5.263   4.196   8.874  0.5529 -2.3319 -0.9911
  454MOL0     H59904   5.441   4.376   8.804 -1.4526  0.1198 -1.0051
  454MOL0     H59905   5.443   4.314   8.644  2.9500  1.5028  1.5710
  454MOL0     H59906   5.492   4.134   8.879 -1.2574  2.4194  0.5692
  454MOL0     H59907   5.495   4.076   8.703  0.4573  2.4517 -2.7940
  454MOL0     H59908   5.665   4.252   8.667 -0.1578 -0.7538 -0.4698
  454MOL0     H59909   5.717   4.109   8.764 -2.8572 -1.6744  5.3179
  454MOL0     H59910   4.627   4.759   8.780  0.5088  2.4784 -3.3495
  454MOL0     H59911   4.372   4.802   8.761 -0.4789  0.2358  2.7566
  454MOL0     H59912   3.962   4.417   8.899  0.0209 -1.0837 -0.8627
  454MOL0     H59913   3.744   4.497   8.979  0.4062 -1.4224 -0.7930
  454MOL0     H59914   1.862   4.796   9.156 -1.1056  0.0054 -0.0265
  454MOL0     H59915   1.619   4.855   9.128  0.7807  1.6031  1.7367
  454MOL0     H59916   1.171   4.720   9.375 -2.7085 -1.7677  2.6537
  454MOL0     H59917   0.949   4.611   9.377 -0.6549  0.6274  0.9702
  454MOL0     H59918   0.866   4.319   9.242 -3.5196 -4.3280 -0.1331
  454MOL0     H59919   0.844   4.356   9.067  0.6283  1.4139 -0.3463
  454MOL0     H59920   0.644   4.341   9.293  1.0021  0.3257  1.0118
  454MOL0     H59921   0.620   4.383   9.108 -3.0680 -0.5454  0.6204
  454MOL0     H59922   0.692   4.112   9.237 -0.7644  3.8775  3.8743
  454MOL0     H59923   0.720   4.144   9.065  1.9111 -1.0745  2.3285
  454MOL0     H59924   0.434   4.184   9.184 -2.7583 -0.5187 -3.3301
  454MOL0     H59925   0.489   4.187   9.015  0.8608  1.5181 -0.2751
  454MOL0     H59926   0.454   3.778   9.074 -0.0121  0.1250 -1.1878
  454MOL0     H59927   0.992   4.485   8.979 -0.8444 -0.3676 -0.2530
  454MOL0     H59928   1.222   4.598   8.968 -2.0626  0.5668 -0.8934
  455MOL0     O59929   3.236   7.848   2.129  0.1985  0.1616  0.1027
  455MOL0     C59930   3.258   7.804   2.018 -0.8440  0.6176  0.2006
  455MOL0     O59931   3.327   7.693   1.995  0.7781 -0.6753 -0.0193
  455MOL0     C59932   3.384   7.633   2.102 -0.6181  0.5419 -0.6277
  455MOL0     C59933   3.502   7.685   2.158  0.9442 -0.1991  0.4088
  455MOL0     C59934   3.572   7.610   2.249 -0.1348  0.7624 -0.3996
  455MOL0     C59935   3.532   7.487   2.291 -0.4699  0.5256  0.4423
  455MOL0     O59936   3.631   7.419   2.354  0.7886  0.5285 -0.0944
  455MOL0     C59937   3.602   7.293   2.428  0.0699  0.0382  0.1071
  455MOL0     C59938   3.719   7.222   2.499  0.2458 -0.7868 -1.2586
  455MOL0     C59939   3.696   7.075   2.528  0.4224 -0.1297 -0.1973
  455MOL0     C59940   3.567   7.045   2.615 -0.2486 -0.1861  0.2164
  455MOL0     C59941   3.550   6.895   2.650  0.2620 -0.2684 -0.3013
  455MOL0     C59942   3.434   6.859   2.758 -0.6725 -0.4019  0.2208
  455MOL0     C59943   3.449   6.715   2.807  0.3125 -0.3676 -0.6042
  455MOL0     C59944   3.313   6.675   2.874 -0.8541 -0.0429 -1.0685
  455MOL0     N59945   3.284   6.745   3.004  0.1936  1.2695  0.6646
  455MOL0     C59946   3.367   6.791   3.099  0.1160 -0.2757 -0.9275
  455MOL0     C59947   3.280   6.860   3.186 -0.8115 -0.2957  0.4732
  455MOL0     C59948   3.303   6.934   3.313 -0.2787  0.2583  0.4685
  455MOL0     C59949   3.227   6.889   3.432  0.1372  0.3319  0.1062
  455MOL0     C59950   3.238   6.735   3.446  0.2853 -0.9291 -0.0715
  455MOL0     C59951   3.245   6.710   3.593 -0.4109  0.0481  0.7282
  455MOL0     O59952   3.160   6.776   3.669  0.0206  0.0938  0.1868
  455MOL0     C59953   3.185   6.788   3.804 -0.6722 -0.1995 -0.2511
  455MOL0     C59954   3.288   6.881   3.846  1.3751  0.2725 -0.1764
  455MOL0     C59955   3.315   6.887   3.979 -0.0772 -0.0598 -0.4405
  455MOL0     C59956   3.242   6.812   4.073 -0.6483 -0.5764 -0.2225
  455MOL0     C59957   3.262   6.833   4.220 -0.0413 -0.2629  0.9252
  455MOL0     O59958   3.152   6.841   4.302 -1.0741  0.6578 -0.5025
  455MOL0     C59959   3.173   6.880   4.435 -1.0747 -0.7731 -0.7728
  455MOL0     C59960   3.177   6.788   4.540 -0.0073  0.5208  0.1274
  455MOL0     C59961   3.220   6.827   4.670 -0.9078  0.2113  0.0621
  455MOL0     C59962   3.283   6.951   4.692  0.3738 -0.4833  0.2204
  455MOL0     O59963   3.338   6.986   4.815 -0.3058  0.9521 -0.9517
  455MOL0     C59964   3.328   7.121   4.863 -0.5274 -0.4268 -0.4037
  455MOL0     C59965   3.384   7.133   5.001  0.7986 -0.3229 -1.2359
  455MOL0     C59966   3.524   7.072   4.995  1.1159  0.3604  0.5051
  455MOL0     C59967   3.618   7.121   5.115  0.1997 -0.4518  1.0335
  455MOL0     C59968   3.598   7.043   5.240 -0.0611 -0.0758 -0.3055
  455MOL0     C59969   3.723   6.976   5.282  0.2557  0.3375 -0.0876
  455MOL0     C59970   3.765   6.855   5.185 -0.4579  0.4166 -0.0150
  455MOL0     C59971   3.893   6.792   5.250 -0.1809 -1.0181 -0.9319
  455MOL0    Cl59972   3.941   6.633   5.170  0.1202 -0.0801  0.2587
  455MOL0     C59973   3.278   7.045   4.589  0.5955 -0.5299 -1.0991
  455MOL0     C59974   3.229   7.011   4.463 -0.1914 -0.1594  0.4144
  455MOL0     O59975   3.377   6.850   4.251 -0.2241 -0.5917  0.2168
  455MOL0     C59976   3.144   6.733   4.030  0.2500  0.1491  1.2975
  455MOL0     C59977   3.110   6.719   3.892  0.1761  0.3823  0.4902
  455MOL0     N59978   3.151   6.837   3.139  0.4899 -0.6301  0.2874
  455MOL0     N59979   3.152   6.772   3.035 -1.0719 -0.0256 -0.4598
  455MOL0     C59980   3.401   7.441   2.249 -0.2101 -0.3419  0.2594
  455MOL0     C59981   3.327   7.511   2.147 -0.8156 -0.6405 -0.4761
  455MOL0     C59982   3.199   7.884   1.905 -0.0876 -0.6982  0.5081
  455MOL0     C59983   3.107   7.994   1.917 -1.0062 -0.0993  0.4333
  455MOL0     C59984   3.066   8.069   1.805  0.5851 -0.7140 -0.9497
  455MOL0     C59985   3.105   8.032   1.674  0.8890 -0.6747  0.5868
  455MOL0     O59986   3.060   8.109   1.564 -0.3026 -0.5024  0.5829
  455MOL0     C59987   3.145   8.123   1.453 -0.2729 -1.0539  0.6750
  455MOL0     C59988   3.273   8.199   1.489  0.3251  0.5866 -0.0136
  455MOL0     C59989   3.237   8.321   1.567  0.6606  0.3293 -1.1788
  455MOL0     C59990   3.356   8.420   1.595  0.1971  0.2910  0.2956
  455MOL0     C59991   3.322   8.501   1.711  0.4217 -0.1555  1.1434
  455MOL0     C59992   3.310   8.565   1.816 -0.3373  0.3430  0.6741
  455MOL0     C59993   3.191   7.922   1.667  0.0267  0.1569 -0.2932
  455MOL0     C59994   3.240   7.853   1.777  0.3793  0.1354  0.1563
  455MOL0     H59995   3.551   7.776   2.124  2.5736 -0.1008  2.7934
  455MOL0     H59996   3.677   7.637   2.261 -0.1036  0.6851 -0.4937
  455MOL0     H59997   3.574   7.222   2.349 -1.3119 -0.8025  1.3045
  455MOL0     H59998   3.516   7.307   2.494 -3.1226 -2.0374 -3.1951
  455MOL0     H59999   3.737   7.274   2.594  0.4121  0.7715 -2.1085
  455MOL0     H60000   3.801   7.252   2.434  2.1849 -1.5357  0.7304
  455MOL0     H60001   3.787   7.045   2.581 -2.2959 -0.5515  4.7919
  455MOL0     H60002   3.692   7.027   2.430  2.7634 -3.9511  1.3416
  455MOL0     H60003   3.564   7.113   2.701 -4.2849  4.5354 -3.0950
  455MOL0     H60004   3.479   7.065   2.553 -1.4979 -1.1072  1.6215
  455MOL0     H60005   3.650   6.867   2.684 -0.7058 -1.1168  2.0620
  455MOL0     H60006   3.516   6.839   2.563 -0.3390 -2.9880  1.5418
  455MOL0     H60007   3.340   6.869   2.704  0.3209  2.2286 -1.1911
  455MOL0     H60008   3.437   6.930   2.841  2.9001 -3.0997  2.7786
  455MOL0     H60009   3.460   6.662   2.712 -0.2578 -1.2721 -0.1839
  455MOL0     H60010   3.539   6.706   2.869  0.6081  0.4258 -0.9089
  455MOL0     H60011   3.309   6.567   2.891 -0.0656  0.0968  0.1681
  455MOL0     H60012   3.224   6.683   2.810 -0.5277  3.2857 -1.2907
  455MOL0     H60013   3.475   6.795   3.108 -0.0782  0.4641  5.2417
  455MOL0     H60014   3.292   7.043   3.308  0.5533  0.3169 -0.1868
  455MOL0     H60015   3.409   6.912   3.331  0.7685  1.9820 -2.8118
  455MOL0     H60016   3.125   6.926   3.443  1.0342  2.2857  3.2674
  455MOL0     H60017   3.288   6.928   3.513 -1.5898  0.4398  1.4068
  455MOL0     H60018   3.145   6.689   3.412  0.0912 -0.1704 -0.5889
  455MOL0     H60019   3.333   6.696   3.409  0.6715  1.8120 -2.3293
  455MOL0     H60020   3.347   6.740   3.616 -0.5569  0.8078  0.4137
  455MOL0     H60021   3.224   6.603   3.602 -3.7580  0.3332 -1.6451
  455MOL0     H60022   3.327   6.943   3.767 -0.4581 -2.8291 -3.8291
  455MOL0     H60023   3.382   6.962   4.021 -0.0583  0.4496 -1.3495
  455MOL0     H60024   3.134   6.688   4.532 -0.4431  0.7913 -1.1621
  455MOL0     H60025   3.230   6.779   4.767  1.3115  1.3175  0.4529
  455MOL0     H60026   3.226   7.160   4.858 -1.3009 -2.1739  0.7894
  455MOL0     H60027   3.402   7.177   4.806 -0.0100  0.4708  1.1010
  455MOL0     H60028   3.322   7.075   5.070  2.2990 -0.2011  0.2880
  455MOL0     H60029   3.386   7.234   5.041 -1.4880 -1.8134  3.2636
  455MOL0     H60030   3.575   7.079   4.899 -0.2704 -3.1343 -0.6277
  455MOL0     H60031   3.518   6.964   5.006 -3.6861  0.3338 -0.2153
  455MOL0     H60032   3.720   7.104   5.080  0.0016 -0.6755  0.5442
  455MOL0     H60033   3.620   7.229   5.129  1.9719 -0.0805 -1.4714
  455MOL0     H60034   3.531   6.960   5.212 -1.1990  1.6321 -3.0334
  455MOL0     H60035   3.562   7.107   5.322 -0.6752  2.6239 -2.5312
  455MOL0     H60036   3.690   6.928   5.374  0.0099 -2.2796 -1.4564
  455MOL0     H60037   3.805   7.045   5.301  1.2849 -0.8525 -0.1092
  455MOL0     H60038   3.692   6.774   5.188  2.2761 -2.2005  0.8743
  455MOL0     H60039   3.782   6.899   5.086 -0.3090 -0.3477 -0.3322
  455MOL0     H60040   3.860   6.764   5.351 -2.6075 -2.6136 -2.0638
  455MOL0     H60041   3.975   6.863   5.239  2.0838 -3.8446 -4.3139
  455MOL0     H60042   3.324   7.143   4.601  0.5196 -0.3420 -2.2309
  455MOL0     H60043   3.232   7.089   4.387 -3.5821  0.8632  1.1258
  455MOL0     H60044   3.083   6.694   4.111 -2.0944  0.3363 -0.3156
  455MOL0     H60045   3.023   6.667   3.854 -0.8038  2.5184 -0.3647
  455MOL0     H60046   3.359   7.345   2.279 -1.2817  0.4444  1.3658
  455MOL0     H60047   3.239   7.466   2.103 -2.0231 -0.8485  1.9490
  455MOL0     H60048   3.080   8.022   2.018 -0.5058 -0.7913  0.7671
  455MOL0     H60049   2.986   8.142   1.813  2.5001  1.3615  0.3616
  455MOL0     H60050   3.099   8.180   1.371  1.1521  1.1826  1.3128
  455MOL0     H60051   3.163   8.021   1.418 -1.4929 -0.5809 -1.5221
  455MOL0     H60052   3.340   8.134   1.547  1.5259  0.2393 -1.6799
  455MOL0     H60053   3.337   8.237   1.408  0.5137  0.7918  0.2310
  455MOL0     H60054   3.209   8.276   1.663  1.7109  1.3198 -0.3847
  455MOL0     H60055   3.159   8.385   1.524  0.3462  0.5192 -0.3494
  455MOL0     H60056   3.452   8.369   1.606 -0.0146  0.4603  4.2851
  455MOL0     H60057   3.352   8.485   1.507 -3.7768  4.2090  2.9648
  455MOL0     H60058   3.291   8.624   1.904 -0.6336  3.7401 -1.4638
  455MOL0     H60059   3.239   7.880   1.579 -0.1491  0.7980 -0.7001
  455MOL0     H60060   3.319   7.782   1.755 -0.4367 -2.1593  3.8119
  456MOL0     O60061   5.100   8.918   7.393 -0.3276  0.2619 -0.5972
  456MOL0     C60062   5.191   8.988   7.448 -0.0967  0.0147  1.1112
  456MOL0     O60063   5.178   9.107   7.510  0.3385 -0.5467  0.0882
  456MOL0     C60064   5.055   9.122   7.571  0.2312  0.6482  0.1776
  456MOL0     C60065   4.963   9.216   7.517  0.5237 -0.0369 -0.1837
  456MOL0     C60066   4.847   9.238   7.592  0.2362  0.3784 -0.6771
  456MOL0     C60067   4.828   9.170   7.712 -0.3823  0.3742  0.1946
  456MOL0     O60068   4.717   9.192   7.787  0.4293  0.7976  0.1093
  456MOL0     C60069   4.726   9.327   7.846 -0.0423  0.0921 -0.4965
  456MOL0     C60070   4.580   9.351   7.895  0.0615  0.2624  0.4771
  456MOL0     C60071   4.483   9.356   7.775 -0.2125  0.6444 -0.0577
  456MOL0     C60072   4.347   9.405   7.817  0.4836 -1.2007 -0.0848
  456MOL0     C60073   4.270   9.434   7.693  1.1308  0.6674 -0.0415
  456MOL0     C60074   4.208   9.310   7.626 -0.1253 -0.4067  0.0831
  456MOL0     C60075   4.163   9.343   7.483  0.2331 -0.0814  0.2520
  456MOL0     C60076   4.271   9.335   7.383  0.1555 -0.0568  0.7507
  456MOL0     N60077   4.341   9.213   7.391 -0.0751  0.6993 -0.0033
  456MOL0     C60078   4.468   9.176   7.436  0.9048  0.6651  0.5913
  456MOL0     C60079   4.483   9.042   7.415  0.6697 -0.3894 -0.6862
  456MOL0     C60080   4.596   8.961   7.458 -0.6577 -0.2305  0.2894
  456MOL0     C60081   4.543   8.835   7.530  0.7904 -0.6240  0.2029
  456MOL0     C60082   4.643   8.722   7.547 -0.2357 -0.3026 -0.2392
  456MOL0     C60083   4.768   8.736   7.635  1.6902 -0.1212  0.0517
  456MOL0     O60084   4.744   8.802   7.758  0.7154  0.2877  0.0704
  456MOL0     C60085   4.797   8.738   7.867 -0.4870  0.3040 -0.4892
  456MOL0     C60086   4.705   8.665   7.935 -0.1450  0.1676 -0.5677
  456MOL0     C60087   4.731   8.606   8.057  0.6824  0.4737  0.1943
  456MOL0     C60088   4.864   8.614   8.109  0.0711  1.0980  0.5289
  456MOL0     C60089   4.887   8.547   8.239 -0.7525 -1.4742  0.9872
  456MOL0     O60090   5.001   8.579   8.291 -0.0138 -1.1639 -0.8445
  456MOL0     C60091   5.052   8.475   8.354  0.1852  0.4796 -0.7033
  456MOL0     C60092   5.149   8.403   8.281 -0.4269 -0.0535  0.2347
  456MOL0     C60093   5.224   8.306   8.346 -0.3902  0.5896 -0.8823
  456MOL0     C60094   5.213   8.287   8.489  0.7364  0.3883  0.4140
  456MOL0     O60095   5.279   8.181   8.547  0.0500  1.1025  0.3324
  456MOL0     C60096   5.241   8.132   8.677  0.1101 -0.6130 -0.3464
  456MOL0     C60097   5.364   8.048   8.725  0.2400 -0.4244 -0.7212
  456MOL0     C60098   5.315   7.971   8.843  0.2097  0.1323 -0.0813
  456MOL0     C60099   5.430   7.913   8.926  0.2250  0.7289 -1.1407
  456MOL0     C60100   5.385   7.797   9.019  0.4963  0.1206  0.5158
  456MOL0     C60101   5.263   7.823   9.109  0.3812 -0.1718 -0.0438
  456MOL0     C60102   5.265   7.950   9.198 -0.1986 -0.0457  0.0865
  456MOL0     C60103   5.372   7.940   9.304 -0.4558 -0.3436  0.1155
  456MOL0    Cl60104   5.528   8.013   9.249 -0.4043  0.2230 -0.4329
  456MOL0     C60105   5.110   8.361   8.551  0.4408 -1.1749 -0.8419
  456MOL0     C60106   5.018   8.440   8.481  0.6499  0.1126 -0.8162
  456MOL0     O60107   4.798   8.477   8.293 -0.7953 -0.1715  0.4375
  456MOL0     C60108   4.969   8.685   8.034 -0.4976  0.3342 -0.2594
  456MOL0     C60109   4.929   8.741   7.914 -0.1159 -0.6725  1.0097
  456MOL0     N60110   4.368   9.003   7.345  0.0231  0.5459 -0.1043
  456MOL0     N60111   4.288   9.106   7.323 -0.1617 -0.4154 -0.3497
  456MOL0     C60112   4.928   9.090   7.773  0.3878 -0.8278 -0.1114
  456MOL0     C60113   5.042   9.066   7.699  1.2292 -0.3667  0.5093
  456MOL0     C60114   5.323   8.947   7.435  0.6266 -0.3682 -0.5500
  456MOL0     C60115   5.421   9.005   7.511 -0.0784 -1.2013  0.4637
  456MOL0     C60116   5.541   8.943   7.496 -0.8995 -0.0948  0.1836
  456MOL0     C60117   5.574   8.845   7.400 -0.0693  0.0219 -0.3840
  456MOL0     O60118   5.707   8.813   7.388  0.1535 -0.5600  0.7041
  456MOL0     C60119   5.771   8.808   7.258  0.2026 -0.0973  1.0787
  456MOL0     C60120   5.928   8.820   7.262  0.8340 -0.2043 -0.4119
  456MOL0     C60121   5.977   8.957   7.322 -0.1447  0.2861  0.5643
  456MOL0     C60122   6.013   8.955   7.466  0.5040  0.1055 -0.3637
  456MOL0     C60123   6.134   8.876   7.503  0.0628 -0.4319  0.0013
  456MOL0     C60124   6.240   8.830   7.544 -0.0960  0.5036 -0.3069
  456MOL0     C60125   5.472   8.784   7.325 -0.2991  0.3310  0.7621
  456MOL0     C60126   5.352   8.848   7.342  0.0043 -0.2044  0.7063
  456MOL0     H60127   4.981   9.262   7.420 -2.9616  0.1020 -0.8709
  456MOL0     H60128   4.769   9.303   7.552 -0.2907 -0.6332 -1.3321
  456MOL0     H60129   4.759   9.409   7.781 -2.8679 -0.4762 -2.8246
  456MOL0     H60130   4.791   9.334   7.934  0.5061 -0.5571 -0.8437
  456MOL0     H60131   4.585   9.447   7.948 -0.0132 -1.4741  3.8757
  456MOL0     H60132   4.551   9.264   7.955 -0.8707  0.7968  0.8329
  456MOL0     H60133   4.475   9.256   7.733 -1.1503  0.8500 -0.3947
  456MOL0     H60134   4.523   9.428   7.703  2.1751  0.0757  0.6100
  456MOL0     H60135   4.291   9.337   7.880  0.3595  0.2052  1.3744
  456MOL0     H60136   4.364   9.505   7.860 -0.1691 -1.1945  0.1693
  456MOL0     H60137   4.334   9.481   7.617  0.1302 -0.8254 -1.8869
  456MOL0     H60138   4.188   9.505   7.712  1.8965  2.6144 -3.1701
  456MOL0     H60139   4.129   9.256   7.679 -0.4679  1.0456  1.1192
  456MOL0     H60140   4.289   9.239   7.610 -0.3227 -0.2302 -1.9322
  456MOL0     H60141   4.088   9.269   7.456  2.9051 -3.2383  0.7790
  456MOL0     H60142   4.121   9.444   7.479  0.6639  0.1050  0.4044
  456MOL0     H60143   4.340   9.419   7.381  2.2279 -1.5607 -3.6678
  456MOL0     H60144   4.222   9.347   7.286 -1.8948  1.9457  1.9424
  456MOL0     H60145   4.539   9.235   7.494  0.5629  0.0608  1.6518
  456MOL0     H60146   4.664   9.025   7.515 -0.7094  0.5119 -0.4698
  456MOL0     H60147   4.641   8.929   7.363 -2.1855 -0.6959 -0.3086
  456MOL0     H60148   4.452   8.804   7.477 -2.2719  2.9606  2.7998
  456MOL0     H60149   4.511   8.872   7.628  2.4482  0.8316  0.2337
  456MOL0     H60150   4.580   8.640   7.583 -1.0089 -0.0747 -1.0339
  456MOL0     H60151   4.675   8.681   7.451 -0.0246 -2.3518  0.6646
  456MOL0     H60152   4.847   8.800   7.594  1.2643  0.1211 -0.3932
  456MOL0     H60153   4.820   8.641   7.652  3.8581  0.6963 -1.6149
  456MOL0     H60154   4.605   8.655   7.894  0.1464 -1.0390 -1.0342
  456MOL0     H60155   4.648   8.562   8.112  0.4174  0.7197 -0.0021
  456MOL0     H60156   5.154   8.420   8.173  0.8011 -1.9951 -0.0670
  456MOL0     H60157   5.287   8.242   8.285  0.0104  1.8005 -1.7924
  456MOL0     H60158   5.158   8.064   8.657  0.2775 -0.6402 -0.9710
  456MOL0     H60159   5.214   8.211   8.747 -1.4146 -2.5689  1.3925
  456MOL0     H60160   5.435   8.127   8.752  0.4273  1.2589 -5.2028
  456MOL0     H60161   5.409   7.989   8.645  5.0173  1.9002 -0.0540
  456MOL0     H60162   5.238   7.899   8.810 -2.0634  2.5768 -0.4902
  456MOL0     H60163   5.253   8.039   8.902 -1.4476 -1.6015  0.2793
  456MOL0     H60164   5.505   7.875   8.854 -0.3197 -0.9924 -0.8550
  456MOL0     H60165   5.465   8.001   8.980 -0.6755  0.3462  0.1067
  456MOL0     H60166   5.472   7.766   9.077  2.3390 -1.9316 -2.9847
  456MOL0     H60167   5.367   7.713   8.951  0.5277  0.7696 -0.3072
  456MOL0     H60168   5.239   7.734   9.168  1.3959  0.9064  2.1199
  456MOL0     H60169   5.178   7.834   9.042  0.5980 -0.8656 -0.4418
  456MOL0     H60170   5.285   8.039   9.138  1.0548 -1.4235 -1.6511
  456MOL0     H60171   5.169   7.954   9.250  1.3441  4.1949  3.1969
  456MOL0     H60172   5.385   7.833   9.325 -2.5838 -0.8468 -0.9148
  456MOL0     H60173   5.328   7.993   9.389 -1.5092 -2.1023  0.7347
  456MOL0     H60174   5.075   8.354   8.653  0.7436  3.8802 -0.1594
  456MOL0     H60175   4.925   8.479   8.522 -0.5021 -0.7875 -2.4241
  456MOL0     H60176   5.061   8.712   8.086  0.6764 -0.6683 -1.6945
  456MOL0     H60177   4.989   8.821   7.871 -2.0120  1.3426  1.9080
  456MOL0     H60178   4.913   9.053   7.874  2.6362 -3.8097 -0.7397
  456MOL0     H60179   5.131   9.025   7.746  0.8622  0.1130  1.6584
  456MOL0     H60180   5.417   9.102   7.558  2.2168 -0.9946  0.3311
  456MOL0     H60181   5.623   8.986   7.554 -1.6298  0.4964  0.7909
  456MOL0     H60182   5.732   8.887   7.193 -1.9868  2.1099  4.7096
  456MOL0     H60183   5.742   8.711   7.217 -4.5087  0.9069  1.4564
  456MOL0     H60184   5.973   8.732   7.309 -2.5349 -2.0473 -0.3056
  456MOL0     H60185   5.953   8.802   7.157 -0.6896 -1.4885 -0.5980
  456MOL0     H60186   5.904   9.035   7.296 -0.0086  0.5118  0.8562
  456MOL0     H60187   6.064   8.992   7.267  0.0727 -0.1123  0.6582
  456MOL0     H60188   6.030   9.053   7.513  5.5845 -1.8383  2.7646
  456MOL0     H60189   5.927   8.913   7.519 -0.0328 -0.8647 -1.9577
  456MOL0     H60190   6.333   8.788   7.577 -0.4294  0.7835  1.0233
  456MOL0     H60191   5.469   8.700   7.257  0.9614 -0.0884  1.1970
  456MOL0     H60192   5.275   8.804   7.279  0.7861 -0.8070  0.1399
  457MOL0     O60193   3.492   9.184  11.402  0.3485 -0.1987 -0.7520
  457MOL0     C60194   3.496   9.261  11.307 -0.0092  0.0464  0.2296
  457MOL0     O60195   3.570   9.238  11.194 -0.1863  0.3545  0.8049
  457MOL0     C60196   3.620   9.114  11.168  0.4725 -0.1087  0.1695
  457MOL0     C60197   3.758   9.101  11.112  1.4133 -0.5353 -0.1971
  457MOL0     C60198   3.823   8.982  11.084 -1.7464 -1.2055  0.0165
  457MOL0     C60199   3.750   8.862  11.098  0.5333  0.7490  0.2617
  457MOL0     O60200   3.803   8.740  11.089  0.1015  0.1405  0.1136
  457MOL0     C60201   3.943   8.728  11.097  0.1691  0.2443  0.3989
  457MOL0     C60202   4.007   8.583  11.083  0.9153 -0.5404 -0.0302
  457MOL0     C60203   3.951   8.490  11.191 -0.0803  0.3064  0.8625
  457MOL0     C60204   4.029   8.359  11.172 -0.1257 -0.6846 -0.6166
  457MOL0     C60205   3.969   8.244  11.254  0.2827  0.8228  0.6339
  457MOL0     C60206   3.828   8.199  11.198 -0.2498 -0.3401 -0.3729
  457MOL0     C60207   3.844   8.131  11.068  0.3843 -0.2010 -0.9475
  457MOL0     C60208   3.713   8.125  10.982 -0.5731 -0.5127  0.4926
  457MOL0     N60209   3.665   8.258  10.941 -0.0998  0.8204  0.4419
  457MOL0     C60210   3.746   8.347  10.871 -0.0816  0.0116  0.7340
  457MOL0     C60211   3.678   8.467  10.868 -0.6795  0.1587 -0.2302
  457MOL0     C60212   3.733   8.598  10.800 -0.7267 -0.7316 -0.4842
  457MOL0     C60213   3.724   8.597  10.645 -0.5033  0.4981 -0.8902
  457MOL0     C60214   3.807   8.702  10.572 -0.1214  0.3466 -0.7015
  457MOL0     C60215   3.789   8.677  10.426 -0.4013  0.2639  0.9191
  457MOL0     O60216   3.839   8.791  10.359 -0.6227 -1.4609 -0.4664
  457MOL0     C60217   3.905   8.767  10.236  0.8914  0.8262  0.0373
  457MOL0     C60218   3.908   8.646  10.149 -0.3375 -0.8640  0.4196
  457MOL0     C60219   3.984   8.656  10.033 -0.5565 -0.7037  0.0968
  457MOL0     C60220   4.058   8.767  10.004 -0.8463 -0.0382 -0.3850
  457MOL0     C60221   4.144   8.762   9.888 -0.5390  0.3258  0.9129
  457MOL0     O60222   4.234   8.864   9.876 -0.3985 -0.0050 -0.2013
  457MOL0     C60223   4.335   8.842   9.785  0.5369 -0.2895  0.6195
  457MOL0     C60224   4.317   8.904   9.657  0.9480  0.4042 -0.0952
  457MOL0     C60225   4.415   8.906   9.565  0.0026 -1.0703 -0.5260
  457MOL0     C60226   4.544   8.855   9.598 -0.0851  0.8137  0.2779
  457MOL0     O60227   4.649   8.850   9.518  0.2312 -0.4118 -0.9076
  457MOL0     C60228   4.650   8.902   9.387 -0.7079  0.4870 -0.0563
  457MOL0     C60229   4.772   8.843   9.304 -0.4556 -1.0524  0.2367
  457MOL0     C60230   4.764   8.702   9.263 -0.7193 -0.1122  0.2298
  457MOL0     C60231   4.651   8.673   9.159  0.1833 -0.2638  0.3349
  457MOL0     C60232   4.667   8.539   9.089  0.1745 -0.3621  0.4885
  457MOL0     C60233   4.552   8.497   9.000  0.3256  0.4505  0.4608
  457MOL0     C60234   4.568   8.351   8.947  0.5971 -0.6515 -0.5501
  457MOL0     C60235   4.567   8.248   9.056  0.5364 -0.0683  0.4641
  457MOL0    Cl60236   4.437   8.290   9.177 -0.4861  0.0913  0.1936
  457MOL0     C60237   4.565   8.780   9.716  0.4011 -0.7662  0.2229
  457MOL0     C60238   4.458   8.779   9.815 -0.6409 -0.0288 -0.1487
  457MOL0     O60239   4.147   8.661   9.816 -0.1282  0.7628  0.1049
  457MOL0     C60240   4.063   8.876  10.087 -0.0555  0.0084 -0.2463
  457MOL0     C60241   3.991   8.869  10.205  0.9661 -0.3771  0.8206
  457MOL0     N60242   3.558   8.458  10.932 -0.8192  0.0382  0.5698
  457MOL0     N60243   3.554   8.335  10.981  0.7199  0.7324 -0.2020
  457MOL0     C60244   3.609   8.870  11.130 -0.4629  0.7773  0.3158
  457MOL0     C60245   3.555   8.991  11.172  0.6548  0.7519  0.2033
  457MOL0     C60246   3.427   9.383  11.321  1.1456 -0.1792  0.1902
  457MOL0     C60247   3.324   9.413  11.409  0.1629 -0.0298 -0.6536
  457MOL0     C60248   3.263   9.539  11.429  0.3268  0.8929  1.1440
  457MOL0     C60249   3.301   9.650  11.341 -0.9605  0.1659  0.1477
  457MOL0     O60250   3.259   9.778  11.362  0.2525 -1.0644  0.9629
  457MOL0     C60251   3.204   9.857  11.252 -0.2041  0.6225  0.8895
  457MOL0     C60252   3.294   9.956  11.177 -0.1937  0.4952  0.1198
  457MOL0     C60253   3.339  10.064  11.284 -0.3488 -0.3821 -1.4743
  457MOL0     C60254   3.412  10.192  11.228  1.2083  1.2271 -0.4665
  457MOL0     C60255   3.451  10.264  11.346  0.0525  1.1554  0.2505
  457MOL0     C60256   3.473  10.326  11.450  1.2041 -0.1918  0.4476
  457MOL0     C60257   3.412   9.616  11.253  1.0907 -0.7855  0.3650
  457MOL0     C60258   3.476   9.493  11.249  0.4773  0.7097 -0.0441
  457MOL0     H60259   3.824   9.186  11.110  0.2052  0.4863 -3.0892
  457MOL0     H60260   3.929   8.998  11.072 -1.5617 -2.3787 -0.0513
  457MOL0     H60261   3.970   8.767  11.196 -1.9809  3.5453 -0.1198
  457MOL0     H60262   3.998   8.785  11.022 -0.1563  0.9672  0.6892
  457MOL0     H60263   4.116   8.574  11.078  0.7520 -3.7531  0.1411
  457MOL0     H60264   3.977   8.543  10.986 -1.0351  1.6702 -0.4313
  457MOL0     H60265   3.844   8.475  11.177 -0.0910  0.9415  0.2314
  457MOL0     H60266   3.959   8.530  11.293  0.9299  0.5823  0.6852
  457MOL0     H60267   4.039   8.336  11.066 -2.8353  1.1305 -1.3700
  457MOL0     H60268   4.129   8.380  11.212 -1.5300  1.5693  2.1000
  457MOL0     H60269   3.957   8.269  11.359 -1.9710 -0.5523  0.7883
  457MOL0     H60270   4.031   8.156  11.231  0.9854  0.7977  2.4473
  457MOL0     H60271   3.767   8.289  11.196  1.9459  1.3678  2.3896
  457MOL0     H60272   3.790   8.126  11.270  0.9631 -0.3616  0.2660
  457MOL0     H60273   3.915   8.179  11.000  0.3825  1.4439  0.1483
  457MOL0     H60274   3.865   8.025  11.083 -3.3087 -0.9483 -0.0666
  457MOL0     H60275   3.632   8.079  11.040 -1.4018  0.3413  0.0373
  457MOL0     H60276   3.728   8.065  10.891 -4.8405  2.0073 -2.2528
  457MOL0     H60277   3.840   8.319  10.824 -0.4086 -1.2272  0.7723
  457MOL0     H60278   3.835   8.616  10.837 -1.5806  2.5806  0.6344
  457MOL0     H60279   3.681   8.683  10.845  0.0862 -0.4356 -0.0648
  457MOL0     H60280   3.617   8.608  10.625 -2.1577  1.0877  5.7304
  457MOL0     H60281   3.765   8.498  10.623  0.0194  0.0287  1.7769
  457MOL0     H60282   3.772   8.804  10.588 -3.9051 -0.9164  0.3038
  457MOL0     H60283   3.912   8.685  10.595 -0.7361 -1.9753  0.7197
  457MOL0     H60284   3.686   8.645  10.403 -1.5160  3.0137  1.7316
  457MOL0     H60285   3.854   8.593  10.402  1.1084  1.5358  0.4119
  457MOL0     H60286   3.869   8.547  10.169  4.5424 -3.3986 -0.9576
  457MOL0     H60287   3.980   8.573   9.964 -1.8776  0.6136 -1.4753
  457MOL0     H60288   4.221   8.952   9.642  1.5181  1.0313 -1.9027
  457MOL0     H60289   4.413   8.955   9.468 -1.6621  1.5915  0.7391
  457MOL0     H60290   4.654   9.011   9.390  0.3672  0.8081 -5.2120
  457MOL0     H60291   4.558   8.867   9.340 -2.1436  0.3676  2.6595
  457MOL0     H60292   4.855   8.856   9.375  1.0617 -0.2985 -1.6135
  457MOL0     H60293   4.802   8.900   9.216 -3.0240 -0.2758 -0.2157
  457MOL0     H60294   4.739   8.641   9.350  0.0259  0.2880  0.7360
  457MOL0     H60295   4.858   8.660   9.228  0.1046  2.4931 -0.9643
  457MOL0     H60296   4.553   8.680   9.206  0.5713  1.9260  0.9286
  457MOL0     H60297   4.666   8.754   9.088  0.0881  0.6247  1.3146
  457MOL0     H60298   4.679   8.476   9.178  1.5103 -0.8193  0.0076
  457MOL0     H60299   4.757   8.523   9.029 -1.3809 -0.3452 -1.9768
  457MOL0     H60300   4.537   8.561   8.913 -3.8405  0.7401  1.1785
  457MOL0     H60301   4.461   8.513   9.058  1.4880  3.3567  1.6965
  457MOL0     H60302   4.489   8.324   8.877 -0.8905 -4.1927  2.1706
  457MOL0     H60303   4.662   8.343   8.891  2.8177 -1.0084  2.9213
  457MOL0     H60304   4.667   8.244   9.100  2.5167 -3.9006 -3.5025
  457MOL0     H60305   4.552   8.144   9.026  2.6800 -0.4548  0.5884
  457MOL0     H60306   4.660   8.740   9.748  0.1894  1.7592  4.8207
  457MOL0     H60307   4.471   8.738   9.914 -0.4592  1.1787  0.3433
  457MOL0     H60308   4.129   8.961  10.071 -0.1462 -0.2093 -1.9435
  457MOL0     H60309   3.976   8.957  10.268 -2.6434 -1.6921  2.0599
  457MOL0     H60310   3.556   8.776  11.128  2.5733 -1.1558 -3.7860
  457MOL0     H60311   3.448   8.996  11.184  0.5212  0.9801 -0.9869
  457MOL0     H60312   3.312   9.340  11.488  4.2560 -0.1452  0.0476
  457MOL0     H60313   3.180   9.555  11.497 -1.2904 -1.1694 -0.2691
  457MOL0     H60314   3.110   9.894  11.295  0.4252 -0.8789  3.8490
  457MOL0     H60315   3.183   9.793  11.166 -1.5515  3.7910 -1.3292
  457MOL0     H60316   3.382   9.917  11.125 -1.3444  1.1187 -2.4588
  457MOL0     H60317   3.230   9.999  11.099  2.9383 -0.3059 -3.1592
  457MOL0     H60318   3.406  10.013  11.354 -1.5557 -2.1857 -1.5473
  457MOL0     H60319   3.260  10.104  11.348  0.0787  0.2811 -1.3522
  457MOL0     H60320   3.493  10.173  11.157  2.0761 -0.3744  0.8746
  457MOL0     H60321   3.344  10.258  11.174  3.1985 -0.2538 -5.4603
  457MOL0     H60322   3.486  10.390  11.534  1.2402 -1.5458  1.5018
  457MOL0     H60323   3.463   9.704  11.213  1.2159  0.1126  2.3913
  457MOL0     H60324   3.566   9.484  11.190  1.4310  0.9346  1.3169
  458MOL0     O60325   9.512   2.914  10.542 -0.3461  0.3275 -0.4138
  458MOL0     C60326   9.515   2.802  10.597  0.6113 -0.1088  0.6172
  458MOL0     O60327   9.417   2.745  10.668  0.5794  0.0522  0.6440
  458MOL0     C60328   9.288   2.796  10.657 -0.7619 -0.7132 -0.1197
  458MOL0     C60329   9.212   2.797  10.769 -0.9514 -0.2609  0.1631
  458MOL0     C60330   9.081   2.845  10.766  0.6139  0.1938 -0.3298
  458MOL0     C60331   9.032   2.904  10.646  0.4084  0.0260 -0.7460
  458MOL0     O60332   8.902   2.944  10.612 -0.4719 -0.5521 -0.0805
  458MOL0     C60333   8.807   2.957  10.722 -0.3093 -0.0497  1.0461
  458MOL0     C60334   8.667   2.964  10.672  0.4350 -0.7112  1.1983
  458MOL0     C60335   8.641   3.074  10.559 -0.2663 -0.6765  0.0104
  458MOL0     C60336   8.681   3.216  10.592  0.2639 -0.4141  0.0811
  458MOL0     C60337   8.697   3.322  10.477  0.0696  0.6260 -0.4624
  458MOL0     C60338   8.831   3.293  10.396  0.6012 -0.4702 -0.7109
  458MOL0     C60339   8.844   3.363  10.261 -0.4030 -0.5651 -0.0616
  458MOL0     C60340   8.826   3.519  10.264 -0.4557  0.1398  0.1859
  458MOL0     N60341   8.828   3.575  10.127 -0.0437  0.5251  0.3510
  458MOL0     C60342   8.726   3.644  10.067 -0.4525 -1.4293  0.4430
  458MOL0     C60343   8.775   3.684   9.946  1.0522 -0.9009  0.6529
  458MOL0     C60344   8.701   3.761   9.842  0.4825 -0.2944  0.3147
  458MOL0     C60345   8.724   3.908   9.864  0.5209  0.2267  0.9359
  458MOL0     C60346   8.630   3.994   9.767  0.2453 -0.6303 -0.1746
  458MOL0     C60347   8.662   3.981   9.623 -0.0126  0.1838 -0.1580
  458MOL0     O60348   8.572   4.065   9.542  0.1558  0.6814  0.0348
  458MOL0     C60349   8.582   4.068   9.404  0.2271  0.5079 -1.2606
  458MOL0     C60350   8.676   3.991   9.330 -0.5383  0.7052  0.6798
  458MOL0     C60351   8.660   3.984   9.192 -1.2120  0.1624  0.4849
  458MOL0     C60352   8.575   4.073   9.120 -0.3260  0.6728  0.7866
  458MOL0     C60353   8.582   4.079   8.965  0.1214 -0.3160  0.7600
  458MOL0     O60354   8.673   3.993   8.904 -0.2977  0.3497  0.3384
  458MOL0     C60355   8.677   3.971   8.768 -0.3059 -0.2761 -0.3100
  458MOL0     C60356   8.679   3.840   8.713 -0.0471  0.3398 -0.9429
  458MOL0     C60357   8.707   3.817   8.574 -0.0046 -0.4454  0.2212
  458MOL0     C60358   8.725   3.925   8.479  0.2193 -0.1188 -0.8445
  458MOL0     O60359   8.774   3.909   8.352 -0.3756 -0.7569  0.7490
  458MOL0     C60360   8.832   3.782   8.310  0.3135 -0.8562  0.0396
  458MOL0     C60361   8.829   3.780   8.154  0.0875  0.0663 -1.1648
  458MOL0     C60362   8.926   3.884   8.107  0.3528 -0.8647  0.5087
  458MOL0     C60363   8.905   3.913   7.956 -0.1057  0.3295 -0.5203
  458MOL0     C60364   9.022   3.998   7.909 -0.6031 -0.5643  0.5900
  458MOL0     C60365   8.971   4.060   7.773 -0.5589  0.8709 -0.5995
  458MOL0     C60366   9.070   4.152   7.703 -1.0285 -0.4411  0.3050
  458MOL0     C60367   9.089   4.279   7.789 -0.1286  0.0225  0.0130
  458MOL0    Cl60368   9.217   4.242   7.901  0.3253  0.1623  0.1259
  458MOL0     C60369   8.720   4.051   8.545  0.8936 -0.1898  0.7651
  458MOL0     C60370   8.706   4.079   8.686 -1.4149  0.3267  0.9784
  458MOL0     O60371   8.507   4.156   8.903 -0.1414 -0.3792  1.2742
  458MOL0     C60372   8.498   4.156   9.191 -0.5184  0.6395 -0.2224
  458MOL0     C60373   8.497   4.148   9.327  0.7449  0.8736  0.0189
  458MOL0     N60374   8.898   3.634   9.935 -0.2366 -0.2704 -0.8491
  458MOL0     N60375   8.922   3.557  10.033 -0.7615  1.6872  0.7912
  458MOL0     C60376   9.107   2.908  10.531 -0.5974 -0.4109 -0.2752
  458MOL0     C60377   9.236   2.857  10.531  0.5553 -0.4338  0.4783
  458MOL0     C60378   9.640   2.724  10.593 -0.6585  1.2836  0.8320
  458MOL0     C60379   9.640   2.592  10.646  0.6119 -0.0502 -0.9447
  458MOL0     C60380   9.751   2.509  10.645 -0.1468 -0.4630 -0.4198
  458MOL0     C60381   9.874   2.558  10.583 -0.5949 -0.3094  0.0651
  458MOL0     O60382   9.991   2.497  10.580 -0.6214  0.0029  0.4396
  458MOL0     C60383  10.025   2.380  10.659  1.6517 -0.2136  0.1408
  458MOL0     C60384  10.172   2.385  10.644  0.3576  0.6571  0.1920
  458MOL0     C60385  10.229   2.258  10.692  0.5599 -0.5932 -0.0217
  458MOL0     C60386  10.346   2.283  10.781  0.6698 -0.3103 -0.1686
  458MOL0     C60387  10.316   2.303  10.923  0.2625  0.0904 -0.8083
  458MOL0     C60388  10.301   2.316  11.051 -0.0017  0.4987  0.7921
  458MOL0     C60389   9.875   2.687  10.526  0.1108  0.0941 -0.2156
  458MOL0     C60390   9.760   2.764  10.524  1.0194  0.8056 -0.8474
  458MOL0     H60391   9.259   2.762  10.861 -0.0533  3.0488  1.0851
  458MOL0     H60392   9.023   2.821  10.856  0.1528 -2.9638 -1.3573
  458MOL0     H60393   8.828   3.054  10.770 -1.7800  1.5121 -1.2709
  458MOL0     H60394   8.808   2.881  10.800 -1.0434  1.9803  3.1556
  458MOL0     H60395   8.612   2.999  10.760  1.4275  1.2030  1.1340
  458MOL0     H60396   8.636   2.863  10.645  1.4063 -0.7726  0.2351
  458MOL0     H60397   8.533   3.071  10.545 -0.4914  1.6150  0.8028
  458MOL0     H60398   8.688   3.042  10.465 -0.7417 -0.2223 -0.3937
  458MOL0     H60399   8.603   3.258  10.657  4.4436  0.7423  5.0122
  458MOL0     H60400   8.777   3.222  10.643  0.8139  1.2980 -1.0547
  458MOL0     H60401   8.696   3.423  10.521  1.3324 -0.2183  1.6792
  458MOL0     H60402   8.615   3.300  10.408  1.9631 -0.0117 -2.6396
  458MOL0     H60403   8.821   3.186  10.376 -1.2929 -0.2639 -1.0623
  458MOL0     H60404   8.923   3.302  10.454  0.2554  2.4512 -0.4665
  458MOL0     H60405   8.939   3.329  10.219  1.0157  2.3442  0.5473
  458MOL0     H60406   8.760   3.332  10.198 -1.4766 -1.4773  1.7391
  458MOL0     H60407   8.909   3.553  10.327  0.7483 -2.9108  0.4140
  458MOL0     H60408   8.733   3.552  10.310  0.5189 -1.8700  3.9839
  458MOL0     H60409   8.632   3.670  10.115  1.3178  1.5033  2.6794
  458MOL0     H60410   8.594   3.737   9.853  0.0519  0.7493 -1.2980
  458MOL0     H60411   8.725   3.731   9.740  3.6949 -0.2425  0.9716
  458MOL0     H60412   8.828   3.933   9.843 -0.6834  1.8118 -4.9905
  458MOL0     H60413   8.699   3.927   9.969  0.4064 -3.0626  1.6074
  458MOL0     H60414   8.525   3.971   9.785  0.0227  2.1168  3.0751
  458MOL0     H60415   8.634   4.095   9.809 -2.9485 -1.4354  2.4623
  458MOL0     H60416   8.647   3.876   9.597 -0.0789  0.1877 -0.1351
  458MOL0     H60417   8.762   4.021   9.604 -0.4782  1.5497  0.1809
  458MOL0     H60418   8.763   3.945   9.375 -1.1386 -1.4448 -0.2251
  458MOL0     H60419   8.727   3.920   9.136  0.5723  0.4244  2.1870
  458MOL0     H60420   8.660   3.750   8.771 -3.1252  1.2876 -0.3250
  458MOL0     H60421   8.717   3.710   8.559  1.9006 -0.2523 -0.1240
  458MOL0     H60422   8.781   3.691   8.342 -0.4660 -1.3586 -2.4018
  458MOL0     H60423   8.934   3.780   8.349 -0.2177  1.3437  1.6938
  458MOL0     H60424   8.726   3.791   8.120  0.4327 -0.1255 -2.3517
  458MOL0     H60425   8.868   3.685   8.116 -1.0560 -0.3584 -1.3166
  458MOL0     H60426   9.028   3.850   8.127  1.0300 -1.5178 -3.2264
  458MOL0     H60427   8.929   3.981   8.157  3.0563  0.2346 -1.5569
  458MOL0     H60428   8.907   3.816   7.904 -2.5150  0.5037 -1.0410
  458MOL0     H60429   8.809   3.960   7.935 -0.2050  0.3047 -0.1379
  458MOL0     H60430   9.112   3.937   7.896 -1.5343 -1.6447 -1.1924
  458MOL0     H60431   9.038   4.077   7.983  0.9355 -0.3089  0.0334
  458MOL0     H60432   8.892   4.132   7.796 -0.0862  0.7421  1.6083
  458MOL0     H60433   8.930   3.984   7.706 -2.1552  1.1475  0.0150
  458MOL0     H60434   9.168   4.104   7.697 -1.0515 -0.3315 -1.7390
  458MOL0     H60435   9.040   4.168   7.599  1.2091  2.2589 -0.0444
  458MOL0     H60436   8.999   4.311   7.843  0.3457  0.7288  0.4130
  458MOL0     H60437   9.112   4.369   7.731 -0.9241  1.7883  2.2892
  458MOL0     H60438   8.741   4.141   8.487  1.5033 -0.6669  0.2379
  458MOL0     H60439   8.710   4.181   8.723 -0.7976  1.4929 -2.0145
  458MOL0     H60440   8.428   4.220   9.138 -0.0327  0.2880 -1.3288
  458MOL0     H60441   8.423   4.209   9.377  0.3505  1.0846 -0.7953
  458MOL0     H60442   9.060   2.950  10.442  0.6115  1.9014  0.0988
  458MOL0     H60443   9.287   2.832  10.439 -1.5147 -1.0024 -0.5789
  458MOL0     H60444   9.548   2.549  10.684  0.1771  1.4530 -0.1810
  458MOL0     H60445   9.745   2.415  10.698  0.4847 -0.0884  0.3416
  458MOL0     H60446   9.998   2.288  10.605  0.9334 -0.5517  1.0547
  458MOL0     H60447   9.993   2.379  10.763 -2.9235 -1.3907 -1.0328
  458MOL0     H60448  10.185   2.394  10.535 -2.4705 -1.7359 -0.4748
  458MOL0     H60449  10.216   2.476  10.685 -2.8357  2.4524 -0.0004
  458MOL0     H60450  10.251   2.192  10.608 -0.8897  0.5006 -1.3295
  458MOL0     H60451  10.154   2.212  10.758  1.0339 -1.4442 -0.0712
  458MOL0     H60452  10.398   2.187  10.774 -1.5575 -1.6390  0.5465
  458MOL0     H60453  10.413   2.364  10.750 -0.7273  1.6138  1.5025
  458MOL0     H60454  10.280   2.329  11.155  0.1503  0.4661  0.8274
  458MOL0     H60455   9.967   2.705  10.472 -0.5346 -0.8309 -1.7108
  458MOL0     H60456   9.756   2.850  10.458  4.4554 -0.0351 -2.3627
  459MOL0     O60457   4.140   2.760   4.274 -0.4181  0.2129  0.0511
  459MOL0     C60458   4.134   2.678   4.180 -0.5102  0.0331  0.8307
  459MOL0     O60459   4.167   2.709   4.049  0.8235 -0.0884 -0.0713
  459MOL0     C60460   4.238   2.823   3.999  0.2648  0.2556  0.3695
  459MOL0     C60461   4.292   2.810   3.873 -0.4696  0.3220 -0.1192
  459MOL0     C60462   4.349   2.927   3.815  0.1524 -0.6487  0.3647
  459MOL0     C60463   4.357   3.050   3.889  0.2686 -0.1825 -0.3682
  459MOL0     O60464   4.389   3.158   3.807  0.1148  0.5041 -0.8984
  459MOL0     C60465   4.435   3.288   3.862  0.2708 -0.1157  0.2946
  459MOL0     C60466   4.457   3.394   3.751 -0.1002 -0.6731 -0.0620
  459MOL0     C60467   4.474   3.537   3.805 -0.2416 -0.3857 -0.3216
  459MOL0     C60468   4.346   3.585   3.889  0.4931  0.6232 -0.0147
  459MOL0     C60469   4.340   3.738   3.866 -0.5550  0.6631 -0.2683
  459MOL0     C60470   4.211   3.785   3.927  1.1026  0.5674 -0.5572
  459MOL0     C60471   4.180   3.918   3.868 -0.1493 -0.4239  0.4542
  459MOL0     C60472   4.084   3.921   3.746 -0.8730 -0.2667  0.8761
  459MOL0     N60473   4.086   4.038   3.654 -0.7349 -0.4537 -0.4037
  459MOL0     C60474   4.023   4.157   3.659  0.1565 -0.1325 -0.4365
  459MOL0     C60475   4.046   4.214   3.537  0.2765  0.3430 -0.2130
  459MOL0     C60476   3.981   4.345   3.503  0.7087  1.0571 -0.1999
  459MOL0     C60477   3.844   4.309   3.436 -0.0467 -0.4329 -0.6754
  459MOL0     C60478   3.761   4.429   3.399 -0.1860 -0.2048  1.1271
  459MOL0     C60479   3.618   4.399   3.347 -0.3431  0.3451 -0.0576
  459MOL0     O60480   3.539   4.389   3.471  0.0263  0.3550 -0.6115
  459MOL0     C60481   3.405   4.363   3.453 -0.0090  0.0482  0.0856
  459MOL0     C60482   3.334   4.375   3.330 -0.8145  0.1607  0.6213
  459MOL0     C60483   3.198   4.354   3.323  0.2729 -0.7546  0.4501
  459MOL0     C60484   3.123   4.312   3.433  0.0301  0.0946  0.4932
  459MOL0     C60485   2.975   4.295   3.426 -0.1013 -0.0868 -0.2480
  459MOL0     O60486   2.909   4.251   3.546  0.6296  0.4858  0.0514
  459MOL0     C60487   2.780   4.191   3.552  0.3346  0.3323  0.2436
  459MOL0     C60488   2.723   4.131   3.428  0.2501 -0.1696 -0.9959
  459MOL0     C60489   2.606   4.060   3.436  0.0496  0.9071 -1.3579
  459MOL0     C60490   2.539   4.039   3.562  0.3294 -0.5120 -0.0693
  459MOL0     O60491   2.418   3.977   3.560 -0.7592 -1.0575  0.0681
  459MOL0     C60492   2.313   4.075   3.551  1.3626  0.1288 -0.8010
  459MOL0     C60493   2.178   4.004   3.540  0.1236  0.1137 -0.6164
  459MOL0     C60494   2.134   3.980   3.391 -0.3109  0.7515 -0.9703
  459MOL0     C60495   2.000   3.913   3.379 -0.3513  0.1818  0.0304
  459MOL0     C60496   1.986   3.862   3.236  0.1213 -1.0735 -0.0657
  459MOL0     C60497   1.867   3.771   3.219  0.3892  0.0732  0.1591
  459MOL0     C60498   1.856   3.726   3.073 -0.1796 -0.2066 -0.7236
  459MOL0     C60499   1.729   3.642   3.033 -0.1352  0.1335  1.0520
  459MOL0    Cl60500   1.679   3.540   3.172  0.2972 -0.0807 -0.7638
  459MOL0     C60501   2.586   4.103   3.669  0.0640 -0.1717 -0.0304
  459MOL0     C60502   2.711   4.172   3.676 -0.1878 -0.0155 -0.5775
  459MOL0     O60503   2.926   4.327   3.316  0.0273  0.5294 -0.4584
  459MOL0     C60504   3.194   4.305   3.558 -1.2403 -0.3583 -0.2313
  459MOL0     C60505   3.333   4.334   3.570  0.0039  0.2354  0.0056
  459MOL0     N60506   4.126   4.128   3.461  0.6619 -0.2175 -0.3422
  459MOL0     N60507   4.150   4.024   3.535  0.3973 -0.0990 -0.3704
  459MOL0     C60508   4.305   3.054   4.013 -0.1060 -0.1997  0.2693
  459MOL0     C60509   4.252   2.941   4.068 -1.5433  0.7712 -0.3705
  459MOL0     C60510   4.060   2.556   4.215 -1.2156 -0.6244 -0.1592
  459MOL0     C60511   3.976   2.493   4.123 -0.0610  0.0405  0.4791
  459MOL0     C60512   3.919   2.369   4.157  0.1183  0.5155  0.2118
  459MOL0     C60513   3.949   2.300   4.272  0.2661 -1.4128 -0.0506
  459MOL0     O60514   3.894   2.181   4.292 -0.0223  1.4236 -0.4998
  459MOL0     C60515   3.754   2.184   4.290  1.0248 -0.3478 -0.4642
  459MOL0     C60516   3.699   2.037   4.311 -0.5330  0.0597  0.3978
  459MOL0     C60517   3.594   2.032   4.422  0.2418 -0.2892  0.5986
  459MOL0     C60518   3.517   1.898   4.432 -0.5280 -0.4511  0.7644
  459MOL0     C60519   3.376   1.917   4.397  0.0148 -0.3942 -0.6076
  459MOL0     C60520   3.258   1.910   4.363 -0.4493 -0.2952  0.3200
  459MOL0     C60521   4.036   2.358   4.361  1.0427 -1.3882  0.3089
  459MOL0     C60522   4.084   2.490   4.341 -0.1738 -1.0025 -0.4114
  459MOL0     H60523   4.302   2.712   3.827  0.5974 -0.0521  0.8526
  459MOL0     H60524   4.398   2.935   3.718 -2.1533  0.8798 -0.7750
  459MOL0     H60525   4.528   3.284   3.919  0.0174  1.2938  0.8369
  459MOL0     H60526   4.351   3.326   3.921  0.2529 -1.5634  1.2544
  459MOL0     H60527   4.369   3.398   3.687  0.0966  0.6002 -0.2755
  459MOL0     H60528   4.544   3.367   3.690 -1.4084 -0.0680 -2.2835
  459MOL0     H60529   4.489   3.601   3.717  0.5180 -1.0358 -0.6800
  459MOL0     H60530   4.565   3.542   3.866 -1.0831 -1.1053  1.0379
  459MOL0     H60531   4.252   3.545   3.851  1.2807 -1.5322  0.1473
  459MOL0     H60532   4.356   3.562   3.995 -1.3294  0.1247  0.0779
  459MOL0     H60533   4.338   3.743   3.757 -1.7123  2.4252 -0.2081
  459MOL0     H60534   4.428   3.786   3.909 -0.1129 -0.8934  0.6498
  459MOL0     H60535   4.229   3.800   4.034  0.3108 -1.2335 -0.1382
  459MOL0     H60536   4.129   3.714   3.911  1.3567  0.7335 -2.7744
  459MOL0     H60537   4.119   3.964   3.946  1.5764 -1.5454  2.5353
  459MOL0     H60538   4.272   3.975   3.855  2.3403 -4.1039  0.5253
  459MOL0     H60539   3.981   3.909   3.781 -0.9910  0.5248  0.8330
  459MOL0     H60540   4.111   3.832   3.688  0.8189  0.9381 -0.2912
  459MOL0     H60541   3.969   4.203   3.742 -0.9981 -2.5255  0.2554
  459MOL0     H60542   4.045   4.397   3.432  0.8477  0.2333 -0.6783
  459MOL0     H60543   3.959   4.407   3.591  1.3905  0.9563  0.0496
  459MOL0     H60544   3.789   4.251   3.511 -1.5224  1.7752  0.0645
  459MOL0     H60545   3.876   4.237   3.360  2.5133 -0.6384  0.5249
  459MOL0     H60546   3.744   4.490   3.488  0.3865  0.3704  0.8565
  459MOL0     H60547   3.804   4.490   3.318  2.9383  0.1033  2.8405
  459MOL0     H60548   3.617   4.298   3.303  2.7579  0.9170 -1.7196
  459MOL0     H60549   3.581   4.482   3.286 -1.2657 -1.1200 -1.5859
  459MOL0     H60550   3.382   4.394   3.234 -1.0345  1.4532  0.7494
  459MOL0     H60551   3.148   4.351   3.227  0.3386  0.5540  0.3539
  459MOL0     H60552   2.784   4.139   3.339  0.0621  0.8232 -1.0475
  459MOL0     H60553   2.570   4.005   3.350  3.6364 -5.1868  0.4011
  459MOL0     H60554   2.336   4.143   3.468  0.1243  0.4143 -0.9291
  459MOL0     H60555   2.322   4.129   3.646 -3.2506 -2.6987  1.6481
  459MOL0     H60556   2.102   4.065   3.591  0.4737  2.2965 -2.4961
  459MOL0     H60557   2.171   3.914   3.602  0.3677 -1.3947 -2.6829
  459MOL0     H60558   2.203   3.916   3.334 -0.1383  1.3795 -1.4795
  459MOL0     H60559   2.126   4.078   3.342 -0.2451  1.2258 -0.0408
  459MOL0     H60560   1.973   3.840   3.456 -0.4464  0.7769  0.5642
  459MOL0     H60561   1.926   3.985   3.414 -2.7443 -2.0571 -0.0406
  459MOL0     H60562   2.067   3.792   3.212 -1.5008 -2.8394 -0.6198
  459MOL0     H60563   1.980   3.942   3.161 -1.8203 -0.8263  0.3001
  459MOL0     H60564   1.776   3.818   3.257 -0.9641 -1.3869 -1.1661
  459MOL0     H60565   1.891   3.680   3.274 -1.0264 -0.5519 -0.2253
  459MOL0     H60566   1.869   3.814   3.009 -1.6264  0.4458 -0.1517
  459MOL0     H60567   1.933   3.649   3.061 -2.2052 -2.3213 -0.9735
  459MOL0     H60568   1.750   3.587   2.940  2.8040  0.2522  1.5566
  459MOL0     H60569   1.647   3.713   3.016 -0.2266 -0.5594 -2.0567
  459MOL0     H60570   2.538   4.089   3.765 -1.9423  2.2957 -0.5719
  459MOL0     H60571   2.749   4.204   3.773  1.2460 -4.3503  0.5120
  459MOL0     H60572   3.155   4.278   3.656  2.5659  1.4146  2.0064
  459MOL0     H60573   3.385   4.330   3.665  0.1983 -2.0288 -0.1435
  459MOL0     H60574   4.298   3.149   4.066 -2.9403  1.7155 -3.1704
  459MOL0     H60575   4.218   2.945   4.171 -3.3491  1.1692 -0.9422
  459MOL0     H60576   3.944   2.535   4.028  1.7034  1.9511  0.6711
  459MOL0     H60577   3.862   2.309   4.087 -1.1867 -2.4441  3.4989
  459MOL0     H60578   3.719   2.211   4.190  2.6097 -1.0503 -1.2475
  459MOL0     H60579   3.714   2.255   4.363  0.0261 -0.9051 -0.4510
  459MOL0     H60580   3.638   2.009   4.224 -1.5346 -0.3637  1.2114
  459MOL0     H60581   3.781   1.966   4.327  1.8977  2.8001  0.9567
  459MOL0     H60582   3.526   2.116   4.403 -0.9785 -1.3000  0.3172
  459MOL0     H60583   3.637   2.053   4.520 -0.3824 -1.8301  1.2319
  459MOL0     H60584   3.562   1.824   4.365 -1.7614 -0.9761  0.5035
  459MOL0     H60585   3.522   1.860   4.534 -0.1167  0.6254  1.1609
  459MOL0     H60586   3.157   1.919   4.329 -0.0133 -0.9332 -1.2703
  459MOL0     H60587   4.054   2.304   4.453  4.2636 -2.3877 -0.7671
  459MOL0     H60588   4.135   2.540   4.423  2.0448 -1.4011 -1.4752
  460MOL0     O60589   2.953   0.977   1.428  0.8672  0.2186  0.2502
  460MOL0     C60590   3.019   0.984   1.524  0.1465  0.1811 -1.0021
  460MOL0     O60591   3.085   1.099   1.563  0.7021  0.1506 -0.9064
  460MOL0     C60592   3.041   1.220   1.515  0.3089  1.4862 -0.5815
  460MOL0     C60593   3.018   1.313   1.609  0.7306  0.7173 -0.3860
  460MOL0     C60594   2.990   1.448   1.577 -0.5049  0.7229  0.5609
  460MOL0     C60595   3.018   1.494   1.447 -0.0885 -0.0771  0.6352
  460MOL0     O60596   3.009   1.624   1.418  0.5038  0.2393  0.7040
  460MOL0     C60597   2.927   1.707   1.502  0.1254  0.8450  0.6722
  460MOL0     C60598   2.916   1.840   1.425 -0.8663  0.0192 -0.0534
  460MOL0     C60599   2.809   1.943   1.470 -0.5869  0.2565 -0.8567
  460MOL0     C60600   2.742   1.997   1.345 -0.3312 -0.2125 -0.1150
  460MOL0     C60601   2.668   2.128   1.377 -0.0702  0.4728 -0.6495
  460MOL0     C60602   2.770   2.241   1.412 -0.3026 -0.2136  0.1722
  460MOL0     C60603   2.713   2.377   1.382  0.5390  0.1060 -0.3078
  460MOL0     C60604   2.827   2.487   1.407 -0.1722 -0.0758  0.7775
  460MOL0     N60605   2.842   2.508   1.556  0.1794 -0.4971 -0.3889
  460MOL0     C60606   2.742   2.550   1.643 -0.1246 -0.1118 -0.2225
  460MOL0     C60607   2.799   2.559   1.761  0.1806 -0.2186 -0.3543
  460MOL0     C60608   2.736   2.597   1.902  0.2098 -0.2908  0.3684
  460MOL0     C60609   2.768   2.739   1.921 -0.0727  0.3957  0.3981
  460MOL0     C60610   2.746   2.780   2.070  0.1451 -0.6981  0.7641
  460MOL0     C60611   2.734   2.937   2.081 -0.0641 -0.0010  0.3631
  460MOL0     O60612   2.848   3.012   2.038 -0.1335 -0.4536 -0.1681
  460MOL0     C60613   2.848   3.088   1.919 -1.2702 -0.1193  0.0297
  460MOL0     C60614   2.743   3.131   1.839  0.1463 -0.3883  0.1498
  460MOL0     C60615   2.760   3.220   1.740 -0.5304  0.7291  0.7757
  460MOL0     C60616   2.893   3.277   1.719  0.0321 -0.2995 -0.1060
  460MOL0     C60617   2.913   3.391   1.625  0.7968 -0.2427 -0.3307
  460MOL0     O60618   3.037   3.451   1.625  0.2473  0.3414 -0.2241
  460MOL0     C60619   3.053   3.557   1.545 -0.4691  0.3203  0.6450
  460MOL0     C60620   3.038   3.683   1.593  0.3853 -0.2727  0.6670
  460MOL0     C60621   3.058   3.790   1.506  0.4873 -0.3298 -0.5847
  460MOL0     C60622   3.106   3.781   1.379 -0.0009  0.0981  0.6280
  460MOL0     O60623   3.136   3.891   1.305 -0.2212 -0.0404  0.5458
  460MOL0     C60624   3.255   3.895   1.216  0.0720 -0.7978 -0.3115
  460MOL0     C60625   3.360   4.006   1.264  0.3232  0.1364  0.1076
  460MOL0     C60626   3.416   3.963   1.405 -0.0139 -0.3319  1.0263
  460MOL0     C60627   3.499   4.077   1.457 -0.4422 -0.1702 -0.0559
  460MOL0     C60628   3.550   4.054   1.593  0.0274 -0.2074  0.2116
  460MOL0     C60629   3.643   4.159   1.644  0.4331 -0.2144 -0.5394
  460MOL0     C60630   3.706   4.136   1.779 -0.1195  0.2147  1.0384
  460MOL0     C60631   3.816   4.033   1.776 -0.8761  0.2487 -0.2797
  460MOL0    Cl60632   3.966   4.095   1.694 -0.4971  0.3924  0.0181
  460MOL0     C60633   3.117   3.648   1.327  0.7781 -0.1985  0.5179
  460MOL0     C60634   3.084   3.542   1.415  0.4020 -0.5101  0.8953
  460MOL0     O60635   2.812   3.431   1.570  0.2248 -0.5674 -0.8269
  460MOL0     C60636   3.005   3.230   1.782 -0.0245 -0.3911 -0.0725
  460MOL0     C60637   2.977   3.136   1.887  0.3926  0.8463 -0.9428
  460MOL0     N60638   2.923   2.532   1.746 -0.6349 -0.5544  0.0063
  460MOL0     N60639   2.954   2.499   1.627  1.2605  0.1138  0.1627
  460MOL0     C60640   3.041   1.394   1.352 -0.2297  0.0810 -0.8931
  460MOL0     C60641   3.059   1.255   1.381  0.8215 -0.5700 -0.4825
  460MOL0     C60642   3.058   0.870   1.600 -1.0228 -0.2572  0.4770
  460MOL0     C60643   3.058   0.741   1.553  0.2657  0.5836 -0.8302
  460MOL0     C60644   3.093   0.639   1.640 -0.1452 -0.0087  0.5031
  460MOL0     C60645   3.135   0.664   1.765 -0.3845  0.5868 -0.0739
  460MOL0     O60646   3.163   0.556   1.838  0.2809 -0.6603  0.5524
  460MOL0     C60647   3.290   0.491   1.824  0.5244 -0.7413  0.7314
  460MOL0     C60648   3.353   0.474   1.961  0.0075  0.9212  0.3944
  460MOL0     C60649   3.436   0.603   1.988  0.2809  0.1127  0.4106
  460MOL0     C60650   3.484   0.624   2.134 -0.2939  1.2945 -0.1278
  460MOL0     C60651   3.557   0.510   2.193  1.1962 -0.6017  0.9276
  460MOL0     C60652   3.632   0.424   2.236 -0.4606 -0.3661 -0.5654
  460MOL0     C60653   3.146   0.797   1.810  0.6134  0.0188 -0.0622
  460MOL0     C60654   3.093   0.899   1.738  0.4832 -0.3227  0.1672
  460MOL0     H60655   2.996   1.281   1.710 -0.6528  3.8959  0.4164
  460MOL0     H60656   2.960   1.519   1.653 -2.4322 -0.1829  0.7037
  460MOL0     H60657   2.968   1.713   1.604 -0.4189 -1.1544  1.0633
  460MOL0     H60658   2.828   1.661   1.513 -0.8863  3.2639  2.6943
  460MOL0     H60659   2.893   1.801   1.325  1.9674 -1.2708 -0.2870
  460MOL0     H60660   3.015   1.883   1.408 -0.5166 -0.4680  0.7040
  460MOL0     H60661   2.841   2.018   1.543  0.8800  0.5208 -1.7249
  460MOL0     H60662   2.724   1.890   1.514 -2.8750  2.2333 -2.6004
  460MOL0     H60663   2.815   2.011   1.265  0.4606 -1.4774  0.3535
  460MOL0     H60664   2.679   1.919   1.303  0.5596 -0.8734 -0.2464
  460MOL0     H60665   2.596   2.124   1.458  0.5737 -1.0998 -0.1060
  460MOL0     H60666   2.612   2.153   1.286  1.4704 -0.0195 -1.7882
  460MOL0     H60667   2.855   2.228   1.346  0.1854 -1.2535  0.9731
  460MOL0     H60668   2.797   2.222   1.517 -2.0174  1.9779  1.0967
  460MOL0     H60669   2.667   2.388   1.284  1.5944  0.2702 -0.7975
  460MOL0     H60670   2.628   2.395   1.448 -1.6702  1.6930 -3.3481
  460MOL0     H60671   2.799   2.576   1.350  1.2566 -0.4776 -0.6011
  460MOL0     H60672   2.922   2.455   1.363 -0.3803 -0.8798  0.8983
  460MOL0     H60673   2.641   2.585   1.624 -0.6519 -2.2860 -1.6973
  460MOL0     H60674   2.770   2.537   1.986  1.7191  3.9471  3.1136
  460MOL0     H60675   2.629   2.578   1.887  0.2501  0.3898 -0.9236
  460MOL0     H60676   2.713   2.807   1.857 -0.7740 -0.7366 -0.2262
  460MOL0     H60677   2.876   2.757   1.916  0.5243 -2.9544 -1.8649
  460MOL0     H60678   2.648   2.748   2.106  0.7575 -0.5502  2.6563
  460MOL0     H60679   2.835   2.735   2.115  2.3938  2.6783  0.0475
  460MOL0     H60680   2.715   2.972   2.183 -1.2155  0.8791 -0.1322
  460MOL0     H60681   2.647   2.977   2.028  3.1503  2.3333 -3.7342
  460MOL0     H60682   2.638   3.108   1.849 -0.3218 -1.0494 -4.3351
  460MOL0     H60683   2.673   3.247   1.682  0.6272  3.2630  0.0521
  460MOL0     H60684   3.011   3.709   1.695  0.9500  4.5060 -0.1717
  460MOL0     H60685   3.061   3.890   1.546  0.7412 -0.6357  0.1837
  460MOL0     H60686   3.215   3.938   1.124  1.4696 -0.4576 -0.7786
  460MOL0     H60687   3.289   3.792   1.199 -3.3104 -2.0120 -0.5556
  460MOL0     H60688   3.313   4.104   1.266 -2.8688 -1.2702  2.4199
  460MOL0     H60689   3.440   4.008   1.189  0.9180  3.9567  0.6567
  460MOL0     H60690   3.479   3.874   1.399  1.4654  0.7239  0.0290
  460MOL0     H60691   3.331   3.954   1.474 -0.5532 -0.9408  0.2907
  460MOL0     H60692   3.584   4.095   1.390 -1.0247 -3.0511 -1.7235
  460MOL0     H60693   3.436   4.166   1.460  2.2113  1.8157  0.6569
  460MOL0     H60694   3.610   3.963   1.597  0.2396 -0.0411  2.2677
  460MOL0     H60695   3.466   4.039   1.661 -0.1387 -0.8494 -0.1318
  460MOL0     H60696   3.586   4.253   1.648  5.0034  3.0545 -3.0080
  460MOL0     H60697   3.716   4.179   1.566  0.0824 -1.6010 -1.2629
  460MOL0     H60698   3.742   4.226   1.830 -0.2209 -0.8682  3.1377
  460MOL0     H60699   3.623   4.101   1.842 -1.2952  0.5048 -0.2952
  460MOL0     H60700   3.789   3.945   1.717 -0.0170 -0.6395  0.6105
  460MOL0     H60701   3.838   3.997   1.877  1.2742 -0.7847 -1.0520
  460MOL0     H60702   3.142   3.626   1.224  1.2578 -0.0564  0.6018
  460MOL0     H60703   3.093   3.442   1.372  1.0874  0.6254 -1.8012
  460MOL0     H60704   3.106   3.256   1.754  1.3271 -4.1000  0.7672
  460MOL0     H60705   3.057   3.099   1.950 -1.1827 -0.7970  0.1597
  460MOL0     H60706   3.043   1.427   1.248  0.6576 -0.3798 -1.0305
  460MOL0     H60707   3.089   1.197   1.294 -1.6840 -2.7343 -0.0225
  460MOL0     H60708   3.054   0.727   1.446  2.2458 -1.0853 -0.7528
  460MOL0     H60709   3.102   0.534   1.614 -0.0954  0.1889 -0.2848
  460MOL0     H60710   3.357   0.551   1.762 -3.0049  1.3396 -1.4126
  460MOL0     H60711   3.259   0.396   1.780 -0.7839  1.3594 -3.3715
  460MOL0     H60712   3.273   0.458   2.034 -0.7203  0.7185 -0.4306
  460MOL0     H60713   3.404   0.377   1.962 -5.0568 -2.2330 -1.8026
  460MOL0     H60714   3.389   0.692   1.945  1.3846  1.9688  2.8147
  460MOL0     H60715   3.525   0.580   1.930 -1.0271 -3.1063 -0.5851
  460MOL0     H60716   3.547   0.712   2.147  0.7916  0.5100 -0.0095
  460MOL0     H60717   3.395   0.638   2.197 -0.4895  1.0568 -0.3456
  460MOL0     H60718   3.712   0.358   2.264 -0.6744  0.0843  1.2868
  460MOL0     H60719   3.191   0.800   1.908  3.0024  0.9629 -1.1056
  460MOL0     H60720   3.081   1.000   1.775 -3.1569 -0.4911 -0.1182
  461MOL0     O60721   4.038  10.940   4.837 -0.3503  0.1493 -0.4339
  461MOL0     C60722   4.112  11.028   4.787 -0.3870  0.4588 -0.1828
  461MOL0     O60723   4.181  11.110   4.857  0.4633  0.0902  0.0674
  461MOL0     C60724   4.189  11.103   4.991 -0.9392 -0.3510 -0.5028
  461MOL0     C60725   4.100  11.187   5.074 -0.8958  0.4337 -0.2627
  461MOL0     C60726   4.119  11.191   5.208  0.1335  0.6799 -0.4078
  461MOL0     C60727   4.225  11.122   5.259 -0.0563  0.4811 -0.9729
  461MOL0     O60728   4.266  11.136   5.394 -0.4941  0.0872 -0.0792
  461MOL0     C60729   4.163  11.108   5.488 -1.0396 -0.2461 -0.7634
  461MOL0     C60730   4.161  11.215   5.599  0.7440 -0.4284  0.3013
  461MOL0     C60731   4.181  11.354   5.536  0.3299 -0.1015  0.4559
  461MOL0     C60732   4.163  11.477   5.644  0.0157  0.1121 -0.3169
  461MOL0     C60733   4.188  11.609   5.580 -0.0322  0.1204 -0.7207
  461MOL0     C60734   4.057  11.666   5.518 -0.2022 -0.0539  0.7915
  461MOL0     C60735   4.087  11.776   5.409 -0.7357 -0.3986  0.3886
  461MOL0     C60736   4.131  11.901   5.471  0.4527 -0.4769  0.1703
  461MOL0     N60737   4.025  11.966   5.534  0.2738 -0.1454  0.2571
  461MOL0     C60738   3.944  12.048   5.458  0.3661  0.8864  1.0772
  461MOL0     C60739   3.855  12.096   5.545 -0.7036 -0.4805 -0.5245
  461MOL0     C60740   3.740  12.186   5.519 -0.1313 -0.1995  0.1461
  461MOL0     C60741   3.636  12.178   5.633  0.2816  0.5848 -0.1381
  461MOL0     C60742   3.513  12.267   5.605  0.5478  0.8760  0.3501
  461MOL0     C60743   3.399  12.259   5.705  0.0031 -0.3934 -0.7745
  461MOL0     O60744   3.319  12.139   5.680  0.1870 -0.8257 -0.3823
  461MOL0     C60745   3.246  12.083   5.782 -0.3167  0.1087  0.0176
  461MOL0     C60746   3.195  11.963   5.739 -0.1228  0.2229 -0.1292
  461MOL0     C60747   3.117  11.886   5.823  0.6610 -0.7344  0.2185
  461MOL0     C60748   3.084  11.917   5.954  0.4417  0.0069 -0.3634
  461MOL0     C60749   2.992  11.830   6.033 -0.0614 -1.0937  0.6107
  461MOL0     O60750   2.985  11.851   6.168 -0.3584  0.1298 -0.3453
  461MOL0     C60751   2.900  11.799   6.259  0.1993  0.9091 -0.0780
  461MOL0     C60752   2.812  11.686   6.238  0.5303  0.4391  0.4173
  461MOL0     C60753   2.733  11.640   6.345 -0.0875 -0.3785  0.2664
  461MOL0     C60754   2.743  11.688   6.470  1.4187  0.4380  0.3821
  461MOL0     O60755   2.645  11.644   6.560 -0.9338 -0.0927  0.3657
  461MOL0     C60756   2.636  11.711   6.689 -0.0071  0.2668 -0.8659
  461MOL0     C60757   2.566  11.851   6.699  0.8598  0.9177  0.3979
  461MOL0     C60758   2.530  11.908   6.834  0.2195  0.3248 -0.3770
  461MOL0     C60759   2.470  11.802   6.934  0.0044  0.3077  0.1797
  461MOL0     C60760   2.425  11.867   7.063 -0.4538 -0.2323  0.1866
  461MOL0     C60761   2.350  11.780   7.155  0.2439  0.8806 -0.7098
  461MOL0     C60762   2.283  11.853   7.266 -0.1195  0.0920  0.2201
  461MOL0     C60763   2.203  11.762   7.356  0.4322 -0.0566 -0.2781
  461MOL0    Cl60764   2.289  11.734   7.512 -0.1334 -0.4492  0.8030
  461MOL0     C60765   2.824  11.792   6.498  0.4064 -0.7471 -0.3057
  461MOL0     C60766   2.904  11.846   6.395 -0.2791 -0.4234  0.8330
  461MOL0     O60767   2.921  11.749   5.968  0.0607  0.7294 -0.8474
  461MOL0     C60768   3.128  12.051   5.994 -0.4190  0.1252 -0.1489
  461MOL0     C60769   3.216  12.129   5.909  0.7268 -0.5680  0.1631
  461MOL0     N60770   3.888  12.057   5.676 -0.3144 -0.1338 -0.0737
  461MOL0     N60771   3.997  11.980   5.669  0.2518  0.5988 -0.0747
  461MOL0     C60772   4.311  11.039   5.194 -0.7065  0.6297  0.6146
  461MOL0     C60773   4.292  11.041   5.051 -0.8692 -0.7078 -0.6297
  461MOL0     C60774   4.126  11.042   4.638 -0.2138 -0.3196  0.5764
  461MOL0     C60775   4.045  10.962   4.551 -0.3823  0.8522  0.1513
  461MOL0     C60776   4.087  10.950   4.422 -0.3376 -0.7043 -0.1771
  461MOL0     C60777   4.184  11.034   4.361 -0.9052  0.6581  0.3620
  461MOL0     O60778   4.203  11.011   4.229 -0.3091  0.2760  0.0511
  461MOL0     C60779   4.231  11.131   4.150  0.3627  0.4462 -0.2791
  461MOL0     C60780   4.162  11.122   4.011  0.4394  1.2050  0.5981
  461MOL0     C60781   4.160  10.978   3.943 -0.0344  0.0019  0.4257
  461MOL0     C60782   4.065  10.977   3.816 -0.6246 -0.2624  0.1259
  461MOL0     C60783   3.921  10.998   3.852 -0.0928  0.5588 -0.5441
  461MOL0     C60784   3.799  11.014   3.873 -0.0443 -0.0709  0.7817
  461MOL0     C60785   4.251  11.118   4.438  0.3112  0.1603  0.0410
  461MOL0     C60786   4.225  11.124   4.575 -0.2462 -0.3603 -0.1334
  461MOL0     H60787   4.015  11.239   5.032 -0.9321  1.1952  0.7468
  461MOL0     H60788   4.047  11.255   5.257  1.2307  0.5724  1.4424
  461MOL0     H60789   4.164  11.008   5.531  0.9093  0.5904  1.3718
  461MOL0     H60790   4.065  11.113   5.440 -1.5517 -0.7149  0.1834
  461MOL0     H60791   4.248  11.206   5.666 -0.8908  2.5311  3.1157
  461MOL0     H60792   4.074  11.203   5.664  1.0279 -1.2849  0.5391
  461MOL0     H60793   4.102  11.359   5.461 -0.9765 -2.1486  1.6194
  461MOL0     H60794   4.280  11.368   5.489  0.8478 -1.5911  1.0622
  461MOL0     H60795   4.066  11.466   5.692 -0.0366 -1.1589 -0.6802
  461MOL0     H60796   4.241  11.469   5.720  0.4925  2.2830 -0.5062
  461MOL0     H60797   4.263  11.593   5.503 -3.4339 -3.7073 -3.6642
  461MOL0     H60798   4.223  11.678   5.658  0.7789 -2.4785  1.3807
  461MOL0     H60799   3.992  11.706   5.597  0.2279  1.0965  0.5796
  461MOL0     H60800   4.001  11.586   5.469 -0.3624  0.2414  0.4890
  461MOL0     H60801   4.166  11.744   5.340 -0.2828  1.3691  0.0405
  461MOL0     H60802   3.994  11.794   5.355 -2.2685 -0.9912  2.6958
  461MOL0     H60803   4.164  11.977   5.400  0.0138 -2.5051 -2.3597
  461MOL0     H60804   4.208  11.877   5.545  1.2734 -0.6658 -0.7150
  461MOL0     H60805   3.935  12.060   5.351 -2.6943 -0.8171  1.0139
  461MOL0     H60806   3.700  12.161   5.421  1.6685 -1.2895 -0.3574
  461MOL0     H60807   3.770  12.292   5.517  0.1708 -0.1599  2.9356
  461MOL0     H60808   3.690  12.224   5.716  1.6561 -1.9559  0.4844
  461MOL0     H60809   3.613  12.071   5.646 -1.8933  0.2242 -4.6200
  461MOL0     H60810   3.544  12.371   5.621  3.1571  0.7981 -3.0078
  461MOL0     H60811   3.465  12.255   5.507 -0.8473 -1.0349  1.2063
  461MOL0     H60812   3.333  12.346   5.705 -0.8096 -0.6552  5.0767
  461MOL0     H60813   3.442  12.257   5.805 -2.6269  4.1227  0.7420
  461MOL0     H60814   3.209  11.936   5.634 -0.5634 -0.5316 -0.0021
  461MOL0     H60815   3.071  11.798   5.780  1.0017 -1.3744  1.1192
  461MOL0     H60816   2.815  11.621   6.151 -2.6260  1.6667 -0.7341
  461MOL0     H60817   2.682  11.547   6.322  0.6769 -0.8417  0.3897
  461MOL0     H60818   2.735  11.722   6.733 -0.7463 -1.9697  1.6117
  461MOL0     H60819   2.588  11.636   6.753  0.0907  1.0329  0.1166
  461MOL0     H60820   2.473  11.834   6.644  2.7476 -3.0836 -1.9586
  461MOL0     H60821   2.618  11.928   6.641 -1.0114  2.1596  0.2781
  461MOL0     H60822   2.454  11.983   6.812 -0.3947 -0.6407 -1.6532
  461MOL0     H60823   2.618  11.946   6.888 -0.1293 -2.2359  2.2256
  461MOL0     H60824   2.381  11.754   6.891 -0.8802  0.9285  1.2498
  461MOL0     H60825   2.541  11.722   6.957 -1.3658 -0.5346  1.6591
  461MOL0     H60826   2.364  11.953   7.034 -0.0716 -1.0100 -3.4577
  461MOL0     H60827   2.522  11.899   7.101  0.9234 -2.7681 -0.8970
  461MOL0     H60828   2.408  11.702   7.204 -0.5863  0.8848  0.3334
  461MOL0     H60829   2.268  11.738   7.095 -0.3564  0.5438  0.3197
  461MOL0     H60830   2.353  11.919   7.318 -0.8777  1.3957 -0.3524
  461MOL0     H60831   2.204  11.917   7.224 -0.0414 -0.1659 -0.3188
  461MOL0     H60832   2.178  11.672   7.300 -1.4442 -0.4889  1.1580
  461MOL0     H60833   2.108  11.806   7.390  0.2943 -0.7189  0.2145
  461MOL0     H60834   2.838  11.831   6.599  1.1227  1.7746 -1.3031
  461MOL0     H60835   2.968  11.930   6.418  1.8371 -1.5912 -0.5118
  461MOL0     H60836   3.096  12.095   6.088  1.0568 -0.6553  0.7601
  461MOL0     H60837   3.259  12.219   5.953  2.2455 -1.3429  0.3525
  461MOL0     H60838   4.387  10.980   5.243 -0.0634  0.1095 -0.9394
  461MOL0     H60839   4.364  10.998   4.982  0.9755 -3.1858  2.5805
  461MOL0     H60840   3.962  10.900   4.584  1.6483 -0.1190  4.1038
  461MOL0     H60841   4.027  10.892   4.353 -0.2975  1.2801 -1.9705
  461MOL0     H60842   4.336  11.139   4.121 -0.1801  0.3684 -2.4770
  461MOL0     H60843   4.196  11.215   4.212 -1.4156  0.5266 -1.3051
  461MOL0     H60844   4.060  11.156   4.027 -0.3601 -1.8991  3.1975
  461MOL0     H60845   4.210  11.189   3.940 -1.3417  0.3140 -1.5675
  461MOL0     H60846   4.115  10.906   4.011 -3.0433 -0.5201 -1.9153
  461MOL0     H60847   4.263  10.956   3.912 -0.9775  1.3620 -4.6984
  461MOL0     H60848   4.076  11.059   3.744 -3.3972  3.4531  3.4808
  461MOL0     H60849   4.090  10.886   3.760  1.5150  0.0911  0.4253
  461MOL0     H60850   3.695  11.033   3.860 -0.1738 -2.3831 -3.0073
  461MOL0     H60851   4.335  11.169   4.392  2.2065 -2.7560  0.0728
  461MOL0     H60852   4.288  11.186   4.637 -1.6014 -0.4929  1.4472
  462MOL0     O60853   2.084   5.895   4.952  0.2190 -0.2730  0.7969
  462MOL0     C60854   2.133   6.004   4.929  0.0085  0.3918 -0.4717
  462MOL0     O60855   2.094   6.093   4.836  0.0488  0.0214  0.3085
  462MOL0     C60856   1.997   6.069   4.740 -0.6782  0.3127  0.2241
  462MOL0     C60857   2.032   5.995   4.627  0.1981  0.1661  1.1103
  462MOL0     C60858   1.935   5.972   4.526  0.6797 -0.7611  0.2429
  462MOL0     C60859   1.802   6.011   4.548 -0.6096 -0.3702  1.1349
  462MOL0     O60860   1.711   5.974   4.458 -0.4556  0.4273  0.5335
  462MOL0     C60861   1.606   5.892   4.506 -0.1174 -0.7584  0.3223
  462MOL0     C60862   1.505   5.851   4.387  0.3743 -1.1157 -0.0737
  462MOL0     C60863   1.365   5.815   4.437 -0.1182  1.1896 -0.1300
  462MOL0     C60864   1.369   5.682   4.515  0.8238 -1.2222  0.0663
  462MOL0     C60865   1.240   5.662   4.593  0.1735 -0.6956  0.5653
  462MOL0     C60866   1.125   5.668   4.494  1.1591 -0.2611  0.5974
  462MOL0     C60867   0.990   5.654   4.568 -0.2567 -0.5174  0.7476
  462MOL0     C60868   0.867   5.675   4.479  0.1785 -0.0926 -0.2458
  462MOL0     N60869   0.750   5.675   4.564  0.4034 -0.1312 -1.1522
  462MOL0     C60870   0.702   5.783   4.630 -0.1482  0.4773  0.0038
  462MOL0     C60871   0.596   5.730   4.701  0.4949 -0.8055  0.1321
  462MOL0     C60872   0.514   5.812   4.799 -0.1836 -0.1382  0.5187
  462MOL0     C60873   0.608   5.913   4.873 -0.1234 -0.7464  0.1495
  462MOL0     C60874   0.702   5.828   4.968  0.2411 -0.5735  1.1287
  462MOL0     C60875   0.817   5.902   5.015 -0.6501  0.0741 -0.6674
  462MOL0     O60876   0.914   5.951   4.919  0.3324 -0.4433 -0.4394
  462MOL0     C60877   1.028   5.879   4.916  0.3233 -0.6504  0.4175
  462MOL0     C60878   1.030   5.732   4.929  0.3543 -0.2472  0.1700
  462MOL0     C60879   1.153   5.671   4.943  0.4644 -0.2644 -0.1245
  462MOL0     C60880   1.281   5.738   4.951 -0.0386  0.6241  0.5285
  462MOL0     C60881   1.405   5.663   4.966  1.3159 -0.2130 -0.1662
  462MOL0     O60882   1.498   5.703   4.877 -1.0163  0.2125  0.5330
  462MOL0     C60883   1.618   5.629   4.875  0.0538 -0.3122  0.2698
  462MOL0     C60884   1.730   5.704   4.825 -0.0693  0.5591  0.3276
  462MOL0     C60885   1.854   5.640   4.807 -0.6289  0.4002 -1.2219
  462MOL0     C60886   1.869   5.500   4.838  0.4225  0.1723 -0.9498
  462MOL0     O60887   1.989   5.452   4.833 -0.4702  0.0193  0.1418
  462MOL0     C60888   2.092   5.502   4.924 -0.0816 -0.7467  0.4353
  462MOL0     C60889   2.040   5.524   5.065 -0.1778 -0.7741 -1.3531
  462MOL0     C60890   2.159   5.574   5.150  0.0622 -0.3537 -0.0431
  462MOL0     C60891   2.108   5.637   5.282 -1.0820 -0.5642 -0.2877
  462MOL0     C60892   2.224   5.648   5.384 -1.4798 -0.2662 -0.3460
  462MOL0     C60893   2.174   5.730   5.498 -0.9090  0.9189  0.2902
  462MOL0     C60894   2.285   5.735   5.606 -0.2030 -0.5850  0.1011
  462MOL0     C60895   2.249   5.674   5.739  0.2236  0.7633  0.6757
  462MOL0    Cl60896   2.372   5.737   5.857  0.1486 -0.5916 -0.0991
  462MOL0     C60897   1.758   5.426   4.873  0.4265  0.2191  0.0227
  462MOL0     C60898   1.632   5.491   4.897  0.3979 -0.3503  0.5667
  462MOL0     O60899   1.421   5.587   5.059  0.0565  0.5923 -0.3870
  462MOL0     C60900   1.279   5.879   4.922  1.1013  0.0436  0.7022
  462MOL0     C60901   1.153   5.951   4.922 -0.1306  0.1742  0.3954
  462MOL0     N60902   0.573   5.595   4.674 -0.2079  0.6841  0.0992
  462MOL0     N60903   0.670   5.562   4.600  0.0045  0.7076 -0.3977
  462MOL0     C60904   1.769   6.082   4.664  0.7109  1.0705 -0.0008
  462MOL0     C60905   1.862   6.104   4.760 -0.2905 -0.5149 -0.9466
  462MOL0     C60906   2.245   6.045   5.014  0.8767  0.7359 -0.3177
  462MOL0     C60907   2.332   6.141   4.960  0.0838 -0.2139  0.5430
  462MOL0     C60908   2.456   6.162   5.023 -1.0246 -0.0386 -0.2271
  462MOL0     C60909   2.485   6.097   5.142  0.0151  0.0638 -0.6257
  462MOL0     O60910   2.617   6.106   5.201  0.9565  0.2799  1.0397
  462MOL0     C60911   2.733   6.163   5.118  0.0072 -0.4083 -0.6807
  462MOL0     C60912   2.780   6.295   5.177 -1.3558  0.0222 -0.0712
  462MOL0     C60913   2.818   6.292   5.324 -0.3870  0.6370 -0.3028
  462MOL0     C60914   2.938   6.389   5.351 -0.4338  0.0099 -0.0471
  462MOL0     C60915   3.073   6.331   5.310  0.5572  0.2439 -1.1222
  462MOL0     C60916   3.186   6.300   5.296 -0.2486  0.4370  0.2831
  462MOL0     C60917   2.386   6.019   5.203 -0.1827 -0.5437 -0.2476
  462MOL0     C60918   2.257   5.989   5.136 -0.1322 -0.1022 -0.5543
  462MOL0     H60919   2.137   5.975   4.609  0.2328  1.3560 -0.1682
  462MOL0     H60920   1.946   5.910   4.438 -1.6716  2.8756 -2.9599
  462MOL0     H60921   1.547   5.936   4.587 -2.1488  0.0062 -1.4796
  462MOL0     H60922   1.657   5.805   4.549  1.6362  0.8945  1.7690
  462MOL0     H60923   1.537   5.782   4.308  2.6722  1.7200 -1.8382
  462MOL0     H60924   1.491   5.933   4.316  0.9600 -0.4476  0.5639
  462MOL0     H60925   1.298   5.823   4.350 -1.1106 -2.7026  0.0958
  462MOL0     H60926   1.336   5.899   4.502 -0.3821  1.9271 -1.1657
  462MOL0     H60927   1.370   5.600   4.442 -0.9049  0.8025 -2.4187
  462MOL0     H60928   1.455   5.690   4.581 -1.3945  0.9341  2.9415
  462MOL0     H60929   1.221   5.751   4.653 -0.3309 -0.7557  0.4987
  462MOL0     H60930   1.231   5.565   4.642 -1.4661 -2.7029 -3.2829
  462MOL0     H60931   1.139   5.589   4.420  2.9447  2.4749 -2.2541
  462MOL0     H60932   1.115   5.760   4.437 -0.0245  0.1520  1.4321
  462MOL0     H60933   0.981   5.550   4.603  0.2516 -0.7765  0.1223
  462MOL0     H60934   0.985   5.728   4.649  2.3589  2.1446 -1.3257
  462MOL0     H60935   0.863   5.591   4.408  1.2849  2.0457 -3.0420
  462MOL0     H60936   0.870   5.763   4.415  1.6127  0.9596  1.1817
  462MOL0     H60937   0.739   5.885   4.634 -1.5634  1.0251  0.0149
  462MOL0     H60938   0.463   5.745   4.868 -0.4038 -2.4305 -1.7019
  462MOL0     H60939   0.448   5.866   4.731  0.8148 -0.9790 -1.1982
  462MOL0     H60940   0.551   5.983   4.935 -1.4305 -3.7937  2.6662
  462MOL0     H60941   0.675   5.971   4.809  1.0334 -2.8027 -0.6092
  462MOL0     H60942   0.641   5.804   5.056 -0.9828 -1.3399  0.1016
  462MOL0     H60943   0.738   5.736   4.920 -1.0352 -0.0714 -0.9151
  462MOL0     H60944   0.862   5.845   5.097  2.2146  0.3880 -1.9036
  462MOL0     H60945   0.786   5.999   5.055  4.3863  1.3210  0.9810
  462MOL0     H60946   0.939   5.675   4.939 -0.5161  1.4929  3.5304
  462MOL0     H60947   1.139   5.563   4.947 -2.3888  0.0454  1.0940
  462MOL0     H60948   1.732   5.807   4.793  1.1867  0.5317  0.2868
  462MOL0     H60949   1.944   5.695   4.779 -2.0613  2.8899 -1.2658
  462MOL0     H60950   2.105   5.606   4.893 -0.4626 -0.4326  1.2985
  462MOL0     H60951   2.192   5.457   4.927  0.7398  0.9902  3.6514
  462MOL0     H60952   1.996   5.434   5.109  3.0669 -0.4509  3.2859
  462MOL0     H60953   1.967   5.606   5.062  1.8066  1.2339  1.1862
  462MOL0     H60954   2.204   5.661   5.101  0.6987 -2.0770 -2.7503
  462MOL0     H60955   2.220   5.484   5.159 -0.0424 -0.2664  1.8080
  462MOL0     H60956   2.078   5.739   5.256  3.6476  1.6061  1.5253
  462MOL0     H60957   2.039   5.573   5.337  0.2643 -1.3339  0.5792
  462MOL0     H60958   2.315   5.694   5.345  0.7401 -1.2206  3.2116
  462MOL0     H60959   2.246   5.545   5.412  1.2664 -0.7369 -3.5996
  462MOL0     H60960   2.086   5.678   5.536  2.2730 -4.5216  1.3314
  462MOL0     H60961   2.158   5.832   5.463  3.2353  2.4129  2.1659
  462MOL0     H60962   2.387   5.707   5.579  0.0072  0.9533 -0.8244
  462MOL0     H60963   2.284   5.842   5.629 -3.0447  0.2756 -3.2104
  462MOL0     H60964   2.254   5.565   5.741 -3.0441  0.5099  1.4279
  462MOL0     H60965   2.147   5.707   5.764  0.1605  2.6420 -1.6630
  462MOL0     H60966   1.779   5.319   4.880 -1.1208 -0.0872  0.5255
  462MOL0     H60967   1.548   5.429   4.927  1.9158 -1.9511  1.7309
  462MOL0     H60968   1.375   5.929   4.915  1.6626 -1.0784  0.2907
  462MOL0     H60969   1.168   6.058   4.911  3.1128 -0.1677  0.4247
  462MOL0     H60970   1.665   6.112   4.661  0.1767 -0.5729 -3.8078
  462MOL0     H60971   1.837   6.159   4.851  0.1539 -0.6244 -0.7573
  462MOL0     H60972   2.314   6.189   4.865 -1.9213 -2.1386 -0.1597
  462MOL0     H60973   2.535   6.222   4.979 -0.8800 -0.5774 -0.7309
  462MOL0     H60974   2.723   6.158   5.009 -0.5479 -1.5177 -0.5980
  462MOL0     H60975   2.802   6.080   5.138 -1.2372 -1.3675 -0.2481
  462MOL0     H60976   2.863   6.333   5.116 -1.8747  0.8756 -0.2673
  462MOL0     H60977   2.699   6.365   5.152 -2.3963 -1.9934 -2.7849
  462MOL0     H60978   2.845   6.190   5.354  2.5922  0.9518 -1.5425
  462MOL0     H60979   2.726   6.322   5.374  0.0734 -0.7065  1.4582
  462MOL0     H60980   2.926   6.488   5.306  2.7983  0.1335 -0.8812
  462MOL0     H60981   2.947   6.407   5.458  1.6244 -0.0155 -0.1767
  462MOL0     H60982   3.286   6.266   5.282 -0.8323 -2.4825  2.2276
  462MOL0     H60983   2.403   5.971   5.299 -2.2309 -2.7124 -0.8675
  462MOL0     H60984   2.180   5.927   5.182 -1.1614  1.8876  0.5266
  463MOL0     O60985   6.128   3.178   5.100  0.0827 -0.4079 -0.0300
  463MOL0     C60986   6.130   3.071   5.158 -0.2760  0.1608  0.1816
  463MOL0     O60987   6.234   2.992   5.165 -1.0751  0.2489  0.5082
  463MOL0     C60988   6.347   3.034   5.101  0.4906  0.4771 -0.0606
  463MOL0     C60989   6.354   3.023   4.960  0.1451 -1.1036 -0.3269
  463MOL0     C60990   6.476   3.041   4.894 -0.3243  0.8625 -0.3560
  463MOL0     C60991   6.597   3.052   4.971  0.3497  1.1443 -0.1294
  463MOL0     O60992   6.721   3.056   4.916  0.3075  0.3664  0.2240
  463MOL0     C60993   6.741   2.998   4.786 -0.2669 -0.6331  0.2075
  463MOL0     C60994   6.754   2.847   4.814 -0.4725 -0.8752  0.2490
  463MOL0     C60995   6.773   2.756   4.683 -0.7758  0.2387  0.0656
  463MOL0     C60996   6.861   2.807   4.570 -0.2129 -0.3735  0.4937
  463MOL0     C60997   6.870   2.720   4.432 -0.0076 -0.2412  0.2308
  463MOL0     C60998   6.936   2.788   4.318  0.8343  0.1304 -0.1349
  463MOL0     C60999   6.924   2.718   4.176  0.3768  0.3416  0.0314
  463MOL0     C61000   7.029   2.603   4.187 -0.3477 -0.5339  0.1580
  463MOL0     N61001   7.051   2.536   4.061 -0.8181 -0.8101  0.1918
  463MOL0     C61002   7.114   2.596   3.948  0.1591  0.1229  0.4550
  463MOL0     C61003   7.057   2.532   3.847 -0.0787  0.0511  0.3102
  463MOL0     C61004   7.085   2.578   3.708  0.9427 -0.2541 -0.6353
  463MOL0     C61005   7.231   2.599   3.667 -0.0100  0.1068 -0.5810
  463MOL0     C61006   7.305   2.464   3.694  0.6278  1.1381  1.3748
  463MOL0     C61007   7.463   2.482   3.727 -0.7491 -0.2252 -0.6921
  463MOL0     O61008   7.535   2.536   3.618 -0.4479 -0.1839  0.5178
  463MOL0     C61009   7.528   2.452   3.508 -0.0909  0.0567  0.3131
  463MOL0     C61010   7.505   2.527   3.389  0.8354  0.0142 -0.7131
  463MOL0     C61011   7.474   2.458   3.269  0.1243  0.8148  0.1369
  463MOL0     C61012   7.487   2.308   3.268 -0.1579 -0.9895 -0.6211
  463MOL0     C61013   7.473   2.244   3.137  0.7323 -0.5038 -0.2151
  463MOL0     O61014   7.492   2.323   3.027  0.8682 -0.0286  0.4790
  463MOL0     C61015   7.509   2.254   2.908 -0.0769  0.5131 -0.0936
  463MOL0     C61016   7.616   2.164   2.883  0.1170  0.7899  0.7240
  463MOL0     C61017   7.625   2.096   2.760 -0.6574 -0.1107  0.3667
  463MOL0     C61018   7.522   2.109   2.664 -0.4236 -0.3908  0.1322
  463MOL0     O61019   7.536   2.045   2.544  0.1169 -0.7220 -0.3070
  463MOL0     C61020   7.417   1.995   2.478  0.1951 -0.1271  0.5578
  463MOL0     C61021   7.421   2.036   2.329  0.1905 -0.2958 -0.2644
  463MOL0     C61022   7.306   1.983   2.248 -0.7097 -0.8428  0.1297
  463MOL0     C61023   7.306   2.037   2.100  0.5646  0.4104 -0.4657
  463MOL0     C61024   7.440   2.013   2.027  0.0586 -0.4190  0.2377
  463MOL0     C61025   7.458   1.856   2.010  0.6017  0.6353 -0.2231
  463MOL0     C61026   7.372   1.804   1.896 -0.7431  0.7879 -0.4421
  463MOL0     C61027   7.320   1.665   1.934 -0.5749 -0.5011  0.3214
  463MOL0    Cl61028   7.193   1.672   2.060  0.1771  0.0463  0.0744
  463MOL0     C61029   7.421   2.201   2.688 -0.0666 -0.1160  0.5267
  463MOL0     C61030   7.414   2.279   2.805 -0.7596 -0.0319 -0.1247
  463MOL0     O61031   7.461   2.116   3.136  0.2277 -0.9565 -0.0666
  463MOL0     C61032   7.528   2.236   3.387 -0.7270 -0.7481 -0.1277
  463MOL0     C61033   7.542   2.313   3.503  0.0212 -1.4360 -0.4275
  463MOL0     N61034   6.958   2.447   3.887 -0.7448  0.6793 -0.4354
  463MOL0     N61035   6.964   2.443   4.021  0.3920  0.3762  0.2376
  463MOL0     C61036   6.583   3.085   5.102 -0.3005  0.3000 -0.3580
  463MOL0     C61037   6.461   3.060   5.165 -0.2551 -0.1905 -0.6683
  463MOL0     C61038   6.008   3.027   5.214 -0.3579  0.3449  0.5249
  463MOL0     C61039   6.004   2.917   5.298  0.7674  0.5143 -1.0625
  463MOL0     C61040   5.886   2.880   5.364  0.2121  0.4524  0.4973
  463MOL0     C61041   5.774   2.958   5.351 -0.6825  0.0384 -0.5037
  463MOL0     O61042   5.664   2.929   5.423  0.0849  0.4157 -0.1615
  463MOL0     C61043   5.684   2.955   5.558  0.5073  0.3943 -0.1975
  463MOL0     C61044   5.543   2.951   5.633  0.0651 -0.8348 -0.0146
  463MOL0     C61045   5.470   2.822   5.653 -0.1816 -0.0821 -0.4034
  463MOL0     C61046   5.419   2.768   5.513  0.4843  0.5102 -0.1099
  463MOL0     C61047   5.337   2.645   5.552  0.1648  0.0185  0.6585
  463MOL0     C61048   5.279   2.542   5.579  0.4997  0.2804  0.4290
  463MOL0     C61049   5.785   3.070   5.273  0.1214 -1.2573  1.4956
  463MOL0     C61050   5.895   3.111   5.205 -0.6318  0.3810 -0.2592
  463MOL0     H61051   6.261   3.020   4.905  1.9848 -2.1027 -3.6808
  463MOL0     H61052   6.491   3.048   4.787  2.0942 -0.8307 -0.2117
  463MOL0     H61053   6.838   3.034   4.751 -0.0336  0.9209  2.2229
  463MOL0     H61054   6.668   3.020   4.707  0.9289 -1.3576 -1.1257
  463MOL0     H61055   6.661   2.819   4.865 -0.1117 -2.2154  0.2321
  463MOL0     H61056   6.832   2.856   4.890  0.3977  1.5700 -0.8554
  463MOL0     H61057   6.677   2.741   4.633  0.2394  1.0654 -2.2668
  463MOL0     H61058   6.806   2.656   4.715 -0.8650 -0.0585 -0.7417
  463MOL0     H61059   6.806   2.893   4.531  1.4827  0.4536 -0.1613
  463MOL0     H61060   6.954   2.837   4.619 -0.0896 -3.5269  2.5056
  463MOL0     H61061   6.771   2.681   4.406  1.0144 -2.1613 -1.0370
  463MOL0     H61062   6.926   2.627   4.446 -0.3320 -0.9450 -2.5921
  463MOL0     H61063   7.044   2.800   4.328  1.3338 -1.8530 -2.2859
  463MOL0     H61064   6.887   2.884   4.301  0.5683 -0.4571 -3.1556
  463MOL0     H61065   6.820   2.688   4.164 -1.6714  6.6222 -1.9440
  463MOL0     H61066   6.955   2.792   4.101 -0.1695 -1.3420 -1.9160
  463MOL0     H61067   6.993   2.526   4.256 -0.3973 -1.5361 -0.9448
  463MOL0     H61068   7.121   2.636   4.235 -1.0934  1.2310  0.4429
  463MOL0     H61069   7.174   2.686   3.938 -1.2455  1.0783  0.3133
  463MOL0     H61070   7.032   2.671   3.687  1.4270 -0.7506 -5.0713
  463MOL0     H61071   7.044   2.499   3.643 -0.9546  1.2821 -1.4078
  463MOL0     H61072   7.264   2.686   3.724 -1.6170 -0.1029  0.7386
  463MOL0     H61073   7.227   2.622   3.560  0.8183 -1.0078 -0.8649
  463MOL0     H61074   7.257   2.413   3.778  1.0875  0.9520  1.5311
  463MOL0     H61075   7.290   2.386   3.618  2.2010  1.5965  0.5565
  463MOL0     H61076   7.514   2.397   3.773  1.9311  1.9246  0.5775
  463MOL0     H61077   7.472   2.558   3.805  0.7365 -2.4989  1.5102
  463MOL0     H61078   7.500   2.636   3.390 -1.6901 -0.0289 -1.8377
  463MOL0     H61079   7.445   2.516   3.182  0.8155  1.2582  0.1928
  463MOL0     H61080   7.691   2.168   2.962  1.6396  1.1169 -0.6861
  463MOL0     H61081   7.707   2.025   2.771 -1.5559 -1.1563  0.4732
  463MOL0     H61082   7.322   2.035   2.514  1.3129  1.6854  1.6574
  463MOL0     H61083   7.419   1.886   2.472 -0.9524 -0.1056 -0.5494
  463MOL0     H61084   7.509   1.990   2.284 -0.0379  0.8311 -1.9569
  463MOL0     H61085   7.437   2.143   2.314 -0.2330 -0.0085  1.1444
  463MOL0     H61086   7.214   2.022   2.293  0.1774  1.5395  0.0087
  463MOL0     H61087   7.307   1.874   2.258  1.2275 -0.8922 -0.2519
  463MOL0     H61088   7.225   1.994   2.041  0.6847  0.9438 -1.0240
  463MOL0     H61089   7.285   2.144   2.100 -2.6296 -0.0968 -0.4483
  463MOL0     H61090   7.523   2.062   2.078 -1.0863  1.7910  0.0748
  463MOL0     H61091   7.455   2.047   1.924  2.2475 -2.4856 -0.2286
  463MOL0     H61092   7.429   1.810   2.106 -1.5073  0.1696 -1.0274
  463MOL0     H61093   7.558   1.818   1.986  0.4805 -1.7653  2.4176
  463MOL0     H61094   7.292   1.877   1.885 -0.3157  1.1525 -1.1785
  463MOL0     H61095   7.412   1.800   1.794 -1.9309  0.4036 -0.9092
  463MOL0     H61096   7.389   1.585   1.961  1.1508  0.0054 -2.2576
  463MOL0     H61097   7.271   1.624   1.844 -0.6017  0.0087  0.1037
  463MOL0     H61098   7.343   2.227   2.617 -1.0909 -0.1555  1.6074
  463MOL0     H61099   7.330   2.348   2.797 -1.2226 -0.7642 -2.2832
  463MOL0     H61100   7.536   2.128   3.386 -3.2012 -1.0654  2.3368
  463MOL0     H61101   7.573   2.261   3.593 -0.6032 -0.7318  0.2061
  463MOL0     H61102   6.673   3.116   5.154  0.6451  0.3359 -1.9354
  463MOL0     H61103   6.450   3.060   5.273  0.2042 -5.1678 -0.3701
  463MOL0     H61104   6.092   2.855   5.314 -0.0513 -1.3857 -3.2603
  463MOL0     H61105   5.891   2.790   5.425 -0.0135  1.1478  1.5556
  463MOL0     H61106   5.736   3.050   5.578  2.6719 -0.6146 -0.7450
  463MOL0     H61107   5.744   2.876   5.604 -1.7895 -1.0672  0.4499
  463MOL0     H61108   5.566   2.990   5.733  1.1688 -2.4460  0.3982
  463MOL0     H61109   5.471   3.019   5.587 -1.9706 -2.7713  0.1216
  463MOL0     H61110   5.385   2.838   5.720  1.0429  1.1384  0.9229
  463MOL0     H61111   5.541   2.752   5.697  0.8453  0.2608 -1.4630
  463MOL0     H61112   5.376   2.845   5.448  2.7690  1.0453 -1.0847
  463MOL0     H61113   5.508   2.730   5.461 -1.2770  0.6337 -3.4836
  463MOL0     H61114   5.229   2.453   5.613  0.2948  1.3662  3.1577
  463MOL0     H61115   5.694   3.130   5.272 -1.0041 -2.8789  0.2074
  463MOL0     H61116   5.892   3.201   5.144 -1.2325  0.0108 -0.7858
  464MOL0     O61117   8.903   2.319   6.501  0.7268  0.0004 -0.5197
  464MOL0     C61118   8.975   2.317   6.598  0.2159  0.8165 -0.0412
  464MOL0     O61119   8.962   2.394   6.705 -0.4631 -0.3141 -0.0245
  464MOL0     C61120   8.854   2.468   6.710 -0.6305 -0.6347 -0.9806
  464MOL0     C61121   8.741   2.402   6.765  0.0533 -0.4367  0.0080
  464MOL0     C61122   8.619   2.472   6.768  0.1666  0.9319  0.2889
  464MOL0     C61123   8.617   2.609   6.726  0.0904 -0.1247  0.8783
  464MOL0     O61124   8.506   2.687   6.730  0.3102 -0.0807  0.5016
  464MOL0     C61125   8.454   2.722   6.861 -0.1223  0.0936  0.4347
  464MOL0     C61126   8.466   2.869   6.890  0.3365  0.3320  0.4887
  464MOL0     C61127   8.610   2.913   6.913  0.3145  0.3638  0.0379
  464MOL0     C61128   8.637   3.044   6.992 -0.1336 -0.0247  0.9714
  464MOL0     C61129   8.777   3.091   7.001 -0.6872 -0.3328  0.5108
  464MOL0     C61130   8.845   3.086   6.862 -0.1411 -0.8186  0.0121
  464MOL0     C61131   8.971   3.171   6.850  0.2906  0.4049 -0.4173
  464MOL0     C61132   9.011   3.191   6.702  0.4091 -0.0380 -1.3563
  464MOL0     N61133   9.058   3.065   6.638 -0.6173  0.2089 -0.1225
  464MOL0     C61134   9.168   2.985   6.688  0.4552 -1.1597 -0.0222
  464MOL0     C61135   9.147   2.865   6.632 -1.2143 -0.1094 -0.8262
  464MOL0     C61136   9.253   2.748   6.647  0.4894 -0.7131 -0.3213
  464MOL0     C61137   9.307   2.732   6.797  0.8347 -0.0278 -0.6843
  464MOL0     C61138   9.193   2.695   6.886 -0.9622 -0.5744  0.1364
  464MOL0     C61139   9.232   2.698   7.033  0.1753 -0.3088  0.5147
  464MOL0     O61140   9.120   2.711   7.120 -0.2698  0.5900  0.8958
  464MOL0     C61141   9.015   2.633   7.099  1.0696  1.0146 -0.0272
  464MOL0     C61142   8.886   2.686   7.111 -1.1377 -0.4094 -0.6790
  464MOL0     C61143   8.777   2.611   7.097 -0.7448 -0.0030 -0.3642
  464MOL0     C61144   8.778   2.472   7.088 -0.4569 -0.6569 -0.4560
  464MOL0     C61145   8.661   2.388   7.091  0.1799 -0.0522  0.3019
  464MOL0     O61146   8.552   2.459   7.141 -0.5712  1.0569  0.0049
  464MOL0     C61147   8.449   2.381   7.195 -0.5884  0.7830 -0.4265
  464MOL0     C61148   8.448   2.322   7.323 -0.0860  0.4057 -0.3411
  464MOL0     C61149   8.341   2.244   7.373  0.3268  0.4291 -0.0976
  464MOL0     C61150   8.236   2.216   7.280  0.2928  0.0151 -0.5293
  464MOL0     O61151   8.138   2.139   7.331  1.3366  0.5493  0.5343
  464MOL0     C61152   8.103   2.029   7.238 -0.5507  0.1929  0.4101
  464MOL0     C61153   7.977   1.967   7.299  0.1645  0.1204  0.1778
  464MOL0     C61154   7.912   1.889   7.183 -0.3301 -0.3640  0.8958
  464MOL0     C61155   7.808   1.787   7.224  0.2656  0.0064  0.0637
  464MOL0     C61156   7.676   1.850   7.248 -0.0273 -0.6684 -0.5883
  464MOL0     C61157   7.596   1.919   7.139  0.5460  1.0683 -0.0786
  464MOL0     C61158   7.476   1.990   7.205 -0.0134  0.3697 -0.1519
  464MOL0     C61159   7.357   1.897   7.185  0.0693  0.5130 -0.2677
  464MOL0    Cl61160   7.312   1.878   7.018  0.4875  0.5366  0.7391
  464MOL0     C61161   8.235   2.279   7.160 -0.1604 -0.4651  0.0924
  464MOL0     C61162   8.345   2.357   7.111  1.0290 -0.0022 -0.0468
  464MOL0     O61163   8.665   2.269   7.065  0.2310  0.0089  0.3545
  464MOL0     C61164   8.910   2.417   7.065 -0.5855  0.3852  0.2806
  464MOL0     C61165   9.026   2.494   7.084 -0.3951  0.0871  0.4867
  464MOL0     N61166   9.027   2.864   6.566  0.3683 -0.0202  1.1060
  464MOL0     N61167   8.977   2.986   6.558  0.1194 -0.1784 -0.9712
  464MOL0     C61168   8.735   2.671   6.672  0.6910  0.3488  0.0925
  464MOL0     C61169   8.853   2.600   6.662  0.0584  0.1408 -0.0605
  464MOL0     C61170   9.090   2.233   6.584 -0.0098 -0.0132 -0.7107
  464MOL0     C61171   9.181   2.243   6.697 -0.6859  0.2250  0.0024
  464MOL0     C61172   9.301   2.166   6.697  1.1018 -0.4152  0.6264
  464MOL0     C61173   9.339   2.090   6.580  0.4904  0.2757 -0.0175
  464MOL0     O61174   9.455   2.020   6.591  0.0218  0.7670 -0.1953
  464MOL0     C61175   9.452   1.891   6.537 -0.0141  0.1345  0.4468
  464MOL0     C61176   9.575   1.811   6.579  0.2571 -0.4783  0.0191
  464MOL0     C61177   9.556   1.656   6.587 -0.4906  0.4598  0.8183
  464MOL0     C61178   9.537   1.591   6.451 -0.6538  0.0260 -0.7385
  464MOL0     C61179   9.411   1.616   6.384  0.2417  0.2557 -0.4702
  464MOL0     C61180   9.300   1.616   6.328  0.8212  0.6372 -0.6853
  464MOL0     C61181   9.256   2.093   6.471  0.5269 -0.0906  0.2292
  464MOL0     C61182   9.131   2.165   6.472  0.2667 -0.3778  0.2262
  464MOL0     H61183   8.744   2.308   6.819 -3.4952  0.0254  1.2708
  464MOL0     H61184   8.534   2.425   6.816  0.4409  2.2666  2.1919
  464MOL0     H61185   8.509   2.658   6.931  0.7396 -0.6598 -0.8877
  464MOL0     H61186   8.351   2.684   6.851 -0.1573 -0.1460  1.5818
  464MOL0     H61187   8.406   2.883   6.980 -1.5524 -2.3603 -0.2148
  464MOL0     H61188   8.425   2.932   6.810 -3.1896 -0.4394  1.4881
  464MOL0     H61189   8.646   2.908   6.810  0.8253 -2.6050  0.2693
  464MOL0     H61190   8.666   2.836   6.966  0.4897 -1.1846 -2.2644
  464MOL0     H61191   8.586   3.127   6.942  0.2167 -0.8073 -0.7456
  464MOL0     H61192   8.588   3.034   7.090 -1.6607  1.2048  0.3886
  464MOL0     H61193   8.832   3.022   7.066 -2.0627 -0.1432  1.9480
  464MOL0     H61194   8.780   3.184   7.059 -0.0900 -0.6325  0.9702
  464MOL0     H61195   8.790   3.131   6.778 -0.7849  0.0701  0.8906
  464MOL0     H61196   8.867   2.980   6.843 -2.3117 -1.1812 -0.8100
  464MOL0     H61197   8.949   3.273   6.883 -1.0284 -0.3932  1.3944
  464MOL0     H61198   9.044   3.125   6.917  0.0374 -0.1250 -0.4971
  464MOL0     H61199   9.082   3.274   6.697  2.7639 -1.6637  1.8177
  464MOL0     H61200   8.924   3.229   6.647 -0.4793  3.9234  2.2643
  464MOL0     H61201   9.250   3.021   6.749 -0.5753  3.4060 -0.9795
  464MOL0     H61202   9.333   2.766   6.575 -0.6226  0.1877 -1.3736
  464MOL0     H61203   9.213   2.653   6.610 -0.8180 -1.4054  2.5711
  464MOL0     H61204   9.346   2.827   6.834 -0.7236  0.3912 -0.0160
  464MOL0     H61205   9.390   2.661   6.798  0.5360 -0.4711  1.9629
  464MOL0     H61206   9.111   2.764   6.863 -0.9595 -0.3324  0.8132
  464MOL0     H61207   9.161   2.591   6.878 -2.7504  0.0047 -0.8280
  464MOL0     H61208   9.299   2.784   7.040  0.7644 -0.5116 -1.8185
  464MOL0     H61209   9.289   2.611   7.068 -1.8076 -0.3523  4.1065
  464MOL0     H61210   8.891   2.793   7.130  2.6858 -0.7200  0.7477
  464MOL0     H61211   8.680   2.659   7.092 -0.7699 -0.1535 -1.5935
  464MOL0     H61212   8.530   2.354   7.387 -1.0783  0.4158  0.9853
  464MOL0     H61213   8.333   2.191   7.467 -0.8819  0.1416 -0.3460
  464MOL0     H61214   8.183   1.959   7.262 -0.8581  0.5373  2.6293
  464MOL0     H61215   8.094   2.056   7.132  1.4519 -1.7599 -0.3374
  464MOL0     H61216   7.904   2.043   7.329  0.5367 -0.3217  2.4257
  464MOL0     H61217   8.003   1.911   7.390 -1.2897  2.9767  2.5335
  464MOL0     H61218   7.997   1.838   7.137  0.0319  1.2074 -0.2847
  464MOL0     H61219   7.859   1.951   7.109 -0.0701  0.6303  1.5282
  464MOL0     H61220   7.807   1.718   7.139  0.9149 -1.6296  1.3512
  464MOL0     H61221   7.844   1.745   7.317  1.6127  2.0183  0.5301
  464MOL0     H61222   7.691   1.922   7.329 -2.3412 -0.0318 -0.6431
  464MOL0     H61223   7.615   1.775   7.299 -1.8534  0.1779 -1.4405
  464MOL0     H61224   7.560   1.847   7.065  2.9142 -0.6524  0.3455
  464MOL0     H61225   7.656   1.998   7.093 -1.6501  1.0031 -3.4215
  464MOL0     H61226   7.490   2.017   7.310  1.7545  0.4224 -0.3662
  464MOL0     H61227   7.452   2.083   7.153  2.7430  1.0730 -0.3082
  464MOL0     H61228   7.264   1.934   7.229 -0.3683 -0.7900 -0.0241
  464MOL0     H61229   7.369   1.797   7.228 -0.1940  0.3293 -0.6163
  464MOL0     H61230   8.156   2.257   7.089 -1.2898  1.8124  0.5373
  464MOL0     H61231   8.339   2.404   7.014 -1.7608  0.7681  0.4115
  464MOL0     H61232   8.924   2.311   7.044 -1.0124  0.3497  0.1706
  464MOL0     H61233   9.131   2.466   7.074 -0.5728 -0.2560 -0.5365
  464MOL0     H61234   8.739   2.773   6.633  3.6000 -0.0845 -1.0277
  464MOL0     H61235   8.937   2.658   6.625  0.7439  2.1296  4.0122
  464MOL0     H61236   9.148   2.306   6.779 -1.5270  1.2873 -1.1241
  464MOL0     H61237   9.356   2.155   6.789 -0.1225 -0.1460  1.4134
  464MOL0     H61238   9.453   1.890   6.428  2.4600  1.6372  0.3885
  464MOL0     H61239   9.357   1.852   6.577  1.9988  0.3447  6.3918
  464MOL0     H61240   9.659   1.836   6.513  0.0543 -3.6734 -1.6445
  464MOL0     H61241   9.610   1.850   6.675 -0.9293  2.1872 -0.5544
  464MOL0     H61242   9.476   1.624   6.654  0.1011 -1.5730  0.6449
  464MOL0     H61243   9.644   1.601   6.622 -1.0141 -2.0396 -1.3942
  464MOL0     H61244   9.616   1.619   6.381 -0.9143  0.4701 -0.8561
  464MOL0     H61245   9.544   1.483   6.466  1.0843 -0.1125 -2.2402
  464MOL0     H61246   9.211   1.619   6.268  1.3040 -0.9824 -1.5347
  464MOL0     H61247   9.261   2.047   6.373 -0.6707  0.8299 -0.2797
  464MOL0     H61248   9.073   2.160   6.381  0.6130  3.3508 -0.3219
  465MOL0     O61249  11.274   8.686   5.105  0.8489  0.8071  0.0983
  465MOL0     C61250  11.167   8.628   5.133  0.6398 -0.9738  0.0465
  465MOL0     O61251  11.121   8.588   5.251 -0.3151  0.2093  0.0338
  465MOL0     C61252  11.201   8.611   5.364  0.2230  0.0240 -0.0075
  465MOL0     C61253  11.340   8.595   5.370 -0.0530  0.0977  0.5363
  465MOL0     C61254  11.407   8.624   5.494 -0.1038  0.0883  0.3172
  465MOL0     C61255  11.338   8.647   5.611 -0.0452  0.5854  0.0785
  465MOL0     O61256  11.399   8.690   5.730 -0.5681  0.2341 -0.5384
  465MOL0     C61257  11.493   8.602   5.787 -0.5284 -0.6639 -0.0062
  465MOL0     C61258  11.614   8.685   5.857 -0.2599  0.4037 -0.0992
  465MOL0     C61259  11.681   8.779   5.760 -0.0208 -0.1209  0.0570
  465MOL0     C61260  11.822   8.816   5.815 -0.4445 -0.2088  0.1115
  465MOL0     C61261  11.817   8.894   5.949 -0.8021 -0.6619 -1.0085
  465MOL0     C61262  11.963   8.917   5.989  0.6782  0.1559 -0.5085
  465MOL0     C61263  11.979   8.968   6.133 -0.2950 -0.2565  0.0524
  465MOL0     C61264  11.994   8.850   6.236  1.2373 -0.0055 -0.2972
  465MOL0     N61265  12.006   8.887   6.375  0.5210  0.0271  0.4488
  465MOL0     C61266  12.127   8.936   6.429 -0.1483  0.4218 -0.7188
  465MOL0     C61267  12.090   8.983   6.551 -0.0290 -0.7197 -0.1666
  465MOL0     C61268  12.189   9.050   6.642  0.3298 -0.2262  0.4788
  465MOL0     C61269  12.135   9.178   6.705  0.7935 -0.5207 -0.7010
  465MOL0     C61270  12.144   9.304   6.619  0.3286 -0.3328  0.1001
  465MOL0     C61271  12.273   9.384   6.658  0.8922 -0.1592  0.7006
  465MOL0     O61272  12.393   9.311   6.660  0.4649  0.2392  0.4873
  465MOL0     C61273  12.502   9.392   6.673  0.4243 -0.6771  0.7007
  465MOL0     C61274  12.542   9.481   6.569 -0.0281 -0.4482 -0.6379
  465MOL0     C61275  12.652   9.554   6.568  1.5806 -0.4821 -0.6254
  465MOL0     C61276  12.733   9.556   6.684  0.8567 -0.2371 -0.4521
  465MOL0     C61277  12.856   9.634   6.690  0.3674 -0.6994  1.4334
  465MOL0     O61278  12.935   9.618   6.801  0.6532 -0.6612  0.5906
  465MOL0     C61279  13.046   9.694   6.818  0.0146 -0.0846  0.6584
  465MOL0     C61280  13.034   9.835   6.834  0.0497 -0.7337 -0.3389
  465MOL0     C61281  13.143   9.912   6.863 -0.6410  0.1038 -0.8037
  465MOL0     C61282  13.278   9.861   6.840  0.9443  0.7195 -0.1312
  465MOL0     O61283  13.381   9.951   6.836 -0.5808 -0.1041 -0.7020
  465MOL0     C61284  13.507   9.902   6.805 -0.7012  0.2323  0.0787
  465MOL0     C61285  13.606  10.001   6.848 -0.0521  0.0197  0.1752
  465MOL0     C61286  13.750   9.944   6.818  0.4292 -0.8282 -0.5243
  465MOL0     C61287  13.822   9.907   6.940  0.9006  0.2052 -0.5670
  465MOL0     C61288  13.968   9.886   6.904 -0.7004 -0.4343 -0.5614
  465MOL0     C61289  14.047   9.875   7.039  0.6760  0.2248  0.8504
  465MOL0     C61290  14.065  10.022   7.107 -0.1530 -0.0566  0.0174
  465MOL0     C61291  14.188  10.022   7.195 -0.2376  0.5265 -0.4626
  465MOL0    Cl61292  14.213  10.172   7.283 -0.1052  0.0426 -0.0203
  465MOL0     C61293  13.284   9.725   6.815  0.1007  0.7083  0.8036
  465MOL0     C61294  13.171   9.640   6.806 -0.1811 -0.0288  0.1116
  465MOL0     O61295  12.888   9.708   6.588  0.3196  0.1014 -0.5682
  465MOL0     C61296  12.699   9.463   6.787 -0.3957 -1.1492  0.0606
  465MOL0     C61297  12.586   9.386   6.779  1.1609  0.4687 -0.3935
  465MOL0     N61298  11.956   8.969   6.565  0.1990  0.1000  0.1131
  465MOL0     N61299  11.905   8.913   6.461  0.1330 -0.6875  0.5008
  465MOL0     C61300  11.201   8.648   5.611 -0.4269  1.0132 -0.7612
  465MOL0     C61301  11.130   8.630   5.489 -0.3299 -0.0479 -0.4938
  465MOL0     C61302  11.070   8.625   5.033 -0.3308  0.7500  1.2612
  465MOL0     C61303  10.931   8.594   5.059  0.1813 -0.6398  0.3872
  465MOL0     C61304  10.840   8.598   4.950  0.0820  0.1412  0.4702
  465MOL0     C61305  10.885   8.627   4.822  0.5910  0.0184 -0.8122
  465MOL0     O61306  10.811   8.637   4.711 -0.0983 -0.3164 -0.1561
  465MOL0     C61307  10.670   8.599   4.710  0.1048 -1.0397  0.2578
  465MOL0     C61308  10.680   8.455   4.706 -0.0297 -0.0095  0.9194
  465MOL0     C61309  10.739   8.402   4.572  0.0541  0.7005 -0.4437
  465MOL0     C61310  10.731   8.252   4.549  0.3464 -0.7371 -0.3518
  465MOL0     C61311  10.791   8.214   4.418  0.6039 -1.5351 -0.0958
  465MOL0     C61312  10.859   8.209   4.326 -0.5689  0.7000 -0.7538
  465MOL0     C61313  11.016   8.659   4.797  0.6854 -0.9917  0.2341
  465MOL0     C61314  11.109   8.645   4.895 -0.3962  0.0214 -1.3471
  465MOL0     H61315  11.400   8.574   5.281 -1.8444  0.5031 -0.8301
  465MOL0     H61316  11.516   8.621   5.494 -0.0307 -4.8784 -0.1645
  465MOL0     H61317  11.544   8.537   5.715 -0.6676  0.8847 -1.5583
  465MOL0     H61318  11.441   8.555   5.871  0.0245 -0.6467  0.3512
  465MOL0     H61319  11.691   8.624   5.904 -2.0717 -3.6778 -1.9593
  465MOL0     H61320  11.572   8.743   5.940  0.4189 -1.6792  1.8094
  465MOL0     H61321  11.628   8.870   5.730  2.5785  0.2380 -4.1369
  465MOL0     H61322  11.706   8.716   5.675  0.3214 -1.1758  0.9179
  465MOL0     H61323  11.886   8.731   5.840 -0.3853 -1.5051 -3.8902
  465MOL0     H61324  11.867   8.869   5.731 -1.3821 -0.0189 -0.2816
  465MOL0     H61325  11.767   8.845   6.033  0.5867 -2.1983 -1.0051
  465MOL0     H61326  11.766   8.989   5.935 -0.9072 -0.2847  1.5682
  465MOL0     H61327  12.015   8.976   5.914  2.4359 -0.0533  0.4975
  465MOL0     H61328  12.006   8.816   5.989 -1.2879 -0.8544  3.1808
  465MOL0     H61329  12.074   9.023   6.134 -0.7959  0.6961 -1.6527
  465MOL0     H61330  11.901   9.036   6.169 -1.6747 -1.8998  0.2682
  465MOL0     H61331  12.076   8.781   6.212  3.2358  0.3929  4.3308
  465MOL0     H61332  11.907   8.783   6.232 -0.9576  2.7354 -1.4822
  465MOL0     H61333  12.228   8.935   6.390 -0.2525 -0.3498 -1.0010
  465MOL0     H61334  12.290   9.060   6.602  0.3017 -0.4925  0.3348
  465MOL0     H61335  12.199   8.982   6.726  0.2640  1.2135  1.6845
  465MOL0     H61336  12.176   9.192   6.805 -1.0037 -2.8611  0.4314
  465MOL0     H61337  12.028   9.173   6.725  1.2615 -1.3783  1.9881
  465MOL0     H61338  12.146   9.286   6.511  0.1389  0.0864  0.0240
  465MOL0     H61339  12.057   9.367   6.638 -1.1970 -2.0677 -0.8281
  465MOL0     H61340  12.262   9.421   6.761 -0.1229 -2.0686  1.3305
  465MOL0     H61341  12.275   9.460   6.579 -0.0463 -3.7193 -3.1208
  465MOL0     H61342  12.477   9.482   6.482  0.6459  0.1645 -1.1445
  465MOL0     H61343  12.693   9.613   6.487  3.5547  1.2278  1.4502
  465MOL0     H61344  12.933   9.876   6.834 -0.9280 -2.8919  1.6472
  465MOL0     H61345  13.144  10.015   6.896  1.5121  0.3663 -1.5667
  465MOL0     H61346  13.502   9.894   6.696  0.7473 -0.1564  0.0212
  465MOL0     H61347  13.534   9.809   6.855  2.7368  1.9853  1.8190
  465MOL0     H61348  13.583  10.022   6.953 -0.3545 -3.4715  0.9218
  465MOL0     H61349  13.602  10.093   6.789  3.8854 -0.5478 -1.2754
  465MOL0     H61350  13.806  10.014   6.756 -3.6474  3.1343 -0.2796
  465MOL0     H61351  13.742   9.858   6.752 -0.9133 -0.9737 -0.1988
  465MOL0     H61352  13.804   9.989   7.010 -0.1352  2.5871 -3.4333
  465MOL0     H61353  13.787   9.815   6.987 -1.3956  2.8452  3.4485
  465MOL0     H61354  14.017   9.963   6.844 -0.9277 -0.9536 -1.4189
  465MOL0     H61355  13.978   9.792   6.849 -0.2873 -1.9807  1.9666
  465MOL0     H61356  14.142   9.825   7.023 -0.5493 -2.6429  1.9914
  465MOL0     H61357  13.989   9.817   7.111 -1.9353  1.0754 -0.4339
  465MOL0     H61358  14.071  10.091   7.022 -3.0639 -2.3614 -2.2590
  465MOL0     H61359  13.981  10.046   7.172  1.1209 -1.0126  2.1035
  465MOL0     H61360  14.274   9.998   7.132  0.5323  2.9745 -0.4441
  465MOL0     H61361  14.173   9.932   7.255 -0.5913  0.9918  0.1620
  465MOL0     H61362  13.383   9.680   6.814 -1.0447 -1.9432 -0.1384
  465MOL0     H61363  13.189   9.534   6.791  0.1955  0.1649 -0.8284
  465MOL0     H61364  12.776   9.460   6.864  1.1812  4.9574 -0.7713
  465MOL0     H61365  12.561   9.313   6.855 -2.7345  2.1689  0.1896
  465MOL0     H61366  11.146   8.669   5.703 -1.1924  1.2105 -1.2475
  465MOL0     H61367  11.023   8.646   5.491 -0.2320  0.9298  2.1415
  465MOL0     H61368  10.897   8.561   5.156 -1.2394 -2.2971 -0.6147
  465MOL0     H61369  10.735   8.591   4.974 -0.2464  0.8497 -0.7064
  465MOL0     H61370  10.614   8.656   4.636 -1.7478 -1.1727  1.4796
  465MOL0     H61371  10.611   8.624   4.799 -3.9870 -0.5679 -2.2857
  465MOL0     H61372  10.743   8.415   4.786 -0.5505  0.2119  1.4491
  465MOL0     H61373  10.582   8.408   4.715 -0.5533  1.1157  1.2867
  465MOL0     H61374  10.841   8.440   4.578  0.2043  0.3889 -0.9467
  465MOL0     H61375  10.697   8.462   4.491  0.0308  1.8295  0.3811
  465MOL0     H61376  10.782   8.211   4.637  0.1190 -2.0360 -0.8002
  465MOL0     H61377  10.626   8.223   4.556 -0.8018  2.6953 -1.6909
  465MOL0     H61378  10.934   8.204   4.250  0.1005  2.5836 -0.2620
  465MOL0     H61379  11.038   8.692   4.696 -2.9174 -2.1625 -1.0875
  465MOL0     H61380  11.214   8.638   4.869 -0.1710 -2.1442 -0.1070
  466MOL0     O61381  11.373   9.454   3.362  0.1808  1.5756 -0.3715
  466MOL0     C61382  11.258   9.465   3.336  0.9042 -0.6485 -0.0068
  466MOL0     O61383  11.160   9.372   3.381 -0.1147 -0.8852 -0.4411
  466MOL0     C61384  11.210   9.275   3.459 -0.6230 -0.4214 -0.0092
  466MOL0     C61385  11.313   9.194   3.411 -0.3196  0.4836  0.4093
  466MOL0     C61386  11.381   9.103   3.497  1.1562 -0.6538  0.5132
  466MOL0     C61387  11.348   9.093   3.633  0.4286  0.2390  0.0836
  466MOL0     O61388  11.428   9.011   3.711 -0.2598 -0.5865 -0.5666
  466MOL0     C61389  11.413   8.998   3.853  0.7208 -0.2476  1.7104
  466MOL0     C61390  11.544   8.972   3.920 -1.0840 -0.5925 -0.7181
  466MOL0     C61391  11.539   9.043   4.061  0.4245 -0.7687  0.0208
  466MOL0     C61392  11.668   9.055   4.147  0.5339 -0.9202  0.5517
  466MOL0     C61393  11.623   9.141   4.264 -0.2170 -0.7686  0.3715
  466MOL0     C61394  11.722   9.172   4.364  0.2523  0.0038  0.0071
  466MOL0     C61395  11.757   9.060   4.467  0.5487 -0.4280  0.3911
  466MOL0     C61396  11.904   9.071   4.510  0.0860 -0.0549 -0.1373
  466MOL0     N61397  11.945   8.955   4.594 -0.6315  0.5904 -0.4978
  466MOL0     C61398  12.030   8.851   4.565 -0.3386 -0.1648  1.2732
  466MOL0     C61399  12.038   8.764   4.668  0.4060 -0.5834  0.5147
  466MOL0     C61400  12.133   8.650   4.693 -0.0605 -0.7055 -0.1666
  466MOL0     C61401  12.237   8.619   4.578 -0.0709  0.1436 -0.0373
  466MOL0     C61402  12.329   8.496   4.606 -0.0048 -0.0647  0.6348
  466MOL0     C61403  12.444   8.531   4.705  0.4261 -0.3117  0.3395
  466MOL0     O61404  12.547   8.434   4.688 -0.2919  0.4928  1.2135
  466MOL0     C61405  12.635   8.452   4.586  0.0607  0.2783  1.2895
  466MOL0     C61406  12.721   8.347   4.555  0.4697 -0.3126  0.1748
  466MOL0     C61407  12.809   8.348   4.440  0.0467 -0.3326 -0.7772
  466MOL0     C61408  12.812   8.454   4.353  0.3302 -0.3361 -0.8204
  466MOL0     C61409  12.897   8.462   4.235  0.4567 -0.0418 -0.3000
  466MOL0     O61410  12.987   8.360   4.224 -0.4979  0.4128 -0.4441
  466MOL0     C61411  13.095   8.378   4.138  0.8141 -0.3397  0.2838
  466MOL0     C61412  13.209   8.446   4.172 -1.0540 -0.5287  0.8565
  466MOL0     C61413  13.311   8.469   4.082 -0.7322  0.0791  0.0925
  466MOL0     C61414  13.298   8.415   3.955  0.4564  0.0642 -0.1118
  466MOL0     O61415  13.388   8.458   3.865  0.9307 -0.1649  0.1823
  466MOL0     C61416  13.345   8.498   3.735  0.2467  0.3154 -0.3041
  466MOL0     C61417  13.461   8.488   3.638 -0.4564 -0.6549 -0.3415
  466MOL0     C61418  13.524   8.350   3.627 -0.3286  1.2247  0.8227
  466MOL0     C61419  13.649   8.360   3.532 -0.4079 -1.1785  0.8007
  466MOL0     C61420  13.711   8.224   3.525 -0.3129 -1.5922 -0.4339
  466MOL0     C61421  13.829   8.229   3.431 -0.8455 -1.1951 -0.2806
  466MOL0     C61422  13.805   8.221   3.285  0.7159 -0.5209  0.3467
  466MOL0     C61423  13.937   8.190   3.212 -0.1761 -0.3848 -0.8760
  466MOL0    Cl61424  14.068   8.313   3.260 -0.1077  0.3861 -0.1849
  466MOL0     C61425  13.188   8.327   3.918 -0.5257  0.9605 -0.5760
  466MOL0     C61426  13.090   8.319   4.009 -0.1870  0.9621 -0.0195
  466MOL0     O61427  12.874   8.552   4.153 -0.6836  0.0142  0.4431
  466MOL0     C61428  12.716   8.554   4.379 -0.0400 -0.1070 -1.1306
  466MOL0     C61429  12.635   8.569   4.497  0.5586 -0.4411  0.5099
  466MOL0     N61430  11.957   8.824   4.765 -0.4726  0.4437 -1.0313
  466MOL0     N61431  11.905   8.929   4.724  0.2567 -0.9165  0.2996
  466MOL0     C61432  11.238   9.176   3.673  0.2612  0.4679  0.0231
  466MOL0     C61433  11.174   9.265   3.591  0.4732 -1.3097 -0.8207
  466MOL0     C61434  11.213   9.580   3.256 -0.1631  0.0702 -0.2475
  466MOL0     C61435  11.294   9.698   3.254 -0.4046  0.0602  0.2102
  466MOL0     C61436  11.275   9.797   3.166 -0.0885 -0.2657  0.2373
  466MOL0     C61437  11.162   9.791   3.083  1.2977  0.8066  1.0932
  466MOL0     O61438  11.123   9.894   3.005  0.1938 -0.4877 -0.0356
  466MOL0     C61439  11.217  10.009   2.991 -0.3884 -0.1113  0.6263
  466MOL0     C61440  11.188  10.109   2.874 -0.0630  0.0021  0.0911
  466MOL0     C61441  11.234  10.068   2.733 -0.2412 -0.0239  0.0687
  466MOL0     C61442  11.208   9.932   2.686 -0.4952 -0.0910 -0.7148
  466MOL0     C61443  11.311   9.835   2.740 -0.2134  0.3247  0.9220
  466MOL0     C61444  11.401   9.761   2.767 -0.0865  0.5806 -0.5736
  466MOL0     C61445  11.075   9.688   3.090 -0.2696 -0.2058 -0.4944
  466MOL0     C61446  11.106   9.576   3.168 -0.2926  0.1438 -0.2390
  466MOL0     H61447  11.352   9.197   3.310  0.3688  0.7425  0.6781
  466MOL0     H61448  11.456   9.041   3.448  2.2135 -0.1683  1.4697
  466MOL0     H61449  11.349   8.911   3.873 -0.6045  0.1701 -0.3241
  466MOL0     H61450  11.368   9.082   3.906 -0.0720 -0.5189  1.4784
  466MOL0     H61451  11.623   9.020   3.861  0.8818 -0.1136  2.0542
  466MOL0     H61452  11.559   8.864   3.929 -1.5759 -0.4772  2.9622
  466MOL0     H61453  11.460   8.996   4.121 -0.6548  1.1983  0.2190
  466MOL0     H61454  11.500   9.143   4.041 -0.3065 -0.7803  1.2902
  466MOL0     H61455  11.691   8.955   4.183  0.0684 -0.9610  0.7498
  466MOL0     H61456  11.753   9.095   4.091 -1.5546  1.4219 -1.1601
  466MOL0     H61457  11.533   9.097   4.308 -1.0585  1.6027  1.1767
  466MOL0     H61458  11.599   9.241   4.229 -0.2402 -1.1224 -0.6636
  466MOL0     H61459  11.696   9.259   4.425  1.4463 -0.6085  1.4300
  466MOL0     H61460  11.814   9.207   4.315  0.4330 -0.0685  0.2911
  466MOL0     H61461  11.690   9.069   4.552 -1.2031 -0.1843 -0.9687
  466MOL0     H61462  11.731   8.966   4.418  0.6180 -1.3394  2.0303
  466MOL0     H61463  11.909   9.159   4.575  2.7727  1.1299 -1.7737
  466MOL0     H61464  11.975   9.069   4.426  2.0463 -0.0005  1.4304
  466MOL0     H61465  12.090   8.848   4.475 -0.8939  0.3006  0.8854
  466MOL0     H61466  12.078   8.557   4.710  0.5458 -1.0661 -0.1348
  466MOL0     H61467  12.173   8.681   4.790 -2.0421 -2.3153  1.2604
  466MOL0     H61468  12.299   8.704   4.551 -0.6849 -0.1032 -2.5296
  466MOL0     H61469  12.176   8.599   4.489  0.3545 -0.1531 -0.2673
  466MOL0     H61470  12.271   8.414   4.648 -0.7026  0.1640  0.1395
  466MOL0     H61471  12.369   8.453   4.514  1.1380 -0.8287  1.4604
  466MOL0     H61472  12.425   8.520   4.812  0.7304 -1.3613  0.2906
  466MOL0     H61473  12.475   8.633   4.680  0.8701 -0.6027 -0.3303
  466MOL0     H61474  12.723   8.252   4.607  1.0662  0.9383  2.5762
  466MOL0     H61475  12.863   8.256   4.421 -0.8860 -1.6460  2.2898
  466MOL0     H61476  13.208   8.501   4.266 -4.0335 -0.3582  0.8143
  466MOL0     H61477  13.387   8.542   4.110 -0.5276 -1.4108  4.0298
  466MOL0     H61478  13.299   8.596   3.719  3.3010  1.4401 -3.2307
  466MOL0     H61479  13.275   8.424   3.695  1.3840 -1.2019  0.4143
  466MOL0     H61480  13.533   8.562   3.673 -1.8368 -0.8587  3.3754
  466MOL0     H61481  13.422   8.530   3.545 -0.7876 -2.2956 -0.9889
  466MOL0     H61482  13.443   8.287   3.590  0.0323  1.5531 -0.5977
  466MOL0     H61483  13.558   8.322   3.727 -0.0286  1.3960  0.7709
  466MOL0     H61484  13.607   8.388   3.434  0.5726  0.7887  0.8960
  466MOL0     H61485  13.706   8.444   3.572  0.1090 -1.5499  0.8442
  466MOL0     H61486  13.634   8.155   3.489 -2.4823  1.1821 -1.4699
  466MOL0     H61487  13.752   8.205   3.624  1.6202  5.4892  0.6760
  466MOL0     H61488  13.897   8.145   3.450 -1.0579 -1.6188 -1.3669
  466MOL0     H61489  13.883   8.323   3.444 -2.6708  0.0941 -1.5738
  466MOL0     H61490  13.745   8.130   3.276  3.3881 -2.2491 -1.7835
  466MOL0     H61491  13.749   8.304   3.241  0.8687  0.3000  1.6599
  466MOL0     H61492  13.917   8.189   3.104  0.6053  1.2237 -1.0629
  466MOL0     H61493  13.980   8.091   3.229 -0.0285 -0.2016 -0.1794
  466MOL0     H61494  13.177   8.291   3.816  5.2696  0.1685 -1.2741
  466MOL0     H61495  13.004   8.260   3.979  1.3077 -0.2737 -2.1324
  466MOL0     H61496  12.715   8.637   4.310 -1.3120  0.2538 -0.7148
  466MOL0     H61497  12.564   8.651   4.497  1.2821  0.2501 -1.3779
  466MOL0     H61498  11.206   9.185   3.777 -0.9845  0.4226 -0.3499
  466MOL0     H61499  11.097   9.331   3.630  0.4189 -2.0568  0.4037
  466MOL0     H61500  11.384   9.700   3.314  2.1397 -1.1856 -3.2335
  466MOL0     H61501  11.341   9.883   3.173  1.9272 -1.8781  2.6479
  466MOL0     H61502  11.314   9.960   2.975 -1.6942 -1.7829 -3.6600
  466MOL0     H61503  11.212  10.070   3.081 -2.3238 -1.1831  1.3083
  466MOL0     H61504  11.084  10.141   2.864  0.1748  0.0719 -2.8881
  466MOL0     H61505  11.234  10.202   2.908 -2.0180  0.2493  2.3489
  466MOL0     H61506  11.339  10.089   2.713  0.0139 -1.0871  0.2491
  466MOL0     H61507  11.180  10.144   2.676  0.2661  1.3335  1.3413
  466MOL0     H61508  11.116   9.894   2.731  1.5833 -3.5686  1.0241
  466MOL0     H61509  11.198   9.909   2.579 -3.2378 -3.5817  0.1020
  466MOL0     H61510  11.480   9.689   2.767 -2.7442 -2.8517  4.0232
  466MOL0     H61511  10.987   9.678   3.027 -0.3062 -0.0413 -0.4713
  466MOL0     H61512  11.048   9.486   3.186 -0.2730  0.7765  3.9322
  467MOL0     O61513  10.823   1.337   0.622 -1.1199 -0.8369  0.3158
  467MOL0     C61514  10.742   1.425   0.640 -1.1471  0.8835  0.0846
  467MOL0     O61515  10.619   1.412   0.701  0.0584 -0.4273  0.7268
  467MOL0     C61516  10.564   1.299   0.756 -0.2193 -0.8122 -0.2116
  467MOL0     C61517  10.425   1.282   0.759 -0.8146 -0.2273 -0.0461
  467MOL0     C61518  10.366   1.162   0.810 -0.4527 -1.5380 -0.6889
  467MOL0     C61519  10.453   1.070   0.865  0.9487 -0.2561  0.2832
  467MOL0     O61520  10.416   0.956   0.924  0.4039 -0.1041 -0.6105
  467MOL0     C61521  10.306   0.873   0.864 -0.9416 -0.2093  0.0675
  467MOL0     C61522  10.287   0.746   0.948 -0.3041  0.2566 -1.2623
  467MOL0     C61523  10.209   0.631   0.878 -0.3148  0.3578  0.2685
  467MOL0     C61524  10.283   0.569   0.760  0.4261  0.5367  0.7508
  467MOL0     C61525  10.199   0.460   0.684  0.0710 -0.3830 -0.4106
  467MOL0     C61526  10.274   0.422   0.560  0.7145  0.5153  0.7472
  467MOL0     C61527  10.248   0.528   0.458  0.2796  0.4894  0.3753
  467MOL0     C61528  10.308   0.492   0.322  0.6227 -0.0477 -0.0080
  467MOL0     N61529  10.444   0.419   0.320  0.0022 -0.1505  0.0688
  467MOL0     C61530  10.552   0.452   0.399  0.5709 -0.2893 -0.7031
  467MOL0     C61531  10.639   0.352   0.403  0.0391 -0.0210 -0.4616
  467MOL0     C61532  10.783   0.360   0.446 -0.1142  0.3716  0.4181
  467MOL0     C61533  10.856   0.226   0.474 -0.4492  0.0968 -0.2581
  467MOL0     C61534  10.791   0.156   0.599  0.6457  0.1063  1.0287
  467MOL0     C61535  10.869   0.027   0.635 -0.5634 -0.0699 -0.0936
  467MOL0     O61536  10.789  -0.037   0.731 -0.1496 -0.7412 -0.1191
  467MOL0     C61537  10.746  -0.164   0.695  0.7129  0.0386 -0.6197
  467MOL0     C61538  10.823  -0.276   0.707  0.1475 -0.1976  0.0308
  467MOL0     C61539  10.766  -0.403   0.698 -0.2147  0.6172  0.0977
  467MOL0     C61540  10.627  -0.415   0.677  0.4606 -0.5918  0.0774
  467MOL0     C61541  10.559  -0.544   0.654 -0.1260  0.0417 -0.6815
  467MOL0     O61542  10.466  -0.550   0.553 -0.1870 -0.0473  0.7380
  467MOL0     C61543  10.426  -0.673   0.517 -0.4855  0.2648 -1.1874
  467MOL0     C61544  10.303  -0.715   0.561  0.2994  0.6371  0.2087
  467MOL0     C61545  10.257  -0.842   0.529 -0.3341  0.0864  0.6759
  467MOL0     C61546  10.341  -0.921   0.447 -0.4065  0.0358  0.0440
  467MOL0     O61547  10.298  -1.044   0.411  0.1788 -0.6759 -0.4883
  467MOL0     C61548  10.175  -1.052   0.336  0.0079 -0.1126  0.1447
  467MOL0     C61549  10.155  -1.187   0.276  0.6667 -0.4288 -0.2211
  467MOL0     C61550  10.016  -1.186   0.202  0.2447  0.1014  0.3615
  467MOL0     C61551   9.991  -1.319   0.120  0.4750  0.5424  0.2896
  467MOL0     C61552  10.048  -1.306  -0.022 -0.4621  0.4417 -0.1311
  467MOL0     C61553  10.068  -1.438  -0.088  1.1657 -0.2677  0.1348
  467MOL0     C61554  10.095  -1.423  -0.227 -0.5773  0.3555  0.0107
  467MOL0     C61555  10.159  -1.550  -0.294 -0.1649  0.3084 -0.4125
  467MOL0    Cl61556  10.037  -1.688  -0.288  0.1814 -0.0115  0.1551
  467MOL0     C61557  10.464  -0.887   0.414 -0.7139 -0.6936 -0.7438
  467MOL0     C61558  10.514  -0.770   0.459  0.2647 -0.9284  0.5573
  467MOL0     O61559  10.607  -0.643   0.721 -0.6017 -0.6097  0.2028
  467MOL0     C61560  10.548  -0.298   0.659 -0.3097 -0.2252 -0.2258
  467MOL0     C61561  10.607  -0.174   0.667 -0.0212  0.8191  0.3443
  467MOL0     N61562  10.579   0.246   0.335  0.0121 -0.8551 -0.8924
  467MOL0     N61563  10.472   0.294   0.270  0.4167  0.4123 -0.5096
  467MOL0     C61564  10.591   1.086   0.853  0.7648 -0.1402 -0.9939
  467MOL0     C61565  10.646   1.197   0.798  0.7345 -0.7391 -0.2947
  467MOL0     C61566  10.786   1.562   0.605  0.1065 -1.0954  0.6194
  467MOL0     C61567  10.694   1.659   0.577  0.2190  0.4680  0.8855
  467MOL0     C61568  10.731   1.792   0.529 -0.2139  0.3052  0.7859
  467MOL0     C61569  10.864   1.826   0.513 -1.5835 -0.6079 -0.4071
  467MOL0     O61570  10.898   1.948   0.459  0.5969 -0.2661  0.6238
  467MOL0     C61571  11.038   1.979   0.450 -0.0477  0.8215  0.0668
  467MOL0     C61572  11.056   2.098   0.348 -0.0148 -0.0568  0.7224
  467MOL0     C61573  10.993   2.225   0.396 -0.0689  0.0940 -0.2655
  467MOL0     C61574  11.014   2.337   0.306  0.2931 -0.1712  0.9390
  467MOL0     C61575  10.969   2.460   0.362 -0.8381 -0.7312  0.6172
  467MOL0     C61576  10.930   2.558   0.423 -0.2101 -0.4089  0.0571
  467MOL0     C61577  10.963   1.732   0.562  0.0913  0.4164 -0.0833
  467MOL0     C61578  10.914   1.608   0.620 -0.0878  0.2538  0.0315
  467MOL0     H61579  10.361   1.355   0.710 -1.4764  0.5997  1.9340
  467MOL0     H61580  10.264   1.144   0.777 -0.9203  1.5218 -1.2290
  467MOL0     H61581  10.333   0.846   0.761 -0.7473  1.8689 -0.4649
  467MOL0     H61582  10.214   0.931   0.873 -1.4836 -1.2471  1.5799
  467MOL0     H61583  10.243   0.781   1.042  0.9852 -1.8489  0.1957
  467MOL0     H61584  10.374   0.700   0.996 -1.9033 -0.6029  0.9506
  467MOL0     H61585  10.115   0.669   0.839  0.1062 -2.1455 -3.8232
  467MOL0     H61586  10.185   0.539   0.932  3.5167  0.3259  2.2374
  467MOL0     H61587  10.312   0.642   0.684 -0.2889 -2.3608 -2.5255
  467MOL0     H61588  10.382   0.535   0.791  1.3753  0.5559 -2.0148
  467MOL0     H61589  10.095   0.491   0.667 -1.4019 -2.5961  3.3014
  467MOL0     H61590  10.192   0.372   0.748 -3.7115 -0.7039 -1.0302
  467MOL0     H61591  10.244   0.324   0.521 -0.1404  1.2498 -0.5068
  467MOL0     H61592  10.378   0.407   0.589  1.1747  1.8753 -0.1253
  467MOL0     H61593  10.140   0.538   0.443  0.3509  0.8716  0.0996
  467MOL0     H61594  10.276   0.630   0.484 -0.8116  1.6348 -2.4954
  467MOL0     H61595  10.321   0.589   0.272 -0.3711 -0.4133 -1.0052
  467MOL0     H61596  10.236   0.421   0.280 -0.7340 -0.5120  2.8294
  467MOL0     H61597  10.563   0.552   0.439 -0.3234 -0.3369 -0.3233
  467MOL0     H61598  10.799   0.417   0.538 -0.2278  0.8881  0.1208
  467MOL0     H61599  10.846   0.409   0.371 -0.5630  1.2837  0.6281
  467MOL0     H61600  10.959   0.249   0.501  0.0969 -2.1521 -0.2549
  467MOL0     H61601  10.858   0.155   0.390 -0.0147 -0.4321  0.1981
  467MOL0     H61602  10.810   0.205   0.695  2.8730 -0.4586  0.9365
  467MOL0     H61603  10.690   0.130   0.565  1.0496  0.0666 -0.1999
  467MOL0     H61604  10.973   0.040   0.669 -0.4383 -1.0071 -0.0999
  467MOL0     H61605  10.873  -0.031   0.543 -2.0163 -0.7047  0.2266
  467MOL0     H61606  10.923  -0.259   0.746 -0.8863  1.0907  2.3153
  467MOL0     H61607  10.822  -0.494   0.712 -1.7346 -0.2784  0.6468
  467MOL0     H61608  10.246  -0.651   0.628  0.8635  2.1416 -0.7017
  467MOL0     H61609  10.160  -0.878   0.561 -1.3909  0.6175 -1.6897
  467MOL0     H61610  10.190  -0.981   0.254  3.3117  0.8843  1.4526
  467MOL0     H61611  10.093  -1.034   0.407  0.9822 -3.4744  2.3296
  467MOL0     H61612  10.157  -1.271   0.347  1.4196 -0.8286 -0.6929
  467MOL0     H61613  10.230  -1.213   0.200  2.3759  1.3605  0.7770
  467MOL0     H61614  10.016  -1.100   0.135  0.6811  0.1164  0.3832
  467MOL0     H61615   9.926  -1.186   0.266 -1.2090 -2.9852 -1.4301
  467MOL0     H61616  10.047  -1.399   0.169 -1.1275 -1.2870 -0.7589
  467MOL0     H61617   9.883  -1.330   0.110  0.7327 -1.8199 -0.3419
  467MOL0     H61618  10.146  -1.258  -0.023 -0.0712 -0.3645 -1.5788
  467MOL0     H61619   9.979  -1.239  -0.075  0.1593  1.8581  0.7852
  467MOL0     H61620   9.978  -1.499  -0.078  0.1252  1.1965  0.0766
  467MOL0     H61621  10.157  -1.482  -0.043  0.3161 -0.8624  1.2749
  467MOL0     H61622   9.998  -1.396  -0.271 -1.3168  1.7826  2.3715
  467MOL0     H61623  10.164  -1.341  -0.248  0.7673 -1.0979 -1.5918
  467MOL0     H61624  10.252  -1.560  -0.237 -1.4795  2.1370  2.2962
  467MOL0     H61625  10.175  -1.538  -0.401  1.5138  1.2766 -0.0917
  467MOL0     H61626  10.525  -0.952   0.351  0.2922 -1.0707  0.5679
  467MOL0     H61627  10.613  -0.733   0.436 -0.4046 -0.3797 -1.6854
  467MOL0     H61628  10.444  -0.301   0.629 -0.3841 -1.6585  0.1262
  467MOL0     H61629  10.534  -0.096   0.649  0.7470  1.5033  0.1588
  467MOL0     H61630  10.659   1.008   0.885 -1.2561 -2.2296 -1.5713
  467MOL0     H61631  10.753   1.191   0.783  0.8050 -3.5952  0.7184
  467MOL0     H61632  10.588   1.635   0.587 -0.2075  2.5757  2.1313
  467MOL0     H61633  10.654   1.860   0.492  0.4988  0.4157 -0.5642
  467MOL0     H61634  11.091   1.893   0.410  1.7415  1.5894  0.6919
  467MOL0     H61635  11.079   1.998   0.549  1.9537  0.6283 -0.6874
  467MOL0     H61636  11.159   2.133   0.337 -1.0909  3.3031  0.4352
  467MOL0     H61637  11.029   2.061   0.248  0.9322  1.0779  0.0223
  467MOL0     H61638  11.042   2.245   0.492  1.3081  0.1553 -0.9667
  467MOL0     H61639  10.885   2.222   0.412 -0.5826  3.9870 -1.8748
  467MOL0     H61640  11.121   2.350   0.290  0.1938  2.6885  2.1070
  467MOL0     H61641  10.957   2.312   0.216 -0.1695  0.9138  0.9198
  467MOL0     H61642  10.897   2.655   0.456 -2.0293 -1.4109  1.3893
  467MOL0     H61643  11.070   1.744   0.571  0.3160  0.6874 -2.5448
  467MOL0     H61644  10.992   1.538   0.649  1.1388  1.0443 -1.2363
  468MOL0     O61645  11.367   4.495   7.424 -0.6844 -0.2086 -0.1146
  468MOL0     C61646  11.308   4.420   7.496  0.4798 -1.7425  0.1396
  468MOL0     O61647  11.355   4.327   7.587  0.2344 -0.7938 -0.0852
  468MOL0     C61648  11.482   4.351   7.634  0.9484  0.9739 -0.5621
  468MOL0     C61649  11.556   4.246   7.685 -0.1358  0.1911  0.1310
  468MOL0     C61650  11.684   4.273   7.746  0.1857 -0.7206  0.3639
  468MOL0     C61651  11.725   4.403   7.772 -0.7662  0.1477 -0.4549
  468MOL0     O61652  11.846   4.395   7.840  0.1257 -0.4375  0.0109
  468MOL0     C61653  11.828   4.410   7.982 -0.6980 -0.4740  0.0339
  468MOL0     C61654  11.761   4.292   8.047 -0.4408  0.5241 -0.7814
  468MOL0     C61655  11.764   4.282   8.199 -0.5547 -0.1513  0.0485
  468MOL0     C61656  11.728   4.412   8.269 -0.6548  1.1881  0.0083
  468MOL0     C61657  11.717   4.401   8.421 -0.2390 -0.2831 -0.5144
  468MOL0     C61658  11.694   4.540   8.497  0.1114  0.4221 -0.4976
  468MOL0     C61659  11.532   4.561   8.508  0.0048 -0.3537  0.5013
  468MOL0     C61660  11.490   4.698   8.572 -0.1858 -0.2860 -0.0491
  468MOL0     N61661  11.451   4.797   8.473 -0.0636 -0.3440 -0.0908
  468MOL0     C61662  11.346   4.802   8.384  0.0195 -0.4283  1.6537
  468MOL0     C61663  11.364   4.913   8.315 -0.1700 -0.2224  0.1735
  468MOL0     C61664  11.257   4.958   8.213 -0.7132  0.5554  0.1314
  468MOL0     C61665  11.195   5.098   8.257  0.6566  0.1035  0.2348
  468MOL0     C61666  11.090   5.142   8.153 -0.6697 -0.0845  0.6226
  468MOL0     C61667  11.040   5.289   8.175 -1.1329  0.3747  0.0219
  468MOL0     O61668  11.137   5.395   8.165  0.3155  0.0171  0.0157
  468MOL0     C61669  11.100   5.507   8.230 -0.1119 -0.2991  0.2394
  468MOL0     C61670  10.970   5.552   8.241  0.3650  1.0896 -0.7280
  468MOL0     C61671  10.934   5.673   8.305 -0.9757 -0.2091  0.7791
  468MOL0     C61672  11.032   5.745   8.368 -0.7889  0.1371 -0.9882
  468MOL0     C61673  10.997   5.866   8.455  0.7054  1.2844 -0.9864
  468MOL0     O61674  10.876   5.913   8.411 -0.1707 -0.1792  0.2103
  468MOL0     C61675  10.855   6.042   8.455  0.0785 -1.2100  0.1095
  468MOL0     C61676  10.849   6.146   8.351  0.2536 -0.3194 -1.1025
  468MOL0     C61677  10.831   6.277   8.388  0.1674  0.1324 -0.3722
  468MOL0     C61678  10.806   6.303   8.527  0.0004 -0.8186 -0.3923
  468MOL0     O61679  10.789   6.441   8.573  0.5341  0.6075 -0.0109
  468MOL0     C61680  10.890   6.534   8.540  0.9059  0.0480  0.1465
  468MOL0     C61681  11.021   6.532   8.638  0.6973  0.2143 -0.0717
  468MOL0     C61682  10.970   6.573   8.781  0.3346  0.2032  0.4737
  468MOL0     C61683  11.087   6.573   8.880  0.6721  0.0124  0.4451
  468MOL0     C61684  11.177   6.696   8.865 -0.3602  0.7388  0.4953
  468MOL0     C61685  11.135   6.800   8.961  0.2287  0.3424  0.7019
  468MOL0     C61686  11.215   6.927   8.935  0.5561 -0.5152  0.1406
  468MOL0     C61687  11.258   7.006   9.064 -0.0641  0.6847  1.0299
  468MOL0    Cl61688  11.110   7.074   9.133  0.7115  0.1040 -0.0221
  468MOL0     C61689  10.790   6.200   8.620 -0.2822  0.7073  0.8528
  468MOL0     C61690  10.817   6.075   8.577  0.2871 -0.6884  0.5205
  468MOL0     O61691  11.080   5.919   8.532  1.1559  0.4979 -0.3571
  468MOL0     C61692  11.166   5.704   8.371 -0.4807 -0.2906  0.0544
  468MOL0     C61693  11.203   5.588   8.295 -0.2294  0.3877 -0.5252
  468MOL0     N61694  11.471   4.983   8.374  0.3997 -0.5264 -0.6748
  468MOL0     N61695  11.522   4.918   8.469  0.4614 -0.5101  0.5726
  468MOL0     C61696  11.644   4.517   7.734  0.2652  0.3840  1.5059
  468MOL0     C61697  11.529   4.487   7.653 -0.8681 -0.3303  0.0840
  468MOL0     C61698  11.157   4.437   7.489 -0.0867  0.1585 -0.0425
  468MOL0     C61699  11.073   4.395   7.594  0.5805  0.4019 -0.5098
  468MOL0     C61700  10.937   4.424   7.591  0.6648  0.0763 -0.1480
  468MOL0     C61701  10.881   4.485   7.486 -0.1371  0.5207  0.5945
  468MOL0     O61702  10.749   4.521   7.500 -0.2124 -0.2250 -0.4760
  468MOL0     C61703  10.708   4.632   7.420 -0.5742  0.5653  0.5004
  468MOL0     C61704  10.554   4.647   7.416  0.0846 -0.0994  0.8205
  468MOL0     C61705  10.485   4.691   7.541 -0.0336 -0.8806 -0.1422
  468MOL0     C61706  10.336   4.725   7.526 -0.4636  0.5269 -0.1913
  468MOL0     C61707  10.248   4.616   7.519  1.2003  0.0817 -0.2075
  468MOL0     C61708  10.181   4.517   7.510 -0.6931  0.1189  0.0806
  468MOL0     C61709  10.960   4.518   7.370  0.3371  0.1252  0.4628
  468MOL0     C61710  11.094   4.495   7.373 -0.3399  0.6377 -0.0094
  468MOL0     H61711  11.523   4.142   7.679 -2.5458  0.8627  0.4700
  468MOL0     H61712  11.735   4.189   7.792 -0.9383 -3.3300 -2.7584
  468MOL0     H61713  11.766   4.497   8.007  0.5306  0.1042  1.1892
  468MOL0     H61714  11.924   4.434   8.028 -0.3861  0.6003 -1.1362
  468MOL0     H61715  11.801   4.203   7.997  2.0760  0.8657  0.4779
  468MOL0     H61716  11.658   4.294   8.008  0.5088  0.8134 -3.5267
  468MOL0     H61717  11.861   4.249   8.236 -1.0843 -0.7404  0.9428
  468MOL0     H61718  11.684   4.212   8.224 -1.6729  1.9523  2.7933
  468MOL0     H61719  11.803   4.487   8.243  0.1308  1.4179  2.6619
  468MOL0     H61720  11.635   4.442   8.222 -0.0938 -0.1071 -2.0747
  468MOL0     H61721  11.806   4.350   8.458 -0.8651 -2.1462 -1.4311
  468MOL0     H61722  11.625   4.346   8.443 -0.4435 -0.0933 -0.8921
  468MOL0     H61723  11.736   4.620   8.436  1.6545 -1.4370 -2.0143
  468MOL0     H61724  11.756   4.522   8.585  1.8209 -0.7415 -1.8840
  468MOL0     H61725  11.483   4.543   8.412  0.2241 -2.1181  0.6873
  468MOL0     H61726  11.496   4.485   8.577  2.6020 -2.4864 -0.3056
  468MOL0     H61727  11.577   4.736   8.626 -1.4002  0.6011  1.3433
  468MOL0     H61728  11.408   4.694   8.644  1.8450 -1.1071  2.3566
  468MOL0     H61729  11.269   4.725   8.378  0.2303 -0.6022  1.1556
  468MOL0     H61730  11.185   4.877   8.197  1.0247 -1.2120  0.8552
  468MOL0     H61731  11.314   4.966   8.120  1.1756 -0.5373  1.1241
  468MOL0     H61732  11.276   5.172   8.255 -0.5951  1.5123 -1.7810
  468MOL0     H61733  11.145   5.091   8.354 -1.1138  0.5341 -0.6266
  468MOL0     H61734  11.118   5.133   8.048  0.2435  1.9150  0.6555
  468MOL0     H61735  10.998   5.086   8.168 -1.8826  1.9582  1.1766
  468MOL0     H61736  11.005   5.283   8.279  0.0809 -0.6202  0.4038
  468MOL0     H61737  10.962   5.305   8.101  1.5245 -2.9064 -3.9018
  468MOL0     H61738  10.899   5.479   8.203  1.6235 -0.6858  0.2093
  468MOL0     H61739  10.834   5.717   8.301 -1.6814 -1.4626  2.7152
  468MOL0     H61740  10.867   6.108   8.250 -2.0396 -3.7316 -0.3932
  468MOL0     H61741  10.819   6.364   8.325  3.1536  1.0980  0.2231
  468MOL0     H61742  10.830   6.624   8.553 -2.1322 -1.5670 -1.4540
  468MOL0     H61743  10.915   6.530   8.433  0.5993 -0.0943  0.0788
  468MOL0     H61744  11.097   6.604   8.609  3.8353 -1.8800  2.3084
  468MOL0     H61745  11.063   6.431   8.640 -2.1057 -1.0829  1.5807
  468MOL0     H61746  10.892   6.506   8.817  0.3398 -0.9047 -1.4067
  468MOL0     H61747  10.936   6.676   8.772 -0.3666  0.3383  3.7046
  468MOL0     H61748  11.047   6.581   8.981 -0.7709  0.0734 -0.0994
  468MOL0     H61749  11.153   6.486   8.870  0.9581  0.0132  2.1299
  468MOL0     H61750  11.175   6.737   8.763 -3.5329  0.1181  0.2087
  468MOL0     H61751  11.280   6.669   8.886  0.4369  2.3017 -1.0682
  468MOL0     H61752  11.142   6.769   9.066  3.1198  0.2622  0.5390
  468MOL0     H61753  11.031   6.830   8.944  0.2606  0.6956  1.1199
  468MOL0     H61754  11.311   6.901   8.890  0.7432 -0.0617  0.2693
  468MOL0     H61755  11.166   6.986   8.856  1.7601  2.5106  1.4833
  468MOL0     H61756  11.341   7.074   9.041  1.1631  0.0643  3.2831
  468MOL0     H61757  11.306   6.934   9.132  2.6781  0.2394 -1.1579
  468MOL0     H61758  10.748   6.215   8.719 -1.6259 -2.3989  0.8665
  468MOL0     H61759  10.820   5.997   8.652 -1.1182 -1.7688 -0.4807
  468MOL0     H61760  11.243   5.755   8.428  1.2605 -1.1486 -1.4339
  468MOL0     H61761  11.308   5.561   8.291 -0.3011  0.2344 -1.8788
  468MOL0     H61762  11.683   4.618   7.739  1.5974  0.0151 -0.4384
  468MOL0     H61763  11.467   4.571   7.622  0.2611  0.2538 -0.6655
  468MOL0     H61764  11.117   4.357   7.685 -0.7170  3.9384  1.8242
  468MOL0     H61765  10.876   4.391   7.675  0.1200  1.0603 -0.1390
  468MOL0     H61766  10.736   4.613   7.316  2.8125  1.8090  1.0556
  468MOL0     H61767  10.772   4.716   7.449 -0.6352  0.2456  1.5974
  468MOL0     H61768  10.540   4.721   7.336  0.7693 -2.9225 -2.1069
  468MOL0     H61769  10.502   4.558   7.380 -2.4693  2.2024 -1.7523
  468MOL0     H61770  10.531   4.784   7.578  1.1793 -0.9156 -1.5017
  468MOL0     H61771  10.492   4.623   7.627  2.4124  2.2284  2.3996
  468MOL0     H61772  10.304   4.793   7.606 -3.5804 -2.3719  1.2868
  468MOL0     H61773  10.306   4.773   7.433 -1.7876  1.0093  0.4506
  468MOL0     H61774  10.122   4.430   7.490  0.3976 -0.5899 -0.1173
  468MOL0     H61775  10.924   4.562   7.278  0.6641  1.8455  1.1200
  468MOL0     H61776  11.136   4.520   7.277 -1.8186 -1.2527 -1.2349
  469MOL0     O61777   8.334   9.980   9.576  0.0979 -0.1253  0.8744
  469MOL0     C61778   8.291  10.093   9.588 -0.1328  0.5723 -0.7800
  469MOL0     O61779   8.298  10.178   9.694  0.5322  0.1900  0.7416
  469MOL0     C61780   8.406  10.154   9.772 -0.0371 -0.9197 -0.1643
  469MOL0     C61781   8.398  10.127   9.912  0.6494 -0.0667 -0.5816
  469MOL0     C61782   8.506  10.113  10.006 -0.8632 -0.5086 -0.8953
  469MOL0     C61783   8.636  10.148   9.957  0.7257  0.0959 -0.9280
  469MOL0     O61784   8.747  10.166  10.044  0.8549  0.3696  0.2727
  469MOL0     C61785   8.745  10.098  10.166  0.0084 -0.2887 -0.6544
  469MOL0     C61786   8.882  10.081  10.239  0.6963 -1.2450  0.7842
  469MOL0     C61787   8.968   9.960  10.198  0.3394 -0.5593  0.1239
  469MOL0     C61788   9.089   9.935  10.282  0.0799 -0.6611 -0.7799
  469MOL0     C61789   9.211  10.004  10.246  0.2612  0.9508  0.5485
  469MOL0     C61790   9.299   9.927  10.139  0.6869  0.6569  0.3762
  469MOL0     C61791   9.431  10.000  10.091  1.3257 -0.2634  0.5636
  469MOL0     C61792   9.507   9.925   9.989  0.5306 -1.1755 -0.2668
  469MOL0     N61793   9.437   9.877   9.869 -0.0179  0.2447  0.4891
  469MOL0     C61794   9.381   9.755   9.862 -0.0369  0.2396  0.8474
  469MOL0     C61795   9.330   9.758   9.736 -0.8262  0.6603  0.7029
  469MOL0     C61796   9.265   9.650   9.659  0.0722  0.3312 -0.6727
  469MOL0     C61797   9.110   9.646   9.675 -0.7899  0.1689 -0.8340
  469MOL0     C61798   9.041   9.514   9.645  0.7085 -0.6503 -0.4061
  469MOL0     C61799   9.099   9.393   9.739 -0.2038  0.6080  0.4452
  469MOL0     O61800   9.090   9.263   9.674 -0.4407  0.1338  0.8021
  469MOL0     C61801   9.205   9.182   9.691  0.7349  0.3080 -0.7598
  469MOL0     C61802   9.224   9.114   9.816 -0.9244  0.3563  0.2082
  469MOL0     C61803   9.330   9.032   9.833  0.3007 -0.0894 -0.0057
  469MOL0     C61804   9.414   8.994   9.724  0.2014  0.6019  0.2297
  469MOL0     C61805   9.510   8.894   9.743  0.5165  0.2559  0.1250
  469MOL0     O61806   9.627   8.908   9.665  0.6651 -0.6931  0.2368
  469MOL0     C61807   9.722   8.803   9.671 -0.2206 -0.6006  0.7387
  469MOL0     C61808   9.809   8.797   9.779  0.5323  0.6459  0.3285
  469MOL0     C61809   9.914   8.699   9.768  0.0254  0.0359 -0.0201
  469MOL0     C61810   9.914   8.604   9.670 -0.2994 -0.5835 -0.5943
  469MOL0     O61811   9.999   8.506   9.702 -0.4864  1.6788 -0.0122
  469MOL0     C61812  10.021   8.402   9.605  0.8292  0.3094  0.0254
  469MOL0     C61813  10.118   8.295   9.660 -0.1987  0.8857  0.2664
  469MOL0     C61814  10.258   8.353   9.683 -0.9446 -0.5648  0.1043
  469MOL0     C61815  10.343   8.235   9.730 -0.6421 -1.0066  0.1448
  469MOL0     C61816  10.470   8.296   9.797 -0.1010  0.1488  0.5910
  469MOL0     C61817  10.431   8.377   9.918  0.1000 -0.2779  0.7988
  469MOL0     C61818  10.543   8.359  10.013 -0.1201 -0.7216  0.4013
  469MOL0     C61819  10.561   8.472  10.112  0.5186 -0.8062 -1.4129
  469MOL0    Cl61820  10.708   8.448  10.199  0.1299 -0.3433  0.0472
  469MOL0     C61821   9.825   8.615   9.567 -0.4405  0.5670 -0.8052
  469MOL0     C61822   9.727   8.715   9.567 -0.1502  1.3529  0.3422
  469MOL0     O61823   9.482   8.803   9.820  0.0986  0.5748  0.9569
  469MOL0     C61824   9.403   9.064   9.602  0.5287 -0.7721 -0.1645
  469MOL0     C61825   9.295   9.154   9.592 -0.5854 -0.8896 -0.4268
  469MOL0     N61826   9.366   9.876   9.681  0.8061  0.5396  0.0894
  469MOL0     N61827   9.445   9.946   9.757 -0.5913  0.0920 -0.2802
  469MOL0     C61828   8.647  10.186   9.822  0.8201 -0.0613 -1.5223
  469MOL0     C61829   8.534  10.176   9.734 -0.5699  0.7850 -0.2124
  469MOL0     C61830   8.207  10.144   9.477 -0.8499 -0.4936 -0.8771
  469MOL0     C61831   8.154  10.278   9.478 -0.3797  0.1680  0.3139
  469MOL0     C61832   8.092  10.332   9.363  0.1342  0.6601  0.3387
  469MOL0     C61833   8.089  10.257   9.239 -0.2403 -0.8791  1.0488
  469MOL0     O61834   8.018  10.319   9.140  0.0091 -0.0992 -0.1479
  469MOL0     C61835   7.981  10.237   9.031 -0.0662  0.0469  0.3698
  469MOL0     C61836   7.871  10.314   8.950  0.1829 -0.5135 -0.1535
  469MOL0     C61837   7.914  10.464   8.927  0.5372  0.5984  0.4059
  469MOL0     C61838   7.790  10.553   8.900 -0.0128  0.5490 -0.3609
  469MOL0     C61839   7.814  10.694   8.887  0.2216  0.4185  0.2448
  469MOL0     C61840   7.840  10.813   8.895  0.3136  0.4777  1.1864
  469MOL0     C61841   8.141  10.127   9.237  1.4119 -0.2270 -0.1847
  469MOL0     C61842   8.197  10.077   9.357  0.0279 -0.3773 -0.0176
  469MOL0     H61843   8.301  10.122   9.960  1.2867  0.2512  0.7894
  469MOL0     H61844   8.471  10.085  10.105  0.2694 -1.1839 -0.6678
  469MOL0     H61845   8.712   9.995  10.148  2.3521 -1.8704  2.9339
  469MOL0     H61846   8.687  10.155  10.238  4.0451  2.5356  0.7036
  469MOL0     H61847   8.863  10.085  10.347  2.0068  2.3984  0.9914
  469MOL0     H61848   8.946  10.167  10.221 -0.8203 -0.0983  0.7207
  469MOL0     H61849   8.994   9.962  10.092  2.5437  0.7737  0.6371
  469MOL0     H61850   8.903   9.872  10.207  1.5532 -1.3719  1.3121
  469MOL0     H61851   9.067   9.945  10.389 -0.2705  0.1248 -0.9196
  469MOL0     H61852   9.099   9.826  10.278  0.4556 -0.7845  1.7316
  469MOL0     H61853   9.267  10.025  10.337  2.6704 -0.9993 -0.3828
  469MOL0     H61854   9.188  10.101  10.201 -1.4695  0.0803 -0.5618
  469MOL0     H61855   9.239   9.904  10.051  0.9461 -0.3194  0.4426
  469MOL0     H61856   9.331   9.835  10.189  2.9673 -1.9513 -5.1636
  469MOL0     H61857   9.407  10.099  10.052  1.0770 -0.4979  0.0983
  469MOL0     H61858   9.502  10.029  10.168 -1.8135  0.2941  3.4998
  469MOL0     H61859   9.556   9.839  10.036  1.5745  0.0354  0.9311
  469MOL0     H61860   9.594   9.990   9.974  1.0534 -1.5296  1.0303
  469MOL0     H61861   9.384   9.669   9.929 -1.5148 -2.2602 -2.0608
  469MOL0     H61862   9.315   9.562   9.700 -1.7982 -0.5207 -0.1095
  469MOL0     H61863   9.288   9.670   9.554  2.5132  0.9525 -0.0751
  469MOL0     H61864   9.065   9.723   9.612 -2.4916  1.2475  1.5054
  469MOL0     H61865   9.091   9.683   9.776 -0.8704 -0.5414 -0.5808
  469MOL0     H61866   8.933   9.530   9.650  0.9819  4.0577 -3.4792
  469MOL0     H61867   9.061   9.481   9.543 -3.0518 -0.5211 -1.3269
  469MOL0     H61868   9.062   9.396   9.842  0.6236  0.2254  0.7631
  469MOL0     H61869   9.207   9.392   9.756 -0.4393 -1.4532  2.1721
  469MOL0     H61870   9.153   9.131   9.896 -2.1298  1.6064 -1.0739
  469MOL0     H61871   9.334   8.977   9.926  0.5037  2.4576  1.6133
  469MOL0     H61872   9.795   8.875   9.853  2.2008  0.6867  0.6342
  469MOL0     H61873   9.989   8.695   9.846  2.3277  1.2299 -2.0366
  469MOL0     H61874  10.075   8.438   9.516 -1.3387 -0.0851 -1.5231
  469MOL0     H61875   9.923   8.358   9.584  0.2662  2.3585 -2.0703
  469MOL0     H61876  10.130   8.204   9.601  3.6306  0.1361  1.8489
  469MOL0     H61877  10.077   8.256   9.754 -0.2138 -1.8599 -0.7794
  469MOL0     H61878  10.242   8.430   9.759  2.3228 -1.4887  1.9535
  469MOL0     H61879  10.299   8.395   9.590 -1.1522 -2.7911 -1.0577
  469MOL0     H61880  10.297   8.183   9.814 -2.5917 -1.2356 -1.0194
  469MOL0     H61881  10.380   8.178   9.645  2.7050  0.2296  0.6035
  469MOL0     H61882  10.525   8.363   9.730 -1.9003  0.5253 -0.5695
  469MOL0     H61883  10.523   8.203   9.821  1.3403  0.2841 -1.7005
  469MOL0     H61884  10.345   8.342   9.976 -0.4819  3.9577  2.8850
  469MOL0     H61885  10.428   8.483   9.890 -1.4971 -0.7499 -0.9670
  469MOL0     H61886  10.545   8.262  10.064  0.0173 -1.1488 -0.3993
  469MOL0     H61887  10.630   8.361   9.946  0.6818  0.3239  1.4385
  469MOL0     H61888  10.480   8.470  10.185  1.1656  1.4232 -0.5277
  469MOL0     H61889  10.566   8.568  10.059 -3.7673  0.3812 -0.1049
  469MOL0     H61890   9.822   8.548   9.481 -0.5285  0.2421 -0.5489
  469MOL0     H61891   9.641   8.733   9.503  0.3217  1.6455 -0.2227
  469MOL0     H61892   9.467   9.025   9.524  1.6624 -1.3316  1.0011
  469MOL0     H61893   9.292   9.189   9.489 -1.2690 -0.0608 -0.1399
  469MOL0     H61894   8.737  10.222   9.774  3.8017 -2.2780  1.8835
  469MOL0     H61895   8.556  10.213   9.634  1.3312 -2.9834 -1.3794
  469MOL0     H61896   8.136  10.327   9.573 -2.1342 -0.3570  0.2820
  469MOL0     H61897   8.059  10.434   9.345  0.5963  0.8075  0.3101
  469MOL0     H61898   7.921  10.153   9.066 -0.5546  0.9792  1.8770
  469MOL0     H61899   8.053  10.213   8.952 -0.6429  1.1845 -0.5446
  469MOL0     H61900   7.866  10.257   8.857  1.1877 -1.0081  0.0785
  469MOL0     H61901   7.779  10.311   9.008  0.3065  0.4059  0.1138
  469MOL0     H61902   7.988  10.465   8.846  1.1888  0.9747  1.0034
  469MOL0     H61903   7.952  10.523   9.011  0.9794  0.5987  0.2123
  469MOL0     H61904   7.737  10.521   8.811 -3.5755  1.8945  1.0820
  469MOL0     H61905   7.725  10.550   8.988  1.0706 -1.0920  0.4353
  469MOL0     H61906   7.859  10.918   8.899 -0.1719  0.5523  1.6763
  469MOL0     H61907   8.129  10.058   9.154  1.7277  2.3033 -2.4680
  469MOL0     H61908   8.250   9.983   9.342  0.9886 -0.2075  1.9686
  470MOL0     O61909  10.190  11.128   0.638 -0.1683 -0.1643  0.1821
  470MOL0     C61910  10.069  11.137   0.633 -0.2414  0.5358 -0.1282
  470MOL0     O61911   9.988  11.192   0.535 -0.7459 -0.1278 -0.3034
  470MOL0     C61912  10.054  11.259   0.433  0.7846  0.0581  0.1910
  470MOL0     C61913  10.008  11.229   0.305  0.0531  0.4497  0.1889
  470MOL0     C61914  10.054  11.293   0.185 -0.2367  0.0080 -0.0515
  470MOL0     C61915  10.158  11.390   0.192  0.0526 -0.6501  0.4975
  470MOL0     O61916  10.202  11.452   0.072 -0.8420  0.6128  0.5160
  470MOL0     C61917  10.221  11.589   0.072 -0.3887 -0.1160 -0.9597
  470MOL0     C61918  10.289  11.631  -0.060 -0.4567  0.3075 -0.8583
  470MOL0     C61919  10.302  11.789  -0.063 -0.1453  0.0338 -0.5482
  470MOL0     C61920  10.382  11.837  -0.180 -0.5672 -0.5086 -0.0171
  470MOL0     C61921  10.375  11.990  -0.173  0.3841 -0.7346 -0.4214
  470MOL0     C61922  10.383  12.046  -0.314  0.3776 -0.1896 -0.4171
  470MOL0     C61923  10.415  12.204  -0.305 -0.0306 -0.0072  0.8856
  470MOL0     C61924  10.425  12.260  -0.441 -0.2082 -0.5921  1.1612
  470MOL0     N61925  10.400  12.407  -0.432 -0.5710  0.0700  0.1440
  470MOL0     C61926  10.453  12.504  -0.348  0.8903  1.0804  0.0994
  470MOL0     C61927  10.396  12.619  -0.384 -0.0958 -0.4080 -0.6830
  470MOL0     C61928  10.424  12.754  -0.319 -0.0219 -1.1629 -0.2333
  470MOL0     C61929  10.324  12.781  -0.194  0.7454 -0.0371  0.6089
  470MOL0     C61930  10.323  12.666  -0.091 -0.6854  0.1929 -0.6608
  470MOL0     C61931  10.455  12.679  -0.004 -0.9891 -0.4466  0.7216
  470MOL0     O61932  10.561  12.609  -0.067  0.1242 -0.0369  0.3329
  470MOL0     C61933  10.619  12.491  -0.029 -0.2295 -0.8710  0.1906
  470MOL0     C61934  10.553  12.403   0.052 -0.4490 -0.5135 -0.0734
  470MOL0     C61935  10.608  12.289   0.099 -0.2480 -0.9172  0.2399
  470MOL0     C61936  10.724  12.243   0.042 -1.0780 -0.2501 -0.3296
  470MOL0     C61937  10.766  12.106   0.087  0.8251  0.0391  0.1142
  470MOL0     O61938  10.880  12.060   0.019  0.1653 -0.2940 -0.5982
  470MOL0     C61939  10.940  11.961   0.086  0.0183  0.9513  0.6989
  470MOL0     C61940  11.062  11.995   0.132  0.3049  0.4118  0.4605
  470MOL0     C61941  11.143  11.891   0.186  0.7699 -1.1528 -0.1710
  470MOL0     C61942  11.097  11.763   0.203  0.0364  0.1528 -0.0834
  470MOL0     O61943  11.173  11.661   0.238 -0.5684  0.7289  0.0869
  470MOL0     C61944  11.260  11.668   0.359  0.3457 -0.3672  0.4485
  470MOL0     C61945  11.318  11.524   0.387  0.1607 -0.8068 -0.8335
  470MOL0     C61946  11.214  11.413   0.375  0.4253  1.2898 -0.3141
  470MOL0     C61947  11.287  11.279   0.367  0.0715 -0.3103  0.5319
  470MOL0     C61948  11.187  11.162   0.393 -0.4706  0.2577  0.3042
  470MOL0     C61949  11.243  11.031   0.408  0.6060  0.2941  0.4610
  470MOL0     C61950  11.156  10.938   0.503 -0.5204 -0.2375  0.2940
  470MOL0     C61951  11.194  10.793   0.489  0.2433 -0.1981  0.3499
  470MOL0    Cl61952  11.364  10.779   0.548  0.1960 -0.3943 -0.0491
  470MOL0     C61953  10.973  11.729   0.148 -0.7782  0.0188 -0.4605
  470MOL0     C61954  10.887  11.829   0.098 -0.2301  0.9801  0.3310
  470MOL0     O61955  10.710  12.050   0.179  0.2411  0.5422 -0.7068
  470MOL0     C61956  10.801  12.328  -0.041  0.5133 -0.6819  0.1452
  470MOL0     C61957  10.743  12.455  -0.077  0.4793  0.9932  0.3282
  470MOL0     N61958  10.308  12.597  -0.494  0.3926 -0.9018 -0.8452
  470MOL0     N61959  10.307  12.473  -0.507  0.0187  0.4877 -0.2104
  470MOL0     C61960  10.207  11.407   0.325 -0.8934 -0.6627  0.1017
  470MOL0     C61961  10.150  11.349   0.438  0.7219 -0.7356  0.1826
  470MOL0     C61962   9.985  11.098   0.745 -1.3849 -0.2388  0.3759
  470MOL0     C61963   9.875  11.181   0.786 -1.1708  0.6837  0.0333
  470MOL0     C61964   9.806  11.158   0.911  0.5897  0.0209  1.2090
  470MOL0     C61965   9.833  11.037   0.980 -0.5015  0.1478  0.1120
  470MOL0     O61966   9.746  11.016   1.082  0.6619 -0.4158 -0.5735
  470MOL0     C61967   9.743  10.894   1.152  0.1616  0.6217  0.5184
  470MOL0     C61968   9.627  10.821   1.077  0.3044  0.8043  0.2692
  470MOL0     C61969   9.610  10.680   1.130 -0.1851  0.2689  0.0168
  470MOL0     C61970   9.567  10.591   1.019 -0.2035  0.8410  0.2361
  470MOL0     C61971   9.447  10.627   0.953  0.6136  1.0073  0.2466
  470MOL0     C61972   9.340  10.666   0.900 -0.4423 -0.0697  0.5741
  470MOL0     C61973   9.937  10.954   0.939  1.0324 -0.7009  0.6305
  470MOL0     C61974  10.015  10.984   0.822  0.3030  0.4153 -1.7543
  470MOL0     H61975   9.923  11.163   0.293 -0.7035  1.7732 -2.9461
  470MOL0     H61976  10.007  11.257   0.094  2.8065 -1.4683 -1.1346
  470MOL0     H61977  10.281  11.607   0.162 -1.4591  0.6711 -0.3893
  470MOL0     H61978  10.126  11.640   0.087  0.3195  0.2957  3.3582
  470MOL0     H61979  10.234  11.605  -0.150 -0.2756 -1.7787 -0.4327
  470MOL0     H61980  10.384  11.579  -0.077 -0.4930 -0.6576  1.4296
  470MOL0     H61981  10.362  11.823   0.022 -2.8253  1.4292  0.9268
  470MOL0     H61982  10.207  11.842  -0.059  0.4639  1.0796  1.6437
  470MOL0     H61983  10.484  11.798  -0.173  0.1119  0.3147 -3.4340
  470MOL0     H61984  10.328  11.801  -0.268 -1.3165  1.2802 -0.3347
  470MOL0     H61985  10.454  12.036  -0.114 -0.4767  2.7138 -1.7345
  470MOL0     H61986  10.280  12.016  -0.125 -1.4481 -2.5803 -2.7611
  470MOL0     H61987  10.285  12.033  -0.362  1.3553  0.4069 -2.7370
  470MOL0     H61988  10.467  12.002  -0.368  1.1571  0.2320  0.4275
  470MOL0     H61989  10.344  12.258  -0.242 -0.3237 -0.1404  0.6726
  470MOL0     H61990  10.513  12.213  -0.256  0.8170 -1.3800 -0.4810
  470MOL0     H61991  10.359  12.202  -0.507  3.0197 -0.2375 -2.7880
  470MOL0     H61992  10.521  12.246  -0.492 -0.3380  2.4283 -0.0750
  470MOL0     H61993  10.539  12.502  -0.282  0.5056  0.8117  0.6113
  470MOL0     H61994  10.422  12.834  -0.393 -3.3099  0.3757  1.3046
  470MOL0     H61995  10.529  12.753  -0.289 -0.5711 -1.5733  1.8610
  470MOL0     H61996  10.229  12.792  -0.246  2.2395  0.9069 -2.1254
  470MOL0     H61997  10.362  12.873  -0.148 -1.4499 -0.4727  3.5269
  470MOL0     H61998  10.232  12.680  -0.032  0.3659  4.8300  0.2782
  470MOL0     H61999  10.318  12.572  -0.147 -2.1763  1.5184 -2.9334
  470MOL0     H62000  10.419  12.649   0.094  0.9001  0.8934  1.8859
  470MOL0     H62001  10.480  12.784   0.013 -0.7767 -0.5154  0.8380
  470MOL0     H62002  10.458  12.424   0.101  0.3524 -2.9333  2.8345
  470MOL0     H62003  10.541  12.233   0.163 -2.7498  2.2320  0.6593
  470MOL0     H62004  11.083  12.099   0.108  1.0568 -0.0322 -0.9207
  470MOL0     H62005  11.250  11.902   0.203  1.0585 -2.1305 -1.2812
  470MOL0     H62006  11.213  11.709   0.448 -3.3839 -4.7080  0.8725
  470MOL0     H62007  11.339  11.734   0.323 -0.8477  0.9919  0.2359
  470MOL0     H62008  11.361  11.520   0.488  0.3001 -0.0179 -0.8502
  470MOL0     H62009  11.400  11.511   0.315  0.3958  3.6765 -1.6570
  470MOL0     H62010  11.158  11.412   0.281  1.2399 -1.2772 -0.8777
  470MOL0     H62011  11.138  11.411   0.453  0.7436  2.5287  0.0503
  470MOL0     H62012  11.338  11.267   0.271  0.5134  3.0635  0.2195
  470MOL0     H62013  11.356  11.287   0.452  0.7163 -0.0101 -0.0083
  470MOL0     H62014  11.109  11.164   0.317 -0.4345  3.9987  0.1866
  470MOL0     H62015  11.143  11.197   0.487 -2.1385 -0.8017 -0.0505
  470MOL0     H62016  11.342  11.031   0.455  0.4342 -0.6746  0.8589
  470MOL0     H62017  11.255  10.979   0.312 -0.4570  1.8517 -0.5471
  470MOL0     H62018  11.176  10.986   0.599  2.8033  3.2219 -1.8568
  470MOL0     H62019  11.048  10.947   0.492 -0.7876 -0.4501  2.3831
  470MOL0     H62020  11.189  10.748   0.390  4.0339  0.8588 -0.4844
  470MOL0     H62021  11.137  10.730   0.558 -1.3405  1.3132  0.4916
  470MOL0     H62022  10.937  11.627   0.157 -1.6555  0.3522 -0.0005
  470MOL0     H62023  10.786  11.813   0.062  0.4351 -0.2554 -1.0944
  470MOL0     H62024  10.899  12.306  -0.082  0.5923  2.2899 -1.4878
  470MOL0     H62025  10.795  12.507  -0.157 -1.7282 -0.5657 -2.2811
  470MOL0     H62026  10.274  11.489   0.349 -1.1638 -0.3538 -0.1952
  470MOL0     H62027  10.187  11.357   0.539  0.9271  3.8052 -0.0286
  470MOL0     H62028   9.843  11.271   0.733 -0.5269  1.4208  0.8705
  470MOL0     H62029   9.716  11.212   0.938 -2.7574 -2.7256 -2.9248
  470MOL0     H62030   9.717  10.917   1.256 -0.0091 -2.9044  1.3948
  470MOL0     H62031   9.830  10.827   1.160 -0.5762 -0.3957  0.1873
  470MOL0     H62032   9.533  10.876   1.085 -1.3066 -1.4295 -1.9731
  470MOL0     H62033   9.659  10.808   0.973 -0.6958 -2.3228  0.2691
  470MOL0     H62034   9.529  10.686   1.204  0.0489 -1.8043  0.4809
  470MOL0     H62035   9.697  10.632   1.175 -0.3878 -0.5228 -0.4245
  470MOL0     H62036   9.658  10.588   0.958  1.1406  5.3555  1.6311
  470MOL0     H62037   9.564  10.489   1.057 -0.8406  1.4621  1.9856
  470MOL0     H62038   9.268  10.722   0.843  1.7486  2.0054 -0.3421
  470MOL0     H62039   9.946  10.860   0.993 -0.3159  0.2947  2.7480
  470MOL0     H62040  10.093  10.914   0.793  3.0275  1.9300  1.2364
  471MOL0     O62041   2.691   0.850   8.679 -0.0972 -0.1164  0.1307
  471MOL0     C62042   2.797   0.916   8.675  0.4415  0.1604  0.1237
  471MOL0     O62043   2.901   0.898   8.584 -0.2367 -0.6823 -0.4078
  471MOL0     C62044   2.879   0.797   8.499  0.7171 -0.0178 -0.4057
  471MOL0     C62045   2.961   0.691   8.485 -0.0538 -0.2890  0.2222
  471MOL0     C62046   2.938   0.596   8.393 -0.2429  0.3760 -0.0341
  471MOL0     C62047   2.841   0.601   8.298  0.1767 -0.6859 -0.7112
  471MOL0     O62048   2.816   0.504   8.203  0.4398 -0.6865 -0.0878
  471MOL0     C62049   2.820   0.365   8.234 -1.0234 -0.3317  0.5511
  471MOL0     C62050   2.965   0.309   8.199  0.2931  1.4757  0.9451
  471MOL0     C62051   2.979   0.329   8.049 -0.0847  0.5387  0.0832
  471MOL0     C62052   2.989   0.197   7.975 -0.0372  0.2378 -0.2208
  471MOL0     C62053   2.974   0.198   7.818 -0.6022 -0.1782 -0.0305
  471MOL0     C62054   2.847   0.240   7.759  0.4336  0.9013 -0.1259
  471MOL0     C62055   2.756   0.136   7.688  0.8103  0.4193  0.4933
  471MOL0     C62056   2.684   0.042   7.788  0.2526  0.2176 -0.7166
  471MOL0     N62057   2.569  -0.031   7.730 -0.4166 -0.3989  0.4378
  471MOL0     C62058   2.577  -0.080   7.598 -0.2812 -0.1322 -0.6126
  471MOL0     C62059   2.439  -0.102   7.567  0.0608 -0.0382  0.0606
  471MOL0     C62060   2.381  -0.152   7.435 -0.1815  0.3048  0.4091
  471MOL0     C62061   2.407  -0.050   7.322  0.1723  0.8351  0.0205
  471MOL0     C62062   2.442  -0.101   7.177 -0.4034 -0.3261  0.0005
  471MOL0     C62063   2.355  -0.220   7.136 -0.4859 -0.5196 -0.2131
  471MOL0     O62064   2.401  -0.277   7.017 -0.3617 -0.3881 -0.7480
  471MOL0     C62065   2.387  -0.198   6.905 -0.3259  0.8056 -0.6241
  471MOL0     C62066   2.290  -0.101   6.884  0.3124 -0.5676  0.1403
  471MOL0     C62067   2.288  -0.016   6.767 -0.5639 -0.0910  1.3017
  471MOL0     C62068   2.390  -0.044   6.666 -0.2927  0.4498  0.5950
  471MOL0     C62069   2.401   0.027   6.541  0.0375  0.9552  0.4269
  471MOL0     O62070   2.311   0.134   6.522  0.5673  1.0203  0.3604
  471MOL0     C62071   2.281   0.176   6.395 -0.1604 -0.0458 -0.0258
  471MOL0     C62072   2.287   0.311   6.362  0.4454 -0.3377  0.7207
  471MOL0     C62073   2.226   0.374   6.246  0.2086 -0.3329 -0.0944
  471MOL0     C62074   2.156   0.280   6.153 -0.6278 -0.0550  1.3046
  471MOL0     O62075   2.107   0.326   6.030 -0.2017 -0.2364  0.1802
  471MOL0     C62076   2.212   0.392   5.950  0.1708  0.4262 -0.2120
  471MOL0     C62077   2.166   0.460   5.825 -0.1056  0.5212 -1.1135
  471MOL0     C62078   2.279   0.526   5.745  0.8724  0.9835  0.1020
  471MOL0     C62079   2.238   0.560   5.598  0.1121 -1.5074 -0.1669
  471MOL0     C62080   2.254   0.444   5.504 -0.3058  0.4889  0.9554
  471MOL0     C62081   2.369   0.343   5.522 -0.4072  0.6800 -0.8968
  471MOL0     C62082   2.399   0.282   5.387  0.1200 -0.5328 -0.6681
  471MOL0     C62083   2.477   0.148   5.394 -0.2521  0.6114  0.4309
  471MOL0    Cl62084   2.381   0.030   5.510 -0.7777 -0.0491 -0.1912
  471MOL0     C62085   2.143   0.147   6.186  0.3068  0.4213 -1.1099
  471MOL0     C62086   2.205   0.098   6.305 -0.0306  1.2465  0.3280
  471MOL0     O62087   2.464  -0.029   6.441  0.8383  0.4130 -0.7409
  471MOL0     C62088   2.486  -0.151   6.688 -0.0037  0.1007  0.3175
  471MOL0     C62089   2.491  -0.211   6.815  0.0935 -0.2035  0.7293
  471MOL0     N62090   2.367  -0.080   7.678 -0.0811  0.0872  0.6927
  471MOL0     N62091   2.446  -0.042   7.768 -0.0459 -0.8431 -0.6313
  471MOL0     C62092   2.763   0.724   8.296 -0.2435  0.3856 -0.1620
  471MOL0     C62093   2.783   0.815   8.396  0.1633 -0.1714  1.5687
  471MOL0     C62094   2.813   1.033   8.757 -0.0510 -0.1063 -0.5711
  471MOL0     C62095   2.936   1.102   8.767 -0.2477 -0.8686  0.2453
  471MOL0     C62096   2.962   1.204   8.858  0.3617 -0.2992  0.2726
  471MOL0     C62097   2.861   1.241   8.943  0.0008 -0.3438  0.2797
  471MOL0     O62098   2.886   1.350   9.030 -0.1298 -0.3807  0.3778
  471MOL0     C62099   2.784   1.415   9.099 -0.1351 -0.9298 -0.5416
  471MOL0     C62100   2.793   1.569   9.091  0.4725 -0.9545 -0.1982
  471MOL0     C62101   2.929   1.628   9.140  0.8226 -0.7548  0.3199
  471MOL0     C62102   2.932   1.781   9.150  0.5242 -0.0599 -0.3562
  471MOL0     C62103   2.868   1.830   9.268  0.2940  0.1388 -0.6191
  471MOL0     C62104   2.813   1.883   9.366 -0.7319  0.7736 -0.0733
  471MOL0     C62105   2.737   1.166   8.934 -0.0754  0.1326 -0.3854
  471MOL0     C62106   2.708   1.078   8.837  0.3330  0.7194  0.0826
  471MOL0     H62107   3.033   0.666   8.562  0.2567  0.6045  0.2371
  471MOL0     H62108   3.008   0.513   8.402 -0.1143  0.6276  1.8245
  471MOL0     H62109   2.750   0.310   8.170 -2.6729 -0.1249  2.0698
  471MOL0     H62110   2.795   0.352   8.340 -1.5546  1.1542  0.6280
  471MOL0     H62111   2.971   0.204   8.227 -0.1686  1.4770  1.0689
  471MOL0     H62112   3.035   0.377   8.247  0.7055  2.8413 -1.4103
  471MOL0     H62113   3.067   0.389   8.022  0.1213 -0.3314 -1.2692
  471MOL0     H62114   2.904   0.397   8.007  1.3371  2.9332  1.1988
  471MOL0     H62115   3.082   0.142   7.991  0.4030  1.3737  1.4976
  471MOL0     H62116   2.912   0.128   8.011  0.9336 -1.3539 -1.1079
  471MOL0     H62117   3.004   0.094   7.800 -1.1264 -0.8649  2.6226
  471MOL0     H62118   3.051   0.258   7.769 -2.7195  2.0891 -0.6989
  471MOL0     H62119   2.873   0.323   7.692  1.7423 -1.1785 -2.3857
  471MOL0     H62120   2.790   0.281   7.843  1.1538 -1.5827  1.7015
  471MOL0     H62121   2.685   0.192   7.627  1.2522 -1.9493 -2.4372
  471MOL0     H62122   2.817   0.070   7.626  1.4160  0.1465  1.3575
  471MOL0     H62123   2.642   0.101   7.870 -1.7432  2.3911 -3.1107
  471MOL0     H62124   2.748  -0.040   7.819  0.7411  0.3964 -1.2345
  471MOL0     H62125   2.663  -0.097   7.534  1.2327 -0.8396  1.5079
  471MOL0     H62126   2.273  -0.152   7.451 -0.3564  0.6112 -0.7146
  471MOL0     H62127   2.418  -0.249   7.403  0.0277  0.3143  0.6163
  471MOL0     H62128   2.477   0.027   7.356 -0.5374  0.6957  1.9275
  471MOL0     H62129   2.312   0.004   7.315 -1.4856 -2.0682 -1.6899
  471MOL0     H62130   2.439  -0.018   7.106  1.0473  2.3907  2.8787
  471MOL0     H62131   2.543  -0.137   7.199 -1.0773 -1.8881  0.7311
  471MOL0     H62132   2.257  -0.178   7.111  0.2691  1.8719  0.4751
  471MOL0     H62133   2.350  -0.293   7.216  1.8305  0.6044  1.0845
  471MOL0     H62134   2.198  -0.107   6.942  0.7241  1.3925  1.0992
  471MOL0     H62135   2.208   0.057   6.761  0.8856  1.5377  0.8766
  471MOL0     H62136   2.343   0.379   6.425 -0.4466  1.7338 -0.6114
  471MOL0     H62137   2.229   0.480   6.226  1.1922 -0.6280 -1.7857
  471MOL0     H62138   2.289   0.317   5.928  1.0768  0.8379  1.4056
  471MOL0     H62139   2.260   0.465   6.015 -2.1848  1.4867  0.4290
  471MOL0     H62140   2.089   0.537   5.834 -0.1483  0.8250 -3.3905
  471MOL0     H62141   2.114   0.387   5.763 -0.5634  2.6531 -3.4037
  471MOL0     H62142   2.359   0.452   5.744 -0.3581 -0.3984 -0.7758
  471MOL0     H62143   2.309   0.619   5.794  3.4999  0.9511 -1.3020
  471MOL0     H62144   2.140   0.609   5.589  1.4357  1.0672 -1.8350
  471MOL0     H62145   2.309   0.631   5.556 -1.9319  0.2824 -0.7779
  471MOL0     H62146   2.273   0.501   5.412 -2.7281  0.1898  0.1991
  471MOL0     H62147   2.160   0.389   5.494  0.0769 -0.4604  2.3155
  471MOL0     H62148   2.331   0.269   5.593  0.4702 -0.6246 -1.7439
  471MOL0     H62149   2.460   0.392   5.558 -1.4540  4.6420 -2.9977
  471MOL0     H62150   2.299   0.264   5.348 -0.7048 -2.0763  1.8779
  471MOL0     H62151   2.448   0.342   5.310 -0.0883 -0.3620 -0.6649
  471MOL0     H62152   2.578   0.170   5.431  1.0163 -1.0141 -1.7834
  471MOL0     H62153   2.489   0.110   5.292  1.0537  1.2337  0.3299
  471MOL0     H62154   2.084   0.087   6.118 -1.3982  0.1771  0.4900
  471MOL0     H62155   2.180  -0.006   6.326 -1.5081  1.4403 -0.3598
  471MOL0     H62156   2.558  -0.166   6.608 -1.8610 -1.4907 -1.1535
  471MOL0     H62157   2.565  -0.286   6.839 -1.8984 -1.9243  1.8575
  471MOL0     H62158   2.696   0.729   8.211 -0.0760  0.1930 -0.3074
  471MOL0     H62159   2.720   0.902   8.413 -0.7605 -0.7226  1.0705
  471MOL0     H62160   3.026   1.076   8.711  1.7905  1.5480  2.1583
  471MOL0     H62161   3.057   1.255   8.872  1.0247 -1.6785  0.9366
  471MOL0     H62162   2.775   1.389   9.205  0.3289  1.1096  0.0324
  471MOL0     H62163   2.690   1.384   9.052 -0.9934 -0.9486  1.0992
  471MOL0     H62164   2.773   1.606   8.990 -0.0577 -0.1606  0.1917
  471MOL0     H62165   2.721   1.605   9.165 -0.8497 -2.1905 -0.8270
  471MOL0     H62166   3.000   1.612   9.058  0.5541  0.1741 -0.1032
  471MOL0     H62167   2.957   1.576   9.232 -1.9956 -4.0854 -0.5123
  471MOL0     H62168   3.037   1.811   9.147  0.3490  2.1255  4.7705
  471MOL0     H62169   2.881   1.818   9.060 -1.2339 -0.3019  0.5044
  471MOL0     H62170   2.763   1.921   9.454  2.8319 -4.4936  5.0323
  471MOL0     H62171   2.668   1.176   9.017 -0.3157  0.1795 -0.5917
  471MOL0     H62172   2.613   1.026   8.832  0.6660 -0.1481  1.9770
  472MOL0     O62173   3.333   5.296   7.967 -0.3177  1.2526  0.7456
  472MOL0     C62174   3.342   5.385   8.056  0.0889 -0.0056  0.4687
  472MOL0     O62175   3.258   5.399   8.160 -0.5134 -0.0380 -1.1367
  472MOL0     C62176   3.150   5.319   8.191 -0.0134  0.0617  0.3047
  472MOL0     C62177   3.103   5.310   8.323  0.2839 -0.1513  0.4789
  472MOL0     C62178   2.987   5.232   8.356 -0.7274 -1.4843  0.0854
  472MOL0     C62179   2.926   5.151   8.267 -0.6931  0.0380  0.6453
  472MOL0     O62180   2.829   5.063   8.306  0.0936  0.4631  0.0444
  472MOL0     C62181   2.707   5.064   8.229 -0.9191 -0.5955 -0.5508
  472MOL0     C62182   2.588   5.006   8.301 -0.4770  0.4498  0.9166
  472MOL0     C62183   2.481   4.983   8.195  0.7291  0.0015  0.4135
  472MOL0     C62184   2.354   4.917   8.252  0.6923  0.0458  0.3276
  472MOL0     C62185   2.258   5.024   8.281  0.5846  0.4899  0.0046
  472MOL0     C62186   2.118   4.947   8.298 -0.6861 -0.4306 -0.6694
  472MOL0     C62187   2.016   5.057   8.312  0.0186  0.8449 -0.3098
  472MOL0     C62188   1.876   5.000   8.290 -0.4116  0.0750 -0.2992
  472MOL0     N62189   1.778   5.098   8.323  0.0596 -0.2091 -0.3801
  472MOL0     C62190   1.797   5.218   8.390 -0.5285 -0.7400 -0.1048
  472MOL0     C62191   1.693   5.302   8.353  0.2785  0.2952 -0.0164
  472MOL0     C62192   1.663   5.444   8.385  0.0079 -0.3674  0.4100
  472MOL0     C62193   1.519   5.456   8.446 -1.0929 -0.3471 -0.2248
  472MOL0     C62194   1.502   5.403   8.590  1.2943  0.3627 -0.3912
  472MOL0     C62195   1.341   5.390   8.628  0.5302  0.8930 -0.2387
  472MOL0     O62196   1.302   5.451   8.752  0.1603  0.0752 -0.4475
  472MOL0     C62197   1.273   5.585   8.770 -0.6943 -0.4729  1.3971
  472MOL0     C62198   1.291   5.643   8.893 -0.6617 -0.2665  0.5869
  472MOL0     C62199   1.279   5.781   8.909 -1.2446 -0.8213 -0.1273
  472MOL0     C62200   1.235   5.870   8.807 -0.4299  0.5271 -0.0328
  472MOL0     C62201   1.211   6.011   8.832  0.0869  0.7283 -0.1877
  472MOL0     O62202   1.277   6.065   8.936  0.6131 -0.0194 -0.1560
  472MOL0     C62203   1.300   6.199   8.943 -0.3607  0.2948 -0.5832
  472MOL0     C62204   1.319   6.274   8.823 -0.8515  0.6670 -1.3652
  472MOL0     C62205   1.382   6.400   8.833  0.5216 -0.8143 -0.7758
  472MOL0     C62206   1.421   6.458   8.955  0.1573  0.3801 -0.2562
  472MOL0     O62207   1.498   6.574   8.952 -0.2968  0.7577 -0.2201
  472MOL0     C62208   1.462   6.674   8.854 -0.6342  0.6804 -0.7181
  472MOL0     C62209   1.584   6.772   8.850  0.1146 -1.1504  0.1860
  472MOL0     C62210   1.572   6.880   8.950  0.7541 -0.0155  0.3816
  472MOL0     C62211   1.475   6.989   8.909 -0.4726  0.1917  0.4269
  472MOL0     C62212   1.459   7.106   9.010  0.0761 -0.2614 -0.3462
  472MOL0     C62213   1.455   7.248   8.947 -0.2156  1.4132 -0.0288
  472MOL0     C62214   1.430   7.365   9.024  0.4324 -1.0919 -0.4004
  472MOL0     C62215   1.297   7.356   9.092  0.0370  0.1420 -0.4276
  472MOL0    Cl62216   1.158   7.363   8.977  0.2864 -0.1206 -0.7569
  472MOL0     C62217   1.404   6.383   9.070  0.4129  0.8535 -1.0095
  472MOL0     C62218   1.340   6.260   9.062 -0.9157  0.1609  0.8882
  472MOL0     O62219   1.141   6.069   8.754 -0.3343  0.3596  0.5155
  472MOL0     C62220   1.216   5.810   8.684 -0.0633  0.2344  0.3750
  472MOL0     C62221   1.225   5.675   8.671  0.2110  0.8564  0.2719
  472MOL0     N62222   1.609   5.236   8.262 -1.1196  0.0928  0.0119
  472MOL0     N62223   1.663   5.116   8.245 -0.8296  0.1878 -0.0265
  472MOL0     C62224   2.980   5.160   8.129  0.0386 -0.3973 -0.2383
  472MOL0     C62225   3.087   5.237   8.092 -0.2672  0.4016 -1.3405
  472MOL0     C62226   3.460   5.479   8.047 -0.5349  0.1190 -0.0606
  472MOL0     C62227   3.494   5.567   8.161  0.2402  0.4937  1.1033
  472MOL0     C62228   3.607   5.641   8.141 -0.2023  0.1233 -0.1457
  472MOL0     C62229   3.686   5.643   8.034 -0.6134  0.0273 -0.3275
  472MOL0     O62230   3.797   5.717   8.018 -0.2761 -1.1563 -0.7076
  472MOL0     C62231   3.798   5.849   8.085 -0.3646 -0.1244  0.3170
  472MOL0     C62232   3.913   5.858   8.180 -0.3113  0.0174  0.1369
  472MOL0     C62233   3.919   5.759   8.302  0.1946 -1.4682 -0.3889
  472MOL0     C62234   4.015   5.826   8.410  1.2774  0.7489  0.0544
  472MOL0     C62235   4.154   5.815   8.364 -0.1830 -1.2403  0.0493
  472MOL0     C62236   4.272   5.809   8.327 -0.2783  0.1512  0.4744
  472MOL0     C62237   3.648   5.561   7.919  0.0106 -0.2343 -0.3099
  472MOL0     C62238   3.538   5.486   7.923  0.2634  0.2413 -0.7137
  472MOL0     H62239   3.158   5.353   8.406 -2.1473  0.1383  2.0357
  472MOL0     H62240   2.955   5.231   8.460 -0.5305  0.1078  0.1835
  472MOL0     H62241   2.712   5.001   8.140 -2.8379 -2.0486  0.3115
  472MOL0     H62242   2.688   5.171   8.213 -2.5042 -0.1114  3.4844
  472MOL0     H62243   2.541   5.065   8.380 -1.6444 -0.4127  0.8922
  472MOL0     H62244   2.629   4.917   8.349 -2.9147 -1.0796  0.3263
  472MOL0     H62245   2.511   4.933   8.103 -1.0753  0.8870 -0.7226
  472MOL0     H62246   2.443   5.078   8.157 -3.0812 -2.0867 -1.6300
  472MOL0     H62247   2.312   4.851   8.175  0.4504  0.7059 -0.1097
  472MOL0     H62248   2.360   4.849   8.337 -2.8509 -2.8650 -1.4532
  472MOL0     H62249   2.254   5.088   8.193 -2.8017  1.0324  0.4272
  472MOL0     H62250   2.292   5.086   8.365 -2.2842 -0.4481  2.0206
  472MOL0     H62251   2.118   4.881   8.385  1.3545 -0.9310 -1.0053
  472MOL0     H62252   2.097   4.875   8.219  0.3630 -2.0596  0.4792
  472MOL0     H62253   2.031   5.114   8.405  0.2302  2.7961 -1.4942
  472MOL0     H62254   2.039   5.133   8.237  2.4462  0.8261  0.3217
  472MOL0     H62255   1.865   4.914   8.356 -2.5833 -0.0543 -0.7494
  472MOL0     H62256   1.866   4.951   8.192 -0.1650 -0.4352 -0.0726
  472MOL0     H62257   1.883   5.252   8.447 -1.1910 -1.3157  1.3015
  472MOL0     H62258   1.652   5.508   8.298 -2.1057 -0.7047  0.3776
  472MOL0     H62259   1.733   5.476   8.463 -0.6812 -2.2943  1.9351
  472MOL0     H62260   1.445   5.420   8.375 -0.7863  0.3931 -0.9308
  472MOL0     H62261   1.495   5.563   8.452 -0.8238 -0.3111  0.3453
  472MOL0     H62262   1.547   5.305   8.603 -0.3053 -0.5501 -1.4422
  472MOL0     H62263   1.558   5.471   8.655 -0.4286 -0.8595  2.5447
  472MOL0     H62264   1.319   5.283   8.635 -0.6050  1.1518  0.6906
  472MOL0     H62265   1.274   5.433   8.553  0.3649  0.5399 -0.2955
  472MOL0     H62266   1.324   5.595   8.984 -2.0904 -3.8413 -0.5927
  472MOL0     H62267   1.290   5.819   9.010 -2.1940 -0.2072 -0.2366
  472MOL0     H62268   1.303   6.238   8.722  1.3444  1.0873 -1.9177
  472MOL0     H62269   1.407   6.441   8.736 -1.1194  0.6952 -0.6021
  472MOL0     H62270   1.372   6.727   8.887 -2.8518 -0.5531 -4.2131
  472MOL0     H62271   1.448   6.627   8.756  1.3156 -1.8757  0.1221
  472MOL0     H62272   1.598   6.813   8.750  0.1689 -1.4846  0.0559
  472MOL0     H62273   1.672   6.713   8.876 -0.0456 -1.5369 -0.1327
  472MOL0     H62274   1.675   6.911   8.965  0.5506  1.6879 -1.2600
  472MOL0     H62275   1.538   6.836   9.044  1.2080 -0.1257  0.4943
  472MOL0     H62276   1.517   7.022   8.814 -0.1522  1.6982  1.0659
  472MOL0     H62277   1.378   6.939   8.893  0.8958 -1.7443 -2.8406
  472MOL0     H62278   1.550   7.101   9.069 -0.0762 -3.2600 -0.1800
  472MOL0     H62279   1.368   7.101   9.071 -0.3221  1.6653 -0.7359
  472MOL0     H62280   1.364   7.233   8.888 -3.3545 -0.7999  4.6906
  472MOL0     H62281   1.539   7.264   8.879 -2.3463 -1.1037 -3.5868
  472MOL0     H62282   1.500   7.383   9.106  4.0381  2.7679 -3.8457
  472MOL0     H62283   1.432   7.454   8.961  2.0414 -2.6382 -2.7191
  472MOL0     H62284   1.298   7.443   9.158  1.4825 -0.9682  1.0954
  472MOL0     H62285   1.277   7.269   9.156 -0.1241 -0.5548 -1.3931
  472MOL0     H62286   1.437   6.408   9.170 -1.4748 -1.4684  0.3048
  472MOL0     H62287   1.334   6.198   9.151 -1.3597 -3.3239 -1.3723
  472MOL0     H62288   1.169   5.866   8.605 -2.5405 -1.7866  0.2766
  472MOL0     H62289   1.209   5.640   8.569 -2.0690  0.0571  0.8320
  472MOL0     H62290   2.927   5.097   8.058 -1.0877  0.2382  0.0161
  472MOL0     H62291   3.109   5.229   7.986  2.3977 -1.1919 -0.7582
  472MOL0     H62292   3.434   5.578   8.251 -0.3864 -4.4683  1.5652
  472MOL0     H62293   3.619   5.704   8.229 -3.4849 -1.0472  1.3036
  472MOL0     H62294   3.706   5.878   8.136 -0.5337 -0.0452 -0.0254
  472MOL0     H62295   3.814   5.913   7.997 -2.1989  0.0129  0.0508
  472MOL0     H62296   4.008   5.834   8.131  1.3015 -1.0862  3.5324
  472MOL0     H62297   3.924   5.961   8.214  2.3771 -0.1462 -0.0226
  472MOL0     H62298   3.959   5.663   8.268 -0.4303 -2.0568  0.4937
  472MOL0     H62299   3.816   5.754   8.338 -0.3139  1.9013 -1.0418
  472MOL0     H62300   3.983   5.915   8.464  0.9962 -0.2037  1.5014
  472MOL0     H62301   4.024   5.751   8.488 -1.3503  1.4520  1.1338
  472MOL0     H62302   4.374   5.808   8.294 -0.5858 -1.8264 -0.5661
  472MOL0     H62303   3.707   5.554   7.829  0.2350 -1.3887 -0.0851
  472MOL0     H62304   3.507   5.426   7.838  2.4155 -1.9824 -0.0418
  473MOL0     O62305   1.407   5.416   1.546 -0.0410  0.1933  0.2682
  473MOL0     C62306   1.315   5.418   1.459 -1.2046 -0.4815  0.2735
  473MOL0     O62307   1.185   5.456   1.475  0.2693  0.3810  0.4895
  473MOL0     C62308   1.124   5.478   1.592  0.0166  0.2173  0.2904
  473MOL0     C62309   1.174   5.454   1.719 -0.0287 -0.2669  0.8142
  473MOL0     C62310   1.108   5.494   1.834  0.4053 -0.0086  0.4938
  473MOL0     C62311   0.996   5.585   1.835  0.4583  0.0966  0.2557
  473MOL0     O62312   0.938   5.629   1.952 -0.1115 -0.8970 -0.1401
  473MOL0     C62313   0.813   5.706   1.940 -0.4226  0.5687  0.0001
  473MOL0     C62314   0.691   5.621   1.938  0.1273  0.0595  0.1900
  473MOL0     C62315   0.557   5.680   1.896 -0.4251  0.6785  0.1058
  473MOL0     C62316   0.520   5.817   1.962 -0.9309  0.7110  1.5805
  473MOL0     C62317   0.382   5.864   1.902 -0.1756 -0.3124  0.3527
  473MOL0     C62318   0.327   5.974   1.987 -0.0490  0.0325  0.0597
  473MOL0     C62319   0.201   6.027   1.915  0.0017 -0.1125 -0.3249
  473MOL0     C62320   0.127   6.137   1.997 -0.1421 -0.0861 -0.3161
  473MOL0     N62321   0.191   6.268   2.010  0.1890  0.2916 -0.0107
  473MOL0     C62322   0.277   6.324   1.922 -0.6867 -0.6600 -0.5094
  473MOL0     C62323   0.262   6.457   1.928  0.2815 -0.5324  0.7517
  473MOL0     C62324   0.337   6.572   1.856 -0.4605 -1.2171 -0.2763
  473MOL0     C62325   0.436   6.527   1.756 -0.3517  0.1069  0.4018
  473MOL0     C62326   0.534   6.626   1.701  0.4344  0.2931  0.9591
  473MOL0     C62327   0.618   6.704   1.810  0.5134 -0.1677  0.4562
  473MOL0     O62328   0.641   6.619   1.924 -0.2547  0.2383  0.3188
  473MOL0     C62329   0.725   6.510   1.911 -0.9181 -0.5917 -0.1325
  473MOL0     C62330   0.843   6.508   1.835  0.4946  0.0922  0.2981
  473MOL0     C62331   0.924   6.398   1.818 -0.2914 -0.6880 -0.8531
  473MOL0     C62332   0.894   6.280   1.896  0.5742  0.4244 -0.5453
  473MOL0     C62333   0.957   6.150   1.876  0.5943 -0.1876  0.2125
  473MOL0     O62334   1.083   6.159   1.821 -0.7454 -0.3465  0.2021
  473MOL0     C62335   1.171   6.050   1.811  0.5841 -0.0504 -0.3250
  473MOL0     C62336   1.143   5.912   1.815  0.1694 -0.3942 -0.3554
  473MOL0     C62337   1.248   5.817   1.808 -0.1193  0.1586  1.1135
  473MOL0     C62338   1.380   5.857   1.781 -0.7089  0.4532 -0.2225
  473MOL0     O62339   1.487   5.777   1.772  0.1841  0.2527  0.4313
  473MOL0     C62340   1.492   5.644   1.843 -0.4230  0.2386  1.0900
  473MOL0     C62341   1.481   5.663   1.997  0.8121  0.1235  0.0286
  473MOL0     C62342   1.565   5.562   2.087 -0.3217 -0.3955  0.8356
  473MOL0     C62343   1.537   5.421   2.045 -0.0543 -0.2163 -0.5617
  473MOL0     C62344   1.645   5.344   2.128  0.2593  0.3539 -1.0865
  473MOL0     C62345   1.648   5.204   2.087 -0.1124  0.0407 -0.4681
  473MOL0     C62346   1.695   5.170   1.933 -0.2407 -0.0971  0.2658
  473MOL0     C62347   1.843   5.217   1.908  0.5070 -0.7585  0.2919
  473MOL0    Cl62348   1.852   5.381   1.837 -0.2229  0.2649 -0.0374
  473MOL0     C62349   1.406   5.991   1.770 -0.3440 -0.7016 -0.3237
  473MOL0     C62350   1.305   6.090   1.793 -0.7909 -0.7933 -0.2741
  473MOL0     O62351   0.906   6.050   1.920  0.7966  0.5090 -0.1175
  473MOL0     C62352   0.782   6.282   1.979 -0.9253 -0.1083 -0.4162
  473MOL0     C62353   0.710   6.403   1.999  0.3905  0.2041  0.6685
  473MOL0     N62354   0.170   6.474   2.031  0.4660 -1.0715 -0.3596
  473MOL0     N62355   0.121   6.363   2.075  1.5947 -0.6330  0.4209
  473MOL0     C62356   0.951   5.623   1.703  0.1184 -0.3531  0.0966
  473MOL0     C62357   1.008   5.567   1.583 -0.1305 -0.4278 -0.0138
  473MOL0     C62358   1.360   5.389   1.317  0.2983  1.2016  0.6621
  473MOL0     C62359   1.486   5.349   1.284  0.6641  0.0636  0.3820
  473MOL0     C62360   1.528   5.329   1.150  0.2199 -0.2703 -0.6736
  473MOL0     C62361   1.441   5.334   1.052 -0.3591 -0.9959  0.1372
  473MOL0     O62362   1.499   5.314   0.928 -0.8810  0.5624  0.2564
  473MOL0     C62363   1.441   5.370   0.813 -0.0059  0.0013 -0.1393
  473MOL0     C62364   1.557   5.384   0.719  0.2348  0.0412 -0.2959
  473MOL0     C62365   1.496   5.458   0.593 -1.1620  0.4474 -0.1842
  473MOL0     C62366   1.587   5.435   0.465  0.3772 -0.5991 -0.5624
  473MOL0     C62367   1.699   5.530   0.447  0.1335 -0.2592  0.6743
  473MOL0     C62368   1.786   5.611   0.447 -0.0587 -0.5216  0.4092
  473MOL0     C62369   1.302   5.383   1.072 -0.9245  0.0504  0.5041
  473MOL0     C62370   1.273   5.401   1.205  0.8511  0.2712  0.2642
  473MOL0     H62371   1.269   5.404   1.738  0.4073  1.3078  3.2355
  473MOL0     H62372   1.146   5.464   1.931  2.6494  1.0115 -0.0247
  473MOL0     H62373   0.805   5.775   1.856 -0.8723 -0.6714 -1.0209
  473MOL0     H62374   0.813   5.766   2.032  0.3191 -1.5631  1.4692
  473MOL0     H62375   0.688   5.579   2.039 -1.4153 -0.3610 -0.0114
  473MOL0     H62376   0.700   5.530   1.878  1.0029 -1.7051  2.8309
  473MOL0     H62377   0.471   5.615   1.911 -0.7058 -0.1333 -3.9434
  473MOL0     H62378   0.572   5.697   1.789  0.6737  0.6450  0.2363
  473MOL0     H62379   0.500   5.790   2.066 -1.0423 -0.3160  1.3073
  473MOL0     H62380   0.606   5.884   1.957  0.9945 -1.5817  2.3013
  473MOL0     H62381   0.306   5.786   1.908  0.8254 -1.2084  3.0364
  473MOL0     H62382   0.392   5.903   1.800  0.9695 -0.6604  0.3159
  473MOL0     H62383   0.402   6.051   2.008  1.8388 -2.3713  3.0613
  473MOL0     H62384   0.297   5.947   2.089 -1.5312  2.8592  0.4893
  473MOL0     H62385   0.223   6.076   1.820 -1.9357  3.2245  0.7929
  473MOL0     H62386   0.129   5.947   1.890 -0.1484  0.3063 -1.2908
  473MOL0     H62387   0.115   6.089   2.094 -0.6057 -2.6123 -1.5494
  473MOL0     H62388   0.030   6.145   1.946 -0.2204  1.6032  0.0436
  473MOL0     H62389   0.334   6.260   1.855 -1.8003 -0.3646 -1.7668
  473MOL0     H62390   0.389   6.622   1.938  2.5813 -3.0875 -0.9294
  473MOL0     H62391   0.267   6.641   1.807 -0.4074 -0.8358  0.1820
  473MOL0     H62392   0.393   6.470   1.673  1.3237  0.0190 -0.4440
  473MOL0     H62393   0.497   6.455   1.812 -1.1852 -0.4468  0.6276
  473MOL0     H62394   0.599   6.569   1.634  0.3249  2.6399 -1.3061
  473MOL0     H62395   0.476   6.700   1.646  0.7632 -0.2972 -0.2187
  473MOL0     H62396   0.561   6.791   1.842 -0.2766 -0.5910  0.2221
  473MOL0     H62397   0.709   6.748   1.769  2.0769 -0.3395  3.4667
  473MOL0     H62398   0.873   6.580   1.760  5.0182 -1.9150 -0.1044
  473MOL0     H62399   1.006   6.397   1.747  1.2347 -1.1953  0.8460
  473MOL0     H62400   1.039   5.886   1.827 -0.2228  1.9105  2.3802
  473MOL0     H62401   1.221   5.713   1.822  1.1385 -0.2117  0.9252
  473MOL0     H62402   1.578   5.585   1.810 -1.3183 -0.0496 -0.9035
  473MOL0     H62403   1.405   5.587   1.812 -1.6924  3.1529 -1.2251
  473MOL0     H62404   1.377   5.652   2.030  1.2686 -2.0469  0.9810
  473MOL0     H62405   1.512   5.765   2.021  2.4122 -0.5343  0.9177
  473MOL0     H62406   1.533   5.576   2.190  1.6906  3.9381  1.1181
  473MOL0     H62407   1.670   5.590   2.074 -0.7576  3.1092  3.2733
  473MOL0     H62408   1.445   5.386   2.092 -0.2212  0.3585 -0.4622
  473MOL0     H62409   1.540   5.385   1.942  1.0695 -1.2161 -0.2097
  473MOL0     H62410   1.622   5.345   2.235 -1.5725 -1.0139 -1.4278
  473MOL0     H62411   1.746   5.387   2.122  0.3240  0.7594  1.6065
  473MOL0     H62412   1.544   5.184   2.113  0.1503  0.8003  1.3506
  473MOL0     H62413   1.724   5.158   2.152 -0.1597  1.9964  1.0830
  473MOL0     H62414   1.677   5.066   1.905 -0.3249  0.1242 -0.5497
  473MOL0     H62415   1.629   5.223   1.864  0.3451 -1.0718 -1.0806
  473MOL0     H62416   1.899   5.143   1.851  2.5217 -0.6020  1.9175
  473MOL0     H62417   1.901   5.223   2.001  0.7291 -0.4149  0.1314
  473MOL0     H62418   1.510   6.018   1.756 -0.2911 -0.9258 -0.3784
  473MOL0     H62419   1.327   6.194   1.775 -2.3294 -0.5670 -0.9876
  473MOL0     H62420   0.749   6.196   2.036 -0.8928  0.5289  0.5787
  473MOL0     H62421   0.640   6.407   2.082 -0.0510 -0.5285  0.3448
  473MOL0     H62422   0.884   5.704   1.674  0.5759 -0.5026 -1.4219
  473MOL0     H62423   0.970   5.581   1.483 -1.2320 -0.1769  0.4171
  473MOL0     H62424   1.569   5.343   1.353 -0.6397  0.4738  2.0440
  473MOL0     H62425   1.625   5.294   1.114 -0.7621 -1.2089 -2.5687
  473MOL0     H62426   1.401   5.468   0.841  0.8959 -0.3112  2.4844
  473MOL0     H62427   1.361   5.299   0.788 -0.6575  0.3606  0.8541
  473MOL0     H62428   1.631   5.446   0.770 -0.2522 -0.9079  1.6673
  473MOL0     H62429   1.589   5.286   0.683 -0.2062  0.9606 -3.4625
  473MOL0     H62430   1.495   5.567   0.605 -2.3378  0.7107 -2.2450
  473MOL0     H62431   1.394   5.430   0.567 -1.9727  1.2201  1.9224
  473MOL0     H62432   1.630   5.335   0.457  0.8607 -0.4610  0.1661
  473MOL0     H62433   1.536   5.466   0.373 -1.0564  3.3968  1.3121
  473MOL0     H62434   1.854   5.693   0.441  1.0359 -1.4538 -0.3147
  473MOL0     H62435   1.241   5.407   0.986 -2.7065  0.3415  1.7890
  473MOL0     H62436   1.177   5.450   1.209  1.1729  0.9735 -0.4962
  474MOL0     O62437   4.455   9.471   0.817  0.2124  0.1298 -0.5123
  474MOL0     C62438   4.436   9.544   0.726  0.5976  0.2947 -0.7115
  474MOL0     O62439   4.344   9.648   0.725  0.0111 -1.1155 -0.7327
  474MOL0     C62440   4.262   9.643   0.838 -0.1952  0.1927  0.0813
  474MOL0     C62441   4.267   9.753   0.925  0.5031  0.7840  0.6994
  474MOL0     C62442   4.192   9.755   1.040  0.3531 -0.3999 -0.3971
  474MOL0     C62443   4.113   9.646   1.072  0.2725 -0.4464  0.2680
  474MOL0     O62444   4.051   9.661   1.197  0.0674 -0.3848  0.4720
  474MOL0     C62445   4.010   9.550   1.273 -0.3463 -0.4853 -0.7859
  474MOL0     C62446   3.867   9.562   1.324 -0.8374 -0.1237  0.0180
  474MOL0     C62447   3.824   9.710   1.373 -1.3108  0.9652 -0.2071
  474MOL0     C62448   3.688   9.703   1.452  0.4889 -0.5477 -0.1801
  474MOL0     C62449   3.651   9.838   1.518  0.4313 -0.2496  0.1472
  474MOL0     C62450   3.506   9.854   1.554 -0.7035  0.0803  0.4386
  474MOL0     C62451   3.475   9.986   1.636 -0.0325  0.3230  1.1364
  474MOL0     C62452   3.473  10.118   1.562 -0.4978 -0.4780  1.1367
  474MOL0     N62453   3.600  10.163   1.496  0.5436 -0.2226 -0.0444
  474MOL0     C62454   3.604  10.208   1.370 -0.0457 -0.2772  0.2293
  474MOL0     C62455   3.714  10.277   1.354 -0.5410  0.6071 -0.8448
  474MOL0     C62456   3.767  10.347   1.228  0.4851 -1.0836 -0.4402
  474MOL0     C62457   3.765  10.498   1.256 -0.2496  0.1009  0.4058
  474MOL0     C62458   3.907  10.561   1.271  0.7685 -0.3932  0.6870
  474MOL0     C62459   3.977  10.510   1.402  0.9869 -0.2818  0.4334
  474MOL0     O62460   4.116  10.544   1.409  0.3209  0.7694  0.2768
  474MOL0     C62461   4.169  10.596   1.523 -0.3689 -0.0010  0.1182
  474MOL0     C62462   4.096  10.627   1.635  0.7578 -0.5301 -0.1260
  474MOL0     C62463   4.155  10.661   1.754 -0.8379 -0.4397 -0.3046
  474MOL0     C62464   4.291  10.681   1.768 -1.7903 -0.5484 -0.2391
  474MOL0     C62465   4.359  10.732   1.891 -0.2313  0.4149  0.5575
  474MOL0     O62466   4.270  10.750   1.997  0.3473 -0.7718 -0.6756
  474MOL0     C62467   4.330  10.761   2.126  1.0330  0.0689  1.5166
  474MOL0     C62468   4.344  10.646   2.192 -0.6049  0.9223  0.4829
  474MOL0     C62469   4.400  10.655   2.323  0.1428  0.0804 -0.3351
  474MOL0     C62470   4.437  10.774   2.383  0.6072 -0.1578  1.0733
  474MOL0     O62471   4.491  10.780   2.501 -0.3763 -0.1419 -0.0547
  474MOL0     C62472   4.622  10.743   2.523 -0.2670  0.0239 -0.8121
  474MOL0     C62473   4.651  10.723   2.679  0.8657 -0.1184  0.1123
  474MOL0     C62474   4.518  10.670   2.750  0.8571 -0.1976  0.0218
  474MOL0     C62475   4.532  10.681   2.902 -0.2254  0.5899 -0.2158
  474MOL0     C62476   4.407  10.639   2.975  0.2599 -0.2401  0.2149
  474MOL0     C62477   4.289  10.746   2.977  0.1054  0.3818  0.1729
  474MOL0     C62478   4.147  10.696   3.020  0.5246 -0.4583  0.3690
  474MOL0     C62479   4.045  10.808   3.038 -0.4228 -0.1173  0.4567
  474MOL0    Cl62480   3.879  10.741   3.076 -0.4958  0.6378  0.1067
  474MOL0     C62481   4.404  10.890   2.316  0.2516 -0.3025 -0.0088
  474MOL0     C62482   4.348  10.885   2.186 -0.1347  0.6687  0.0967
  474MOL0     O62483   4.480  10.759   1.887  0.8843 -0.4180  0.1322
  474MOL0     C62484   4.375  10.655   1.650 -0.2763 -0.4148  0.5670
  474MOL0     C62485   4.304  10.623   1.529 -0.2443  0.5929  0.9870
  474MOL0     N62486   3.777  10.278   1.482  0.6116  0.2720  0.4128
  474MOL0     N62487   3.714  10.198   1.559  0.8187 -0.1184 -0.1764
  474MOL0     C62488   4.105   9.533   0.987 -0.9733  0.4990 -0.6016
  474MOL0     C62489   4.179   9.531   0.867 -0.0779  0.8347 -0.3443
  474MOL0     C62490   4.498   9.514   0.591 -0.1416  0.6833  0.5940
  474MOL0     C62491   4.615   9.431   0.582 -0.6428 -0.6227 -0.0276
  474MOL0     C62492   4.670   9.416   0.460 -0.6016 -0.1409  0.4285
  474MOL0     C62493   4.619   9.484   0.341 -0.0095 -0.2108 -0.1270
  474MOL0     O62494   4.688   9.470   0.227 -0.5467  0.9048  0.2513
  474MOL0     C62495   4.699   9.582   0.139 -0.9279 -0.3754 -0.8486
  474MOL0     C62496   4.847   9.615   0.115  0.9279 -0.2191  0.7049
  474MOL0     C62497   4.863   9.763   0.051 -0.1656  0.4479  0.4041
  474MOL0     C62498   5.012   9.796   0.013  0.6258 -0.3360  0.9008
  474MOL0     C62499   4.992   9.869  -0.124  0.5581 -0.4620 -1.0560
  474MOL0     C62500   4.968   9.936  -0.216 -0.3692 -0.4896  0.2385
  474MOL0     C62501   4.493   9.547   0.354 -0.1804 -0.4942  0.1687
  474MOL0     C62502   4.439   9.567   0.474  0.0793 -1.5232 -0.0186
  474MOL0     H62503   4.321   9.839   0.886  0.3637 -0.3974 -2.3183
  474MOL0     H62504   4.191   9.840   1.107 -3.0981  0.9989 -1.9500
  474MOL0     H62505   4.075   9.536   1.360  0.7155 -2.1718 -1.7838
  474MOL0     H62506   4.012   9.455   1.220 -0.9958  0.0307 -1.7677
  474MOL0     H62507   3.850   9.486   1.401 -0.8462 -1.5906 -1.3811
  474MOL0     H62508   3.796   9.539   1.244 -2.7161  2.7404  0.7184
  474MOL0     H62509   3.816   9.769   1.281  0.0556  0.4623 -0.6731
  474MOL0     H62510   3.894   9.756   1.444 -0.8357 -2.8522  2.0786
  474MOL0     H62511   3.608   9.667   1.387  0.2492  2.3157 -1.6193
  474MOL0     H62512   3.704   9.626   1.529 -0.3411 -0.9487 -0.4008
  474MOL0     H62513   3.664   9.919   1.446 -2.1850 -1.1466 -1.4674
  474MOL0     H62514   3.706   9.857   1.610 -3.3461  1.6130  2.2573
  474MOL0     H62515   3.489   9.772   1.625 -0.4579  0.0501  0.4652
  474MOL0     H62516   3.441   9.833   1.469  0.9134  1.4591 -1.2113
  474MOL0     H62517   3.385   9.985   1.699  0.9094  1.4714  2.5677
  474MOL0     H62518   3.556   9.984   1.710 -2.0172 -0.4729  3.3990
  474MOL0     H62519   3.449  10.201   1.629 -0.8920  4.2686 -4.1207
  474MOL0     H62520   3.388  10.108   1.495  2.1275 -3.5621 -2.1624
  474MOL0     H62521   3.531  10.203   1.290 -3.1471  0.0034  2.8639
  474MOL0     H62522   3.702  10.321   1.144 -0.9818  1.6183 -0.2370
  474MOL0     H62523   3.870  10.319   1.203  0.1346 -0.2546 -3.1070
  474MOL0     H62524   3.702  10.519   1.343  0.8550 -1.5092  1.6765
  474MOL0     H62525   3.724  10.543   1.165  1.5680 -1.8310 -1.5058
  474MOL0     H62526   3.962  10.541   1.178 -1.9415  0.6049 -1.2446
  474MOL0     H62527   3.906  10.670   1.274 -0.3002 -0.3008 -1.0971
  474MOL0     H62528   3.979  10.402   1.418 -2.1716 -0.4840  0.2194
  474MOL0     H62529   3.916  10.552   1.482 -0.9010 -1.3101 -0.3992
  474MOL0     H62530   3.990  10.604   1.642  0.6197 -1.4745 -3.4792
  474MOL0     H62531   4.086  10.677   1.837 -2.7639  1.4237 -2.1426
  474MOL0     H62532   4.336  10.551   2.140  1.8085 -0.0334  1.6726
  474MOL0     H62533   4.412  10.559   2.373 -3.7474 -0.3986  0.0219
  474MOL0     H62534   4.697  10.818   2.497  0.5130 -0.9071 -1.3153
  474MOL0     H62535   4.638  10.647   2.473  0.6481 -0.2414 -0.0516
  474MOL0     H62536   4.658  10.819   2.730  0.1923 -1.3907  2.7956
  474MOL0     H62537   4.731  10.655   2.708  2.3310  0.9238 -1.3463
  474MOL0     H62538   4.501  10.565   2.724  0.5078  0.2165 -1.4706
  474MOL0     H62539   4.437  10.739   2.728  2.9476  2.0272 -1.1151
  474MOL0     H62540   4.612  10.612   2.933  0.4764  0.1560 -2.8053
  474MOL0     H62541   4.553  10.782   2.940  1.1751 -1.2441  4.6433
  474MOL0     H62542   4.431  10.623   3.081 -1.6475  0.1558  0.7373
  474MOL0     H62543   4.368  10.546   2.934  0.4445  0.6306 -2.0543
  474MOL0     H62544   4.285  10.796   2.880  3.5554 -2.5807 -1.7458
  474MOL0     H62545   4.310  10.818   3.056  0.9288  0.5634 -0.2003
  474MOL0     H62546   4.120  10.620   2.946  3.3835  1.6205 -3.2145
  474MOL0     H62547   4.153  10.651   3.119 -4.5869 -1.1863  0.5881
  474MOL0     H62548   4.048  10.853   2.938 -0.3462 -1.0443  0.0331
  474MOL0     H62549   4.059  10.886   3.114 -2.2398 -0.4323  1.1586
  474MOL0     H62550   4.407  10.982   2.374  0.4510 -0.7515  0.7107
  474MOL0     H62551   4.339  10.973   2.123 -0.0859 -1.1150 -2.5073
  474MOL0     H62552   4.482  10.670   1.649 -0.0236 -2.0258  1.1140
  474MOL0     H62553   4.369  10.608   1.444  0.0625  0.8819  1.1674
  474MOL0     H62554   4.035   9.453   1.009 -0.0664  0.0296  0.6926
  474MOL0     H62555   4.170   9.445   0.801 -0.4388 -0.2073  1.0177
  474MOL0     H62556   4.656   9.369   0.661 -1.6289 -0.4468  0.6506
  474MOL0     H62557   4.765   9.366   0.451  0.4200  1.3589  2.1866
  474MOL0     H62558   4.659   9.671   0.190  2.2212  0.3359  0.6389
  474MOL0     H62559   4.659   9.556   0.041 -1.6552 -0.3818 -0.5557
  474MOL0     H62560   4.894   9.613   0.214 -1.1343 -1.2097  1.7275
  474MOL0     H62561   4.903   9.543   0.056  1.9767  0.9029  0.2835
  474MOL0     H62562   4.835   9.850   0.111  1.5465  0.8268  0.7059
  474MOL0     H62563   4.793   9.772  -0.032 -3.1614 -0.8201  2.6305
  474MOL0     H62564   5.071   9.863   0.076  3.7520 -2.2623  0.2476
  474MOL0     H62565   5.070   9.706  -0.009 -2.1834 -1.8352 -0.8673
  474MOL0     H62566   4.969   9.975  -0.315 -3.9947  0.0429  0.3035
  474MOL0     H62567   4.447   9.602   0.272  1.2143  1.1983  0.4600
  474MOL0     H62568   4.351   9.630   0.473  2.5907  2.5229 -3.7543
  475MOL0     O62569   8.490   6.489  10.507 -1.2217  0.1197 -0.3067
  475MOL0     C62570   8.597   6.556  10.484 -0.1106  1.2847 -0.3282
  475MOL0     O62571   8.727   6.502  10.485 -0.3739  0.5273 -0.5268
  475MOL0     C62572   8.753   6.368  10.502 -0.1446 -0.7100  0.2856
  475MOL0     C62573   8.688   6.258  10.439 -0.4667 -0.4298 -0.1185
  475MOL0     C62574   8.749   6.137  10.421 -1.0935  0.1000 -0.8073
  475MOL0     C62575   8.869   6.102  10.477  0.5369 -0.7284  0.0703
  475MOL0     O62576   8.933   5.974  10.465  0.8966 -0.6030 -0.1556
  475MOL0     C62577   8.919   5.882  10.574 -0.2713  0.2422  0.6561
  475MOL0     C62578   8.798   5.786  10.542 -0.5623 -0.4335 -0.3853
  475MOL0     C62579   8.820   5.686  10.429 -0.4681 -0.1703 -0.6255
  475MOL0     C62580   8.721   5.577  10.459  0.0917 -0.4580 -0.5932
  475MOL0     C62581   8.719   5.475  10.348  0.3263 -0.0793 -0.2648
  475MOL0     C62582   8.855   5.406  10.320 -0.0194 -0.1457  0.4601
  475MOL0     C62583   8.848   5.341  10.176  0.4264 -0.6537  0.9861
  475MOL0     C62584   8.741   5.232  10.165  0.7404 -0.2223 -0.3471
  475MOL0     N62585   8.734   5.162  10.033  0.1597 -1.1166  0.5636
  475MOL0     C62586   8.818   5.051  10.008  0.1165 -0.3571  0.0540
  475MOL0     C62587   8.772   5.010   9.888  0.4327 -0.1200  0.2787
  475MOL0     C62588   8.795   4.875   9.825  0.2167 -0.3407 -0.3111
  475MOL0     C62589   8.816   4.849   9.673  0.1119  0.1215 -0.4902
  475MOL0     C62590   8.954   4.897   9.633 -0.6832  0.2758  0.4853
  475MOL0     C62591   9.010   4.811   9.514  0.3165 -0.0290 -0.9886
  475MOL0     O62592   9.062   4.685   9.551  0.2113  0.6115  0.1734
  475MOL0     C62593   9.113   4.602   9.451  0.7512  0.1773  0.8949
  475MOL0     C62594   9.177   4.490   9.489 -0.4210  0.2433 -0.0365
  475MOL0     C62595   9.232   4.393   9.405 -0.6143 -0.0444  0.7160
  475MOL0     C62596   9.222   4.408   9.265 -0.6300  0.7244 -0.2479
  475MOL0     C62597   9.290   4.321   9.159 -0.6140  0.6829 -0.6198
  475MOL0     O62598   9.265   4.331   9.025 -0.3809  0.3042 -0.3501
  475MOL0     C62599   9.336   4.263   8.931 -0.2994 -0.4105  0.0375
  475MOL0     C62600   9.471   4.287   8.891 -0.2352 -0.7990  0.1419
  475MOL0     C62601   9.536   4.199   8.805 -0.2434  0.3641  0.0954
  475MOL0     C62602   9.471   4.081   8.765  0.5161  1.2234  0.3208
  475MOL0     O62603   9.540   3.985   8.691  0.4309 -0.3304 -0.1352
  475MOL0     C62604   9.653   4.029   8.609 -0.8360 -0.7384  0.0333
  475MOL0     C62605   9.698   3.942   8.497  0.2932 -0.2792 -0.8633
  475MOL0     C62606   9.840   3.967   8.444 -0.3547  0.5195  0.0063
  475MOL0     C62607   9.881   3.884   8.323  0.2132 -0.7428  0.8694
  475MOL0     C62608   9.986   3.961   8.240 -0.0910  0.1091 -0.2920
  475MOL0     C62609  10.011   3.887   8.105 -0.2622  0.3509 -0.0347
  475MOL0     C62610  10.137   3.939   8.039  0.3117  0.2579  0.5775
  475MOL0     C62611  10.164   3.881   7.908  0.8976 -0.9113  0.1515
  475MOL0    Cl62612  10.338   3.886   7.864  0.0184 -0.4975  0.1121
  475MOL0     C62613   9.342   4.056   8.800  0.6993  0.0282 -0.1605
  475MOL0     C62614   9.275   4.152   8.884  0.6597 -0.0183 -1.4236
  475MOL0     O62615   9.362   4.229   9.210  0.1298 -0.3998 -0.3263
  475MOL0     C62616   9.157   4.528   9.214 -0.0397 -1.1815 -0.4748
  475MOL0     C62617   9.101   4.628   9.302 -0.0974 -0.0541 -0.5816
  475MOL0     N62618   8.670   5.095   9.841  0.5029 -0.1648 -0.4843
  475MOL0     N62619   8.651   5.185   9.932  0.8601 -0.1119  0.3429
  475MOL0     C62620   8.936   6.215  10.545 -0.6999  1.2747  0.0612
  475MOL0     C62621   8.885   6.342  10.560  0.6238 -0.3106 -0.2688
  475MOL0     C62622   8.573   6.698  10.480 -0.2696 -0.7920  0.9143
  475MOL0     C62623   8.448   6.750  10.448 -0.6119  0.7205  0.0554
  475MOL0     C62624   8.431   6.882  10.428 -0.1920 -0.3526  1.0801
  475MOL0     C62625   8.533   6.979  10.460 -1.0705  0.2319 -1.0325
  475MOL0     O62626   8.514   7.112  10.430 -0.5187  0.8867 -0.1403
  475MOL0     C62627   8.400   7.150  10.351  0.8498  0.0117  0.6077
  475MOL0     C62628   8.414   7.294  10.310 -1.2364 -0.0820  0.3536
  475MOL0     C62629   8.316   7.329  10.199 -0.2346  0.4815  0.4632
  475MOL0     C62630   8.375   7.437  10.112 -0.3935  0.2795  0.7762
  475MOL0     C62631   8.336   7.571  10.168  0.4473 -0.0494 -0.1328
  475MOL0     C62632   8.298   7.664  10.233  0.1467  0.8256  0.2127
  475MOL0     C62633   8.655   6.933  10.510 -1.6221 -0.3657  0.2696
  475MOL0     C62634   8.678   6.792  10.516  1.1978 -0.1811 -0.7330
  475MOL0     H62635   8.601   6.267  10.375  0.3934 -2.5929 -1.7009
  475MOL0     H62636   8.703   6.055  10.366  0.1174 -1.7594  0.8120
  475MOL0     H62637   8.904   5.941  10.665 -1.2547  0.0148  0.6563
  475MOL0     H62638   9.010   5.824  10.590 -0.8528 -0.6867  0.6669
  475MOL0     H62639   8.711   5.850  10.522 -0.9887 -0.9026 -0.0628
  475MOL0     H62640   8.778   5.744  10.641 -2.2194  3.3714  1.1166
  475MOL0     H62641   8.925   5.658  10.430 -0.6600 -0.9153  0.2698
  475MOL0     H62642   8.804   5.737  10.334 -0.4010  0.3421 -0.3689
  475MOL0     H62643   8.763   5.541  10.553  2.4535  2.4911 -0.3675
  475MOL0     H62644   8.619   5.605  10.486  0.5253  1.7594 -1.1151
  475MOL0     H62645   8.681   5.533  10.263  0.4587  0.0495 -0.2367
  475MOL0     H62646   8.649   5.399  10.385  1.8324 -0.0045  3.0412
  475MOL0     H62647   8.858   5.311  10.374 -2.2781 -1.1755 -1.0796
  475MOL0     H62648   8.939   5.476  10.333 -1.7634  1.6554  3.3305
  475MOL0     H62649   8.810   5.422  10.112  0.9001 -1.8873 -0.9397
  475MOL0     H62650   8.940   5.290  10.146 -0.2999 -1.4869  0.0908
  475MOL0     H62651   8.649   5.284  10.195 -0.0298 -1.7068  0.0094
  475MOL0     H62652   8.748   5.150  10.237 -3.7920  1.1558  2.1223
  475MOL0     H62653   8.876   4.986  10.072  3.6174 -0.7665 -3.1528
  475MOL0     H62654   8.708   4.819   9.860  0.6463  0.0553  1.4975
  475MOL0     H62655   8.878   4.834   9.883  2.6021  2.6541 -1.3247
  475MOL0     H62656   8.729   4.886   9.618 -1.1001 -3.8259 -1.5501
  475MOL0     H62657   8.812   4.742   9.651 -1.7764  0.5619 -2.5869
  475MOL0     H62658   8.972   5.003   9.612 -1.1673 -0.1792 -2.8746
  475MOL0     H62659   9.027   4.866   9.708 -0.8855  0.2346  0.6648
  475MOL0     H62660   9.093   4.866   9.471 -0.2863  2.2086  0.5353
  475MOL0     H62661   8.932   4.802   9.438 -2.1336 -0.0363  1.3604
  475MOL0     H62662   9.195   4.484   9.596 -2.5126  1.6503  0.4561
  475MOL0     H62663   9.278   4.307   9.452 -0.6958  0.0557  0.9838
  475MOL0     H62664   9.529   4.377   8.909 -1.1958 -0.3841  1.3564
  475MOL0     H62665   9.639   4.228   8.790  0.1066 -1.8459 -2.3506
  475MOL0     H62666   9.734   4.040   8.682  0.2700 -1.2905 -1.0631
  475MOL0     H62667   9.628   4.126   8.565  0.7782  0.6521  2.0191
  475MOL0     H62668   9.626   3.955   8.415  0.2325  0.0952 -0.7487
  475MOL0     H62669   9.695   3.839   8.534 -4.0737  0.1916  0.7547
  475MOL0     H62670   9.907   3.930   8.523  0.1780 -0.8719 -1.0610
  475MOL0     H62671   9.860   4.075   8.444  1.7825  0.2319 -2.6434
  475MOL0     H62672   9.921   3.788   8.356  1.1174 -0.5481  0.3535
  475MOL0     H62673   9.793   3.875   8.259  1.0899 -0.8332 -0.3555
  475MOL0     H62674  10.079   3.962   8.297 -1.1063  1.8770  1.4214
  475MOL0     H62675   9.969   4.067   8.224 -0.1634  0.4303  1.6916
  475MOL0     H62676   9.923   3.901   8.041 -2.0311  2.7019  2.6788
  475MOL0     H62677  10.008   3.777   8.108  0.1868  0.2476 -1.9659
  475MOL0     H62678  10.134   4.048   8.034 -1.2445  0.2767  1.1946
  475MOL0     H62679  10.221   3.915   8.105  0.5040 -0.5297  0.0656
  475MOL0     H62680  10.107   3.942   7.838 -1.8249 -1.7571  1.5227
  475MOL0     H62681  10.127   3.778   7.908  1.1742 -1.1437 -3.5072
  475MOL0     H62682   9.288   3.962   8.791  1.4133 -0.4839  0.7172
  475MOL0     H62683   9.173   4.136   8.919  0.8496 -0.0776 -0.8891
  475MOL0     H62684   9.130   4.537   9.109 -2.6689 -2.1653  0.0211
  475MOL0     H62685   9.028   4.702   9.271  1.5601  0.3665 -3.9076
  475MOL0     H62686   9.030   6.200  10.597 -1.3288  1.7656  1.3943
  475MOL0     H62687   8.947   6.426  10.591  1.7466 -1.3863  0.5048
  475MOL0     H62688   8.365   6.682  10.430  0.1757 -0.3747  0.5040
  475MOL0     H62689   8.338   6.912  10.382  0.4473  0.8891  0.5376
  475MOL0     H62690   8.310   7.144  10.414  0.0833 -3.6744 -0.6011
  475MOL0     H62691   8.396   7.092  10.258 -1.3988  0.1922  0.5273
  475MOL0     H62692   8.391   7.362  10.393 -1.0754  3.0646 -2.0138
  475MOL0     H62693   8.515   7.315  10.275  0.2282  2.7952  5.2656
  475MOL0     H62694   8.223   7.355  10.249 -1.8261 -0.2847 -1.9394
  475MOL0     H62695   8.299   7.244  10.133  1.2878  0.0122  0.6338
  475MOL0     H62696   8.485   7.435  10.110 -0.4050 -0.8514  0.5234
  475MOL0     H62697   8.332   7.428  10.012  1.4666  1.4207 -0.1843
  475MOL0     H62698   8.255   7.752  10.277  0.3821  1.2311 -0.3483
  475MOL0     H62699   8.744   6.994  10.527 -0.0577 -2.4447  0.0182
  475MOL0     H62700   8.783   6.766  10.531  1.4422  0.7023 -0.8898
  476MOL0     O62701   9.095   5.031   9.191 -1.0518 -0.1772  0.3620
  476MOL0     C62702   8.994   4.972   9.161  1.3980 -0.5984  0.5444
  476MOL0     O62703   8.874   4.986   9.223 -0.4400  0.2310 -0.2832
  476MOL0     C62704   8.836   5.093   9.300 -0.9376 -0.7704 -0.1591
  476MOL0     C62705   8.723   5.078   9.382  1.6956 -0.2741 -0.1629
  476MOL0     C62706   8.678   5.177   9.466 -0.4366 -0.2857  0.0441
  476MOL0     C62707   8.737   5.303   9.461  0.3030  0.2941 -0.0287
  476MOL0     O62708   8.696   5.406   9.548  0.2369  0.4966  0.7158
  476MOL0     C62709   8.675   5.370   9.686  0.7694 -0.0044 -0.5969
  476MOL0     C62710   8.651   5.507   9.756 -0.1030  0.2746  0.4609
  476MOL0     C62711   8.778   5.592   9.755  0.0956 -0.8904  0.4470
  476MOL0     C62712   8.896   5.551   9.834  0.6250  0.5537  0.8410
  476MOL0     C62713   8.987   5.647   9.909 -0.8746 -0.4687  0.4959
  476MOL0     C62714   9.116   5.595   9.961  0.0718  0.3527 -0.7023
  476MOL0     C62715   9.197   5.698  10.038 -0.4474 -0.2462 -0.5085
  476MOL0     C62716   9.313   5.642  10.115  1.4180 -0.1226  0.1573
  476MOL0     N62717   9.268   5.588  10.247  0.1931  0.5204  0.7435
  476MOL0     C62718   9.256   5.680  10.350 -0.4733 -0.4822 -0.6088
  476MOL0     C62719   9.223   5.604  10.461  0.1176 -0.8884 -0.2744
  476MOL0     C62720   9.221   5.650  10.604  0.4689 -0.3467 -0.2466
  476MOL0     C62721   9.357   5.636  10.657 -0.3233 -0.6368  0.8769
  476MOL0     C62722   9.363   5.638  10.811 -0.2652  0.0357  0.2518
  476MOL0     C62723   9.322   5.765  10.879 -0.2387  0.2385 -0.1131
  476MOL0     O62724   9.191   5.757  10.934  0.9429  0.8541  0.0628
  476MOL0     C62725   9.165   5.704  11.065  0.0388  0.5493  0.0027
  476MOL0     C62726   9.032   5.711  11.112 -0.0087 -0.1025 -0.1463
  476MOL0     C62727   9.001   5.669  11.239 -0.2192 -0.1032  0.5529
  476MOL0     C62728   9.095   5.603  11.324  0.0512 -0.0636  0.6987
  476MOL0     C62729   9.058   5.530  11.451 -0.6897 -0.4911  0.0173
  476MOL0     O62730   9.167   5.479  11.517  0.7641  0.8712 -0.5276
  476MOL0     C62731   9.143   5.452  11.651  1.3876 -0.9573 -0.9987
  476MOL0     C62732   9.109   5.331  11.708 -0.0737  0.9103  0.9574
  476MOL0     C62733   9.071   5.321  11.842  0.0475 -0.1679  0.2030
  476MOL0     C62734   9.086   5.425  11.931 -0.4846  0.1302 -1.0514
  476MOL0     O62735   9.055   5.417  12.063  0.1212 -1.2081  0.3191
  476MOL0     C62736   9.051   5.289  12.124  1.4506  0.3381 -0.2774
  476MOL0     C62737   8.990   5.301  12.269 -0.2153 -0.0402 -0.0778
  476MOL0     C62738   8.842   5.335  12.255 -0.3656  0.3434  0.4552
  476MOL0     C62739   8.807   5.480  12.212  0.4245  0.5921  0.1786
  476MOL0     C62740   8.657   5.531  12.229 -0.4519  0.2634  0.6547
  476MOL0     C62741   8.559   5.460  12.134 -0.3359 -0.6878 -0.4086
  476MOL0     C62742   8.423   5.530  12.152  0.6840  0.2714  1.1202
  476MOL0     C62743   8.319   5.429  12.197 -0.2448 -0.4162  0.2739
  476MOL0    Cl62744   8.342   5.367  12.361  0.2102  0.2804 -0.0962
  476MOL0     C62745   9.130   5.542  11.879  0.6162  0.4177  0.0148
  476MOL0     C62746   9.152   5.567  11.741  0.6315  0.4729  0.5495
  476MOL0     O62747   8.946   5.550  11.495  0.6751 -0.2704 -0.3464
  476MOL0     C62748   9.225   5.591  11.272  0.1477 -0.6549  0.4071
  476MOL0     C62749   9.258   5.636  11.143 -0.0215  0.5896  0.0645
  476MOL0     N62750   9.240   5.473  10.426 -0.9758  0.7871  0.4434
  476MOL0     N62751   9.269   5.463  10.291 -0.6422 -0.5132 -0.2278
  476MOL0     C62752   8.838   5.322   9.372 -0.2851 -0.3532 -0.6304
  476MOL0     C62753   8.891   5.219   9.291 -0.6582  0.0293 -0.5152
  476MOL0     C62754   9.008   4.876   9.053 -0.1161 -0.9327 -0.3041
  476MOL0     C62755   8.896   4.805   9.003  0.6792  0.0152  0.3671
  476MOL0     C62756   8.904   4.705   8.908 -0.3400  0.1275 -0.2030
  476MOL0     C62757   9.029   4.665   8.857  0.9821 -0.5970  0.5697
  476MOL0     O62758   9.022   4.555   8.772  0.7139 -0.5150 -0.2880
  476MOL0     C62759   9.137   4.491   8.718 -0.3825 -0.3794 -0.1360
  476MOL0     C62760   9.096   4.371   8.632 -0.1095  0.0202 -0.4191
  476MOL0     C62761   9.206   4.315   8.552  0.3716  1.0102 -0.3094
  476MOL0     C62762   9.179   4.171   8.495 -0.1081 -0.4223  0.8257
  476MOL0     C62763   9.286   4.140   8.397  0.2925 -0.2655 -0.6495
  476MOL0     C62764   9.377   4.096   8.334 -0.2915  1.1759  1.4779
  476MOL0     C62765   9.141   4.730   8.905 -0.4380  0.4313  0.6183
  476MOL0     C62766   9.135   4.837   8.994 -0.3418 -0.1203 -1.1825
  476MOL0     H62767   8.665   4.986   9.382  2.2020 -0.6650  2.5165
  476MOL0     H62768   8.600   5.159   9.539 -1.4655 -0.5190 -1.0700
  476MOL0     H62769   8.760   5.321   9.734  2.3733  4.1537  1.2835
  476MOL0     H62770   8.588   5.305   9.690  0.5101  0.3005 -1.0711
  476MOL0     H62771   8.626   5.494   9.862 -1.0101  0.1075  0.2371
  476MOL0     H62772   8.575   5.566   9.705 -0.5331  4.3006  5.0478
  476MOL0     H62773   8.746   5.691   9.788 -0.7479 -1.3437  1.0208
  476MOL0     H62774   8.820   5.600   9.654 -1.8087 -1.8528 -0.4603
  476MOL0     H62775   8.850   5.481   9.905  0.2478 -4.1019 -3.5004
  476MOL0     H62776   8.956   5.492   9.765 -2.5948  1.5182 -3.1557
  476MOL0     H62777   8.912   5.670   9.986 -0.3129 -1.6327  1.4324
  476MOL0     H62778   9.003   5.741   9.855 -0.4185 -1.2352 -0.7285
  476MOL0     H62779   9.165   5.549   9.875 -0.2084  2.0490 -1.8285
  476MOL0     H62780   9.089   5.513  10.029  0.9680  0.7488  0.1529
  476MOL0     H62781   9.241   5.777   9.976  0.3877 -1.2786 -1.2616
  476MOL0     H62782   9.124   5.754  10.098 -2.1265 -2.7367 -0.0705
  476MOL0     H62783   9.401   5.708  10.111  1.5739 -0.2442  1.1980
  476MOL0     H62784   9.343   5.551  10.062 -2.6989 -1.7582  0.3362
  476MOL0     H62785   9.273   5.787  10.348  0.1148 -0.5710 -0.6959
  476MOL0     H62786   9.169   5.566  10.651  5.1040 -2.9226  0.9241
  476MOL0     H62787   9.184   5.751  10.625  0.0138 -1.3276  5.0455
  476MOL0     H62788   9.439   5.701  10.623  2.2886 -3.0803  2.0812
  476MOL0     H62789   9.394   5.536  10.633 -0.8752 -0.2439 -1.9367
  476MOL0     H62790   9.304   5.554  10.847  1.4947 -0.7654  1.3931
  476MOL0     H62791   9.467   5.625  10.844  0.2064 -0.2203 -1.2710
  476MOL0     H62792   9.318   5.849  10.808 -1.3409 -0.4697 -0.9255
  476MOL0     H62793   9.389   5.790  10.962  0.4893  0.4997 -0.7665
  476MOL0     H62794   8.947   5.752  11.059 -1.3411 -1.2928  0.9858
  476MOL0     H62795   8.897   5.653  11.267 -0.3221  0.1830  0.3333
  476MOL0     H62796   9.087   5.249  11.640  1.3967  0.4566  1.0124
  476MOL0     H62797   9.025   5.225  11.861 -0.1506 -0.0966  0.0868
  476MOL0     H62798   9.154   5.252  12.128  1.2773 -0.0672  0.8162
  476MOL0     H62799   8.998   5.216  12.063  3.2213  0.6315 -2.2931
  476MOL0     H62800   9.039   5.375  12.332  0.5530 -0.9789  0.4684
  476MOL0     H62801   8.996   5.202  12.315  3.6823  0.4801  0.8771
  476MOL0     H62802   8.785   5.311  12.345 -3.6299  0.3951 -1.4253
  476MOL0     H62803   8.805   5.260  12.185  3.8182 -0.1964 -1.5307
  476MOL0     H62804   8.867   5.559  12.259  0.9186  0.1228  0.3501
  476MOL0     H62805   8.823   5.485  12.103  0.7371 -0.9065  0.1331
  476MOL0     H62806   8.667   5.638  12.211  2.0933  0.1511  1.0768
  476MOL0     H62807   8.624   5.514  12.332  1.8798 -2.3566  1.0888
  476MOL0     H62808   8.574   5.355  12.162 -0.7649  0.0975  3.2408
  476MOL0     H62809   8.582   5.473  12.028 -0.0972 -3.3176 -0.7657
  476MOL0     H62810   8.434   5.608  12.228  3.0815  1.9634 -0.7781
  476MOL0     H62811   8.392   5.576  12.057 -0.3895 -1.0788  0.7817
  476MOL0     H62812   8.316   5.344  12.127 -3.2722 -0.2099  0.0255
  476MOL0     H62813   8.225   5.484  12.185 -1.5129 -2.7045 -1.0499
  476MOL0     H62814   9.129   5.627  11.946 -1.0007 -1.5389  2.6975
  476MOL0     H62815   9.157   5.674  11.726 -0.2578  0.5331  0.6066
  476MOL0     H62816   9.307   5.549  11.329  1.5375  3.9266  2.2260
  476MOL0     H62817   9.360   5.610  11.117 -0.9908 -2.1520 -1.4416
  476MOL0     H62818   8.874   5.424   9.361 -2.1356  0.6611  1.7678
  476MOL0     H62819   8.967   5.244   9.217  0.6191  0.2133  0.8154
  476MOL0     H62820   8.796   4.839   9.029  1.0232  0.6801  0.8466
  476MOL0     H62821   8.813   4.662   8.867 -1.2641  2.3691 -0.6594
  476MOL0     H62822   9.212   4.458   8.791 -1.1051 -1.5385  0.1097
  476MOL0     H62823   9.185   4.567   8.656  1.4405 -0.6727  0.8287
  476MOL0     H62824   9.058   4.290   8.694  1.9053  3.1398  5.6514
  476MOL0     H62825   9.029   4.400   8.551  0.2151  0.0257 -0.6895
  476MOL0     H62826   9.297   4.314   8.613  0.7588 -1.1650 -0.8456
  476MOL0     H62827   9.222   4.383   8.468  1.5062  0.3430 -0.6578
  476MOL0     H62828   9.161   4.096   8.573  0.1068 -2.1008 -0.6520
  476MOL0     H62829   9.089   4.186   8.434  1.6766 -0.3140 -1.9839
  476MOL0     H62830   9.461   4.052   8.284 -0.9339  0.5216  0.9497
  476MOL0     H62831   9.245   4.703   8.888 -0.0705  1.3716  1.3135
  476MOL0     H62832   9.227   4.876   9.037  0.7870 -1.5413 -2.1864
  477MOL0     O62833   8.412  10.163   6.574  0.0630 -0.3547  0.1968
  477MOL0     C62834   8.422  10.183   6.693 -0.4914 -0.7685  0.5899
  477MOL0     O62835   8.542  10.168   6.764  0.0275  0.4864  0.1463
  477MOL0     C62836   8.649  10.127   6.688 -0.3355 -0.1002 -0.2172
  477MOL0     C62837   8.663   9.997   6.639 -0.5673 -0.5367  0.9851
  477MOL0     C62838   8.757   9.962   6.546  0.5307 -1.0711 -0.8175
  477MOL0     C62839   8.858  10.045   6.514  0.4281 -0.0427  0.9478
  477MOL0     O62840   8.945  10.000   6.424  1.1865  0.7674 -0.2444
  477MOL0     C62841   9.035  10.094   6.363 -0.0396  0.1385  0.9958
  477MOL0     C62842   9.074  10.034   6.226 -0.4234  0.3529 -0.5687
  477MOL0     C62843   9.196  10.095   6.157 -0.1982  0.1071  0.2911
  477MOL0     C62844   9.190  10.069   6.011 -0.2257  0.4997  0.3530
  477MOL0     C62845   9.330  10.119   5.953  0.1526 -0.4735 -0.0319
  477MOL0     C62846   9.401  10.010   5.866  0.3979 -0.0083 -0.2553
  477MOL0     C62847   9.535  10.058   5.823  0.0252  0.2893 -0.3816
  477MOL0     C62848   9.585   9.985   5.696 -0.0770 -0.5987 -0.4391
  477MOL0     N62849   9.674  10.076   5.624  0.5838 -0.7379  0.4519
  477MOL0     C62850   9.634  10.167   5.531 -0.2839  1.2851 -0.6628
  477MOL0     C62851   9.752  10.204   5.470  0.3978  0.0541  0.2013
  477MOL0     C62852   9.765  10.309   5.359  0.1799 -0.1830 -0.2368
  477MOL0     C62853   9.882  10.279   5.260  0.2404 -0.3551 -0.9166
  477MOL0     C62854   9.901  10.379   5.144 -0.0091  0.1132 -0.0459
  477MOL0     C62855   9.934  10.517   5.188  0.7118 -0.8711 -1.0399
  477MOL0     O62856   9.832  10.589   5.258  0.7502 -0.1644 -0.0985
  477MOL0     C62857   9.701  10.603   5.192 -0.2915  0.4485  0.5773
  477MOL0     C62858   9.684  10.612   5.047 -0.0030  0.5238  0.5281
  477MOL0     C62859   9.554  10.628   5.001  0.7767 -1.1246 -0.4298
  477MOL0     C62860   9.440  10.653   5.082 -0.9978  0.6478  0.4393
  477MOL0     C62861   9.307  10.653   5.017  0.4311 -0.7393  0.5417
  477MOL0     O62862   9.200  10.633   5.098  1.1380  0.1034 -0.8944
  477MOL0     C62863   9.066  10.645   5.049 -0.5390 -0.2726 -0.3898
  477MOL0     C62864   9.012  10.645   4.928  0.3239  0.0457  1.0189
  477MOL0     C62865   8.872  10.654   4.901  0.1145 -0.3985  0.0413
  477MOL0     C62866   8.785  10.666   5.005  1.1720  0.8058  0.6424
  477MOL0     O62867   8.651  10.675   4.972  0.2743  0.3812  0.4578
  477MOL0     C62868   8.558  10.674   5.079 -0.7889  0.3246  0.3606
  477MOL0     C62869   8.415  10.696   5.029  0.4722  0.6012  0.3478
  477MOL0     C62870   8.349  10.558   4.989 -0.4340 -0.9379 -0.4174
  477MOL0     C62871   8.204  10.572   4.957  0.1458 -0.8182  0.1464
  477MOL0     C62872   8.159  10.443   4.897  1.3640 -0.4947 -0.2522
  477MOL0     C62873   8.164  10.321   4.987  0.2102 -0.2463  0.3267
  477MOL0     C62874   8.054  10.216   4.951 -0.5792 -0.4033  0.0925
  477MOL0     C62875   7.915  10.236   5.003  0.5815  0.2859  0.1586
  477MOL0    Cl62876   7.816  10.102   4.933  0.2070  0.0258 -0.1025
  477MOL0     C62877   8.839  10.679   5.131  0.0019  0.0079 -0.8581
  477MOL0     C62878   8.969  10.668   5.154 -1.0656  0.1739  0.2625
  477MOL0     O62879   9.311  10.687   4.898 -0.1435  0.4042 -0.3004
  477MOL0     C62880   9.463  10.643   5.225  0.3229 -0.4862 -0.2708
  477MOL0     C62881   9.590  10.622   5.277 -1.0444  0.6811 -0.9521
  477MOL0     N62882   9.861  10.159   5.541  0.1012 -0.1686  0.9615
  477MOL0     N62883   9.812  10.086   5.630  0.1469  0.0461 -0.0299
  477MOL0     C62884   8.854  10.177   6.571 -0.3330  0.8851  0.4771
  477MOL0     C62885   8.740  10.221   6.643 -0.4187 -0.0012 -0.3569
  477MOL0     C62886   8.295  10.213   6.764 -1.4849  0.1189  0.3802
  477MOL0     C62887   8.190  10.282   6.695  0.4192  0.9869 -0.0131
  477MOL0     C62888   8.093  10.342   6.769  0.1502 -1.4150 -1.0791
  477MOL0     C62889   8.087  10.343   6.909 -0.0525 -0.1007  0.1928
  477MOL0     O62890   7.988  10.413   6.980 -0.5910 -0.2233 -0.1042
  477MOL0     C62891   7.897  10.319   7.034  0.6220 -0.1129  0.2006
  477MOL0     C62892   7.818  10.230   6.934 -0.0409 -0.7635 -0.8313
  477MOL0     C62893   7.697  10.154   7.005 -0.0548 -0.0927  0.3208
  477MOL0     C62894   7.598  10.242   7.085  0.0027  0.4063  0.1867
  477MOL0     C62895   7.480  10.173   7.136  0.1819  0.1564  0.4653
  477MOL0     C62896   7.375  10.111   7.166  0.3954 -0.0027 -0.5037
  477MOL0     C62897   8.180  10.264   6.973 -0.3367 -0.2342 -0.1129
  477MOL0     C62898   8.286  10.199   6.904  0.7083  1.0449 -0.4514
  477MOL0     H62899   8.589   9.921   6.663  0.0442 -1.3072  0.4605
  477MOL0     H62900   8.750   9.862   6.505  0.2590 -1.5483  0.3406
  477MOL0     H62901   9.114  10.112   6.436 -1.0333 -0.3026  2.2217
  477MOL0     H62902   8.998  10.195   6.340 -0.5586  0.0815  1.5448
  477MOL0     H62903   8.981  10.037   6.167 -0.1172 -0.8652 -1.1355
  477MOL0     H62904   9.109   9.933   6.248 -0.0045  0.7079  0.4331
  477MOL0     H62905   9.287  10.052   6.202 -1.9546 -1.2834  2.7360
  477MOL0     H62906   9.197  10.203   6.178  0.9249  0.2945 -0.5887
  477MOL0     H62907   9.185   9.960   5.997  0.4624  0.7301 -2.1959
  477MOL0     H62908   9.111  10.135   5.973  1.7365  3.7360  1.5023
  477MOL0     H62909   9.394  10.177   6.020  0.9853  0.4150 -1.5564
  477MOL0     H62910   9.307  10.192   5.875  0.8765  0.0368  0.2244
  477MOL0     H62911   9.346   9.971   5.780 -2.2848 -0.9313  1.7142
  477MOL0     H62912   9.432   9.931   5.934 -5.4585 -1.8000  0.9602
  477MOL0     H62913   9.519  10.164   5.800 -3.0874 -0.0878 -0.3889
  477MOL0     H62914   9.623  10.040   5.885 -1.1427 -2.4251  0.6124
  477MOL0     H62915   9.501   9.964   5.629  0.5316 -0.9262 -1.1112
  477MOL0     H62916   9.628   9.890   5.727  2.2406 -0.0724 -1.8317
  477MOL0     H62917   9.531  10.197   5.509 -0.5424 -0.0968 -1.4642
  477MOL0     H62918   9.767  10.410   5.401 -0.8225  0.0563 -0.7414
  477MOL0     H62919   9.667  10.305   5.310 -1.0315 -0.6794  2.1075
  477MOL0     H62920   9.874  10.175   5.226  0.2677 -0.1895 -1.4526
  477MOL0     H62921   9.975  10.281   5.317 -0.0300  0.6102 -0.4857
  477MOL0     H62922   9.985  10.329   5.094  0.0563 -1.9051  1.8898
  477MOL0     H62923   9.819  10.369   5.072 -1.8278  3.1517  1.4140
  477MOL0     H62924   9.956  10.580   5.101 -0.1094  0.4009 -0.3523
  477MOL0     H62925  10.033  10.516   5.236  1.6710 -0.3832 -2.8992
  477MOL0     H62926   9.771  10.612   4.982  1.7754  4.1650  2.5999
  477MOL0     H62927   9.536  10.624   4.894 -2.2713 -0.2359 -0.0509
  477MOL0     H62928   9.079  10.614   4.848  0.4924 -0.0926  1.2138
  477MOL0     H62929   8.836  10.633   4.801 -1.3606 -1.6606  0.7874
  477MOL0     H62930   8.580  10.765   5.135  2.4172 -0.3548  0.4032
  477MOL0     H62931   8.558  10.581   5.136  0.0267 -1.4887 -2.4077
  477MOL0     H62932   8.431  10.750   4.935  2.3380 -0.1324  0.2042
  477MOL0     H62933   8.353  10.749   5.102 -2.3778  0.6103 -1.9108
  477MOL0     H62934   8.356  10.514   5.089  3.3866  3.4163  1.6419
  477MOL0     H62935   8.415  10.522   4.909 -1.7813 -1.2362 -1.4265
  477MOL0     H62936   8.150  10.603   5.047  2.2726 -0.2165  1.2722
  477MOL0     H62937   8.185  10.651   4.884  2.5313 -2.3302 -2.2950
  477MOL0     H62938   8.236  10.412   4.825 -0.6891 -0.4225 -2.6394
  477MOL0     H62939   8.070  10.449   4.834  0.2210 -2.7034  1.0525
  477MOL0     H62940   8.156  10.342   5.094 -1.1516  0.8399  0.0351
  477MOL0     H62941   8.264  10.277   4.983  0.5026  0.2292  1.8283
  477MOL0     H62942   8.045  10.203   4.843 -2.6535 -3.2961  0.4969
  477MOL0     H62943   8.098  10.126   4.995  3.7143  0.3429 -2.1364
  477MOL0     H62944   7.869  10.329   4.967 -3.2100 -1.1892  0.7390
  477MOL0     H62945   7.921  10.234   5.113  3.6984  1.6573  0.1309
  477MOL0     H62946   8.778  10.699   5.218  3.6084 -1.2075  2.2221
  477MOL0     H62947   9.007  10.669   5.255  0.0662 -1.5144 -0.1043
  477MOL0     H62948   9.375  10.652   5.287 -0.4977  0.1216 -1.4905
  477MOL0     H62949   9.598  10.624   5.385  1.3398 -1.6420 -0.9669
  477MOL0     H62950   8.920  10.260   6.547  2.5636 -0.0885  4.1464
  477MOL0     H62951   8.722  10.325   6.667 -0.7039  0.6681 -3.1370
  477MOL0     H62952   8.192  10.281   6.587 -0.3935 -5.4624 -0.4111
  477MOL0     H62953   8.024  10.396   6.706 -1.6809 -2.4350 -0.0193
  477MOL0     H62954   7.824  10.377   7.093  2.8039  2.6442  0.3997
  477MOL0     H62955   7.936  10.255   7.113  0.2856 -1.4574 -0.6786
  477MOL0     H62956   7.785  10.292   6.850  2.4837  3.4329  0.9553
  477MOL0     H62957   7.874  10.152   6.882  1.4995  0.9183 -1.8350
  477MOL0     H62958   7.723  10.086   7.087 -3.3155 -2.0814 -0.1330
  477MOL0     H62959   7.645  10.101   6.924 -1.4661 -0.0406  1.1798
  477MOL0     H62960   7.634  10.306   7.167 -2.1321  0.4863  1.1183
  477MOL0     H62961   7.560  10.307   7.007 -2.8016 -1.7355 -0.4077
  477MOL0     H62962   7.281  10.066   7.189  1.7187 -1.9421  1.6828
  477MOL0     H62963   8.180  10.270   7.082 -0.3484 -1.1546 -0.0538
  477MOL0     H62964   8.349  10.132   6.961  0.1034 -1.0011 -2.0650
  478MOL0     O62965   6.631   3.772  10.732 -0.2303  0.9356 -0.2364
  478MOL0     C62966   6.711   3.676  10.726  0.2828  0.6084 -0.0160
  478MOL0     O62967   6.694   3.571  10.640 -0.1247  0.4448  0.4624
  478MOL0     C62968   6.585   3.585  10.565  0.4597 -0.2745  0.2115
  478MOL0     C62969   6.597   3.638  10.435  0.1745  0.1889  0.5108
  478MOL0     C62970   6.486   3.661  10.360  1.3917 -0.7047 -0.1447
  478MOL0     C62971   6.355   3.624  10.413  0.0803  0.4965 -0.1604
  478MOL0     O62972   6.237   3.646  10.340 -0.0527 -0.1083 -0.5368
  478MOL0     C62973   6.130   3.709  10.418 -0.0088  0.3675 -0.5911
  478MOL0     C62974   6.177   3.842  10.485 -0.3845  0.5644  0.5324
  478MOL0     C62975   6.075   3.932  10.559  0.5195  0.8226 -1.0425
  478MOL0     C62976   6.010   3.863  10.682  0.2259 -0.2434 -0.0196
  478MOL0     C62977   6.092   3.804  10.797  0.7363  0.3832  0.9474
  478MOL0     C62978   6.198   3.899  10.846 -0.0920  0.1411 -0.6572
  478MOL0     C62979   6.283   3.840  10.964 -0.3816  0.6874  0.4309
  478MOL0     C62980   6.397   3.920  11.020 -0.3797 -0.7053  0.5404
  478MOL0     N62981   6.460   3.843  11.128 -0.2497  1.1441 -0.5804
  478MOL0     C62982   6.402   3.758  11.223  0.4118 -0.5234  0.2375
  478MOL0     C62983   6.513   3.709  11.297  0.2035 -0.2983 -0.4844
  478MOL0     C62984   6.491   3.630  11.421  0.5553  0.0207 -0.5664
  478MOL0     C62985   6.626   3.602  11.496 -0.6516 -0.0335 -0.0284
  478MOL0     C62986   6.591   3.553  11.630 -0.4469 -0.2213  0.2007
  478MOL0     C62987   6.719   3.491  11.700  0.1361  1.3959 -1.0606
  478MOL0     O62988   6.742   3.355  11.656 -0.1501 -0.6310  0.3898
  478MOL0     C62989   6.858   3.287  11.689 -0.0505 -0.9358  0.3658
  478MOL0     C62990   6.876   3.149  11.647 -0.5118 -0.1807 -0.6638
  478MOL0     C62991   6.989   3.075  11.681 -1.3897  0.1693  0.9605
  478MOL0     C62992   7.101   3.142  11.738 -0.3999 -0.7397 -0.2876
  478MOL0     C62993   7.225   3.065  11.775  0.5886  0.5127 -0.8117
  478MOL0     O62994   7.331   3.137  11.825  0.0454  0.0560  0.6739
  478MOL0     C62995   7.451   3.083  11.861  0.5234  0.0618  0.6472
  478MOL0     C62996   7.552   3.175  11.842  0.3635 -1.2899 -0.2564
  478MOL0     C62997   7.681   3.139  11.888  0.0108  0.0014  0.4714
  478MOL0     C62998   7.704   3.019  11.956  0.0544  0.1130 -0.2009
  478MOL0     O62999   7.828   2.996  12.012 -0.5280 -0.1872  0.3259
  478MOL0     C63000   7.860   3.093  12.115 -0.4149 -1.1782  0.3194
  478MOL0     C63001   7.787   3.059  12.241 -0.1226 -0.0703 -0.0990
  478MOL0     C63002   7.825   2.921  12.295  0.4219 -0.2331 -0.0025
  478MOL0     C63003   7.975   2.874  12.291  0.2723  0.5451  1.1526
  478MOL0     C63004   8.012   2.767  12.392  0.3032  0.7632  0.4892
  478MOL0     C63005   8.155   2.711  12.387  0.1414 -0.0378 -0.4332
  478MOL0     C63006   8.268   2.797  12.435  0.1036 -0.4725  0.6593
  478MOL0     C63007   8.397   2.734  12.394 -1.0890 -0.3135 -1.2817
  478MOL0    Cl63008   8.515   2.869  12.387  0.0749  0.6506  0.5527
  478MOL0     C63009   7.604   2.920  11.939  0.1041  0.1194  0.2567
  478MOL0     C63010   7.473   2.951  11.899 -0.3497  0.4815 -0.6773
  478MOL0     O63011   7.223   2.944  11.760 -0.1700 -0.5858  0.0074
  478MOL0     C63012   7.096   3.285  11.766  0.3469  0.0871  0.4736
  478MOL0     C63013   6.974   3.356  11.746 -0.0398  0.9405  0.2286
  478MOL0     N63014   6.628   3.760  11.244  0.2339 -0.8488 -0.2164
  478MOL0     N63015   6.599   3.833  11.143  0.3180 -0.6710  0.5116
  478MOL0     C63016   6.347   3.569  10.543 -0.8829  0.2990 -0.1719
  478MOL0     C63017   6.462   3.556  10.623  1.0952  0.6501  0.2439
  478MOL0     C63018   6.816   3.672  10.826 -0.7178 -0.5604 -0.1690
  478MOL0     C63019   6.926   3.579  10.823 -0.0486 -0.4802  0.6797
  478MOL0     C63020   7.009   3.563  10.929  0.2034 -0.2155  0.1756
  478MOL0     C63021   7.010   3.636  11.041  0.2404  0.6687 -0.0670
  478MOL0     O63022   7.109   3.600  11.124  0.0295 -0.1805  0.3772
  478MOL0     C63023   7.100   3.649  11.261  0.3480 -0.0152 -0.3294
  478MOL0     C63024   7.146   3.546  11.369  0.4774  0.8582 -0.3659
  478MOL0     C63025   7.039   3.429  11.387 -0.0101  0.5296  0.6250
  478MOL0     C63026   7.115   3.296  11.375 -0.3974 -0.4472  0.2552
  478MOL0     C63027   7.233   3.294  11.456  0.4566 -0.4377  0.5919
  478MOL0     C63028   7.326   3.315  11.534  0.5466 -0.2441  0.0141
  478MOL0     C63029   6.920   3.746  11.045  0.4431 -0.7227 -0.1964
  478MOL0     C63030   6.816   3.757  10.944  0.0117 -0.0106 -0.4984
  478MOL0     H63031   6.700   3.645  10.400  0.9639 -1.9826  2.1705
  478MOL0     H63032   6.496   3.695  10.257  4.0204 -1.9226 -0.3669
  478MOL0     H63033   6.084   3.645  10.494 -0.0466  3.0128  1.7812
  478MOL0     H63034   6.052   3.736  10.346 -2.1127  0.6929  1.6398
  478MOL0     H63035   6.229   3.891  10.402  0.9396  0.0869  1.0555
  478MOL0     H63036   6.257   3.814  10.553  0.2247 -1.0988 -0.7850
  478MOL0     H63037   5.993   3.958  10.491 -2.2631 -0.1464  1.7404
  478MOL0     H63038   6.121   4.021  10.604 -1.9950  1.2123  0.9705
  478MOL0     H63039   5.945   3.943  10.719  1.1565  0.8795 -0.7189
  478MOL0     H63040   5.945   3.786  10.640  2.3783 -2.2057  0.0179
  478MOL0     H63041   6.133   3.712  10.756  3.4546  2.5560 -1.6778
  478MOL0     H63042   6.025   3.778  10.880  0.6282 -1.7381  0.2368
  478MOL0     H63043   6.164   3.993  10.890  1.7672  1.2607 -1.4836
  478MOL0     H63044   6.265   3.935  10.767 -1.4146 -1.8218 -2.8154
  478MOL0     H63045   6.226   3.806  11.051 -1.3306 -3.2512 -1.4908
  478MOL0     H63046   6.337   3.751  10.929  0.1586  0.7133  1.1766
  478MOL0     H63047   6.361   4.017  11.058  0.1043  0.2589 -1.3503
  478MOL0     H63048   6.468   3.933  10.938  0.3048 -1.6259  0.9626
  478MOL0     H63049   6.296   3.738  11.230 -0.5079  1.4209 -4.3596
  478MOL0     H63050   6.429   3.541  11.406 -1.2347  0.7809  1.7634
  478MOL0     H63051   6.421   3.683  11.487 -1.4604 -1.6592 -1.2635
  478MOL0     H63052   6.681   3.696  11.506 -2.8640  1.4820 -1.1695
  478MOL0     H63053   6.683   3.527  11.439  1.0489  0.6915  0.6684
  478MOL0     H63054   6.556   3.647  11.673 -0.9631 -0.8351  1.1696
  478MOL0     H63055   6.507   3.484  11.619 -1.3628  0.8597  0.1721
  478MOL0     H63056   6.705   3.512  11.806 -0.6341  1.1327 -1.1033
  478MOL0     H63057   6.807   3.545  11.664  0.6139  2.2480  1.2423
  478MOL0     H63058   6.789   3.091  11.617  0.4206 -2.1400  0.3008
  478MOL0     H63059   6.999   2.967  11.672 -1.6284  0.1312  1.1422
  478MOL0     H63060   7.542   3.278  11.809  1.8534 -0.5273  1.4988
  478MOL0     H63061   7.761   3.209  11.865 -1.6466  1.2518 -1.7638
  478MOL0     H63062   7.850   3.196  12.080  1.9818  0.2795  3.3966
  478MOL0     H63063   7.968   3.071  12.117 -0.2889 -1.0327 -2.0479
  478MOL0     H63064   7.679   3.049  12.230 -0.1165 -2.7434  1.4898
  478MOL0     H63065   7.815   3.129  12.321 -0.1783 -0.0644 -0.0852
  478MOL0     H63066   7.777   2.833  12.252  3.3368 -1.5098 -0.9074
  478MOL0     H63067   7.796   2.926  12.401  0.2773  1.9881 -0.1053
  478MOL0     H63068   8.024   2.867  12.194  2.1401  1.7728  1.9399
  478MOL0     H63069   8.032   2.957  12.335  2.8275 -2.3724  3.8169
  478MOL0     H63070   7.947   2.680  12.385 -2.7902  2.9058  0.6926
  478MOL0     H63071   7.986   2.798  12.493  0.3092 -3.2447  1.8844
  478MOL0     H63072   8.163   2.677  12.283 -1.0933  1.9204 -1.2332
  478MOL0     H63073   8.139   2.622  12.450 -1.0549  1.3157  1.2694
  478MOL0     H63074   8.264   2.898  12.391 -2.2460  0.0131  1.8392
  478MOL0     H63075   8.258   2.803  12.544  6.0741 -1.5852  1.6188
  478MOL0     H63076   8.385   2.690  12.295 -1.3056 -1.5898 -0.7013
  478MOL0     H63077   8.431   2.656  12.464 -1.2197 -0.0293 -0.8933
  478MOL0     H63078   7.632   2.820  11.971 -1.1173 -0.9630 -1.8378
  478MOL0     H63079   7.396   2.874  11.906  0.2594  0.0257  3.2398
  478MOL0     H63080   7.182   3.342  11.798 -0.0708  1.1174 -0.2031
  478MOL0     H63081   6.977   3.464  11.744 -0.2830  0.9435 -0.1505
  478MOL0     H63082   6.251   3.532  10.578 -0.5146 -2.3838 -1.7401
  478MOL0     H63083   6.463   3.508  10.720  1.1680  1.1028  0.4692
  478MOL0     H63084   6.935   3.518  10.733  0.7336  0.2807  0.2287
  478MOL0     H63085   7.089   3.490  10.920  1.9198  0.6907  5.1425
  478MOL0     H63086   6.994   3.671  11.279  0.2596 -0.6102 -0.1059
  478MOL0     H63087   7.156   3.743  11.270  3.4965 -1.9164  1.9568
  478MOL0     H63088   7.240   3.502  11.333  0.9059 -2.2033  3.8079
  478MOL0     H63089   7.158   3.592  11.467 -1.7143  0.5784  0.0984
  478MOL0     H63090   6.964   3.441  11.309  0.0299 -0.8647  0.3590
  478MOL0     H63091   6.985   3.433  11.482 -0.2156 -1.7240  0.6391
  478MOL0     H63092   7.055   3.212  11.412  2.1661 -1.2169  3.0820
  478MOL0     H63093   7.142   3.274  11.272 -0.8001  3.3636 -0.8120
  478MOL0     H63094   7.413   3.330  11.595  0.5016  4.7279 -0.7405
  478MOL0     H63095   6.924   3.822  11.123  0.0558 -1.4613  0.5534
  478MOL0     H63096   6.753   3.843  10.964  2.8236  2.3205 -1.0050
  479MOL0     O63097   8.164   6.285   9.658  0.3564 -0.6463  0.1412
  479MOL0     C63098   8.270   6.252   9.613 -0.4617 -0.3024  0.3575
  479MOL0     O63099   8.308   6.124   9.603 -0.4808  0.9105  0.4595
  479MOL0     C63100   8.232   6.010   9.629  0.1641 -0.8909  0.1924
  479MOL0     C63101   8.103   6.010   9.687  0.8853  0.4064 -0.5522
  479MOL0     C63102   8.031   5.891   9.687 -0.0581  0.1905  0.6905
  479MOL0     C63103   8.078   5.767   9.630 -0.4406  0.1796 -0.2331
  479MOL0     O63104   7.996   5.657   9.628  0.6958  0.7677 -0.0368
  479MOL0     C63105   8.002   5.568   9.517  0.1073  0.8660  0.3137
  479MOL0     C63106   7.883   5.463   9.516  0.9112  0.2475  0.1649
  479MOL0     C63107   7.880   5.375   9.654 -0.2930 -0.1275 -0.0905
  479MOL0     C63108   7.738   5.324   9.676 -0.0889 -0.6823  0.3238
  479MOL0     C63109   7.728   5.260   9.814 -0.1237  0.0199 -0.1042
  479MOL0     C63110   7.617   5.155   9.834  0.8133  0.0930  0.6552
  479MOL0     C63111   7.472   5.224   9.835  0.9375  0.4104 -0.1244
  479MOL0     C63112   7.364   5.117   9.864  1.0201 -0.7706 -0.6480
  479MOL0     N63113   7.380   5.052   9.994  0.5523 -0.1473 -0.6922
  479MOL0     C63114   7.428   4.918  10.025  0.8691 -0.2003  0.1517
  479MOL0     C63115   7.410   4.913  10.158 -0.4113  1.0199  0.0200
  479MOL0     C63116   7.429   4.795  10.260 -0.2627 -0.7865  0.5295
  479MOL0     C63117   7.525   4.682  10.224  0.3033 -0.1364 -1.0546
  479MOL0     C63118   7.501   4.552  10.300 -1.1089  0.5374  0.0924
  479MOL0     C63119   7.503   4.568  10.452  1.8557 -0.0123 -0.1567
  479MOL0     O63120   7.612   4.653  10.501 -0.2080 -0.4461 -0.3995
  479MOL0     C63121   7.619   4.687  10.634  0.6614 -0.1510  0.3446
  479MOL0     C63122   7.513   4.733  10.722  0.2437 -0.0629  1.4938
  479MOL0     C63123   7.538   4.744  10.859  0.0659 -0.3991  1.1328
  479MOL0     C63124   7.657   4.719  10.916 -0.5841 -0.0373 -0.4019
  479MOL0     C63125   7.679   4.710  11.064 -1.0139 -0.4533  0.2541
  479MOL0     O63126   7.585   4.757  11.145  0.7166 -0.3471 -0.3148
  479MOL0     C63127   7.601   4.760  11.286  0.4673 -0.3388  0.0190
  479MOL0     C63128   7.491   4.732  11.365  0.1588  0.2501  0.0799
  479MOL0     C63129   7.506   4.728  11.505 -0.4502 -0.2698  0.2133
  479MOL0     C63130   7.628   4.770  11.558 -0.0695  0.6209 -0.9628
  479MOL0     O63131   7.644   4.760  11.699  0.4240 -0.4601  0.5400
  479MOL0     C63132   7.615   4.875  11.786 -0.7280  0.0127  0.0125
  479MOL0     C63133   7.736   4.914  11.867  0.3114 -0.0979 -0.4682
  479MOL0     C63134   7.774   4.791  11.938  0.1790 -0.3015  0.1503
  479MOL0     C63135   7.875   4.822  12.045 -0.8530  0.0528 -0.6030
  479MOL0     C63136   7.940   4.700  12.107 -0.0930  0.1270  1.0249
  479MOL0     C63137   7.856   4.615  12.194 -0.4370  0.3672 -1.0732
  479MOL0     C63138   7.924   4.510  12.277 -0.3278 -0.5133  0.0289
  479MOL0     C63139   7.824   4.435  12.353 -1.4310  0.1576 -1.2205
  479MOL0    Cl63140   7.918   4.331  12.475  0.0784  0.6539 -0.2587
  479MOL0     C63141   7.729   4.827  11.479 -0.1385  0.0618 -0.9057
  479MOL0     C63142   7.710   4.825  11.347  0.6190 -0.0209 -0.9231
  479MOL0     O63143   7.787   4.658  11.099  0.4020  0.6018  0.0381
  479MOL0     C63144   7.762   4.684  10.830 -0.5661 -0.5016 -0.5219
  479MOL0     C63145   7.744   4.673  10.693 -0.1827  0.2844 -0.4681
  479MOL0     N63146   7.364   5.036  10.203  0.2435  0.4882 -0.9562
  479MOL0     N63147   7.341   5.118  10.107 -0.0174 -0.0143  0.0962
  479MOL0     C63148   8.200   5.771   9.564  0.7904 -0.3382 -0.1281
  479MOL0     C63149   8.275   5.886   9.572  1.0830 -0.6628  0.3301
  479MOL0     C63150   8.370   6.357   9.587  0.5156  0.8793  0.7478
  479MOL0     C63151   8.331   6.485   9.557 -0.0793  1.1284  0.2051
  479MOL0     C63152   8.427   6.584   9.537  0.3376 -0.4858 -0.7724
  479MOL0     C63153   8.558   6.551   9.533 -0.6455  0.6464  0.1192
  479MOL0     O63154   8.656   6.642   9.495 -0.3699 -0.7559  1.1208
  479MOL0     C63155   8.615   6.767   9.433  0.1226  0.7029  0.0447
  479MOL0     C63156   8.739   6.832   9.371 -0.3633 -0.3233  0.6410
  479MOL0     C63157   8.823   6.764   9.255 -0.0653 -0.2964 -0.8881
  479MOL0     C63158   8.901   6.880   9.185 -0.6026 -0.6966  0.7055
  479MOL0     C63159   8.825   6.904   9.059  0.7072 -0.0804  0.0777
  479MOL0     C63160   8.779   6.914   8.946 -0.2096 -0.2077 -1.0940
  479MOL0     C63161   8.597   6.421   9.554 -0.0551 -0.2992 -0.8843
  479MOL0     C63162   8.503   6.320   9.572 -0.1522 -0.4057 -0.4351
  479MOL0     H63163   8.053   6.092   9.736 -0.2801 -0.0090 -1.0051
  479MOL0     H63164   7.931   5.883   9.726 -0.0800 -0.2525  0.5534
  479MOL0     H63165   8.095   5.509   9.521 -1.3833 -1.5444  2.2099
  479MOL0     H63166   8.006   5.622   9.422 -0.1303 -0.1962 -0.3233
  479MOL0     H63167   7.909   5.395   9.434  1.5944  0.6558  0.0415
  479MOL0     H63168   7.789   5.514   9.495  1.0987  0.1422 -0.9924
  479MOL0     H63169   7.918   5.437   9.736 -2.0091  2.8232 -1.3606
  479MOL0     H63170   7.954   5.295   9.642 -1.2053 -1.4689  2.3954
  479MOL0     H63171   7.667   5.405   9.657  2.2610  1.5806  0.6378
  479MOL0     H63172   7.711   5.255   9.595  0.0568  0.7591 -0.9902
  479MOL0     H63173   7.714   5.346   9.880 -2.3395 -2.1638  2.4963
  479MOL0     H63174   7.828   5.227   9.843  1.3737  4.2996  0.3242
  479MOL0     H63175   7.624   5.089   9.921 -3.2298  1.3982  2.2250
  479MOL0     H63176   7.617   5.092   9.745  4.5718 -1.2083  1.3986
  479MOL0     H63177   7.477   5.295   9.917  1.6489  1.7821 -1.3207
  479MOL0     H63178   7.437   5.270   9.742 -3.3918 -1.2572  0.4528
  479MOL0     H63179   7.370   5.034   9.792 -0.7314  0.5803 -2.4738
  479MOL0     H63180   7.267   5.167   9.853  0.8005 -0.8888  0.6559
  479MOL0     H63181   7.452   4.830   9.967  3.1660 -1.1647  2.3837
  479MOL0     H63182   7.331   4.748  10.275 -0.1399 -1.2122  0.0201
  479MOL0     H63183   7.469   4.846  10.348  1.0980 -2.1572  0.7387
  479MOL0     H63184   7.622   4.724  10.252 -1.6739  2.9591  1.8777
  479MOL0     H63185   7.511   4.671  10.116 -1.4760 -6.2430 -0.5947
  479MOL0     H63186   7.408   4.498  10.279 -0.0381 -2.3108  2.1055
  479MOL0     H63187   7.581   4.485  10.267 -0.6467  0.3649  1.5182
  479MOL0     H63188   7.500   4.478  10.513 -0.6493  1.7140  2.5584
  479MOL0     H63189   7.407   4.615  10.477  2.0053  0.3372 -0.2406
  479MOL0     H63190   7.416   4.744  10.675  0.4065 -2.1745  0.5895
  479MOL0     H63191   7.458   4.763  10.930  1.1693 -1.8688  2.8552
  479MOL0     H63192   7.392   4.700  11.332  0.0229  1.9579 -1.2871
  479MOL0     H63193   7.422   4.684  11.558 -0.4229 -3.5134 -2.1311
  479MOL0     H63194   7.524   4.853  11.841 -0.7009 -1.1977 -0.4003
  479MOL0     H63195   7.599   4.970  11.734  1.2775  1.2684  1.5510
  479MOL0     H63196   7.710   5.003  11.924  0.6994 -1.0980  1.3377
  479MOL0     H63197   7.818   4.943  11.800  0.4763 -0.1372 -0.2861
  479MOL0     H63198   7.816   4.714  11.874 -0.4065  2.2878 -3.7012
  479MOL0     H63199   7.692   4.746  11.994  0.9837  0.2207  1.8182
  479MOL0     H63200   7.953   4.888  12.004 -0.5106  0.3107  0.4496
  479MOL0     H63201   7.815   4.871  12.122 -1.3730  0.4518 -1.2496
  479MOL0     H63202   8.034   4.729  12.156 -0.8479  1.2490  1.8741
  479MOL0     H63203   7.970   4.636  12.023 -1.3496  0.8177  0.0128
  479MOL0     H63204   7.778   4.567  12.134  2.4603 -0.5172 -4.4986
  479MOL0     H63205   7.818   4.680  12.273  2.5105 -1.3812  2.0888
  479MOL0     H63206   7.987   4.438  12.225  1.1609 -0.9948  2.3659
  479MOL0     H63207   7.977   4.557  12.359  0.1882 -2.8201  1.0897
  479MOL0     H63208   7.780   4.365  12.281 -0.9171 -2.5851  0.9106
  479MOL0     H63209   7.749   4.495  12.405  0.7926  0.9628  1.2994
  479MOL0     H63210   7.826   4.866  11.510  0.5727 -1.6132 -0.9018
  479MOL0     H63211   7.801   4.862  11.302  0.4241  1.6768 -0.0005
  479MOL0     H63212   7.858   4.647  10.865 -2.1245 -1.3854  3.3701
  479MOL0     H63213   7.825   4.639  10.630 -1.9727  1.8354 -3.8802
  479MOL0     H63214   8.235   5.694   9.497 -3.8326  0.2051 -3.6385
  479MOL0     H63215   8.368   5.903   9.517 -0.4568  0.2724 -2.1801
  479MOL0     H63216   8.227   6.515   9.559 -0.3914  0.3539 -1.7511
  479MOL0     H63217   8.382   6.680   9.516 -1.2486 -0.9700  0.2321
  479MOL0     H63218   8.559   6.825   9.507 -1.6234  1.0644 -1.5021
  479MOL0     H63219   8.548   6.741   9.352  1.1355  0.3245 -0.6959
  479MOL0     H63220   8.701   6.918   9.315 -0.4118 -1.7417 -1.6292
  479MOL0     H63221   8.805   6.876   9.446  1.4909 -0.4201 -0.8540
  479MOL0     H63222   8.756   6.697   9.200 -3.1421  1.3412  0.5786
  479MOL0     H63223   8.890   6.693   9.303 -0.6408 -1.6339 -2.0099
  479MOL0     H63224   8.893   6.976   9.237 -1.3782  0.0999 -0.8261
  479MOL0     H63225   9.001   6.841   9.166  0.1509 -0.9677  4.3868
  479MOL0     H63226   8.763   6.927   8.841 -0.2052 -0.0245 -1.0728
  479MOL0     H63227   8.702   6.393   9.556  0.5322  1.6968 -1.5477
  479MOL0     H63228   8.534   6.218   9.588  0.3315 -0.0532  0.9675
  480MOL0     O63229   5.073  10.456   5.919  0.5147  0.2385  0.3486
  480MOL0     C63230   5.010  10.494   5.824 -0.4153 -0.1300 -0.1677
  480MOL0     O63231   5.063  10.527   5.697  0.7638  0.4828  0.9706
  480MOL0     C63232   5.194  10.513   5.671  1.3241 -0.2344 -0.3235
  480MOL0     C63233   5.275  10.408   5.706 -0.0995  0.2177  0.1776
  480MOL0     C63234   5.411  10.391   5.676 -0.7305 -0.9278 -0.0503
  480MOL0     C63235   5.470  10.495   5.600 -0.6402  0.0525  0.0941
  480MOL0     O63236   5.604  10.465   5.569 -0.2012 -0.1654  0.0239
  480MOL0     C63237   5.669  10.517   5.449  0.4845  0.3977 -0.3240
  480MOL0     C63238   5.715  10.410   5.356 -0.1231 -0.5869 -0.4708
  480MOL0     C63239   5.818  10.456   5.252  0.0871 -0.0491 -0.5526
  480MOL0     C63240   5.771  10.570   5.159 -0.0796  0.0405 -0.0202
  480MOL0     C63241   5.620  10.566   5.105  0.6551 -1.2263  0.1311
  480MOL0     C63242   5.599  10.675   5.003  0.2689  0.8521  0.3120
  480MOL0     C63243   5.603  10.818   5.052 -0.7428  0.4135  0.3866
  480MOL0     C63244   5.522  10.903   4.945 -0.6270 -0.3385  1.5347
  480MOL0     N63245   5.476  11.033   4.998 -0.2840  0.3743 -0.1668
  480MOL0     C63246   5.565  11.131   5.043  0.6728  0.9573 -0.1096
  480MOL0     C63247   5.498  11.214   5.113  0.0894 -0.2712 -0.0434
  480MOL0     C63248   5.545  11.352   5.162 -0.3520 -0.3180 -0.1280
  480MOL0     C63249   5.684  11.373   5.173 -0.6382  0.2178  0.7862
  480MOL0     C63250   5.729  11.505   5.247  0.8933  0.7214  0.0382
  480MOL0     C63251   5.693  11.625   5.156 -0.7988  0.2119 -0.4181
  480MOL0     O63252   5.795  11.724   5.174  0.1026 -0.0119  0.3771
  480MOL0     C63253   5.793  11.834   5.083  1.2075  0.1237 -0.1691
  480MOL0     C63254   5.686  11.863   4.999  0.9545  0.8136 -0.7373
  480MOL0     C63255   5.698  11.969   4.912  0.9862  0.4636  0.1824
  480MOL0     C63256   5.818  12.044   4.902  1.0416 -0.6415 -0.2550
  480MOL0     C63257   5.816  12.169   4.831  0.4332 -0.2131 -0.2421
  480MOL0     O63258   5.909  12.257   4.867 -0.1883  0.4087 -0.4794
  480MOL0     C63259   5.878  12.392   4.850  0.4259  0.3693  0.2686
  480MOL0     C63260   5.979  12.465   4.778  0.0323  0.4307 -0.4252
  480MOL0     C63261   5.968  12.602   4.759 -0.0176 -0.1973 -1.6596
  480MOL0     C63262   5.865  12.675   4.819 -0.3006 -0.3212  0.0760
  480MOL0     O63263   5.847  12.816   4.819 -0.1240 -0.4663  0.2418
  480MOL0     C63264   5.932  12.892   4.737  0.6310 -0.2012 -0.2270
  480MOL0     C63265   5.927  13.033   4.790 -0.1676  0.5510  0.4071
  480MOL0     C63266   6.044  13.122   4.743 -0.1581  0.0467 -0.7818
  480MOL0     C63267   6.025  13.260   4.813  0.2159 -0.3444 -0.5481
  480MOL0     C63268   6.134  13.360   4.769  0.2934  0.4531  0.5689
  480MOL0     C63269   6.210  13.406   4.897 -0.2221  0.0528 -1.0088
  480MOL0     C63270   6.280  13.540   4.857  0.1022  0.3078  0.1779
  480MOL0     C63271   6.359  13.572   4.979  0.8486  0.6746  0.3827
  480MOL0    Cl63272   6.442  13.727   4.973 -0.4835 -0.5381 -0.6380
  480MOL0     C63273   5.778  12.600   4.892 -0.5084 -0.1526  1.0102
  480MOL0     C63274   5.770  12.462   4.902 -0.6813 -0.0878 -0.8259
  480MOL0     O63275   5.722  12.180   4.748 -0.7645 -0.0781 -0.0820
  480MOL0     C63276   5.917  12.013   4.997  0.8016  0.1577 -0.9021
  480MOL0     C63277   5.909  11.907   5.081  0.2223 -0.1095 -0.8966
  480MOL0     N63278   5.367  11.157   5.135  0.6510 -0.2926 -1.3997
  480MOL0     N63279   5.358  11.053   5.065 -0.1479 -0.1354  0.4137
  480MOL0     C63280   5.390  10.598   5.545 -0.2967  0.5329 -0.3413
  480MOL0     C63281   5.257  10.606   5.588  0.4654 -0.5368  1.1151
  480MOL0     C63282   4.868  10.495   5.841  0.9761 -0.3519  0.0693
  480MOL0     C63283   4.801  10.512   5.963 -0.8311 -0.8148 -0.5805
  480MOL0     C63284   4.657  10.505   5.967  0.1994 -0.1906 -0.4100
  480MOL0     C63285   4.578  10.493   5.843 -0.4607  0.2174 -0.3179
  480MOL0     O63286   4.443  10.498   5.838 -0.2007 -0.6722 -0.1689
  480MOL0     C63287   4.368  10.570   5.938 -0.8606 -1.1730 -1.2216
  480MOL0     C63288   4.221  10.584   5.906 -0.7123  0.9549  0.3043
  480MOL0     C63289   4.136  10.648   6.018 -0.2026  0.1568 -0.3664
  480MOL0     C63290   3.999  10.686   5.965  0.5013 -0.4544 -0.3643
  480MOL0     C63291   4.009  10.779   5.845  0.7599 -0.2224 -0.1336
  480MOL0     C63292   4.000  10.855   5.744 -0.6829  0.2190 -1.0961
  480MOL0     C63293   4.648  10.475   5.728 -0.6018 -0.2155 -0.3251
  480MOL0     C63294   4.787  10.473   5.724  0.1089  0.3409  0.3041
  480MOL0     H63295   5.230  10.321   5.752  1.0320 -1.2532 -1.3530
  480MOL0     H63296   5.472  10.306   5.704  2.0870  0.4684 -1.5324
  480MOL0     H63297   5.757  10.567   5.489  0.0609  0.2872  0.7842
  480MOL0     H63298   5.603  10.585   5.394  0.5043 -0.8690 -1.9828
  480MOL0     H63299   5.628  10.363   5.309 -1.1721 -1.5719  2.2473
  480MOL0     H63300   5.745  10.325   5.418 -2.1475 -0.7454  0.3817
  480MOL0     H63301   5.837  10.373   5.183 -0.6337 -2.6455  2.1910
  480MOL0     H63302   5.909  10.486   5.304  0.3053 -0.0400 -0.9308
  480MOL0     H63303   5.791  10.664   5.210  1.3822  0.1630 -0.7604
  480MOL0     H63304   5.840  10.574   5.074  2.6439 -0.1687  2.0879
  480MOL0     H63305   5.553  10.585   5.189  0.6580 -1.2410  0.1373
  480MOL0     H63306   5.590  10.467   5.068  1.6748 -1.1942 -0.7955
  480MOL0     H63307   5.499  10.657   4.964  1.2853 -2.5274 -1.0732
  480MOL0     H63308   5.669  10.659   4.921 -0.6756  0.1126 -0.3673
  480MOL0     H63309   5.561  10.840   5.151 -1.6380  3.1430 -0.5259
  480MOL0     H63310   5.706  10.852   5.049 -1.0303  1.3033  0.2818
  480MOL0     H63311   5.431  10.859   4.903  0.7522  0.0653 -2.1878
  480MOL0     H63312   5.580  10.915   4.853  0.0915 -0.1862  1.9986
  480MOL0     H63313   5.670  11.137   5.015  0.6279 -2.5046 -1.5578
  480MOL0     H63314   5.514  11.356   5.267 -2.1372  0.9065 -0.6699
  480MOL0     H63315   5.501  11.429   5.098  2.8513  1.4422 -0.4174
  480MOL0     H63316   5.735  11.363   5.076 -1.0520  2.9666  0.2009
  480MOL0     H63317   5.727  11.289   5.228  3.1968  0.2247 -1.8585
  480MOL0     H63318   5.690  11.512   5.349 -2.5382 -0.9295 -0.9736
  480MOL0     H63319   5.836  11.485   5.255  0.3891 -2.8780 -0.2816
  480MOL0     H63320   5.597  11.663   5.193 -0.5199  0.2631  0.2623
  480MOL0     H63321   5.676  11.590   5.054 -1.4656  0.0629 -0.2645
  480MOL0     H63322   5.603  11.794   5.009  3.0050 -1.7197 -0.1976
  480MOL0     H63323   5.617  11.976   4.841  0.9883  2.5719  0.3109
  480MOL0     H63324   6.057  12.400   4.739 -1.9672 -3.6252  1.6341
  480MOL0     H63325   6.019  12.670   4.692 -0.9062  2.9679  0.6274
  480MOL0     H63326   5.884  12.889   4.639  0.8094  3.7970 -0.6027
  480MOL0     H63327   6.032  12.850   4.717  0.4684 -1.9798  2.2685
  480MOL0     H63328   5.914  13.026   4.899 -2.5367  0.1433  0.1679
  480MOL0     H63329   5.832  13.075   4.756 -1.1154 -0.8494  1.2000
  480MOL0     H63330   6.051  13.136   4.635 -1.5375 -1.4251 -1.0921
  480MOL0     H63331   6.138  13.074   4.772 -1.0240 -0.5613  1.1748
  480MOL0     H63332   5.927  13.303   4.787  0.5808  0.2379 -0.9813
  480MOL0     H63333   6.035  13.236   4.919  3.1808 -0.4545 -0.7768
  480MOL0     H63334   6.073  13.444   4.734 -1.2883 -1.3974 -1.3734
  480MOL0     H63335   6.201  13.330   4.689 -1.4186 -0.8652 -0.4411
  480MOL0     H63336   6.282  13.325   4.913 -0.4865  0.0705  0.3538
  480MOL0     H63337   6.138  13.413   4.979  2.1607  0.4552  1.1284
  480MOL0     H63338   6.344  13.526   4.770 -1.1183  0.6296 -0.7995
  480MOL0     H63339   6.209  13.620   4.838 -2.8943 -0.6715  5.2700
  480MOL0     H63340   6.443  13.502   4.978  0.5144  0.2324  1.7185
  480MOL0     H63341   6.297  13.566   5.069 -1.4613  2.7230 -0.9353
  480MOL0     H63342   5.692  12.651   4.935 -1.7547 -0.6579 -0.7870
  480MOL0     H63343   5.695  12.403   4.952 -0.9349  0.2237 -0.8350
  480MOL0     H63344   6.001  12.081   5.007  0.2076  0.9548 -1.1971
  480MOL0     H63345   5.989  11.891   5.153 -1.0262 -1.1600  0.3191
  480MOL0     H63346   5.431  10.665   5.471 -1.2049  0.8139 -0.6016
  480MOL0     H63347   5.195  10.691   5.561 -1.8649 -2.6449 -0.5156
  480MOL0     H63348   4.854  10.544   6.053  1.9969 -0.8868 -2.1055
  480MOL0     H63349   4.612  10.513   6.065  1.7855 -0.4366  0.3600
  480MOL0     H63350   4.427  10.657   5.970 -1.7433 -1.7584  2.4482
  480MOL0     H63351   4.375  10.512   6.030  1.3443  1.2593  0.3109
  480MOL0     H63352   4.226  10.638   5.811  0.2108  0.3314 -0.0108
  480MOL0     H63353   4.192  10.482   5.881  1.7095  0.2228  0.2944
  480MOL0     H63354   4.185  10.744   6.037  2.1833 -0.6637 -1.9202
  480MOL0     H63355   4.134  10.591   6.111  0.2255  0.1419 -0.3634
  480MOL0     H63356   3.940  10.598   5.940 -0.9233  1.0345 -2.4900
  480MOL0     H63357   3.956  10.737   6.052 -0.4805  1.7790 -2.0832
  480MOL0     H63358   3.993  10.936   5.674 -0.1891  3.9051  2.6937
  480MOL0     H63359   4.597  10.477   5.632  0.2423 -2.6119 -0.8901
  480MOL0     H63360   4.825  10.468   5.622  0.2780  2.3691  0.2115
  481MOL0     O63361   0.097   1.023   4.975 -0.7092 -0.1826 -0.4222
  481MOL0     C63362   0.186   0.989   5.059 -0.2079 -0.5421  0.2771
  481MOL0     O63363   0.169   0.941   5.182 -0.2383 -0.4907 -0.3826
  481MOL0     C63364   0.041   0.906   5.211 -0.0885 -0.2851 -0.1874
  481MOL0     C63365  -0.039   1.007   5.257  0.6941  0.2163 -0.3874
  481MOL0     C63366  -0.171   0.991   5.300 -0.6150 -0.1532 -0.3372
  481MOL0     C63367  -0.222   0.854   5.298  0.5604  0.1468  0.5353
  481MOL0     O63368  -0.348   0.816   5.331 -0.3136 -0.5275 -0.2218
  481MOL0     C63369  -0.447   0.911   5.337  0.3469 -0.1313  0.8040
  481MOL0     C63370  -0.575   0.868   5.401  0.0444  0.1482 -0.2459
  481MOL0     C63371  -0.673   0.978   5.389 -0.6264  0.5411  0.1294
  481MOL0     C63372  -0.796   0.932   5.474 -0.1178 -0.7705  1.3955
  481MOL0     C63373  -0.917   1.024   5.447  0.3287  0.2862  0.1612
  481MOL0     C63374  -1.038   0.980   5.542 -1.3487  0.3544  0.1755
  481MOL0     C63375  -1.163   1.065   5.532 -0.5639 -0.5953  0.6657
  481MOL0     C63376  -1.277   1.016   5.612  0.0972 -0.2886  0.4444
  481MOL0     N63377  -1.253   0.995   5.752  0.1303  0.1040 -1.0756
  481MOL0     C63378  -1.188   1.078   5.835  0.3062 -0.2140 -0.4635
  481MOL0     C63379  -1.159   1.017   5.954 -1.3298 -0.2688 -1.0317
  481MOL0     C63380  -1.071   1.063   6.068 -0.3364 -0.2499  1.0768
  481MOL0     C63381  -0.923   1.059   6.036 -0.6046  0.0920  0.2278
  481MOL0     C63382  -0.852   0.917   6.009  0.5007 -0.5548 -1.2433
  481MOL0     C63383  -0.704   0.921   6.000 -0.1130  0.3326  0.0365
  481MOL0     O63384  -0.659   1.025   5.916 -0.3296 -0.1676  1.0877
  481MOL0     C63385  -0.527   1.020   5.890 -0.2263 -0.3993 -0.0998
  481MOL0     C63386  -0.471   1.006   5.758 -0.2692  0.9012 -0.7293
  481MOL0     C63387  -0.332   1.003   5.738  0.0842 -0.8007 -0.1835
  481MOL0     C63388  -0.243   1.025   5.839 -0.0196 -0.5055 -1.1187
  481MOL0     C63389  -0.091   1.035   5.818  0.0912 -0.7899 -0.8399
  481MOL0     O63390  -0.055   1.031   5.690  0.3595 -0.4311 -0.0951
  481MOL0     C63391   0.072   1.062   5.647 -0.4629  0.5016  0.5397
  481MOL0     C63392   0.171   1.137   5.715  0.7289 -0.7920 -0.9148
  481MOL0     C63393   0.301   1.143   5.670 -0.5411  0.8206 -0.4467
  481MOL0     C63394   0.340   1.076   5.562 -0.2325  0.9164  0.3305
  481MOL0     O63395   0.460   1.070   5.507 -0.2824  0.1406  1.0211
  481MOL0     C63396   0.529   1.192   5.484 -0.3563  0.4516 -0.3260
  481MOL0     C63397   0.642   1.190   5.585 -0.3832 -0.0701  0.3048
  481MOL0     C63398   0.674   1.329   5.620 -0.2829 -0.3061 -0.1564
  481MOL0     C63399   0.752   1.328   5.752  0.0127  0.1042  0.7615
  481MOL0     C63400   0.807   1.470   5.796 -0.1465  0.4862  0.0856
  481MOL0     C63401   0.705   1.576   5.838 -0.0675 -0.2556  0.4982
  481MOL0     C63402   0.571   1.531   5.907 -0.3854 -0.1429  0.3237
  481MOL0     C63403   0.489   1.653   5.951  0.8486 -0.4172 -0.7459
  481MOL0    Cl63404   0.445   1.741   5.808 -0.3109  0.0766  0.0929
  481MOL0     C63405   0.239   1.015   5.479  0.0524 -0.3152 -0.0763
  481MOL0     C63406   0.107   1.005   5.525 -0.5662 -0.6836 -0.7440
  481MOL0     O63407  -0.023   1.053   5.920 -0.2043  0.9206 -0.3487
  481MOL0     C63408  -0.294   1.030   5.978  0.2423 -0.0215 -0.4265
  481MOL0     C63409  -0.437   1.040   5.990 -0.3287 -0.1248  0.5079
  481MOL0     N63410  -1.186   0.886   5.933  0.8317 -0.1003 -0.4862
  481MOL0     N63411  -1.248   0.873   5.812  0.5668 -0.0624 -0.0582
  481MOL0     C63412  -0.137   0.751   5.242  0.2575  0.5792 -0.9944
  481MOL0     C63413  -0.007   0.784   5.213  0.6522  0.7806 -0.4778
  481MOL0     C63414   0.322   0.983   5.014 -0.2739 -0.7275 -0.5255
  481MOL0     C63415   0.424   0.978   5.114 -0.3255 -0.4293  0.5918
  481MOL0     C63416   0.557   0.950   5.078 -0.8500  0.4694 -0.1280
  481MOL0     C63417   0.592   0.913   4.949 -0.2278  0.4868  0.1799
  481MOL0     O63418   0.721   0.868   4.922 -0.0724 -0.1831  0.5562
  481MOL0     C63419   0.783   0.914   4.806  0.2957  0.2920 -0.6075
  481MOL0     C63420   0.866   1.044   4.814 -0.9122 -0.0136 -1.2557
  481MOL0     C63421   0.869   1.130   4.679  0.8346 -0.4713 -0.5820
  481MOL0     C63422   0.915   1.275   4.710  0.1160  0.1450  0.2636
  481MOL0     C63423   0.939   1.327   4.575  0.5611 -0.1889  0.4639
  481MOL0     C63424   0.976   1.382   4.469  0.1072  0.1739  1.2254
  481MOL0     C63425   0.489   0.906   4.854  0.2768 -0.3837 -0.2358
  481MOL0     C63426   0.357   0.949   4.883  0.2141  1.0032 -0.8276
  481MOL0     H63427  -0.003   1.109   5.251 -0.8516  0.7552 -0.8304
  481MOL0     H63428  -0.215   1.075   5.352  2.0169  1.7318 -0.9368
  481MOL0     H63429  -0.479   0.941   5.237  1.9952 -2.8508 -0.6515
  481MOL0     H63430  -0.413   0.993   5.402 -0.5664 -0.8789  2.2732
  481MOL0     H63431  -0.556   0.862   5.508  2.7487  2.4277 -0.4932
  481MOL0     H63432  -0.611   0.775   5.356  1.7743 -0.2209 -0.9513
  481MOL0     H63433  -0.695   0.994   5.283  0.2178  0.9278  0.0058
  481MOL0     H63434  -0.629   1.074   5.415 -1.1683  1.7250 -2.8345
  481MOL0     H63435  -0.809   0.829   5.441  1.0716 -0.7541  0.8350
  481MOL0     H63436  -0.774   0.922   5.581  1.0516  0.9000  1.3516
  481MOL0     H63437  -0.945   1.029   5.341  3.0323 -1.3476 -0.7227
  481MOL0     H63438  -0.878   1.125   5.463  2.7145  0.4224 -4.7274
  481MOL0     H63439  -0.998   0.985   5.644  0.6978  0.8344 -0.6171
  481MOL0     H63440  -1.055   0.873   5.523 -2.0163  0.6156 -0.7609
  481MOL0     H63441  -1.142   1.170   5.556  1.3211 -0.0743 -2.6785
  481MOL0     H63442  -1.192   1.079   5.428 -0.5920 -1.4345  0.5595
  481MOL0     H63443  -1.313   0.927   5.560  2.1453  0.0362 -1.7043
  481MOL0     H63444  -1.346   1.099   5.595  3.5220  2.9014  0.8646
  481MOL0     H63445  -1.164   1.182   5.812 -0.8950  0.2240  0.1723
  481MOL0     H63446  -1.088   0.990   6.147  0.5953 -1.6673  0.0265
  481MOL0     H63447  -1.094   1.165   6.099 -0.4852  0.5298 -1.3536
  481MOL0     H63448  -0.884   1.099   6.130  1.6785  0.0174 -0.6388
  481MOL0     H63449  -0.906   1.136   5.960  1.2528  0.2831  0.7881
  481MOL0     H63450  -0.870   0.847   6.092  1.3916 -0.3758 -0.8870
  481MOL0     H63451  -0.886   0.875   5.914  0.6328  0.4438 -1.7452
  481MOL0     H63452  -0.669   0.827   5.955  0.2419  1.7460 -2.8714
  481MOL0     H63453  -0.659   0.933   6.099  1.7902  1.5853 -0.9192
  481MOL0     H63454  -0.533   0.992   5.669 -0.2984  0.1802 -0.6021
  481MOL0     H63455  -0.294   0.984   5.639  0.0309  1.6894 -0.7610
  481MOL0     H63456   0.137   1.175   5.810  0.5641 -0.4410 -1.1108
  481MOL0     H63457   0.372   1.192   5.736  0.3506 -5.0949  3.7918
  481MOL0     H63458   0.464   1.278   5.502 -1.3795 -0.2146 -0.7081
  481MOL0     H63459   0.566   1.200   5.381  0.3731 -0.6563 -0.1671
  481MOL0     H63460   0.724   1.133   5.542 -0.9173 -0.5336 -0.1061
  481MOL0     H63461   0.613   1.143   5.680 -1.7775  2.6277  1.3309
  481MOL0     H63462   0.588   1.394   5.632  0.3817  0.9944 -1.9731
  481MOL0     H63463   0.729   1.372   5.535  0.1749  1.4084  0.9597
  481MOL0     H63464   0.692   1.294   5.836  0.6806 -2.6912  0.1954
  481MOL0     H63465   0.833   1.256   5.741 -0.7945 -0.4265 -3.4323
  481MOL0     H63466   0.863   1.513   5.712  1.1728  1.2808  1.3311
  481MOL0     H63467   0.873   1.453   5.881  0.4804 -2.0312 -0.8251
  481MOL0     H63468   0.676   1.636   5.752 -0.0959  0.5058  1.0295
  481MOL0     H63469   0.761   1.644   5.904  1.1363 -0.4990 -0.2389
  481MOL0     H63470   0.513   1.473   5.834  0.3593  2.2622 -2.3706
  481MOL0     H63471   0.590   1.478   6.001 -1.5673  0.1334  0.7399
  481MOL0     H63472   0.539   1.728   6.012  0.1660 -0.2566 -0.3730
  481MOL0     H63473   0.393   1.623   5.993 -1.2105  1.0790 -3.9442
  481MOL0     H63474   0.274   0.965   5.389 -0.9505 -1.7331  0.2921
  481MOL0     H63475   0.041   0.933   5.477  0.1926 -2.4359  0.7150
  481MOL0     H63476  -0.226   1.041   6.062 -1.7590  2.6252  0.9924
  481MOL0     H63477  -0.475   1.067   6.088  0.0254  1.0494  0.3357
  481MOL0     H63478  -0.166   0.647   5.247  1.9604 -0.0242 -2.4903
  481MOL0     H63479   0.063   0.705   5.186  0.2384 -0.4706  1.8502
  481MOL0     H63480   0.413   0.995   5.220 -2.5189  0.7505  0.2275
  481MOL0     H63481   0.632   0.943   5.157 -1.1042 -3.3289 -0.0511
  481MOL0     H63482   0.710   0.925   4.725 -0.5806  0.3522  0.1818
  481MOL0     H63483   0.846   0.834   4.766 -0.2276 -0.3597 -0.1407
  481MOL0     H63484   0.824   1.101   4.898  1.1232 -2.2785  1.5182
  481MOL0     H63485   0.970   1.025   4.845 -1.0324 -0.9634 -1.4246
  481MOL0     H63486   0.772   1.125   4.628  0.0867 -3.1404  0.9375
  481MOL0     H63487   0.943   1.087   4.610  0.1085 -1.1735 -0.9288
  481MOL0     H63488   0.849   1.343   4.764 -0.3033  1.4259 -1.7455
  481MOL0     H63489   1.014   1.271   4.755 -0.4024 -1.5290  1.3743
  481MOL0     H63490   1.010   1.424   4.376  0.5454  1.2220  1.8430
  481MOL0     H63491   0.506   0.866   4.754  2.9324  0.2983 -0.1120
  481MOL0     H63492   0.279   0.949   4.808  0.9174 -3.3718 -1.8396
  482MOL0     O63493   0.414  10.545   1.418  0.9344  0.9063 -0.0530
  482MOL0     C63494   0.390  10.482   1.313 -0.3099  0.0018 -0.4140
  482MOL0     O63495   0.285  10.497   1.240 -0.0856  0.7470  1.0225
  482MOL0     C63496   0.170  10.557   1.289  0.2202  0.6943  0.4512
  482MOL0     C63497   0.119  10.531   1.420 -0.5055  0.2626 -0.2813
  482MOL0     C63498   0.004  10.598   1.464  0.5058  0.5350  0.8543
  482MOL0     C63499  -0.066  10.680   1.380  0.8793  0.4582  0.7360
  482MOL0     O63500  -0.173  10.758   1.424 -0.2598  0.2244  0.8357
  482MOL0     C63501  -0.213  10.750   1.561  0.6626 -0.4980  1.1314
  482MOL0     C63502  -0.320  10.855   1.587 -0.1774  0.6830  0.7132
  482MOL0     C63503  -0.455  10.826   1.515  0.3221  0.7822  0.3141
  482MOL0     C63504  -0.461  10.887   1.367 -0.2845 -0.1884  0.4210
  482MOL0     C63505  -0.599  10.872   1.295  0.8100 -0.6696 -0.1617
  482MOL0     C63506  -0.619  10.938   1.157  0.3084  0.1709 -0.3001
  482MOL0     C63507  -0.526  10.872   1.046  0.2811 -0.4507 -1.3963
  482MOL0     C63508  -0.517  10.723   1.043  0.4704 -0.5307 -0.6158
  482MOL0     N63509  -0.425  10.694   0.940 -0.2557 -0.4326 -0.6221
  482MOL0     C63510  -0.397  10.567   0.909  0.5490 -1.2862 -0.5836
  482MOL0     C63511  -0.284  10.568   0.837  0.4728  0.9660  0.3329
  482MOL0     C63512  -0.220  10.450   0.771  0.0941  0.0532 -0.2375
  482MOL0     C63513  -0.295  10.397   0.654  0.2472 -0.4058  0.6289
  482MOL0     C63514  -0.211  10.310   0.549 -1.0629 -0.3030 -0.8076
  482MOL0     C63515  -0.137  10.195   0.623 -0.8116 -0.7199  0.3396
  482MOL0     O63516  -0.235  10.092   0.653  0.3928 -0.8781 -0.4895
  482MOL0     C63517  -0.211  10.008   0.755  0.1552  0.0009 -1.0287
  482MOL0     C63518  -0.297   9.956   0.844 -0.7973  0.6932 -0.0057
  482MOL0     C63519  -0.257   9.891   0.957  0.1565 -0.8002 -0.8733
  482MOL0     C63520  -0.126   9.858   0.986  0.1883 -0.3732  1.4149
  482MOL0     C63521  -0.079   9.775   1.105  0.4247 -0.3605  0.6735
  482MOL0     O63522   0.051   9.783   1.142  0.7973 -0.6753  0.4511
  482MOL0     C63523   0.097   9.706   1.245  0.5626 -0.0614 -0.2372
  482MOL0     C63524   0.205   9.618   1.221  0.5364  0.5706 -0.0400
  482MOL0     C63525   0.266   9.542   1.319  0.0487 -0.5223 -0.0665
  482MOL0     C63526   0.206   9.550   1.448  0.1887 -0.1796  0.2640
  482MOL0     O63527   0.245   9.457   1.544 -0.3931  0.0300 -0.1492
  482MOL0     C63528   0.371   9.477   1.608 -0.5083 -0.8469  0.0627
  482MOL0     C63529   0.414   9.367   1.695  0.3500 -0.5277 -0.8985
  482MOL0     C63530   0.332   9.359   1.829  0.8637  0.2615  0.1770
  482MOL0     C63531   0.398   9.263   1.929 -0.0564 -0.3167 -0.0152
  482MOL0     C63532   0.332   9.272   2.069 -0.5599  0.8318  0.6417
  482MOL0     C63533   0.205   9.191   2.090  0.4961 -0.3116  0.2140
  482MOL0     C63534   0.215   9.038   2.078  0.0061 -0.0425  0.8474
  482MOL0     C63535   0.074   8.980   2.111  0.8240  0.1918  0.0915
  482MOL0    Cl63536   0.068   8.802   2.085  0.1872  0.3933 -0.2492
  482MOL0     C63537   0.102   9.637   1.474 -0.2627  0.3450  0.5672
  482MOL0     C63538   0.049   9.727   1.372  0.1345  0.3448 -0.1557
  482MOL0     O63539  -0.162   9.702   1.151 -0.3478 -0.8015  0.1754
  482MOL0     C63540  -0.039   9.892   0.886  0.7394 -0.4024 -0.1426
  482MOL0     C63541  -0.084   9.966   0.779 -0.4606  0.3766  0.4540
  482MOL0     N63542  -0.243  10.703   0.826 -0.0063  0.4833  0.6125
  482MOL0     N63543  -0.333  10.773   0.884 -0.7040 -0.4725 -0.0458
  482MOL0     C63544  -0.026  10.691   1.248  0.6467 -0.1899 -1.2422
  482MOL0     C63545   0.087  10.622   1.192 -0.0232 -0.0896 -0.6763
  482MOL0     C63546   0.487  10.384   1.272  0.8044  0.3814  0.1263
  482MOL0     C63547   0.592  10.338   1.358 -0.6720 -0.5636 -1.0918
  482MOL0     C63548   0.683  10.238   1.318 -0.9133  0.4654  0.2658
  482MOL0     C63549   0.687  10.204   1.187 -0.2514 -0.3870  0.8757
  482MOL0     O63550   0.807  10.139   1.134 -0.7226  0.3305 -0.2534
  482MOL0     C63551   0.807  10.034   1.039 -0.1605  0.3029  0.8154
  482MOL0     C63552   0.948   9.982   1.032 -0.2467  0.9984  0.1742
  482MOL0     C63553   0.987   9.889   1.159  0.5307 -1.0058 -0.2088
  482MOL0     C63554   1.121   9.806   1.128  1.1029 -0.9290 -0.3119
  482MOL0     C63555   1.242   9.887   1.111  0.3515 -0.0237 -0.8617
  482MOL0     C63556   1.330   9.967   1.102 -0.2893 -0.8482 -0.9920
  482MOL0     C63557   0.600  10.256   1.097  0.7501  1.4280  0.6910
  482MOL0     C63558   0.499  10.343   1.133  0.3795 -0.0628 -0.2578
  482MOL0     H63559   0.182  10.466   1.479  0.0743  2.1546  1.2711
  482MOL0     H63560  -0.031  10.583   1.565 -0.6799  1.1469  0.5461
  482MOL0     H63561  -0.122  10.767   1.620  0.8586  0.8713  0.4887
  482MOL0     H63562  -0.242  10.648   1.586  4.1599 -1.4724  1.6288
  482MOL0     H63563  -0.262  10.942   1.554  0.7811 -0.2640 -0.1679
  482MOL0     H63564  -0.329  10.852   1.696 -0.7787  0.0271  0.6501
  482MOL0     H63565  -0.533  10.868   1.579  2.4768  2.4894  1.9651
  482MOL0     H63566  -0.462  10.717   1.519 -1.3979  0.7594 -1.4599
  482MOL0     H63567  -0.441  10.994   1.379 -1.1777 -0.0309  0.6053
  482MOL0     H63568  -0.386  10.833   1.308 -0.8339  0.0368 -0.4995
  482MOL0     H63569  -0.679  10.912   1.358  0.0211 -1.7622 -0.4398
  482MOL0     H63570  -0.621  10.766   1.307  0.4863 -0.5355  0.4518
  482MOL0     H63571  -0.589  11.043   1.159 -1.7752  0.8247 -0.5376
  482MOL0     H63572  -0.720  10.934   1.115  0.5740  2.1889 -1.2413
  482MOL0     H63573  -0.561  10.894   0.945 -1.7859 -1.5321 -0.9751
  482MOL0     H63574  -0.429  10.919   1.060 -0.1199 -0.0972  0.5334
  482MOL0     H63575  -0.612  10.676   1.016 -0.4299  0.0497  1.3206
  482MOL0     H63576  -0.482  10.685   1.140  0.2567  0.0030 -0.3239
  482MOL0     H63577  -0.455  10.479   0.934 -0.8359 -0.6507 -1.4463
  482MOL0     H63578  -0.191  10.370   0.840 -2.0889 -0.2741  0.3592
  482MOL0     H63579  -0.118  10.477   0.742  0.7340 -0.6805  1.2284
  482MOL0     H63580  -0.334  10.486   0.602  1.7875  0.3937  0.7682
  482MOL0     H63581  -0.378  10.331   0.679  1.2298 -1.1476  2.0376
  482MOL0     H63582  -0.273  10.267   0.470  0.5642 -0.2982 -2.1171
  482MOL0     H63583  -0.135  10.375   0.505 -2.0027  0.1585 -1.7777
  482MOL0     H63584  -0.091  10.221   0.719  0.9808 -0.9494 -0.4144
  482MOL0     H63585  -0.058  10.151   0.561 -2.1014 -1.6717 -0.6772
  482MOL0     H63586  -0.400   9.982   0.820 -1.8084  0.0518  3.1018
  482MOL0     H63587  -0.336   9.852   1.021  0.9375 -0.1086  0.5838
  482MOL0     H63588   0.260   9.614   1.128  3.7323 -3.5967  1.7200
  482MOL0     H63589   0.361   9.489   1.309  0.5179 -0.1287  1.8950
  482MOL0     H63590   0.374   9.566   1.672  0.9927 -0.6687 -0.2081
  482MOL0     H63591   0.443   9.491   1.527 -1.5787 -0.3996 -0.8242
  482MOL0     H63592   0.520   9.385   1.716  0.1067  0.5535 -0.5452
  482MOL0     H63593   0.397   9.268   1.649 -5.4708 -0.5055  0.4435
  482MOL0     H63594   0.229   9.340   1.799  0.4720  0.1188  1.5799
  482MOL0     H63595   0.312   9.455   1.877 -2.5226 -0.5822  0.7276
  482MOL0     H63596   0.394   9.161   1.889 -1.2347  0.2200 -1.3485
  482MOL0     H63597   0.504   9.291   1.936 -0.2674  0.5643 -0.2967
  482MOL0     H63598   0.309   9.374   2.101  1.7877  2.0123 -1.1143
  482MOL0     H63599   0.410   9.228   2.132 -1.5019  1.1304  2.0672
  482MOL0     H63600   0.135   9.222   2.011  3.1659  2.2016 -1.3539
  482MOL0     H63601   0.170   9.229   2.187 -2.2015 -1.2812 -0.2757
  482MOL0     H63602   0.257   9.001   1.984 -0.3137 -2.0632  1.4435
  482MOL0     H63603   0.280   9.002   2.158  0.3143  1.4213  1.2887
  482MOL0     H63604  -0.007   9.022   2.051 -0.5296 -0.3599  1.4593
  482MOL0     H63605   0.052   9.000   2.216 -0.1797  0.1326 -0.0985
  482MOL0     H63606   0.066   9.646   1.576  3.6184 -0.2086  2.1789
  482MOL0     H63607  -0.029   9.799   1.396  2.0512  2.6228 -0.3726
  482MOL0     H63608   0.060   9.849   0.896  0.5002 -1.1344 -0.8114
  482MOL0     H63609  -0.007   9.994   0.707  2.0735  2.6938  3.7255
  482MOL0     H63610  -0.087  10.753   1.183 -0.5476 -0.8424 -0.7733
  482MOL0     H63611   0.126  10.650   1.095  2.6275 -0.2579  0.2479
  482MOL0     H63612   0.604  10.370   1.461  3.8704  1.2396 -1.9401
  482MOL0     H63613   0.753  10.193   1.388 -1.3810  1.3649  1.3418
  482MOL0     H63614   0.763  10.064   0.943 -2.2690 -1.4972  1.1434
  482MOL0     H63615   0.734   9.955   1.057  2.0168 -1.6608  1.5752
  482MOL0     H63616   0.946   9.913   0.947  1.0052 -0.9891  1.6619
  482MOL0     H63617   1.020  10.063   1.017  3.2643 -2.0784 -1.2288
  482MOL0     H63618   0.912   9.811   1.173  1.3687 -1.5065  1.9498
  482MOL0     H63619   0.989   9.947   1.252 -3.1342  0.6452 -0.9946
  482MOL0     H63620   1.146   9.743   1.213  1.5308  1.4912  1.4518
  482MOL0     H63621   1.114   9.747   1.036 -0.4428 -0.4575 -0.5256
  482MOL0     H63622   1.402  10.042   1.125 -0.7959 -0.0831 -1.8434
  482MOL0     H63623   0.599  10.208   1.000  0.9875 -0.4531  1.5753
  482MOL0     H63624   0.427  10.380   1.060 -2.5017 -1.1912  1.7833
  483MOL0     O63625   9.945   8.040   6.552 -0.4424 -0.4464 -0.6163
  483MOL0     C63626   9.995   8.042   6.669 -0.4708 -0.2947  0.0823
  483MOL0     O63627  10.031   7.934   6.733  0.1936  0.2234 -0.1351
  483MOL0     C63628   9.976   7.815   6.680  0.3635 -0.0704  0.8029
  483MOL0     C63629  10.051   7.708   6.642 -0.1667 -0.2570 -0.3944
  483MOL0     C63630  10.006   7.592   6.596 -0.0487  0.3163  0.4314
  483MOL0     C63631   9.868   7.578   6.573 -0.9689 -0.2142  0.3383
  483MOL0     O63632   9.833   7.456   6.535  1.4744  0.5024 -0.1856
  483MOL0     C63633   9.723   7.452   6.443  0.7179 -0.8415  0.8693
  483MOL0     C63634   9.751   7.323   6.365 -0.6831  0.8838  0.3823
  483MOL0     C63635   9.674   7.301   6.243  0.6232 -1.4720 -0.4886
  483MOL0     C63636   9.703   7.160   6.181 -0.3818 -0.6121  0.0640
  483MOL0     C63637   9.828   7.170   6.104 -0.3570  0.6407  0.2197
  483MOL0     C63638   9.864   7.033   6.050  0.2207  0.4012 -0.0136
  483MOL0     C63639  10.011   7.024   5.986  0.3696  0.8225 -0.1135
  483MOL0     C63640  10.073   6.879   5.986 -0.1273  0.4579 -0.6289
  483MOL0     N63641  10.200   6.866   5.907  0.0726 -0.4856 -1.0194
  483MOL0     C63642  10.195   6.805   5.789 -0.1363  0.5165 -0.5024
  483MOL0     C63643  10.318   6.840   5.730 -0.2515  0.1669  0.3697
  483MOL0     C63644  10.383   6.804   5.586  0.3298 -0.1156  1.2855
  483MOL0     C63645  10.316   6.868   5.462  0.4638  0.7089 -0.4162
  483MOL0     C63646  10.163   6.845   5.463  1.4158 -0.2060 -0.0523
  483MOL0     C63647  10.112   6.703   5.433 -0.3919  0.7737  0.4993
  483MOL0     O63648   9.973   6.714   5.434  0.7515 -0.5274  0.0007
  483MOL0     C63649   9.898   6.599   5.398 -0.4185 -0.5724 -1.1011
  483MOL0     C63650   9.947   6.471   5.370  0.5314  0.1388  0.0718
  483MOL0     C63651   9.861   6.362   5.357 -0.4516  0.8980  0.1717
  483MOL0     C63652   9.721   6.368   5.375 -0.9757  0.2438  0.3408
  483MOL0     C63653   9.622   6.261   5.371 -1.1136  0.2263  0.3840
  483MOL0     O63654   9.485   6.298   5.367  0.2392 -0.1032  0.1162
  483MOL0     C63655   9.398   6.194   5.346  0.0102  0.1406  0.6422
  483MOL0     C63656   9.379   6.132   5.217 -1.5992  0.1558  0.1540
  483MOL0     C63657   9.290   6.029   5.205 -1.2524 -0.3688  0.1373
  483MOL0     C63658   9.223   5.979   5.311 -0.8582 -0.2027 -0.1413
  483MOL0     O63659   9.139   5.869   5.310 -0.5531  0.2376  0.6111
  483MOL0     C63660   9.057   5.856   5.197  1.0253 -0.4979 -0.2951
  483MOL0     C63661   8.954   5.745   5.204  0.1407  0.5758 -0.4537
  483MOL0     C63662   8.847   5.785   5.310 -1.0663 -0.4009  0.2325
  483MOL0     C63663   8.746   5.683   5.351  0.0698  0.1660  0.6727
  483MOL0     C63664   8.643   5.630   5.243 -0.5262  0.0906  0.2588
  483MOL0     C63665   8.510   5.594   5.314 -0.1744  0.0552  1.1323
  483MOL0     C63666   8.409   5.513   5.241  0.3554  1.0389  1.2467
  483MOL0     C63667   8.265   5.540   5.294  0.2517 -0.0130 -0.0449
  483MOL0    Cl63668   8.212   5.715   5.292 -0.5325 -0.1548 -0.3628
  483MOL0     C63669   9.228   6.039   5.434  0.0073 -0.9747 -0.3736
  483MOL0     C63670   9.322   6.148   5.453  0.8271 -0.6891 -0.5234
  483MOL0     O63671   9.660   6.146   5.386 -0.9189 -0.6825  0.2351
  483MOL0     C63672   9.685   6.498   5.398  0.1209 -0.8930  0.0603
  483MOL0     C63673   9.764   6.609   5.417 -1.3090  0.2663  0.7539
  483MOL0     N63674  10.381   6.932   5.811  0.3471  0.8214  0.0553
  483MOL0     N63675  10.306   6.945   5.910 -0.3339 -1.1075 -0.0623
  483MOL0     C63676   9.779   7.683   6.612  0.5267 -0.4741 -0.1127
  483MOL0     C63677   9.837   7.799   6.663  0.3235  0.8644  0.4647
  483MOL0     C63678  10.014   8.172   6.731  0.1871  0.8435  0.1925
  483MOL0     C63679  10.018   8.186   6.870 -0.2267 -0.8905 -0.5570
  483MOL0     C63680  10.055   8.308   6.927  0.5105  0.7568 -0.0517
  483MOL0     C63681  10.066   8.430   6.857  1.2091 -0.6266  0.7767
  483MOL0     O63682  10.090   8.555   6.911 -0.3643 -0.1754  0.7452
  483MOL0     C63683  10.146   8.567   7.043 -0.0676  0.1884  0.7059
  483MOL0     C63684  10.305   8.554   7.036 -0.3198 -0.5090  0.8883
  483MOL0     C63685  10.378   8.666   6.958 -0.8179  0.4230 -0.0605
  483MOL0     C63686  10.532   8.635   6.941  1.1355  0.3189  0.3181
  483MOL0     C63687  10.600   8.613   7.069  1.4019  0.8188 -0.2176
  483MOL0     C63688  10.661   8.593   7.175  0.5067  0.1388  0.0757
  483MOL0     C63689  10.040   8.416   6.721 -0.1975 -0.5659  0.8790
  483MOL0     C63690  10.010   8.293   6.657 -0.4481 -1.0691  0.1040
  483MOL0     H63691  10.158   7.713   6.657 -0.4286  1.4032  1.3826
  483MOL0     H63692  10.077   7.511   6.587  0.1145 -0.1224  3.9602
  483MOL0     H63693   9.723   7.541   6.380  0.7726 -0.7501  0.9979
  483MOL0     H63694   9.629   7.445   6.498 -0.6724  1.1858 -1.0831
  483MOL0     H63695   9.752   7.239   6.435 -2.1521  0.3262 -0.2220
  483MOL0     H63696   9.858   7.324   6.344  0.0493  1.2401  3.5044
  483MOL0     H63697   9.691   7.382   6.172 -0.5816 -3.1651 -2.8851
  483MOL0     H63698   9.566   7.306   6.260  0.7648 -0.1126  0.0754
  483MOL0     H63699   9.720   7.080   6.253  0.4152 -0.3873  0.1398
  483MOL0     H63700   9.619   7.131   6.118 -1.8511  2.2728  0.5503
  483MOL0     H63701   9.905   7.208   6.172  0.0300 -1.2359  0.8757
  483MOL0     H63702   9.816   7.237   6.018  0.2736  1.4099  0.7099
  483MOL0     H63703   9.789   6.997   5.980 -0.8078  0.9238  0.8001
  483MOL0     H63704   9.870   6.963   6.134  1.9550 -0.2215 -0.6084
  483MOL0     H63705   9.998   7.055   5.882 -1.4327 -0.6219 -0.3534
  483MOL0     H63706  10.065   7.099   6.045  0.1200  0.1360  1.0035
  483MOL0     H63707   9.998   6.808   5.951  1.4699 -1.8209  0.2937
  483MOL0     H63708  10.090   6.845   6.089 -3.8744 -0.9349 -0.3334
  483MOL0     H63709  10.118   6.748   5.739 -0.9403  1.9038 -0.9106
  483MOL0     H63710  10.383   6.695   5.575  3.0172  0.0402 -1.5386
  483MOL0     H63711  10.486   6.838   5.576  0.5861 -0.4838  2.5601
  483MOL0     H63712  10.347   6.832   5.364  3.2070  2.6845 -0.3744
  483MOL0     H63713  10.336   6.976   5.461 -0.2107  0.8780 -3.2060
  483MOL0     H63714  10.114   6.878   5.555 -0.4827  0.7903 -1.3547
  483MOL0     H63715  10.118   6.902   5.381  1.1495  0.4957  0.5706
  483MOL0     H63716  10.129   6.637   5.518  1.6843  0.1035 -0.3631
  483MOL0     H63717  10.173   6.652   5.357  4.1340  1.2674  3.4179
  483MOL0     H63718  10.051   6.455   5.346  0.5580  0.4978 -0.0536
  483MOL0     H63719   9.910   6.269   5.330  0.6916  1.4285  0.3534
  483MOL0     H63720   9.430   6.176   5.132 -0.9363  0.7933  0.8663
  483MOL0     H63721   9.283   5.992   5.103 -0.6097 -0.0800 -0.0142
  483MOL0     H63722   9.124   5.842   5.112  2.7057  1.6004  0.6143
  483MOL0     H63723   8.999   5.949   5.190  2.7058  0.7466  1.3677
  483MOL0     H63724   8.999   5.646   5.219  1.5394  1.4322  1.4585
  483MOL0     H63725   8.895   5.740   5.112 -0.5769  3.1219 -0.2060
  483MOL0     H63726   8.789   5.863   5.260  1.2755  0.3332 -1.4809
  483MOL0     H63727   8.892   5.834   5.396  1.1999 -1.2996 -0.3800
  483MOL0     H63728   8.808   5.597   5.379  2.1416  0.8465 -1.5350
  483MOL0     H63729   8.684   5.723   5.432 -2.6250 -1.9512 -0.2041
  483MOL0     H63730   8.694   5.546   5.194 -1.6692 -1.2615  1.3026
  483MOL0     H63731   8.621   5.700   5.162  0.6643 -2.1635 -2.2024
  483MOL0     H63732   8.466   5.688   5.348  0.5937 -0.2861  3.2664
  483MOL0     H63733   8.537   5.543   5.407 -0.0344 -2.5736 -0.2645
  483MOL0     H63734   8.420   5.530   5.133 -0.3189  1.5759  1.2572
  483MOL0     H63735   8.427   5.405   5.248 -3.2465  0.2865  0.6524
  483MOL0     H63736   8.269   5.522   5.402  2.3401  0.9611  0.0972
  483MOL0     H63737   8.195   5.466   5.253  3.1258 -1.6111 -2.4485
  483MOL0     H63738   9.161   6.003   5.511 -2.4554 -2.2674 -2.9335
  483MOL0     H63739   9.334   6.199   5.548  1.7311 -0.6275 -0.6621
  483MOL0     H63740   9.579   6.519   5.392  0.5582  2.2741  1.5212
  483MOL0     H63741   9.729   6.704   5.454  1.5067  0.8293  2.1803
  483MOL0     H63742   9.671   7.678   6.607  0.4021  1.1461  0.4449
  483MOL0     H63743   9.773   7.884   6.686  1.1554  1.1986  1.6127
  483MOL0     H63744   9.991   8.099   6.929  1.6390 -2.0287 -1.2900
  483MOL0     H63745  10.075   8.310   7.034 -4.1255  2.8449  1.0414
  483MOL0     H63746  10.095   8.507   7.120 -0.1699  0.3570  0.7694
  483MOL0     H63747  10.131   8.668   7.081  0.8988  0.7358 -0.3243
  483MOL0     H63748  10.343   8.563   7.138 -0.4205 -0.7120  0.9443
  483MOL0     H63749  10.332   8.457   6.994 -1.5499  0.5469 -2.6403
  483MOL0     H63750  10.376   8.758   7.018  1.9364  0.5711 -0.0715
  483MOL0     H63751  10.330   8.686   6.862  2.1146  2.8552 -1.1736
  483MOL0     H63752  10.543   8.540   6.887 -1.6793  0.7199 -1.1754
  483MOL0     H63753  10.579   8.711   6.877  0.6569  1.3604  1.1785
  483MOL0     H63754  10.718   8.555   7.257  1.2109 -0.7030 -0.7742
  483MOL0     H63755  10.033   8.506   6.660 -2.1822 -1.4611 -0.3094
  483MOL0     H63756   9.990   8.284   6.550  2.3128  3.0426 -0.9746
  484MOL0     O63757  11.259   7.122  10.714  0.4128 -0.4569  0.5230
  484MOL0     C63758  11.362   7.138  10.652 -0.6415  0.4705  0.1463
  484MOL0     O63759  11.475   7.212  10.695  1.2257 -0.6053  0.2432
  484MOL0     C63760  11.494   7.264  10.826  0.2183 -0.2706 -0.9387
  484MOL0     C63761  11.416   7.225  10.942  0.1890  0.1762  1.0900
  484MOL0     C63762  11.429   7.285  11.064 -0.1247  0.0898 -0.6607
  484MOL0     C63763  11.527   7.386  11.083 -0.1573 -0.0647 -0.0648
  484MOL0     O63764  11.552   7.427  11.211  0.4635  0.7486  0.4927
  484MOL0     C63765  11.652   7.339  11.277 -0.2321  0.5219 -0.5228
  484MOL0     C63766  11.626   7.338  11.418  0.3481  0.4619  0.1722
  484MOL0     C63767  11.490   7.275  11.456 -0.3534 -0.3704 -0.5986
  484MOL0     C63768  11.465   7.290  11.611  0.0512 -0.8053  0.1216
  484MOL0     C63769  11.315   7.255  11.645 -0.0877 -0.3658 -0.0587
  484MOL0     C63770  11.297   7.209  11.787 -1.0550 -0.2180  0.0909
  484MOL0     C63771  11.158   7.162  11.830  0.4602  0.1149  0.5005
  484MOL0     C63772  11.044   7.259  11.798  0.7668 -0.3256 -0.7261
  484MOL0     N63773  11.040   7.371  11.896  0.9429 -0.3154  0.1160
  484MOL0     C63774  11.062   7.501  11.854 -0.4540 -0.0045 -0.5113
  484MOL0     C63775  11.051   7.577  11.967 -0.4180 -0.0430 -0.7422
  484MOL0     C63776  11.060   7.722  11.983 -0.0513  0.3097 -0.3344
  484MOL0     C63777  11.203   7.769  11.954  0.1205  0.5165  0.9296
  484MOL0     C63778  11.229   7.903  12.037 -0.5095 -0.3032  0.5753
  484MOL0     C63779  11.122   8.009  12.007 -0.6307 -0.4694 -0.0032
  484MOL0     O63780  11.121   8.039  11.865  0.6141 -1.1266 -0.1021
  484MOL0     C63781  11.221   8.126  11.812  0.0590 -0.8116 -0.2566
  484MOL0     C63782  11.232   8.129  11.674  0.1813  0.2423  0.5782
  484MOL0     C63783  11.335   8.202  11.616 -0.4140  0.1523  0.7144
  484MOL0     C63784  11.424   8.278  11.684  0.3428 -0.1287 -1.0638
  484MOL0     C63785  11.544   8.350  11.611  0.1445  0.9402 -0.2683
  484MOL0     O63786  11.593   8.297  11.500  0.4672 -0.1614  0.6751
  484MOL0     C63787  11.662   8.368  11.400  0.5083 -0.7271 -0.1854
  484MOL0     C63788  11.636   8.501  11.373 -0.1577 -0.1458  0.5333
  484MOL0     C63789  11.695   8.562  11.265 -0.4812  0.4573 -0.4825
  484MOL0     C63790  11.782   8.487  11.186  0.0686  1.3230  0.3063
  484MOL0     O63791  11.851   8.536  11.081  0.2617 -0.2951  0.4864
  484MOL0     C63792  11.749   8.554  10.981 -0.0745  0.6117 -0.7088
  484MOL0     C63793  11.815   8.605  10.849  0.7965 -0.0745 -0.3913
  484MOL0     C63794  11.915   8.519  10.767 -1.3143  0.6943 -0.0033
  484MOL0     C63795  11.957   8.392  10.839  0.3698  0.0676 -0.2818
  484MOL0     C63796  12.049   8.305  10.757  0.0795 -0.1471  0.6522
  484MOL0     C63797  12.000   8.246  10.627 -0.5469 -0.2146  0.0346
  484MOL0     C63798  11.913   8.128  10.626  1.2555  0.0817 -0.2374
  484MOL0     C63799  11.762   8.166  10.623 -0.1159  0.2580  0.7998
  484MOL0    Cl63800  11.716   8.273  10.483 -0.1683  0.0168 -0.3280
  484MOL0     C63801  11.809   8.359  11.212 -0.2482 -0.1986 -0.4143
  484MOL0     C63802  11.747   8.304  11.321  0.1796 -0.1645 -0.0693
  484MOL0     O63803  11.583   8.457  11.664  0.0125  0.6824 -0.6951
  484MOL0     C63804  11.412   8.291  11.825 -0.2868  0.4521  1.0569
  484MOL0     C63805  11.319   8.202  11.885  1.0306  0.4346 -0.7050
  484MOL0     N63806  11.035   7.492  12.072  0.4605 -0.2415 -0.4594
  484MOL0     N63807  11.022   7.365  12.035 -0.1948 -0.5407 -0.5207
  484MOL0     C63808  11.603   7.430  10.971  0.1015 -0.7741  0.4151
  484MOL0     C63809  11.586   7.369  10.846  0.4372  0.3864  0.7499
  484MOL0     C63810  11.368   7.078  10.520  0.5565 -0.2071  0.7143
  484MOL0     C63811  11.491   7.059  10.456  0.8716  0.0925  1.1099
  484MOL0     C63812  11.501   6.983  10.347  0.1743  0.3719  0.0398
  484MOL0     C63813  11.399   6.910  10.292  1.0011 -0.2077  0.9678
  484MOL0     O63814  11.429   6.817  10.197 -0.3540  0.2484  0.5292
  484MOL0     C63815  11.332   6.710  10.172 -0.7559 -0.7402 -0.3033
  484MOL0     C63816  11.411   6.598  10.105  0.2435  0.1952 -0.6817
  484MOL0     C63817  11.326   6.470  10.105 -0.2981 -1.3810  0.7066
  484MOL0     C63818  11.329   6.402   9.959  0.5107 -1.1809  0.3727
  484MOL0     C63819  11.230   6.477   9.869  0.3464 -0.0079 -0.1345
  484MOL0     C63820  11.158   6.554   9.804  0.1106 -0.6568  0.8679
  484MOL0     C63821  11.273   6.931  10.344 -0.7446 -0.8001 -0.2306
  484MOL0     C63822  11.259   7.019  10.457  0.3527 -0.4702  0.1380
  484MOL0     H63823  11.363   7.131  10.932  0.1672  0.3812 -1.1009
  484MOL0     H63824  11.373   7.253  11.151  2.5273 -1.8084  0.4741
  484MOL0     H63825  11.748   7.386  11.256  0.6078 -0.9221 -0.0377
  484MOL0     H63826  11.651   7.237  11.239  1.5636  0.2926 -0.0074
  484MOL0     H63827  11.632   7.444  11.443 -1.0300  1.0566 -1.7545
  484MOL0     H63828  11.714   7.300  11.471  0.2511 -0.8958 -0.6074
  484MOL0     H63829  11.506   7.171  11.426  1.8620  0.3857 -2.3193
  484MOL0     H63830  11.411   7.319  11.395 -1.1110  0.8879  1.2044
  484MOL0     H63831  11.531   7.224  11.668  0.4620  1.4233  2.4257
  484MOL0     H63832  11.483   7.396  11.635 -1.6852 -1.0961  3.3110
  484MOL0     H63833  11.279   7.173  11.583 -0.1209 -0.3935 -0.0018
  484MOL0     H63834  11.251   7.340  11.618  2.0523  1.8276  1.2981
  484MOL0     H63835  11.319   7.294  11.852 -2.8402 -0.1129  0.5974
  484MOL0     H63836  11.369   7.128  11.806 -2.6577 -2.5331 -2.8770
  484MOL0     H63837  11.146   7.072  11.768  2.2313 -0.1255  0.4806
  484MOL0     H63838  11.148   7.133  11.935  0.8796 -1.9758  0.0001
  484MOL0     H63839  10.950   7.204  11.805 -0.0440  0.6603 -2.8770
  484MOL0     H63840  11.042   7.304  11.699 -2.4565 -2.1865 -1.6380
  484MOL0     H63841  11.074   7.534  11.752 -1.9486  3.8627  0.4017
  484MOL0     H63842  11.044   7.737  12.090  0.3074 -1.9899  0.0926
  484MOL0     H63843  10.984   7.772  11.922  3.3126  1.3573 -4.0785
  484MOL0     H63844  11.207   7.781  11.845 -3.6017  0.2500  0.6403
  484MOL0     H63845  11.267   7.690  11.992  0.1120  0.0244 -0.0573
  484MOL0     H63846  11.240   7.880  12.144 -0.9813  1.5216  1.0478
  484MOL0     H63847  11.323   7.949  12.008 -0.4141 -1.4138 -1.0006
  484MOL0     H63848  11.137   8.096  12.071 -3.5285 -1.8823  2.8890
  484MOL0     H63849  11.021   7.981  12.037 -1.5252  0.0489 -2.3145
  484MOL0     H63850  11.171   8.057  11.621 -0.6747 -0.0370  1.8936
  484MOL0     H63851  11.352   8.196  11.509  2.0685  1.7104  0.9443
  484MOL0     H63852  11.565   8.555  11.435  1.9175 -0.9533  3.8347
  484MOL0     H63853  11.681   8.668  11.250 -1.0759  0.1956 -2.0535
  484MOL0     H63854  11.660   8.609  11.014 -1.6879 -1.5323 -1.2451
  484MOL0     H63855  11.708   8.456  10.954  1.2218  0.4830 -2.3815
  484MOL0     H63856  11.856   8.706  10.856  0.5100 -0.0244  0.8517
  484MOL0     H63857  11.724   8.604  10.789  1.5572 -1.0511 -1.5816
  484MOL0     H63858  12.016   8.555  10.745  0.5517 -4.5350 -1.5790
  484MOL0     H63859  11.864   8.489  10.675 -2.2925  3.1409 -0.3467
  484MOL0     H63860  12.013   8.410  10.931 -0.6312 -1.7857  0.7451
  484MOL0     H63861  11.866   8.334  10.853  1.0118 -1.2504 -1.3245
  484MOL0     H63862  12.073   8.210  10.807  0.5207 -1.4682 -1.9004
  484MOL0     H63863  12.140   8.365  10.759 -1.7348  2.8536  3.7886
  484MOL0     H63864  12.085   8.196  10.580 -0.9926 -2.5440  1.5610
  484MOL0     H63865  11.942   8.315  10.565 -4.6439 -1.6849  1.8697
  484MOL0     H63866  11.926   8.062  10.540 -1.2467  0.1702 -0.7571
  484MOL0     H63867  11.930   8.075  10.721 -0.4417  0.0660  0.0964
  484MOL0     H63868  11.736   8.214  10.718  0.0394 -0.1025  1.0262
  484MOL0     H63869  11.699   8.078  10.610  0.6215 -0.2909  0.8912
  484MOL0     H63870  11.884   8.305  11.155  2.8372  0.1526  2.8989
  484MOL0     H63871  11.775   8.200  11.338  2.1959  0.3656  0.0578
  484MOL0     H63872  11.478   8.351  11.888  2.5477 -1.0824 -0.2359
  484MOL0     H63873  11.318   8.211  11.993  2.1999  1.4847 -0.7573
  484MOL0     H63874  11.657   7.524  10.981 -3.4537  2.0167 -3.1202
  484MOL0     H63875  11.647   7.400  10.762 -0.9501  0.5201 -0.2393
  484MOL0     H63876  11.582   7.103  10.496 -0.2530  2.5841  1.1022
  484MOL0     H63877  11.585   6.971  10.279 -0.4709  3.3304 -1.4265
  484MOL0     H63878  11.253   6.750  10.107  0.1911  0.2140 -0.9079
  484MOL0     H63879  11.288   6.676  10.265 -1.7650  0.0088 -0.4807
  484MOL0     H63880  11.445   6.638  10.010 -2.0010  3.1387 -0.3679
  484MOL0     H63881  11.502   6.572  10.160 -0.7115  0.9688  1.3930
  484MOL0     H63882  11.220   6.488  10.124 -2.2806 -4.6912 -4.7991
  484MOL0     H63883  11.373   6.399  10.173  4.6623 -0.1785 -0.9977
  484MOL0     H63884  11.426   6.388   9.910  1.0422 -0.3491  1.1651
  484MOL0     H63885  11.296   6.298   9.958  0.7261 -1.2874 -2.1572
  484MOL0     H63886  11.107   6.637   9.761 -0.1480 -0.7181  1.0585
  484MOL0     H63887  11.184   6.872  10.324  0.3298 -1.7789 -2.5425
  484MOL0     H63888  11.162   7.034  10.503 -1.8358 -4.0638 -2.7740
  485MOL0     O63889   1.911   2.574   1.510 -0.8773  0.4117 -0.1724
  485MOL0     C63890   1.876   2.689   1.537 -0.0398  0.4247  0.1219
  485MOL0     O63891   1.953   2.799   1.541 -0.5138 -0.0349  0.6386
  485MOL0     C63892   2.091   2.786   1.543  0.2547  0.2364 -0.9213
  485MOL0     C63893   2.170   2.682   1.608  0.0419 -0.5070  0.3688
  485MOL0     C63894   2.310   2.688   1.606 -0.1226  0.3034  0.1463
  485MOL0     C63895   2.377   2.788   1.539  0.0914  0.1018 -1.1489
  485MOL0     O63896   2.515   2.785   1.534 -0.2713  0.5408  0.4973
  485MOL0     C63897   2.592   2.905   1.518  0.2550 -0.0212  0.3874
  485MOL0     C63898   2.739   2.879   1.542 -0.3620  0.5821 -0.1249
  485MOL0     C63899   2.840   2.993   1.508 -0.0071  0.0012 -0.0050
  485MOL0     C63900   2.909   2.968   1.373  0.5292 -0.6883 -0.4681
  485MOL0     C63901   2.963   3.101   1.332  0.0947  0.1939  0.0338
  485MOL0     C63902   3.038   3.081   1.194 -0.8529 -0.4263  0.7584
  485MOL0     C63903   3.074   3.222   1.134 -0.4515 -0.3800  0.4582
  485MOL0     C63904   3.132   3.197   0.998  0.2690  0.3554  0.2669
  485MOL0     N63905   3.152   3.321   0.915  0.1093  0.9685 -0.0293
  485MOL0     C63906   3.170   3.445   0.963 -0.0350 -0.5248 -0.2840
  485MOL0     C63907   3.147   3.526   0.854 -0.2304  0.3872  1.0690
  485MOL0     C63908   3.186   3.677   0.859  0.1463 -0.6584 -0.3436
  485MOL0     C63909   3.311   3.728   0.778  0.3273 -0.1481  0.2412
  485MOL0     C63910   3.427   3.773   0.867  0.4993 -0.4863 -0.0580
  485MOL0     C63911   3.459   3.925   0.894  0.3781  0.1340 -1.2252
  485MOL0     O63912   3.333   3.990   0.928 -0.4159 -0.2573  0.8389
  485MOL0     C63913   3.321   4.123   0.920  0.9348  0.0207  0.8036
  485MOL0     C63914   3.193   4.169   0.923 -0.6999  0.6195  0.5067
  485MOL0     C63915   3.159   4.302   0.927  0.9297  0.3476  0.3292
  485MOL0     C63916   3.249   4.402   0.918 -0.2300 -0.9358 -0.3631
  485MOL0     C63917   3.202   4.541   0.911 -0.7140 -1.2071  0.5109
  485MOL0     O63918   3.066   4.553   0.874 -0.3708  0.3564 -0.9492
  485MOL0     C63919   3.008   4.670   0.841 -0.2325  0.2493 -0.3638
  485MOL0     C63920   3.014   4.780   0.932  0.5792  0.5953 -0.4388
  485MOL0     C63921   2.940   4.893   0.905  1.4317 -0.0287  1.0536
  485MOL0     C63922   2.882   4.903   0.780  1.3056  0.2162 -0.1799
  485MOL0     O63923   2.826   5.017   0.741 -0.0705 -0.5652  0.6414
  485MOL0     C63924   2.904   5.100   0.649 -0.7554 -0.8717 -0.0466
  485MOL0     C63925   2.885   5.066   0.502 -0.5052 -0.8191 -0.0417
  485MOL0     C63926   2.991   4.968   0.451 -0.0907 -0.4980  0.2474
  485MOL0     C63927   3.098   5.051   0.362  0.7858  0.4345  0.0157
  485MOL0     C63928   3.217   4.972   0.308  0.4273  0.5580  0.4013
  485MOL0     C63929   3.200   4.862   0.206  0.3975 -0.7671  0.5475
  485MOL0     C63930   3.170   4.926   0.070 -0.7842 -0.5912 -0.4907
  485MOL0     C63931   3.160   4.811  -0.023 -0.2867 -0.5229  0.0804
  485MOL0    Cl63932   3.049   4.679  -0.000 -0.2175  0.7488  0.0865
  485MOL0     C63933   2.864   4.795   0.699  0.4755 -0.3646  0.2279
  485MOL0     C63934   2.933   4.678   0.727  0.3406 -0.0020 -0.5655
  485MOL0     O63935   3.288   4.634   0.924  0.8431  1.1686  0.0515
  485MOL0     C63936   3.383   4.364   0.923 -1.2774  0.0939  0.2542
  485MOL0     C63937   3.422   4.226   0.921 -0.3807  0.8402  0.8272
  485MOL0     N63938   3.102   3.448   0.743 -0.6411 -0.0512 -0.1433
  485MOL0     N63939   3.122   3.326   0.782  0.4354  0.2064  0.1110
  485MOL0     C63940   2.301   2.903   1.486  0.0023 -0.3430  0.3300
  485MOL0     C63941   2.157   2.901   1.492 -1.1580  0.0860  0.1988
  485MOL0     C63942   1.731   2.713   1.550 -0.6143 -0.4672  0.1940
  485MOL0     C63943   1.672   2.839   1.529 -0.3856 -0.5011  0.9888
  485MOL0     C63944   1.535   2.846   1.502 -0.2390 -0.1610 -0.8222
  485MOL0     C63945   1.451   2.737   1.492 -0.0640  0.1153 -1.0749
  485MOL0     O63946   1.317   2.744   1.468 -0.0975  0.4559  0.0812
  485MOL0     C63947   1.245   2.795   1.584  0.2026 -0.1052  0.1760
  485MOL0     C63948   1.149   2.898   1.530 -0.2500  0.6392 -0.2390
  485MOL0     C63949   1.221   3.032   1.539  0.0898 -0.3173  0.4248
  485MOL0     C63950   1.124   3.148   1.491  0.4253 -0.0388  0.2901
  485MOL0     C63951   1.006   3.165   1.576 -0.8588 -0.5732 -0.1138
  485MOL0     C63952   0.904   3.163   1.630  0.4708  0.1698  0.4047
  485MOL0     C63953   1.515   2.618   1.513  0.5828 -0.5444  0.1408
  485MOL0     C63954   1.645   2.605   1.542 -0.1855  0.5942 -0.1968
  485MOL0     H63955   2.116   2.607   1.666 -1.2934  3.3901  4.8272
  485MOL0     H63956   2.362   2.615   1.667  2.0141  2.0382  0.5334
  485MOL0     H63957   2.547   2.990   1.570  0.0073  1.1690 -1.6793
  485MOL0     H63958   2.596   2.924   1.410 -0.0716 -0.9801  0.1913
  485MOL0     H63959   2.759   2.788   1.485 -2.5828 -0.0208 -0.0359
  485MOL0     H63960   2.750   2.858   1.649  1.4756  4.2593  0.5611
  485MOL0     H63961   2.924   2.984   1.577 -0.0978 -0.9043 -0.0011
  485MOL0     H63962   2.804   3.095   1.523  0.8138  0.6186 -1.8656
  485MOL0     H63963   2.988   2.893   1.379  0.7861 -0.2684  2.3445
  485MOL0     H63964   2.840   2.935   1.294  1.5916  2.0103 -2.7016
  485MOL0     H63965   3.026   3.149   1.409  3.5622  0.4662 -2.7131
  485MOL0     H63966   2.879   3.170   1.324  0.9219  1.3446  0.9437
  485MOL0     H63967   2.972   3.018   1.134 -0.9920 -0.5077  0.9974
  485MOL0     H63968   3.121   3.013   1.217 -0.2960 -0.5224 -1.3456
  485MOL0     H63969   2.974   3.266   1.122  0.1231  1.2528  1.4005
  485MOL0     H63970   3.128   3.292   1.198 -1.7094  4.2554 -3.0083
  485MOL0     H63971   3.069   3.126   0.943  0.1193  0.0036  0.8813
  485MOL0     H63972   3.224   3.139   1.013  1.3425  1.4548 -1.6369
  485MOL0     H63973   3.217   3.480   1.054  1.6263 -1.8730 -0.5828
  485MOL0     H63974   3.193   3.699   0.966 -0.9405 -2.0694  0.0514
  485MOL0     H63975   3.100   3.734   0.823 -0.3591 -0.1687  1.5079
  485MOL0     H63976   3.299   3.810   0.706 -2.4761 -2.2152 -1.9085
  485MOL0     H63977   3.344   3.641   0.720 -4.3348 -3.2493  1.7196
  485MOL0     H63978   3.428   3.716   0.960  1.6630 -0.6010 -0.1275
  485MOL0     H63979   3.514   3.758   0.803  1.9904  2.1953  1.1279
  485MOL0     H63980   3.514   3.981   0.818  1.9504 -0.6139 -0.6854
  485MOL0     H63981   3.518   3.931   0.986  0.8265  4.2477 -1.6266
  485MOL0     H63982   3.117   4.092   0.925 -2.3074  2.0909 -0.3419
  485MOL0     H63983   3.051   4.306   0.923  0.7970 -1.9565 -0.3867
  485MOL0     H63984   3.071   4.783   1.024  1.7389  0.1304 -1.1140
  485MOL0     H63985   2.930   4.987   0.957 -0.4488 -0.5271  1.6840
  485MOL0     H63986   3.004   5.110   0.690 -1.1539  0.1466  0.7297
  485MOL0     H63987   2.855   5.198   0.657  0.3516 -0.3892  1.0850
  485MOL0     H63988   2.899   5.160   0.448  0.8548 -0.2580  1.2239
  485MOL0     H63989   2.789   5.018   0.482 -0.3620 -2.1337  2.0070
  485MOL0     H63990   2.945   4.899   0.380 -0.9892  0.3917 -0.0536
  485MOL0     H63991   3.031   4.910   0.535  1.1053 -0.2665 -0.1476
  485MOL0     H63992   3.034   5.088   0.281 -1.9405  1.8600  2.6207
  485MOL0     H63993   3.132   5.138   0.419 -1.9538 -0.3011  3.0789
  485MOL0     H63994   3.274   4.926   0.389  1.6504 -0.5337 -1.0303
  485MOL0     H63995   3.288   5.041   0.262 -0.7477 -0.4971 -3.3009
  485MOL0     H63996   3.113   4.799   0.227 -0.5626 -0.8828 -3.0991
  485MOL0     H63997   3.291   4.802   0.207  1.4291  0.7422  1.4300
  485MOL0     H63998   3.078   4.984   0.062 -0.2525  0.2992 -0.2673
  485MOL0     H63999   3.256   4.990   0.047  1.2637 -1.9565  2.6052
  485MOL0     H64000   3.262   4.777  -0.039 -0.2202  0.1035 -0.9024
  485MOL0     H64001   3.126   4.847  -0.121 -0.0011 -1.1073 -0.2411
  485MOL0     H64002   2.802   4.791   0.610  4.8563 -4.5138 -3.1548
  485MOL0     H64003   2.935   4.599   0.652  0.0378  2.6400 -3.5846
  485MOL0     H64004   3.459   4.441   0.926 -1.2908  0.3398 -2.6121
  485MOL0     H64005   3.529   4.209   0.914 -0.2263  2.2565 -0.7506
  485MOL0     H64006   2.348   2.985   1.432 -0.7108 -2.1599 -3.3853
  485MOL0     H64007   2.092   2.980   1.455 -1.1888 -0.3054 -0.5986
  485MOL0     H64008   1.733   2.920   1.490  0.4703 -1.1412  0.9714
  485MOL0     H64009   1.497   2.946   1.484 -0.4044 -0.5244 -2.7859
  485MOL0     H64010   1.315   2.829   1.662 -1.4582  0.3186  1.5557
  485MOL0     H64011   1.186   2.712   1.625  1.1885 -1.8794 -1.8030
  485MOL0     H64012   1.110   2.871   1.431  6.0295 -1.4779 -2.6441
  485MOL0     H64013   1.064   2.915   1.596  0.2870  0.2014  0.5746
  485MOL0     H64014   1.296   3.044   1.460 -0.6652 -0.6108 -0.3572
  485MOL0     H64015   1.262   3.041   1.640  0.0294  1.3832  0.3343
  485MOL0     H64016   1.187   3.237   1.500  0.0024  0.0827  2.4360
  485MOL0     H64017   1.087   3.137   1.388 -1.5180 -0.8040  1.0292
  485MOL0     H64018   0.802   3.167   1.663 -0.1195  2.2139 -1.4233
  485MOL0     H64019   1.454   2.528   1.510  1.9401 -1.8199  4.3249
  485MOL0     H64020   1.681   2.505   1.561 -0.7648  0.6345  1.2114
  486MOL0     O64021  10.936   0.931   4.707 -0.0497  0.1070 -0.4724
  486MOL0     C64022  10.973   0.918   4.827 -0.1912  0.7648  0.6307
  486MOL0     O64023  11.032   1.015   4.900  0.0235  0.8747 -0.1075
  486MOL0     C64024  11.093   1.119   4.833  0.4290 -0.4885  0.5843
  486MOL0     C64025  11.012   1.221   4.781 -0.3753  1.0907 -0.1580
  486MOL0     C64026  11.073   1.328   4.706  1.0278  0.9007 -0.0619
  486MOL0     C64027  11.213   1.341   4.694  0.9744  0.9405 -0.8707
  486MOL0     O64028  11.266   1.434   4.613  0.0525  0.2164  0.0263
  486MOL0     C64029  11.381   1.508   4.652  0.4229  1.1226  0.1420
  486MOL0     C64030  11.355   1.586   4.779 -0.1600 -0.5481 -0.6763
  486MOL0     C64031  11.273   1.710   4.743  0.0085  0.7437  0.1516
  486MOL0     C64032  11.361   1.833   4.702  0.5112 -0.2598  0.8204
  486MOL0     C64033  11.268   1.937   4.636  0.2716 -0.0842 -0.3226
  486MOL0     C64034  11.341   2.069   4.618 -0.4476 -0.1508  0.5644
  486MOL0     C64035  11.273   2.172   4.533  0.2893  0.7733  0.3231
  486MOL0     C64036  11.341   2.182   4.394  0.6984 -0.3453 -0.2240
  486MOL0     N64037  11.371   2.054   4.324 -0.9347  0.1530  0.0787
  486MOL0     C64038  11.298   1.949   4.277  0.1032 -0.1357 -1.0467
  486MOL0     C64039  11.386   1.852   4.248  0.2290 -0.9811  0.4766
  486MOL0     C64040  11.363   1.704   4.220  0.0706 -1.1036  0.7592
  486MOL0     C64041  11.209   1.676   4.230  0.0973 -1.2658  0.1885
  486MOL0     C64042  11.162   1.549   4.159 -0.1883 -0.2356 -0.2653
  486MOL0     C64043  11.153   1.545   4.006 -0.1869  0.0909  1.1062
  486MOL0     O64044  11.106   1.411   3.976  0.1316  0.1473 -1.2417
  486MOL0     C64045  11.079   1.370   3.848  0.7835 -0.5001 -0.5496
  486MOL0     C64046  10.985   1.268   3.833  0.2238 -0.3566 -0.0363
  486MOL0     C64047  10.953   1.225   3.705  0.5737 -0.2146 -0.1363
  486MOL0     C64048  11.019   1.273   3.597  0.3581  0.3205 -0.0573
  486MOL0     C64049  10.988   1.226   3.462  0.2358 -1.1184 -1.0002
  486MOL0     O64050  11.073   1.261   3.363  0.1981 -0.5333  0.2617
  486MOL0     C64051  11.055   1.236   3.231  0.1455  0.9128  0.3601
  486MOL0     C64052  11.169   1.210   3.157 -0.1951 -0.9130  0.3309
  486MOL0     C64053  11.172   1.200   3.016 -0.3570 -0.2928  0.3796
  486MOL0     C64054  11.048   1.225   2.944 -1.1197  0.3241  0.4524
  486MOL0     O64055  11.030   1.222   2.803  0.8299  0.1302  0.1455
  486MOL0     C64056  11.132   1.305   2.729  0.7236  0.3741 -1.0990
  486MOL0     C64057  11.080   1.349   2.601  0.1740 -0.2228 -0.2770
  486MOL0     C64058  10.971   1.251   2.536 -0.4637 -0.2623 -0.3701
  486MOL0     C64059  11.028   1.140   2.457 -0.5895  0.1203  0.2535
  486MOL0     C64060  10.908   1.052   2.402  0.1061  0.4331 -0.6901
  486MOL0     C64061  10.944   0.962   2.295  0.1355  0.4117  0.4335
  486MOL0     C64062  10.830   0.890   2.223 -0.2917 -0.0934 -0.0715
  486MOL0     C64063  10.866   0.875   2.081 -0.3486 -0.0734 -0.0894
  486MOL0    Cl64064  10.756   0.762   2.009  0.0740  0.2993 -0.1990
  486MOL0     C64065  10.928   1.241   3.017 -0.7185  0.2185  0.0201
  486MOL0     C64066  10.937   1.255   3.158  0.1570 -0.2509 -0.0161
  486MOL0     O64067  10.880   1.161   3.449  0.2086 -0.6695  0.1869
  486MOL0     C64068  11.127   1.359   3.612 -0.6106  0.2405 -0.1664
  486MOL0     C64069  11.151   1.415   3.737 -0.8479 -0.4428 -0.2368
  486MOL0     N64070  11.506   1.904   4.264 -0.3968  0.5160 -0.1522
  486MOL0     N64071  11.500   2.017   4.303  0.0138  0.6446 -0.8237
  486MOL0     C64072  11.288   1.242   4.759  0.2331  0.2708  0.1087
  486MOL0     C64073  11.229   1.142   4.836  0.0588  1.4913  0.4782
  486MOL0     C64074  10.932   0.788   4.903 -0.5980 -0.1634  0.4619
  486MOL0     C64075  10.842   0.698   4.846 -1.1079 -0.4066 -0.2507
  486MOL0     C64076  10.807   0.583   4.911  0.0567 -0.6042 -0.7548
  486MOL0     C64077  10.862   0.549   5.036  0.3204 -1.1554 -0.8357
  486MOL0     O64078  10.828   0.448   5.120  0.0760 -0.2461  0.1310
  486MOL0     C64079  10.706   0.382   5.094  1.2002 -0.1627  0.7991
  486MOL0     C64080  10.685   0.279   5.207 -1.0254  0.5802  0.0908
  486MOL0     C64081  10.640   0.361   5.331  0.3202 -0.0246  0.6922
  486MOL0     C64082  10.657   0.288   5.467 -0.2304  0.6904 -0.2127
  486MOL0     C64083  10.535   0.212   5.482 -0.4231  0.5761  0.1310
  486MOL0     C64084  10.440   0.140   5.514 -1.2466 -0.9996 -0.6776
  486MOL0     C64085  10.958   0.634   5.090  0.2163  0.7357  0.6754
  486MOL0     C64086  10.988   0.754   5.030  0.4875  0.5869 -0.1574
  486MOL0     H64087  10.904   1.216   4.790 -0.5101 -1.7019 -1.9578
  486MOL0     H64088  11.013   1.411   4.670 -1.9619  1.1263  4.6035
  486MOL0     H64089  11.407   1.561   4.560  0.0749 -1.3368 -1.4541
  486MOL0     H64090  11.464   1.441   4.673  0.0518  0.9172  0.9934
  486MOL0     H64091  11.456   1.617   4.809  0.0402  3.4798 -4.6091
  486MOL0     H64092  11.294   1.536   4.855 -1.5380 -0.6130 -1.8071
  486MOL0     H64093  11.218   1.744   4.831 -1.6534 -0.9234 -0.2039
  486MOL0     H64094  11.207   1.681   4.661  0.2158  1.3629 -0.2369
  486MOL0     H64095  11.418   1.871   4.787  0.6067  1.3143  0.0942
  486MOL0     H64096  11.426   1.797   4.623  1.2174 -0.7471  1.6091
  486MOL0     H64097  11.189   1.954   4.710  0.6253  0.0811  0.0232
  486MOL0     H64098  11.230   1.899   4.541 -1.0667 -1.3533  0.6831
  486MOL0     H64099  11.441   2.043   4.582 -0.1681 -2.3388  2.6510
  486MOL0     H64100  11.356   2.106   4.719  0.9910 -0.5905  0.5339
  486MOL0     H64101  11.169   2.141   4.516 -0.1157  1.1008  2.0534
  486MOL0     H64102  11.278   2.265   4.590  1.0761 -0.1865  1.8744
  486MOL0     H64103  11.436   2.237   4.401  0.6959 -0.5059  3.2646
  486MOL0     H64104  11.285   2.238   4.319  4.0024  1.3537 -1.6322
  486MOL0     H64105  11.190   1.943   4.267  0.2959  0.4323 -4.3079
  486MOL0     H64106  11.413   1.640   4.294  1.7697  2.1277  2.6509
  486MOL0     H64107  11.393   1.687   4.116 -1.9764 -1.3953  0.1652
  486MOL0     H64108  11.168   1.756   4.167 -0.9775 -1.7931  0.1964
  486MOL0     H64109  11.189   1.671   4.337  0.3666  1.2513  0.4115
  486MOL0     H64110  11.236   1.472   4.181  0.9594  0.3153 -2.0329
  486MOL0     H64111  11.071   1.510   4.205  0.3903 -0.6084  0.5949
  486MOL0     H64112  11.248   1.572   3.958 -1.7830  1.4786 -1.5274
  486MOL0     H64113  11.069   1.609   3.979 -0.5079  0.5291  2.9952
  486MOL0     H64114  10.944   1.223   3.923  0.4418 -0.4685  0.0072
  486MOL0     H64115  10.871   1.153   3.702  0.4008 -0.4598  4.2603
  486MOL0     H64116  11.261   1.198   3.213 -0.2971  0.0237  0.7216
  486MOL0     H64117  11.265   1.188   2.962 -1.8767 -1.4595 -2.1970
  486MOL0     H64118  11.216   1.239   2.710  0.9980  0.0514  1.0807
  486MOL0     H64119  11.159   1.392   2.790 -2.8629  2.0772 -1.6189
  486MOL0     H64120  11.169   1.341   2.537 -0.8652 -0.9657 -1.6862
  486MOL0     H64121  11.048   1.453   2.606  0.5339 -0.0273 -1.6069
  486MOL0     H64122  10.912   1.308   2.464 -1.6736 -2.0370 -0.8369
  486MOL0     H64123  10.912   1.198   2.611  0.3463 -0.0767  0.4089
  486MOL0     H64124  11.092   1.176   2.375  1.8039 -5.0160 -0.4722
  486MOL0     H64125  11.095   1.079   2.517 -0.0824  2.0798  1.8003
  486MOL0     H64126  10.829   1.121   2.371  1.8483  2.5347 -0.6520
  486MOL0     H64127  10.866   1.000   2.488 -1.4350  2.9023  0.1414
  486MOL0     H64128  11.019   0.888   2.327 -1.6809 -1.3940  0.7029
  486MOL0     H64129  10.986   1.034   2.224 -2.1724 -0.2672 -1.7149
  486MOL0     H64130  10.812   0.788   2.259  1.5500 -0.7808 -0.9342
  486MOL0     H64131  10.743   0.955   2.234  0.6893  1.1425  0.5942
  486MOL0     H64132  10.970   0.840   2.072 -0.4837 -0.1910 -1.4628
  486MOL0     H64133  10.857   0.975   2.037 -0.7081  0.1244  0.4310
  486MOL0     H64134  10.831   1.252   2.969  0.5015  0.1161 -2.6223
  486MOL0     H64135  10.850   1.290   3.213 -1.0600  1.0771 -2.5947
  486MOL0     H64136  11.185   1.397   3.529 -0.6072  0.7142  0.0510
  486MOL0     H64137  11.226   1.491   3.750 -1.7669  0.6346 -1.0627
  486MOL0     H64138  11.396   1.246   4.750  0.3727 -1.6607  0.4591
  486MOL0     H64139  11.307   1.071   4.860 -2.2103 -2.5103 -2.6959
  486MOL0     H64140  10.787   0.722   4.755  0.5317 -1.7279 -1.6646
  486MOL0     H64141  10.738   0.521   4.855 -0.4336 -0.9617  0.2312
  486MOL0     H64142  10.711   0.323   5.002  0.9252  3.9712 -2.1652
  486MOL0     H64143  10.618   0.448   5.092  0.2945 -1.2742 -2.6275
  486MOL0     H64144  10.617   0.195   5.186  1.1308 -1.1836 -0.2339
  486MOL0     H64145  10.779   0.227   5.222 -0.3315  0.4151 -3.7059
  486MOL0     H64146  10.538   0.400   5.327  1.1576  2.2478 -0.3421
  486MOL0     H64147  10.715   0.441   5.326  0.5799 -0.3642 -1.4046
  486MOL0     H64148  10.741   0.220   5.457 -0.3761  0.1093  1.9818
  486MOL0     H64149  10.681   0.357   5.548 -0.2624 -0.7892  1.0994
  486MOL0     H64150  10.361   0.071   5.536 -1.5426 -0.0401  1.5175
  486MOL0     H64151  11.014   0.602   5.177  1.4174  2.8904  0.7499
  486MOL0     H64152  11.066   0.813   5.076  1.1616 -1.4215  1.3920
  487MOL0     O64153   8.864   1.527  10.497  0.1443  0.2724  0.7312
  487MOL0     C64154   8.892   1.485  10.387  0.1557  0.5920 -0.0675
  487MOL0     O64155   8.841   1.531  10.263 -0.1789 -1.2006  0.2651
  487MOL0     C64156   8.748   1.635  10.263 -0.0821  1.0351  0.0214
  487MOL0     C64157   8.766   1.756  10.195 -0.1677  0.3287 -0.4150
  487MOL0     C64158   8.667   1.854  10.197 -0.4278 -0.5388  0.3319
  487MOL0     C64159   8.547   1.838  10.268 -0.6030 -0.0736 -0.1462
  487MOL0     O64160   8.449   1.934  10.261  0.1159 -0.2021  0.1413
  487MOL0     C64161   8.427   2.023  10.146  0.0412  0.6205  0.0264
  487MOL0     C64162   8.351   1.965  10.023  0.0711  0.7226  0.7546
  487MOL0     C64163   8.421   1.863   9.934 -0.7548 -0.1923 -0.5431
  487MOL0     C64164   8.528   1.932   9.840  0.4358 -0.0384  0.0801
  487MOL0     C64165   8.586   1.843   9.732  0.0438  0.5889 -0.2190
  487MOL0     C64166   8.680   1.746   9.784 -0.3290 -0.1929  0.5129
  487MOL0     C64167   8.754   1.672   9.665 -0.7181  0.1992  0.1126
  487MOL0     C64168   8.855   1.568   9.712 -0.3443  0.3037  0.1177
  487MOL0     N64169   8.882   1.460   9.612 -0.1108  0.7052 -0.6893
  487MOL0     C64170   8.978   1.447   9.516 -1.2724 -0.5670  0.1096
  487MOL0     C64171   8.957   1.333   9.443  0.4558 -0.4254 -0.4954
  487MOL0     C64172   9.037   1.288   9.325 -0.3040  0.3253 -0.1824
  487MOL0     C64173   8.981   1.341   9.197 -0.3874 -0.5808  0.8563
  487MOL0     C64174   9.004   1.238   9.073 -0.4954 -0.3039 -0.5204
  487MOL0     C64175   8.956   1.309   8.945  0.1230  0.3486 -0.1591
  487MOL0     O64176   8.935   1.218   8.840 -0.5781 -0.1771 -0.1710
  487MOL0     C64177   8.989   1.255   8.715  0.2829  0.8000  0.5843
  487MOL0     C64178   8.987   1.374   8.652  0.1420  0.1525  0.0809
  487MOL0     C64179   9.055   1.390   8.528 -0.0290 -0.1396 -0.4749
  487MOL0     C64180   9.130   1.291   8.466 -0.6989  0.3028  0.4958
  487MOL0     C64181   9.206   1.306   8.338 -0.0450 -0.2137  0.6667
  487MOL0     O64182   9.155   1.387   8.231  0.1858 -0.1354 -0.2277
  487MOL0     C64183   9.244   1.415   8.132 -0.3444 -0.3443  0.1401
  487MOL0     C64184   9.366   1.480   8.154  0.2597  0.1871 -0.5787
  487MOL0     C64185   9.456   1.497   8.049  0.3902  0.9620  0.4023
  487MOL0     C64186   9.428   1.446   7.922  0.3818 -0.4309 -0.8010
  487MOL0     O64187   9.519   1.450   7.817 -0.0150 -0.1141 -0.1165
  487MOL0     C64188   9.607   1.558   7.809 -0.1078 -0.6080  0.0763
  487MOL0     C64189   9.687   1.538   7.675 -0.8986  0.1276  0.5551
  487MOL0     C64190   9.744   1.397   7.643 -0.0155  0.7593 -0.9393
  487MOL0     C64191   9.859   1.336   7.731  0.8150 -0.7002  0.3038
  487MOL0     C64192   9.896   1.204   7.663 -0.0062  0.3513  0.1671
  487MOL0     C64193  10.027   1.155   7.707  0.6557  0.1960 -0.0166
  487MOL0     C64194  10.064   1.022   7.625 -0.7451  0.9471  0.2536
  487MOL0     C64195  10.016   0.887   7.684  0.0937  0.8746 -0.4854
  487MOL0    Cl64196  10.018   0.757   7.556 -0.0351 -0.1505 -0.1134
  487MOL0     C64197   9.298   1.398   7.894  0.1813  0.3573  0.1114
  487MOL0     C64198   9.206   1.376   8.005 -0.4932  0.5266 -0.4324
  487MOL0     O64199   9.316   1.249   8.340  0.2262  0.2961 -0.0974
  487MOL0     C64200   9.123   1.165   8.526  0.4094  0.4694  0.2885
  487MOL0     C64201   9.048   1.151   8.653 -0.3911  0.4643  0.6674
  487MOL0     N64202   8.832   1.291   9.481 -0.3684  0.3902 -0.2867
  487MOL0     N64203   8.790   1.368   9.574 -0.4077  0.1817  0.1505
  487MOL0     C64204   8.522   1.719  10.336  0.1938 -0.3361 -0.5818
  487MOL0     C64205   8.632   1.624  10.334  0.2885  0.5069  0.4185
  487MOL0     C64206   9.004   1.385  10.390 -0.8155  0.2746  0.8381
  487MOL0     C64207   9.050   1.343  10.266  0.3048  0.2904  0.2560
  487MOL0     C64208   9.143   1.237  10.251 -0.7950 -0.2668  0.1475
  487MOL0     C64209   9.203   1.186  10.370  0.6312 -0.5379  0.6522
  487MOL0     O64210   9.306   1.102  10.367 -0.4985 -0.6104 -0.2766
  487MOL0     C64211   9.349   1.028  10.244  0.0111  0.5860  1.1092
  487MOL0     C64212   9.471   0.929  10.265 -0.0013 -0.7342  0.2906
  487MOL0     C64213   9.452   0.845  10.394  0.4375  0.3279 -1.0203
  487MOL0     C64214   9.558   0.736  10.408  0.0056 -0.5317 -0.1403
  487MOL0     C64215   9.697   0.782  10.413 -0.0974  0.0017 -0.3093
  487MOL0     C64216   9.811   0.808  10.437  0.0522  0.9331 -0.4593
  487MOL0     C64217   9.164   1.242  10.493 -0.4460  0.7846 -0.0345
  487MOL0     C64218   9.064   1.334  10.506 -0.2628  0.0845 -0.0494
  487MOL0     H64219   8.854   1.782  10.137  0.2714  0.5473  0.3458
  487MOL0     H64220   8.684   1.944  10.139 -0.9726  1.0527  2.4943
  487MOL0     H64221   8.516   2.070  10.103 -0.3852  1.4143 -0.0056
  487MOL0     H64222   8.358   2.101  10.179 -1.2989 -0.1205 -0.8864
  487MOL0     H64223   8.315   2.051   9.966 -0.5371  0.4153  0.6646
  487MOL0     H64224   8.259   1.915  10.052 -1.2361 -0.8920 -4.9214
  487MOL0     H64225   8.342   1.818   9.874 -1.6216  1.2182 -0.5072
  487MOL0     H64226   8.466   1.781   9.990  2.5239  1.6069 -0.2704
  487MOL0     H64227   8.486   2.027   9.805  4.6154  1.8222 -0.5632
  487MOL0     H64228   8.611   1.977   9.896 -1.5854  1.6490  1.9329
  487MOL0     H64229   8.646   1.899   9.660  2.6102 -3.0415 -1.2428
  487MOL0     H64230   8.506   1.791   9.679  0.5182 -2.0524  1.4529
  487MOL0     H64231   8.611   1.670   9.824 -0.2675 -1.2707 -1.3397
  487MOL0     H64232   8.746   1.783   9.863 -0.5701 -1.8138  1.5250
  487MOL0     H64233   8.682   1.614   9.607  1.4587 -1.5748 -0.9747
  487MOL0     H64234   8.811   1.732   9.594  1.1487 -0.1268  1.2662
  487MOL0     H64235   8.825   1.521   9.806 -3.6232  1.0433 -0.4589
  487MOL0     H64236   8.946   1.618   9.747 -0.3826  0.5823 -0.1782
  487MOL0     H64237   9.061   1.515   9.499 -1.9762 -0.4686 -3.8831
  487MOL0     H64238   9.034   1.179   9.322  0.3872  0.3268 -1.6546
  487MOL0     H64239   9.141   1.314   9.344 -1.0945  3.2060  0.7962
  487MOL0     H64240   9.021   1.441   9.174 -1.5476 -0.0173  1.1968
  487MOL0     H64241   8.873   1.350   9.209 -0.2229 -0.7840  2.8243
  487MOL0     H64242   9.111   1.212   9.073 -0.7287 -1.3492  0.1226
  487MOL0     H64243   8.950   1.143   9.081 -2.1733  0.6289 -0.2692
  487MOL0     H64244   9.033   1.383   8.922 -2.2129  2.8311 -0.4701
  487MOL0     H64245   8.863   1.364   8.960 -1.0593 -0.9233 -2.3087
  487MOL0     H64246   8.914   1.442   8.696  0.6656  0.1980  0.9109
  487MOL0     H64247   9.034   1.484   8.476 -1.6785  0.6165  1.4169
  487MOL0     H64248   9.385   1.511   8.256  1.1082 -2.1444  0.0205
  487MOL0     H64249   9.543   1.561   8.061  1.5119 -0.1499 -1.3809
  487MOL0     H64250   9.680   1.560   7.891  0.8322  0.7285 -0.7461
  487MOL0     H64251   9.547   1.649   7.814 -2.4643 -2.1505  1.8030
  487MOL0     H64252   9.780   1.595   7.666 -1.4001  1.0624  1.1718
  487MOL0     H64253   9.615   1.566   7.598 -0.1646 -1.6356 -0.8552
  487MOL0     H64254   9.797   1.405   7.548 -0.5790  1.1070 -1.2274
  487MOL0     H64255   9.652   1.338   7.657  0.3964 -0.1621 -1.9629
  487MOL0     H64256   9.940   1.409   7.722  1.0706 -0.8943  0.9813
  487MOL0     H64257   9.833   1.326   7.837 -2.9159  0.7456 -0.3025
  487MOL0     H64258   9.909   1.203   7.555  1.5294  0.6272  0.3264
  487MOL0     H64259   9.811   1.137   7.681 -1.3286  2.3531  1.7712
  487MOL0     H64260  10.028   1.135   7.815 -0.0282 -2.6689 -0.4641
  487MOL0     H64261  10.097   1.235   7.681  0.2425 -0.2595 -2.8492
  487MOL0     H64262  10.012   1.021   7.529 -4.5224 -3.3727  1.9475
  487MOL0     H64263  10.172   1.008   7.616 -0.4524  0.7194  3.1050
  487MOL0     H64264   9.922   0.890   7.739  0.1478  2.8748 -0.4166
  487MOL0     H64265  10.077   0.856   7.770  0.3522  0.9939 -0.6249
  487MOL0     H64266   9.275   1.371   7.792  4.2263  6.3912 -3.0018
  487MOL0     H64267   9.114   1.319   7.996 -0.1739  0.3119 -3.0533
  487MOL0     H64268   9.167   1.074   8.486 -1.7778 -1.9075  2.7868
  487MOL0     H64269   9.040   1.049   8.690  2.1728  0.2683  0.8348
  487MOL0     H64270   8.428   1.717  10.390  0.5374  3.9610  0.5459
  487MOL0     H64271   8.617   1.535  10.395 -0.8379  1.4574  1.5926
  487MOL0     H64272   9.004   1.376  10.173 -0.2530 -0.3201  0.3130
  487MOL0     H64273   9.152   1.205  10.148 -0.7811  0.4962 -0.0948
  487MOL0     H64274   9.380   1.096  10.164  1.9791 -0.7609  0.6579
  487MOL0     H64275   9.260   0.978  10.206  1.2150  0.2127 -1.3939
  487MOL0     H64276   9.496   0.870  10.177 -0.8913 -0.3527 -0.2376
  487MOL0     H64277   9.558   0.988  10.295 -3.0483  2.9777  2.8635
  487MOL0     H64278   9.354   0.797  10.396 -0.7804  2.5983  2.8406
  487MOL0     H64279   9.461   0.899  10.488 -0.1778  1.1235 -1.4059
  487MOL0     H64280   9.538   0.676  10.498  1.8004 -0.2812  0.4760
  487MOL0     H64281   9.562   0.664  10.325  0.6177 -0.1108 -0.4830
  487MOL0     H64282   9.916   0.794  10.451  0.4070  0.3339 -3.2237
  487MOL0     H64283   9.216   1.205  10.581 -2.3048 -4.8059 -0.8941
  487MOL0     H64284   9.038   1.388  10.596  0.5929  1.6353 -0.6846
  488MOL0     O64285   0.997   6.911   6.165 -0.1084  0.1934 -0.2065
  488MOL0     C64286   1.014   6.983   6.259 -1.2452  0.5142 -0.2195
  488MOL0     O64287   0.903   7.040   6.334 -0.1221  1.3343  0.0275
  488MOL0     C64288   0.779   7.006   6.288 -0.3087  0.4034  0.4849
  488MOL0     C64289   0.691   6.979   6.385 -0.6357  1.5305  0.2248
  488MOL0     C64290   0.551   6.972   6.359  0.5901  0.7174 -0.0539
  488MOL0     C64291   0.506   6.997   6.224  0.3623 -0.4717 -1.0630
  488MOL0     O64292   0.375   6.973   6.197  0.1658 -0.1672  0.8288
  488MOL0     C64293   0.312   7.064   6.111 -0.7399 -0.5883  0.2160
  488MOL0     C64294   0.166   7.078   6.137 -0.1678  0.0774 -0.3113
  488MOL0     C64295   0.081   7.129   6.019  1.0442 -0.2429  0.3245
  488MOL0     C64296  -0.065   7.079   6.038 -0.5050 -0.6462  0.4705
  488MOL0     C64297  -0.153   7.112   5.914  0.8341  0.2052  0.4688
  488MOL0     C64298  -0.269   7.011   5.869 -0.9246 -0.0933 -1.1079
  488MOL0     C64299  -0.371   6.992   5.978 -0.0569  0.0606 -0.9690
  488MOL0     C64300  -0.467   7.109   5.994 -0.5690  0.2894  0.8511
  488MOL0     N64301  -0.540   7.146   5.865 -1.0394  0.5512 -0.2897
  488MOL0     C64302  -0.659   7.088   5.817  0.0608  0.4103 -0.4744
  488MOL0     C64303  -0.673   7.143   5.696 -0.0316 -0.8760 -0.3957
  488MOL0     C64304  -0.786   7.110   5.597 -0.2038  0.4650  0.0183
  488MOL0     C64305  -0.733   7.041   5.470 -0.2724  0.2659  0.2477
  488MOL0     C64306  -0.816   7.075   5.334 -0.4399 -0.0303 -0.0302
  488MOL0     C64307  -0.816   6.967   5.221  0.7312  0.3844  0.1302
  488MOL0     O64308  -0.912   6.858   5.230  0.3888  0.6271 -0.1114
  488MOL0     C64309  -0.915   6.763   5.121 -0.2122  0.0293  0.2903
  488MOL0     C64310  -0.829   6.776   5.009 -0.6301  0.0568 -0.8157
  488MOL0     C64311  -0.838   6.702   4.887  0.9237  0.1788 -0.2351
  488MOL0     C64312  -0.953   6.616   4.881 -0.7165  0.1629  0.6133
  488MOL0     C64313  -0.975   6.544   4.755  0.2778  1.2481 -0.1573
  488MOL0     O64314  -0.870   6.528   4.661  0.1811 -0.4830  0.1226
  488MOL0     C64315  -0.884   6.470   4.538 -0.1344  0.1329 -0.6458
  488MOL0     C64316  -0.769   6.411   4.508 -0.0651  0.2743  0.2276
  488MOL0     C64317  -0.761   6.336   4.390  0.9243 -0.3543  0.6646
  488MOL0     C64318  -0.868   6.338   4.305 -0.1676  0.3407  1.0641
  488MOL0     O64319  -0.863   6.276   4.184 -0.6717  0.2361  0.2419
  488MOL0     C64320  -0.820   6.137   4.193  0.0272 -0.9482 -0.1784
  488MOL0     C64321  -0.850   6.054   4.069 -0.1581 -0.1088 -0.4004
  488MOL0     C64322  -0.835   6.128   3.931 -1.3459 -0.3087 -0.2716
  488MOL0     C64323  -0.704   6.199   3.914 -0.1614 -0.0415  0.6688
  488MOL0     C64324  -0.580   6.110   3.873  0.6365 -0.7750 -0.2076
  488MOL0     C64325  -0.440   6.167   3.896  0.6036  0.7076  0.8789
  488MOL0     C64326  -0.408   6.231   4.040 -0.3405 -0.2779  0.6219
  488MOL0     C64327  -0.414   6.114   4.138 -0.1996  0.1509 -0.5367
  488MOL0    Cl64328  -0.362   6.199   4.302  0.3301 -0.0334  0.5503
  488MOL0     C64329  -0.983   6.417   4.331  0.5771  0.3551 -0.6746
  488MOL0     C64330  -0.996   6.482   4.448  0.4245 -0.5427 -0.4639
  488MOL0     O64331  -1.086   6.503   4.736 -0.0436 -0.2684  0.1925
  488MOL0     C64332  -1.052   6.621   4.983 -0.6465  0.1696  0.1691
  488MOL0     C64333  -1.033   6.689   5.106  0.9733 -0.4314  0.2932
  488MOL0     N64334  -0.584   7.239   5.675 -0.7853  0.6633 -0.3626
  488MOL0     N64335  -0.505   7.244   5.778  0.1488 -0.3633  0.2293
  488MOL0     C64336   0.603   7.027   6.124  0.5278  0.0417 -0.7047
  488MOL0     C64337   0.736   7.025   6.158 -0.8162  0.4749 -0.1721
  488MOL0     C64338   1.156   7.017   6.297  0.1667  0.4672  0.1697
  488MOL0     C64339   1.257   6.994   6.211  0.4943 -1.2946  0.6594
  488MOL0     C64340   1.394   7.020   6.235 -0.2715  0.1409  0.7151
  488MOL0     C64341   1.436   7.053   6.364  0.4180  0.0366  0.1600
  488MOL0     O64342   1.568   7.046   6.397 -0.1234  0.2150  0.0147
  488MOL0     C64343   1.592   6.982   6.529 -0.8274 -0.4183  0.5497
  488MOL0     C64344   1.724   7.028   6.582  0.3506 -0.6566  1.1771
  488MOL0     C64345   1.742   6.992   6.722  0.2503  0.6310  0.6785
  488MOL0     C64346   1.872   7.055   6.772  0.8031 -0.2354  0.5556
  488MOL0     C64347   1.893   7.021   6.916 -0.2990 -0.6436 -0.2192
  488MOL0     C64348   1.914   6.983   7.038 -0.2406  0.7041  0.5397
  488MOL0     C64349   1.329   7.087   6.454 -0.0872 -0.6953 -0.3431
  488MOL0     C64350   1.191   7.069   6.424 -0.1034 -0.1644 -0.8468
  488MOL0     H64351   0.733   6.955   6.483  1.7557  0.2187 -1.0320
  488MOL0     H64352   0.477   6.945   6.434  0.9511  4.2559  1.8226
  488MOL0     H64353   0.323   7.038   6.005 -0.1667  0.5962 -0.0240
  488MOL0     H64354   0.359   7.161   6.128  1.1108 -1.2796 -0.6932
  488MOL0     H64355   0.151   7.147   6.220 -0.6303 -0.5885  0.1691
  488MOL0     H64356   0.137   6.974   6.159  0.5031 -0.2241 -0.8174
  488MOL0     H64357   0.120   7.099   5.921  0.4110  0.6543 -0.2211
  488MOL0     H64358   0.081   7.239   6.016 -0.7289 -0.2198 -2.1111
  488MOL0     H64359  -0.055   6.971   6.047  1.5352 -0.5514 -0.2141
  488MOL0     H64360  -0.106   7.117   6.132 -0.3116  1.0785 -0.1029
  488MOL0     H64361  -0.096   7.126   5.821  0.9082 -1.6140  0.2031
  488MOL0     H64362  -0.195   7.209   5.940  2.2550  0.9846  0.0179
  488MOL0     H64363  -0.234   6.913   5.836  2.6413  1.8269 -3.6087
  488MOL0     H64364  -0.314   7.060   5.783  0.4872  1.1696 -1.1670
  488MOL0     H64365  -0.426   6.900   5.957  3.1073 -1.8136 -1.6600
  488MOL0     H64366  -0.323   6.981   6.076  0.1859  2.5757 -0.7189
  488MOL0     H64367  -0.408   7.199   6.009  0.7392 -0.0048 -1.8907
  488MOL0     H64368  -0.538   7.091   6.075  0.8490 -3.5012  1.4465
  488MOL0     H64369  -0.717   7.004   5.855 -0.0070  0.6829  0.0268
  488MOL0     H64370  -0.839   7.202   5.571  1.7818  2.2206  1.6955
  488MOL0     H64371  -0.841   7.039   5.660  3.0511 -0.4285  2.1345
  488MOL0     H64372  -0.739   6.931   5.476 -1.5023  0.3503  0.9728
  488MOL0     H64373  -0.628   7.062   5.449  0.8273 -2.9156  1.8041
  488MOL0     H64374  -0.921   7.095   5.354 -0.9690 -0.6248 -1.9926
  488MOL0     H64375  -0.767   7.161   5.288 -0.2590  0.3348  0.8363
  488MOL0     H64376  -0.714   6.927   5.212  0.4279 -0.4596  0.3311
  488MOL0     H64377  -0.845   7.020   5.130 -0.3363 -0.7087 -0.1884
  488MOL0     H64378  -0.736   6.832   5.017  0.2261 -1.5214  4.7679
  488MOL0     H64379  -0.773   6.719   4.802  0.4428 -1.0022 -0.8617
  488MOL0     H64380  -0.689   6.421   4.581 -0.7306 -0.4569  1.0725
  488MOL0     H64381  -0.669   6.303   4.342 -1.3831 -2.6651 -2.5838
  488MOL0     H64382  -0.886   6.094   4.269  2.9197 -1.0111  2.5363
  488MOL0     H64383  -0.717   6.122   4.225 -1.2528 -0.5501  5.0734
  488MOL0     H64384  -0.951   6.013   4.081 -0.3887  0.8427  1.2135
  488MOL0     H64385  -0.787   5.965   4.072  1.7638  1.2166  0.0810
  488MOL0     H64386  -0.912   6.205   3.922 -0.1427  0.8475 -0.9945
  488MOL0     H64387  -0.845   6.068   3.841 -3.6447  1.1193 -1.0478
  488MOL0     H64388  -0.713   6.253   3.819  0.9670 -0.2718  0.4215
  488MOL0     H64389  -0.691   6.273   3.994  3.2709  2.0657 -1.5966
  488MOL0     H64390  -0.590   6.073   3.771 -0.0943 -0.8623 -0.1097
  488MOL0     H64391  -0.581   6.022   3.938 -0.9394 -2.1553 -1.9764
  488MOL0     H64392  -0.409   6.227   3.810 -0.3790  0.3070  0.2303
  488MOL0     H64393  -0.378   6.076   3.893  0.0312  0.1718  3.2561
  488MOL0     H64394  -0.308   6.275   4.032 -0.9205  1.0910  0.6787
  488MOL0     H64395  -0.478   6.310   4.067  0.2339  1.6205 -2.8146
  488MOL0     H64396  -0.347   6.030   4.117 -0.7954 -0.5282  0.2253
  488MOL0     H64397  -0.514   6.071   4.144 -1.0607  2.0901 -0.0225
  488MOL0     H64398  -1.072   6.416   4.269 -2.3466  2.4422  3.0669
  488MOL0     H64399  -1.085   6.534   4.483  1.0063 -0.2656  0.6711
  488MOL0     H64400  -1.139   6.556   4.974 -1.6975  1.1755  2.3948
  488MOL0     H64401  -1.117   6.671   5.172 -1.1261  0.0750 -2.0433
  488MOL0     H64402   0.578   7.042   6.020 -0.2872  0.9317 -0.3882
  488MOL0     H64403   0.817   7.040   6.086  1.0969  0.1489  1.8008
  488MOL0     H64404   1.235   6.960   6.111  0.1828 -0.6782  0.5177
  488MOL0     H64405   1.468   7.013   6.156  2.2279 -1.2760  3.0021
  488MOL0     H64406   1.597   6.873   6.519 -6.0868 -0.6981 -1.7331
  488MOL0     H64407   1.503   6.990   6.592 -0.8523  2.4154  0.2873
  488MOL0     H64408   1.802   6.997   6.512 -0.8272  2.3845 -1.7727
  488MOL0     H64409   1.708   7.137   6.578 -0.9718 -0.8386  0.8976
  488MOL0     H64410   1.732   6.885   6.737 -1.0266  0.5996 -0.2572
  488MOL0     H64411   1.659   7.034   6.780  0.5302  0.0742  1.4958
  488MOL0     H64412   1.953   7.013   6.712  0.8604  0.0051  0.4649
  488MOL0     H64413   1.874   7.160   6.742 -0.9762 -0.7585 -1.7306
  488MOL0     H64414   1.936   6.925   7.126 -1.0073 -0.7809 -0.1991
  488MOL0     H64415   1.357   7.124   6.553  3.2581 -1.8293 -0.7316
  488MOL0     H64416   1.114   7.110   6.488  1.3818 -0.1831  1.0234
  489MOL0     O64417   4.670   6.453   2.303 -0.0039 -0.2003 -0.1100
  489MOL0     C64418   4.755   6.522   2.363  0.3563 -0.8455 -0.6398
  489MOL0     O64419   4.878   6.482   2.392  0.0125 -0.5767 -0.0536
  489MOL0     C64420   4.921   6.367   2.346 -0.1662  0.5224  0.7215
  489MOL0     C64421   4.893   6.245   2.403  0.0917  1.2684  0.0078
  489MOL0     C64422   4.962   6.132   2.359  0.8031  0.6567  0.3379
  489MOL0     C64423   5.051   6.138   2.254 -0.2736 -0.3225 -0.2590
  489MOL0     O64424   5.133   6.032   2.221  0.2760  0.5670 -0.0385
  489MOL0     C64425   5.266   6.068   2.250  0.2075  0.6957 -0.0231
  489MOL0     C64426   5.358   5.941   2.233  0.1877 -0.5287 -0.1579
  489MOL0     C64427   5.435   5.943   2.097  0.7506 -0.0331 -0.5721
  489MOL0     C64428   5.580   5.916   2.130  0.0713  0.3443 -0.6196
  489MOL0     C64429   5.657   6.047   2.157 -0.0627  0.3607  0.2284
  489MOL0     C64430   5.780   6.010   2.225 -1.1266  0.5350  0.2407
  489MOL0     C64431   5.886   6.126   2.251  0.4775  0.5432 -0.0764
  489MOL0     C64432   5.950   6.178   2.123  0.4300  0.2303  0.2948
  489MOL0     N64433   6.058   6.257   2.146 -0.1845  0.1498 -0.3768
  489MOL0     C64434   6.037   6.392   2.175  0.0699 -0.4706  1.0247
  489MOL0     C64435   6.159   6.447   2.165  0.0860  0.9672 -0.6505
  489MOL0     C64436   6.206   6.580   2.177  0.4553 -0.3380  0.6716
  489MOL0     C64437   6.284   6.634   2.047 -0.2978 -0.2866 -0.3450
  489MOL0     C64438   6.196   6.644   1.924 -0.8094  0.6730 -0.7137
  489MOL0     C64439   6.077   6.750   1.927 -0.0982 -0.8199  0.5071
  489MOL0     O64440   6.011   6.766   1.798 -0.4811 -1.0549 -0.1145
  489MOL0     C64441   5.923   6.670   1.762 -0.0402 -0.7681 -0.2836
  489MOL0     C64442   5.860   6.692   1.637  0.0303 -0.4870  0.6069
  489MOL0     C64443   5.775   6.588   1.586  0.9273 -0.1625 -0.4252
  489MOL0     C64444   5.734   6.470   1.666 -0.2116 -0.7877 -0.5529
  489MOL0     C64445   5.656   6.362   1.613 -0.3073  0.4146 -0.1767
  489MOL0     O64446   5.647   6.245   1.680  0.5911 -0.8800 -0.5214
  489MOL0     C64447   5.568   6.142   1.643  1.3734  0.4207  0.7926
  489MOL0     C64448   5.436   6.151   1.597 -0.2352 -0.5171 -0.0871
  489MOL0     C64449   5.351   6.045   1.556 -0.6297  0.2753 -0.9989
  489MOL0     C64450   5.400   5.919   1.547 -0.0546  0.3016  0.2283
  489MOL0     O64451   5.339   5.809   1.498  0.1793 -0.4435  0.4402
  489MOL0     C64452   5.247   5.831   1.385  0.3153  1.2423 -0.3698
  489MOL0     C64453   5.306   5.874   1.251 -1.1862  1.3810 -0.7843
  489MOL0     C64454   5.338   5.763   1.143  0.0314 -0.8457 -0.6421
  489MOL0     C64455   5.400   5.819   1.016 -0.5552  0.1563 -0.7029
  489MOL0     C64456   5.553   5.838   1.036 -0.5201  0.5234  0.4927
  489MOL0     C64457   5.639   5.736   0.962  0.0069 -0.1325  0.7033
  489MOL0     C64458   5.785   5.788   0.948  0.4445 -0.8199  0.4475
  489MOL0     C64459   5.872   5.677   0.909  0.6547 -0.1092  0.0844
  489MOL0    Cl64460   6.034   5.733   0.906 -0.1637 -0.3585 -0.2395
  489MOL0     C64461   5.525   5.898   1.608 -0.9442 -0.8094 -0.6036
  489MOL0     C64462   5.606   6.005   1.656 -0.3369 -0.4551  0.0251
  489MOL0     O64463   5.580   6.388   1.521  0.6839 -0.6627 -0.2846
  489MOL0     C64464   5.791   6.463   1.792  0.8533 -0.2696  0.9484
  489MOL0     C64465   5.881   6.559   1.831  0.6222  0.5754 -0.2783
  489MOL0     N64466   6.252   6.347   2.132  0.4500 -1.1460 -0.0906
  489MOL0     N64467   6.183   6.245   2.114 -0.4895  0.5039 -0.3146
  489MOL0     C64468   5.060   6.258   2.173 -0.4220 -0.0028  0.0412
  489MOL0     C64469   4.999   6.369   2.231 -0.3872  0.2941 -0.0336
  489MOL0     C64470   4.713   6.662   2.396 -0.3261 -0.2163 -0.1672
  489MOL0     C64471   4.797   6.742   2.462  0.2044  0.2031 -0.0294
  489MOL0     C64472   4.774   6.883   2.465 -0.0494  0.2529 -0.3382
  489MOL0     C64473   4.667   6.938   2.399 -0.2557  0.6081 -0.8869
  489MOL0     O64474   4.647   7.076   2.413 -0.1239 -0.0804  0.0271
  489MOL0     C64475   4.567   7.127   2.519 -0.5091  0.0655 -0.3019
  489MOL0     C64476   4.423   7.103   2.514  0.0237 -0.8550  0.0630
  489MOL0     C64477   4.351   7.149   2.388  0.2893 -0.4992  0.6963
  489MOL0     C64478   4.217   7.090   2.372 -0.3643  0.1846  0.0616
  489MOL0     C64479   4.124   7.143   2.476  0.7065  0.1126  0.3536
  489MOL0     C64480   4.035   7.171   2.554 -0.3438  0.9946  0.4216
  489MOL0     C64481   4.573   6.855   2.328 -0.4845 -0.3761 -0.7641
  489MOL0     C64482   4.600   6.722   2.332 -0.0003  0.2848 -0.6926
  489MOL0     H64483   4.830   6.236   2.490  1.5675 -0.9673  0.9648
  489MOL0     H64484   4.937   6.041   2.413 -1.9410  1.3382  0.3642
  489MOL0     H64485   5.273   6.101   2.354 -0.5640  0.8857 -0.0234
  489MOL0     H64486   5.296   6.147   2.180  0.7609  1.4059  0.9901
  489MOL0     H64487   5.308   5.847   2.256  1.0384 -0.8917  0.2311
  489MOL0     H64488   5.428   5.950   2.316  0.7875  2.7890 -0.8657
  489MOL0     H64489   5.410   6.033   2.039 -6.2244 -0.8061  0.4037
  489MOL0     H64490   5.381   5.869   2.038 -3.1971  1.6493  0.6236
  489MOL0     H64491   5.588   5.850   2.217 -2.3583 -1.8797 -1.9313
  489MOL0     H64492   5.618   5.859   2.045  0.4493  2.2492 -1.7900
  489MOL0     H64493   5.608   6.114   2.229 -0.4117 -2.1672  2.5134
  489MOL0     H64494   5.685   6.094   2.062  1.1608  1.1791  0.9615
  489MOL0     H64495   5.814   5.931   2.159 -1.5624 -0.2113  0.8853
  489MOL0     H64496   5.760   5.952   2.316 -1.7368 -0.1137 -0.3028
  489MOL0     H64497   5.847   6.214   2.303 -0.3498 -0.4052  0.9559
  489MOL0     H64498   5.970   6.083   2.308  2.0657 -0.5794 -3.0712
  489MOL0     H64499   5.879   6.237   2.064  1.2467 -0.4466 -1.4297
  489MOL0     H64500   5.979   6.088   2.067  2.6081 -0.6756  2.6539
  489MOL0     H64501   5.947   6.451   2.189 -1.6942 -2.0659 -2.5088
  489MOL0     H64502   6.280   6.579   2.258  1.2244  1.5613  0.0449
  489MOL0     H64503   6.124   6.645   2.209 -0.3976 -1.2164  0.3190
  489MOL0     H64504   6.368   6.571   2.017  0.1217 -1.3836  2.7852
  489MOL0     H64505   6.323   6.731   2.078  2.5304 -1.3030 -0.4673
  489MOL0     H64506   6.257   6.683   1.841 -0.8893  3.5424  0.4414
  489MOL0     H64507   6.169   6.541   1.902 -0.9684  0.8750 -1.5104
  489MOL0     H64508   6.114   6.851   1.947  1.6417 -0.8478 -2.1183
  489MOL0     H64509   6.011   6.715   2.007  0.6058  1.8298  2.3783
  489MOL0     H64510   5.894   6.765   1.565 -0.9402  2.3644  2.8568
  489MOL0     H64511   5.732   6.609   1.489 -0.6673 -1.9285 -0.1428
  489MOL0     H64512   5.398   6.252   1.582  1.2210 -0.3576 -3.7838
  489MOL0     H64513   5.252   6.073   1.521 -0.8170  0.6109 -0.2194
  489MOL0     H64514   5.178   5.909   1.420 -2.2935 -1.1116  0.1367
  489MOL0     H64515   5.186   5.740   1.386  1.4614  0.4588 -0.4246
  489MOL0     H64516   5.408   5.909   1.271 -1.0546  0.8178 -0.4501
  489MOL0     H64517   5.246   5.959   1.219  1.0855  3.4842  0.1761
  489MOL0     H64518   5.240   5.723   1.117 -0.5022  0.5513 -0.8361
  489MOL0     H64519   5.404   5.689   1.190  1.4047 -0.6879 -2.2189
  489MOL0     H64520   5.372   5.752   0.935 -2.2360  2.5682 -2.2340
  489MOL0     H64521   5.356   5.914   0.986  2.5160  0.3715 -5.6532
  489MOL0     H64522   5.588   5.831   1.140  0.4007  2.1433  0.3267
  489MOL0     H64523   5.579   5.940   1.007  0.2544  0.1261 -0.2629
  489MOL0     H64524   5.597   5.732   0.861  0.1973 -0.7271  0.6464
  489MOL0     H64525   5.645   5.644   1.020  1.9506 -0.0796  0.6665
  489MOL0     H64526   5.782   5.867   0.872 -3.3769 -0.6831  0.5393
  489MOL0     H64527   5.814   5.837   1.041  0.6780  0.8864 -0.4853
  489MOL0     H64528   5.856   5.647   0.805 -2.2827 -0.0960  0.4569
  489MOL0     H64529   5.859   5.583   0.963  1.7262 -2.9124 -4.0349
  489MOL0     H64530   5.562   5.799   1.630 -0.6861 -0.7241 -0.6520
  489MOL0     H64531   5.702   5.983   1.702  0.0939  1.9449  0.4315
  489MOL0     H64532   5.766   6.374   1.849  0.7445 -0.4152  0.6767
  489MOL0     H64533   5.917   6.523   1.927 -2.3714  2.0731  1.5521
  489MOL0     H64534   5.131   6.269   2.092  0.4717 -3.7058  0.1579
  489MOL0     H64535   5.019   6.461   2.178  5.3053 -0.2817  0.5401
  489MOL0     H64536   4.876   6.683   2.509 -0.3380 -1.8699 -1.5670
  489MOL0     H64537   4.852   6.939   2.515  3.4861  0.3918 -5.3004
  489MOL0     H64538   4.586   7.235   2.530 -0.4388 -0.1629  2.6703
  489MOL0     H64539   4.598   7.087   2.616  1.5228 -0.7436 -1.2306
  489MOL0     H64540   4.388   7.001   2.530 -2.5989  0.4386  3.9517
  489MOL0     H64541   4.380   7.154   2.601 -0.2420 -0.7036 -0.1581
  489MOL0     H64542   4.397   7.101   2.301 -1.6797 -0.7239 -0.2831
  489MOL0     H64543   4.353   7.255   2.362  2.8226 -0.0822  2.2530
  489MOL0     H64544   4.178   7.118   2.274  1.0578  0.2779 -0.5019
  489MOL0     H64545   4.210   6.982   2.382 -1.4245  0.3720  1.7229
  489MOL0     H64546   3.968   7.216   2.624 -0.5269  1.3153  0.0464
  489MOL0     H64547   4.485   6.902   2.286  1.3847  3.4746 -0.8248
  489MOL0     H64548   4.527   6.660   2.280 -0.6228  0.3667  0.0806
  490MOL0     O64549   7.678   7.924   9.373  0.6990  0.5034 -0.5529
  490MOL0     C64550   7.754   7.948   9.464 -1.2524 -0.0693 -1.2789
  490MOL0     O64551   7.774   8.072   9.518  0.2026 -0.5253 -0.2633
  490MOL0     C64552   7.714   8.175   9.458 -0.3457 -0.5154 -0.3551
  490MOL0     C64553   7.589   8.221   9.514 -1.0141 -0.2012  0.5494
  490MOL0     C64554   7.528   8.325   9.454 -0.0513 -0.1270 -0.4403
  490MOL0     C64555   7.586   8.381   9.335  0.6461  0.7341  0.1026
  490MOL0     O64556   7.529   8.481   9.271 -0.0348 -0.4722  0.0140
  490MOL0     C64557   7.391   8.493   9.283  0.3613  0.5727  0.1741
  490MOL0     C64558   7.344   8.519   9.148 -0.5513  0.0831  0.1392
  490MOL0     C64559   7.415   8.643   9.082 -0.1763  0.1555  1.1048
  490MOL0     C64560   7.361   8.667   8.932  0.5511 -0.1882  0.4474
  490MOL0     C64561   7.433   8.781   8.859  0.2679 -0.0165 -1.4460
  490MOL0     C64562   7.433   8.903   8.952  0.5978 -1.5638  0.4717
  490MOL0     C64563   7.466   9.036   8.879 -0.0653 -0.1983  0.0222
  490MOL0     C64564   7.580   9.017   8.782 -0.5386  0.3468  0.2968
  490MOL0     N64565   7.614   9.134   8.702 -0.0899  0.3294 -0.1009
  490MOL0     C64566   7.630   9.262   8.753 -0.9149 -0.7660  0.1670
  490MOL0     C64567   7.686   9.330   8.657 -0.5722 -0.4346 -0.2612
  490MOL0     C64568   7.737   9.472   8.668  0.8010  0.7074 -0.1858
  490MOL0     C64569   7.887   9.466   8.703 -0.3027 -0.6176  0.5803
  490MOL0     C64570   7.984   9.538   8.616 -0.2085 -0.3431  0.8420
  490MOL0     C64571   8.128   9.496   8.637 -0.5497 -0.2523 -0.0750
  490MOL0     O64572   8.221   9.614   8.635  0.1814 -0.6478  0.1089
  490MOL0     C64573   8.259   9.645   8.505 -0.6309 -0.0103  0.7250
  490MOL0     C64574   8.189   9.625   8.389  0.3122  0.4206  0.0771
  490MOL0     C64575   8.245   9.633   8.264  0.4662 -0.1526 -0.2897
  490MOL0     C64576   8.383   9.662   8.244  0.4826 -0.1789  0.6034
  490MOL0     C64577   8.435   9.681   8.111 -0.1338 -0.4369 -0.0562
  490MOL0     O64578   8.350   9.660   7.998 -0.4113 -0.4311 -0.3582
  490MOL0     C64579   8.407   9.676   7.880  0.0850  0.1676  0.6996
  490MOL0     C64580   8.528   9.604   7.847  0.1367 -0.6773  0.3502
  490MOL0     C64581   8.572   9.616   7.712  0.0090  0.2227 -0.1248
  490MOL0     C64582   8.504   9.692   7.605 -0.2233 -0.0118 -1.2684
  490MOL0     O64583   8.546   9.685   7.478 -0.1634 -0.2574  0.3777
  490MOL0     C64584   8.562   9.801   7.390  0.1128 -0.2102  0.0008
  490MOL0     C64585   8.686   9.791   7.299 -0.7736  0.2245  0.7174
  490MOL0     C64586   8.702   9.922   7.219  1.0248  1.0580  0.7363
  490MOL0     C64587   8.814   9.890   7.113 -0.7819  0.1888  0.3650
  490MOL0     C64588   8.852  10.008   7.014  0.1618 -0.5202  0.9296
  490MOL0     C64589   8.900  10.137   7.069  0.8349 -0.1474  0.3685
  490MOL0     C64590   8.905  10.260   6.971 -0.3392  0.9163  0.9283
  490MOL0     C64591   9.038  10.254   6.884  0.6509  0.1138  0.4079
  490MOL0    Cl64592   9.038  10.386   6.766  0.0111 -0.0515  0.3866
  490MOL0     C64593   8.390   9.764   7.646  0.7867  0.2820 -0.2640
  490MOL0     C64594   8.345   9.749   7.783  0.2507 -2.0761  0.1157
  490MOL0     O64595   8.560   9.706   8.112  0.2956  0.6045  0.2997
  490MOL0     C64596   8.444   9.679   8.363  0.5721 -1.4886  1.0427
  490MOL0     C64597   8.391   9.670   8.490  0.0344  0.1657  0.4698
  490MOL0     N64598   7.713   9.248   8.554  0.3344  0.1170  0.1840
  490MOL0     N64599   7.676   9.123   8.580  1.4248  0.0738 -0.1819
  490MOL0     C64600   7.708   8.336   9.277 -0.2498  0.6080 -0.6892
  490MOL0     C64601   7.776   8.229   9.347 -0.1163 -1.5060  1.3561
  490MOL0     C64602   7.848   7.839   9.500 -0.1835 -0.4397  0.0765
  490MOL0     C64603   7.862   7.723   9.420 -0.6688 -0.3374 -0.6657
  490MOL0     C64604   7.955   7.631   9.454 -0.1960 -0.0849 -0.5739
  490MOL0     C64605   8.047   7.645   9.553  0.3223 -0.2208  0.0729
  490MOL0     O64606   8.136   7.553   9.604  0.6178  0.3121  0.1982
  490MOL0     C64607   8.170   7.451   9.515 -1.4745  0.3982 -0.3137
  490MOL0     C64608   8.079   7.326   9.525  0.0484  0.1678 -0.2217
  490MOL0     C64609   8.073   7.275   9.671  0.5849 -0.2136 -0.9854
  490MOL0     C64610   7.984   7.150   9.694  0.3727 -0.9203  0.0823
  490MOL0     C64611   8.045   7.031   9.637 -0.5084  0.2253  0.7836
  490MOL0     C64612   8.096   6.928   9.597 -0.4138  0.0003  0.4139
  490MOL0     C64613   8.031   7.757   9.632 -0.1636 -0.0755 -0.5696
  490MOL0     C64614   7.934   7.854   9.608  0.4903 -0.1607  0.4598
  490MOL0     H64615   7.546   8.184   9.607 -3.1136  2.8005  0.9088
  490MOL0     H64616   7.445   8.371   9.506  0.6454 -0.5369  1.0697
  490MOL0     H64617   7.368   8.579   9.346 -4.3242 -0.8779  0.8679
  490MOL0     H64618   7.338   8.405   9.320  0.1624  0.7401  0.2883
  490MOL0     H64619   7.236   8.524   9.163 -0.1408  0.7616  3.6559
  490MOL0     H64620   7.354   8.432   9.082  0.5032  1.2177 -1.2725
  490MOL0     H64621   7.524   8.633   9.079 -0.4032 -3.7274 -0.6360
  490MOL0     H64622   7.388   8.731   9.142  2.0905  2.5118 -1.0919
  490MOL0     H64623   7.351   8.573   8.876 -3.1944  0.5449 -0.3920
  490MOL0     H64624   7.256   8.697   8.941  0.8396  1.5875 -1.2825
  490MOL0     H64625   7.382   8.812   8.767 -1.0132  0.0556 -0.7333
  490MOL0     H64626   7.535   8.748   8.841  0.9550 -0.4930  2.4593
  490MOL0     H64627   7.514   8.896   9.026  1.5806  4.4051  0.4277
  490MOL0     H64628   7.337   8.923   9.000  0.9199  2.2246 -0.1829
  490MOL0     H64629   7.379   9.079   8.828 -0.3203 -1.2388 -0.4419
  490MOL0     H64630   7.511   9.116   8.938 -0.0819 -0.9013  1.0049
  490MOL0     H64631   7.559   8.941   8.707  1.5345 -0.5751  0.5764
  490MOL0     H64632   7.665   8.987   8.844 -1.1525  2.4079  2.2743
  490MOL0     H64633   7.584   9.293   8.847  1.3819 -3.5863  2.4149
  490MOL0     H64634   7.682   9.525   8.746 -0.0536 -1.1772  0.5261
  490MOL0     H64635   7.711   9.541   8.586 -1.9707  2.9011  2.3296
  490MOL0     H64636   7.917   9.361   8.705  2.5464 -0.0495 -2.3991
  490MOL0     H64637   7.897   9.512   8.802 -3.0026 -0.5304  0.8670
  490MOL0     H64638   7.944   9.521   8.516  2.6791  0.8027 -0.6346
  490MOL0     H64639   7.981   9.644   8.644  0.8920 -0.3311  0.9941
  490MOL0     H64640   8.165   9.436   8.554 -3.3482 -0.6049 -1.1597
  490MOL0     H64641   8.146   9.441   8.730  0.5173 -0.3555 -0.3370
  490MOL0     H64642   8.087   9.589   8.402  0.2188  0.7907  0.3713
  490MOL0     H64643   8.190   9.619   8.172  1.7636 -1.2725 -0.9418
  490MOL0     H64644   8.575   9.542   7.923  0.4864 -1.3516 -0.4069
  490MOL0     H64645   8.662   9.559   7.694 -1.1245 -1.1648 -1.6882
  490MOL0     H64646   8.561   9.899   7.438 -3.7440  0.4700 -1.1504
  490MOL0     H64647   8.472   9.808   7.328 -0.5028 -1.9822  0.6025
  490MOL0     H64648   8.687   9.710   7.225 -2.2728  2.4377 -1.9364
  490MOL0     H64649   8.774   9.770   7.360 -0.5502  0.0661  0.3471
  490MOL0     H64650   8.723   9.994   7.299 -0.5556  2.7678 -0.2969
  490MOL0     H64651   8.611   9.937   7.159 -1.4508 -3.5574  2.7851
  490MOL0     H64652   8.902   9.856   7.169 -0.0044 -2.0179 -2.0201
  490MOL0     H64653   8.781   9.814   7.041 -1.8381  1.7865 -0.8947
  490MOL0     H64654   8.766  10.002   6.946  0.7107  0.5511  0.1274
  490MOL0     H64655   8.925   9.964   6.945 -3.1823 -2.7043 -1.5874
  490MOL0     H64656   8.997  10.118   7.115 -0.2549 -0.1377  2.8447
  490MOL0     H64657   8.837  10.162   7.154  1.1380  0.2301  0.4890
  490MOL0     H64658   8.816  10.255   6.908  1.1147  0.7757 -1.1917
  490MOL0     H64659   8.913  10.350   7.034 -0.0935  1.2738  0.3907
  490MOL0     H64660   9.051  10.156   6.835  0.1335  0.4449 -0.4194
  490MOL0     H64661   9.121  10.269   6.954  0.9652  0.6029 -0.0595
  490MOL0     H64662   8.331   9.817   7.572 -0.5458 -0.7907 -0.0154
  490MOL0     H64663   8.250   9.799   7.805 -0.6464 -4.1587  1.2869
  490MOL0     H64664   8.547   9.714   8.363  0.0758  0.5911 -2.9514
  490MOL0     H64665   8.452   9.668   8.580 -0.7399  1.9288  1.0748
  490MOL0     H64666   7.757   8.384   9.193 -0.0930  0.3028 -0.7706
  490MOL0     H64667   7.868   8.195   9.300  0.3984  0.3078  0.9866
  490MOL0     H64668   7.789   7.711   9.340 -1.5579 -0.3220  0.1312
  490MOL0     H64669   7.950   7.542   9.392 -0.9964 -0.1666 -0.3979
  490MOL0     H64670   8.270   7.414   9.540 -1.6221  0.0941 -0.1639
  490MOL0     H64671   8.163   7.491   9.414  0.9456 -0.2550 -0.8159
  490MOL0     H64672   7.979   7.346   9.486 -0.7592 -3.7974 -0.6139
  490MOL0     H64673   8.119   7.244   9.464  0.0014  1.5582 -2.1887
  490MOL0     H64674   8.050   7.361   9.735  0.6780 -0.2569 -0.8936
  490MOL0     H64675   8.174   7.253   9.706  1.2106  0.8884 -2.0039
  490MOL0     H64676   7.982   7.148   9.804  0.0315  0.7509  0.1283
  490MOL0     H64677   7.889   7.157   9.640  0.9924 -1.0886 -1.0654
  490MOL0     H64678   8.142   6.839   9.559 -1.5768  0.3357 -1.9556
  490MOL0     H64679   8.100   7.770   9.715 -0.7862  5.8402 -0.5077
  490MOL0     H64680   7.921   7.945   9.664 -0.0564 -0.4852  0.8661
  491MOL0     O64681   6.616   9.706  10.800  0.4042  1.3020 -0.2060
  491MOL0     C64682   6.598   9.782  10.892 -0.6214  0.5161  0.4889
  491MOL0     O64683   6.600   9.927  10.880  0.6019  0.1794  0.3129
  491MOL0     C64684   6.617   9.972  10.751 -0.3454  0.6989  1.0722
  491MOL0     C64685   6.491  10.010  10.699 -0.8557 -0.3480  0.1702
  491MOL0     C64686   6.491  10.037  10.561  0.3987  0.2895  0.1070
  491MOL0     C64687   6.604  10.032  10.484 -0.5782  0.8872 -0.4330
  491MOL0     O64688   6.609  10.053  10.345  0.6007  0.9403 -0.6888
  491MOL0     C64689   6.493  10.128  10.297  0.5893 -0.8581  0.5895
  491MOL0     C64690   6.519  10.159  10.147 -0.1305  0.3543 -0.2121
  491MOL0     C64691   6.524  10.023  10.067  0.0258  0.3143  0.2210
  491MOL0     C64692   6.389   9.966  10.021  0.8655  0.5153  0.7310
  491MOL0     C64693   6.301  10.057   9.930 -0.4404 -0.4090 -0.0980
  491MOL0     C64694   6.166   9.989   9.894 -0.6998 -0.4452  0.0249
  491MOL0     C64695   6.072   9.953  10.016 -0.0020 -0.7155 -0.8827
  491MOL0     C64696   5.929   9.921   9.979  0.0526 -0.2013  1.0721
  491MOL0     N64697   5.860  10.026   9.901  0.1886  0.6438 -1.3243
  491MOL0     C64698   5.843  10.154   9.933 -0.4777 -0.2877  0.3806
  491MOL0     C64699   5.723  10.196   9.876 -0.3196 -0.2137 -0.6219
  491MOL0     C64700   5.670  10.334   9.875 -0.1413  0.1998 -1.1770
  491MOL0     C64701   5.518  10.339   9.861 -0.2338  0.1851  0.8156
  491MOL0     C64702   5.463  10.474   9.863 -0.2653 -0.9735 -0.5044
  491MOL0     C64703   5.313  10.475   9.852 -0.2421  0.8018 -0.0127
  491MOL0     O64704   5.278  10.606   9.897 -0.0145  0.2986  0.7756
  491MOL0     C64705   5.146  10.642   9.914 -0.1986 -0.1166 -0.5991
  491MOL0     C64706   5.108  10.769   9.968 -0.3441 -0.7234  0.5827
  491MOL0     C64707   4.973  10.808   9.986 -0.1209  0.3455  0.3163
  491MOL0     C64708   4.872  10.721   9.939 -0.3603  1.0395 -0.2314
  491MOL0     C64709   4.726  10.760   9.961 -0.0636 -0.5205  0.0882
  491MOL0     O64710   4.700  10.897   9.980  0.0431 -0.2572 -0.2810
  491MOL0     C64711   4.579  10.954   9.977 -0.6229  0.2262  0.3811
  491MOL0     C64712   4.494  10.943   9.865 -0.1851  0.2271  0.0617
  491MOL0     C64713   4.365  10.998   9.866 -0.1139  0.1793 -0.2352
  491MOL0     C64714   4.334  11.088   9.972 -0.3747 -0.0604  0.3502
  491MOL0     O64715   4.218  11.159   9.974  0.4366 -0.9347 -0.3158
  491MOL0     C64716   4.201  11.245   9.856  0.2337  0.0463  0.8592
  491MOL0     C64717   4.051  11.265   9.843 -0.4230 -0.8651 -0.6092
  491MOL0     C64718   4.013  11.356   9.717 -0.3765  0.6058  0.3803
  491MOL0     C64719   3.860  11.392   9.719 -1.4794  0.9300  0.0679
  491MOL0     C64720   3.829  11.493   9.609  0.5500  0.7739 -0.8261
  491MOL0     C64721   3.695  11.560   9.637  0.9386 -0.7697  0.1381
  491MOL0     C64722   3.645  11.658   9.527  0.3916 -0.5042 -0.6518
  491MOL0     C64723   3.622  11.595   9.393 -0.2586 -0.0647 -0.7294
  491MOL0    Cl64724   3.456  11.536   9.411  0.2150 -0.5035 -0.0623
  491MOL0     C64725   4.421  11.111  10.075 -0.1158 -0.6681  0.3380
  491MOL0     C64726   4.543  11.042  10.079  0.5883  0.3616  0.5311
  491MOL0     O64727   4.640  10.678   9.949 -0.4025 -0.0177 -0.3841
  491MOL0     C64728   4.905  10.596   9.895 -0.6568  0.2609  0.6147
  491MOL0     C64729   5.044  10.558   9.868  0.5501  0.3229 -0.0033
  491MOL0     N64730   5.662  10.080   9.820 -0.3198 -0.0164  1.5132
  491MOL0     N64731   5.738   9.979   9.852 -0.1219 -1.0548  0.7184
  491MOL0     C64732   6.725   9.994  10.547 -0.6264 -0.4804  0.4453
  491MOL0     C64733   6.733   9.965  10.685 -0.3482 -0.2652  0.4756
  491MOL0     C64734   6.585   9.724  11.028 -0.0483  0.2768 -0.2155
  491MOL0     C64735   6.576   9.808  11.142  0.0802 -0.8850 -0.3188
  491MOL0     C64736   6.549   9.748  11.270  0.1639  0.8142 -0.0057
  491MOL0     C64737   6.539   9.616  11.295 -1.0508 -0.2240  0.7285
  491MOL0     O64738   6.512   9.559  11.417  0.0923 -0.4298 -0.3258
  491MOL0     C64739   6.480   9.632  11.540 -0.1352 -0.5107 -0.1953
  491MOL0     C64740   6.511   9.535  11.656  0.0209  0.2020 -0.0124
  491MOL0     C64741   6.509   9.598  11.793  0.0412 -0.4112 -0.7692
  491MOL0     C64742   6.368   9.634  11.840 -0.0577 -1.0389  0.0641
  491MOL0     C64743   6.304   9.755  11.777  0.1019 -0.4495 -0.1768
  491MOL0     C64744   6.223   9.833  11.724  0.1604  0.8058  0.0931
  491MOL0     C64745   6.562   9.531  11.180 -1.0014 -1.4864  0.5436
  491MOL0     C64746   6.593   9.583  11.053 -0.4900 -0.0978  0.5841
  491MOL0     H64747   6.397  10.026  10.751 -1.7855 -1.8469 -0.9639
  491MOL0     H64748   6.392  10.064  10.527 -0.0765  0.6956  1.7012
  491MOL0     H64749   6.485  10.224  10.349 -3.1583  0.4633 -1.9912
  491MOL0     H64750   6.405  10.064  10.307  1.8942 -2.4538  2.6775
  491MOL0     H64751   6.615  10.207  10.124  0.1030 -0.6276 -1.4294
  491MOL0     H64752   6.436  10.222  10.114 -1.7499 -1.6168 -0.0703
  491MOL0     H64753   6.574   9.940  10.117 -0.8984 -0.4667 -0.1152
  491MOL0     H64754   6.584  10.050   9.980  1.1402 -1.2087  0.4758
  491MOL0     H64755   6.407   9.867   9.980 -0.6246 -0.2619  1.8577
  491MOL0     H64756   6.331   9.947  10.112  0.3261  0.6173  0.4169
  491MOL0     H64757   6.375  10.093   9.857 -0.9174  0.2037 -0.2886
  491MOL0     H64758   6.282  10.148   9.988  2.2774  0.1435  0.0516
  491MOL0     H64759   6.188   9.908   9.823 -1.7924 -0.2704 -0.5343
  491MOL0     H64760   6.111  10.043   9.816  0.8416 -0.7439 -1.3352
  491MOL0     H64761   6.127   9.873  10.067  1.1332 -0.3807 -1.5375
  491MOL0     H64762   6.063  10.038  10.083  1.3238 -1.9741  0.9946
  491MOL0     H64763   5.876   9.896  10.071  0.5619  0.8214  1.6566
  491MOL0     H64764   5.916   9.830   9.919 -0.7538  0.0870  0.7996
  491MOL0     H64765   5.914  10.200  10.001  2.3640 -1.5986 -1.4805
  491MOL0     H64766   5.727  10.382   9.795  3.9953  1.4818  2.1826
  491MOL0     H64767   5.684  10.375   9.975  4.3120 -0.5447 -1.2941
  491MOL0     H64768   5.463  10.281   9.937 -0.0871 -2.1161 -0.7555
  491MOL0     H64769   5.496  10.284   9.770  1.1139  1.6497 -0.4598
  491MOL0     H64770   5.496  10.526   9.953  2.3989 -2.6748 -0.3654
  491MOL0     H64771   5.519  10.530   9.788  0.3601  0.0038  0.6687
  491MOL0     H64772   5.267  10.398   9.915  1.4589 -1.5573 -1.4905
  491MOL0     H64773   5.286  10.457   9.747  1.6604  1.0182 -0.5856
  491MOL0     H64774   5.186  10.825  10.020 -0.9411  0.5175  0.1882
  491MOL0     H64775   4.948  10.905  10.026 -2.8665  0.1618 -0.7182
  491MOL0     H64776   4.518  10.874   9.785  2.3488 -1.0166  1.7736
  491MOL0     H64777   4.288  10.970   9.795 -2.5086  0.1323  2.2040
  491MOL0     H64778   4.237  11.200   9.763  3.2607  1.9903  0.9467
  491MOL0     H64779   4.253  11.340   9.876  0.7744 -0.0398 -0.0726
  491MOL0     H64780   4.018  11.319   9.932  0.3936 -2.4602  0.7125
  491MOL0     H64781   3.999  11.169   9.851 -2.4282  0.2610  0.6057
  491MOL0     H64782   4.027  11.314   9.618 -0.3251  0.3282  0.5050
  491MOL0     H64783   4.061  11.454   9.726 -1.9252  1.4352  0.0893
  491MOL0     H64784   3.797  11.303   9.710 -1.3471  1.0518 -4.4016
  491MOL0     H64785   3.837  11.437   9.817  0.7167  0.8627  0.6711
  491MOL0     H64786   3.827  11.446   9.511 -2.9650  0.0383 -0.5504
  491MOL0     H64787   3.903  11.573   9.597 -3.4098  4.7973 -1.4310
  491MOL0     H64788   3.697  11.610   9.734 -1.0238  0.9864 -0.6425
  491MOL0     H64789   3.613  11.488   9.647 -0.6258  0.9963  0.6001
  491MOL0     H64790   3.552  11.701   9.565  1.0781  0.3468  0.1149
  491MOL0     H64791   3.706  11.748   9.517 -2.6616  1.6686 -0.9091
  491MOL0     H64792   3.697  11.520   9.367 -0.1792  0.2721 -1.5392
  491MOL0     H64793   3.611  11.672   9.315 -0.4730  2.2375  1.4562
  491MOL0     H64794   4.395  11.183  10.152  0.5914 -1.3170  1.2103
  491MOL0     H64795   4.612  11.040  10.163  1.3211  1.7233 -0.0137
  491MOL0     H64796   4.835  10.523   9.855 -1.8673 -0.2156  3.3834
  491MOL0     H64797   5.068  10.460   9.828  0.9567  0.9242 -1.2778
  491MOL0     H64798   6.808   9.991  10.478 -1.3104 -0.7010 -0.3878
  491MOL0     H64799   6.826   9.929  10.727 -1.0753 -1.8374  0.8184
  491MOL0     H64800   6.582   9.916  11.127 -1.2949 -0.5343  1.3416
  491MOL0     H64801   6.549   9.824  11.347  0.5384  0.9845 -0.1696
  491MOL0     H64802   6.377   9.668  11.532 -0.3089 -0.6440  1.1366
  491MOL0     H64803   6.545   9.719  11.551 -0.0022 -0.6739  0.3701
  491MOL0     H64804   6.452   9.443  11.653 -0.2693  0.2123  2.4976
  491MOL0     H64805   6.617   9.514  11.639 -0.3009 -1.9043  0.2524
  491MOL0     H64806   6.581   9.679  11.782  0.4393 -1.0908 -4.4692
  491MOL0     H64807   6.537   9.525  11.870  0.7162 -0.4524 -1.0542
  491MOL0     H64808   6.308   9.545  11.819 -3.1955  0.2165  2.6934
  491MOL0     H64809   6.367   9.665  11.945  1.1595  0.3203 -0.2985
  491MOL0     H64810   6.142   9.888  11.681 -0.2228 -0.6675 -1.1944
  491MOL0     H64811   6.561   9.424  11.197 -1.5816 -1.4045  1.0651
  491MOL0     H64812   6.593   9.517  10.967 -0.1554  0.2560  0.3126
  492MOL0     O64813   0.386   6.570   5.224 -0.1494  1.0176  0.1457
  492MOL0     C64814   0.501   6.571   5.257 -0.2352 -0.4076 -0.4996
  492MOL0     O64815   0.602   6.542   5.175  0.0400  0.2557 -0.0485
  492MOL0     C64816   0.589   6.520   5.041 -0.6772  0.6962 -0.4578
  492MOL0     C64817   0.631   6.391   4.995  0.6024 -0.2526  0.6190
  492MOL0     C64818   0.616   6.355   4.862 -0.5008 -0.2773 -0.3295
  492MOL0     C64819   0.584   6.456   4.771  0.0779 -0.5313 -1.3549
  492MOL0     O64820   0.580   6.420   4.638  0.0245 -0.1172  0.3354
  492MOL0     C64821   0.468   6.470   4.558  0.6524  0.4595 -0.1359
  492MOL0     C64822   0.329   6.437   4.618 -0.0227 -0.3715  0.7121
  492MOL0     C64823   0.223   6.464   4.520  1.2441  0.2211  1.1599
  492MOL0     C64824   0.082   6.404   4.575 -0.3338 -1.0253  1.0630
  492MOL0     C64825  -0.035   6.470   4.503  0.5888  0.4139 -0.4041
  492MOL0     C64826  -0.173   6.419   4.567  0.5245 -0.1821  0.4682
  492MOL0     C64827  -0.294   6.500   4.505 -0.0819 -0.0900  0.0519
  492MOL0     C64828  -0.301   6.644   4.562 -0.0766  0.0707  0.2719
  492MOL0     N64829  -0.366   6.635   4.691  0.3544 -0.3770  0.1746
  492MOL0     C64830  -0.310   6.694   4.805 -0.7423 -0.3954  0.4333
  492MOL0     C64831  -0.413   6.717   4.888  0.5994  0.1962 -0.3513
  492MOL0     C64832  -0.410   6.791   5.023 -0.5260 -0.0640  0.6478
  492MOL0     C64833  -0.393   6.683   5.137 -0.3717 -0.1733  0.4032
  492MOL0     C64834  -0.367   6.755   5.272  0.5060 -0.4574 -0.1277
  492MOL0     C64835  -0.307   6.658   5.374 -0.2811  0.3934 -0.8778
  492MOL0     O64836  -0.284   6.729   5.501  0.1942  0.1619 -0.2497
  492MOL0     C64837  -0.365   6.709   5.614  0.9517 -0.0389 -0.1389
  492MOL0     C64838  -0.494   6.778   5.610 -0.4230 -0.5370  1.2136
  492MOL0     C64839  -0.591   6.755   5.711 -0.8064 -0.4744  0.2107
  492MOL0     C64840  -0.556   6.669   5.813  0.9406 -0.4519  0.3284
  492MOL0     C64841  -0.660   6.656   5.922 -0.4768  0.1620 -0.1844
  492MOL0     O64842  -0.780   6.704   5.890  0.7148 -0.4482 -0.6161
  492MOL0     C64843  -0.887   6.685   5.971  0.1810 -0.1979  0.7805
  492MOL0     C64844  -0.899   6.751   6.098  0.2083 -0.3369  0.5400
  492MOL0     C64845  -1.003   6.719   6.190 -0.1306  0.3554 -0.0993
  492MOL0     C64846  -1.107   6.630   6.158  0.4829 -0.3815  0.4997
  492MOL0     O64847  -1.212   6.596   6.252 -0.3530 -0.5085 -0.1757
  492MOL0     C64848  -1.249   6.688   6.349  0.3113  0.1320 -1.2557
  492MOL0     C64849  -1.389   6.644   6.396 -0.0889 -0.5271 -0.4164
  492MOL0     C64850  -1.492   6.585   6.294  0.4271  1.0066 -0.5680
  492MOL0     C64851  -1.610   6.514   6.368 -0.4356  0.0626 -0.3411
  492MOL0     C64852  -1.721   6.463   6.260 -1.2165  0.2497 -0.5182
  492MOL0     C64853  -1.851   6.418   6.338  0.1520  0.2844 -0.8800
  492MOL0     C64854  -1.828   6.297   6.430  0.0938  0.0510 -0.0404
  492MOL0     C64855  -1.766   6.177   6.358  0.5442 -0.9103  0.4366
  492MOL0    Cl64856  -1.730   6.051   6.465 -0.3387 -0.1899  0.1845
  492MOL0     C64857  -1.102   6.583   6.027  0.9182 -0.3838  0.0938
  492MOL0     C64858  -0.994   6.608   5.941  0.9248  0.1651 -1.2766
  492MOL0     O64859  -0.612   6.624   6.032  0.7713  0.6002 -0.0838
  492MOL0     C64860  -0.427   6.609   5.814 -0.4582 -0.4008  0.7922
  492MOL0     C64861  -0.332   6.617   5.717 -0.0740  0.1715 -0.3147
  492MOL0     N64862  -0.523   6.648   4.829  0.3752  0.9481 -0.8025
  492MOL0     N64863  -0.490   6.595   4.711 -0.4404 -0.4256  0.1590
  492MOL0     C64864   0.547   6.582   4.809 -0.2815 -0.3316  0.4080
  492MOL0     C64865   0.553   6.616   4.938 -0.2452 -0.5820  0.2904
  492MOL0     C64866   0.533   6.586   5.399 -0.9462  0.3346 -0.9893
  492MOL0     C64867   0.651   6.643   5.441 -1.2017 -0.3243 -0.6267
  492MOL0     C64868   0.689   6.645   5.575  0.2139 -0.0654  0.5998
  492MOL0     C64869   0.602   6.588   5.672 -0.4188 -0.2177 -1.3525
  492MOL0     O64870   0.645   6.578   5.804  0.2240 -0.2182 -0.1121
  492MOL0     C64871   0.649   6.704   5.875  1.2450  1.2739  0.4333
  492MOL0     C64872   0.530   6.705   5.973 -0.2729 -0.2699 -0.4309
  492MOL0     C64873   0.575   6.620   6.092 -0.3185  0.3678 -0.4343
  492MOL0     C64874   0.489   6.623   6.220 -0.6863  0.2384  0.0911
  492MOL0     C64875   0.389   6.525   6.210 -0.5021  0.4555 -0.1322
  492MOL0     C64876   0.315   6.434   6.204  0.3886  0.7643 -0.4758
  492MOL0     C64877   0.485   6.525   5.624 -0.1210 -0.3278  1.2145
  492MOL0     C64878   0.452   6.529   5.489  1.4952 -0.2071 -1.0893
  492MOL0     H64879   0.663   6.303   5.050  1.1540 -0.8295 -0.5763
  492MOL0     H64880   0.638   6.254   4.831 -1.2980 -1.5122  2.7026
  492MOL0     H64881   0.462   6.421   4.461 -1.1030  0.4637 -0.0647
  492MOL0     H64882   0.478   6.575   4.530 -1.1025 -0.0301 -2.9417
  492MOL0     H64883   0.316   6.503   4.704 -1.2881 -0.4162  0.5773
  492MOL0     H64884   0.307   6.331   4.635  0.2365 -1.0259 -2.4837
  492MOL0     H64885   0.234   6.419   4.420  3.9428 -0.2388  1.5981
  492MOL0     H64886   0.212   6.573   4.514  0.7747  0.1190 -2.5417
  492MOL0     H64887   0.097   6.298   4.555  3.0111 -0.3439 -0.7697
  492MOL0     H64888   0.069   6.402   4.683 -1.4650  0.1899  0.9742
  492MOL0     H64889  -0.023   6.436   4.400  0.6088 -4.7138  1.0013
  492MOL0     H64890  -0.030   6.579   4.516 -0.8506  0.2829  1.7657
  492MOL0     H64891  -0.180   6.442   4.673 -1.3769  0.4859  0.2292
  492MOL0     H64892  -0.172   6.311   4.549  2.5909 -0.2054  0.4928
  492MOL0     H64893  -0.271   6.506   4.398  0.5011  1.3414  0.2215
  492MOL0     H64894  -0.388   6.445   4.513  0.3758 -1.2457 -1.8104
  492MOL0     H64895  -0.368   6.714   4.511 -0.0542  0.9442  1.3923
  492MOL0     H64896  -0.204   6.694   4.563 -0.4956  0.9206  1.3798
  492MOL0     H64897  -0.205   6.714   4.823 -1.2924  5.1464 -0.7227
  492MOL0     H64898  -0.505   6.841   5.045 -0.2825  0.7674 -0.1254
  492MOL0     H64899  -0.333   6.869   5.017  0.5747 -1.0046  2.0276
  492MOL0     H64900  -0.300   6.626   5.124  1.3708  2.2230  1.4697
  492MOL0     H64901  -0.485   6.624   5.146 -2.4026  2.7025 -0.1893
  492MOL0     H64902  -0.301   6.838   5.246  2.3550 -2.2553 -1.4623
  492MOL0     H64903  -0.465   6.788   5.308  0.5613 -2.0173  1.6466
  492MOL0     H64904  -0.208   6.628   5.339  0.0727 -0.7398  1.0096
  492MOL0     H64905  -0.371   6.572   5.397  0.6680 -0.2824 -0.7345
  492MOL0     H64906  -0.526   6.841   5.527  0.5063 -0.0742  1.1842
  492MOL0     H64907  -0.688   6.805   5.706 -1.9876 -2.7512 -1.1216
  492MOL0     H64908  -0.809   6.796   6.138 -0.3032 -2.6917  5.0978
  492MOL0     H64909  -1.007   6.749   6.294 -1.6467  0.6635 -0.2350
  492MOL0     H64910  -1.270   6.790   6.314  1.2515  1.4545  1.7213
  492MOL0     H64911  -1.184   6.689   6.437 -0.7143  2.5927 -0.4221
  492MOL0     H64912  -1.446   6.732   6.429 -3.2407 -2.7093  0.3981
  492MOL0     H64913  -1.375   6.574   6.479  1.4990  2.9503  2.5297
  492MOL0     H64914  -1.447   6.511   6.227 -0.0837  0.2854 -0.1265
  492MOL0     H64915  -1.533   6.669   6.237  0.2244  0.0654 -1.8501
  492MOL0     H64916  -1.580   6.418   6.410  0.9666 -0.6255 -2.7172
  492MOL0     H64917  -1.666   6.575   6.439 -3.9899 -1.4171 -1.6433
  492MOL0     H64918  -1.678   6.380   6.203 -0.2927 -1.3660  2.3423
  492MOL0     H64919  -1.735   6.537   6.180  0.9711  0.4777 -0.7628
  492MOL0     H64920  -1.923   6.379   6.266 -0.7674  0.3307 -0.0125
  492MOL0     H64921  -1.907   6.496   6.391 -1.7731 -2.7768  1.9473
  492MOL0     H64922  -1.769   6.325   6.518 -3.5589  0.5432  2.4359
  492MOL0     H64923  -1.927   6.275   6.470 -0.3325  3.6157  1.2242
  492MOL0     H64924  -1.670   6.192   6.307  0.9135 -2.9580  0.4390
  492MOL0     H64925  -1.837   6.131   6.288  2.5287 -0.7732 -1.8280
  492MOL0     H64926  -1.181   6.522   5.984 -0.9073  0.8201  1.5440
  492MOL0     H64927  -0.986   6.566   5.841 -5.7829 -1.2297 -1.6852
  492MOL0     H64928  -0.423   6.536   5.895 -0.4733  0.1580  1.3058
  492MOL0     H64929  -0.238   6.563   5.726  0.7163  1.8511  3.1392
  492MOL0     H64930   0.521   6.653   4.731  1.2367  1.0141  1.0610
  492MOL0     H64931   0.540   6.719   4.969 -0.5419 -0.9033  1.2438
  492MOL0     H64932   0.709   6.694   5.365 -0.8657 -0.6655 -0.6047
  492MOL0     H64933   0.784   6.695   5.593 -1.0537  2.5242  0.5937
  492MOL0     H64934   0.650   6.791   5.808  0.1021  1.0539  0.1040
  492MOL0     H64935   0.746   6.716   5.924  1.4971 -2.0532  0.9870
  492MOL0     H64936   0.509   6.809   6.001 -2.1541 -0.1477 -2.0164
  492MOL0     H64937   0.438   6.674   5.922 -0.7526  3.5642 -2.3399
  492MOL0     H64938   0.675   6.658   6.115  0.1401 -1.0643  0.0582
  492MOL0     H64939   0.583   6.516   6.059 -0.0109 -0.6239  2.4948
  492MOL0     H64940   0.538   6.614   6.317  1.1240  3.0508 -0.4391
  492MOL0     H64941   0.434   6.717   6.207 -0.2112  0.0910 -4.2707
  492MOL0     H64942   0.245   6.353   6.207  1.0584  0.2073  1.6004
  492MOL0     H64943   0.428   6.476   5.702  1.4560 -1.5085  1.6721
  492MOL0     H64944   0.360   6.477   5.462  1.0540 -0.5734  0.9262
  493MOL0     O64945   6.565   3.191   6.021  0.0231  0.1355  0.5431
  493MOL0     C64946   6.503   3.295   6.016 -0.2930  0.7841 -1.2009
  493MOL0     O64947   6.393   3.327   6.095  0.1721  0.4296  0.5022
  493MOL0     C64948   6.352   3.227   6.175  0.3552  0.4735  0.5619
  493MOL0     C64949   6.398   3.196   6.300 -0.5947 -0.4626 -1.3826
  493MOL0     C64950   6.342   3.098   6.373  0.2066 -0.0979 -0.1990
  493MOL0     C64951   6.241   3.020   6.314 -0.3565 -0.1854 -0.8021
  493MOL0     O64952   6.189   2.938   6.408 -0.3618  0.2330  0.0141
  493MOL0     C64953   6.225   2.798   6.379 -0.1333 -0.4350  0.3541
  493MOL0     C64954   6.308   2.734   6.493  0.2227 -0.2962  0.8195
  493MOL0     C64955   6.247   2.768   6.637 -0.4830 -0.8770  0.6350
  493MOL0     C64956   6.341   2.708   6.740 -0.5937  0.4570  0.3761
  493MOL0     C64957   6.306   2.750   6.881  0.8816  0.4212 -0.5835
  493MOL0     C64958   6.348   2.647   6.989  0.9287  0.1186 -0.5754
  493MOL0     C64959   6.493   2.625   6.982 -0.3975  0.0158  0.3131
  493MOL0     C64960   6.524   2.516   7.086  0.2561  0.6391  0.0237
  493MOL0     N64961   6.521   2.386   7.025 -1.3416  0.4263 -0.0386
  493MOL0     C64962   6.554   2.349   6.898  0.1798  0.3893  0.3698
  493MOL0     C64963   6.517   2.220   6.886  0.3153  0.2907 -0.6378
  493MOL0     C64964   6.518   2.125   6.771  0.2775  0.3926  0.3074
  493MOL0     C64965   6.438   1.997   6.786  0.2943 -0.0988 -0.0077
  493MOL0     C64966   6.522   1.903   6.866 -0.9968  0.5463 -0.0603
  493MOL0     C64967   6.437   1.809   6.959  0.2547 -0.3266  0.2504
  493MOL0     O64968   6.383   1.711   6.865 -0.1114  1.2371 -0.0851
  493MOL0     C64969   6.261   1.669   6.912  0.4960  0.3867  0.0728
  493MOL0     C64970   6.228   1.641   7.051 -0.2159  0.3185  0.1235
  493MOL0     C64971   6.116   1.565   7.091  0.0287 -1.3755 -0.8711
  493MOL0     C64972   6.019   1.526   6.997 -0.2762  0.1723  0.0322
  493MOL0     C64973   5.908   1.448   7.033  0.4185  0.4038 -0.4514
  493MOL0     O64974   5.823   1.403   6.939  0.2801 -0.4930  0.1090
  493MOL0     C64975   5.719   1.319   6.958  0.6156 -0.2728  0.6385
  493MOL0     C64976   5.697   1.233   7.071  0.0764 -0.0813 -0.5137
  493MOL0     C64977   5.579   1.154   7.078  0.1852  0.0524  0.4502
  493MOL0     C64978   5.493   1.144   6.966  0.2500 -0.4257 -0.2048
  493MOL0     O64979   5.378   1.076   6.971 -0.6110 -0.1630 -0.5770
  493MOL0     C64980   5.407   0.935   6.963  0.9876  0.3485 -0.0410
  493MOL0     C64981   5.280   0.853   6.954  0.6914  0.2343  0.1376
  493MOL0     C64982   5.244   0.834   6.801  0.6360 -0.9038  0.0944
  493MOL0     C64983   5.135   0.728   6.777 -0.2250  0.1042  0.2397
  493MOL0     C64984   5.012   0.747   6.866  0.8465 -0.1879 -0.2132
  493MOL0     C64985   4.890   0.658   6.813  0.0071  0.3575  0.4039
  493MOL0     C64986   4.764   0.685   6.895  0.0129 -0.5445  0.3739
  493MOL0     C64987   4.763   0.626   7.033  0.7361 -0.4730  0.0569
  493MOL0    Cl64988   4.782   0.456   7.022 -0.0501  0.0198 -0.6143
  493MOL0     C64989   5.513   1.219   6.853 -0.8808  0.0755  0.0087
  493MOL0     C64990   5.620   1.316   6.855 -0.0968 -0.6624 -0.5333
  493MOL0     O64991   5.891   1.418   7.152 -0.2367 -0.4788 -0.6581
  493MOL0     C64992   6.053   1.543   6.853  0.5142  0.2514  0.1474
  493MOL0     C64993   6.166   1.619   6.817 -0.4639  1.3252  0.3098
  493MOL0     N64994   6.460   2.172   7.003  0.3410 -0.0142 -0.4798
  493MOL0     N64995   6.458   2.278   7.087 -0.4432 -0.2316  0.2813
  493MOL0     C64996   6.191   3.051   6.194 -0.0273 -0.4195  0.1620
  493MOL0     C64997   6.256   3.147   6.109  0.6719  1.3297 -0.9301
  493MOL0     C64998   6.547   3.410   5.943  1.4511 -0.2752  0.0458
  493MOL0     C64999   6.516   3.546   5.976  0.5342 -0.6216  1.1120
  493MOL0     C65000   6.577   3.652   5.906 -0.9920  0.4683  1.1914
  493MOL0     C65001   6.669   3.623   5.796 -0.0978  0.3429  0.1723
  493MOL0     O65002   6.739   3.710   5.719  1.1108 -0.5585 -0.1523
  493MOL0     C65003   6.731   3.845   5.758 -1.3553 -1.1692 -0.1725
  493MOL0     C65004   6.807   3.877   5.889  0.0339  0.3777  0.2181
  493MOL0     C65005   6.825   4.036   5.912 -0.1064 -0.1706  0.7913
  493MOL0     C65006   6.965   4.060   5.968 -0.5180  0.3418  0.6753
  493MOL0     C65007   6.990   3.994   6.091 -0.2103  0.5509 -0.8589
  493MOL0     C65008   7.008   3.934   6.198  0.7307 -1.1324  0.2477
  493MOL0     C65009   6.681   3.491   5.754  0.0320  0.2672 -0.0435
  493MOL0     C65010   6.619   3.385   5.826 -0.1018 -0.4408  0.1030
  493MOL0     H65011   6.485   3.248   6.340 -0.0810 -0.1291 -2.8987
  493MOL0     H65012   6.382   3.077   6.472  0.4895 -1.4474 -0.5772
  493MOL0     H65013   6.281   2.790   6.286 -0.4265  0.3207  0.1093
  493MOL0     H65014   6.130   2.744   6.370  0.4809 -1.4385 -0.3388
  493MOL0     H65015   6.406   2.780   6.481 -0.3679  0.6211 -0.7283
  493MOL0     H65016   6.329   2.628   6.475  0.5622 -0.1038  0.0623
  493MOL0     H65017   6.149   2.721   6.645 -0.8120 -0.4029 -0.4102
  493MOL0     H65018   6.247   2.878   6.642  0.7292 -0.9110  2.4575
  493MOL0     H65019   6.317   2.602   6.731 -0.9595  0.5853 -0.2413
  493MOL0     H65020   6.446   2.722   6.717 -0.7508 -2.0786 -2.4622
  493MOL0     H65021   6.198   2.766   6.877  0.2574 -2.8819  0.3660
  493MOL0     H65022   6.346   2.848   6.906  1.0234 -0.2424  2.0439
  493MOL0     H65023   6.308   2.546   6.975  3.0475 -0.6232 -1.8794
  493MOL0     H65024   6.316   2.685   7.086  3.0597 -0.0845  0.2583
  493MOL0     H65025   6.519   2.599   6.879 -0.0535  1.9114 -0.1177
  493MOL0     H65026   6.558   2.704   7.021 -0.7563 -0.7160  2.5320
  493MOL0     H65027   6.449   2.520   7.165 -1.3114  0.5876 -1.3944
  493MOL0     H65028   6.619   2.533   7.137  0.6955 -0.1046 -0.5210
  493MOL0     H65029   6.607   2.409   6.824 -1.3962 -0.2202 -1.3380
  493MOL0     H65030   6.620   2.092   6.751  0.6237  1.4873  0.2273
  493MOL0     H65031   6.478   2.183   6.687 -1.9389 -1.0719  0.2631
  493MOL0     H65032   6.401   1.951   6.694 -0.6416 -2.2869  1.3661
  493MOL0     H65033   6.348   2.019   6.845  1.4542 -1.3658  2.3976
  493MOL0     H65034   6.589   1.850   6.798 -1.1675  0.5615 -0.2438
  493MOL0     H65035   6.592   1.955   6.932  0.1442 -0.0457 -0.7668
  493MOL0     H65036   6.349   1.859   6.999 -2.2929 -2.0745 -2.7230
  493MOL0     H65037   6.503   1.759   7.030  3.3599 -1.9882 -3.4105
  493MOL0     H65038   6.290   1.675   7.133 -1.2479  0.4229  0.8860
  493MOL0     H65039   6.090   1.553   7.196 -5.2080  0.0068 -1.7645
  493MOL0     H65040   5.767   1.215   7.153  1.5313 -0.3146 -1.7688
  493MOL0     H65041   5.561   1.111   7.176 -3.5245 -0.3651 -0.2709
  493MOL0     H65042   5.453   0.914   7.060  1.7640  1.3828 -0.1677
  493MOL0     H65043   5.475   0.901   6.885  2.9261 -0.0384  1.7402
  493MOL0     H65044   5.194   0.903   7.000 -0.1718 -1.4117  0.3986
  493MOL0     H65045   5.296   0.752   6.992 -0.9812  0.1151  0.6392
  493MOL0     H65046   5.331   0.787   6.755 -0.7308 -1.3252 -2.2662
  493MOL0     H65047   5.209   0.929   6.757 -2.0375 -1.7430  0.2321
  493MOL0     H65048   5.108   0.734   6.671  6.2241  1.3995 -1.7771
  493MOL0     H65049   5.172   0.626   6.784  1.5810  0.8617  4.3995
  493MOL0     H65050   4.969   0.847   6.870 -3.5956 -1.9192  2.6119
  493MOL0     H65051   5.035   0.709   6.966  1.7327  2.6551  0.7635
  493MOL0     H65052   4.917   0.554   6.831 -0.0448 -0.2171 -2.3349
  493MOL0     H65053   4.854   0.679   6.712  1.2752  0.9671  0.0602
  493MOL0     H65054   4.754   0.794   6.893  2.8944 -0.1711  0.7589
  493MOL0     H65055   4.681   0.645   6.838 -0.1621  0.4617 -0.1033
  493MOL0     H65056   4.669   0.648   7.085  1.3104  0.1975  0.8397
  493MOL0     H65057   4.844   0.676   7.086 -1.3996  3.4768  0.0140
  493MOL0     H65058   5.446   1.216   6.768  0.3897 -0.8011 -0.9912
  493MOL0     H65059   5.638   1.376   6.766 -0.3407 -2.9977 -2.2689
  493MOL0     H65060   5.991   1.510   6.771  2.1352  0.2236 -1.1042
  493MOL0     H65061   6.188   1.622   6.711  2.2194 -2.7266  0.5096
  493MOL0     H65062   6.095   3.010   6.164  0.6773 -0.7920 -1.7993
  493MOL0     H65063   6.195   3.182   6.026 -2.8380  2.5804  1.8811
  493MOL0     H65064   6.490   3.577   6.077  0.6749 -0.4036  1.0814
  493MOL0     H65065   6.572   3.754   5.943  0.0281  0.7639  0.5713
  493MOL0     H65066   6.629   3.883   5.753  0.5074  4.7649 -0.5370
  493MOL0     H65067   6.779   3.909   5.684  1.9507 -2.0402  1.0223
  493MOL0     H65068   6.751   3.848   5.978  0.2687 -0.4075  0.1207
  493MOL0     H65069   6.906   3.831   5.890 -0.9522 -2.5734 -4.4122
  493MOL0     H65070   6.752   4.075   5.983 -0.9633 -1.8899  0.9048
  493MOL0     H65071   6.796   4.088   5.819 -0.1106  0.4859  1.1512
  493MOL0     H65072   7.053   4.036   5.908 -0.6923 -1.9582  1.2587
  493MOL0     H65073   6.969   4.170   5.972  1.6626  0.3147  0.3378
  493MOL0     H65074   7.019   3.887   6.294  1.4436 -0.6445  0.4158
  493MOL0     H65075   6.746   3.471   5.670 -0.8620 -1.7713 -0.3054
  493MOL0     H65076   6.621   3.286   5.783  3.6068 -0.1540 -0.7311
  494MOL0     O65077  10.489  10.672   9.404  0.0219 -0.0704  0.3876
  494MOL0     C65078  10.506  10.643   9.524  1.0881 -0.3580  0.1101
  494MOL0     O65079  10.499  10.517   9.575  0.0454 -0.2203  0.7585
  494MOL0     C65080  10.426  10.421   9.526  0.7584  0.0877  0.3401
  494MOL0     C65081  10.302  10.393   9.583 -0.4971 -0.1759 -0.2268
  494MOL0     C65082  10.224  10.286   9.535  0.8585  1.1159 -0.5482
  494MOL0     C65083  10.256  10.221   9.426  0.9669  0.4607 -1.2433
  494MOL0     O65084  10.173  10.135   9.360 -0.5814  0.1349 -0.0523
  494MOL0     C65085  10.039  10.174   9.316  0.7575 -0.2743 -0.1235
  494MOL0     C65086  10.053  10.314   9.241 -0.1712 -0.1037 -0.6711
  494MOL0     C65087   9.919  10.342   9.172 -1.4762  0.2568 -0.5174
  494MOL0     C65088   9.910  10.484   9.103  0.3889  0.6173  0.0314
  494MOL0     C65089   9.773  10.523   9.045  0.2651 -0.0069 -0.6340
  494MOL0     C65090   9.651  10.526   9.140 -0.4988 -0.8141 -0.2396
  494MOL0     C65091   9.640  10.647   9.234 -1.1954  0.7966  0.0007
  494MOL0     C65092   9.620  10.780   9.161 -0.7112  0.2097 -0.3141
  494MOL0     N65093   9.650  10.886   9.256  0.9342  0.2320  0.0733
  494MOL0     C65094   9.560  10.939   9.343  0.2211 -0.3284  0.4893
  494MOL0     C65095   9.631  11.038   9.411 -0.6834  0.3886 -0.4348
  494MOL0     C65096   9.588  11.124   9.529  0.0337 -0.8930  0.4315
  494MOL0     C65097   9.621  11.284   9.528  0.6316 -0.3515  0.5165
  494MOL0     C65098   9.740  11.341   9.435  0.0903  0.0798 -0.2734
  494MOL0     C65099   9.745  11.493   9.425 -0.1490  0.3225 -0.6456
  494MOL0     O65100   9.632  11.547   9.353  0.5113 -0.3693 -0.6502
  494MOL0     C65101   9.628  11.689   9.334  0.5492  0.6466  0.1567
  494MOL0     C65102   9.734  11.777   9.362  0.1297  0.1454 -0.6751
  494MOL0     C65103   9.729  11.909   9.333 -0.4226 -0.4201  0.1949
  494MOL0     C65104   9.612  11.965   9.267 -0.0772 -0.0579  0.1929
  494MOL0     C65105   9.597  12.101   9.232  0.6155  0.1118  0.9608
  494MOL0     O65106   9.484  12.145   9.166 -0.1374 -0.0909 -0.4234
  494MOL0     C65107   9.463  12.278   9.121 -0.6134 -0.2924  0.0589
  494MOL0     C65108   9.331  12.314   9.094 -0.2909 -0.6270 -0.2409
  494MOL0     C65109   9.290  12.437   9.052 -0.3036  0.3897  0.0271
  494MOL0     C65110   9.389  12.532   9.032  0.4850  0.2242 -0.6015
  494MOL0     O65111   9.356  12.664   8.991 -0.1577 -0.0058  0.2987
  494MOL0     C65112   9.437  12.718   8.889 -1.1389  0.4065  0.1020
  494MOL0     C65113   9.358  12.843   8.849 -0.1910  0.7615  0.4187
  494MOL0     C65114   9.404  12.894   8.703 -0.5660  0.4297 -0.2955
  494MOL0     C65115   9.355  13.040   8.687  0.9279 -1.1309 -0.1220
  494MOL0     C65116   9.416  13.111   8.566  0.5612  0.5531 -0.2243
  494MOL0     C65117   9.567  13.123   8.569  0.1230  0.4527 -0.1807
  494MOL0     C65118   9.610  13.210   8.457  0.3385 -0.3200 -0.9072
  494MOL0     C65119   9.757  13.247   8.450  0.3861  0.3408 -0.6205
  494MOL0    Cl65120   9.840  13.290   8.608  0.5896  0.5172  0.5962
  494MOL0     C65121   9.522  12.512   9.071  1.5111  1.1885 -0.2288
  494MOL0     C65122   9.563  12.383   9.110 -0.2915 -0.4850  0.6082
  494MOL0     O65123   9.674  12.179   9.288  0.0221  0.3851  0.2931
  494MOL0     C65124   9.507  11.874   9.254 -1.0821 -0.5319  0.1499
  494MOL0     C65125   9.512  11.740   9.280 -0.3835  0.1084  0.2879
  494MOL0     N65126   9.763  11.021   9.366 -0.6084  0.2795 -0.4475
  494MOL0     N65127   9.776  10.931   9.273 -0.6322  0.2666  0.8158
  494MOL0     C65128  10.376  10.259   9.363 -0.5351  0.0709  0.0013
  494MOL0     C65129  10.458  10.364   9.405 -0.2421 -0.4053 -0.0120
  494MOL0     C65130  10.555  10.744   9.626 -0.2674  0.0490  0.7995
  494MOL0     C65131  10.656  10.701   9.720  0.2276  0.1973 -0.4364
  494MOL0     C65132  10.718  10.793   9.798  0.1846 -0.4683  0.0966
  494MOL0     C65133  10.674  10.927   9.801 -0.5022 -0.7091  0.3423
  494MOL0     O65134  10.727  11.026   9.876  1.1713  0.8315  0.0532
  494MOL0     C65135  10.730  10.999  10.012  0.3355  0.1496  0.7769
  494MOL0     C65136  10.742  11.127  10.085 -0.6402 -0.3439 -0.1649
  494MOL0     C65137  10.884  11.183  10.118 -0.1073 -0.1770 -0.3699
  494MOL0     C65138  10.904  11.328  10.166  0.0823  0.4018 -0.2774
  494MOL0     C65139  11.025  11.404  10.109  0.9787  0.6441 -0.0066
  494MOL0     C65140  11.130  11.456  10.064  0.1278  0.6693  0.7874
  494MOL0     C65141  10.572  10.975   9.712 -0.6518  0.1032 -0.1452
  494MOL0     C65142  10.512  10.886   9.628  0.2101 -0.4950  0.0816
  494MOL0     H65143  10.283  10.446   9.675  2.5586  1.6727 -0.5261
  494MOL0     H65144  10.129  10.266   9.583  0.0603  0.3593 -2.3689
  494MOL0     H65145   9.981  10.170   9.408  1.0681  0.0636  0.0921
  494MOL0     H65146  10.004  10.106   9.238 -1.0928  0.3190  0.1456
  494MOL0     H65147  10.140  10.316   9.175 -0.1256  0.7902 -0.5948
  494MOL0     H65148  10.068  10.394   9.313 -1.6344 -0.6783  0.3279
  494MOL0     H65149   9.850  10.331   9.256 -0.7548 -1.4262 -0.1003
  494MOL0     H65150   9.889  10.268   9.098 -0.9815  1.1073 -1.6093
  494MOL0     H65151   9.938  10.560   9.176  0.6910 -1.1490  1.8511
  494MOL0     H65152   9.984  10.480   9.023  0.4091 -2.1099  0.0929
  494MOL0     H65153   9.750  10.440   8.977  0.5348  0.6925 -1.6094
  494MOL0     H65154   9.772  10.620   8.994 -2.0974  1.0504  1.2504
  494MOL0     H65155   9.643  10.436   9.201 -1.5796 -0.2937  0.4250
  494MOL0     H65156   9.568  10.513   9.071 -2.2720  0.9824  1.4131
  494MOL0     H65157   9.562  10.634   9.309 -0.6729  2.7362  0.9656
  494MOL0     H65158   9.737  10.651   9.285 -1.2831 -1.5313  0.4793
  494MOL0     H65159   9.518  10.784   9.121  0.3556  0.8938 -3.2085
  494MOL0     H65160   9.698  10.797   9.086  1.2222  1.0307  1.7631
  494MOL0     H65161   9.463  10.894   9.359  0.9926 -1.4018  2.5887
  494MOL0     H65162   9.642  11.089   9.618 -3.3501 -2.8789  1.9267
  494MOL0     H65163   9.488  11.098   9.564 -0.0075  2.2241  3.1835
  494MOL0     H65164   9.645  11.300   9.633 -1.1197 -4.1491  1.6468
  494MOL0     H65165   9.530  11.344   9.519  1.8021  1.5505  0.7389
  494MOL0     H65166   9.833  11.298   9.471  1.2946  1.7250 -1.2632
  494MOL0     H65167   9.720  11.293   9.339 -0.0775 -0.9020  0.2436
  494MOL0     H65168   9.840  11.518   9.375 -0.2101  0.2744 -0.7864
  494MOL0     H65169   9.751  11.535   9.526  3.4158  0.2556 -0.6849
  494MOL0     H65170   9.831  11.741   9.394  0.1694 -1.7329 -2.6459
  494MOL0     H65171   9.816  11.973   9.343 -0.8670  0.5837 -1.7574
  494MOL0     H65172   9.249  12.244   9.110  0.9528 -1.5935  2.4900
  494MOL0     H65173   9.186  12.464   9.035 -1.2378 -3.1380 -0.6314
  494MOL0     H65174   9.430  12.648   8.805  0.2126  1.2141 -0.7188
  494MOL0     H65175   9.542  12.737   8.911 -0.7847 -1.2036 -0.0688
  494MOL0     H65176   9.355  12.909   8.936 -0.4620 -1.4762  2.2246
  494MOL0     H65177   9.257  12.814   8.821 -0.0537  2.7600 -2.4989
  494MOL0     H65178   9.372  12.837   8.615  5.0095 -0.0077 -2.4686
  494MOL0     H65179   9.513  12.886   8.703 -0.6849 -2.6684  0.9698
  494MOL0     H65180   9.247  13.054   8.691  1.1092 -0.0338  1.7307
  494MOL0     H65181   9.394  13.106   8.765 -0.6907  0.0708 -0.2741
  494MOL0     H65182   9.372  13.211   8.564 -0.0087  0.3051 -1.6310
  494MOL0     H65183   9.378  13.062   8.476  3.6184 -2.7669  0.0443
  494MOL0     H65184   9.605  13.022   8.551  1.3608  1.0339 -0.9345
  494MOL0     H65185   9.615  13.164   8.658  1.4277  0.5478 -0.8972
  494MOL0     H65186   9.573  13.161   8.367  0.1799 -0.3791 -0.8104
  494MOL0     H65187   9.543  13.297   8.464 -0.8745 -1.3655  2.1742
  494MOL0     H65188   9.778  13.333   8.387  4.9410 -0.8720 -1.1440
  494MOL0     H65189   9.803  13.162   8.399  1.5990 -0.4531  1.6559
  494MOL0     H65190   9.599  12.587   9.081  1.0147  1.4188  2.5875
  494MOL0     H65191   9.665  12.367   9.143  0.6044 -1.0929 -2.1589
  494MOL0     H65192   9.411  11.912   9.219  0.7054  3.9633 -0.5709
  494MOL0     H65193   9.431  11.681   9.238 -2.6086  2.2983  1.2526
  494MOL0     H65194  10.392  10.208   9.268 -0.9984  0.8434 -0.5037
  494MOL0     H65195  10.551  10.384   9.352 -0.9977 -0.6848 -1.4932
  494MOL0     H65196  10.665  10.594   9.729  0.0773  0.2508  0.4581
  494MOL0     H65197  10.792  10.762   9.871  2.8862  0.9990 -1.8764
  494MOL0     H65198  10.815  10.937  10.041  1.5886  0.8685 -1.2050
  494MOL0     H65199  10.635  10.948  10.032 -0.4178  1.0470 -0.3473
  494MOL0     H65200  10.691  11.209  10.033  1.1408  1.5081  0.8871
  494MOL0     H65201  10.692  11.116  10.182 -1.0507  2.1568 -0.0294
  494MOL0     H65202  10.931  11.181  10.019 -1.1829  1.1609 -0.9454
  494MOL0     H65203  10.953  11.118  10.173  0.0123 -0.7319 -1.1530
  494MOL0     H65204  10.812  11.386  10.162  1.1703  2.1583 -1.3748
  494MOL0     H65205  10.925  11.338  10.272  2.5064 -0.7723 -0.5877
  494MOL0     H65206  11.222  11.489  10.020  0.9348 -2.2822 -0.0058
  494MOL0     H65207  10.539  11.078   9.703  0.1452  0.2191 -2.2300
  494MOL0     H65208  10.431  10.917   9.563  0.5156  1.6536  0.6644
  495MOL0     O65209  10.898   9.809   7.453 -0.1401  0.3935 -0.0700
  495MOL0     C65210  10.958   9.912   7.492 -0.6224  0.9367 -0.3857
  495MOL0     O65211  10.961   9.946   7.628 -0.0008  0.3414 -0.0767
  495MOL0     C65212  10.914   9.854   7.724 -0.5900  0.5368  0.0468
  495MOL0     C65213  10.934   9.718   7.731  1.0140  0.3879 -1.1268
  495MOL0     C65214  10.866   9.636   7.824 -0.2125 -0.2573  0.1701
  495MOL0     C65215  10.776   9.689   7.913 -0.3400 -0.6300 -0.0752
  495MOL0     O65216  10.721   9.599   8.003  0.3786 -0.2481  0.1664
  495MOL0     C65217  10.574   9.596   8.009 -0.1540  0.6471  0.0375
  495MOL0     C65218  10.533   9.576   8.158  0.5241  0.1934  0.3088
  495MOL0     C65219  10.581   9.435   8.211  0.0687  0.0176 -0.1194
  495MOL0     C65220  10.523   9.415   8.353  0.1605  0.0527  0.2808
  495MOL0     C65221  10.530   9.264   8.383 -0.3680 -0.1029 -0.6591
  495MOL0     C65222  10.669   9.201   8.381  0.0727  0.2607  0.8001
  495MOL0     C65223  10.757   9.245   8.510 -0.0711  0.4260  0.4026
  495MOL0     C65224  10.888   9.170   8.513  0.7091 -0.2097 -0.5260
  495MOL0     N65225  10.872   9.037   8.571  1.0949  0.1912  0.4755
  495MOL0     C65226  10.869   8.918   8.500 -0.8060  0.3211 -0.1317
  495MOL0     C65227  10.838   8.828   8.596 -0.7206  0.1026 -0.4644
  495MOL0     C65228  10.830   8.682   8.599  0.1286  0.4243 -0.2170
  495MOL0     C65229  10.694   8.637   8.653  0.4461 -0.5137  0.0447
  495MOL0     C65230  10.716   8.510   8.736  0.9503  0.5894  0.8539
  495MOL0     C65231  10.713   8.394   8.638 -0.3203 -0.4504  0.0370
  495MOL0     O65232  10.585   8.374   8.581 -0.8297 -0.5757  0.2560
  495MOL0     C65233  10.583   8.272   8.486 -0.5277  0.1073  0.4338
  495MOL0     C65234  10.690   8.191   8.441 -0.2816 -0.4818 -0.3468
  495MOL0     C65235  10.667   8.078   8.359  0.4853 -0.1352  0.1876
  495MOL0     C65236  10.545   8.062   8.311  0.8202  0.2537 -0.2069
  495MOL0     C65237  10.502   7.948   8.223  0.9190  0.1850  1.0462
  495MOL0     O65238  10.373   7.918   8.193 -0.0823  0.2415 -1.1684
  495MOL0     C65239  10.331   7.798   8.140  0.6213 -0.6348  0.0383
  495MOL0     C65240  10.336   7.676   8.210  0.2072 -0.0479  0.0221
  495MOL0     C65241  10.278   7.563   8.177 -0.5794 -0.1693  0.5161
  495MOL0     C65242  10.214   7.558   8.052 -0.1011  0.3895 -0.8641
  495MOL0     O65243  10.155   7.443   8.005  0.3481  0.1158  0.0350
  495MOL0     C65244  10.078   7.353   8.087 -0.2988 -0.6174  0.3370
  495MOL0     C65245  10.003   7.250   7.993 -0.1623  0.3471 -1.0258
  495MOL0     C65246   9.934   7.132   8.073  0.1839 -0.1945  0.2132
  495MOL0     C65247   9.835   7.045   7.990  0.3269 -0.1335  0.0318
  495MOL0     C65248   9.794   6.914   8.061 -0.2147  0.0083  0.4421
  495MOL0     C65249   9.664   6.865   7.995 -0.4840 -1.5069 -0.1026
  495MOL0     C65250   9.647   6.719   8.053  0.4014 -0.7203 -0.6213
  495MOL0     C65251   9.565   6.628   7.951  0.7827 -0.0884  0.1692
  495MOL0    Cl65252   9.656   6.593   7.810 -0.0734 -0.1368 -0.1803
  495MOL0     C65253  10.213   7.671   7.977  0.7610 -0.8731 -0.1870
  495MOL0     C65254  10.268   7.790   8.012 -0.7772 -0.6679  0.3229
  495MOL0     O65255  10.596   7.877   8.204  0.1633 -0.2364 -0.0624
  495MOL0     C65256  10.439   8.141   8.340  0.2569 -0.8527 -0.3705
  495MOL0     C65257  10.460   8.246   8.433  0.0483 -0.4436  0.5301
  495MOL0     N65258  10.808   8.889   8.718 -0.3499 -0.1345 -0.4336
  495MOL0     N65259  10.820   9.012   8.695  0.3894 -0.5018  0.2779
  495MOL0     C65260  10.757   9.834   7.906  0.3554  0.6687 -0.6514
  495MOL0     C65261  10.822   9.907   7.816  0.0707  0.3500 -0.2635
  495MOL0     C65262  11.047   9.976   7.390  0.6760 -0.4219 -0.1984
  495MOL0     C65263  11.059   9.921   7.262 -0.1070 -0.4216  0.3653
  495MOL0     C65264  11.130   9.984   7.165 -0.7923 -0.2844 -0.4513
  495MOL0     C65265  11.188  10.114   7.185 -0.8484  0.0763 -0.3489
  495MOL0     O65266  11.283  10.155   7.090  0.2570 -0.5639 -0.0165
  495MOL0     C65267  11.397  10.229   7.144  1.1409 -0.5814  0.5325
  495MOL0     C65268  11.474  10.313   7.033 -0.0641  0.4236  0.6574
  495MOL0     C65269  11.613  10.357   7.080 -0.5080 -0.4441 -0.3055
  495MOL0     C65270  11.708  10.395   6.959  1.0596  0.9062  0.7283
  495MOL0     C65271  11.847  10.391   7.006  0.0680  0.2580 -0.3972
  495MOL0     C65272  11.971  10.392   7.047 -0.2935 -0.1337 -0.1917
  495MOL0     C65273  11.157  10.178   7.304 -0.6247  1.4191 -0.5063
  495MOL0     C65274  11.094  10.109   7.411 -0.4093 -0.2560 -0.4556
  495MOL0     H65275  10.990   9.661   7.657 -1.3625  0.2774 -2.9727
  495MOL0     H65276  10.899   9.533   7.835 -0.6624 -0.1879  2.7866
  495MOL0     H65277  10.543   9.509   7.950 -1.6774  1.2153 -0.0420
  495MOL0     H65278  10.533   9.689   7.969 -2.4043 -0.3864 -0.1834
  495MOL0     H65279  10.425   9.559   8.153  0.8364 -1.4894 -2.6842
  495MOL0     H65280  10.554   9.660   8.226  1.1230  0.0767  0.2745
  495MOL0     H65281  10.690   9.431   8.220 -0.0085 -0.6220  0.6390
  495MOL0     H65282  10.547   9.355   8.145 -0.5796 -0.3218  0.6116
  495MOL0     H65283  10.580   9.461   8.434 -0.9162 -1.2405  1.8315
  495MOL0     H65284  10.416   9.437   8.358  0.4040  1.4058 -0.0524
  495MOL0     H65285  10.477   9.207   8.306 -0.8020 -1.7732  0.7967
  495MOL0     H65286  10.480   9.253   8.480 -0.1126 -1.8029 -0.6877
  495MOL0     H65287  10.729   9.237   8.297  1.0015  2.5678  2.3402
  495MOL0     H65288  10.656   9.093   8.380  0.3113  0.2274  1.0953
  495MOL0     H65289  10.793   9.346   8.490 -0.5280 -0.2000 -5.3117
  495MOL0     H65290  10.715   9.245   8.611 -1.5368  1.5745 -0.1778
  495MOL0     H65291  10.973   9.218   8.562  2.5691 -1.9533 -1.8523
  495MOL0     H65292  10.921   9.156   8.410 -1.1487 -1.1152 -1.0454
  495MOL0     H65293  10.911   8.896   8.403  1.7494  0.7029  0.8039
  495MOL0     H65294  10.902   8.644   8.672 -1.5962 -0.3581  1.1524
  495MOL0     H65295  10.837   8.633   8.501  0.1194 -3.0342  1.3329
  495MOL0     H65296  10.629   8.618   8.567  3.5025 -2.3854 -2.0390
  495MOL0     H65297  10.648   8.712   8.717  2.0017  0.8859 -0.3764
  495MOL0     H65298  10.809   8.500   8.793  0.8419 -1.1027  0.7706
  495MOL0     H65299  10.625   8.500   8.797  1.6414 -1.9242  1.5879
  495MOL0     H65300  10.750   8.305   8.690 -4.1841 -2.2375  0.0829
  495MOL0     H65301  10.780   8.424   8.557 -0.6225  1.6325  0.4846
  495MOL0     H65302  10.793   8.212   8.465 -0.5726  0.8450 -0.1849
  495MOL0     H65303  10.743   8.007   8.329  1.4902  0.9025  0.1991
  495MOL0     H65304  10.393   7.683   8.302  0.4013  0.3705 -0.1285
  495MOL0     H65305  10.299   7.473   8.235  1.0705  0.7130  1.3623
  495MOL0     H65306  10.002   7.419   8.132 -0.8634 -0.2614 -1.0787
  495MOL0     H65307  10.140   7.301   8.160 -0.0539 -2.0285 -0.8293
  495MOL0     H65308  10.078   7.201   7.931 -0.2694  0.1155 -0.9761
  495MOL0     H65309   9.931   7.305   7.932  0.4841  2.4504  0.0138
  495MOL0     H65310   9.882   7.183   8.155 -1.0995 -3.6906  1.8260
  495MOL0     H65311  10.006   7.070   8.127 -2.9886 -3.8191  0.7673
  495MOL0     H65312   9.753   7.115   7.971  0.2568 -0.5215 -1.2452
  495MOL0     H65313   9.867   7.011   7.891  2.3708  0.2985  0.5133
  495MOL0     H65314   9.772   6.930   8.167 -0.9703 -3.4405  0.9390
  495MOL0     H65315   9.869   6.836   8.043 -0.6788 -0.6836  1.3908
  495MOL0     H65316   9.657   6.875   7.886  1.4545 -2.9774 -0.4137
  495MOL0     H65317   9.580   6.927   8.028  0.2826 -0.8323  0.6130
  495MOL0     H65318   9.741   6.669   8.078 -0.1681 -0.2697  2.9843
  495MOL0     H65319   9.600   6.736   8.150 -0.8321  0.4912 -1.3912
  495MOL0     H65320   9.473   6.683   7.927  0.7949  0.3671  1.1055
  495MOL0     H65321   9.539   6.539   8.009 -0.4057  0.9196  1.2660
  495MOL0     H65322  10.160   7.672   7.882  0.0694  0.7901  0.1757
  495MOL0     H65323  10.250   7.874   7.946 -0.3284 -0.1433  0.8560
  495MOL0     H65324  10.342   8.120   8.295  1.2379 -2.2563 -1.9426
  495MOL0     H65325  10.376   8.302   8.473  2.1836  1.5214  2.5326
  495MOL0     H65326  10.669   9.869   7.959  0.4259  0.4658 -0.3922
  495MOL0     H65327  10.791  10.011   7.817  1.6553  0.8429  0.3056
  495MOL0     H65328  11.013   9.824   7.244  2.1115 -1.4808  0.0356
  495MOL0     H65329  11.149   9.935   7.070 -1.0306  0.1254 -0.7133
  495MOL0     H65330  11.459  10.164   7.206  1.5445 -2.1355 -1.3944
  495MOL0     H65331  11.366  10.314   7.205 -0.8975  0.6040 -1.9396
  495MOL0     H65332  11.478  10.244   6.949 -2.1222 -1.3610  1.9096
  495MOL0     H65333  11.409  10.391   6.991 -0.7756 -0.6565 -0.3065
  495MOL0     H65334  11.655  10.276   7.140 -0.6779 -1.5356 -1.5915
  495MOL0     H65335  11.608  10.446   7.142  1.1848 -0.8031  0.3778
  495MOL0     H65336  11.704  10.324   6.876 -1.8188 -0.0932  1.5933
  495MOL0     H65337  11.683  10.492   6.915 -0.1725  1.2913  2.1775
  495MOL0     H65338  12.068  10.406   7.088 -1.3299  2.5587  1.6165
  495MOL0     H65339  11.190  10.281   7.309 -0.5246  1.3300  1.5951
  495MOL0     H65340  11.087  10.165   7.503 -1.1887  0.5278 -0.9727
  496MOL0     O65341   5.972   9.344   3.145  0.0725  0.1990 -0.8324
  496MOL0     C65342   5.961   9.300   3.032  1.0008  0.3365 -0.0890
  496MOL0     O65343   5.908   9.182   2.998  0.2999 -0.1321 -0.2991
  496MOL0     C65344   5.859   9.085   3.081  0.4158 -0.9449 -0.1859
  496MOL0     C65345   5.767   9.003   3.015 -1.0542  0.0884  0.7966
  496MOL0     C65346   5.696   8.903   3.086 -0.1069  0.3955 -0.4776
  496MOL0     C65347   5.721   8.878   3.221  0.6437  0.3248  0.1392
  496MOL0     O65348   5.649   8.787   3.282  0.1944  0.2518  0.1355
  496MOL0     C65349   5.596   8.815   3.416  0.3965  1.0587 -0.8063
  496MOL0     C65350   5.463   8.898   3.397 -0.0733 -1.0330 -1.3804
  496MOL0     C65351   5.346   8.806   3.334 -0.8653 -0.1854 -0.5896
  496MOL0     C65352   5.208   8.877   3.309 -0.3455 -0.3723  0.2399
  496MOL0     C65353   5.115   8.825   3.421 -0.1834 -0.4654  0.6472
  496MOL0     C65354   4.976   8.890   3.415  0.5757 -0.1210 -0.1206
  496MOL0     C65355   4.865   8.825   3.501 -0.2894  0.5362 -0.3680
  496MOL0     C65356   4.736   8.905   3.488 -0.4884  0.3937  0.0772
  496MOL0     N65357   4.749   9.036   3.556 -0.7355 -0.0241  0.1033
  496MOL0     C65358   4.719   9.055   3.690  0.0919  0.2515 -0.3620
  496MOL0     C65359   4.736   9.187   3.707 -0.2088 -0.5237  0.7569
  496MOL0     C65360   4.698   9.272   3.830 -0.0618  0.6793  0.1003
  496MOL0     C65361   4.693   9.192   3.967  0.9755 -0.1872  0.0831
  496MOL0     C65362   4.831   9.135   4.011 -0.2139  1.1215 -1.1102
  496MOL0     C65363   4.843   9.130   4.169  0.0682  0.4644  0.6098
  496MOL0     O65364   4.738   9.061   4.231  0.4024 -1.1742  0.4912
  496MOL0     C65365   4.710   9.082   4.366 -0.1873 -0.4055  0.2215
  496MOL0     C65366   4.607   9.171   4.408 -1.3512  0.2927 -0.7454
  496MOL0     C65367   4.571   9.178   4.543  0.2604  0.1388 -0.6584
  496MOL0     C65368   4.643   9.112   4.648 -0.4407 -0.4599 -0.5707
  496MOL0     C65369   4.595   9.107   4.784 -0.3396  0.4920  0.0831
  496MOL0     O65370   4.663   9.032   4.874  0.7836 -0.6709  1.4173
  496MOL0     C65371   4.652   9.053   5.006 -0.3850  0.4905 -0.0466
  496MOL0     C65372   4.765   9.101   5.078 -0.1525  1.0752  0.1344
  496MOL0     C65373   4.765   9.106   5.214  0.5636 -0.3966 -0.5360
  496MOL0     C65374   4.660   9.062   5.287  0.4396  0.3499 -1.3719
  496MOL0     O65375   4.655   9.064   5.422 -0.3932 -0.4180  0.4848
  496MOL0     C65376   4.783   9.073   5.491 -0.0015  0.8440  0.4644
  496MOL0     C65377   4.757   9.053   5.634  0.9854  0.2058  0.4209
  496MOL0     C65378   4.737   8.906   5.674  0.5389 -0.0622 -1.0904
  496MOL0     C65379   4.769   8.885   5.820 -0.6726  0.0300  0.3358
  496MOL0     C65380   4.914   8.901   5.862  0.4071 -0.2756 -0.2029
  496MOL0     C65381   4.986   8.782   5.807 -0.3246  0.0708  0.1628
  496MOL0     C65382   5.132   8.784   5.841  0.1767 -0.4085  0.0925
  496MOL0     C65383   5.217   8.663   5.827 -0.3735  0.7944  0.3363
  496MOL0    Cl65384   5.230   8.588   5.979 -0.2549 -0.5499  0.0028
  496MOL0     C65385   4.547   9.014   5.218 -0.4367 -1.0851  0.3524
  496MOL0     C65386   4.541   9.006   5.085  0.0126 -0.3613  0.3529
  496MOL0     O65387   4.492   9.171   4.795  0.5537 -0.2258  0.0352
  496MOL0     C65388   4.739   9.026   4.601  0.5723  0.2484 -0.2741
  496MOL0     C65389   4.768   9.009   4.468 -1.4688 -0.5411 -0.1269
  496MOL0     N65390   4.782   9.247   3.592  1.2216  0.0129 -0.8213
  496MOL0     N65391   4.787   9.158   3.498  0.0996 -0.8703  0.2487
  496MOL0     C65392   5.815   8.954   3.282 -0.7755 -0.8309  0.2389
  496MOL0     C65393   5.887   9.060   3.215 -0.9251  0.3652  0.7787
  496MOL0     C65394   6.035   9.359   2.923  0.4837  0.3542 -0.1741
  496MOL0     C65395   6.116   9.473   2.961 -0.3256  0.3193  0.9472
  496MOL0     C65396   6.202   9.533   2.867 -0.2012  0.4761 -0.2191
  496MOL0     C65397   6.204   9.494   2.737  0.4610  0.9350  0.3086
  496MOL0     O65398   6.306   9.547   2.663  0.0856  1.0237  0.0925
  496MOL0     C65399   6.330   9.500   2.531  0.0093 -0.8858 -1.3941
  496MOL0     C65400   6.429   9.595   2.447  0.1241 -0.4488 -0.2588
  496MOL0     C65401   6.568   9.597   2.501  0.0191  0.5543 -0.7008
  496MOL0     C65402   6.672   9.639   2.399 -0.0649  0.1015  0.5089
  496MOL0     C65403   6.653   9.781   2.360  0.2316  0.0272 -0.0021
  496MOL0     C65404   6.653   9.891   2.308  0.3862 -0.8649 -0.7809
  496MOL0     C65405   6.134   9.383   2.695  0.8762 -0.1082 -1.2263
  496MOL0     C65406   6.045   9.320   2.789  0.0923 -0.3004 -0.1845
  496MOL0     H65407   5.745   9.014   2.909 -0.1257 -1.9076  0.3591
  496MOL0     H65408   5.625   8.835   3.041  2.6653 -3.5910  0.6570
  496MOL0     H65409   5.670   8.855   3.485  2.1261 -3.3619  0.2678
  496MOL0     H65410   5.566   8.718   3.457  3.0046  0.8390  0.7695
  496MOL0     H65411   5.479   8.980   3.326  1.0947 -1.6904 -1.9252
  496MOL0     H65412   5.446   8.936   3.498  0.0464 -4.4203  0.0455
  496MOL0     H65413   5.323   8.722   3.400 -2.7179  1.2085  0.6571
  496MOL0     H65414   5.378   8.758   3.241 -1.0731  2.4183 -2.1321
  496MOL0     H65415   5.220   8.985   3.297  1.1275 -0.7476 -2.2731
  496MOL0     H65416   5.185   8.851   3.206  1.9682  1.8576 -0.9379
  496MOL0     H65417   5.158   8.842   3.520  2.5523  1.4922 -0.7561
  496MOL0     H65418   5.103   8.719   3.393  3.4432 -0.9853  0.5598
  496MOL0     H65419   4.941   8.878   3.312  2.5357  2.0546 -1.1433
  496MOL0     H65420   4.979   8.998   3.434  2.0340 -0.0633 -0.5422
  496MOL0     H65421   4.862   8.721   3.469  4.4163  0.3629 -0.8704
  496MOL0     H65422   4.899   8.836   3.604 -0.3486 -0.3070 -0.2532
  496MOL0     H65423   4.648   8.860   3.534 -1.5656  0.7795 -1.5344
  496MOL0     H65424   4.712   8.921   3.383  0.5740  1.1046 -0.0761
  496MOL0     H65425   4.696   8.976   3.761  0.4058  0.1595 -0.3604
  496MOL0     H65426   4.596   9.306   3.810 -1.2449 -3.4421 -2.1582
  496MOL0     H65427   4.769   9.355   3.828  1.7846 -0.7384  2.2190
  496MOL0     H65428   4.623   9.109   3.954 -2.5603  2.9040 -3.0180
  496MOL0     H65429   4.661   9.258   4.048  1.2402  0.5439 -0.3927
  496MOL0     H65430   4.855   9.036   3.970  0.1857  0.9762 -0.5461
  496MOL0     H65431   4.914   9.199   3.982  2.6654 -0.3297  2.9205
  496MOL0     H65432   4.837   9.231   4.211 -2.9288  0.7247 -0.2209
  496MOL0     H65433   4.937   9.075   4.181 -0.4532 -0.1328  2.1707
  496MOL0     H65434   4.559   9.243   4.342  1.9151  3.0434 -0.3777
  496MOL0     H65435   4.479   9.230   4.569 -0.5616 -1.3940 -0.3405
  496MOL0     H65436   4.849   9.110   5.010 -0.0578 -2.1865 -0.2949
  496MOL0     H65437   4.856   9.137   5.265 -2.0918  3.2264  2.5641
  496MOL0     H65438   4.819   9.175   5.473 -1.6475  1.7052  1.7620
  496MOL0     H65439   4.854   8.996   5.459 -0.8131  0.0333  0.5917
  496MOL0     H65440   4.663   9.100   5.662 -0.1538 -3.4193  3.3925
  496MOL0     H65441   4.845   9.088   5.689  0.1563  1.0842  1.2217
  496MOL0     H65442   4.797   8.840   5.611 -1.0529 -1.0260 -1.6737
  496MOL0     H65443   4.630   8.890   5.655  0.0860 -1.3676  2.0191
  496MOL0     H65444   4.731   8.974   5.871  1.0914  0.1733  1.4961
  496MOL0     H65445   4.719   8.792   5.849 -2.0151 -0.3632 -2.8169
  496MOL0     H65446   4.923   8.899   5.971  3.1674  1.0965 -0.3260
  496MOL0     H65447   4.960   8.985   5.810 -0.8430 -0.0285 -0.9364
  496MOL0     H65448   4.978   8.792   5.698 -1.7140 -2.3141 -0.0266
  496MOL0     H65449   4.954   8.681   5.834  0.0913  0.3857  1.9380
  496MOL0     H65450   5.172   8.866   5.781  0.0484 -1.4857 -1.5147
  496MOL0     H65451   5.146   8.834   5.938 -0.8037  2.1769 -1.0225
  496MOL0     H65452   5.318   8.691   5.798 -0.5232 -2.0365 -3.8300
  496MOL0     H65453   5.181   8.602   5.743  3.2486  0.7638 -1.3728
  496MOL0     H65454   4.458   8.980   5.270 -1.2865 -3.3598 -2.3089
  496MOL0     H65455   4.447   8.974   5.040 -1.4374  2.2753  1.2818
  496MOL0     H65456   4.791   8.970   4.678 -0.2833 -0.1684  0.0133
  496MOL0     H65457   4.840   8.935   4.434  0.7591  1.8534 -0.9834
  496MOL0     H65458   5.828   8.923   3.385 -1.5546  0.7559  0.8547
  496MOL0     H65459   5.964   9.114   3.269  2.5183 -3.2032 -0.0770
  496MOL0     H65460   6.135   9.497   3.065  1.8776  0.6996  0.4871
  496MOL0     H65461   6.282   9.595   2.906  2.0377 -2.0680 -0.4697
  496MOL0     H65462   6.238   9.507   2.472  0.1007  1.6429 -1.3299
  496MOL0     H65463   6.377   9.401   2.537 -1.9520 -1.8788 -1.3738
  496MOL0     H65464   6.413   9.552   2.347 -2.9375 -0.2000  0.0228
  496MOL0     H65465   6.389   9.696   2.437  3.5681  1.1247  0.3532
  496MOL0     H65466   6.589   9.497   2.539  1.3420  0.9885 -0.2420
  496MOL0     H65467   6.559   9.671   2.581 -1.3485 -1.1989  0.8428
  496MOL0     H65468   6.776   9.637   2.434 -0.0397  3.2710  0.8927
  496MOL0     H65469   6.655   9.574   2.313  3.5916 -2.0758  1.1902
  496MOL0     H65470   6.660   9.988   2.263  0.9050  0.3589  1.7787
  496MOL0     H65471   6.125   9.347   2.593  0.1579  0.7464 -1.4765
  496MOL0     H65472   5.990   9.236   2.748  0.7156 -0.3024 -1.0435
  497MOL0     O65473   4.448   5.182   5.400 -0.6028 -0.0285  0.8476
  497MOL0     C65474   4.531   5.131   5.323 -0.0374  0.5131 -0.4777
  497MOL0     O65475   4.517   5.010   5.266 -0.3148  0.8523 -0.1294
  497MOL0     C65476   4.417   4.922   5.301  0.0996 -0.4010 -0.0791
  497MOL0     C65477   4.300   4.925   5.233 -0.2105 -0.2200 -1.0912
  497MOL0     C65478   4.201   4.834   5.254 -0.2542  0.2964  0.1950
  497MOL0     C65479   4.228   4.725   5.347  0.6141  0.6064  0.2211
  497MOL0     O65480   4.141   4.620   5.370  0.8406  1.0019  0.1648
  497MOL0     C65481   3.999   4.635   5.381 -0.0601  0.0196 -0.1884
  497MOL0     C65482   3.929   4.507   5.424 -1.1622 -0.2099  0.3198
  497MOL0     C65483   3.914   4.489   5.577  0.2487  0.7051  0.3064
  497MOL0     C65484   4.046   4.525   5.658 -0.2926  0.2925 -0.5134
  497MOL0     C65485   4.041   4.486   5.805 -0.5642  0.5335 -0.6536
  497MOL0     C65486   4.150   4.564   5.878  0.0598 -0.1545  0.4612
  497MOL0     C65487   4.175   4.493   6.015  0.3413 -0.4108  0.3010
  497MOL0     C65488   4.328   4.476   6.014 -0.3885 -0.9084 -0.4129
  497MOL0     N65489   4.383   4.438   6.153  0.5599 -0.4304  1.1503
  497MOL0     C65490   4.337   4.320   6.210 -0.5718  0.1501 -0.1555
  497MOL0     C65491   4.451   4.266   6.277  1.0558  0.5304  0.5819
  497MOL0     C65492   4.476   4.122   6.336  0.7150  0.7735  0.5698
  497MOL0     C65493   4.345   4.062   6.398  0.0090 -0.9639 -0.0814
  497MOL0     C65494   4.357   3.913   6.418 -0.6713 -0.3085  0.8103
  497MOL0     C65495   4.228   3.856   6.481 -0.8972 -0.7625 -0.0162
  497MOL0     O65496   4.207   3.916   6.613  0.0258 -0.7161  1.0630
  497MOL0     C65497   4.265   3.891   6.730  0.5138  0.4468 -0.1737
  497MOL0     C65498   4.293   4.000   6.816  0.1070 -0.5822  0.5292
  497MOL0     C65499   4.305   3.981   6.950  0.9614 -0.8081 -0.3154
  497MOL0     C65500   4.316   3.849   6.999  0.3918 -0.7077 -1.0428
  497MOL0     C65501   4.313   3.836   7.148 -0.0176 -0.3524 -1.3604
  497MOL0     O65502   4.316   3.707   7.204 -0.2072 -0.2273  0.0108
  497MOL0     C65503   4.268   3.695   7.335  0.0114 -1.1359  0.6097
  497MOL0     C65504   4.139   3.703   7.355  1.3022  0.7404 -0.0192
  497MOL0     C65505   4.076   3.707   7.481  0.1915  0.1025  0.3565
  497MOL0     C65506   4.153   3.682   7.597 -0.3626  0.7123  0.7899
  497MOL0     O65507   4.095   3.687   7.722 -1.1713  0.6354  0.5037
  497MOL0     C65508   4.152   3.594   7.817  0.9142 -0.6644 -0.4482
  497MOL0     C65509   4.263   3.653   7.912 -0.2249 -0.1792 -0.4094
  497MOL0     C65510   4.323   3.542   8.008 -0.2709  0.6704  0.2925
  497MOL0     C65511   4.421   3.449   7.932  0.3850 -0.5157 -0.5589
  497MOL0     C65512   4.481   3.343   8.020 -0.2250  0.8934  0.7408
  497MOL0     C65513   4.378   3.243   8.069 -0.3431 -0.2490  0.7588
  497MOL0     C65514   4.444   3.149   8.164 -0.1308  0.1380 -0.1577
  497MOL0     C65515   4.362   3.120   8.293 -0.1561 -0.4045 -0.8707
  497MOL0    Cl65516   4.183   3.091   8.255  0.0784  0.1244  0.1981
  497MOL0     C65517   4.291   3.672   7.577  0.0285  0.2502  0.2285
  497MOL0     C65518   4.351   3.681   7.450  0.2640  0.8435  0.2218
  497MOL0     O65519   4.302   3.946   7.210 -0.9775  0.1702 -0.5660
  497MOL0     C65520   4.317   3.738   6.910  0.1939  0.1302  0.3196
  497MOL0     C65521   4.289   3.761   6.769 -0.4541  0.1552  0.0869
  497MOL0     N65522   4.554   4.363   6.271 -0.4710  0.0651  0.7013
  497MOL0     N65523   4.513   4.463   6.195 -0.0315 -0.1628  0.0667
  497MOL0     C65524   4.342   4.724   5.415  0.2004  0.3208  0.4032
  497MOL0     C65525   4.437   4.825   5.402  0.4241 -0.2842 -0.6803
  497MOL0     C65526   4.634   5.211   5.256 -0.0649  0.4922  0.3235
  497MOL0     C65527   4.629   5.351   5.262 -0.3212  0.6471  0.1618
  497MOL0     C65528   4.729   5.435   5.223  0.7221  0.4978 -0.4272
  497MOL0     C65529   4.837   5.377   5.163 -0.1125 -0.6492  0.0979
  497MOL0     O65530   4.941   5.461   5.136  0.4759 -0.5090  0.5560
  497MOL0     C65531   5.021   5.433   5.026  0.3913  0.4278  0.1925
  497MOL0     C65532   5.032   5.558   4.945  0.3968 -0.7803 -0.3545
  497MOL0     C65533   4.901   5.646   4.931 -0.5682  1.3783  0.8855
  497MOL0     C65534   4.891   5.741   5.042 -0.2966 -0.1045 -0.0544
  497MOL0     C65535   4.808   5.834   4.977 -0.7213 -0.7240 -0.0281
  497MOL0     C65536   4.741   5.909   4.908 -0.0983 -0.1706 -0.2864
  497MOL0     C65537   4.840   5.235   5.129 -0.0001  0.2218 -0.5006
  497MOL0     C65538   4.742   5.155   5.190 -1.3511 -0.2486  1.0192
  497MOL0     H65539   4.292   5.005   5.159 -1.2513  0.9774  0.2342
  497MOL0     H65540   4.110   4.830   5.195  1.5949 -3.8031 -2.8945
  497MOL0     H65541   3.961   4.680   5.289 -0.0633 -1.8455 -1.1665
  497MOL0     H65542   3.984   4.710   5.459 -1.5961  1.5169 -1.8385
  497MOL0     H65543   3.975   4.418   5.379 -0.3881  1.0991 -1.6000
  497MOL0     H65544   3.832   4.522   5.378 -0.5045 -0.1763 -1.1009
  497MOL0     H65545   3.876   4.391   5.608 -0.0019  0.8443  0.4446
  497MOL0     H65546   3.839   4.557   5.618 -1.3410 -1.2979  0.8799
  497MOL0     H65547   4.141   4.482   5.622  0.9170  1.0955  1.5515
  497MOL0     H65548   4.046   4.634   5.660 -1.3266  0.2850  0.4875
  497MOL0     H65549   4.073   4.381   5.804 -1.6414  0.1863 -0.2058
  497MOL0     H65550   3.936   4.492   5.835 -0.5879 -0.6285 -0.4451
  497MOL0     H65551   4.114   4.663   5.907 -1.1806 -1.3826  3.4940
  497MOL0     H65552   4.240   4.565   5.815  1.0467  0.5436  1.8068
  497MOL0     H65553   4.142   4.566   6.089 -2.3301  0.4125 -1.5217
  497MOL0     H65554   4.111   4.405   6.022 -2.2672  1.1520 -1.6636
  497MOL0     H65555   4.379   4.571   5.999 -0.9639  0.1283  3.2463
  497MOL0     H65556   4.355   4.406   5.933  0.6866  1.1603 -1.9405
  497MOL0     H65557   4.239   4.276   6.193 -1.7900  3.2138 -1.7394
  497MOL0     H65558   4.559   4.129   6.407  2.8312 -0.3709 -1.6407
  497MOL0     H65559   4.505   4.069   6.245 -0.1851  2.5720 -0.8240
  497MOL0     H65560   4.265   4.081   6.325  1.4491  2.4850 -0.9627
  497MOL0     H65561   4.318   4.115   6.490 -2.3431 -1.8978 -0.1592
  497MOL0     H65562   4.389   3.862   6.327 -0.4093  2.2447 -0.6110
  497MOL0     H65563   4.439   3.907   6.490  0.1853  1.5519  0.0347
  497MOL0     H65564   4.226   3.747   6.490 -0.3963 -1.0456 -2.5799
  497MOL0     H65565   4.145   3.884   6.416 -1.4440 -0.0524  0.9602
  497MOL0     H65566   4.272   4.094   6.766 -4.5311 -0.8834  1.4200
  497MOL0     H65567   4.306   4.072   7.009 -1.1235 -0.5658 -0.5686
  497MOL0     H65568   4.067   3.709   7.273  0.9100 -0.2240  0.2377
  497MOL0     H65569   3.969   3.722   7.493  0.7623  4.2682  1.7828
  497MOL0     H65570   4.190   3.497   7.783  2.1942 -0.5687  0.6311
  497MOL0     H65571   4.065   3.567   7.876  0.1239 -0.8212 -1.6474
  497MOL0     H65572   4.210   3.725   7.977 -2.9068 -1.7986 -0.6559
  497MOL0     H65573   4.338   3.716   7.863 -1.6373 -0.2636 -2.8558
  497MOL0     H65574   4.246   3.476   8.047  1.4168 -0.1579  2.4629
  497MOL0     H65575   4.373   3.586   8.095  1.3932 -1.1801  0.3461
  497MOL0     H65576   4.356   3.404   7.856  3.6679 -5.3658 -0.9250
  497MOL0     H65577   4.500   3.512   7.890  1.7055 -0.5937  1.6114
  497MOL0     H65578   4.540   3.386   8.101 -1.1852  1.8030  0.9761
  497MOL0     H65579   4.545   3.287   7.951  1.5277 -0.9930  3.7056
  497MOL0     H65580   4.329   3.203   7.980  2.7657 -0.0940 -1.1448
  497MOL0     H65581   4.298   3.294   8.124  1.2785  4.2792 -0.6369
  497MOL0     H65582   4.448   3.056   8.107 -0.4256 -0.5225  0.8793
  497MOL0     H65583   4.543   3.183   8.195 -1.4685  2.2370  2.2184
  497MOL0     H65584   4.369   3.213   8.350  0.2320  1.0356 -3.1339
  497MOL0     H65585   4.402   3.058   8.374 -0.6320  2.6726  1.9421
  497MOL0     H65586   4.363   3.669   7.658 -0.2297 -0.0448  0.4489
  497MOL0     H65587   4.458   3.694   7.460  0.1127  1.8740  0.6583
  497MOL0     H65588   4.337   3.637   6.944  0.7621 -0.9267 -2.8306
  497MOL0     H65589   4.271   3.684   6.694  0.5364  0.3787 -0.3954
  497MOL0     H65590   4.358   4.642   5.484 -0.4106  0.0031  0.1653
  497MOL0     H65591   4.534   4.818   5.451  0.8546  1.1063 -1.2707
  497MOL0     H65592   4.548   5.412   5.301  0.5968  3.1716 -1.5992
  497MOL0     H65593   4.732   5.541   5.248  2.2428  0.5515 -0.7212
  497MOL0     H65594   4.975   5.350   4.972  1.6037 -1.1910  1.5339
  497MOL0     H65595   5.118   5.397   5.063 -1.1794 -1.7998  2.5172
  497MOL0     H65596   5.112   5.623   4.982 -0.7092 -0.2653  1.2212
  497MOL0     H65597   5.056   5.523   4.844 -0.1589  3.1216 -2.0128
  497MOL0     H65598   4.816   5.578   4.939  1.5478 -1.9462 -1.9154
  497MOL0     H65599   4.908   5.675   4.825  2.4061 -1.1658  0.2104
  497MOL0     H65600   4.835   5.699   5.125  0.5007  0.7416  0.9440
  497MOL0     H65601   4.988   5.783   5.071 -0.1598 -0.8329  0.5763
  497MOL0     H65602   4.672   5.960   4.843 -1.0223 -2.9782 -1.6777
  497MOL0     H65603   4.925   5.190   5.078  0.2303 -1.6657  1.3712
  497MOL0     H65604   4.749   5.050   5.164 -1.8959 -0.5994  2.2341
  498MOL0     O65605  10.837  11.375   5.064  0.6329  0.3398  0.1209
  498MOL0     C65606  10.870  11.312   4.960  0.3484  0.7236 -0.1831
  498MOL0     O65607  10.931  11.354   4.850  0.1019 -0.4302  0.7232
  498MOL0     C65608  10.991  11.479   4.839 -0.5287 -0.3416 -1.4161
  498MOL0     C65609  11.014  11.578   4.946  0.0468  0.5112 -0.4318
  498MOL0     C65610  11.067  11.703   4.911 -0.1082  0.1956 -0.1443
  498MOL0     C65611  11.103  11.732   4.781  0.6503 -0.5303  0.8273
  498MOL0     O65612  11.112  11.854   4.734  0.0872 -0.4821  0.6675
  498MOL0     C65613  11.210  11.927   4.801  0.2081 -1.4023  0.1981
  498MOL0     C65614  11.254  12.056   4.730 -0.1784  0.2143  0.1017
  498MOL0     C65615  11.355  12.130   4.810  0.0225  0.3762  0.1707
  498MOL0     C65616  11.464  12.200   4.729  0.7715 -0.0421 -0.0209
  498MOL0     C65617  11.416  12.309   4.628 -0.2835  0.1856  0.1535
  498MOL0     C65618  11.507  12.356   4.517  0.2900  0.2496 -0.4812
  498MOL0     C65619  11.488  12.283   4.384  0.1574  1.2874  0.3956
  498MOL0     C65620  11.593  12.319   4.274  0.1308 -0.2000 -0.2031
  498MOL0     N65621  11.558  12.300   4.133 -0.3138 -0.2000 -0.2169
  498MOL0     C65622  11.568  12.396   4.032 -0.8494  0.2778  0.3103
  498MOL0     C65623  11.469  12.370   3.944  0.1821 -0.1415 -0.3342
  498MOL0     C65624  11.442  12.446   3.826  0.2573 -0.2576 -0.1684
  498MOL0     C65625  11.292  12.470   3.797  0.8296  0.4939  0.0760
  498MOL0     C65626  11.257  12.450   3.642  0.3499 -0.4660 -0.5361
  498MOL0     C65627  11.332  12.539   3.549 -0.4738  1.1733  0.3655
  498MOL0     O65628  11.467  12.501   3.514 -0.5236 -0.5968  0.5947
  498MOL0     C65629  11.505  12.494   3.385  0.5195  0.1744 -0.0341
  498MOL0     C65630  11.549  12.375   3.335 -0.7735  0.0924  0.3490
  498MOL0     C65631  11.601  12.362   3.203  0.1269  0.1865  0.7399
  498MOL0     C65632  11.596  12.483   3.126 -0.4066 -0.4634 -0.4903
  498MOL0     C65633  11.655  12.479   2.989 -0.2476 -0.5270  0.0734
  498MOL0     O65634  11.729  12.370   2.951 -0.7750 -0.1371 -0.4231
  498MOL0     C65635  11.748  12.325   2.822  0.9788  0.3952  0.0222
  498MOL0     C65636  11.872  12.286   2.776  0.1484  0.3600 -0.3672
  498MOL0     C65637  11.888  12.272   2.640  0.4760  0.4714  0.5785
  498MOL0     C65638  11.791  12.276   2.547  0.5002  0.4111 -0.5939
  498MOL0     O65639  11.825  12.237   2.420  0.1069 -0.0490  0.1653
  498MOL0     C65640  11.739  12.150   2.354  0.0931  0.2509 -0.4292
  498MOL0     C65641  11.801  12.052   2.258 -1.1753  0.0337 -0.6709
  498MOL0     C65642  11.901  11.951   2.321  0.2732 -0.4661 -0.1648
  498MOL0     C65643  12.028  12.017   2.373  0.4795 -0.1122 -0.2788
  498MOL0     C65644  12.122  11.910   2.409  0.6691  1.0118  0.1296
  498MOL0     C65645  12.246  11.981   2.452 -0.4138  0.6658 -0.0262
  498MOL0     C65646  12.359  11.877   2.473 -0.2468  0.1629  0.7451
  498MOL0     C65647  12.406  11.826   2.339 -0.2137 -0.1752  0.2769
  498MOL0    Cl65648  12.571  11.770   2.381 -0.2750 -0.3448  0.2287
  498MOL0     C65649  11.668  12.313   2.587 -0.3003 -0.0349 -1.7520
  498MOL0     C65650  11.639  12.348   2.728  0.5947  0.1718 -0.0440
  498MOL0     O65651  11.637  12.577   2.910 -0.6828  0.0743 -0.1628
  498MOL0     C65652  11.532  12.595   3.180 -1.3025  0.2189 -0.1372
  498MOL0     C65653  11.492  12.605   3.309 -0.2438 -0.9814 -0.4016
  498MOL0     N65654  11.421  12.248   3.969 -0.1473  0.1697  0.4641
  498MOL0     N65655  11.463  12.213   4.093 -0.3809  0.6770 -0.1626
  498MOL0     C65656  11.090  11.627   4.684  0.1691 -0.6933  0.2180
  498MOL0     C65657  11.036  11.501   4.714 -1.0669  0.3209  0.2583
  498MOL0     C65658  10.838  11.157   4.960 -0.3443 -0.6781 -0.5082
  498MOL0     C65659  10.768  11.094   5.067  0.4537 -0.5761 -0.8540
  498MOL0     C65660  10.746  10.952   5.073 -1.0691 -0.1856 -0.6282
  498MOL0     C65661  10.802  10.868   4.973 -0.0383  0.8803  0.4633
  498MOL0     O65662  10.801  10.730   4.953  0.1836  0.1871 -0.3746
  498MOL0     C65663  10.712  10.662   5.039 -0.6080 -1.6921 -0.3783
  498MOL0     C65664  10.689  10.534   4.962  1.4415 -0.0808 -0.2590
  498MOL0     C65665  10.603  10.550   4.834  0.3794 -0.4539  0.1270
  498MOL0     C65666  10.560  10.401   4.803  0.0054  0.3090  0.4615
  498MOL0     C65667  10.528  10.378   4.661 -0.0768  1.2449 -0.3757
  498MOL0     C65668  10.515  10.360   4.544 -0.1883  0.8153  0.4782
  498MOL0     C65669  10.875  10.940   4.871 -0.1608  1.4515  0.3856
  498MOL0     C65670  10.891  11.074   4.868  0.4461  0.3966  0.9022
  498MOL0     H65671  10.986  11.569   5.051  3.3900  2.8057  0.8432
  498MOL0     H65672  11.060  11.776   4.991  1.1812  0.9619 -0.7030
  498MOL0     H65673  11.299  11.865   4.816  0.4713 -0.6025  2.3511
  498MOL0     H65674  11.168  11.952   4.899 -4.1716 -1.5251 -1.4226
  498MOL0     H65675  11.167  12.119   4.709 -0.4924 -0.8523 -2.0642
  498MOL0     H65676  11.300  12.021   4.637 -0.5306  0.0984 -0.0316
  498MOL0     H65677  11.412  12.056   4.867  0.0685  0.6764  0.5157
  498MOL0     H65678  11.296  12.192   4.877 -1.4562 -2.7226  1.9578
  498MOL0     H65679  11.517  12.247   4.813 -4.3093  1.2156  2.9164
  498MOL0     H65680  11.529  12.126   4.682  0.8657 -2.1676  3.1114
  498MOL0     H65681  11.379  12.394   4.686  1.4533  0.7262  0.5426
  498MOL0     H65682  11.330  12.276   4.569  0.5919 -1.3709 -0.3019
  498MOL0     H65683  11.612  12.362   4.544  0.2963 -2.2602  0.3260
  498MOL0     H65684  11.481  12.461   4.497 -0.5910  0.2289  0.4614
  498MOL0     H65685  11.484  12.175   4.396  0.0468  1.2710  0.2240
  498MOL0     H65686  11.388  12.320   4.356  0.4787  1.3460 -0.7329
  498MOL0     H65687  11.684  12.259   4.281  0.4817  0.3017 -0.4376
  498MOL0     H65688  11.627  12.418   4.304 -3.9644  0.8953  1.4882
  498MOL0     H65689  11.637  12.479   4.028  0.2733 -0.2924  4.1570
  498MOL0     H65690  11.489  12.385   3.749  0.9273 -3.3779  2.4863
  498MOL0     H65691  11.495  12.541   3.835 -3.6901  2.5354 -2.7795
  498MOL0     H65692  11.246  12.558   3.841 -0.5139 -0.7754  1.3425
  498MOL0     H65693  11.247  12.388   3.854 -0.5459  2.0510  1.2834
  498MOL0     H65694  11.281  12.346   3.617 -0.5717 -0.9195  0.4030
  498MOL0     H65695  11.151  12.475   3.630  0.5682  1.6307  1.2412
  498MOL0     H65696  11.330  12.641   3.589 -4.2612  1.4472 -0.1420
  498MOL0     H65697  11.266  12.542   3.462  2.1549 -0.7909 -1.8676
  498MOL0     H65698  11.554  12.288   3.400  1.9633  0.8740  1.3493
  498MOL0     H65699  11.645  12.273   3.160 -0.2492  1.2928 -2.1476
  498MOL0     H65700  11.950  12.288   2.851 -1.1777  1.9940  1.0762
  498MOL0     H65701  11.991  12.249   2.612  0.4283 -0.4644  1.1455
  498MOL0     H65702  11.655  12.195   2.300  0.2443  0.5707 -0.3961
  498MOL0     H65703  11.696  12.095   2.438 -0.4837  3.6825  1.7244
  498MOL0     H65704  11.851  12.108   2.178 -0.1847  0.8194  0.4485
  498MOL0     H65705  11.728  11.982   2.218 -0.9814 -0.3641 -0.3413
  498MOL0     H65706  11.929  11.881   2.243  2.3042 -0.9517  0.9280
  498MOL0     H65707  11.866  11.886   2.402  1.5208  2.0070  2.5969
  498MOL0     H65708  12.061  12.088   2.296 -0.8216  0.6236 -0.1916
  498MOL0     H65709  11.993  12.069   2.463 -1.7881  0.2869 -1.3239
  498MOL0     H65710  12.142  11.852   2.319 -0.6706 -4.5323  2.9521
  498MOL0     H65711  12.072  11.844   2.481  1.8331  0.9610  0.9247
  498MOL0     H65712  12.227  12.056   2.530 -3.8218 -0.2666  0.2005
  498MOL0     H65713  12.281  12.048   2.373  0.5616  0.4016  0.1693
  498MOL0     H65714  12.438  11.919   2.536 -1.5794  1.0081  1.8953
  498MOL0     H65715  12.333  11.795   2.540  0.2555  2.7662  4.3897
  498MOL0     H65716  12.429  11.916   2.281  4.0847  0.9116  3.2084
  498MOL0     H65717  12.344  11.751   2.289 -2.9134  2.4646 -0.7007
  498MOL0     H65718  11.593  12.321   2.510 -1.6414 -1.2673 -0.6194
  498MOL0     H65719  11.541  12.387   2.755  2.5265  4.0071  2.3362
  498MOL0     H65720  11.524  12.687   3.122 -1.0340 -0.6269 -1.5755
  498MOL0     H65721  11.451  12.692   3.360 -0.2826 -0.7211 -0.8685
  498MOL0     H65722  11.136  11.634   4.585 -0.9665 -3.2554 -0.5804
  498MOL0     H65723  11.032  11.424   4.637  3.4413 -1.6484  1.6195
  498MOL0     H65724  10.716  11.153   5.141  2.8498  0.2823  0.2113
  498MOL0     H65725  10.686  10.917   5.156 -1.6859  4.7558  1.3385
  498MOL0     H65726  10.625  10.724   5.062  2.9430  2.9817  2.1654
  498MOL0     H65727  10.761  10.643   5.135 -0.0765  0.6874 -0.1180
  498MOL0     H65728  10.771  10.464   4.944  1.3061  0.5353 -4.1364
  498MOL0     H65729  10.628  10.473   5.030  0.3371  0.3520 -0.8273
  498MOL0     H65730  10.665  10.581   4.749  1.6698 -0.2072  1.1172
  498MOL0     H65731  10.510  10.606   4.837  1.1608  1.2900 -3.4802
  498MOL0     H65732  10.630  10.322   4.830  0.1444  0.6477  1.1228
  498MOL0     H65733  10.464  10.382   4.853  0.7355 -0.8818  1.4730
  498MOL0     H65734  10.497  10.343   4.439 -3.3328  2.9024  0.5399
  498MOL0     H65735  10.923  10.877   4.797  0.0751 -1.2017  2.5955
  498MOL0     H65736  10.945  11.112   4.782 -1.6832  0.5154 -0.4480
  499MOL0     O65737   5.915   7.657   9.752  0.3143  0.3259  0.4931
  499MOL0     C65738   5.928   7.543   9.800  0.3552  0.5601  0.8273
  499MOL0     O65739   5.821   7.465   9.836 -0.3078  0.5121 -0.8535
  499MOL0     C65740   5.687   7.501   9.819 -0.1100  0.8794 -0.2859
  499MOL0     C65741   5.637   7.627   9.830 -0.2096 -0.5581 -0.1640
  499MOL0     C65742   5.500   7.649   9.799  0.1188  1.1560 -0.2759
  499MOL0     C65743   5.405   7.555   9.761  0.4423  0.3194  0.7647
  499MOL0     O65744   5.275   7.584   9.728  0.8064  0.1874 -0.3044
  499MOL0     C65745   5.185   7.486   9.671  0.0193  1.1723  0.2385
  499MOL0     C65746   5.058   7.554   9.641 -0.2600 -0.7195 -0.4716
  499MOL0     C65747   5.057   7.663   9.533 -0.1211  0.1038  1.4323
  499MOL0     C65748   4.941   7.768   9.547  1.0281  0.4868  0.3057
  499MOL0     C65749   4.948   7.863   9.425 -0.2713 -0.6624 -1.2260
  499MOL0     C65750   4.841   7.817   9.320 -0.2655  0.1318  0.1721
  499MOL0     C65751   4.847   7.863   9.167 -0.1595  0.1213 -0.5091
  499MOL0     C65752   4.883   8.018   9.159  0.2363 -1.1570  0.4377
  499MOL0     N65753   4.891   8.081   9.019  0.4085  0.3423  0.4878
  499MOL0     C65754   4.827   8.039   8.912  0.7064 -0.6304 -0.4871
  499MOL0     C65755   4.870   8.109   8.811  0.2596  0.5008  0.9088
  499MOL0     C65756   4.826   8.101   8.670 -0.3708  0.4599 -0.6885
  499MOL0     C65757   4.685   8.155   8.648  1.5081 -0.0565  0.7544
  499MOL0     C65758   4.635   8.117   8.505 -0.5179 -0.5851  0.0432
  499MOL0     C65759   4.496   8.175   8.481 -0.2607  0.3327 -0.5438
  499MOL0     O65760   4.437   8.093   8.386  0.9969  0.3774 -0.0516
  499MOL0     C65761   4.442   8.137   8.264  0.0254  0.8275  1.6197
  499MOL0     C65762   4.354   8.074   8.176  0.0567  0.1736  0.3659
  499MOL0     C65763   4.357   8.086   8.034  1.1290 -0.5383 -0.2329
  499MOL0     C65764   4.444   8.175   7.979  1.3858 -0.7663 -0.1167
  499MOL0     C65765   4.434   8.211   7.831 -0.7695  0.1600 -0.8164
  499MOL0     O65766   4.548   8.268   7.766 -0.1729  0.7086  0.6887
  499MOL0     C65767   4.527   8.326   7.638 -0.4489 -0.6123  0.4365
  499MOL0     C65768   4.401   8.367   7.589  0.3910 -1.1868  0.2218
  499MOL0     C65769   4.394   8.414   7.461  0.1653  0.1684  0.3489
  499MOL0     C65770   4.497   8.425   7.372  0.2732 -0.1060  0.7555
  499MOL0     O65771   4.494   8.480   7.244  0.3050  0.1844  0.0708
  499MOL0     C65772   4.381   8.567   7.206  0.5527 -0.0310  0.7382
  499MOL0     C65773   4.421   8.652   7.082 -0.9480  0.0661  0.1022
  499MOL0     C65774   4.543   8.751   7.111  1.0844 -0.0436  0.6968
  499MOL0     C65775   4.595   8.812   6.982  0.2621  0.1275 -0.2431
  499MOL0     C65776   4.691   8.918   7.035 -0.0384  0.5445  0.1564
  499MOL0     C65777   4.816   8.884   7.118 -0.8676 -0.1561  0.1382
  499MOL0     C65778   4.901   9.008   7.147  0.2234 -0.7109  0.2743
  499MOL0     C65779   5.030   8.998   7.076 -0.0903  0.0710 -1.1610
  499MOL0    Cl65780   5.147   9.115   7.135  0.7675  0.3118  0.3303
  499MOL0     C65781   4.621   8.381   7.425 -0.6833 -0.7868  0.1388
  499MOL0     C65782   4.640   8.342   7.559  1.0971  0.0392 -1.4279
  499MOL0     O65783   4.344   8.159   7.772  0.5907  0.7420  0.4153
  499MOL0     C65784   4.530   8.253   8.066  0.4102 -0.0957 -0.2345
  499MOL0     C65785   4.524   8.233   8.199 -1.1669 -0.5684  0.7859
  499MOL0     N65786   4.975   8.188   8.861  0.8310  0.2916 -0.0197
  499MOL0     N65787   4.978   8.169   8.981  0.7229  0.1997 -0.4877
  499MOL0     C65788   5.463   7.420   9.764  0.3763 -0.2933  0.4786
  499MOL0     C65789   5.593   7.400   9.796 -0.3292  0.9131 -0.3328
  499MOL0     C65790   6.065   7.492   9.843  0.5979  0.4454  0.2050
  499MOL0     C65791   6.084   7.367   9.907 -0.2045 -0.2608  0.3024
  499MOL0     C65792   6.213   7.324   9.948  0.6780  0.0712  0.1213
  499MOL0     C65793   6.329   7.399   9.930  0.5690  0.4787 -0.3033
  499MOL0     O65794   6.449   7.358   9.983  0.0573  0.3391  0.7371
  499MOL0     C65795   6.572   7.423   9.939  0.8198  0.5834  0.0057
  499MOL0     C65796   6.699   7.354   9.987  0.1817 -0.2138 -0.3760
  499MOL0     C65797   6.695   7.335  10.138  0.4169  1.0648  0.7791
  499MOL0     C65798   6.819   7.266  10.193 -0.0235  0.2894 -0.0841
  499MOL0     C65799   6.879   7.338  10.307 -0.2239 -0.8171 -0.0077
  499MOL0     C65800   6.932   7.399  10.407  0.1932 -0.5695 -0.9019
  499MOL0     C65801   6.311   7.524   9.863  0.7314 -0.4516 -0.2548
  499MOL0     C65802   6.179   7.568   9.819  0.1124  0.4827  0.3054
  499MOL0     H65803   5.689   7.718   9.859  0.1702  0.5857 -3.8265
  499MOL0     H65804   5.464   7.750   9.810 -4.8162 -0.2093 -1.4942
  499MOL0     H65805   5.164   7.399   9.733 -0.0653 -0.4951 -2.0108
  499MOL0     H65806   5.223   7.443   9.578 -3.3409 -1.0901 -0.2465
  499MOL0     H65807   5.020   7.603   9.731 -2.3534 -1.4543 -0.9041
  499MOL0     H65808   4.973   7.493   9.612 -2.3309  1.2488  1.0670
  499MOL0     H65809   5.045   7.613   9.436 -0.4507 -3.1779  3.0383
  499MOL0     H65810   5.150   7.719   9.548 -1.2689  2.5535 -0.0735
  499MOL0     H65811   4.843   7.724   9.562  0.6575  0.4593 -1.8303
  499MOL0     H65812   4.973   7.829   9.632  3.0126  1.6819 -1.2071
  499MOL0     H65813   5.043   7.849   9.373  0.4827 -3.4168  0.6781
  499MOL0     H65814   4.929   7.965   9.459 -1.6818 -1.9684  2.4441
  499MOL0     H65815   4.744   7.853   9.355 -1.5758  0.0507 -2.9892
  499MOL0     H65816   4.823   7.709   9.318  2.5164 -0.5423 -4.4792
  499MOL0     H65817   4.913   7.793   9.115  0.8460  0.0895  0.7619
  499MOL0     H65818   4.755   7.846   9.112  1.5377  1.6411 -4.1642
  499MOL0     H65819   4.968   8.051   9.218  0.9364 -2.1958  0.0392
  499MOL0     H65820   4.791   8.062   9.199  1.4521  0.8478  1.1271
  499MOL0     H65821   4.742   7.972   8.909 -0.3036  0.4835  1.2061
  499MOL0     H65822   4.840   7.995   8.644 -0.1405  0.3684 -0.2131
  499MOL0     H65823   4.897   8.149   8.603 -0.4850  0.5391 -0.7512
  499MOL0     H65824   4.677   8.263   8.659 -0.0028 -0.4098  4.6638
  499MOL0     H65825   4.623   8.107   8.724  1.7037 -1.5992 -0.0221
  499MOL0     H65826   4.693   8.142   8.415 -3.1404  3.2628 -0.8090
  499MOL0     H65827   4.633   8.008   8.504  1.6131 -0.7390  2.3783
  499MOL0     H65828   4.504   8.284   8.468 -2.1497  0.6684  0.6537
  499MOL0     H65829   4.448   8.161   8.579  3.9330 -1.1658  1.5591
  499MOL0     H65830   4.283   7.998   8.208  3.9358 -4.4631 -0.6614
  499MOL0     H65831   4.285   8.025   7.980 -0.5784  1.8856 -0.8383
  499MOL0     H65832   4.311   8.377   7.649  1.9331  2.9131  2.3110
  499MOL0     H65833   4.296   8.448   7.429 -0.3565 -0.8557  0.8030
  499MOL0     H65834   4.353   8.638   7.283  0.0535  0.4303  0.1419
  499MOL0     H65835   4.288   8.512   7.189  0.9147 -0.0670 -1.4605
  499MOL0     H65836   4.329   8.706   7.056 -2.1707 -2.0898 -0.2514
  499MOL0     H65837   4.440   8.582   7.000  2.2697 -2.4210  2.7346
  499MOL0     H65838   4.621   8.707   7.173  2.4492  0.7957 -0.3718
  499MOL0     H65839   4.487   8.830   7.163 -1.7426 -1.7633  0.4816
  499MOL0     H65840   4.654   8.740   6.925  2.2466  1.9880 -0.6787
  499MOL0     H65841   4.522   8.868   6.923  1.8163  2.7803  0.1810
  499MOL0     H65842   4.634   8.995   7.088  0.3633  0.3597  0.8610
  499MOL0     H65843   4.739   8.976   6.956  3.3064 -0.0410  1.6128
  499MOL0     H65844   4.871   8.806   7.066 -1.3932 -0.7562  0.4755
  499MOL0     H65845   4.794   8.839   7.215  0.4918 -0.7331  0.2017
  499MOL0     H65846   4.865   9.101   7.102  0.9248  0.2734  1.7017
  499MOL0     H65847   4.911   9.026   7.254 -1.3754 -3.4495  0.9865
  499MOL0     H65848   5.015   9.011   6.969 -0.0159 -3.8482 -1.7895
  499MOL0     H65849   5.061   8.896   7.101  0.8488  1.0169  1.9825
  499MOL0     H65850   4.699   8.396   7.351 -0.4635  1.7759  0.7966
  499MOL0     H65851   4.740   8.325   7.596  0.2236 -1.1536  0.5259
  499MOL0     H65852   4.600   8.327   8.027 -1.2660  1.7756  0.1458
  499MOL0     H65853   4.602   8.298   8.238 -2.4138  3.6291 -2.7660
  499MOL0     H65854   5.395   7.340   9.734  0.3299  0.3454 -1.2471
  499MOL0     H65855   5.617   7.294   9.796  1.0681  1.1815 -1.9404
  499MOL0     H65856   5.988   7.321   9.929 -1.2514  1.4534 -0.4396
  499MOL0     H65857   6.231   7.230  10.000  1.3276  0.5443  0.7612
  499MOL0     H65858   6.576   7.527   9.972  2.1055 -0.0170  1.9378
  499MOL0     H65859   6.574   7.438   9.830 -0.7027  2.7004  0.2018
  499MOL0     H65860   6.706   7.261   9.929  2.3551 -0.4852  0.2432
  499MOL0     H65861   6.784   7.418   9.964  0.9166 -0.5545  1.2838
  499MOL0     H65862   6.616   7.261  10.155  3.1147 -2.4040 -0.6462
  499MOL0     H65863   6.672   7.435  10.177 -0.2218  1.3313 -0.2434
  499MOL0     H65864   6.794   7.171  10.242  2.1159 -0.3549 -0.1434
  499MOL0     H65865   6.891   7.245  10.114 -0.3100 -0.0495 -0.2612
  499MOL0     H65866   6.984   7.461  10.477 -1.1859 -0.3025 -0.0789
  499MOL0     H65867   6.392   7.596   9.864 -1.5356  2.3704  3.4167
  499MOL0     H65868   6.171   7.661   9.764 -0.2187  0.6378  0.6136
  500MOL0     O65869   5.468   8.637   1.816  0.0323 -0.3760  0.1704
  500MOL0     C65870   5.579   8.605   1.843 -0.1079  0.7403  0.2491
  500MOL0     O65871   5.614   8.476   1.870  0.4385 -0.7140 -0.0020
  500MOL0     C65872   5.508   8.386   1.866 -0.1306 -0.1298  0.1956
  500MOL0     C65873   5.399   8.370   1.950 -0.3375 -0.1991 -0.3417
  500MOL0     C65874   5.300   8.272   1.933 -0.2515  0.6150 -0.3248
  500MOL0     C65875   5.321   8.181   1.824 -0.0366 -0.3435 -0.8386
  500MOL0     O65876   5.219   8.090   1.804  0.4143 -0.4177 -0.3598
  500MOL0     C65877   5.249   7.981   1.716 -0.3813 -0.1275 -0.1600
  500MOL0     C65878   5.146   7.870   1.728  0.6878 -0.4181  0.2631
  500MOL0     C65879   5.160   7.781   1.852  0.0649 -0.2164  0.1726
  500MOL0     C65880   5.297   7.741   1.898  0.9230  0.3937 -0.4555
  500MOL0     C65881   5.287   7.684   2.044 -0.1192 -0.6970  0.6673
  500MOL0     C65882   5.235   7.535   2.062  0.2673  0.2022 -0.5786
  500MOL0     C65883   5.268   7.485   2.209 -0.0382  0.2702  0.3957
  500MOL0     C65884   5.417   7.453   2.228  0.9015  0.1049 -0.3127
  500MOL0     N65885   5.476   7.359   2.129 -0.6660 -0.4464 -0.7332
  500MOL0     C65886   5.472   7.219   2.122 -0.0469  0.4042 -0.2004
  500MOL0     C65887   5.575   7.177   2.048 -0.6390  0.4224  0.6123
  500MOL0     C65888   5.645   7.043   2.023 -0.3710 -0.3838 -0.5094
  500MOL0     C65889   5.578   6.968   1.917 -0.8956 -1.1365  0.4983
  500MOL0     C65890   5.612   7.030   1.783  0.7820 -1.0236 -0.2101
  500MOL0     C65891   5.571   6.943   1.667  0.2379 -0.2189  0.0921
  500MOL0     O65892   5.426   6.964   1.648 -0.3963 -0.2961 -0.4166
  500MOL0     C65893   5.369   6.896   1.542 -0.3775  0.3546 -0.8168
  500MOL0     C65894   5.236   6.908   1.515 -0.1529  0.4379 -0.1732
  500MOL0     C65895   5.171   6.845   1.401 -0.3281  0.8786 -0.1223
  500MOL0     C65896   5.244   6.774   1.305 -0.4983  0.3087  0.6444
  500MOL0     C65897   5.179   6.746   1.174  0.3634 -0.2942 -0.0457
  500MOL0     O65898   5.255   6.689   1.075  0.2470  0.6125 -0.1846
  500MOL0     C65899   5.176   6.643   0.973 -0.2620 -0.0048 -0.3455
  500MOL0     C65900   5.140   6.508   0.977  0.5785  0.6274  0.7626
  500MOL0     C65901   5.074   6.457   0.857  0.7763  0.0775 -0.3935
  500MOL0     C65902   5.046   6.536   0.745 -0.1043  0.7795 -0.5739
  500MOL0     O65903   4.972   6.490   0.642  0.3850 -0.0550 -0.9540
  500MOL0     C65904   4.877   6.390   0.659  0.8395  0.1125 -1.1525
  500MOL0     C65905   4.780   6.396   0.532  0.3634  0.1386 -0.1262
  500MOL0     C65906   4.740   6.261   0.469  0.2132 -0.4362  1.2778
  500MOL0     C65907   4.676   6.157   0.561  0.1306 -0.3855 -0.7382
  500MOL0     C65908   4.703   6.016   0.516 -0.3398  0.9446  0.5594
  500MOL0     C65909   4.653   5.996   0.371 -0.2239 -0.1654  0.3597
  500MOL0     C65910   4.622   5.861   0.315 -0.2665  0.6118  0.6886
  500MOL0     C65911   4.490   5.803   0.343  0.1689 -0.1599  0.0889
  500MOL0    Cl65912   4.353   5.902   0.314 -0.2682  0.0561  0.1042
  500MOL0     C65913   5.093   6.669   0.750  0.2013  0.2939  0.4817
  500MOL0     C65914   5.162   6.719   0.856 -0.4973  1.3415  0.0581
  500MOL0     O65915   5.055   6.738   1.174  0.2845  0.6437  0.0643
  500MOL0     C65916   5.386   6.750   1.330 -0.2030 -0.5285  0.2066
  500MOL0     C65917   5.440   6.807   1.457  0.3492  0.0106  0.1134
  500MOL0     N65918   5.627   7.293   1.991 -0.1990 -0.6476 -0.1213
  500MOL0     N65919   5.572   7.404   2.044  0.7190  0.5264 -0.6250
  500MOL0     C65920   5.436   8.196   1.737  0.4160 -0.7522 -0.4963
  500MOL0     C65921   5.522   8.304   1.755 -0.2039  0.3037  0.4186
  500MOL0     C65922   5.694   8.692   1.828  0.8536 -0.6794 -0.5656
  500MOL0     C65923   5.681   8.831   1.827  0.2451 -0.8158 -0.3662
  500MOL0     C65924   5.780   8.921   1.804 -0.0809 -1.3782 -0.2123
  500MOL0     C65925   5.911   8.871   1.793  0.7359 -0.0526  0.3714
  500MOL0     O65926   6.009   8.969   1.803 -0.5515 -0.5739  0.8967
  500MOL0     C65927   6.118   8.959   1.705 -0.6129 -0.3297 -0.1720
  500MOL0     C65928   6.073   8.939   1.564 -0.1389 -0.8540  0.0624
  500MOL0     C65929   6.002   9.068   1.516  1.4236  0.9839 -0.1096
  500MOL0     C65930   6.042   9.092   1.368 -0.2775  0.2662 -0.2556
  500MOL0     C65931   6.171   9.161   1.363  0.6420  1.0517 -0.0469
  500MOL0     C65932   6.269   9.228   1.348 -0.6093 -1.0011  0.6405
  500MOL0     C65933   5.937   8.738   1.789  0.0349  0.8088 -0.5042
  500MOL0     C65934   5.823   8.650   1.808 -0.7409  1.0161 -0.4368
  500MOL0     H65935   5.389   8.449   2.024  1.8847  2.7059 -2.8731
  500MOL0     H65936   5.208   8.253   1.987 -0.3057 -2.0359 -1.2037
  500MOL0     H65937   5.349   7.947   1.744 -0.3397 -0.9741 -1.2701
  500MOL0     H65938   5.247   8.017   1.613  1.9903 -2.2255 -1.0433
  500MOL0     H65939   5.168   7.806   1.641  1.8561 -1.1304  1.0597
  500MOL0     H65940   5.055   7.929   1.716  0.6463 -0.7135 -1.0832
  500MOL0     H65941   5.110   7.686   1.832 -2.5263  1.0312  0.3058
  500MOL0     H65942   5.105   7.836   1.929  1.4677  2.9604 -0.8951
  500MOL0     H65943   5.315   7.654   1.834 -0.4985  0.5456 -1.1069
  500MOL0     H65944   5.363   7.828   1.905 -0.6483  1.4957  2.6120
  500MOL0     H65945   5.228   7.753   2.106 -2.0357 -2.9281  1.4589
  500MOL0     H65946   5.391   7.686   2.079  0.6606  3.5974 -1.2042
  500MOL0     H65947   5.279   7.472   1.984 -0.1403 -0.4805 -0.2622
  500MOL0     H65948   5.128   7.519   2.048  0.2696 -0.1048 -0.2542
  500MOL0     H65949   5.224   7.551   2.285 -0.1694  3.8884 -2.5482
  500MOL0     H65950   5.220   7.387   2.215  1.4986 -0.5353 -0.1569
  500MOL0     H65951   5.425   7.409   2.328 -0.9752  0.4405  0.0233
  500MOL0     H65952   5.478   7.540   2.256  0.6624 -0.2061  1.3058
  500MOL0     H65953   5.416   7.156   2.191 -3.3765 -0.0823 -3.0753
  500MOL0     H65954   5.651   6.975   2.109 -3.9189 -0.1489  0.0518
  500MOL0     H65955   5.750   7.060   1.998  0.1319 -2.5244 -0.0665
  500MOL0     H65956   5.471   6.977   1.936 -0.7426 -1.0168  1.3244
  500MOL0     H65957   5.611   6.864   1.929  0.6047 -0.7242  0.1248
  500MOL0     H65958   5.575   7.133   1.773 -1.4786 -1.7977 -0.4617
  500MOL0     H65959   5.721   7.030   1.788  0.8279  0.0289 -0.7942
  500MOL0     H65960   5.603   6.841   1.690  1.4295  0.3670  1.1486
  500MOL0     H65961   5.620   6.976   1.576  1.3514 -0.6171  0.5259
  500MOL0     H65962   5.191   6.979   1.583  3.6105  2.1556  0.7834
  500MOL0     H65963   5.067   6.874   1.387  0.6491  5.7853  0.8739
  500MOL0     H65964   5.160   6.440   1.059 -1.0689  0.3973  1.0105
  500MOL0     H65965   5.042   6.353   0.854 -1.3863  0.6927 -0.4875
  500MOL0     H65966   4.821   6.399   0.753  1.0329 -0.8600 -0.9332
  500MOL0     H65967   4.928   6.293   0.651 -0.0963 -0.7034  1.6864
  500MOL0     H65968   4.828   6.453   0.452  0.8423 -0.7614 -0.4983
  500MOL0     H65969   4.684   6.442   0.557 -2.3715 -3.7871 -2.1995
  500MOL0     H65970   4.823   6.216   0.413 -2.1719 -2.9691 -0.5186
  500MOL0     H65971   4.677   6.280   0.382  2.8165 -3.5056 -1.5593
  500MOL0     H65972   4.714   6.169   0.663 -2.5018  2.1139  0.1045
  500MOL0     H65973   4.571   6.182   0.575  0.8096  3.1299 -1.0408
  500MOL0     H65974   4.645   5.945   0.576 -0.3453  0.5137  0.0552
  500MOL0     H65975   4.810   5.996   0.527 -0.4371  1.4201  2.9236
  500MOL0     H65976   4.725   6.035   0.298 -0.3468 -0.4463  0.0837
  500MOL0     H65977   4.565   6.057   0.349 -0.0404 -0.1839 -0.4776
  500MOL0     H65978   4.627   5.880   0.207  2.8263  0.2649  0.6637
  500MOL0     H65979   4.701   5.788   0.336  2.5923  3.7963  2.1216
  500MOL0     H65980   4.512   5.768   0.444 -0.0683 -1.8464 -0.4138
  500MOL0     H65981   4.492   5.712   0.283  0.8682  1.3458 -2.2916
  500MOL0     H65982   5.061   6.733   0.668 -1.1465 -1.0997 -0.1361
  500MOL0     H65983   5.209   6.817   0.852  0.4399  0.9486  1.0731
  500MOL0     H65984   5.448   6.695   1.262 -0.2334  1.2334 -1.3286
  500MOL0     H65985   5.541   6.775   1.483 -0.3973 -1.0106  1.9550
  500MOL0     H65986   5.456   8.123   1.659  0.8309 -3.2012  1.7572
  500MOL0     H65987   5.601   8.318   1.682 -0.9869  0.6774 -0.3758
  500MOL0     H65988   5.584   8.872   1.855 -0.0714 -2.1651  0.5948
  500MOL0     H65989   5.762   9.027   1.808 -1.3686 -1.6040  0.4299
  500MOL0     H65990   6.198   8.886   1.720  0.8029  0.1185 -4.3541
  500MOL0     H65991   6.160   9.059   1.716  2.3343 -1.6080  1.2274
  500MOL0     H65992   6.158   8.943   1.495 -2.3401 -0.9864 -2.8353
  500MOL0     H65993   6.022   8.843   1.551 -2.0411  0.2483 -1.0469
  500MOL0     H65994   6.018   9.154   1.582 -3.1946  0.2498  2.3960
  500MOL0     H65995   5.893   9.066   1.530  1.2590 -0.3345 -1.3299
  500MOL0     H65996   6.032   9.003   1.305 -1.3759  1.0211 -1.1896
  500MOL0     H65997   5.974   9.167   1.326  1.2865  2.2058  0.5448
  500MOL0     H65998   6.338   9.307   1.326 -2.0673 -0.0051 -0.5706
  500MOL0     H65999   6.042   8.709   1.788 -0.5897 -1.7302 -0.5425
  500MOL0     H66000   5.841   8.543   1.812 -0.0065  1.1670  2.5221
  501MOL0     O66001   9.799   9.697   6.365 -0.5016 -0.1022  1.1325
  501MOL0     C66002   9.848   9.805   6.405 -1.0457 -0.4440 -0.0383
  501MOL0     O66003   9.823   9.866   6.525 -0.7381  1.0462  1.0751
  501MOL0     C66004   9.743   9.806   6.620  0.0710  0.2760  0.3417
  501MOL0     C66005   9.769   9.674   6.666 -0.5398  0.1599  0.0147
  501MOL0     C66006   9.707   9.633   6.780 -0.1693  0.1143 -0.2625
  501MOL0     C66007   9.639   9.707   6.859  0.9141  0.1413 -0.2624
  501MOL0     O66008   9.593   9.645   6.977  0.3091 -0.5041  0.1486
  501MOL0     C66009   9.572   9.710   7.104  0.3620  0.3331 -0.5036
  501MOL0     C66010   9.584   9.610   7.222  0.3503 -0.6370 -0.3791
  501MOL0     C66011   9.495   9.494   7.205  0.3221  0.5304 -0.1832
  501MOL0     C66012   9.514   9.403   7.319  0.4239  0.0692  0.5568
  501MOL0     C66013   9.426   9.274   7.320  1.2147 -0.7576  0.3689
  501MOL0     C66014   9.491   9.167   7.407  0.4941  0.5303 -0.0204
  501MOL0     C66015   9.575   9.075   7.330 -0.7850  0.7181  0.3961
  501MOL0     C66016   9.498   8.992   7.228  0.2661  0.4289 -0.4860
  501MOL0     N66017   9.380   8.915   7.284  0.1204  0.3645  0.4359
  501MOL0     C66018   9.389   8.788   7.312  0.2458 -0.4256  0.0751
  501MOL0     C66019   9.268   8.748   7.339  0.3705  0.0365 -0.1293
  501MOL0     C66020   9.218   8.611   7.386  0.2441 -0.2401 -0.4379
  501MOL0     C66021   9.164   8.528   7.256 -0.4167 -0.5876  0.5458
  501MOL0     C66022   9.208   8.577   7.116  0.0384  0.5936  0.2240
  501MOL0     C66023   9.211   8.446   7.024  0.4845 -0.8620  0.2478
  501MOL0     O66024   9.074   8.387   7.008  0.8732  0.1056 -0.4588
  501MOL0     C66025   9.044   8.325   6.893  0.7152 -0.1559 -0.3214
  501MOL0     C66026   8.912   8.304   6.845 -0.2515 -0.0612  0.5433
  501MOL0     C66027   8.885   8.238   6.728  0.3105  0.2080  0.2253
  501MOL0     C66028   8.994   8.187   6.647  0.2041 -0.0777 -0.9291
  501MOL0     C66029   8.968   8.113   6.520  0.2814  0.4760  1.2432
  501MOL0     O66030   9.072   8.039   6.478  0.6066  0.6472  0.2299
  501MOL0     C66031   9.043   7.952   6.374  0.6555  0.1199 -0.3891
  501MOL0     C66032   9.003   7.821   6.396  0.4020  1.4433 -0.6765
  501MOL0     C66033   8.982   7.731   6.285  0.7716  0.4403  0.0615
  501MOL0     C66034   8.991   7.774   6.158 -0.0833 -0.0817 -0.8632
  501MOL0     O66035   8.962   7.685   6.055  0.1772  0.2329  0.4437
  501MOL0     C66036   9.009   7.716   5.923 -0.5311  0.0757 -0.3572
  501MOL0     C66037   9.006   7.592   5.833 -0.2506  0.0508 -0.2814
  501MOL0     C66038   9.097   7.478   5.870 -0.7126 -0.7386  0.2374
  501MOL0     C66039   9.247   7.509   5.882  0.2081 -0.0002 -0.2198
  501MOL0     C66040   9.334   7.392   5.931 -0.3387  0.8170  0.5355
  501MOL0     C66041   9.331   7.262   5.844  0.4301 -0.1010  0.2591
  501MOL0     C66042   9.450   7.175   5.882  0.0127  0.1565 -0.3341
  501MOL0     C66043   9.449   7.026   5.859  0.6868 -0.5438 -0.0202
  501MOL0    Cl66044   9.496   6.992   5.693  0.3540 -0.0281 -0.1298
  501MOL0     C66045   9.025   7.906   6.138  0.7116 -0.6285  0.6569
  501MOL0     C66046   9.054   7.998   6.245  0.7892  0.7049 -0.4940
  501MOL0     O66047   8.849   8.106   6.477  0.5780  0.2241  0.3059
  501MOL0     C66048   9.128   8.193   6.699  0.2537 -0.8373  0.8452
  501MOL0     C66049   9.142   8.256   6.820 -0.0147 -0.5434 -0.1770
  501MOL0     N66050   9.180   8.857   7.321  0.0433 -0.1666  0.5552
  501MOL0     N66051   9.256   8.960   7.287  0.9321  0.0085 -0.3975
  501MOL0     C66052   9.614   9.842   6.826  0.6361  1.1232 -0.1114
  501MOL0     C66053   9.667   9.887   6.704 -0.8556  0.4162  0.2624
  501MOL0     C66054   9.938   9.871   6.306  0.5062 -0.5358 -0.2076
  501MOL0     C66055   9.990   9.801   6.190  0.3113  0.2200 -0.5261
  501MOL0     C66056  10.077   9.865   6.106  0.3189 -0.1687  1.4372
  501MOL0     C66057  10.126   9.995   6.140 -0.5479 -0.0436  0.4428
  501MOL0     O66058  10.218  10.057   6.061 -0.4777 -0.2501  0.3072
  501MOL0     C66059  10.355  10.015   6.083 -0.0140  0.2428 -0.1948
  501MOL0     C66060  10.445  10.129   6.024 -0.3349 -0.1292  0.2326
  501MOL0     C66061  10.498  10.231   6.130  0.6155 -0.8254 -0.0254
  501MOL0     C66062  10.405  10.304   6.229  0.2526 -0.0369 -0.9350
  501MOL0     C66063  10.388  10.229   6.350 -0.2109  0.3023 -0.4091
  501MOL0     C66064  10.363  10.179   6.457  0.3958  0.5643 -0.6296
  501MOL0     C66065  10.084  10.055   6.261  0.8914 -1.2974 -0.6903
  501MOL0     C66066   9.979  10.002   6.327  0.8168  0.7399 -0.4846
  501MOL0     H66067   9.841   9.613   6.612 -0.0085 -0.6133  1.5420
  501MOL0     H66068   9.714   9.529   6.811  1.2993  0.7241  1.5801
  501MOL0     H66069   9.478   9.766   7.097  1.1039  1.8814  1.0644
  501MOL0     H66070   9.646   9.783   7.139 -0.6359  0.1589  2.1977
  501MOL0     H66071   9.572   9.668   7.314  4.0167  0.3981 -0.3796
  501MOL0     H66072   9.688   9.577   7.231 -0.1806 -1.7722  2.5322
  501MOL0     H66073   9.528   9.440   7.116 -2.0241 -1.3995  0.0022
  501MOL0     H66074   9.390   9.495   7.172  1.3019  0.4752 -3.6677
  501MOL0     H66075   9.621   9.382   7.327  0.2595 -0.5462  1.2142
  501MOL0     H66076   9.483   9.458   7.409  1.2572 -0.2854  1.0715
  501MOL0     H66077   9.402   9.233   7.222  0.4304 -5.1089  2.1148
  501MOL0     H66078   9.336   9.300   7.377  1.6406 -0.3624  0.8725
  501MOL0     H66079   9.412   9.111   7.458  2.1512 -1.0479  0.9288
  501MOL0     H66080   9.547   9.225   7.481 -1.3687  1.1099  1.0088
  501MOL0     H66081   9.652   9.136   7.281 -1.9595  1.0286 -1.1775
  501MOL0     H66082   9.609   8.999   7.401  0.6883 -0.2245 -1.2314
  501MOL0     H66083   9.565   8.927   7.171 -0.5646 -1.6572  0.7847
  501MOL0     H66084   9.459   9.051   7.145 -1.5866  1.6309  1.1563
  501MOL0     H66085   9.474   8.726   7.335  0.7088  0.6296  1.4063
  501MOL0     H66086   9.137   8.646   7.450  1.3311 -1.3356  1.6373
  501MOL0     H66087   9.294   8.567   7.452 -2.1986 -0.0015  2.7358
  501MOL0     H66088   9.055   8.519   7.246 -0.3170 -1.0700 -0.1844
  501MOL0     H66089   9.205   8.429   7.278  0.1589 -0.7060 -0.9460
  501MOL0     H66090   9.147   8.659   7.078 -1.2822 -0.0282  0.9342
  501MOL0     H66091   9.313   8.606   7.131 -0.1630  0.4679  2.2530
  501MOL0     H66092   9.279   8.375   7.071  1.3021  0.5854  1.3091
  501MOL0     H66093   9.250   8.463   6.923  1.3006  0.6988  0.7914
  501MOL0     H66094   8.828   8.340   6.904 -1.7299 -0.4266 -1.2586
  501MOL0     H66095   8.789   8.243   6.679  0.3992  0.7056  0.0966
  501MOL0     H66096   8.979   7.785   6.496 -2.4082 -1.1868 -2.1275
  501MOL0     H66097   8.969   7.625   6.304 -0.2945  0.5153 -0.1494
  501MOL0     H66098   9.113   7.746   5.935 -0.1022 -2.5103  5.7542
  501MOL0     H66099   8.950   7.800   5.884 -0.1282  1.5357  2.0183
  501MOL0     H66100   9.016   7.612   5.726 -3.3689 -3.2772 -1.4131
  501MOL0     H66101   8.903   7.557   5.844  0.3782 -2.7017 -2.1117
  501MOL0     H66102   9.073   7.394   5.805 -0.0599 -3.0101  2.7526
  501MOL0     H66103   9.055   7.436   5.962 -5.0289 -0.3954 -1.3399
  501MOL0     H66104   9.286   7.555   5.790 -0.3991 -1.2643 -1.1418
  501MOL0     H66105   9.258   7.585   5.959  3.1640  4.7170 -4.6208
  501MOL0     H66106   9.315   7.372   6.037  0.6718  0.7411  0.7107
  501MOL0     H66107   9.434   7.436   5.925 -0.4958  1.5012  2.2865
  501MOL0     H66108   9.310   7.284   5.739  3.2196 -2.4687 -0.9188
  501MOL0     H66109   9.246   7.205   5.882  0.7205 -2.3112 -2.1792
  501MOL0     H66110   9.537   7.212   5.827  1.6329  0.0208  1.9752
  501MOL0     H66111   9.458   7.190   5.990  2.5081 -0.4581 -0.3728
  501MOL0     H66112   9.356   6.984   5.898  1.0521  0.2337  1.7536
  501MOL0     H66113   9.529   6.995   5.927 -0.0624 -0.1722  1.0444
  501MOL0     H66114   9.024   7.951   6.040  2.4460 -1.2810  0.2992
  501MOL0     H66115   9.086   8.101   6.234  0.5352  0.7910 -0.4113
  501MOL0     H66116   9.220   8.157   6.655  0.6355  1.6191 -0.5695
  501MOL0     H66117   9.237   8.270   6.871 -1.5095  2.5947  2.1296
  501MOL0     H66118   9.551   9.890   6.900 -0.1228 -1.7689  1.2303
  501MOL0     H66119   9.652   9.992   6.681 -1.4352  0.7831  2.1079
  501MOL0     H66120   9.969   9.700   6.156 -0.3080  0.7667 -1.8251
  501MOL0     H66121  10.113   9.808   6.022  0.4424 -0.6984  1.8435
  501MOL0     H66122  10.354   9.920   6.030 -0.9431 -0.3558  0.8450
  501MOL0     H66123  10.377  10.000   6.189  0.6899 -0.4660 -0.4383
  501MOL0     H66124  10.532  10.082   5.978  0.6568  0.5230  1.3870
  501MOL0     H66125  10.385  10.182   5.949 -1.1111 -1.2291  0.0466
  501MOL0     H66126  10.541  10.304   6.061  0.1250  1.7940  2.3035
  501MOL0     H66127  10.579  10.181   6.184 -2.0981 -3.1247  2.1949
  501MOL0     H66128  10.458  10.395   6.259  0.5010 -0.7978  1.1730
  501MOL0     H66129  10.311  10.326   6.178 -0.0387 -0.1629 -0.4600
  501MOL0     H66130  10.352  10.129   6.551  4.6101 -0.9593 -0.7527
  501MOL0     H66131  10.149  10.140   6.278 -0.7193  0.7123 -3.5788
  501MOL0     H66132   9.928  10.073   6.392  0.0492  0.2270 -0.5104
  502MOL0     O66133   2.731   1.294  10.030 -0.6157  0.2511 -0.1893
  502MOL0     C66134   2.785   1.272  10.137  0.1288  0.2464 -0.0375
  502MOL0     O66135   2.723   1.204  10.241 -0.2053  0.2993 -0.3349
  502MOL0     C66136   2.612   1.128  10.216  0.3052 -0.2226 -0.3821
  502MOL0     C66137   2.629   1.042  10.110  0.3810 -0.1389  0.7185
  502MOL0     C66138   2.515   0.962  10.072  0.3515 -0.2348  0.0601
  502MOL0     C66139   2.399   0.973  10.156 -0.5033  0.4827  0.9425
  502MOL0     O66140   2.295   0.907  10.109 -0.1786 -0.2259 -0.5049
  502MOL0     C66141   2.303   0.771  10.151  0.6182 -0.4135  0.2783
  502MOL0     C66142   2.153   0.725  10.149 -0.5961  0.2873  0.4814
  502MOL0     C66143   2.084   0.702  10.014  0.0320 -0.3004 -0.3479
  502MOL0     C66144   2.080   0.564   9.944  0.6406 -0.5645 -0.2787
  502MOL0     C66145   2.004   0.569   9.818  0.1427  0.1565  0.0569
  502MOL0     C66146   1.876   0.652   9.822  0.1591 -0.0998 -0.0282
  502MOL0     C66147   1.803   0.663   9.684  0.1280  0.6576 -0.2585
  502MOL0     C66148   1.875   0.754   9.588 -0.4388 -0.0933 -0.0452
  502MOL0     N66149   1.854   0.899   9.618 -1.3277 -0.8198  0.1165
  502MOL0     C66150   1.762   0.975   9.558 -0.0283  0.5835 -0.0154
  502MOL0     C66151   1.798   1.102   9.592  0.1035 -0.9162 -0.2614
  502MOL0     C66152   1.734   1.226   9.544 -0.2988 -0.0012 -0.1471
  502MOL0     C66153   1.806   1.350   9.592 -0.7243  0.6379 -0.1275
  502MOL0     C66154   1.790   1.394   9.731 -0.8529 -0.4603 -0.6080
  502MOL0     C66155   1.805   1.546   9.735  0.2920  0.0883 -0.5321
  502MOL0     O66156   1.739   1.601   9.844  0.3361 -0.7587 -0.8389
  502MOL0     C66157   1.779   1.564   9.972  0.2985  0.1649 -0.2093
  502MOL0     C66158   1.919   1.550  10.006  0.2650 -0.5721 -0.2813
  502MOL0     C66159   1.965   1.500  10.128  0.5940  0.0039  1.0251
  502MOL0     C66160   1.868   1.454  10.218  0.4752  0.5692  0.1028
  502MOL0     C66161   1.906   1.402  10.354  0.3497 -0.1749 -0.5189
  502MOL0     O66162   2.042   1.393  10.381 -0.2954 -0.0712 -0.3032
  502MOL0     C66163   2.097   1.345  10.493  0.1231  0.4757 -0.2322
  502MOL0     C66164   2.233   1.321  10.492  0.4726  0.6509  0.1142
  502MOL0     C66165   2.312   1.291  10.607 -0.0641 -1.0649  0.1055
  502MOL0     C66166   2.245   1.279  10.734 -0.6930  0.8521 -0.1456
  502MOL0     O66167   2.321   1.249  10.843 -0.1891  0.7529 -0.0394
  502MOL0     C66168   2.258   1.179  10.950 -1.2312 -0.2301 -0.0685
  502MOL0     C66169   2.344   1.183  11.073 -1.1720  0.5378 -1.3137
  502MOL0     C66170   2.294   1.083  11.182 -0.8130  0.2655 -0.8761
  502MOL0     C66171   2.169   1.132  11.252  0.0976 -0.2360  0.5994
  502MOL0     C66172   2.091   1.009  11.292 -0.1054 -0.6135  0.7862
  502MOL0     C66173   1.966   1.043  11.376 -0.3760 -0.0638 -0.9109
  502MOL0     C66174   1.869   1.144  11.311 -0.3996  0.2072  0.1436
  502MOL0     C66175   1.728   1.138  11.360  0.5266 -0.3056 -0.2634
  502MOL0    Cl66176   1.621   1.219  11.248  0.3811 -0.0236  0.2258
  502MOL0     C66177   2.112   1.310  10.736 -0.0541 -0.2307  0.3185
  502MOL0     C66178   2.039   1.354  10.620 -0.0597 -0.4690  0.7402
  502MOL0     O66179   1.823   1.349  10.424 -0.0178  0.6938  0.2725
  502MOL0     C66180   1.726   1.479  10.190 -0.8919  0.2831 -1.4505
  502MOL0     C66181   1.689   1.524  10.067 -0.6425  0.9204  0.3874
  502MOL0     N66182   1.893   1.097   9.693  0.1737  0.5787 -0.1848
  502MOL0     N66183   1.931   0.976   9.700 -0.5813  0.4672 -0.8524
  502MOL0     C66184   2.392   1.045  10.273  0.0096  0.0199 -0.2490
  502MOL0     C66185   2.500   1.130  10.302  0.4603  0.4168 -0.8318
  502MOL0     C66186   2.931   1.277  10.136  0.7225 -0.2557 -0.3131
  502MOL0     C66187   3.010   1.245  10.252 -0.4679 -0.4002 -0.9438
  502MOL0     C66188   3.144   1.228  10.232  0.2213  0.5592  0.0853
  502MOL0     C66189   3.211   1.231  10.107 -0.0917 -0.0958  0.8045
  502MOL0     O66190   3.349   1.220  10.075  0.8064 -0.3584 -0.1045
  502MOL0     C66191   3.424   1.128  10.146 -0.3640 -0.1755 -0.9485
  502MOL0     C66192   3.568   1.187  10.129 -0.7036  0.8322 -0.1875
  502MOL0     C66193   3.687   1.090  10.135 -0.4079  0.1590 -0.0767
  502MOL0     C66194   3.817   1.177  10.109  0.3848  0.0211  0.4280
  502MOL0     C66195   3.925   1.082  10.085 -0.1821 -0.1332  0.1107
  502MOL0     C66196   4.017   0.997  10.085 -0.3332 -1.6975 -0.0349
  502MOL0     C66197   3.140   1.264   9.994  0.4810  0.0619 -0.1609
  502MOL0     C66198   3.005   1.284  10.012 -0.9050 -0.6955  0.0940
  502MOL0     H66199   2.724   1.033  10.057 -0.6794  2.4271 -1.8970
  502MOL0     H66200   2.518   0.896   9.986 -0.1194 -1.4211  0.9299
  502MOL0     H66201   2.347   0.772  10.250  1.8530 -1.2455 -0.2411
  502MOL0     H66202   2.356   0.726  10.066  0.9291  2.0166 -0.9004
  502MOL0     H66203   2.098   0.798  10.210 -1.4227  0.7137 -0.7487
  502MOL0     H66204   2.164   0.627  10.196  0.1835 -0.1481 -0.5683
  502MOL0     H66205   2.144   0.766   9.949 -0.0130 -1.3372 -1.4598
  502MOL0     H66206   1.986   0.741  10.043  0.5173  1.8459 -1.3613
  502MOL0     H66207   2.181   0.528   9.922 -0.0920 -3.2240  0.2983
  502MOL0     H66208   2.049   0.487  10.015 -0.2617 -1.1333 -1.2723
  502MOL0     H66209   1.968   0.467   9.801  0.6130 -0.5199  2.6462
  502MOL0     H66210   2.076   0.608   9.746 -0.9762  2.1528 -0.0562
  502MOL0     H66211   1.911   0.754   9.844  2.6447 -0.4211 -2.0200
  502MOL0     H66212   1.807   0.613   9.898 -1.0758  1.2939 -0.3854
  502MOL0     H66213   1.807   0.557   9.656  0.7101  0.6271 -0.0737
  502MOL0     H66214   1.699   0.688   9.706 -0.3310  2.0184 -3.4007
  502MOL0     H66215   1.846   0.723   9.487  1.8092 -0.4109 -0.6449
  502MOL0     H66216   1.982   0.739   9.601 -0.4659 -1.0077 -0.7652
  502MOL0     H66217   1.685   0.944   9.489 -0.6729 -0.9012  1.3227
  502MOL0     H66218   1.632   1.236   9.582 -0.6638 -1.2003 -0.7387
  502MOL0     H66219   1.731   1.228   9.435 -1.2882  0.4049 -0.1179
  502MOL0     H66220   1.766   1.420   9.518 -0.7153  0.3965 -0.3651
  502MOL0     H66221   1.914   1.345   9.577 -0.0849  1.1945  3.4871
  502MOL0     H66222   1.698   1.357   9.776  0.5090  1.8531  4.9783
  502MOL0     H66223   1.878   1.358   9.786 -0.4390  1.8169  0.3416
  502MOL0     H66224   1.768   1.593   9.644  1.3950 -0.3829 -1.2421
  502MOL0     H66225   1.913   1.562   9.744  0.2047 -0.2812  2.0803
  502MOL0     H66226   1.990   1.565   9.926 -0.3934  0.0269 -0.7664
  502MOL0     H66227   2.072   1.487  10.138  1.0559  0.5790 -2.1649
  502MOL0     H66228   2.276   1.335  10.393  2.7100 -0.8684  0.7960
  502MOL0     H66229   2.420   1.278  10.613  0.3391  1.5462 -0.2891
  502MOL0     H66230   2.260   1.073  10.924 -0.5319 -0.2722  0.1410
  502MOL0     H66231   2.160   1.216  10.984 -1.1556 -2.8749  3.6584
  502MOL0     H66232   2.344   1.284  11.113  2.1826  1.1950 -2.6027
  502MOL0     H66233   2.436   1.138  11.035 -1.1706 -3.7088  2.7394
  502MOL0     H66234   2.379   1.058  11.246 -2.2922 -1.1129  0.6575
  502MOL0     H66235   2.277   0.991  11.124 -2.4884  1.1296 -1.8344
  502MOL0     H66236   2.201   1.199  11.333 -0.1476  0.0353  0.4752
  502MOL0     H66237   2.105   1.182  11.178  2.6204 -0.5735 -1.9364
  502MOL0     H66238   2.148   0.939  11.354  0.7098  0.5965  1.4393
  502MOL0     H66239   2.060   0.961  11.198  2.6865 -2.1828  0.5581
  502MOL0     H66240   2.000   1.092  11.468  0.3025 -3.2866  0.6959
  502MOL0     H66241   1.913   0.951  11.400 -1.5009  0.3435 -1.7273
  502MOL0     H66242   1.916   1.243  11.317  1.4628 -0.6786  1.0582
  502MOL0     H66243   1.864   1.122  11.204  2.4098 -0.2054  0.0312
  502MOL0     H66244   1.723   1.178  11.461  1.5777 -2.2033  0.6060
  502MOL0     H66245   1.697   1.033  11.354 -2.5445  0.5553 -1.1298
  502MOL0     H66246   2.049   1.303  10.824 -1.4479 -1.9909 -0.7241
  502MOL0     H66247   1.934   1.379  10.627 -0.4722 -1.5626 -1.0097
  502MOL0     H66248   1.646   1.460  10.261 -0.2309 -2.4712 -1.3237
  502MOL0     H66249   1.583   1.532  10.045 -1.5173 -3.1348  2.2152
  502MOL0     H66250   2.300   1.054  10.330 -0.8509  3.2231 -1.9282
  502MOL0     H66251   2.509   1.200  10.385  2.2959  0.8832 -1.3744
  502MOL0     H66252   2.952   1.231  10.343 -0.2767 -2.7744 -1.1227
  502MOL0     H66253   3.213   1.214  10.315  1.6351  1.6400 -0.8550
  502MOL0     H66254   3.406   1.029  10.101 -0.6274 -1.2575  1.3872
  502MOL0     H66255   3.404   1.107  10.252  2.5552 -2.8336 -0.7802
  502MOL0     H66256   3.566   1.230  10.028  0.1042  0.2316 -0.4698
  502MOL0     H66257   3.579   1.257  10.211 -0.7683 -0.6828  1.1560
  502MOL0     H66258   3.689   1.011  10.058  1.7485 -2.4506  2.4120
  502MOL0     H66259   3.700   1.038  10.230  3.6401 -0.1132 -0.6018
  502MOL0     H66260   3.811   1.235  10.017  2.7067 -0.1663  0.0994
  502MOL0     H66261   3.844   1.249  10.187 -2.0283  1.4668  0.0012
  502MOL0     H66262   4.106   0.944  10.107  1.0675  0.0832 -1.0862
  502MOL0     H66263   3.178   1.257   9.893 -1.6660 -0.8595 -0.9492
  502MOL0     H66264   2.945   1.297   9.923 -2.9366  0.3851  1.5379
  503MOL0     O66265   4.025   0.228   4.172 -0.0158 -0.2781 -0.4346
  503MOL0     C66266   4.080   0.143   4.246 -0.8075 -0.8311  0.4389
  503MOL0     O66267   4.153   0.038   4.205  0.0618 -0.9203  0.5001
  503MOL0     C66268   4.216   0.037   4.087 -0.3641 -0.7356 -0.1155
  503MOL0     C66269   4.150   0.051   3.968 -0.5895 -0.0011  0.1083
  503MOL0     C66270   4.225   0.050   3.843 -0.1221 -0.5774 -1.3186
  503MOL0     C66271   4.359   0.018   3.847  1.1685  0.7101 -0.3868
  503MOL0     O66272   4.398   0.012   3.713  0.1019  0.7020  0.7042
  503MOL0     C66273   4.536   0.001   3.666 -0.2091 -0.2978  0.0105
  503MOL0     C66274   4.590   0.140   3.696  0.1686  0.1646  0.1901
  503MOL0     C66275   4.529   0.243   3.602 -0.3734  0.6480 -0.6928
  503MOL0     C66276   4.576   0.380   3.622  0.5996 -0.1258 -0.3971
  503MOL0     C66277   4.537   0.477   3.521 -0.1384  0.6426 -0.2160
  503MOL0     C66278   4.607   0.452   3.384  0.4611  0.1618 -0.5004
  503MOL0     C66279   4.566   0.567   3.287 -0.9381 -0.4811 -0.3958
  503MOL0     C66280   4.632   0.695   3.321  0.3442  0.2539  0.7174
  503MOL0     N66281   4.541   0.811   3.307  0.4566 -0.6822  0.4484
  503MOL0     C66282   4.437   0.826   3.232  1.0222 -0.3022  0.2403
  503MOL0     C66283   4.398   0.954   3.235  0.0987 -0.7174  0.7057
  503MOL0     C66284   4.268   1.007   3.166 -1.2155  0.7182 -0.2145
  503MOL0     C66285   4.286   1.028   3.017 -0.2904  0.6796 -0.6176
  503MOL0     C66286   4.185   1.141   2.984  0.4914 -0.0626  0.3002
  503MOL0     C66287   4.205   1.176   2.830  0.3726  0.3835 -0.1901
  503MOL0     O66288   4.120   1.279   2.774 -0.3956 -0.2281  1.0368
  503MOL0     C66289   4.115   1.292   2.646  1.0418 -0.4056  1.2008
  503MOL0     C66290   4.205   1.241   2.549 -0.8533  0.6265  0.5512
  503MOL0     C66291   4.184   1.251   2.414  0.9497 -0.0115  0.3061
  503MOL0     C66292   4.077   1.330   2.359 -0.2025  0.4451 -0.7841
  503MOL0     C66293   4.054   1.352   2.218  0.4905  0.6364  0.1857
  503MOL0     O66294   3.961   1.435   2.169 -0.1025  0.2061  0.2372
  503MOL0     C66295   3.913   1.407   2.049 -0.0905  0.3169  0.0122
  503MOL0     C66296   3.963   1.479   1.935 -0.4362 -0.5186  0.0219
  503MOL0     C66297   3.931   1.448   1.808 -0.0015  0.4646  0.2358
  503MOL0     C66298   3.825   1.354   1.791 -0.2723 -0.6376  0.0185
  503MOL0     O66299   3.780   1.329   1.665  0.0284 -0.5408 -0.3215
  503MOL0     C66300   3.651   1.394   1.631 -0.7247  0.2436 -0.0520
  503MOL0     C66301   3.686   1.453   1.493 -0.1078 -0.6767  0.3495
  503MOL0     C66302   3.723   1.605   1.488 -0.2409 -0.0677 -0.5342
  503MOL0     C66303   3.714   1.663   1.343  0.3878 -0.3333  0.4415
  503MOL0     C66304   3.710   1.810   1.335  0.2056 -1.0727 -0.0806
  503MOL0     C66305   3.843   1.879   1.359 -0.2695 -0.3971 -0.3910
  503MOL0     C66306   3.949   1.851   1.247  1.0552  1.2774 -0.0741
  503MOL0     C66307   4.064   1.957   1.236  0.1203  0.0734  0.3403
  503MOL0    Cl66308   4.006   2.128   1.244 -0.1373 -0.0368  0.4371
  503MOL0     C66309   3.770   1.279   1.906 -0.6107  0.0358  0.6040
  503MOL0     C66310   3.820   1.297   2.035 -0.0443 -0.2913  0.1569
  503MOL0     O66311   4.113   1.271   2.148  0.0804  0.2491 -0.5987
  503MOL0     C66312   3.988   1.388   2.450  0.6388 -0.0460 -0.6071
  503MOL0     C66313   4.007   1.373   2.595  0.8002  0.9560 -0.9001
  503MOL0     N66314   4.475   1.016   3.326 -0.4020 -0.2589  0.0519
  503MOL0     N66315   4.556   0.932   3.373 -0.7657 -0.4218 -0.1634
  503MOL0     C66316   4.431   0.023   3.965  0.1144  0.0650 -0.0191
  503MOL0     C66317   4.356   0.031   4.083 -0.1840  0.5662 -0.2202
  503MOL0     C66318   4.066   0.162   4.389  1.0557 -0.7672  0.7269
  503MOL0     C66319   4.013   0.288   4.436 -0.9763  1.0208 -0.8225
  503MOL0     C66320   3.987   0.285   4.581  0.9389  0.5823 -0.7377
  503MOL0     C66321   4.011   0.174   4.662  0.0715 -0.4767 -1.0711
  503MOL0     O66322   3.975   0.161   4.795 -0.2550 -0.4700 -0.6507
  503MOL0     C66323   3.903   0.257   4.872  0.8673 -0.3991  0.0041
  503MOL0     C66324   3.985   0.373   4.919  0.3147 -0.1591  0.5448
  503MOL0     C66325   4.083   0.326   5.024  0.1931  0.1748  0.3352
  503MOL0     C66326   4.209   0.419   5.025  0.4480  0.5414 -0.1839
  503MOL0     C66327   4.165   0.560   5.036  0.7172 -0.1554 -0.2927
  503MOL0     C66328   4.107   0.670   5.042 -0.5001 -0.1000 -0.4178
  503MOL0     C66329   4.063   0.059   4.611 -0.4705 -0.1092 -0.2466
  503MOL0     C66330   4.085   0.055   4.479 -0.3262 -0.8265 -0.2402
  503MOL0     H66331   4.042   0.064   3.966 -0.3456  2.9500  1.2376
  503MOL0     H66332   4.162   0.086   3.763 -1.4132 -0.0400 -0.1096
  503MOL0     H66333   4.547  -0.027   3.561  0.6478 -1.8257  0.4777
  503MOL0     H66334   4.592  -0.067   3.731  0.0176  0.4551  0.6222
  503MOL0     H66335   4.696   0.122   3.679 -0.2594 -3.4303  0.4805
  503MOL0     H66336   4.578   0.170   3.801  0.6261 -0.6440  0.4826
  503MOL0     H66337   4.420   0.238   3.598 -0.3939 -2.9990  0.8994
  503MOL0     H66338   4.542   0.205   3.500 -1.4479  0.7854 -0.8996
  503MOL0     H66339   4.542   0.429   3.714  1.1453  1.3401 -0.9523
  503MOL0     H66340   4.684   0.367   3.623  0.6823  0.0556 -2.3649
  503MOL0     H66341   4.588   0.570   3.548  0.4473  0.3410 -0.2579
  503MOL0     H66342   4.431   0.501   3.534  0.2676  2.7877 -0.5344
  503MOL0     H66343   4.570   0.357   3.345  2.8464 -0.9547 -0.2237
  503MOL0     H66344   4.715   0.441   3.396  0.1336 -3.4493  0.3012
  503MOL0     H66345   4.604   0.535   3.190  1.8347 -0.7189  0.6611
  503MOL0     H66346   4.457   0.563   3.296 -1.0705  1.8831 -0.3198
  503MOL0     H66347   4.714   0.714   3.252  1.3993 -1.3530  1.4457
  503MOL0     H66348   4.682   0.696   3.419 -1.9909 -1.3598  2.0161
  503MOL0     H66349   4.392   0.754   3.164 -1.5920  3.2577 -2.2047
  503MOL0     H66350   4.231   1.098   3.214 -1.8453  1.0099 -1.2133
  503MOL0     H66351   4.192   0.929   3.175  1.4611 -1.9885  0.4122
  503MOL0     H66352   4.279   0.932   2.965  5.8284 -1.2433  1.2957
  503MOL0     H66353   4.391   1.054   3.002  0.8202 -3.0991 -0.5154
  503MOL0     H66354   4.082   1.106   2.996  0.2160  0.5148 -0.3563
  503MOL0     H66355   4.201   1.226   3.051 -1.9814  0.4949  0.2744
  503MOL0     H66356   4.200   1.083   2.772  1.5292  0.6111 -0.6908
  503MOL0     H66357   4.309   1.206   2.820 -0.0377  1.3155 -2.2393
  503MOL0     H66358   4.282   1.171   2.577 -2.6767 -0.7074  2.5594
  503MOL0     H66359   4.250   1.209   2.339 -0.0303 -0.6305 -0.2347
  503MOL0     H66360   4.047   1.548   1.942 -0.7225 -0.1163 -0.4099
  503MOL0     H66361   3.984   1.490   1.723  5.5781  0.0981  3.0889
  503MOL0     H66362   3.626   1.480   1.694  3.1109  1.6654 -0.1510
  503MOL0     H66363   3.566   1.326   1.628  0.2402 -0.9835 -2.4278
  503MOL0     H66364   3.600   1.440   1.427  2.0578  0.3372 -2.8752
  503MOL0     H66365   3.774   1.406   1.448  1.6113  2.1243  0.4938
  503MOL0     H66366   3.820   1.609   1.538 -0.6109 -2.6360  0.5493
  503MOL0     H66367   3.652   1.657   1.553  1.4592  1.6385  0.0687
  503MOL0     H66368   3.785   1.623   1.269  2.6176 -0.0182  2.3157
  503MOL0     H66369   3.617   1.633   1.302  0.6524  0.6884 -1.0375
  503MOL0     H66370   3.652   1.845   1.421  0.5277 -2.3543  0.6804
  503MOL0     H66371   3.662   1.845   1.243 -2.1215 -0.2226  1.3531
  503MOL0     H66372   3.876   1.843   1.457 -0.4293 -1.9492 -0.8866
  503MOL0     H66373   3.837   1.987   1.377  1.0734 -0.4478  0.4463
  503MOL0     H66374   3.981   1.747   1.254 -0.3083  0.8275 -0.2649
  503MOL0     H66375   3.894   1.846   1.153 -0.3782 -3.1063  0.7796
  503MOL0     H66376   4.118   1.935   1.143  1.3361  3.2105  0.1989
  503MOL0     H66377   4.124   1.945   1.327 -0.4197  1.7384  0.9492
  503MOL0     H66378   3.698   1.203   1.878 -1.5817  2.0960 -3.2119
  503MOL0     H66379   3.790   1.232   2.116 -0.4057  1.7074  1.7283
  503MOL0     H66380   3.894   1.437   2.424 -1.7598 -3.3093  1.1903
  503MOL0     H66381   3.946   1.407   2.679  1.6722 -1.9684  1.0799
  503MOL0     H66382   4.538   0.015   3.983  0.1132 -0.6251 -0.2929
  503MOL0     H66383   4.402   0.031   4.181  0.2422 -2.9631 -0.2979
  503MOL0     H66384   3.992   0.374   4.375 -0.5107  1.7876  0.0725
  503MOL0     H66385   3.955   0.376   4.632  1.4252  0.2216  0.2356
  503MOL0     H66386   3.869   0.204   4.961 -1.0059 -1.1321 -1.0878
  503MOL0     H66387   3.808   0.299   4.837 -0.5004  0.8773  4.5476
  503MOL0     H66388   4.040   0.423   4.839  3.7215 -4.4816 -0.1581
  503MOL0     H66389   3.925   0.448   4.972  1.2969  0.4360  0.8555
  503MOL0     H66390   4.118   0.225   5.004 -0.6951  0.1025 -0.9964
  503MOL0     H66391   4.028   0.335   5.118 -1.7328 -1.6772 -0.5177
  503MOL0     H66392   4.289   0.399   5.098 -0.8320 -0.4264  1.0003
  503MOL0     H66393   4.263   0.397   4.932  0.4051  0.3833 -0.1714
  503MOL0     H66394   4.064   0.767   5.045  2.4541  1.2919  0.6834
  503MOL0     H66395   4.095  -0.028   4.667  1.3191  1.6669  1.6374
  503MOL0     H66396   4.129  -0.039   4.447  2.1856 -0.8473  2.8497
  504MOL0     O66397   5.776   1.271   6.170  0.5992  0.5179 -0.1048
  504MOL0     C66398   5.810   1.151   6.173 -1.0397  0.0639  0.1807
  504MOL0     O66399   5.913   1.090   6.109 -0.1664  0.2302  0.3421
  504MOL0     C66400   5.994   1.164   6.034  0.2140  0.5799 -0.5053
  504MOL0     C66401   6.028   1.106   5.915 -0.0926 -1.3136 -0.7191
  504MOL0     C66402   6.119   1.162   5.824  0.5904 -0.3791 -0.2243
  504MOL0     C66403   6.179   1.285   5.865  0.4828 -0.1005  0.7734
  504MOL0     O66404   6.279   1.325   5.780 -0.2505 -0.2478 -0.2604
  504MOL0     C66405   6.343   1.452   5.801  0.2041  0.5165  0.9841
  504MOL0     C66406   6.255   1.571   5.752 -0.3420  0.6844 -0.1662
  504MOL0     C66407   6.352   1.666   5.694 -0.0699 -0.4382 -0.4041
  504MOL0     C66408   6.443   1.728   5.807  1.0630  0.0185  0.2581
  504MOL0     C66409   6.540   1.839   5.756 -0.8497  0.4566  0.1242
  504MOL0     C66410   6.657   1.774   5.673 -0.4527  0.0337 -0.5790
  504MOL0     C66411   6.730   1.882   5.601 -0.6900  0.1509  0.0686
  504MOL0     C66412   6.846   1.824   5.527  0.3574  0.1756  0.6777
  504MOL0     N66413   6.827   1.712   5.431 -0.6313  0.2646 -0.1679
  504MOL0     C66414   6.728   1.691   5.341 -0.4173  0.8878 -0.1229
  504MOL0     C66415   6.728   1.561   5.314 -0.4456 -0.4260  0.1606
  504MOL0     C66416   6.603   1.496   5.245  0.1096  1.4074  0.9656
  504MOL0     C66417   6.507   1.429   5.351  0.0918  0.8052 -0.0696
  504MOL0     C66418   6.564   1.290   5.406 -1.1558  0.5376 -0.2804
  504MOL0     C66419   6.468   1.253   5.520 -0.4162 -0.5839  1.0931
  504MOL0     O66420   6.342   1.177   5.492  0.5622 -0.3866  0.5574
  504MOL0     C66421   6.338   1.050   5.447  1.1748  0.0838 -0.2621
  504MOL0     C66422   6.449   0.966   5.423 -1.0771  0.4738  0.8009
  504MOL0     C66423   6.451   0.834   5.364  0.0991 -1.4538  0.8923
  504MOL0     C66424   6.332   0.781   5.327  0.7636  0.2028 -0.4090
  504MOL0     C66425   6.310   0.654   5.239 -0.9014 -0.3213  0.6498
  504MOL0     O66426   6.419   0.607   5.176 -0.3631  0.4714  0.2322
  504MOL0     C66427   6.412   0.502   5.077  1.0901  0.0958  0.0095
  504MOL0     C66428   6.380   0.525   4.938  0.5018  0.3714  0.8512
  504MOL0     C66429   6.357   0.404   4.855  0.1286 -0.2992 -0.0893
  504MOL0     C66430   6.367   0.273   4.908 -0.2882 -0.1410 -0.3564
  504MOL0     O66431   6.362   0.172   4.818 -0.4478  0.1748 -0.7969
  504MOL0     C66432   6.297   0.048   4.850  0.5782 -0.2668 -0.8118
  504MOL0     C66433   6.296  -0.032   4.724  0.5239 -0.2212 -0.7606
  504MOL0     C66434   6.232  -0.166   4.753 -0.4932 -1.0663 -0.4819
  504MOL0     C66435   6.242  -0.266   4.637 -0.3948  0.3629  0.8729
  504MOL0     C66436   6.382  -0.326   4.640  0.7542 -0.9832 -0.4170
  504MOL0     C66437   6.384  -0.452   4.742 -0.1619 -0.2934  0.6845
  504MOL0     C66438   6.513  -0.489   4.822 -0.7537 -0.8958  0.3423
  504MOL0     C66439   6.517  -0.621   4.896  0.1107  0.7579 -1.1375
  504MOL0    Cl66440   6.524  -0.764   4.787 -0.0177  0.1955 -0.0255
  504MOL0     C66441   6.403   0.256   5.040  0.6170 -1.4484 -0.4953
  504MOL0     C66442   6.426   0.371   5.123  0.6136  0.1014  0.3909
  504MOL0     O66443   6.204   0.610   5.218  0.5429  0.0788 -0.5609
  504MOL0     C66444   6.217   0.854   5.354  0.6116  0.0373  0.1791
  504MOL0     C66445   6.221   0.984   5.404 -0.3236 -0.4847 -0.2234
  504MOL0     N66446   6.845   1.505   5.365 -0.1908 -0.6229 -0.1826
  504MOL0     N66447   6.899   1.593   5.442  0.4860 -0.4968 -0.5333
  504MOL0     C66448   6.134   1.354   5.988  0.1113  0.1815  0.6712
  504MOL0     C66449   6.031   1.288   6.070 -0.6345  0.0393  0.4564
  504MOL0     C66450   5.744   1.063   6.276  1.5244  1.1830  0.1702
  504MOL0     C66451   5.784   0.932   6.306  0.0059 -0.3890  1.1520
  504MOL0     C66452   5.722   0.846   6.394  1.5136 -0.2496  0.1490
  504MOL0     C66453   5.607   0.889   6.474  0.6064 -0.3387  0.3357
  504MOL0     O66454   5.549   0.821   6.581  0.4452 -0.9205  0.8673
  504MOL0     C66455   5.571   0.684   6.605  0.3925  0.5136  0.0968
  504MOL0     C66456   5.494   0.592   6.511 -1.1183  0.3608 -0.8577
  504MOL0     C66457   5.485   0.446   6.566  0.4508  0.0617  0.3538
  504MOL0     C66458   5.431   0.346   6.458  1.3716  0.0173 -0.3221
  504MOL0     C66459   5.524   0.321   6.345  0.2158  0.6670 -0.8828
  504MOL0     C66460   5.616   0.303   6.265 -0.7346 -0.0604 -0.4833
  504MOL0     C66461   5.555   1.023   6.440  0.3084  0.8955  0.4835
  504MOL0     C66462   5.627   1.108   6.346 -0.8457 -0.7069  0.0787
  504MOL0     H66463   5.992   1.007   5.888 -1.0742 -0.8749 -1.0286
  504MOL0     H66464   6.143   1.116   5.729  0.2834 -1.3498  0.1608
  504MOL0     H66465   6.430   1.449   5.736 -1.5656 -0.4757 -1.4925
  504MOL0     H66466   6.375   1.461   5.905  3.6395 -1.5403  0.2316
  504MOL0     H66467   6.204   1.608   5.842 -0.1334 -1.5301  0.9337
  504MOL0     H66468   6.187   1.540   5.673 -3.5945 -0.1240  2.6982
  504MOL0     H66469   6.297   1.750   5.651 -1.4464 -1.0431  0.1186
  504MOL0     H66470   6.407   1.629   5.607 -1.1966  3.0169 -2.7932
  504MOL0     H66471   6.388   1.759   5.896  2.5161  2.3514  0.4136
  504MOL0     H66472   6.508   1.648   5.843  1.2722  0.4453  0.8383
  504MOL0     H66473   6.589   1.889   5.839  0.2491  1.2681 -0.9763
  504MOL0     H66474   6.494   1.924   5.705 -1.0020  0.7845  0.8101
  504MOL0     H66475   6.610   1.707   5.601  0.9817 -0.3556 -1.1954
  504MOL0     H66476   6.721   1.713   5.737 -2.4082  0.8594  2.3656
  504MOL0     H66477   6.658   1.929   5.533 -1.6806 -1.4198 -0.0418
  504MOL0     H66478   6.766   1.959   5.669 -0.9388 -0.6497  1.1417
  504MOL0     H66479   6.924   1.785   5.593  0.7590 -1.4307 -0.6772
  504MOL0     H66480   6.888   1.912   5.479 -0.7177  0.6741  0.6276
  504MOL0     H66481   6.639   1.749   5.319  0.9974  3.7660  1.2420
  504MOL0     H66482   6.632   1.436   5.159  2.8854  1.8164  1.5410
  504MOL0     H66483   6.541   1.575   5.202 -2.9271 -1.4766 -0.4473
  504MOL0     H66484   6.420   1.399   5.291  0.0234  0.1833  0.3283
  504MOL0     H66485   6.486   1.500   5.431 -1.3427 -0.5040  0.7739
  504MOL0     H66486   6.567   1.212   5.330 -0.9632  1.5804 -1.3709
  504MOL0     H66487   6.663   1.311   5.446 -0.3501  1.0495 -2.4135
  504MOL0     H66488   6.429   1.348   5.559 -0.9134 -1.4137  2.7100
  504MOL0     H66489   6.526   1.210   5.602 -0.0004 -0.5353  0.8268
  504MOL0     H66490   6.545   1.010   5.451 -0.5262  0.2713 -0.6760
  504MOL0     H66491   6.537   0.771   5.346  0.7450 -0.5298  0.7187
  504MOL0     H66492   6.371   0.623   4.893 -2.3500 -0.4716 -0.6883
  504MOL0     H66493   6.343   0.404   4.748  0.0318 -2.6782 -0.1214
  504MOL0     H66494   6.194   0.071   4.878  0.5271  1.9754 -2.5557
  504MOL0     H66495   6.356  -0.009   4.924 -0.7660  2.4810  2.6562
  504MOL0     H66496   6.400  -0.031   4.689  0.6022  0.7699 -0.5074
  504MOL0     H66497   6.225   0.002   4.649 -1.0309 -0.9650  0.3174
  504MOL0     H66498   6.128  -0.142   4.776  0.2450  1.2701  0.7115
  504MOL0     H66499   6.268  -0.217   4.843 -0.9483 -1.7237 -0.6636
  504MOL0     H66500   6.166  -0.342   4.659 -0.9509  0.2110 -1.3148
  504MOL0     H66501   6.224  -0.231   4.535  2.1854  3.1153  1.2192
  504MOL0     H66502   6.464  -0.255   4.656  2.1960 -2.8855  1.1782
  504MOL0     H66503   6.405  -0.371   4.543 -0.2606  1.1397 -1.7291
  504MOL0     H66504   6.367  -0.544   4.686 -1.1970  2.0642 -3.2381
  504MOL0     H66505   6.300  -0.442   4.811 -0.0517 -1.4756  1.0119
  504MOL0     H66506   6.602  -0.485   4.759 -1.3344  0.4045 -0.4386
  504MOL0     H66507   6.530  -0.414   4.899 -0.2866 -2.0047  1.3587
  504MOL0     H66508   6.418  -0.636   4.940  2.1889 -1.6915  3.4886
  504MOL0     H66509   6.593  -0.623   4.975  0.8319 -0.9908 -1.8398
  504MOL0     H66510   6.422   0.157   5.082 -1.6238 -1.9880 -0.6196
  504MOL0     H66511   6.445   0.349   5.227 -5.2321 -1.7979  1.4583
  504MOL0     H66512   6.121   0.813   5.326 -0.1916  3.1934 -2.2444
  504MOL0     H66513   6.136   1.050   5.395  0.7629  0.8951 -0.7755
  504MOL0     H66514   6.164   1.450   6.030 -1.5333  0.7805  0.5507
  504MOL0     H66515   5.997   1.337   6.160 -3.2938  1.0311 -0.9945
  504MOL0     H66516   5.871   0.895   6.252  0.7462  1.0506  1.3008
  504MOL0     H66517   5.759   0.744   6.400  1.5484 -0.3610 -1.5511
  504MOL0     H66518   5.532   0.652   6.702  1.6529 -2.8596 -0.3763
  504MOL0     H66519   5.680   0.674   6.611  0.2605 -0.5501  0.9873
  504MOL0     H66520   5.395   0.637   6.501  0.5010  5.6141  2.4966
  504MOL0     H66521   5.542   0.588   6.413 -1.6303  3.7643 -1.3605
  504MOL0     H66522   5.421   0.465   6.653 -2.0586  1.4165 -1.6463
  504MOL0     H66523   5.584   0.411   6.595 -0.3989 -1.6323  1.3778
  504MOL0     H66524   5.409   0.263   6.526  1.2498  0.0193 -0.3603
  504MOL0     H66525   5.337   0.381   6.416  1.6150  0.0383 -0.8540
  504MOL0     H66526   5.697   0.281   6.198 -0.2091  0.3105  0.0300
  504MOL0     H66527   5.484   1.080   6.499 -0.8866  1.3685 -1.2959
  504MOL0     H66528   5.594   1.210   6.327 -1.0398 -0.8143 -0.1758
  505MOL0     O66529   5.818   2.024   6.551 -0.2515  1.1478  0.7832
  505MOL0     C66530   5.924   1.954   6.547 -0.3002 -0.1970  0.0970
  505MOL0     O66531   5.946   1.840   6.626  0.4768  0.0350  0.4571
  505MOL0     C66532   5.842   1.792   6.687 -0.2751  0.0913 -0.4011
  505MOL0     C66533   5.755   1.709   6.620  0.7615 -0.2505 -0.0534
  505MOL0     C66534   5.647   1.650   6.690 -0.0646  0.4682 -0.5963
  505MOL0     C66535   5.618   1.684   6.826  0.4443 -0.4872  0.0520
  505MOL0     O66536   5.502   1.636   6.889  0.1213 -0.5154 -0.0649
  505MOL0     C66537   5.496   1.624   7.031 -0.1358  0.5752 -0.3882
  505MOL0     C66538   5.359   1.559   7.049 -0.3088  0.6263 -0.5113
  505MOL0     C66539   5.316   1.519   7.195  1.5581  0.0857 -0.4168
  505MOL0     C66540   5.207   1.407   7.214 -0.5396  0.3380  0.0548
  505MOL0     C66541   5.064   1.450   7.189 -0.2420 -0.2375 -0.5369
  505MOL0     C66542   5.016   1.510   7.334  0.1602  0.1773  0.6181
  505MOL0     C66543   4.887   1.583   7.313 -0.1011 -0.0690  0.6015
  505MOL0     C66544   4.773   1.506   7.238  0.0391 -0.6807  0.7336
  505MOL0     N66545   4.704   1.431   7.346  0.3706 -0.1324  1.0643
  505MOL0     C66546   4.720   1.301   7.380 -1.1963  1.5123  0.7230
  505MOL0     C66547   4.648   1.270   7.489 -0.5144  0.0258 -0.5381
  505MOL0     C66548   4.649   1.152   7.582 -0.3358 -0.1429 -1.0542
  505MOL0     C66549   4.504   1.113   7.599 -0.1341  0.1598 -0.5340
  505MOL0     C66550   4.506   0.994   7.703  0.1004  0.1144 -1.0397
  505MOL0     C66551   4.369   0.972   7.775 -0.0193  0.0103 -0.8211
  505MOL0     O66552   4.385   0.861   7.858 -0.1468  0.1118 -0.0833
  505MOL0     C66553   4.291   0.835   7.951  0.8107  0.4867 -0.2471
  505MOL0     C66554   4.322   0.776   8.074 -0.6658 -0.9921 -0.3915
  505MOL0     C66555   4.227   0.767   8.168 -0.9258  0.2958 -0.1035
  505MOL0     C66556   4.089   0.799   8.159 -0.3678  0.1831  0.6565
  505MOL0     C66557   3.987   0.779   8.273  0.4522  0.0702 -0.5043
  505MOL0     O66558   3.854   0.779   8.234  0.6236 -0.3610 -0.1278
  505MOL0     C66559   3.758   0.792   8.331 -0.5087 -0.0331  0.0471
  505MOL0     C66560   3.756   0.907   8.411  0.1190  0.2351  0.0320
  505MOL0     C66561   3.662   0.925   8.517 -0.5410 -0.6469  0.4731
  505MOL0     C66562   3.560   0.836   8.528 -0.2883 -0.4534  0.6569
  505MOL0     O66563   3.477   0.875   8.624  0.3574 -0.3133 -0.0447
  505MOL0     C66564   3.340   0.829   8.631  0.6704  0.4344  0.4481
  505MOL0     C66565   3.277   0.878   8.763  0.2238  0.3852 -0.4432
  505MOL0     C66566   3.329   0.812   8.892  0.0330 -0.2199  0.0750
  505MOL0     C66567   3.295   0.906   9.013 -0.5604  1.0637  0.3699
  505MOL0     C66568   3.146   0.888   9.054  1.1163  0.8068  0.6050
  505MOL0     C66569   3.111   0.967   9.182  0.8172 -0.8096 -0.6156
  505MOL0     C66570   2.974   0.944   9.230  0.1990  0.2969 -0.0503
  505MOL0     C66571   2.920   1.055   9.321  0.4341 -0.0408  0.9667
  505MOL0    Cl66572   2.744   1.091   9.281 -0.1110  0.7908  0.2359
  505MOL0     C66573   3.544   0.728   8.436 -0.6178 -0.7846  0.0549
  505MOL0     C66574   3.647   0.707   8.338  0.1880 -0.2578  0.1416
  505MOL0     O66575   4.027   0.778   8.388  0.8531 -0.0855  0.0374
  505MOL0     C66576   4.051   0.851   8.035 -0.5379 -0.6681 -0.2425
  505MOL0     C66577   4.150   0.871   7.934 -0.0555 -0.2051  0.1459
  505MOL0     N66578   4.574   1.390   7.519 -0.3531 -0.1677  0.4442
  505MOL0     N66579   4.611   1.485   7.435 -0.1442  0.5738 -0.0411
  505MOL0     C66580   5.724   1.752   6.896 -0.2746 -0.7475 -0.4484
  505MOL0     C66581   5.836   1.799   6.823  0.2287  0.3672  0.3222
  505MOL0     C66582   6.037   2.002   6.465 -0.0870  0.3263 -0.8386
  505MOL0     C66583   6.029   2.129   6.389  0.0010 -0.3008  0.2905
  505MOL0     C66584   6.130   2.176   6.319 -1.1445  0.1843 -0.5222
  505MOL0     C66585   6.258   2.103   6.317 -0.3174 -0.8876 -1.0411
  505MOL0     O66586   6.369   2.134   6.240  0.9733  0.5023  0.3719
  505MOL0     C66587   6.470   2.212   6.319  0.8696  0.2553  0.3511
  505MOL0     C66588   6.486   2.356   6.282 -0.1920  0.4406  0.7981
  505MOL0     C66589   6.564   2.438   6.395  0.2942  0.4576 -0.2006
  505MOL0     C66590   6.702   2.379   6.421 -0.1824 -1.2014  0.7780
  505MOL0     C66591   6.792   2.394   6.308 -0.5174 -0.1562 -0.9047
  505MOL0     C66592   6.874   2.401   6.221 -0.2256 -0.1028  0.1282
  505MOL0     C66593   6.271   1.977   6.389  0.4917  0.3804  0.6462
  505MOL0     C66594   6.160   1.927   6.461 -0.1557 -0.0677 -1.1827
  505MOL0     H66595   5.791   1.681   6.522  1.7105  3.1940 -0.8496
  505MOL0     H66596   5.580   1.573   6.653 -2.7302  1.3352  2.0307
  505MOL0     H66597   5.502   1.725   7.072  1.1492  0.7247 -0.9175
  505MOL0     H66598   5.568   1.552   7.072 -1.1875  1.5955  3.7280
  505MOL0     H66599   5.356   1.468   6.987  1.2682  0.2378 -0.0401
  505MOL0     H66600   5.279   1.624   7.011  1.1942  1.2511 -2.8185
  505MOL0     H66601   5.293   1.612   7.249  2.4497  0.0762  0.0046
  505MOL0     H66602   5.406   1.476   7.240  2.6187  2.3083 -0.2817
  505MOL0     H66603   5.237   1.328   7.145 -1.4758  1.0813 -1.2689
  505MOL0     H66604   5.222   1.353   7.308  0.0771 -2.9623 -1.7831
  505MOL0     H66605   5.012   1.360   7.154 -0.3133 -0.2838 -0.3180
  505MOL0     H66606   5.058   1.529   7.114  0.9319 -0.8715 -1.3229
  505MOL0     H66607   5.082   1.592   7.362 -0.2611  0.8964 -0.4191
  505MOL0     H66608   5.010   1.427   7.406  0.8079 -1.3714 -1.0395
  505MOL0     H66609   4.846   1.624   7.406 -1.6877 -2.4828  1.0512
  505MOL0     H66610   4.909   1.664   7.244  0.9454 -1.5871 -0.9063
  505MOL0     H66611   4.810   1.437   7.162 -2.1918 -0.0885 -0.9829
  505MOL0     H66612   4.720   1.582   7.179  2.1082 -2.0893 -3.3343
  505MOL0     H66613   4.775   1.232   7.317  0.5188  3.1166  0.3483
  505MOL0     H66614   4.706   1.162   7.675  0.9219 -1.2928 -1.6697
  505MOL0     H66615   4.709   1.071   7.538  1.5022 -0.8783  2.4452
  505MOL0     H66616   4.458   1.084   7.505 -1.2852 -0.4396  0.1869
  505MOL0     H66617   4.430   1.182   7.642 -0.0861 -0.3551  0.3937
  505MOL0     H66618   4.540   0.900   7.657  0.8915 -0.0121 -0.2362
  505MOL0     H66619   4.585   0.996   7.779  0.2904  0.5146 -1.2441
  505MOL0     H66620   4.295   0.951   7.697  0.6171 -1.9704 -0.9454
  505MOL0     H66621   4.339   1.056   7.837  0.1852 -1.1113  0.8625
  505MOL0     H66622   4.426   0.751   8.093 -0.0861  0.0887 -1.9731
  505MOL0     H66623   4.243   0.732   8.270 -1.5656  2.4464  0.7882
  505MOL0     H66624   3.840   0.970   8.383  0.1506 -1.2451 -3.6715
  505MOL0     H66625   3.667   1.005   8.589 -1.9195  2.0284 -2.1928
  505MOL0     H66626   3.350   0.721   8.630  1.1807  0.4756  0.7591
  505MOL0     H66627   3.279   0.857   8.544  1.8300 -1.5897 -1.0883
  505MOL0     H66628   3.171   0.852   8.771  0.4347  0.0707  2.6955
  505MOL0     H66629   3.284   0.987   8.769  2.4947  0.2321  0.5832
  505MOL0     H66630   3.437   0.815   8.878  0.1095  2.4513  0.7054
  505MOL0     H66631   3.304   0.707   8.909  1.7505 -0.5289  0.8629
  505MOL0     H66632   3.363   0.877   9.093  1.9935  1.7322 -1.4224
  505MOL0     H66633   3.320   1.008   8.982  1.4658 -0.1411 -2.5276
  505MOL0     H66634   3.129   0.782   9.072 -0.9198  0.6518 -1.8366
  505MOL0     H66635   3.074   0.906   8.974  0.0149 -1.7457  0.9293
  505MOL0     H66636   3.126   1.076   9.179 -1.4848 -0.3395  1.7126
  505MOL0     H66637   3.192   0.931   9.246  2.2385 -0.9559 -2.3972
  505MOL0     H66638   2.908   0.933   9.143 -0.6109 -1.3986  0.7284
  505MOL0     H66639   2.969   0.851   9.287 -0.3130 -0.9310 -1.9883
  505MOL0     H66640   2.972   1.148   9.294 -0.1807  0.4022  1.2747
  505MOL0     H66641   2.940   1.029   9.425  1.1374  0.3979  0.9513
  505MOL0     H66642   3.453   0.668   8.441  0.3092 -2.1735  3.9909
  505MOL0     H66643   3.639   0.636   8.257  0.5023 -0.2730  0.1242
  505MOL0     H66644   3.950   0.884   8.012 -0.0772 -1.3747 -4.0521
  505MOL0     H66645   4.113   0.914   7.841 -0.1937 -1.2566 -0.3045
  505MOL0     H66646   5.715   1.766   7.003 -3.2770  1.2518 -0.8364
  505MOL0     H66647   5.913   1.853   6.877  0.4189  2.4498 -1.8605
  505MOL0     H66648   5.940   2.191   6.380  2.1359  2.8314 -0.8750
  505MOL0     H66649   6.111   2.261   6.254 -0.5969 -0.0071 -0.9405
  505MOL0     H66650   6.566   2.160   6.314  0.1478 -1.3832  2.2697
  505MOL0     H66651   6.447   2.215   6.426  1.1610 -0.4622  0.4410
  505MOL0     H66652   6.551   2.356   6.194 -2.5439  1.7561 -1.0693
  505MOL0     H66653   6.384   2.389   6.262 -0.6719 -1.5849 -0.4199
  505MOL0     H66654   6.508   2.431   6.489 -2.6895  0.5274 -1.8527
  505MOL0     H66655   6.582   2.541   6.364  0.0944  1.6327  3.2079
  505MOL0     H66656   6.756   2.428   6.503 -1.5943 -0.3719  1.2485
  505MOL0     H66657   6.703   2.273   6.446  1.5982 -1.3066  0.3995
  505MOL0     H66658   6.948   2.419   6.145 -0.9902 -0.6669 -0.7704
  505MOL0     H66659   6.366   1.926   6.380 -0.4018 -1.3180  0.3593
  505MOL0     H66660   6.167   1.835   6.518  1.2869  0.5887 -0.2468
  506MOL0     O66661   7.731   8.870   2.904 -0.4391 -0.2293  0.6899
  506MOL0     C66662   7.807   8.819   2.985  0.1882  0.3141 -1.0336
  506MOL0     O66663   7.782   8.716   3.077  0.5199 -0.4553  0.2046
  506MOL0     C66664   7.650   8.691   3.106 -0.4915 -0.1056 -0.1836
  506MOL0     C66665   7.552   8.790   3.103  0.0211  0.5053 -1.4089
  506MOL0     C66666   7.424   8.739   3.140  0.5354 -0.2698 -0.0989
  506MOL0     C66667   7.401   8.615   3.195 -0.2690 -0.4051 -0.3455
  506MOL0     O66668   7.275   8.593   3.243 -0.1150 -0.2408  0.2254
  506MOL0     C66669   7.256   8.497   3.351  0.1667  0.2523  0.4355
  506MOL0     C66670   7.110   8.501   3.399 -1.0549 -0.9149 -0.2848
  506MOL0     C66671   7.007   8.502   3.280 -0.0123  0.8942  0.4594
  506MOL0     C66672   6.891   8.589   3.306  0.7515 -0.4866  0.4073
  506MOL0     C66673   6.765   8.541   3.223 -0.5614  0.1584 -0.5824
  506MOL0     C66674   6.792   8.555   3.076 -0.8231  0.1742  0.3851
  506MOL0     C66675   6.778   8.703   3.030  0.0019 -0.4334  0.3939
  506MOL0     C66676   6.790   8.721   2.877  0.7589 -0.1101 -0.7487
  506MOL0     N66677   6.718   8.843   2.822  0.5275  0.1055  0.1519
  506MOL0     C66678   6.747   8.973   2.858  0.9669  0.1865  0.1517
  506MOL0     C66679   6.651   9.043   2.801 -0.8636 -0.5362  0.1158
  506MOL0     C66680   6.645   9.191   2.801  0.7950 -0.5885  0.8017
  506MOL0     C66681   6.510   9.240   2.865 -0.3075 -0.0744 -0.7710
  506MOL0     C66682   6.488   9.180   3.005 -0.1545 -0.5582 -0.8929
  506MOL0     C66683   6.378   9.250   3.093 -0.0333 -0.5829  0.1986
  506MOL0     O66684   6.435   9.375   3.147  0.4783 -0.0570  0.3472
  506MOL0     C66685   6.367   9.451   3.235  0.0596 -0.3340 -0.1671
  506MOL0     C66686   6.246   9.415   3.291  0.6009  0.0470  0.3784
  506MOL0     C66687   6.184   9.498   3.383  0.2147 -0.5275  0.2679
  506MOL0     C66688   6.240   9.625   3.423 -0.1396 -0.4465 -0.2863
  506MOL0     C66689   6.154   9.720   3.496 -0.4564  0.1046  0.3592
  506MOL0     O66690   6.036   9.676   3.522 -0.4915 -0.2939  0.1454
  506MOL0     C66691   5.939   9.749   3.596  0.8414 -0.3962  0.4297
  506MOL0     C66692   5.957   9.815   3.710  0.0753  0.3430 -0.3835
  506MOL0     C66693   5.858   9.888   3.763 -0.7775  0.6086 -0.2422
  506MOL0     C66694   5.729   9.896   3.709  0.4023  0.3960  1.2225
  506MOL0     O66695   5.625   9.955   3.769  0.1387 -0.6616  0.1068
  506MOL0     C66696   5.536   9.867   3.842 -0.8062  0.6272 -0.1830
  506MOL0     C66697   5.397   9.929   3.843 -0.0422  0.3917  0.2689
  506MOL0     C66698   5.298   9.825   3.884 -0.4677  0.0551  0.2500
  506MOL0     C66699   5.153   9.870   3.907  0.8089  0.5592 -0.0147
  506MOL0     C66700   5.054   9.755   3.922 -0.5328  0.0089 -0.8205
  506MOL0     C66701   4.903   9.815   3.924 -0.1212  0.2558 -0.4339
  506MOL0     C66702   4.793   9.707   3.927  0.0259 -0.7487 -0.4626
  506MOL0     C66703   4.780   9.631   4.061  0.3423 -0.7877 -0.3017
  506MOL0    Cl66704   4.878   9.484   4.077  0.1030 -0.0356  0.3189
  506MOL0     C66705   5.705   9.825   3.592 -0.7370  0.2258  0.1598
  506MOL0     C66706   5.811   9.757   3.534 -0.2265  1.1542  1.3007
  506MOL0     O66707   6.218   9.820   3.539  0.5047 -0.1559  0.1186
  506MOL0     C66708   6.368   9.655   3.373  0.0004 -0.4651 -0.8315
  506MOL0     C66709   6.433   9.566   3.280 -0.0595 -0.4798  1.0554
  506MOL0     N66710   6.575   8.957   2.722 -0.1586  0.2640  0.3827
  506MOL0     N66711   6.621   8.842   2.730  0.5346  0.0214 -0.0253
  506MOL0     C66712   7.509   8.527   3.211  0.5435 -0.6564  0.4775
  506MOL0     C66713   7.636   8.568   3.171  0.1232  0.1910  0.1578
  506MOL0     C66714   7.950   8.853   2.968 -0.1204 -0.5895 -0.0029
  506MOL0     C66715   7.988   8.920   2.845  0.0694  0.9031  0.0407
  506MOL0     C66716   8.126   8.953   2.826 -0.2333  0.6603 -0.4514
  506MOL0     C66717   8.233   8.921   2.918 -0.0490 -0.6227 -1.2581
  506MOL0     O66718   8.370   8.959   2.918  0.3609  0.9299  0.5511
  506MOL0     C66719   8.446   8.946   2.792 -0.5169 -0.7149  0.5903
  506MOL0     C66720   8.591   8.933   2.827  0.3128 -0.5963 -0.1595
  506MOL0     C66721   8.663   9.014   2.707  0.0418 -0.1610  1.2363
  506MOL0     C66722   8.663   8.926   2.574 -0.0653  0.1947 -0.2882
  506MOL0     C66723   8.596   9.005   2.469 -0.6307 -0.2982  0.5369
  506MOL0     C66724   8.529   9.063   2.381 -1.2342 -0.4317  0.0226
  506MOL0     C66725   8.197   8.854   3.033  0.6833 -0.5381 -0.1382
  506MOL0     C66726   8.061   8.817   3.059 -0.5393 -0.0812 -0.3048
  506MOL0     H66727   7.556   8.889   3.059  1.5210  1.2614  0.2847
  506MOL0     H66728   7.332   8.797   3.145  0.3772 -0.2994 -2.1182
  506MOL0     H66729   7.322   8.515   3.436  0.2908 -2.7367  1.0676
  506MOL0     H66730   7.283   8.395   3.320  0.9299  0.6696 -0.3389
  506MOL0     H66731   7.101   8.587   3.466  0.7503 -0.5833 -0.4035
  506MOL0     H66732   7.097   8.413   3.462 -0.3493 -0.6868  0.1872
  506MOL0     H66733   6.975   8.399   3.262 -1.8923  1.5885 -0.4640
  506MOL0     H66734   7.063   8.529   3.190 -1.6094  1.8554 -0.2918
  506MOL0     H66735   6.861   8.591   3.411  0.7455 -1.0787  0.4230
  506MOL0     H66736   6.920   8.691   3.283  1.2600 -1.1232 -1.9924
  506MOL0     H66737   6.677   8.599   3.252 -0.4291  0.5131 -0.8831
  506MOL0     H66738   6.746   8.436   3.250 -1.1114  0.3431 -0.2447
  506MOL0     H66739   6.707   8.511   3.023 -1.2735  0.7021  0.6669
  506MOL0     H66740   6.888   8.508   3.052 -0.2616 -0.8141  3.9138
  506MOL0     H66741   6.676   8.731   3.057 -0.1187 -0.7360  0.2449
  506MOL0     H66742   6.849   8.769   3.081  0.3012 -1.1173  0.8735
  506MOL0     H66743   6.743   8.631   2.837 -1.7302 -1.2125  3.9069
  506MOL0     H66744   6.895   8.721   2.848  0.5760  2.8503 -1.7320
  506MOL0     H66745   6.832   9.010   2.913  3.2585  0.7270 -3.4411
  506MOL0     H66746   6.637   9.224   2.696 -0.0368 -1.0030  0.7295
  506MOL0     H66747   6.731   9.238   2.849  0.9338  0.1951 -0.1618
  506MOL0     H66748   6.426   9.218   2.798 -2.3014 -2.3522  2.2489
  506MOL0     H66749   6.530   9.347   2.865  3.6718 -0.5983 -3.7143
  506MOL0     H66750   6.473   9.072   3.003  1.0895 -0.7440 -1.0950
  506MOL0     H66751   6.579   9.196   3.064 -1.8655  2.2399  1.2058
  506MOL0     H66752   6.359   9.184   3.179  1.9261  1.8764  2.7329
  506MOL0     H66753   6.285   9.265   3.038  1.8408  1.1187 -2.7377
  506MOL0     H66754   6.212   9.317   3.256  2.3492  0.5689 -3.2930
  506MOL0     H66755   6.082   9.465   3.402 -1.6454  2.4322 -3.0858
  506MOL0     H66756   6.051   9.824   3.766  1.8101  0.8976 -3.1920
  506MOL0     H66757   5.855   9.940   3.858 -0.3468 -2.3446  1.5165
  506MOL0     H66758   5.571   9.854   3.945  1.1057  1.2860 -0.7035
  506MOL0     H66759   5.527   9.763   3.811  1.3258 -0.4361  2.3328
  506MOL0     H66760   5.369   9.973   3.746 -1.1267  3.5365  1.8797
  506MOL0     H66761   5.386  10.011   3.915 -1.5273 -1.7664  2.6772
  506MOL0     H66762   5.343   9.781   3.973  0.6410 -2.1577 -1.3179
  506MOL0     H66763   5.291   9.752   3.803 -2.5668  2.5566 -2.0649
  506MOL0     H66764   5.143   9.937   3.992 -1.6970  1.7812 -1.1652
  506MOL0     H66765   5.129   9.939   3.825  2.1594  0.0259 -0.9012
  506MOL0     H66766   5.082   9.701   4.013  0.3756 -0.1156 -1.1721
  506MOL0     H66767   5.071   9.680   3.844  0.5603 -0.5755 -0.0513
  506MOL0     H66768   4.893   9.875   3.833 -1.6138 -1.6282 -1.5950
  506MOL0     H66769   4.893   9.874   4.015  2.5556 -1.6788  1.2857
  506MOL0     H66770   4.699   9.762   3.933  0.3089 -0.3508  0.6979
  506MOL0     H66771   4.803   9.633   3.847  1.0307 -0.5540 -0.5309
  506MOL0     H66772   4.683   9.580   4.064 -0.6146  1.0024  0.4368
  506MOL0     H66773   4.784   9.691   4.152 -2.2847  1.2450 -1.3847
  506MOL0     H66774   5.610   9.831   3.540 -0.3492  3.8720 -0.3971
  506MOL0     H66775   5.802   9.697   3.443 -1.9629 -2.0579  3.3867
  506MOL0     H66776   6.421   9.747   3.395  2.2517 -1.2885 -2.4101
  506MOL0     H66777   6.531   9.582   3.237 -0.5223  0.9932  0.4715
  506MOL0     H66778   7.498   8.424   3.245 -1.8321  0.2364  2.7646
  506MOL0     H66779   7.725   8.507   3.183  1.0354  1.7610  1.9183
  506MOL0     H66780   7.930   8.951   2.759 -0.4037 -0.3767 -0.1218
  506MOL0     H66781   8.152   9.012   2.739  0.7796  2.3697  0.9408
  506MOL0     H66782   8.423   9.018   2.712 -2.8513 -3.4363 -1.4309
  506MOL0     H66783   8.428   8.847   2.748 -0.4204 -1.3791  1.9880
  506MOL0     H66784   8.622   8.974   2.923  0.1573  0.4554 -0.5459
  506MOL0     H66785   8.628   8.830   2.820 -1.0952 -1.0577 -1.4882
  506MOL0     H66786   8.768   9.038   2.726  0.7604 -2.2975  0.3188
  506MOL0     H66787   8.613   9.107   2.680  0.6490 -0.6629 -2.0908
  506MOL0     H66788   8.760   8.896   2.532 -1.1492  0.1581 -2.9179
  506MOL0     H66789   8.620   8.828   2.598 -0.4628  0.2864 -0.6270
  506MOL0     H66790   8.469   9.119   2.312  0.6223 -0.3269 -1.5835
  506MOL0     H66791   8.281   8.825   3.095  1.5915  2.6099  0.3042
  506MOL0     H66792   8.040   8.750   3.142 -1.0536 -0.1003 -0.4494
  507MOL0     O66793   5.234   5.164   7.895 -0.6309 -0.3697 -0.1791
  507MOL0     C66794   5.241   5.087   7.987 -1.3081  0.0712  0.1149
  507MOL0     O66795   5.140   5.009   8.036  0.3777  0.2017  0.3941
  507MOL0     C66796   5.013   5.014   7.984 -0.7382  0.1952  0.2438
  507MOL0     C66797   4.903   5.063   8.066 -0.0142  1.2624 -0.5606
  507MOL0     C66798   4.778   5.037   8.013 -0.4681  0.6682  0.1290
  507MOL0     C66799   4.766   4.983   7.884 -0.3336 -0.4975 -0.1238
  507MOL0     O66800   4.638   4.970   7.844 -0.1987  0.4858 -0.4664
  507MOL0     C66801   4.597   5.031   7.719 -0.2417 -0.6833 -0.0859
  507MOL0     C66802   4.488   4.949   7.673  0.6349  0.1464 -0.2742
  507MOL0     C66803   4.434   4.992   7.538 -1.1818  0.5448  0.3916
  507MOL0     C66804   4.343   5.108   7.554 -0.1877  0.0404  0.1425
  507MOL0     C66805   4.322   5.188   7.421 -0.9689 -0.1489  0.1407
  507MOL0     C66806   4.299   5.093   7.290  1.1060  0.3829 -0.4443
  507MOL0     C66807   4.179   5.009   7.321 -0.6745  0.2551 -0.1014
  507MOL0     C66808   4.089   4.962   7.207  0.4820  0.0257 -0.2688
  507MOL0     N66809   3.966   4.903   7.249 -0.8971  0.0005 -0.0923
  507MOL0     C66810   3.894   4.939   7.351  0.5825  0.6184 -0.7762
  507MOL0     C66811   3.793   4.848   7.353  0.3774 -0.1676 -0.2404
  507MOL0     C66812   3.689   4.857   7.461 -0.0508 -0.4723  0.2968
  507MOL0     C66813   3.551   4.918   7.414  0.0460 -0.0476  0.2731
  507MOL0     C66814   3.449   4.818   7.368  1.3681 -0.5154 -0.4642
  507MOL0     C66815   3.398   4.731   7.484 -0.6367  0.2575 -0.9517
  507MOL0     O66816   3.312   4.622   7.449 -0.3833 -0.3487  0.3279
  507MOL0     C66817   3.190   4.657   7.393 -0.5934  0.3489  0.0561
  507MOL0     C66818   3.128   4.781   7.426  0.4042  0.8200  0.2981
  507MOL0     C66819   3.001   4.817   7.362 -0.1617 -0.2825 -0.3962
  507MOL0     C66820   2.949   4.732   7.265  1.0585  0.7189  0.2824
  507MOL0     C66821   2.822   4.756   7.195  0.1257  0.6598 -1.0279
  507MOL0     O66822   2.802   4.683   7.087 -0.4468  1.2373  0.3298
  507MOL0     C66823   2.698   4.709   6.995 -0.9377 -0.6062 -0.8754
  507MOL0     C66824   2.571   4.756   7.038 -0.5130  0.2896 -0.3292
  507MOL0     C66825   2.475   4.776   6.935 -0.5677 -0.3216  0.1190
  507MOL0     C66826   2.485   4.748   6.803  0.2918 -1.1617  1.1288
  507MOL0     O66827   2.378   4.788   6.718  0.3653  0.0288  0.0117
  507MOL0     C66828   2.395   4.767   6.577 -0.3328 -0.1181  0.2987
  507MOL0     C66829   2.284   4.837   6.499  0.6208  0.0587 -0.3702
  507MOL0     C66830   2.140   4.782   6.549 -0.4456 -0.6763 -0.3534
  507MOL0     C66831   2.138   4.626   6.591  0.2210  0.3095 -0.4429
  507MOL0     C66832   1.997   4.559   6.600 -1.0142 -0.8906 -0.3997
  507MOL0     C66833   1.917   4.611   6.718 -0.7398  0.3744  0.9328
  507MOL0     C66834   1.781   4.529   6.718 -0.1576 -0.4469  0.0062
  507MOL0     C66835   1.669   4.589   6.811 -0.7518 -1.1079 -0.5609
  507MOL0    Cl66836   1.630   4.763   6.779 -0.4808  0.8301 -0.4578
  507MOL0     C66837   2.616   4.696   6.764  0.3712 -1.4716  0.7372
  507MOL0     C66838   2.711   4.684   6.857 -0.2756 -0.3185 -0.3056
  507MOL0     O66839   2.759   4.846   7.236 -0.3369 -0.6847  0.6909
  507MOL0     C66840   3.021   4.614   7.241  0.9186 -0.2419 -0.2080
  507MOL0     C66841   3.132   4.573   7.307 -0.5447 -0.5431  0.3662
  507MOL0     N66842   3.793   4.769   7.241 -0.0831 -0.0155  0.5073
  507MOL0     N66843   3.897   4.807   7.176 -0.3743 -0.0677  0.5437
  507MOL0     C66844   4.865   4.952   7.795  0.4998 -0.9166  0.0265
  507MOL0     C66845   4.989   4.962   7.850 -0.5461  0.1556  0.6995
  507MOL0     C66846   5.383   5.051   8.023 -0.2569 -0.2655 -0.2221
  507MOL0     C66847   5.420   4.934   8.083  0.2396 -0.4816  0.4628
  507MOL0     C66848   5.550   4.902   8.118  0.1742  0.2313 -0.4462
  507MOL0     C66849   5.650   4.991   8.100 -0.7780 -0.1956  0.3872
  507MOL0     O66850   5.778   4.957   8.122 -0.5620  0.0512  0.1560
  507MOL0     C66851   5.837   4.841   8.059  0.2024 -0.0949  0.7079
  507MOL0     C66852   5.934   4.767   8.144 -0.3088  0.4367 -0.0805
  507MOL0     C66853   6.027   4.866   8.218 -0.0708 -0.9422 -1.0172
  507MOL0     C66854   6.128   4.945   8.129 -0.9963 -0.4502 -0.2892
  507MOL0     C66855   6.239   4.859   8.088 -0.3922  0.0607 -0.1588
  507MOL0     C66856   6.327   4.791   8.038 -0.0317  0.3898  0.1803
  507MOL0     C66857   5.617   5.109   8.038 -0.7265 -0.5173 -0.2335
  507MOL0     C66858   5.483   5.143   8.006 -0.3999  0.3396  0.0572
  507MOL0     H66859   4.919   5.093   8.168 -0.8786 -1.0682  0.3381
  507MOL0     H66860   4.695   5.061   8.078 -1.0985 -0.9158 -0.0551
  507MOL0     H66861   4.677   5.038   7.645  1.0234  0.2907  1.3029
  507MOL0     H66862   4.560   5.131   7.744  0.2841 -0.5229  0.0667
  507MOL0     H66863   4.405   4.948   7.744  1.1497  0.9225  0.3469
  507MOL0     H66864   4.525   4.847   7.659  1.1999  0.3036  0.0516
  507MOL0     H66865   4.382   4.908   7.489  1.2304 -1.0918  0.4660
  507MOL0     H66866   4.519   5.019   7.476 -1.8817  5.1498  1.0791
  507MOL0     H66867   4.244   5.085   7.594 -0.4228  2.2694  0.9762
  507MOL0     H66868   4.391   5.170   7.630  1.5633 -1.7404  0.5479
  507MOL0     H66869   4.406   5.258   7.410  1.3716 -2.5149  1.6789
  507MOL0     H66870   4.238   5.256   7.438 -1.1009  0.5149 -2.6822
  507MOL0     H66871   4.387   5.028   7.280  0.8850  0.0093 -0.0231
  507MOL0     H66872   4.295   5.159   7.203  0.7543  1.2657  0.2168
  507MOL0     H66873   4.215   4.924   7.381 -0.0520 -0.1404 -1.0053
  507MOL0     H66874   4.113   5.071   7.382  2.1456  1.1145  2.2628
  507MOL0     H66875   4.133   4.885   7.142 -0.6558  0.3522 -1.4795
  507MOL0     H66876   4.054   5.041   7.140  0.7970  0.2382 -0.1817
  507MOL0     H66877   3.908   5.016   7.427  0.6141  0.2585 -0.4128
  507MOL0     H66878   3.727   4.922   7.540 -0.0232 -0.4138  0.2353
  507MOL0     H66879   3.687   4.759   7.510  1.3956 -1.9801 -2.3566
  507MOL0     H66880   3.577   4.982   7.329  3.4881 -4.1748 -2.1763
  507MOL0     H66881   3.507   4.978   7.494  0.3950 -0.1771  0.5663
  507MOL0     H66882   3.363   4.876   7.332  1.4433  0.0479  0.2406
  507MOL0     H66883   3.482   4.748   7.291  0.4285 -0.6356 -0.7711
  507MOL0     H66884   3.358   4.791   7.567 -1.8290 -2.2781  0.4284
  507MOL0     H66885   3.488   4.681   7.520 -0.8621 -0.0364 -0.7903
  507MOL0     H66886   3.175   4.854   7.491  1.4851  3.8447 -3.5290
  507MOL0     H66887   2.956   4.915   7.372 -1.1238 -0.9808  4.8242
  507MOL0     H66888   2.537   4.778   7.138 -0.6167 -0.7176 -0.1268
  507MOL0     H66889   2.380   4.822   6.960 -1.2729 -0.5554 -1.9560
  507MOL0     H66890   2.402   4.665   6.537 -3.6168  1.1244 -4.2713
  507MOL0     H66891   2.490   4.817   6.557  0.2092  0.2463  3.3851
  507MOL0     H66892   2.280   4.821   6.391 -1.6419 -1.2788 -0.1405
  507MOL0     H66893   2.297   4.943   6.523  2.1333  0.9154 -4.2845
  507MOL0     H66894   2.065   4.792   6.471 -3.8435 -0.3600  2.6715
  507MOL0     H66895   2.099   4.848   6.626 -1.7942 -0.4393 -1.2566
  507MOL0     H66896   2.189   4.567   6.515  0.2934 -1.0431  0.6108
  507MOL0     H66897   2.192   4.617   6.686 -0.3823 -0.1165 -0.1359
  507MOL0     H66898   1.998   4.450   6.594 -1.3145 -0.8182 -2.3845
  507MOL0     H66899   1.942   4.593   6.513 -1.0857  3.6320  1.1454
  507MOL0     H66900   1.907   4.719   6.711  1.7291  0.5676 -1.5160
  507MOL0     H66901   1.970   4.579   6.809 -3.2217 -2.6704  1.4798
  507MOL0     H66902   1.723   4.528   6.625  0.9629  1.0724 -0.7655
  507MOL0     H66903   1.794   4.426   6.750 -3.7348 -0.4497  2.0249
  507MOL0     H66904   1.705   4.582   6.914 -1.8730  1.5659  0.0890
  507MOL0     H66905   1.580   4.527   6.803 -0.4393 -1.6344 -0.0016
  507MOL0     H66906   2.638   4.680   6.659 -0.3029 -0.4878  0.4306
  507MOL0     H66907   2.803   4.647   6.812 -0.4122 -2.4810  1.0568
  507MOL0     H66908   2.989   4.541   7.167 -0.8497  0.6638 -0.3859
  507MOL0     H66909   3.169   4.473   7.290  3.3672  0.6787  0.5506
  507MOL0     H66910   4.836   4.935   7.692  0.7475  1.1544 -0.4433
  507MOL0     H66911   5.069   4.908   7.799 -1.6839 -2.2862  1.3580
  507MOL0     H66912   5.335   4.875   8.117 -2.2251  0.4055 -3.4912
  507MOL0     H66913   5.579   4.815   8.175  2.7629  2.4228  1.8864
  507MOL0     H66914   5.885   4.872   7.966 -0.6890 -0.0669  0.2393
  507MOL0     H66915   5.762   4.768   8.027  1.2916 -0.6333 -0.7197
  507MOL0     H66916   5.882   4.708   8.220  3.4239 -2.2530  0.6261
  507MOL0     H66917   5.994   4.694   8.090  4.8148  1.8851  2.9549
  507MOL0     H66918   6.081   4.809   8.295  0.3130 -1.2258 -1.4937
  507MOL0     H66919   5.968   4.944   8.266  0.8455 -1.0912  0.4241
  507MOL0     H66920   6.088   5.005   8.047 -1.1347 -1.3771 -0.9168
  507MOL0     H66921   6.172   5.021   8.193 -4.7441  0.9376  0.9103
  507MOL0     H66922   6.408   4.728   8.008 -1.6187 -2.7063  1.9250
  507MOL0     H66923   5.699   5.177   8.018 -0.1622 -1.4600 -1.2225
  507MOL0     H66924   5.463   5.231   7.947 -1.4069  1.4527  1.9518
  508MOL0     O66925   2.905  10.112   9.594 -0.8673 -0.5840  0.0084
  508MOL0     C66926   2.992  10.191   9.549 -0.9627 -0.4779  0.3108
  508MOL0     O66927   2.983  10.259   9.435  0.3518  0.4629  0.0044
  508MOL0     C66928   2.886  10.220   9.351  0.3172 -0.2712  0.2002
  508MOL0     C66929   2.897  10.091   9.307 -0.0106 -0.8932 -0.3686
  508MOL0     C66930   2.807  10.037   9.213  0.6688 -0.0492 -0.4927
  508MOL0     C66931   2.695  10.111   9.177 -0.5554  0.1408  0.3316
  508MOL0     O66932   2.607  10.057   9.079  0.4628  0.4628  0.1155
  508MOL0     C66933   2.670  10.033   8.949  0.3809 -0.1368 -0.2790
  508MOL0     C66934   2.551  10.014   8.854  0.2827 -0.1149  0.3304
  508MOL0     C66935   2.463   9.895   8.874 -0.3183  0.2476 -0.9569
  508MOL0     C66936   2.328   9.901   8.789 -0.5901 -0.1167  0.2064
  508MOL0     C66937   2.253   9.768   8.790  0.3496  0.5843 -0.2443
  508MOL0     C66938   2.329   9.653   8.741 -0.1233  1.0527 -0.1321
  508MOL0     C66939   2.266   9.515   8.707  0.9339  0.2758  0.9002
  508MOL0     C66940   2.264   9.433   8.832  0.3509  0.7162 -0.6172
  508MOL0     N66941   2.179   9.315   8.804  0.7456  0.0478  0.0144
  508MOL0     C66942   2.232   9.206   8.729  0.4182 -0.2401 -0.7913
  508MOL0     C66943   2.129   9.121   8.702 -0.0071  0.3641  0.5314
  508MOL0     C66944   2.147   9.009   8.601  0.0937  0.3498  0.3006
  508MOL0     C66945   2.177   8.866   8.663  0.3013 -0.0231 -0.7604
  508MOL0     C66946   2.190   8.758   8.554 -0.5507  0.0782  0.1150
  508MOL0     C66947   2.178   8.617   8.602 -0.1291  0.0544  1.1793
  508MOL0     O66948   2.298   8.582   8.667  0.1881 -0.6581  0.1059
  508MOL0     C66949   2.290   8.486   8.761 -0.2142 -0.1287  0.0620
  508MOL0     C66950   2.200   8.380   8.762  0.4178 -0.5073 -0.1813
  508MOL0     C66951   2.216   8.279   8.853  0.3300  0.4093  0.1865
  508MOL0     C66952   2.319   8.273   8.949 -0.3209 -0.0605  0.2859
  508MOL0     C66953   2.329   8.176   9.066  0.6656  0.6291 -0.2162
  508MOL0     O66954   2.448   8.175   9.142  1.0355  0.1588 -0.1980
  508MOL0     C66955   2.467   8.080   9.235  0.0524  0.4541  0.5300
  508MOL0     C66956   2.488   7.948   9.204 -0.7703 -0.3862 -0.1322
  508MOL0     C66957   2.511   7.865   9.310 -0.4131  0.3421 -0.2098
  508MOL0     C66958   2.517   7.899   9.445 -0.0736 -1.1269  1.1520
  508MOL0     O66959   2.551   7.800   9.529  0.1215  0.5650  0.5319
  508MOL0     C66960   2.688   7.787   9.550  0.2411  0.6223  1.3717
  508MOL0     C66961   2.733   7.868   9.675 -0.3767  0.8421 -0.4324
  508MOL0     C66962   2.816   7.792   9.779  1.0661 -0.1986  0.3171
  508MOL0     C66963   2.723   7.696   9.856  0.2699 -0.1251  0.0134
  508MOL0     C66964   2.801   7.585   9.927 -0.9402  0.6822  0.8753
  508MOL0     C66965   2.914   7.617  10.026 -0.6303  1.2702 -0.5846
  508MOL0     C66966   2.853   7.700  10.150  0.3253  0.3473  0.0246
  508MOL0     C66967   2.957   7.710  10.257 -0.8132 -0.8162 -0.1022
  508MOL0    Cl66968   3.087   7.816  10.195 -0.0114 -0.4174  0.1634
  508MOL0     C66969   2.505   8.039   9.468 -0.3549 -0.2706 -0.9854
  508MOL0     C66970   2.474   8.127   9.368  0.0978  0.0012  0.1814
  508MOL0     O66971   2.232   8.096   9.080 -0.0691 -0.0044 -0.2204
  508MOL0     C66972   2.414   8.375   8.941 -0.1224  0.1993 -0.3200
  508MOL0     C66973   2.405   8.474   8.846  0.3493  0.4990 -0.3240
  508MOL0     N66974   2.017   9.177   8.766 -0.6011 -1.4036  0.6130
  508MOL0     N66975   2.046   9.287   8.834  0.1245 -0.2650 -0.3375
  508MOL0     C66976   2.667  10.237   9.229  0.2395 -0.4822 -0.7086
  508MOL0     C66977   2.769  10.300   9.308 -0.9423  0.0327 -0.0327
  508MOL0     C66978   3.112  10.205   9.638  0.5210  0.1031 -0.4916
  508MOL0     C66979   3.130  10.137   9.761 -0.7847 -0.6744  0.1194
  508MOL0     C66980   3.242  10.150   9.840  0.1107 -0.0674  0.1613
  508MOL0     C66981   3.333  10.257   9.821  0.6184 -0.1247 -0.1442
  508MOL0     O66982   3.441  10.273   9.903 -0.0945  0.1657  0.6753
  508MOL0     C66983   3.537  10.373   9.867 -0.3268  0.4843 -0.0795
  508MOL0     C66984   3.643  10.355   9.977  0.0170 -0.3047  0.4068
  508MOL0     C66985   3.601  10.393  10.121 -0.4831  0.4298 -0.0709
  508MOL0     C66986   3.509  10.291  10.199 -0.2693 -0.1063 -1.2818
  508MOL0     C66987   3.538  10.321  10.339  0.3209  0.3513 -0.3394
  508MOL0     C66988   3.571  10.335  10.455  0.3317 -0.1676 -0.0164
  508MOL0     C66989   3.308  10.327   9.704 -0.1930 -0.2822  0.0258
  508MOL0     C66990   3.199  10.306   9.610 -0.2836  0.2444 -0.0594
  508MOL0     H66991   2.993  10.042   9.323  0.7111 -1.1815 -4.4055
  508MOL0     H66992   2.827   9.942   9.166  3.1460 -0.9819  2.1558
  508MOL0     H66993   2.734   9.944   8.953  0.6561  0.0501 -0.5101
  508MOL0     H66994   2.731  10.117   8.915  1.5558 -2.0290 -3.2336
  508MOL0     H66995   2.576  10.023   8.748 -1.9322  0.8465 -0.1813
  508MOL0     H66996   2.491  10.104   8.872  4.2281  2.6534  0.8318
  508MOL0     H66997   2.439   9.868   8.977  2.6281 -0.3891 -0.3443
  508MOL0     H66998   2.532   9.813   8.848  0.8146  0.4183  1.3227
  508MOL0     H66999   2.253   9.965   8.835 -0.4321  0.8632 -0.8601
  508MOL0     H67000   2.344   9.935   8.686  2.1988  0.2441  0.6780
  508MOL0     H67001   2.166   9.768   8.723 -1.3273 -2.6431  1.6843
  508MOL0     H67002   2.212   9.750   8.889 -1.9810 -1.1876 -1.4205
  508MOL0     H67003   2.408   9.630   8.813  0.2565 -0.0326 -0.8743
  508MOL0     H67004   2.378   9.688   8.650 -0.6983  0.7924 -0.5494
  508MOL0     H67005   2.161   9.531   8.682  1.0133 -0.7485 -0.2185
  508MOL0     H67006   2.318   9.453   8.633 -0.9582 -0.3411  0.0294
  508MOL0     H67007   2.218   9.483   8.918 -1.4746 -3.9171  1.4358
  508MOL0     H67008   2.362   9.395   8.863 -0.1583  0.6043  0.9556
  508MOL0     H67009   2.338   9.188   8.714  1.6908 -0.5076  5.7207
  508MOL0     H67010   2.232   9.027   8.534  0.8256 -2.1614  0.4491
  508MOL0     H67011   2.049   9.016   8.553 -0.3602 -2.7505  0.5868
  508MOL0     H67012   2.092   8.837   8.726  0.0342  2.6722  0.2154
  508MOL0     H67013   2.270   8.874   8.721 -0.3168  0.4731  0.1884
  508MOL0     H67014   2.112   8.780   8.481 -1.3972  1.3198  1.3384
  508MOL0     H67015   2.286   8.763   8.503  0.1760  1.1353  1.5179
  508MOL0     H67016   2.165   8.545   8.521  0.2828 -0.8063  1.8697
  508MOL0     H67017   2.083   8.601   8.654  0.2023 -2.5083  1.0805
  508MOL0     H67018   2.120   8.380   8.688 -0.1306 -3.9676  0.2394
  508MOL0     H67019   2.152   8.191   8.849 -0.8315  1.2176  0.5010
  508MOL0     H67020   2.491   7.912   9.102  1.7101 -1.2959  0.1703
  508MOL0     H67021   2.523   7.757   9.307  0.4372  0.4096  0.3156
  508MOL0     H67022   2.742   7.829   9.464  0.4913  0.2701  1.3536
  508MOL0     H67023   2.706   7.679   9.552 -4.6841 -0.5313 -0.6774
  508MOL0     H67024   2.646   7.901   9.732 -0.9230 -0.4169 -0.5308
  508MOL0     H67025   2.788   7.957   9.642 -2.9528  1.8527 -2.2872
  508MOL0     H67026   2.864   7.863   9.847  0.2394  1.2810 -0.5814
  508MOL0     H67027   2.883   7.736   9.714 -2.9927 -3.3430 -1.6437
  508MOL0     H67028   2.668   7.753   9.931 -0.4593 -0.6030 -0.1369
  508MOL0     H67029   2.645   7.648   9.796 -1.4249  0.9131  1.2909
  508MOL0     H67030   2.853   7.536   9.843 -0.8894  3.0877 -0.5914
  508MOL0     H67031   2.733   7.519   9.982  1.7115 -2.0449  1.1345
  508MOL0     H67032   2.989   7.670   9.966  0.4452 -0.4821 -0.8700
  508MOL0     H67033   2.953   7.520  10.057 -1.5965  0.5477 -1.5564
  508MOL0     H67034   2.825   7.802  10.123  0.5028  0.2735 -0.4477
  508MOL0     H67035   2.768   7.653  10.199  1.4327 -0.1789  1.5171
  508MOL0     H67036   2.986   7.613  10.299  0.4026 -0.6581 -0.5486
  508MOL0     H67037   2.924   7.764  10.346  3.6953  0.8297  0.8377
  508MOL0     H67038   2.509   8.081   9.568 -0.8016  0.3217 -1.2104
  508MOL0     H67039   2.490   8.231   9.395 -2.8015 -0.1655  3.2278
  508MOL0     H67040   2.491   8.378   9.017 -0.9694 -1.8994  0.6934
  508MOL0     H67041   2.477   8.555   8.854 -2.8453  3.3843  1.6658
  508MOL0     H67042   2.581  10.299   9.205  1.5361  1.5806 -0.3414
  508MOL0     H67043   2.762  10.407   9.325  0.7388  1.0814 -4.4800
  508MOL0     H67044   3.056  10.061   9.783  0.1784 -2.6243 -2.7900
  508MOL0     H67045   3.272  10.082   9.919  3.4164  2.5202  1.3933
  508MOL0     H67046   3.482  10.468   9.865  1.3191  1.4560 -0.5640
  508MOL0     H67047   3.580  10.357   9.768  0.9283  0.2071  0.4900
  508MOL0     H67048   3.675  10.251   9.970  0.9208  0.0626 -3.0612
  508MOL0     H67049   3.737  10.402   9.945  1.0362 -3.3697 -1.5091
  508MOL0     H67050   3.558  10.494  10.117 -0.1891  0.5616  0.0027
  508MOL0     H67051   3.697  10.410  10.171 -0.5115  0.3379  0.0132
  508MOL0     H67052   3.404  10.312  10.182 -0.8639  0.4193  2.1911
  508MOL0     H67053   3.519  10.183  10.188  2.1524 -0.5206  2.8000
  508MOL0     H67054   3.605  10.350  10.556 -0.3655  1.5930 -0.0008
  508MOL0     H67055   3.376  10.405   9.670  0.6173 -0.7058  0.6471
  508MOL0     H67056   3.189  10.378   9.529  1.0191  1.1168  0.5193
  509MOL0     O67057   6.766   2.679   6.795  0.7060  0.1447 -0.1395
  509MOL0     C67058   6.780   2.765   6.708  0.6449  0.0624  1.0191
  509MOL0     O67059   6.678   2.852   6.670 -0.0831 -0.4951 -0.0235
  509MOL0     C67060   6.708   2.954   6.587 -0.9068 -0.1115 -0.4577
  509MOL0     C67061   6.778   3.066   6.641 -0.3303 -0.4241  0.6092
  509MOL0     C67062   6.806   3.176   6.549 -1.3857 -1.1534 -0.6783
  509MOL0     C67063   6.747   3.175   6.423  0.1866 -0.0106  0.3172
  509MOL0     O67064   6.741   3.278   6.337  0.2801  0.4931 -0.1519
  509MOL0     C67065   6.834   3.387   6.353 -0.9392  0.2948 -0.4720
  509MOL0     C67066   6.828   3.487   6.238 -0.2666 -0.0271  1.3721
  509MOL0     C67067   6.965   3.492   6.163  0.3952  0.9456  0.0493
  509MOL0     C67068   6.961   3.593   6.050 -0.2763  0.5016  0.2524
  509MOL0     C67069   7.096   3.604   5.972  0.2806 -0.6434 -0.1798
  509MOL0     C67070   7.122   3.471   5.897  0.1867 -0.0957 -0.3110
  509MOL0     C67071   7.232   3.477   5.790  0.0216  0.3762  0.3880
  509MOL0     C67072   7.248   3.346   5.712  0.4075 -0.4534 -0.0983
  509MOL0     N67073   7.125   3.289   5.655 -0.2488 -0.0981 -0.3429
  509MOL0     C67074   7.077   3.161   5.673  0.0775 -0.3153 -0.6846
  509MOL0     C67075   6.955   3.160   5.606  0.5142 -0.8347 -0.0695
  509MOL0     C67076   6.868   3.046   5.623  0.1255  0.9332 -0.2026
  509MOL0     C67077   6.764   3.044   5.503  1.0809  0.3302 -0.4742
  509MOL0     C67078   6.648   3.141   5.509  0.4310 -0.5472 -0.2501
  509MOL0     C67079   6.534   3.123   5.601 -0.2582  0.6365 -0.3478
  509MOL0     O67080   6.465   3.001   5.567  1.5321 -0.4590  0.1556
  509MOL0     C67081   6.358   2.959   5.647 -0.5053  0.5936  1.0403
  509MOL0     C67082   6.254   2.881   5.579  0.0452 -0.6323  0.0286
  509MOL0     C67083   6.158   2.812   5.657  0.3030  1.0161  0.3031
  509MOL0     C67084   6.162   2.810   5.795  0.1118  0.8795  0.4784
  509MOL0     C67085   6.073   2.721   5.865  0.5301  0.3580  0.0846
  509MOL0     O67086   6.085   2.708   6.002 -0.2974  0.2513 -0.0265
  509MOL0     C67087   6.001   2.623   6.074 -0.4830 -0.2403  0.2831
  509MOL0     C67088   5.916   2.679   6.175  0.1994 -0.3885 -0.2907
  509MOL0     C67089   5.824   2.602   6.245  0.3421  0.0434  0.2755
  509MOL0     C67090   5.816   2.465   6.222  0.5861 -0.1363 -0.5470
  509MOL0     O67091   5.739   2.376   6.290 -1.3083  0.3568 -0.0390
  509MOL0     C67092   5.667   2.431   6.405 -0.3471  0.0641  0.2557
  509MOL0     C67093   5.605   2.336   6.502 -0.0599  0.6109 -0.5313
  509MOL0     C67094   5.499   2.413   6.576  0.2576 -1.1826 -1.4373
  509MOL0     C67095   5.462   2.341   6.714 -0.4085  0.5322  0.1261
  509MOL0     C67096   5.377   2.442   6.787  0.3969  0.3973  0.7752
  509MOL0     C67097   5.316   2.394   6.924 -0.1309 -0.2203 -0.7795
  509MOL0     C67098   5.237   2.507   6.994 -0.8914 -0.1013 -0.4114
  509MOL0     C67099   5.148   2.469   7.122 -0.1052 -0.8125  0.0561
  509MOL0    Cl67100   5.250   2.408   7.247  0.2989  0.2116  0.3662
  509MOL0     C67101   5.896   2.412   6.121 -0.3648  0.3710 -0.1764
  509MOL0     C67102   5.992   2.487   6.051 -0.2363 -1.9975  0.0755
  509MOL0     O67103   5.982   2.667   5.792  0.0485 -0.2373 -0.5972
  509MOL0     C67104   6.258   2.900   5.856  0.8262 -0.3731 -0.4639
  509MOL0     C67105   6.354   2.969   5.785  0.4666  0.3795  0.2009
  509MOL0     N67106   6.939   3.287   5.547  0.4481  0.3062 -0.3349
  509MOL0     N67107   7.034   3.359   5.581  0.1388 -0.2013 -0.1532
  509MOL0     C67108   6.685   3.059   6.376 -0.1055 -0.8156  0.2036
  509MOL0     C67109   6.670   2.945   6.458 -0.4069 -0.2104 -0.4553
  509MOL0     C67110   6.913   2.762   6.655 -1.2896 -0.8827 -0.5817
  509MOL0     C67111   7.013   2.847   6.716 -0.1640  0.0831 -0.4896
  509MOL0     C67112   7.142   2.830   6.678 -0.1336  0.8077 -0.8745
  509MOL0     C67113   7.175   2.744   6.569 -0.2626 -0.0724 -1.0378
  509MOL0     O67114   7.305   2.754   6.534  0.3687  0.2858 -0.1622
  509MOL0     C67115   7.358   2.646   6.451 -0.1569 -0.8817  0.0546
  509MOL0     C67116   7.514   2.654   6.458  0.1270  0.4965 -0.2018
  509MOL0     C67117   7.569   2.620   6.602  0.3646  0.3982  0.4332
  509MOL0     C67118   7.692   2.529   6.594  0.4318  0.0299  0.8022
  509MOL0     C67119   7.803   2.597   6.522  0.5538  0.0719 -0.9345
  509MOL0     C67120   7.888   2.662   6.479  0.2464 -0.7751 -0.3037
  509MOL0     C67121   7.076   2.664   6.502 -0.7343 -0.5100 -0.9585
  509MOL0     C67122   6.948   2.687   6.549  0.3738  0.1023 -0.8005
  509MOL0     H67123   6.810   3.069   6.744 -4.9336 -0.2260  2.2645
  509MOL0     H67124   6.859   3.262   6.589 -0.8631 -3.1675  3.5037
  509MOL0     H67125   6.928   3.332   6.365 -1.8985 -1.5781 -1.2813
  509MOL0     H67126   6.824   3.440   6.448  0.7026 -0.5852  0.2274
  509MOL0     H67127   6.812   3.591   6.268 -0.5660 -0.3100  2.1905
  509MOL0     H67128   6.760   3.466   6.155 -0.1433  3.6400  0.1597
  509MOL0     H67129   6.989   3.393   6.123  3.3408  2.4491 -2.3440
  509MOL0     H67130   7.056   3.492   6.225  0.5889 -3.6970  0.1736
  509MOL0     H67131   6.879   3.567   5.984  0.1859 -0.3018 -0.0180
  509MOL0     H67132   6.933   3.692   6.089  0.4357  0.4640  0.8782
  509MOL0     H67133   7.180   3.632   6.037 -1.0358  1.3748  0.7420
  509MOL0     H67134   7.082   3.683   5.898 -1.8422 -0.5262  0.2943
  509MOL0     H67135   7.026   3.445   5.852 -0.2159  2.3200 -1.0003
  509MOL0     H67136   7.144   3.401   5.977 -2.7549  0.1140  0.8066
  509MOL0     H67137   7.223   3.556   5.715 -1.0595  0.8174  0.9669
  509MOL0     H67138   7.329   3.497   5.836  1.5991 -1.8552 -1.6659
  509MOL0     H67139   7.290   3.277   5.785  3.2269 -0.3167 -1.4471
  509MOL0     H67140   7.325   3.354   5.634 -0.0256  1.7122 -0.3587
  509MOL0     H67141   7.121   3.085   5.737  0.0872  0.4512  0.2413
  509MOL0     H67142   6.819   3.059   5.720 -0.2385 -4.4131  0.6499
  509MOL0     H67143   6.923   2.952   5.620 -1.0818  0.2214 -0.7341
  509MOL0     H67144   6.713   2.948   5.491  0.7697  0.4268  0.0449
  509MOL0     H67145   6.823   3.069   5.414  0.8569 -0.7185 -0.9314
  509MOL0     H67146   6.692   3.240   5.523  1.7905 -0.7018 -2.8512
  509MOL0     H67147   6.603   3.140   5.409  3.2556 -3.1058 -1.6617
  509MOL0     H67148   6.474   3.214   5.597  1.2070  1.6365 -0.3968
  509MOL0     H67149   6.569   3.124   5.705  2.1724  1.9822 -1.0911
  509MOL0     H67150   6.234   2.901   5.474 -1.2797  1.1700  0.5690
  509MOL0     H67151   6.076   2.766   5.603  0.5446  1.6457 -0.6201
  509MOL0     H67152   5.894   2.780   6.208 -3.2096 -2.3902  4.9252
  509MOL0     H67153   5.767   2.653   6.323 -0.3257  0.5337 -0.5179
  509MOL0     H67154   5.595   2.498   6.357  0.2060 -0.6357 -1.6692
  509MOL0     H67155   5.737   2.490   6.465 -0.5130 -0.7296  1.2468
  509MOL0     H67156   5.677   2.286   6.567  0.7337  0.0245 -1.8114
  509MOL0     H67157   5.548   2.258   6.450 -1.3249  1.0907  0.0855
  509MOL0     H67158   5.415   2.415   6.505  2.5813  2.8942 -4.5371
  509MOL0     H67159   5.531   2.515   6.602  0.2885 -1.5553  0.0650
  509MOL0     H67160   5.407   2.246   6.708 -0.0722 -0.0431  3.7562
  509MOL0     H67161   5.551   2.304   6.766 -0.2533 -0.8455 -1.0417
  509MOL0     H67162   5.294   2.465   6.720  0.2280 -0.1848  0.7813
  509MOL0     H67163   5.441   2.528   6.809  1.6709 -0.3829  0.2119
  509MOL0     H67164   5.405   2.364   6.981  0.5780  0.8841 -1.2755
  509MOL0     H67165   5.244   2.312   6.916 -2.4512  1.4679  1.0352
  509MOL0     H67166   5.311   2.583   7.020  1.3899 -1.8747 -1.3489
  509MOL0     H67167   5.189   2.559   6.911  4.1668  2.8386 -1.9269
  509MOL0     H67168   5.077   2.388   7.099 -0.7340 -1.2945  3.2181
  509MOL0     H67169   5.078   2.543   7.161 -1.5494 -0.7191 -2.4698
  509MOL0     H67170   5.897   2.306   6.096 -0.3843  0.4270 -0.4099
  509MOL0     H67171   6.058   2.434   5.983 -0.9223 -0.0391 -2.2122
  509MOL0     H67172   6.264   2.906   5.964  2.8223 -0.8876 -0.5130
  509MOL0     H67173   6.428   3.029   5.836  2.0104 -0.3851 -1.0536
  509MOL0     H67174   6.650   3.066   6.274  1.1893 -2.0981 -0.3737
  509MOL0     H67175   6.627   2.858   6.411 -2.7582  0.7100 -0.1411
  509MOL0     H67176   7.006   2.920   6.796  2.7560  0.4813 -0.4899
  509MOL0     H67177   7.218   2.892   6.723 -0.8108  0.3321  0.9902
  509MOL0     H67178   7.322   2.666   6.349  1.9470 -1.0323 -0.7850
  509MOL0     H67179   7.330   2.541   6.468 -0.3124 -1.8605 -4.7864
  509MOL0     H67180   7.551   2.578   6.388  0.0249  2.4476 -2.5188
  509MOL0     H67181   7.545   2.754   6.426 -3.0035  2.2082  1.6224
  509MOL0     H67182   7.481   2.597   6.663 -0.3735  1.0422 -0.3650
  509MOL0     H67183   7.607   2.711   6.650  1.2499 -0.8104  2.1407
  509MOL0     H67184   7.723   2.481   6.687  2.3287  2.0537  1.2932
  509MOL0     H67185   7.678   2.443   6.529  4.9267 -1.2038  1.1447
  509MOL0     H67186   7.969   2.715   6.432  0.7959 -1.8613 -0.6324
  509MOL0     H67187   7.086   2.596   6.418  0.0016 -0.9398 -0.5316
  509MOL0     H67188   6.874   2.623   6.502 -1.1327  1.3707 -0.2536
  510MOL0     O67189   8.069   8.418   5.727 -0.5212 -0.0905  0.2284
  510MOL0     C67190   7.982   8.347   5.781 -0.4145  0.8377  0.2204
  510MOL0     O67191   8.004   8.233   5.844 -0.4105 -0.2345  0.6641
  510MOL0     C67192   8.134   8.180   5.844  0.1188  0.1759 -1.0955
  510MOL0     C67193   8.204   8.145   5.729  0.9369  0.0297 -0.2937
  510MOL0     C67194   8.318   8.068   5.724 -0.4170  0.7668 -0.5745
  510MOL0     C67195   8.382   8.040   5.852 -0.4916 -0.0014  1.0182
  510MOL0     O67196   8.486   7.966   5.875 -0.5397  0.1241 -1.0218
  510MOL0     C67197   8.501   7.846   5.805 -0.0565  0.4388 -0.6389
  510MOL0     C67198   8.465   7.741   5.908 -0.5391 -0.1448 -0.4752
  510MOL0     C67199   8.567   7.740   6.034  0.6105 -0.0727  1.2324
  510MOL0     C67200   8.487   7.749   6.167 -0.6181 -0.5201  0.2558
  510MOL0     C67201   8.584   7.778   6.284  0.1795  1.2027 -0.1992
  510MOL0     C67202   8.510   7.776   6.412 -0.0541 -0.4974 -0.0136
  510MOL0     C67203   8.597   7.830   6.531  0.6566 -0.2327  0.1976
  510MOL0     C67204   8.508   7.880   6.649 -0.2811 -0.3465 -0.8027
  510MOL0     N67205   8.572   7.952   6.765 -0.8223  0.4730  0.8261
  510MOL0     C67206   8.686   7.907   6.826 -0.5846 -0.5963  0.7380
  510MOL0     C67207   8.722   8.004   6.919  0.4544  0.1324 -0.5677
  510MOL0     C67208   8.828   7.999   7.015 -1.7403  0.2270  0.1683
  510MOL0     C67209   8.822   7.864   7.092 -0.7367  0.1788  0.4829
  510MOL0     C67210   8.953   7.812   7.148 -0.8068  0.2042  0.2358
  510MOL0     C67211   9.006   7.863   7.277 -0.4114  0.7090  0.3295
  510MOL0     O67212   9.013   8.005   7.268  0.0447 -0.2383  0.6400
  510MOL0     C67213   9.111   8.060   7.350  0.3081  0.1554  1.0805
  510MOL0     C67214   9.089   8.069   7.491 -0.3257 -0.6239 -0.4327
  510MOL0     C67215   9.189   8.125   7.574 -0.0010 -0.4143  0.3974
  510MOL0     C67216   9.302   8.188   7.513  0.3758  0.5335  0.2514
  510MOL0     C67217   9.405   8.259   7.593  0.3935  0.4972  0.2137
  510MOL0     O67218   9.389   8.258   7.729 -0.2893  0.9775  0.3229
  510MOL0     C67219   9.464   8.343   7.801 -0.6148 -0.6080  0.6607
  510MOL0     C67220   9.485   8.479   7.774 -0.0050 -0.1546  0.5764
  510MOL0     C67221   9.557   8.563   7.861 -0.6381  0.4138  0.4105
  510MOL0     C67222   9.624   8.513   7.972 -0.7316  1.0768  0.3425
  510MOL0     O67223   9.681   8.598   8.066  0.1260  0.7484  0.0912
  510MOL0     C67224   9.704   8.540   8.196 -0.1995  0.9000 -1.0473
  510MOL0     C67225   9.742   8.654   8.299 -1.1250  0.3949 -0.5005
  510MOL0     C67226   9.615   8.730   8.348 -1.0520 -1.4631  0.7893
  510MOL0     C67227   9.643   8.827   8.471  1.8322  0.4452  0.2005
  510MOL0     C67228   9.778   8.897   8.475 -0.5542 -0.5283  0.5481
  510MOL0     C67229   9.765   8.998   8.361  0.3826  0.0127 -0.5760
  510MOL0     C67230   9.894   9.085   8.360  0.7118  0.6889  0.4252
  510MOL0     C67231   9.896   9.215   8.278  0.5349  0.2337  0.2412
  510MOL0    Cl67232   9.847   9.340   8.391  0.1467  0.1166  0.5075
  510MOL0     C67233   9.614   8.371   7.993  0.2632  0.1376  0.2084
  510MOL0     C67234   9.541   8.287   7.902  0.3295  0.5676 -0.4347
  510MOL0     O67235   9.488   8.327   7.533 -0.3460 -0.9481 -0.6049
  510MOL0     C67236   9.315   8.172   7.375 -0.6935 -0.6784  0.2562
  510MOL0     C67237   9.230   8.101   7.290  0.1994 -0.1644 -0.1436
  510MOL0     N67238   8.624   8.103   6.908 -1.2430 -0.5380 -0.0864
  510MOL0     N67239   8.544   8.075   6.820  0.0112 -0.1747  0.1152
  510MOL0     C67240   8.316   8.085   5.960  0.4694 -0.5844  0.4901
  510MOL0     C67241   8.194   8.155   5.964  0.2217 -0.3497  0.4550
  510MOL0     C67242   7.856   8.426   5.802 -1.5614  0.0839 -0.3586
  510MOL0     C67243   7.772   8.387   5.904  0.0117  1.4222 -0.4592
  510MOL0     C67244   7.660   8.460   5.935  0.1361 -0.6395  0.1761
  510MOL0     C67245   7.634   8.575   5.854 -0.0907 -0.6389  0.1092
  510MOL0     O67246   7.526   8.655   5.891  0.2181  1.0811 -0.0534
  510MOL0     C67247   7.561   8.792   5.923 -0.2735 -0.1287 -0.2023
  510MOL0     C67248   7.446   8.897   5.893 -0.3444 -0.2344 -0.3974
  510MOL0     C67249   7.431   8.915   5.745 -0.0452  0.4838  0.6686
  510MOL0     C67250   7.316   8.830   5.676 -0.6410  0.0978  0.8812
  510MOL0     C67251   7.201   8.898   5.715  0.9402 -0.6925 -0.7191
  510MOL0     C67252   7.099   8.954   5.769 -0.5412 -0.1861 -0.4260
  510MOL0     C67253   7.707   8.609   5.741 -0.5254 -0.0595 -0.3333
  510MOL0     C67254   7.813   8.531   5.719 -0.5365 -0.3492 -0.0115
  510MOL0     H67255   8.163   8.167   5.631  4.8368  0.0351 -2.0920
  510MOL0     H67256   8.361   8.031   5.632  3.1908  1.6410  0.5884
  510MOL0     H67257   8.604   7.835   5.771  0.5812 -3.3866  1.9010
  510MOL0     H67258   8.429   7.834   5.724 -2.8914  1.6896  1.5076
  510MOL0     H67259   8.457   7.646   5.855  2.1547  0.1663 -1.6168
  510MOL0     H67260   8.362   7.755   5.941 -0.2027 -1.2101  1.1496
  510MOL0     H67261   8.644   7.818   6.027  0.2580  0.1435 -1.0979
  510MOL0     H67262   8.624   7.647   6.035  0.3089 -0.2612  1.1952
  510MOL0     H67263   8.418   7.833   6.162  0.3743  0.2682 -2.4756
  510MOL0     H67264   8.435   7.654   6.166  0.3431 -1.0638  0.1117
  510MOL0     H67265   8.630   7.875   6.263 -2.1446  2.3325 -0.3468
  510MOL0     H67266   8.664   7.704   6.292 -1.7535 -1.0284 -0.3222
  510MOL0     H67267   8.474   7.674   6.430 -1.2067 -0.2781 -1.0059
  510MOL0     H67268   8.430   7.849   6.401 -1.6516 -2.2495 -0.5445
  510MOL0     H67269   8.664   7.750   6.563 -1.1567 -1.0683  2.1559
  510MOL0     H67270   8.652   7.918   6.496 -0.0273  0.1527  0.0678
  510MOL0     H67271   8.449   7.798   6.690  1.6743 -0.3974  2.2351
  510MOL0     H67272   8.444   7.961   6.612 -0.9737 -0.1272  0.8036
  510MOL0     H67273   8.744   7.823   6.788 -0.2878  0.9440 -2.5243
  510MOL0     H67274   8.824   8.090   7.075  1.4177  0.2540  0.4956
  510MOL0     H67275   8.921   8.001   6.958 -1.8089 -2.2829 -0.1282
  510MOL0     H67276   8.786   7.783   7.029 -2.2005  1.1891 -0.0232
  510MOL0     H67277   8.752   7.873   7.175 -0.0691 -4.2446  1.7951
  510MOL0     H67278   8.918   7.710   7.166  1.9825 -0.6783  1.1865
  510MOL0     H67279   9.031   7.817   7.072  1.0087  0.4388  2.0339
  510MOL0     H67280   9.095   7.806   7.305  0.3057 -0.2733 -3.3726
  510MOL0     H67281   8.932   7.831   7.351  0.4083 -2.6862 -0.1827
  510MOL0     H67282   8.995   8.025   7.525 -3.1119  2.0617 -3.8262
  510MOL0     H67283   9.172   8.118   7.681 -0.2027 -0.7409  0.3460
  510MOL0     H67284   9.433   8.521   7.689 -0.6512 -1.3991  0.3452
  510MOL0     H67285   9.585   8.668   7.858  3.3322 -0.4945  0.3991
  510MOL0     H67286   9.794   8.478   8.185 -0.5711  0.6322 -2.7629
  510MOL0     H67287   9.620   8.480   8.231  1.1910 -0.8869 -0.6030
  510MOL0     H67288   9.817   8.721   8.255 -1.5154  1.3758  0.2848
  510MOL0     H67289   9.794   8.609   8.384  1.1042 -0.6606 -2.3268
  510MOL0     H67290   9.528   8.674   8.383 -2.5971  2.3350  3.7005
  510MOL0     H67291   9.567   8.791   8.272 -1.4567 -2.4767  0.2116
  510MOL0     H67292   9.557   8.895   8.471  1.4458 -0.0367  0.8151
  510MOL0     H67293   9.629   8.767   8.561 -0.5674 -0.8424 -0.9122
  510MOL0     H67294   9.856   8.822   8.457 -0.4139  0.1846 -2.4296
  510MOL0     H67295   9.789   8.947   8.571 -0.8048 -0.6059  0.6167
  510MOL0     H67296   9.686   9.070   8.384  0.2126 -0.4665  0.4101
  510MOL0     H67297   9.748   8.941   8.270  3.1284 -2.1650  0.1161
  510MOL0     H67298   9.930   9.107   8.460 -0.8245  0.6487  1.0118
  510MOL0     H67299   9.964   9.020   8.306 -0.6395 -0.1344 -0.4105
  510MOL0     H67300   9.821   9.221   8.200  0.0236  0.7681  0.7629
  510MOL0     H67301   9.995   9.235   8.235 -1.0931  1.6947 -3.1809
  510MOL0     H67302   9.668   8.325   8.075  1.9721  4.6305  1.8549
  510MOL0     H67303   9.537   8.180   7.921  1.4773  0.3875 -1.0957
  510MOL0     H67304   9.402   8.225   7.338  0.5617 -2.7256  0.1505
  510MOL0     H67305   9.238   8.094   7.182 -1.1865 -4.6463 -0.1684
  510MOL0     H67306   8.356   8.062   6.059 -1.8052 -1.5810  1.2429
  510MOL0     H67307   8.140   8.190   6.052  1.0704  3.9951 -0.5354
  510MOL0     H67308   7.786   8.298   5.964  1.0520  0.6587 -1.7883
  510MOL0     H67309   7.597   8.443   6.023 -2.3960 -0.8931 -1.5856
  510MOL0     H67310   7.653   8.811   5.867  0.0684 -0.3997  0.2669
  510MOL0     H67311   7.569   8.798   6.032  0.0343 -2.4781 -0.0444
  510MOL0     H67312   7.348   8.864   5.929 -0.4626  0.0342 -0.4721
  510MOL0     H67313   7.482   8.991   5.936  0.2413 -1.5710  2.2346
  510MOL0     H67314   7.525   8.907   5.690 -0.7255 -1.6978 -0.3143
  510MOL0     H67315   7.404   9.020   5.732  0.8649  0.8694  1.8164
  510MOL0     H67316   7.305   8.825   5.567 -3.8788 -2.1807  1.1608
  510MOL0     H67317   7.325   8.725   5.706 -0.8356 -0.7149 -1.6654
  510MOL0     H67318   7.006   8.978   5.816 -2.5296 -3.1723 -2.4100
  510MOL0     H67319   7.674   8.688   5.674  1.1108  0.1684 -0.9247
  510MOL0     H67320   7.860   8.534   5.621  0.0548  0.5175  0.2910
  511MOL0     O67321   2.508   0.208   8.145 -0.1217 -0.8120 -0.4580
  511MOL0     C67322   2.404   0.231   8.203 -0.2119 -0.6393 -0.0565
  511MOL0     O67323   2.393   0.271   8.336  0.7351  0.1104  0.2461
  511MOL0     C67324   2.509   0.271   8.413 -0.3852 -0.2317 -0.4196
  511MOL0     C67325   2.516   0.355   8.528 -0.3862  0.3587  0.5927
  511MOL0     C67326   2.629   0.344   8.613 -0.3069  0.4254 -0.2943
  511MOL0     C67327   2.736   0.256   8.600  0.6705  0.2910 -0.6211
  511MOL0     O67328   2.837   0.230   8.698  0.4775  0.1710 -0.3779
  511MOL0     C67329   2.859   0.318   8.820 -0.0814  0.4902  0.6959
  511MOL0     C67330   2.962   0.412   8.778  0.3721  0.7195 -0.4638
  511MOL0     C67331   3.096   0.356   8.804 -0.1104 -0.2686  0.1814
  511MOL0     C67332   3.212   0.431   8.727 -0.7129  0.4786  2.0433
  511MOL0     C67333   3.356   0.386   8.768 -0.0351  1.0000 -0.3559
  511MOL0     C67334   3.462   0.466   8.705 -0.1176 -0.2722  0.5562
  511MOL0     C67335   3.608   0.435   8.756  0.3966 -0.2271  0.3681
  511MOL0     C67336   3.697   0.542   8.709 -0.1011 -0.0099 -0.6740
  511MOL0     N67337   3.837   0.535   8.747 -0.0857 -0.4738 -0.0183
  511MOL0     C67338   3.939   0.584   8.672 -0.7854  0.7769 -0.6803
  511MOL0     C67339   4.050   0.560   8.749 -0.0243  0.4226  1.4315
  511MOL0     C67340   4.184   0.625   8.709  0.2044 -0.1443 -0.5365
  511MOL0     C67341   4.239   0.579   8.576 -0.3783 -0.6434  0.6186
  511MOL0     C67342   4.357   0.658   8.524 -0.1663 -0.0605  0.5157
  511MOL0     C67343   4.477   0.674   8.627  0.9915  0.6984  0.3173
  511MOL0     O67344   4.519   0.541   8.670 -0.9927  0.2501 -0.2379
  511MOL0     C67345   4.659   0.534   8.688 -0.4845  0.4647  0.2284
  511MOL0     C67346   4.706   0.506   8.818 -0.8142 -0.2935 -0.0864
  511MOL0     C67347   4.844   0.485   8.837  0.4918  0.1559  0.1549
  511MOL0     C67348   4.929   0.490   8.731  0.2394  0.1313  0.6601
  511MOL0     C67349   5.070   0.479   8.735 -0.6258 -0.0566 -0.0917
  511MOL0     O67350   5.152   0.514   8.622  0.0909 -0.7449 -0.0055
  511MOL0     C67351   5.277   0.463   8.628 -0.5436  0.9100  0.5910
  511MOL0     C67352   5.391   0.541   8.615 -0.5148  0.4558 -0.4289
  511MOL0     C67353   5.516   0.485   8.611 -0.5449  0.6131  0.0633
  511MOL0     C67354   5.536   0.350   8.598  0.3409 -0.1839  1.0323
  511MOL0     O67355   5.660   0.313   8.570  0.0586  0.4858 -0.0629
  511MOL0     C67356   5.729   0.227   8.657 -0.2088  0.6237  0.5136
  511MOL0     C67357   5.764   0.287   8.792 -0.3471 -0.4431 -0.0717
  511MOL0     C67358   5.888   0.387   8.788  0.1158  0.8545  0.6719
  511MOL0     C67359   5.941   0.386   8.928 -0.0742 -0.4712 -0.0553
  511MOL0     C67360   6.039   0.507   8.937  0.3694  1.3990  0.4388
  511MOL0     C67361   6.090   0.519   9.080  0.5614  0.0378  0.2337
  511MOL0     C67362   6.193   0.629   9.106 -1.1247  0.3308  0.0508
  511MOL0     C67363   6.290   0.609   9.226  0.7657 -0.1671 -0.4675
  511MOL0    Cl67364   6.205   0.548   9.360  0.2219  0.4980  0.2977
  511MOL0     C67365   5.418   0.270   8.591  0.3280 -0.6948 -0.3271
  511MOL0     C67366   5.294   0.324   8.620 -0.2767 -0.0889  0.8466
  511MOL0     O67367   5.115   0.436   8.843  0.3430  0.6976 -0.2165
  511MOL0     C67368   4.876   0.533   8.605  0.1851  0.4768 -0.2014
  511MOL0     C67369   4.745   0.556   8.583  0.0179  0.3054 -1.4720
  511MOL0     N67370   4.015   0.486   8.859 -0.2382 -0.6155 -0.0904
  511MOL0     N67371   3.882   0.461   8.852 -0.4958 -0.5263  0.1008
  511MOL0     C67372   2.718   0.160   8.497 -0.3193 -0.1195  0.0712
  511MOL0     C67373   2.618   0.173   8.399  0.1368 -0.7129 -0.1355
  511MOL0     C67374   2.285   0.218   8.112  2.0525  0.1131 -0.3827
  511MOL0     C67375   2.154   0.225   8.162 -0.1985 -0.3235 -0.7869
  511MOL0     C67376   2.044   0.200   8.088 -0.0386  0.3294  0.2129
  511MOL0     C67377   2.054   0.163   7.955 -0.0380  0.5383 -1.0541
  511MOL0     O67378   1.944   0.126   7.880  0.5245  0.4303 -0.6943
  511MOL0     C67379   1.818   0.118   7.935  0.9066 -0.0873 -0.8286
  511MOL0     C67380   1.715   0.076   7.821  0.7873 -0.8419  0.1134
  511MOL0     C67381   1.697   0.190   7.705 -0.5454  0.4137 -0.6031
  511MOL0     C67382   1.627   0.306   7.772 -0.3889  0.1767  0.5765
  511MOL0     C67383   1.487   0.282   7.742  0.3842  0.0177 -0.6248
  511MOL0     C67384   1.369   0.271   7.720  0.1807 -0.1654 -0.8606
  511MOL0     C67385   2.181   0.161   7.901  0.3889 -0.2504 -0.6799
  511MOL0     C67386   2.299   0.202   7.976 -0.6505 -0.3350  0.5563
  511MOL0     H67387   2.425   0.410   8.550 -1.3231 -1.1028  0.4730
  511MOL0     H67388   2.639   0.415   8.695 -0.9163 -3.8071  3.8644
  511MOL0     H67389   2.896   0.268   8.910 -0.3151  0.7031  0.9140
  511MOL0     H67390   2.773   0.373   8.861 -0.9172  0.9945 -1.6090
  511MOL0     H67391   2.941   0.498   8.843 -0.6218  1.2614 -1.4759
  511MOL0     H67392   2.949   0.445   8.675 -2.1069  4.7780  0.8836
  511MOL0     H67393   3.099   0.248   8.788 -1.3320 -0.8243  3.1474
  511MOL0     H67394   3.112   0.373   8.911 -0.4829 -2.5585  0.6392
  511MOL0     H67395   3.204   0.399   8.623 -0.9758  0.2534  2.1304
  511MOL0     H67396   3.201   0.538   8.747  1.0218  1.4323 -1.3619
  511MOL0     H67397   3.373   0.279   8.758  2.3931  0.8035  3.7946
  511MOL0     H67398   3.364   0.410   8.874 -2.1170  0.5494 -0.0509
  511MOL0     H67399   3.451   0.574   8.722 -1.2235  0.2472 -2.6515
  511MOL0     H67400   3.461   0.458   8.596 -0.9661  1.0817  0.4295
  511MOL0     H67401   3.599   0.411   8.863 -1.4870 -1.9871 -0.1144
  511MOL0     H67402   3.630   0.338   8.710  0.4708 -0.4245  0.8057
  511MOL0     H67403   3.653   0.638   8.733  3.0077  0.7040  3.1744
  511MOL0     H67404   3.682   0.532   8.601 -2.2204 -0.9238 -0.3462
  511MOL0     H67405   3.935   0.648   8.584 -2.4249 -2.3683 -3.1053
  511MOL0     H67406   4.263   0.599   8.781  1.1521 -3.0490 -2.4416
  511MOL0     H67407   4.166   0.732   8.693  0.6953 -0.2740 -2.1490
  511MOL0     H67408   4.164   0.595   8.498  0.6872 -1.1379 -0.5344
  511MOL0     H67409   4.247   0.470   8.568 -3.5052 -0.8693 -1.3585
  511MOL0     H67410   4.381   0.600   8.435 -0.2408  0.5089  0.1213
  511MOL0     H67411   4.330   0.759   8.493  1.1413  0.4753  1.0157
  511MOL0     H67412   4.437   0.726   8.714 -1.3809  0.0233 -0.3105
  511MOL0     H67413   4.559   0.736   8.588  2.0711  0.4789  2.1193
  511MOL0     H67414   4.650   0.500   8.911  1.1813  1.8959  1.3775
  511MOL0     H67415   4.878   0.456   8.936 -0.3232  1.2845  0.7854
  511MOL0     H67416   5.370   0.647   8.612 -1.7932  0.2740  1.0090
  511MOL0     H67417   5.607   0.543   8.605  0.3457 -0.4269  2.3401
  511MOL0     H67418   5.811   0.174   8.609 -2.7108 -2.2546 -0.9797
  511MOL0     H67419   5.661   0.145   8.682 -0.2660  0.6697  0.5089
  511MOL0     H67420   5.796   0.203   8.854  3.5127 -0.2481 -1.5121
  511MOL0     H67421   5.682   0.347   8.832  0.7099  1.5368 -0.7041
  511MOL0     H67422   5.863   0.487   8.751  0.0021  1.0947  1.3793
  511MOL0     H67423   5.968   0.353   8.721 -0.8199 -0.2377  0.0860
  511MOL0     H67424   5.856   0.409   8.992 -0.4281  1.6814 -1.1828
  511MOL0     H67425   5.990   0.291   8.952  2.2496  0.8231  0.6739
  511MOL0     H67426   5.999   0.601   8.900 -2.7477 -1.3762 -4.4136
  511MOL0     H67427   6.120   0.475   8.871 -1.5998 -0.7513 -1.0883
  511MOL0     H67428   6.140   0.423   9.100 -3.0831 -1.8157  1.3108
  511MOL0     H67429   5.999   0.536   9.138 -0.1994  0.2978 -0.9970
  511MOL0     H67430   6.250   0.641   9.014  0.2986 -0.3009  0.8067
  511MOL0     H67431   6.126   0.713   9.123  0.3904  1.4224  0.8131
  511MOL0     H67432   6.344   0.698   9.260  0.1913 -1.4655  4.7167
  511MOL0     H67433   6.376   0.545   9.206  2.6270  0.9550  3.0461
  511MOL0     H67434   5.422   0.162   8.589 -1.7619 -0.8380 -3.5259
  511MOL0     H67435   5.205   0.261   8.626  1.9272 -3.4073  0.9711
  511MOL0     H67436   4.938   0.534   8.516  0.8872 -0.0016  0.2677
  511MOL0     H67437   4.719   0.561   8.478 -1.4651  0.9933 -1.0958
  511MOL0     H67438   2.779   0.071   8.487 -0.0288  0.2126 -1.3511
  511MOL0     H67439   2.611   0.103   8.317  1.3594  1.0185 -1.8156
  511MOL0     H67440   2.158   0.251   8.267  1.8952 -1.2574 -0.5844
  511MOL0     H67441   1.956   0.216   8.150  0.5061 -1.5989  1.5614
  511MOL0     H67442   1.791   0.218   7.971  1.6297 -0.4137  0.7513
  511MOL0     H67443   1.812   0.050   8.021 -1.8538 -0.5464 -1.2923
  511MOL0     H67444   1.751  -0.012   7.768 -2.4736 -2.3477  0.1498
  511MOL0     H67445   1.623   0.041   7.868  1.4039 -3.3447 -0.4222
  511MOL0     H67446   1.645   0.139   7.623  0.6602 -1.5744 -0.1961
  511MOL0     H67447   1.794   0.217   7.664  0.5240 -1.5709  0.5019
  511MOL0     H67448   1.642   0.310   7.880 -1.3263 -3.4419  0.9418
  511MOL0     H67449   1.660   0.398   7.722 -2.4368  0.8579  0.3865
  511MOL0     H67450   1.266   0.267   7.691 -0.1254 -0.0420  0.1559
  511MOL0     H67451   2.179   0.121   7.800 -0.7607  1.4573 -1.3748
  511MOL0     H67452   2.393   0.203   7.921  0.6131 -1.6015  2.5548
  512MOL0     O67453   6.220   1.197   4.505 -0.0950 -0.3047  0.6348
  512MOL0     C67454   6.304   1.270   4.446 -0.0348  0.2303 -0.6204
  512MOL0     O67455   6.445   1.263   4.452  0.0091  0.7167  0.1967
  512MOL0     C67456   6.510   1.162   4.529  0.6317  0.0151 -0.0278
  512MOL0     C67457   6.454   1.035   4.555 -0.2055 -0.1305  0.5605
  512MOL0     C67458   6.511   0.957   4.650  0.2336  0.3769 -0.0838
  512MOL0     C67459   6.626   0.989   4.706  0.4554  0.5241 -0.5851
  512MOL0     O67460   6.689   0.908   4.800  0.1380  0.1253 -1.3076
  512MOL0     C67461   6.623   0.820   4.893 -0.1357  0.5136 -0.6777
  512MOL0     C67462   6.701   0.817   5.021  0.7821 -0.9678  0.6132
  512MOL0     C67463   6.702   0.958   5.094  0.1377 -0.6491 -0.1101
  512MOL0     C67464   6.814   0.963   5.191 -0.3106 -0.0173 -0.9737
  512MOL0     C67465   6.847   1.090   5.265 -0.0031  0.3845 -0.3410
  512MOL0     C67466   6.957   1.059   5.372  0.0406  0.1136 -0.5765
  512MOL0     C67467   6.997   1.196   5.425  0.2230 -0.8348  0.6700
  512MOL0     C67468   7.138   1.166   5.497 -0.6588  0.4007  0.8438
  512MOL0     N67469   7.202   1.285   5.560 -0.5376  0.0906 -1.0035
  512MOL0     C67470   7.175   1.414   5.534  1.0899  0.2145 -0.0195
  512MOL0     C67471   7.266   1.480   5.612  0.2040  0.6458 -0.0993
  512MOL0     C67472   7.299   1.622   5.594 -0.0495  0.1468  0.4663
  512MOL0     C67473   7.256   1.699   5.724 -0.3636  0.5786 -0.8140
  512MOL0     C67474   7.274   1.849   5.719  0.0643  0.5111  0.3940
  512MOL0     C67475   7.416   1.910   5.684 -0.2815 -0.0728 -0.6615
  512MOL0     O67476   7.391   2.045   5.696 -0.6414  0.1096 -0.3806
  512MOL0     C67477   7.468   2.132   5.628  0.1751  0.1593 -0.9298
  512MOL0     C67478   7.406   2.251   5.589  0.2108 -0.3657 -0.1746
  512MOL0     C67479   7.484   2.350   5.527 -0.3531 -0.5480  0.4930
  512MOL0     C67480   7.607   2.327   5.471 -0.9757  0.4397  0.5586
  512MOL0     C67481   7.685   2.423   5.395  0.2736  0.3143 -1.2595
  512MOL0     O67482   7.816   2.413   5.364 -0.7552  0.4909 -0.4372
  512MOL0     C67483   7.887   2.515   5.302 -0.1606  0.8747 -0.2009
  512MOL0     C67484   7.927   2.493   5.177  0.4039 -0.1077  1.3797
  512MOL0     C67485   8.018   2.585   5.118  0.8113  0.0927 -0.8647
  512MOL0     C67486   8.076   2.698   5.184 -0.3080  0.4699  0.9704
  512MOL0     O67487   8.176   2.776   5.126 -0.0195 -0.9799 -0.3263
  512MOL0     C67488   8.300   2.709   5.130  0.1322  0.1403 -0.4158
  512MOL0     C67489   8.397   2.797   5.216  0.0716 -0.5432  0.3638
  512MOL0     C67490   8.397   2.786   5.368  0.0052  0.2185  0.0530
  512MOL0     C67491   8.436   2.643   5.410  0.8359 -0.3213  0.5899
  512MOL0     C67492   8.410   2.605   5.553 -0.1992 -0.2335  0.6366
  512MOL0     C67493   8.461   2.711   5.655 -0.5854  0.4248 -0.9707
  512MOL0     C67494   8.450   2.684   5.803 -0.9838  0.3295 -0.4694
  512MOL0     C67495   8.546   2.767   5.886  0.4775 -0.3780 -1.0209
  512MOL0    Cl67496   8.484   2.943   5.879 -0.2812  0.0710 -0.5485
  512MOL0     C67497   8.019   2.720   5.308  0.2622  0.1863 -0.3728
  512MOL0     C67498   7.920   2.632   5.363  0.0395 -0.1107 -0.1554
  512MOL0     O67499   7.627   2.528   5.384  0.9344  0.0585 -0.0112
  512MOL0     C67500   7.679   2.216   5.520  0.3876 -0.2734 -0.8133
  512MOL0     C67501   7.606   2.121   5.597  0.2005 -0.4775  1.0193
  512MOL0     N67502   7.323   1.387   5.693 -1.2261 -0.0409  0.2510
  512MOL0     N67503   7.296   1.265   5.654  0.3113  0.1054  0.2137
  512MOL0     C67504   6.695   1.112   4.672 -0.1218 -0.1096  0.1013
  512MOL0     C67505   6.639   1.189   4.570 -0.4172 -0.2946  0.0743
  512MOL0     C67506   6.253   1.376   4.354 -0.3336 -0.1232 -0.7850
  512MOL0     C67507   6.117   1.405   4.362 -0.2400 -0.0898  0.1085
  512MOL0     C67508   6.068   1.495   4.274  0.8596 -0.1408 -0.2097
  512MOL0     C67509   6.142   1.559   4.178  0.1667 -0.2566  0.2796
  512MOL0     O67510   6.076   1.654   4.106  0.9942  0.4008  0.5691
  512MOL0     C67511   6.124   1.702   3.980 -0.7146 -0.4511 -0.0183
  512MOL0     C67512   6.150   1.589   3.874  1.0839  0.8418 -0.1518
  512MOL0     C67513   6.211   1.638   3.743 -0.7407 -0.1587  0.5847
  512MOL0     C67514   6.291   1.531   3.663  0.0066  0.0695  0.6104
  512MOL0     C67515   6.238   1.395   3.656  0.8266  0.5164  0.7651
  512MOL0     C67516   6.199   1.284   3.660  0.8354 -0.0112  0.6281
  512MOL0     C67517   6.284   1.544   4.183 -0.3077  1.3502  0.3250
  512MOL0     C67518   6.336   1.446   4.264 -0.0098 -0.1469  0.2625
  512MOL0     H67519   6.368   0.994   4.505  1.0500 -1.7020 -0.3998
  512MOL0     H67520   6.467   0.860   4.669  2.9354 -0.7727  0.7372
  512MOL0     H67521   6.619   0.716   4.859  3.8737 -0.4809  1.3046
  512MOL0     H67522   6.518   0.838   4.919 -0.0251  1.1094 -0.6169
  512MOL0     H67523   6.802   0.785   4.992  0.7588 -2.1668  1.7600
  512MOL0     H67524   6.667   0.738   5.088 -1.5095  1.4491  2.5194
  512MOL0     H67525   6.600   0.971   5.134 -0.6381 -0.6089 -1.9906
  512MOL0     H67526   6.723   1.041   5.025  3.3044  1.3872  2.9825
  512MOL0     H67527   6.804   0.876   5.257 -0.1238 -1.0301 -2.2391
  512MOL0     H67528   6.913   0.944   5.150  0.7175  1.8650  0.4921
  512MOL0     H67529   6.763   1.136   5.318  0.2046 -0.9896  1.2874
  512MOL0     H67530   6.878   1.158   5.185  0.1349 -1.5929 -2.0760
  512MOL0     H67531   7.034   1.010   5.312 -1.6117 -2.7516 -0.5370
  512MOL0     H67532   6.912   1.001   5.453  1.6305 -0.8573 -0.3324
  512MOL0     H67533   7.011   1.260   5.338  3.3746  0.2175  1.8133
  512MOL0     H67534   6.913   1.237   5.482  0.2343 -1.0522  0.8484
  512MOL0     H67535   7.211   1.130   5.423 -0.8801  1.8498 -0.1385
  512MOL0     H67536   7.120   1.096   5.578 -0.4394 -1.8902 -0.9745
  512MOL0     H67537   7.121   1.463   5.454 -1.8770 -0.4135  1.4423
  512MOL0     H67538   7.275   1.670   5.499  3.4835 -0.4458 -0.8962
  512MOL0     H67539   7.408   1.626   5.603 -0.2314  0.4941  5.7912
  512MOL0     H67540   7.310   1.661   5.812  0.1391  3.8367  0.4509
  512MOL0     H67541   7.151   1.678   5.748  0.0148 -1.4152 -0.7479
  512MOL0     H67542   7.185   1.883   5.665 -0.9313 -3.1546 -0.5679
  512MOL0     H67543   7.246   1.878   5.821 -0.0756  1.1778  0.1726
  512MOL0     H67544   7.449   1.889   5.582 -0.5040 -1.2724 -0.4986
  512MOL0     H67545   7.486   1.869   5.757  1.2068 -1.1615 -2.6141
  512MOL0     H67546   7.310   2.284   5.628  1.9051  0.5120  3.6471
  512MOL0     H67547   7.434   2.446   5.520 -0.6737 -0.6061  1.7144
  512MOL0     H67548   7.895   2.399   5.134 -2.1172  2.5510 -3.3471
  512MOL0     H67549   8.067   2.550   5.028  1.9899  0.3253 -0.3243
  512MOL0     H67550   8.344   2.706   5.030 -1.4376  0.3406 -1.1329
  512MOL0     H67551   8.291   2.607   5.167 -0.3727  0.5173  0.5377
  512MOL0     H67552   8.380   2.902   5.187  0.6523 -1.0423 -2.0306
  512MOL0     H67553   8.501   2.781   5.187 -0.0683  0.4272 -0.7881
  512MOL0     H67554   8.295   2.798   5.406  0.0460 -0.9131  0.5722
  512MOL0     H67555   8.458   2.863   5.416 -2.6212  2.5660 -0.1404
  512MOL0     H67556   8.397   2.571   5.338  0.1371  1.7070 -1.1521
  512MOL0     H67557   8.545   2.641   5.402  0.8974  0.4584  1.1705
  512MOL0     H67558   8.461   2.510   5.572 -2.9476 -2.7263 -2.9605
  512MOL0     H67559   8.301   2.594   5.562 -0.2556 -0.3169 -0.0900
  512MOL0     H67560   8.397   2.799   5.640 -0.9180 -0.1254 -3.0299
  512MOL0     H67561   8.566   2.731   5.631  1.2569 -0.5682  4.7777
  512MOL0     H67562   8.346   2.701   5.832 -0.9639 -2.2785  1.4610
  512MOL0     H67563   8.476   2.579   5.812 -1.1766  0.3203 -0.0004
  512MOL0     H67564   8.652   2.756   5.862  1.4815 -2.4147  3.3740
  512MOL0     H67565   8.542   2.711   5.980 -0.0331 -0.6703 -1.2073
  512MOL0     H67566   8.048   2.810   5.361  1.8824 -0.5219  0.0071
  512MOL0     H67567   7.885   2.650   5.464 -2.0655 -2.5870 -0.3184
  512MOL0     H67568   7.777   2.186   5.484  0.7394 -0.0052 -0.1094
  512MOL0     H67569   7.641   2.025   5.634 -3.5352 -1.3781  2.7039
  512MOL0     H67570   6.795   1.130   4.712 -0.3208 -1.6794  1.4081
  512MOL0     H67571   6.677   1.284   4.536 -1.7162  1.5186  3.2310
  512MOL0     H67572   6.057   1.345   4.429  0.9928 -0.2186  1.1210
  512MOL0     H67573   5.965   1.526   4.287  0.0421 -1.4360 -2.8254
  512MOL0     H67574   6.218   1.757   3.991  0.0760 -1.3190 -1.9418
  512MOL0     H67575   6.046   1.764   3.934 -0.5546 -0.0410  0.2521
  512MOL0     H67576   6.221   1.514   3.910 -2.1407 -4.1482 -3.0353
  512MOL0     H67577   6.060   1.531   3.854  1.6789  0.4577 -1.9269
  512MOL0     H67578   6.282   1.720   3.754 -0.9869  0.1552 -0.1244
  512MOL0     H67579   6.132   1.684   3.683  0.4021  2.6892  1.0931
  512MOL0     H67580   6.298   1.579   3.565 -2.7044 -0.3311  0.1357
  512MOL0     H67581   6.392   1.514   3.702 -0.8513 -0.4341  2.7694
  512MOL0     H67582   6.155   1.188   3.680  1.2443 -0.2371  0.4736
  512MOL0     H67583   6.355   1.601   4.124 -0.3709  0.5430 -0.5618
  512MOL0     H67584   6.442   1.424   4.266 -0.4011 -2.2863  1.0333
  513MOL0     O67585   5.443  11.120   0.484  0.1988 -0.0326 -0.0084
  513MOL0     C67586   5.515  11.144   0.577 -0.3144  0.8658  0.5170
  513MOL0     O67587   5.592  11.260   0.599 -0.7645  0.4559  0.0704
  513MOL0     C67588   5.618  11.350   0.495  0.1226  0.6417  0.1118
  513MOL0     C67589   5.630  11.338   0.359  0.1386  0.0678 -0.2289
  513MOL0     C67590   5.688  11.435   0.273  0.5814  0.1702 -0.5341
  513MOL0     C67591   5.749  11.541   0.337 -0.5170 -0.1112  0.4315
  513MOL0     O67592   5.850  11.618   0.279 -0.2089  0.8823  1.0661
  513MOL0     C67593   5.963  11.642   0.362 -0.5408 -0.4066 -0.2376
  513MOL0     C67594   6.101  11.680   0.299  0.5854 -0.0858  0.5004
  513MOL0     C67595   6.086  11.735   0.148 -0.2054 -0.0418 -1.4968
  513MOL0     C67596   6.017  11.877   0.155 -0.2926  1.2493 -0.2171
  513MOL0     C67597   6.098  11.969   0.083  0.0958  0.5795 -0.0598
  513MOL0     C67598   6.122  11.955  -0.065  0.0561  0.5063 -0.5323
  513MOL0     C67599   6.015  11.877  -0.142  1.3672 -0.4232  0.0138
  513MOL0     C67600   5.871  11.963  -0.130 -0.4540  0.4936  0.8810
  513MOL0     N67601   5.864  12.054  -0.239 -0.1602 -0.2986 -0.9941
  513MOL0     C67602   5.800  12.037  -0.355 -0.7548  0.5993 -0.7348
  513MOL0     C67603   5.842  12.130  -0.442 -0.4747  1.6420 -0.2917
  513MOL0     C67604   5.815  12.122  -0.583 -0.3693 -0.0962  0.2281
  513MOL0     C67605   5.799  12.255  -0.651 -0.7833 -0.2031  0.2430
  513MOL0     C67606   5.668  12.321  -0.614  0.0313  0.1400  0.4543
  513MOL0     C67607   5.626  12.428  -0.709  0.7055 -0.3688 -0.9594
  513MOL0     O67608   5.736  12.523  -0.740  0.1603  0.2740 -0.2477
  513MOL0     C67609   5.761  12.547  -0.868  0.8679  0.0669  1.3690
  513MOL0     C67610   5.898  12.581  -0.904 -0.2023 -0.1108  1.4165
  513MOL0     C67611   5.930  12.611  -1.038 -0.2030  0.0812 -0.2259
  513MOL0     C67612   5.822  12.614  -1.136  0.1304 -0.0322  0.3726
  513MOL0     C67613   5.853  12.646  -1.282 -0.0651 -0.6386 -0.1656
  513MOL0     O67614   5.986  12.649  -1.313  0.0466 -0.5904  1.2627
  513MOL0     C67615   6.021  12.678  -1.444  0.6591  1.1139 -0.6344
  513MOL0     C67616   6.136  12.750  -1.460 -0.1673  0.1607 -0.2289
  513MOL0     C67617   6.192  12.772  -1.588 -0.1859  0.3084  0.4282
  513MOL0     C67618   6.134  12.726  -1.705  0.0653  0.1462 -0.8133
  513MOL0     O67619   6.180  12.744  -1.837  0.3127 -0.3422 -0.7568
  513MOL0     C67620   6.303  12.808  -1.864 -0.7817  0.4359 -0.6966
  513MOL0     C67621   6.286  12.845  -2.016 -1.2725 -0.0828  0.0443
  513MOL0     C67622   6.318  12.721  -2.109 -0.2940  0.6167  0.4321
  513MOL0     C67623   6.286  12.751  -2.256  0.1708  0.7083 -0.0138
  513MOL0     C67624   6.334  12.634  -2.351 -0.4210 -0.1696  0.9608
  513MOL0     C67625   6.230  12.519  -2.366 -0.2997  0.3144 -0.2913
  513MOL0     C67626   6.296  12.397  -2.420 -0.3566  0.3320 -0.3225
  513MOL0     C67627   6.387  12.425  -2.548  0.1556 -1.1187 -0.6828
  513MOL0    Cl67628   6.277  12.504  -2.674 -0.4195 -0.2285  0.1778
  513MOL0     C67629   6.014  12.651  -1.685  0.4386  0.0775  0.5771
  513MOL0     C67630   5.962  12.622  -1.560 -0.7599 -0.1166 -0.4082
  513MOL0     O67631   5.754  12.669  -1.359 -0.3695  0.1750  0.5602
  513MOL0     C67632   5.690  12.577  -1.090 -0.2366  0.9929  0.6111
  513MOL0     C67633   5.652  12.548  -0.960 -0.6282  0.1601 -0.2251
  513MOL0     N67634   5.925  12.215  -0.382  0.7298  0.2276  0.0522
  513MOL0     N67635   5.941  12.165  -0.262 -0.4242 -0.1902  0.2692
  513MOL0     C67636   5.725  11.568   0.476 -0.5827  0.2631 -0.4055
  513MOL0     C67637   5.651  11.476   0.554  0.1317 -0.5178 -0.0133
  513MOL0     C67638   5.538  11.042   0.676 -1.2364  0.3872  0.1786
  513MOL0     C67639   5.587  11.071   0.801  0.3902  0.0021 -0.0301
  513MOL0     C67640   5.596  10.979   0.910 -0.1684  0.0549  1.5260
  513MOL0     C67641   5.549  10.840   0.883 -0.2856 -0.7862 -0.1491
  513MOL0     O67642   5.558  10.745   0.981  0.5917 -0.0734 -0.3268
  513MOL0     C67643   5.531  10.601   0.959  0.5230  0.2131  0.3169
  513MOL0     C67644   5.626  10.504   1.041 -0.1775  0.6631 -0.0895
  513MOL0     C67645   5.647  10.362   0.981 -0.4594  0.0229  0.0941
  513MOL0     C67646   5.736  10.287   1.086 -0.2285  0.9095 -0.0866
  513MOL0     C67647   5.732  10.149   1.035 -0.5881 -1.4617  0.4326
  513MOL0     C67648   5.702  10.051   0.977  0.3355  0.6054 -1.1724
  513MOL0     C67649   5.490  10.814   0.755  0.3780 -0.5293  0.4531
  513MOL0     C67650   5.489  10.908   0.654  0.8046 -0.1491 -0.1655
  513MOL0     H67651   5.605  11.244   0.311  3.1419  0.6192 -3.3290
  513MOL0     H67652   5.690  11.408   0.168  0.0067  0.6639 -0.6743
  513MOL0     H67653   5.985  11.556   0.426  0.5432 -0.9210 -1.2585
  513MOL0     H67654   5.936  11.727   0.425 -0.1547 -1.1396  0.9392
  513MOL0     H67655   6.165  11.592   0.283 -0.0115 -0.7678  1.7315
  513MOL0     H67656   6.141  11.762   0.359 -1.5709  2.4417 -1.3049
  513MOL0     H67657   6.030  11.668   0.082 -0.8474 -0.1740 -0.8288
  513MOL0     H67658   6.186  11.739   0.104 -0.7056  0.2029 -2.6491
  513MOL0     H67659   5.909  11.871   0.135 -1.2779 -2.3624  4.2202
  513MOL0     H67660   6.030  11.919   0.255  1.8552  0.3136 -0.0396
  513MOL0     H67661   6.195  11.979   0.132  0.1436 -0.4810  0.0798
  513MOL0     H67662   6.061  12.071   0.095 -0.1819  0.5281 -0.4624
  513MOL0     H67663   6.220  11.906  -0.069  1.8545  3.1057  3.9082
  513MOL0     H67664   6.146  12.050  -0.114  5.5443 -1.4001 -2.4089
  513MOL0     H67665   6.051  11.871  -0.245 -0.2196 -2.9100 -0.4734
  513MOL0     H67666   5.993  11.773  -0.116  2.5754 -1.2605 -2.0843
  513MOL0     H67667   5.862  12.011  -0.033  0.9918  1.3729  0.6027
  513MOL0     H67668   5.781  11.901  -0.138  1.2040 -1.8253 -1.5714
  513MOL0     H67669   5.737  11.953  -0.382  1.3972 -0.9644 -1.1516
  513MOL0     H67670   5.724  12.069  -0.613  0.9205 -0.5816 -3.2782
  513MOL0     H67671   5.908  12.080  -0.622  0.5447  1.5293  0.5561
  513MOL0     H67672   5.812  12.239  -0.758  0.2372 -2.6090  0.6450
  513MOL0     H67673   5.882  12.317  -0.616  0.3621 -1.4528 -0.1963
  513MOL0     H67674   5.590  12.245  -0.613  1.1338 -1.1432 -2.1465
  513MOL0     H67675   5.680  12.357  -0.511  0.1841 -1.7221  1.1175
  513MOL0     H67676   5.548  12.490  -0.665  0.0520 -1.8321  0.0490
  513MOL0     H67677   5.581  12.371  -0.791  1.8443 -0.6843 -1.3887
  513MOL0     H67678   5.971  12.568  -0.825 -1.1937  1.4480  2.6585
  513MOL0     H67679   6.028  12.644  -1.072 -1.4783  2.9803 -1.4355
  513MOL0     H67680   6.182  12.794  -1.373 -0.5831  0.3270 -0.0904
  513MOL0     H67681   6.290  12.812  -1.612 -1.7220  3.4160 -1.2419
  513MOL0     H67682   6.390  12.742  -1.859 -2.6423 -2.5067 -3.3297
  513MOL0     H67683   6.317  12.906  -1.818  1.4082  0.3206 -1.0069
  513MOL0     H67684   6.364  12.920  -2.037 -2.3807  1.5249  1.3948
  513MOL0     H67685   6.189  12.893  -2.034 -0.3176  1.2506 -1.9571
  513MOL0     H67686   6.251  12.637  -2.088 -1.3939  0.9726 -1.4294
  513MOL0     H67687   6.425  12.699  -2.106 -0.2820  0.7883  2.4562
  513MOL0     H67688   6.178  12.764  -2.264  0.1007  1.6277  1.8393
  513MOL0     H67689   6.331  12.844  -2.292 -1.7022  2.0479  0.9453
  513MOL0     H67690   6.433  12.603  -2.319 -1.0282 -2.9711  0.3533
  513MOL0     H67691   6.326  12.683  -2.449  0.7170 -0.8890  0.4942
  513MOL0     H67692   6.153  12.547  -2.438  0.5066 -1.9542 -2.1589
  513MOL0     H67693   6.196  12.479  -2.271  2.1894 -2.3070 -0.3691
  513MOL0     H67694   6.362  12.356  -2.343  2.4850  2.2524 -1.5325
  513MOL0     H67695   6.217  12.325  -2.442  1.2440 -1.9747  1.0437
  513MOL0     H67696   6.438  12.335  -2.584 -0.1392 -1.5384 -0.0691
  513MOL0     H67697   6.471  12.492  -2.531 -0.0937 -0.9013 -0.2961
  513MOL0     H67698   5.951  12.612  -1.764 -3.6741 -0.0891  3.5973
  513MOL0     H67699   5.878  12.554  -1.565 -1.8598  1.1845 -0.2054
  513MOL0     H67700   5.612  12.583  -1.165  0.7749  0.6909 -0.4846
  513MOL0     H67701   5.546  12.536  -0.938 -0.8698  0.0936 -1.3482
  513MOL0     H67702   5.759  11.658   0.527  0.6771  0.0135 -0.7702
  513MOL0     H67703   5.642  11.494   0.661  0.6824  1.8075 -0.2967
  513MOL0     H67704   5.611  11.175   0.818 -0.7420  0.8286 -2.8236
  513MOL0     H67705   5.650  11.017   0.996  1.3481  0.3413  0.4896
  513MOL0     H67706   5.521  10.577   0.852 -1.2806  1.9503  0.0430
  513MOL0     H67707   5.430  10.577   0.993  0.8586 -0.8322  0.5991
  513MOL0     H67708   5.724  10.553   1.038  0.1924 -0.0291  0.5018
  513MOL0     H67709   5.581  10.484   1.139 -1.7319 -0.0747 -0.9250
  513MOL0     H67710   5.701  10.362   0.886 -0.1629  0.2599  0.2610
  513MOL0     H67711   5.550  10.313   0.972  0.2254 -2.1525  3.1781
  513MOL0     H67712   5.841  10.320   1.090  0.8846 -2.1970  4.9366
  513MOL0     H67713   5.682  10.302   1.179  1.6079  1.7649  0.9042
  513MOL0     H67714   5.677   9.963   0.921 -1.8552 -0.2640  1.0098
  513MOL0     H67715   5.428  10.729   0.729  1.5865 -1.3442  0.1665
  513MOL0     H67716   5.431  10.886   0.565  0.2940  1.3624 -0.2215
  514MOL0     O67717   3.792   4.686   1.965  0.4409  0.2716 -0.8969
  514MOL0     C67718   3.745   4.576   1.957  0.6208  0.6276  0.1812
  514MOL0     O67719   3.809   4.458   1.982  0.4667  0.2796 -0.3844
  514MOL0     C67720   3.927   4.456   2.050  0.6191 -0.5542 -0.6138
  514MOL0     C67721   4.021   4.355   2.021  0.5587 -0.1676  0.1385
  514MOL0     C67722   4.144   4.346   2.084 -0.6180  0.6981 -0.8896
  514MOL0     C67723   4.163   4.416   2.204  0.4875 -0.2718  0.2907
  514MOL0     O67724   4.274   4.391   2.280  0.6585 -0.2424  1.2288
  514MOL0     C67725   4.361   4.288   2.253 -0.6206 -0.3254 -0.6527
  514MOL0     C67726   4.462   4.329   2.150  0.1142 -0.4560  0.1177
  514MOL0     C67727   4.575   4.228   2.124 -0.5569 -0.3281 -0.4199
  514MOL0     C67728   4.678   4.266   2.006  0.6342 -0.6001 -0.5132
  514MOL0     C67729   4.781   4.156   1.979  0.1203 -0.1984  1.0307
  514MOL0     C67730   4.831   4.184   1.840 -0.4135 -0.3778 -0.5716
  514MOL0     C67731   4.904   4.060   1.774 -0.2594  0.7421  0.3807
  514MOL0     C67732   4.951   4.076   1.633 -0.2640  0.4091 -0.0479
  514MOL0     N67733   4.847   4.105   1.542  1.1360  0.4065 -0.1272
  514MOL0     C67734   4.751   4.017   1.491 -0.5542  0.1078  0.5016
  514MOL0     C67735   4.669   4.096   1.417 -0.8273  0.5033  0.7854
  514MOL0     C67736   4.564   4.025   1.343  0.7768 -0.2587  0.2260
  514MOL0     C67737   4.513   4.100   1.218  0.4873 -0.5366  0.0568
  514MOL0     C67738   4.608   4.104   1.098 -0.6237  0.6477 -0.2203
  514MOL0     C67739   4.606   3.970   1.021 -0.8137 -0.4602  0.3329
  514MOL0     O67740   4.716   3.953   0.929 -0.3510 -0.0753 -0.0151
  514MOL0     C67741   4.712   4.029   0.816 -0.6254 -0.1815  0.3798
  514MOL0     C67742   4.820   4.008   0.727  0.1037 -0.3457  0.5292
  514MOL0     C67743   4.823   4.047   0.598  0.0962  0.1589 -0.0869
  514MOL0     C67744   4.726   4.142   0.560 -0.4282 -1.1743  0.4643
  514MOL0     C67745   4.718   4.167   0.420  0.3068 -0.8391  0.3164
  514MOL0     O67746   4.835   4.128   0.343  0.4114  0.1020  0.3281
  514MOL0     C67747   4.857   4.162   0.212  0.1782  0.3632 -0.0648
  514MOL0     C67748   4.988   4.127   0.168  0.8878  0.2182  0.2538
  514MOL0     C67749   5.025   4.146   0.039 -0.0458  0.4977 -0.0319
  514MOL0     C67750   4.942   4.208  -0.053  0.1231  1.4464  0.0200
  514MOL0     O67751   4.999   4.252  -0.164 -0.4691  0.2522  0.2213
  514MOL0     C67752   5.101   4.351  -0.142  0.6174 -0.3743  0.0244
  514MOL0     C67753   5.130   4.413  -0.282  0.1487  0.0843 -0.1478
  514MOL0     C67754   5.001   4.477  -0.337 -0.5748 -0.0755  0.2460
  514MOL0     C67755   5.035   4.498  -0.489 -0.2287  0.8830  0.2444
  514MOL0     C67756   4.921   4.562  -0.565 -0.3351  0.1635  0.1081
  514MOL0     C67757   4.935   4.553  -0.717  0.0788  0.0707  0.8194
  514MOL0     C67758   4.852   4.669  -0.786 -0.3796  0.0695  0.0959
  514MOL0     C67759   4.930   4.733  -0.913 -0.7129 -0.0561  0.2485
  514MOL0    Cl67760   5.072   4.804  -0.842  0.3473  0.4174  0.5549
  514MOL0     C67761   4.817   4.248  -0.003 -0.0107  0.5865  0.1863
  514MOL0     C67762   4.773   4.230   0.129  0.7456  0.6686  0.7084
  514MOL0     O67763   4.617   4.224   0.379 -0.5253  0.0078  1.0798
  514MOL0     C67764   4.625   4.183   0.652  0.0979 -0.5421 -0.3418
  514MOL0     C67765   4.627   4.129   0.783  0.2460  0.0128  0.3132
  514MOL0     N67766   4.709   4.228   1.419 -1.0870 -0.0684 -0.0522
  514MOL0     N67767   4.824   4.229   1.495  0.3149 -1.3335  0.2097
  514MOL0     C67768   4.072   4.508   2.239  0.7258  0.5737 -0.4658
  514MOL0     C67769   3.951   4.532   2.169 -0.0954  0.8867 -1.1834
  514MOL0     C67770   3.617   4.559   1.881 -0.5219 -0.4789  0.4813
  514MOL0     C67771   3.568   4.662   1.800  0.5699 -0.3848  0.4046
  514MOL0     C67772   3.450   4.645   1.731  0.7743  0.6089 -0.7806
  514MOL0     C67773   3.382   4.518   1.738  0.0397  0.8210 -0.3990
  514MOL0     O67774   3.276   4.505   1.648  0.7434 -0.1729  0.3579
  514MOL0     C67775   3.271   4.377   1.585  0.1236 -0.2995 -0.1044
  514MOL0     C67776   3.161   4.371   1.485 -0.4469 -1.7634  0.2618
  514MOL0     C67777   3.178   4.478   1.358  0.9171 -0.0904  0.3855
  514MOL0     C67778   3.057   4.456   1.269  0.7110 -0.2543 -0.4738
  514MOL0     C67779   3.053   4.312   1.229  1.0281 -0.4894 -0.5551
  514MOL0     C67780   3.015   4.201   1.191 -0.7412  0.6285 -0.3245
  514MOL0     C67781   3.433   4.419   1.825 -0.1269  0.1038  0.1546
  514MOL0     C67782   3.553   4.438   1.895 -0.4763  0.3125  0.2157
  514MOL0     H67783   4.000   4.288   1.939 -0.8003 -0.1051  0.4066
  514MOL0     H67784   4.216   4.268   2.061 -0.6537  0.5490 -0.5036
  514MOL0     H67785   4.319   4.189   2.230 -0.5160 -0.3155 -0.8908
  514MOL0     H67786   4.420   4.286   2.346 -0.0312  3.4044 -0.7912
  514MOL0     H67787   4.501   4.432   2.154  2.3792 -1.2766  0.8965
  514MOL0     H67788   4.407   4.330   2.056  2.1900  0.4594 -1.1740
  514MOL0     H67789   4.526   4.136   2.090  0.0867 -0.9784  0.3704
  514MOL0     H67790   4.624   4.214   2.221 -0.5275  0.0413 -0.3828
  514MOL0     H67791   4.612   4.278   1.919  1.5518 -2.9017 -1.6149
  514MOL0     H67792   4.724   4.355   2.049 -1.7885 -0.2174  1.5913
  514MOL0     H67793   4.732   4.059   1.973  1.8508 -1.0241 -1.1487
  514MOL0     H67794   4.861   4.153   2.053  0.0184 -1.3839  1.1035
  514MOL0     H67795   4.903   4.266   1.842  1.5766 -1.9873  2.5608
  514MOL0     H67796   4.758   4.225   1.769 -0.9227  0.2289  0.2768
  514MOL0     H67797   4.984   4.038   1.846 -0.5626 -0.7085  0.2935
  514MOL0     H67798   4.825   3.984   1.774 -1.0897  1.5757  1.1658
  514MOL0     H67799   4.982   3.982   1.587  1.6298  0.2121  1.5161
  514MOL0     H67800   5.036   4.143   1.646  0.7750 -1.5078  5.7049
  514MOL0     H67801   4.741   3.911   1.508  1.4677  0.0340  1.6112
  514MOL0     H67802   4.479   4.019   1.411 -0.9197  0.9942 -1.6474
  514MOL0     H67803   4.597   3.925   1.313 -1.7764  0.1719 -5.2494
  514MOL0     H67804   4.497   4.203   1.251  1.8150  1.0028 -3.5222
  514MOL0     H67805   4.417   4.058   1.186  0.5718  0.2949 -1.3816
  514MOL0     H67806   4.577   4.185   1.031  0.9445  0.4781 -1.2100
  514MOL0     H67807   4.706   4.133   1.138 -1.2702 -0.6806  2.5712
  514MOL0     H67808   4.511   3.974   0.966 -0.0765 -1.4002 -1.0574
  514MOL0     H67809   4.592   3.882   1.085 -1.0082 -0.6384  0.0452
  514MOL0     H67810   4.902   3.944   0.758 -0.8447 -1.1055  1.4958
  514MOL0     H67811   4.896   4.002   0.532 -1.8587  0.3608 -2.5245
  514MOL0     H67812   5.055   4.077   0.237 -1.1386  0.2989  2.4098
  514MOL0     H67813   5.128   4.123   0.014 -0.1914 -1.2921  0.8490
  514MOL0     H67814   5.192   4.304  -0.105  0.4641  2.1632  4.2434
  514MOL0     H67815   5.061   4.434  -0.082  0.0858 -0.2351 -0.5112
  514MOL0     H67816   5.176   4.338  -0.346  1.1694 -1.2728  2.0418
  514MOL0     H67817   5.206   4.488  -0.259  1.9490 -1.3084 -1.2971
  514MOL0     H67818   4.964   4.565  -0.284  2.0556  1.0286  0.3704
  514MOL0     H67819   4.919   4.405  -0.327 -0.7235  0.3751  2.8965
  514MOL0     H67820   5.122   4.564  -0.503 -0.7144  1.2220 -1.4232
  514MOL0     H67821   5.057   4.402  -0.536 -1.0074  0.1550  1.3306
  514MOL0     H67822   4.934   4.665  -0.530  3.2794  0.3393 -1.3028
  514MOL0     H67823   4.827   4.513  -0.539  0.4108 -1.2351  0.2960
  514MOL0     H67824   4.903   4.453  -0.749 -0.2083  0.5296 -0.3860
  514MOL0     H67825   5.039   4.557  -0.749 -0.1355 -3.6471 -0.8858
  514MOL0     H67826   4.766   4.608  -0.816  0.9936 -1.5777 -0.6012
  514MOL0     H67827   4.801   4.735  -0.714 -1.1031 -0.7907  0.3909
  514MOL0     H67828   4.868   4.792  -0.981  3.7574  1.2790 -3.1462
  514MOL0     H67829   4.963   4.652  -0.978  0.1698  2.5628 -2.8072
  514MOL0     H67830   4.753   4.311  -0.065  1.4367 -0.0599 -2.0713
  514MOL0     H67831   4.677   4.273   0.152  0.0748  0.4099 -1.4020
  514MOL0     H67832   4.536   4.242   0.630  1.4451  1.3832 -0.8993
  514MOL0     H67833   4.546   4.156   0.849  0.5794  1.2109  0.2640
  514MOL0     H67834   4.081   4.563   2.332  2.8095 -0.8477  0.2216
  514MOL0     H67835   3.887   4.612   2.204  0.3632  1.7865 -2.3334
  514MOL0     H67836   3.627   4.751   1.779  1.7394 -0.2724  3.6912
  514MOL0     H67837   3.422   4.720   1.657  1.8904  2.0898  0.2417
  514MOL0     H67838   3.246   4.296   1.655 -1.3046 -0.4162 -0.7063
  514MOL0     H67839   3.366   4.352   1.538 -0.3322 -0.8904 -0.7404
  514MOL0     H67840   3.168   4.268   1.447  3.9112 -1.0074 -1.5662
  514MOL0     H67841   3.066   4.385   1.537 -0.8865 -0.6659 -0.7865
  514MOL0     H67842   3.271   4.454   1.305  0.2355  1.2508 -1.5475
  514MOL0     H67843   3.169   4.581   1.393 -0.8047  0.3517 -1.2149
  514MOL0     H67844   2.960   4.483   1.313  0.1940 -0.6275 -1.3424
  514MOL0     H67845   3.060   4.519   1.180 -4.0157  2.3861  0.8767
  514MOL0     H67846   2.989   4.106   1.149  2.1589  0.4713 -2.0197
  514MOL0     H67847   3.379   4.327   1.846  1.5455 -0.6429  1.4298
  514MOL0     H67848   3.595   4.360   1.958  0.7296 -0.1724 -1.1492
  515MOL0     O67849   7.693   4.423   4.011 -0.1336 -0.2370  0.8046
  515MOL0     C67850   7.656   4.496   4.101 -0.6172  0.7112 -1.3812
  515MOL0     O67851   7.555   4.584   4.100 -0.3776  0.8165 -0.5105
  515MOL0     C67852   7.480   4.610   3.985  0.4860  1.0308 -0.5279
  515MOL0     C67853   7.402   4.516   3.913  0.7331 -0.8781 -0.5963
  515MOL0     C67854   7.335   4.557   3.800  0.2449 -0.6484 -0.1743
  515MOL0     C67855   7.317   4.691   3.777 -0.7809  0.3806  0.1367
  515MOL0     O67856   7.233   4.739   3.673 -0.5252  0.0732  0.2112
  515MOL0     C67857   7.152   4.846   3.709  0.1675 -0.5514 -0.0015
  515MOL0     C67858   7.011   4.804   3.661 -1.3925  0.6449  0.8185
  515MOL0     C67859   6.914   4.920   3.693 -1.4682  0.2244  0.4823
  515MOL0     C67860   6.786   4.915   3.616  0.1097  0.1609 -0.1053
  515MOL0     C67861   6.711   4.794   3.643  0.9195  0.1776  0.8905
  515MOL0     C67862   6.636   4.746   3.520 -0.0529 -0.0508  1.0146
  515MOL0     C67863   6.594   4.596   3.522  0.6628 -0.2163  0.0169
  515MOL0     C67864   6.702   4.496   3.485  0.4239  0.2682  0.0594
  515MOL0     N67865   6.660   4.354   3.460 -0.1467 -0.1099 -0.5768
  515MOL0     C67866   6.536   4.300   3.478  0.8280 -0.0615  0.5050
  515MOL0     C67867   6.549   4.177   3.424  0.2003  0.8413  1.0578
  515MOL0     C67868   6.442   4.070   3.417 -0.1774  0.7298 -0.4867
  515MOL0     C67869   6.310   4.131   3.364  1.1217 -0.1549 -0.5366
  515MOL0     C67870   6.209   4.020   3.341  0.7183  0.0933 -0.0011
  515MOL0     C67871   6.060   4.070   3.332  0.5154 -0.5016  0.4218
  515MOL0     O67872   5.989   4.026   3.219  0.4837 -0.1638 -0.0451
  515MOL0     C67873   5.953   3.893   3.216 -1.4448  0.1302  0.0354
  515MOL0     C67874   5.894   3.859   3.098  0.0884 -0.8740  0.5949
  515MOL0     C67875   5.900   3.727   3.054  0.1320 -0.9617 -0.5405
  515MOL0     C67876   5.932   3.621   3.136  0.0084  0.4394 -0.9421
  515MOL0     C67877   5.927   3.482   3.081 -0.2766 -0.5123  0.2186
  515MOL0     O67878   5.906   3.379   3.168 -0.2567  0.8024 -0.6659
  515MOL0     C67879   5.995   3.273   3.141 -0.9504 -0.7996  0.2254
  515MOL0     C67880   5.943   3.146   3.126  1.1217 -0.6404 -0.5538
  515MOL0     C67881   6.013   3.032   3.084  0.2312 -1.0399 -0.7993
  515MOL0     C67882   6.152   3.035   3.074 -0.6613 -0.3074 -0.6471
  515MOL0     O67883   6.215   2.913   3.058 -0.8373  0.0255 -0.6306
  515MOL0     C67884   6.327   2.884   3.130 -0.1024  0.2180  0.5531
  515MOL0     C67885   6.444   2.896   3.031  0.1221 -0.0635  0.4762
  515MOL0     C67886   6.579   2.867   3.091 -0.6425 -0.3189  0.4482
  515MOL0     C67887   6.642   2.969   3.190  1.1305  0.0037  0.6221
  515MOL0     C67888   6.776   2.925   3.231  0.1749 -0.8904  0.4648
  515MOL0     C67889   6.844   3.030   3.318 -1.0188  0.4624 -0.0539
  515MOL0     C67890   6.906   3.151   3.236  0.1633 -0.2152  0.2662
  515MOL0     C67891   7.022   3.222   3.307 -0.6630 -0.7163 -0.2170
  515MOL0    Cl67892   6.976   3.335   3.430  0.5465 -0.2584 -0.0555
  515MOL0     C67893   6.211   3.151   3.108  0.7920  0.0771  0.0913
  515MOL0     C67894   6.140   3.274   3.138 -0.3306 -0.0053 -0.0453
  515MOL0     O67895   5.933   3.467   2.958 -0.0119  0.1369  0.2769
  515MOL0     C67896   5.979   3.655   3.266  0.4636  0.4496  0.4535
  515MOL0     C67897   5.993   3.783   3.301 -0.2310 -0.7218  0.2321
  515MOL0     N67898   6.676   4.150   3.388 -0.4196 -0.1033 -0.6357
  515MOL0     N67899   6.737   4.261   3.404  0.9749  0.2953  0.4442
  515MOL0     C67900   7.405   4.776   3.845  0.3008 -0.2960  0.6680
  515MOL0     C67901   7.481   4.739   3.945 -0.8191 -0.6791  0.2516
  515MOL0     C67902   7.739   4.498   4.223  0.6381  0.6177 -0.0559
  515MOL0     C67903   7.859   4.421   4.239  1.0250 -0.4194 -0.3659
  515MOL0     C67904   7.923   4.417   4.357  0.2925  0.5643 -0.2605
  515MOL0     C67905   7.875   4.491   4.466 -0.0857  0.2488  0.1607
  515MOL0     O67906   7.925   4.499   4.590  0.4902  0.1612 -0.2868
  515MOL0     C67907   8.021   4.396   4.613 -0.3275 -0.4358 -0.9485
  515MOL0     C67908   8.108   4.418   4.747  0.6809  1.0220 -0.2208
  515MOL0     C67909   8.174   4.555   4.773  0.2279 -0.0864 -0.0644
  515MOL0     C67910   8.080   4.668   4.823 -0.4619 -0.7000  0.2097
  515MOL0     C67911   7.991   4.625   4.927 -0.3643  0.7865 -0.7536
  515MOL0     C67912   7.918   4.568   5.004  0.5786  0.0423  0.3322
  515MOL0     C67913   7.756   4.563   4.455 -0.3685  0.7675  0.2235
  515MOL0     C67914   7.693   4.572   4.338  1.1672  0.5336  0.1767
  515MOL0     H67915   7.394   4.412   3.942 -2.3165 -0.3254  0.9653
  515MOL0     H67916   7.291   4.478   3.740 -0.6965 -2.2064  2.3849
  515MOL0     H67917   7.182   4.942   3.665 -0.0741  0.9174  2.8430
  515MOL0     H67918   7.142   4.855   3.817 -1.2529  3.4241 -0.2868
  515MOL0     H67919   6.988   4.712   3.716  0.3344 -0.6133 -0.4540
  515MOL0     H67920   6.999   4.785   3.554 -1.1287  1.2132  0.6841
  515MOL0     H67921   6.969   5.013   3.677 -0.4597  0.1639  3.0570
  515MOL0     H67922   6.896   4.916   3.801  1.9599 -1.9222  1.1233
  515MOL0     H67923   6.737   5.008   3.647 -0.8910 -1.4043  3.5091
  515MOL0     H67924   6.800   4.912   3.508  1.7971  0.7204  0.0537
  515MOL0     H67925   6.653   4.809   3.735 -0.0140  2.6946 -0.0193
  515MOL0     H67926   6.775   4.708   3.665 -0.0898 -1.3634 -1.7988
  515MOL0     H67927   6.694   4.768   3.430 -3.4336  3.1931 -0.6481
  515MOL0     H67928   6.550   4.814   3.516 -1.0058 -0.9167  3.9630
  515MOL0     H67929   6.561   4.569   3.623 -1.4922  2.3367  0.0950
  515MOL0     H67930   6.504   4.570   3.465  2.7879  0.5336 -4.0399
  515MOL0     H67931   6.778   4.483   3.562 -2.3453  0.1618  3.0260
  515MOL0     H67932   6.746   4.532   3.392  2.3345  0.5757  1.0519
  515MOL0     H67933   6.445   4.344   3.516  1.7880  0.1490  2.6842
  515MOL0     H67934   6.429   4.028   3.517  0.6361  0.8321 -0.3263
  515MOL0     H67935   6.478   3.998   3.342 -0.7941 -0.5400  0.3942
  515MOL0     H67936   6.327   4.187   3.272 -2.3349  1.3910 -0.3847
  515MOL0     H67937   6.281   4.204   3.440  3.1685 -0.2112  0.3592
  515MOL0     H67938   6.246   3.962   3.256  0.7325 -0.3208  0.2823
  515MOL0     H67939   6.209   3.942   3.418 -0.4123 -0.0756 -0.1511
  515MOL0     H67940   6.048   4.178   3.323  0.5027 -0.6724 -2.7685
  515MOL0     H67941   6.006   4.045   3.424  0.9815 -2.6758  0.1594
  515MOL0     H67942   5.855   3.941   3.039 -1.3647 -1.5796  0.5295
  515MOL0     H67943   5.863   3.691   2.958  0.2617 -1.7997 -0.2857
  515MOL0     H67944   5.839   3.127   3.152  1.5198 -0.7437  1.0738
  515MOL0     H67945   5.953   2.942   3.075 -0.6734 -0.5965  0.4001
  515MOL0     H67946   6.336   2.782   3.168  1.7069 -0.9996 -2.7390
  515MOL0     H67947   6.352   2.951   3.213  0.8589 -1.1178  1.3821
  515MOL0     H67948   6.442   2.995   2.984  0.6045 -1.0665 -1.7874
  515MOL0     H67949   6.425   2.821   2.954  2.8351  1.5257 -1.9348
  515MOL0     H67950   6.651   2.856   3.008 -0.6990 -2.8155  0.6713
  515MOL0     H67951   6.584   2.768   3.137 -2.9937 -0.4574  0.4889
  515MOL0     H67952   6.634   3.067   3.141  0.4591  0.6646  2.0010
  515MOL0     H67953   6.575   2.974   3.276 -0.1415  1.7298 -0.3773
  515MOL0     H67954   6.834   2.913   3.139 -2.9791  2.9434 -2.3697
  515MOL0     H67955   6.767   2.835   3.293 -0.3044 -0.7648  0.5756
  515MOL0     H67956   6.921   2.978   3.378 -1.9223 -0.2567  0.5075
  515MOL0     H67957   6.771   3.077   3.384 -1.5110 -0.9947  0.4778
  515MOL0     H67958   6.961   3.102   3.155  2.2480 -1.0967  2.1160
  515MOL0     H67959   6.833   3.221   3.193  0.6459  0.5344  0.6580
  515MOL0     H67960   7.078   3.269   3.226  1.1355 -2.6540 -0.1806
  515MOL0     H67961   7.091   3.145   3.345 -0.6763  0.4618  2.3674
  515MOL0     H67962   6.319   3.157   3.116  0.7660 -0.1823  0.6979
  515MOL0     H67963   6.187   3.370   3.156 -0.9705  0.0711  1.3415
  515MOL0     H67964   6.002   3.576   3.337 -1.9790 -0.9055 -0.1176
  515MOL0     H67965   6.019   3.803   3.405 -0.6297 -1.1194  0.4127
  515MOL0     H67966   7.407   4.879   3.811 -1.0375 -0.4607  0.0333
  515MOL0     H67967   7.539   4.817   3.995 -0.5250 -0.3456 -0.5989
  515MOL0     H67968   7.881   4.347   4.163 -0.9682 -2.4933  0.9314
  515MOL0     H67969   7.997   4.338   4.368 -0.2549  0.2742  1.7896
  515MOL0     H67970   8.101   4.404   4.539  0.9810 -0.4374  0.4069
  515MOL0     H67971   7.985   4.293   4.603  0.9148 -0.8881 -1.0707
  515MOL0     H67972   8.040   4.394   4.829  0.0155 -0.6059 -1.2015
  515MOL0     H67973   8.187   4.342   4.751 -0.6919 -0.4038  1.4759
  515MOL0     H67974   8.218   4.596   4.682 -1.2790  0.3721 -0.6238
  515MOL0     H67975   8.251   4.542   4.849 -2.0531  1.3014  2.6335
  515MOL0     H67976   8.142   4.742   4.875 -2.4431  0.0519  1.6505
  515MOL0     H67977   8.020   4.716   4.745 -0.1929 -0.1899  0.3078
  515MOL0     H67978   7.839   4.508   5.046 -2.7284  1.4547 -3.2192
  515MOL0     H67979   7.734   4.614   4.548  0.1715  0.5211  0.4901
  515MOL0     H67980   7.603   4.631   4.338 -1.0788 -2.6397  0.0349
  516MOL0     O67981   4.605   9.041   3.042 -0.0725 -0.5489  0.0556
  516MOL0     C67982   4.673   9.081   3.139  0.7621  0.7305 -0.3197
  516MOL0     O67983   4.632   9.109   3.270 -0.4811 -0.3535  0.7797
  516MOL0     C67984   4.494   9.092   3.294 -0.8715  0.6173  0.7583
  516MOL0     C67985   4.432   9.201   3.349 -0.6742  0.6108 -0.6301
  516MOL0     C67986   4.294   9.205   3.374  1.4924  0.2576 -0.4623
  516MOL0     C67987   4.215   9.085   3.349 -0.5692  0.0708  0.6196
  516MOL0     O67988   4.086   9.067   3.363 -0.8794 -0.5062  0.3045
  516MOL0     C67989   4.022   9.105   3.487 -0.6064  0.2624 -0.3876
  516MOL0     C67990   3.938   9.228   3.472  0.8094 -0.5176 -0.1014
  516MOL0     C67991   3.797   9.181   3.445  0.8119  0.8721  0.4921
  516MOL0     C67992   3.777   9.096   3.317 -0.7688  0.5359 -0.2520
  516MOL0     C67993   3.814   9.189   3.197  0.7735  0.1250 -1.2239
  516MOL0     C67994   3.836   9.108   3.068 -0.7680 -0.7876 -0.1288
  516MOL0     C67995   3.819   9.185   2.942  0.3807  0.0446  0.3054
  516MOL0     C67996   3.672   9.215   2.902 -0.1245  0.0195  0.6740
  516MOL0     N67997   3.651   9.276   2.767 -0.1528 -0.0725 -0.3058
  516MOL0     C67998   3.607   9.202   2.656 -0.6356 -0.2248  0.4962
  516MOL0     C67999   3.614   9.290   2.557  0.7292 -0.2969 -1.1340
  516MOL0     C68000   3.569   9.263   2.420  0.1076  0.2522  1.4916
  516MOL0     C68001   3.650   9.171   2.329 -0.4264 -0.4429 -0.5672
  516MOL0     C68002   3.784   9.230   2.292 -0.3854  0.2025  0.8662
  516MOL0     C68003   3.844   9.144   2.174 -0.7381 -0.3921  0.1282
  516MOL0     O68004   3.975   9.195   2.154  0.0088 -0.5511 -0.2729
  516MOL0     C68005   4.062   9.137   2.059 -0.7685  0.6202 -0.5817
  516MOL0     C68006   4.192   9.195   2.052 -0.3662  0.8862 -0.9453
  516MOL0     C68007   4.280   9.135   1.964  0.0969 -0.2946 -0.2204
  516MOL0     C68008   4.250   9.031   1.879  0.3360 -0.1079 -0.2827
  516MOL0     C68009   4.344   9.007   1.776 -0.6014 -0.0092 -0.1418
  516MOL0     O68010   4.449   9.098   1.747 -0.2907  0.0857 -0.4479
  516MOL0     C68011   4.540   9.068   1.642 -0.1588  0.1848 -0.5376
  516MOL0     C68012   4.615   9.174   1.601  0.0875 -0.3018 -0.0288
  516MOL0     C68013   4.720   9.162   1.508  0.0975 -0.7715  1.0916
  516MOL0     C68014   4.753   9.035   1.460 -1.5311  0.7670  0.3405
  516MOL0     O68015   4.867   9.031   1.379  0.1381 -0.4848 -0.5660
  516MOL0     C68016   4.982   8.981   1.454 -0.8092 -0.2764 -0.6979
  516MOL0     C68017   5.072   9.109   1.485 -0.1826 -0.0359 -0.2920
  516MOL0     C68018   5.133   9.159   1.361  0.9807  0.3084 -0.7415
  516MOL0     C68019   5.225   9.273   1.380 -0.8343 -0.0923 -0.3959
  516MOL0     C68020   5.295   9.302   1.253 -0.3623 -0.7936  0.3512
  516MOL0     C68021   5.407   9.400   1.282 -0.1151  0.2856 -0.2249
  516MOL0     C68022   5.368   9.546   1.243 -0.9418 -0.2091  0.6242
  516MOL0     C68023   5.455   9.650   1.328 -0.0110  0.5441 -0.2497
  516MOL0    Cl68024   5.367   9.710   1.473  0.3024 -0.3749 -0.1061
  516MOL0     C68025   4.686   8.917   1.502 -0.5880 -0.5808 -0.1271
  516MOL0     C68026   4.569   8.939   1.586  0.6726 -0.0671  0.2396
  516MOL0     O68027   4.301   8.925   1.696 -0.0520  0.0847  0.1828
  516MOL0     C68028   4.130   8.976   1.893  0.1365  0.4355 -0.3736
  516MOL0     C68029   4.033   9.026   1.980  0.3219  0.4788  0.0868
  516MOL0     N68030   3.655   9.413   2.608 -0.0606 -0.0734  0.8708
  516MOL0     N68031   3.682   9.405   2.731  0.1546 -0.5989 -0.1795
  516MOL0     C68032   4.284   8.969   3.293  0.2452  0.5710  0.3602
  516MOL0     C68033   4.422   8.971   3.263  0.3803 -0.1059 -0.1311
  516MOL0     C68034   4.820   9.105   3.120  0.4036 -0.1261  0.2086
  516MOL0     C68035   4.871   9.212   3.194  0.0513 -0.3676  0.4241
  516MOL0     C68036   5.006   9.236   3.192  0.1365  0.1493 -0.8463
  516MOL0     C68037   5.093   9.152   3.118  0.0625  0.9328 -0.7443
  516MOL0     O68038   5.230   9.169   3.106 -0.2768 -0.3545  0.1233
  516MOL0     C68039   5.304   9.254   3.204  0.4562  0.1526  0.4564
  516MOL0     C68040   5.442   9.286   3.154  0.8766  0.1843  0.3644
  516MOL0     C68041   5.522   9.362   3.252 -0.2373  0.3922  0.2834
  516MOL0     C68042   5.673   9.334   3.241  0.2638  0.7350 -0.1104
  516MOL0     C68043   5.731   9.372   3.369 -0.2524 -0.1624 -0.0314
  516MOL0     C68044   5.787   9.392   3.476  0.5349 -1.0335 -0.5062
  516MOL0     C68045   5.038   9.053   3.046 -0.1260  0.3980  0.0290
  516MOL0     C68046   4.902   9.024   3.047 -0.0128 -0.5120 -0.5484
  516MOL0     H68047   4.503   9.274   3.387  2.7705 -3.0775  0.7842
  516MOL0     H68048   4.265   9.296   3.427 -2.8097 -1.1367 -0.0462
  516MOL0     H68049   4.100   9.121   3.563  2.4481 -5.6590 -1.6049
  516MOL0     H68050   3.964   9.016   3.515  2.9608 -2.4752 -0.8668
  516MOL0     H68051   3.982   9.308   3.411  0.0235 -0.6507 -0.8536
  516MOL0     H68052   3.926   9.275   3.571  4.1698  0.5388 -0.0703
  516MOL0     H68053   3.729   9.266   3.439  1.0867  0.9840 -3.0942
  516MOL0     H68054   3.766   9.118   3.529 -0.5262  2.2752  1.0980
  516MOL0     H68055   3.835   9.004   3.319  0.7533  1.4353 -1.2637
  516MOL0     H68056   3.677   9.062   3.285 -1.6520  1.4356  1.4357
  516MOL0     H68057   3.904   9.245   3.226 -0.6986  1.1349  1.8678
  516MOL0     H68058   3.737   9.261   3.170 -0.2755 -0.9894 -1.2923
  516MOL0     H68059   3.767   9.023   3.069 -1.3556 -0.4847 -3.3829
  516MOL0     H68060   3.940   9.075   3.073 -1.5302 -4.5711 -3.6715
  516MOL0     H68061   3.870   9.280   2.958  1.2889 -0.5880  1.3246
  516MOL0     H68062   3.874   9.129   2.865 -1.4078 -2.3699  0.6398
  516MOL0     H68063   3.632   9.289   2.973 -2.6599  0.8328 -1.4556
  516MOL0     H68064   3.608   9.128   2.920 -2.3234  1.3005 -0.4202
  516MOL0     H68065   3.573   9.100   2.649 -2.1871  0.2621  0.5121
  516MOL0     H68066   3.548   9.356   2.366  0.8361 -1.0508 -1.2086
  516MOL0     H68067   3.465   9.228   2.422  0.3765 -1.2243 -2.1745
  516MOL0     H68068   3.604   9.124   2.241 -0.4009 -2.2810  0.3602
  516MOL0     H68069   3.691   9.091   2.391 -0.5791 -0.4170 -0.4309
  516MOL0     H68070   3.771   9.329   2.248  0.3408  0.8027  1.9488
  516MOL0     H68071   3.854   9.246   2.374 -1.2705  3.0355  1.1792
  516MOL0     H68072   3.785   9.162   2.084 -1.0929  1.1057  0.6369
  516MOL0     H68073   3.845   9.035   2.190  0.9891 -0.7973 -2.2089
  516MOL0     H68074   4.232   9.275   2.113  0.9668 -1.0619  0.8780
  516MOL0     H68075   4.379   9.177   1.950  1.7899 -3.7920  0.0319
  516MOL0     H68076   4.581   9.271   1.636 -2.7272 -0.5124 -1.8262
  516MOL0     H68077   4.772   9.253   1.479 -1.1168  0.6945  3.1763
  516MOL0     H68078   5.041   8.904   1.403 -2.1796 -2.4907  0.8469
  516MOL0     H68079   4.956   8.948   1.555  0.3745 -0.2004 -0.3536
  516MOL0     H68080   5.150   9.068   1.550  0.3331  0.7593 -0.3974
  516MOL0     H68081   5.015   9.179   1.548 -1.6828 -0.4811 -1.1145
  516MOL0     H68082   5.062   9.194   1.286  1.4907  2.7523 -0.1912
  516MOL0     H68083   5.188   9.075   1.318  2.1730 -0.0796  1.3902
  516MOL0     H68084   5.177   9.359   1.428  0.4424  0.4348 -0.0138
  516MOL0     H68085   5.295   9.244   1.460 -0.5402 -0.3623 -0.7479
  516MOL0     H68086   5.229   9.363   1.190 -1.6228 -1.2814  1.1722
  516MOL0     H68087   5.338   9.215   1.202  4.6203  0.4880  1.8223
  516MOL0     H68088   5.482   9.361   1.213  0.1445 -0.3382  0.4006
  516MOL0     H68089   5.442   9.403   1.386 -0.9355 -2.9597  0.2638
  516MOL0     H68090   5.396   9.559   1.138  2.6137  0.0905  1.4564
  516MOL0     H68091   5.264   9.569   1.264 -1.0994  1.7956 -1.9604
  516MOL0     H68092   5.473   9.738   1.266  1.5109  0.4888  0.0635
  516MOL0     H68093   5.540   9.594   1.368  0.3399  0.5709 -0.9494
  516MOL0     H68094   4.706   8.818   1.462 -2.0393 -0.6487 -0.7435
  516MOL0     H68095   4.502   8.854   1.580 -2.7162  2.4549 -2.3192
  516MOL0     H68096   4.101   8.891   1.832 -0.5692  1.5850 -1.6693
  516MOL0     H68097   3.937   8.976   1.986  0.7705 -0.4723 -0.4162
  516MOL0     H68098   4.231   8.879   3.264 -0.1107  1.0983 -0.6933
  516MOL0     H68099   4.464   8.878   3.225 -2.2974 -0.9064 -1.3177
  516MOL0     H68100   4.799   9.279   3.241 -2.9437 -2.5264 -0.7610
  516MOL0     H68101   5.033   9.332   3.234 -1.2802  1.8480 -3.5293
  516MOL0     H68102   5.301   9.198   3.298 -0.3487 -0.5016  0.0612
  516MOL0     H68103   5.260   9.349   3.234 -0.9403 -0.7908  1.5579
  516MOL0     H68104   5.489   9.191   3.126 -1.5301 -0.7625 -0.6866
  516MOL0     H68105   5.441   9.345   3.062  0.6507  2.1743  1.5923
  516MOL0     H68106   5.493   9.338   3.355  3.9763  0.6002  1.6943
  516MOL0     H68107   5.522   9.469   3.231  0.0139  0.2586 -0.4528
  516MOL0     H68108   5.703   9.230   3.221 -2.5219  0.3166 -3.0648
  516MOL0     H68109   5.710   9.392   3.156  0.6973 -0.0910 -0.5019
  516MOL0     H68110   5.818   9.424   3.574  0.5445 -1.2442 -0.4381
  516MOL0     H68111   5.111   9.013   2.976  0.3467  0.3689  0.5352
  516MOL0     H68112   4.862   8.934   3.000 -3.3373  0.8776 -0.6806
  517MOL0     O68113   7.776   4.043   5.881  0.2750 -0.4141 -0.2788
  517MOL0     C68114   7.765   4.015   5.762 -0.7458  0.5968 -0.2020
  517MOL0     O68115   7.794   4.105   5.660 -0.3055  0.2589 -0.0618
  517MOL0     C68116   7.859   4.225   5.683 -0.7350 -0.2203 -0.7035
  517MOL0     C68117   7.969   4.256   5.611  0.4867 -0.3930  0.2250
  517MOL0     C68118   8.035   4.378   5.633  0.8677  1.0300 -0.1279
  517MOL0     C68119   7.985   4.468   5.737  0.7341 -0.3043 -0.3475
  517MOL0     O68120   8.054   4.581   5.786  0.4350 -0.2936  0.0289
  517MOL0     C68121   8.182   4.604   5.736 -0.3992  0.1885  0.1537
  517MOL0     C68122   8.216   4.744   5.779 -0.4039  0.2731  0.3971
  517MOL0     C68123   8.364   4.755   5.792  0.3452 -0.9062  0.8527
  517MOL0     C68124   8.400   4.897   5.845 -0.5451 -0.0243 -0.2898
  517MOL0     C68125   8.545   4.899   5.892  1.2270 -0.0659 -0.0939
  517MOL0     C68126   8.599   5.043   5.893  0.3486 -0.0202  0.4121
  517MOL0     C68127   8.740   5.050   5.952 -1.2473 -0.0189 -0.1396
  517MOL0     C68128   8.788   5.197   5.977 -0.5376  0.0590 -0.8294
  517MOL0     N68129   8.919   5.197   6.039  0.1973 -0.0955 -0.7677
  517MOL0     C68130   9.036   5.202   5.966  0.1019  0.2865  0.2448
  517MOL0     C68131   9.127   5.128   6.044  1.3375 -0.6805 -0.3056
  517MOL0     C68132   9.273   5.121   6.011 -0.1021 -0.2206 -0.0687
  517MOL0     C68133   9.310   5.193   5.886 -1.0510 -0.5852 -0.2610
  517MOL0     C68134   9.458   5.166   5.847  0.7103  0.9085  0.4463
  517MOL0     C68135   9.513   5.221   5.718 -1.1405  0.2368  0.7855
  517MOL0     O68136   9.658   5.213   5.713 -0.4436  0.1133  0.8561
  517MOL0     C68137   9.713   5.251   5.591  0.0196  0.0065 -0.1270
  517MOL0     C68138   9.651   5.264   5.467  1.2890 -1.2842  0.4716
  517MOL0     C68139   9.716   5.331   5.354  0.3270  1.0102  0.2162
  517MOL0     C68140   9.848   5.370   5.355  0.7923 -0.0859 -1.0732
  517MOL0     C68141   9.918   5.431   5.239  0.3267 -0.2936  0.1826
  517MOL0     O68142  10.046   5.487   5.259 -0.5654  0.9167  0.2876
  517MOL0     C68143  10.143   5.496   5.159 -0.1765  0.6574 -0.8566
  517MOL0     C68144  10.123   5.448   5.032 -0.7861  0.2773  0.4635
  517MOL0     C68145  10.220   5.473   4.935 -0.0176  0.3256  1.0247
  517MOL0     C68146  10.342   5.540   4.960 -0.4711  0.2434  0.3655
  517MOL0     O68147  10.424   5.522   4.855 -0.4478  0.2125  0.0107
  517MOL0     C68148  10.565   5.548   4.882 -0.2349 -0.6554 -1.0717
  517MOL0     C68149  10.643   5.489   4.764 -0.0682  0.3562 -0.5346
  517MOL0     C68150  10.788   5.548   4.751  0.1643  0.8611  0.2195
  517MOL0     C68151  10.877   5.494   4.868 -0.5152  0.4822  0.1336
  517MOL0     C68152  11.021   5.474   4.817 -0.2690  0.3849 -1.0453
  517MOL0     C68153  11.088   5.604   4.787 -0.0099 -0.7119  0.1269
  517MOL0     C68154  11.239   5.601   4.759 -0.0382  0.3197  0.8345
  517MOL0     C68155  11.310   5.613   4.893 -0.7638  0.2928  0.2836
  517MOL0    Cl68156  11.481   5.615   4.865 -0.2983  0.0848  0.0714
  517MOL0     C68157  10.364   5.600   5.087  0.4028 -0.2612  0.9348
  517MOL0     C68158  10.264   5.578   5.189  0.1786 -0.1564 -0.3462
  517MOL0     O68159   9.855   5.412   5.136 -0.1840  0.9191 -0.0034
  517MOL0     C68160   9.910   5.336   5.479  0.6037 -0.1989 -0.2657
  517MOL0     C68161   9.846   5.291   5.597  0.5062 -0.4639  0.2195
  517MOL0     N68162   9.059   5.097   6.158 -0.1602  0.3177 -0.0224
  517MOL0     N68163   8.942   5.144   6.165  0.1702 -0.2064 -0.0176
  517MOL0     C68164   7.854   4.435   5.792 -0.0581  0.1084 -0.7854
  517MOL0     C68165   7.793   4.319   5.775  0.3664  0.0813  0.0589
  517MOL0     C68166   7.713   3.885   5.721  0.2189 -0.0214  0.4056
  517MOL0     C68167   7.715   3.849   5.587  0.6661 -0.9039 -0.1063
  517MOL0     C68168   7.646   3.728   5.549 -0.2262  0.3077 -0.8025
  517MOL0     C68169   7.582   3.649   5.641  0.2686 -0.0770  0.3246
  517MOL0     O68170   7.505   3.531   5.602  0.2042 -0.9666 -0.5467
  517MOL0     C68171   7.547   3.456   5.487  0.1109  0.6972  0.0315
  517MOL0     C68172   7.691   3.396   5.516 -0.1287 -1.1740  0.6597
  517MOL0     C68173   7.687   3.290   5.623 -0.3223 -0.9250 -0.2836
  517MOL0     C68174   7.828   3.230   5.641  0.0209 -0.1150 -0.6974
  517MOL0     C68175   7.945   3.320   5.683  0.1176 -0.2091  0.2027
  517MOL0     C68176   8.029   3.396   5.715 -0.0460 -0.3524  0.1263
  517MOL0     C68177   7.588   3.684   5.783 -0.0455  0.6371  0.6337
  517MOL0     C68178   7.651   3.804   5.814  0.1933 -0.0834 -0.6903
  517MOL0     H68179   8.000   4.185   5.534 -1.9157  2.1932 -3.4136
  517MOL0     H68180   8.113   4.420   5.570 -0.3854  4.3669  0.3053
  517MOL0     H68181   8.179   4.605   5.627 -0.0540  0.9294  0.1412
  517MOL0     H68182   8.244   4.521   5.772 -0.6146  0.3161  0.8385
  517MOL0     H68183   8.170   4.774   5.874  0.7649 -0.1067  1.0970
  517MOL0     H68184   8.182   4.815   5.703  1.7818  2.5112  1.3641
  517MOL0     H68185   8.414   4.732   5.698 -1.9960 -0.9592 -0.4705
  517MOL0     H68186   8.383   4.672   5.861 -2.9407 -1.5268  1.1923
  517MOL0     H68187   8.376   4.962   5.760 -2.4683  0.7479  0.7725
  517MOL0     H68188   8.333   4.926   5.926 -1.5508 -0.3526 -0.9717
  517MOL0     H68189   8.611   4.845   5.824  0.6869  2.9523 -3.3288
  517MOL0     H68190   8.544   4.862   5.995 -1.7470  0.9155  0.3102
  517MOL0     H68191   8.536   5.115   5.946 -2.0562 -1.7800  0.0751
  517MOL0     H68192   8.602   5.066   5.786 -3.1383 -1.0959 -0.0208
  517MOL0     H68193   8.750   5.002   6.050 -1.1854  3.4797  1.7451
  517MOL0     H68194   8.811   4.996   5.889  0.0208  0.6407  0.6702
  517MOL0     H68195   8.709   5.239   6.040  0.6945  3.1847 -1.1625
  517MOL0     H68196   8.797   5.258   5.886 -0.9989  0.8091 -0.3856
  517MOL0     H68197   9.046   5.221   5.860 -1.1422 -1.2940 -0.2025
  517MOL0     H68198   9.304   5.016   6.012  0.7594  0.0168  1.6001
  517MOL0     H68199   9.324   5.164   6.098 -1.1226 -3.3359  2.2299
  517MOL0     H68200   9.293   5.301   5.890  2.6806  0.1544 -0.6845
  517MOL0     H68201   9.258   5.163   5.794  0.2809  0.8685 -1.5607
  517MOL0     H68202   9.513   5.210   5.930  1.0532 -0.8412  1.1799
  517MOL0     H68203   9.483   5.060   5.841  4.0709  1.5174  1.3890
  517MOL0     H68204   9.482   5.326   5.709 -2.4845 -0.2040  0.0075
  517MOL0     H68205   9.457   5.173   5.638 -0.9023  3.9941 -1.9067
  517MOL0     H68206   9.547   5.238   5.450  0.3135  2.5619 -0.4982
  517MOL0     H68207   9.660   5.339   5.262  2.0165 -0.1396 -0.9630
  517MOL0     H68208  10.034   5.396   5.001 -0.1819 -2.0176  2.2954
  517MOL0     H68209  10.213   5.416   4.843  5.7770 -0.6395  0.7930
  517MOL0     H68210  10.595   5.497   4.974 -1.9426  3.7959  2.3293
  517MOL0     H68211  10.578   5.656   4.877  0.5916 -0.6247  1.0902
  517MOL0     H68212  10.594   5.505   4.668 -3.8932 -3.4616  0.4730
  517MOL0     H68213  10.642   5.382   4.786 -1.0442 -0.1420 -2.7676
  517MOL0     H68214  10.778   5.657   4.759 -1.2733  0.7290  0.3440
  517MOL0     H68215  10.832   5.518   4.655  0.0009  2.2162 -0.3065
  517MOL0     H68216  10.869   5.571   4.945 -1.7937 -0.5740  1.1019
  517MOL0     H68217  10.836   5.398   4.900 -1.8009  0.4325 -1.5464
  517MOL0     H68218  11.030   5.398   4.740  1.4734 -0.3715 -0.1441
  517MOL0     H68219  11.070   5.443   4.910 -2.0443  0.4041 -0.0440
  517MOL0     H68220  11.077   5.670   4.873 -1.2786 -0.9681  0.1816
  517MOL0     H68221  11.029   5.645   4.704  0.9355  0.0123 -0.2028
  517MOL0     H68222  11.262   5.513   4.699  0.2213  1.9453 -1.5569
  517MOL0     H68223  11.273   5.687   4.700 -0.7163 -0.1436 -0.2588
  517MOL0     H68224  11.291   5.527   4.958 -1.3227  1.1361  1.2679
  517MOL0     H68225  11.285   5.699   4.955  4.1102  1.8483  0.4226
  517MOL0     H68226  10.458   5.653   5.100  1.0069 -1.0037 -0.2829
  517MOL0     H68227  10.257   5.620   5.288 -2.8150  0.1266 -0.5983
  517MOL0     H68228  10.015   5.362   5.489  0.7173 -0.7639 -0.0044
  517MOL0     H68229   9.900   5.283   5.690 -0.6340 -1.3713  0.8334
  517MOL0     H68230   7.829   4.517   5.858 -1.3082 -1.0282  0.2230
  517MOL0     H68231   7.700   4.284   5.820  0.9225  0.2304  1.3779
  517MOL0     H68232   7.771   3.905   5.513 -1.9762 -1.9967 -3.1444
  517MOL0     H68233   7.653   3.693   5.447  1.2976 -0.9615 -0.3113
  517MOL0     H68234   7.550   3.521   5.399 -4.5407  2.0384  0.6159
  517MOL0     H68235   7.479   3.373   5.468 -1.6185  1.8250  1.0010
  517MOL0     H68236   7.724   3.351   5.422 -3.0150 -1.1939 -0.4586
  517MOL0     H68237   7.762   3.474   5.544 -0.2893 -1.0689  0.7756
  517MOL0     H68238   7.609   3.219   5.597 -0.2843 -1.1738  0.2798
  517MOL0     H68239   7.649   3.339   5.713 -1.7798  0.3018 -1.5227
  517MOL0     H68240   7.808   3.146   5.708  0.3614 -0.0767 -0.5489
  517MOL0     H68241   7.848   3.180   5.545 -1.5307 -1.1589 -0.5147
  517MOL0     H68242   8.102   3.473   5.726 -2.4877  2.0752  0.2924
  517MOL0     H68243   7.546   3.618   5.858 -0.4180  2.6905  2.3461
  517MOL0     H68244   7.653   3.836   5.918  0.8031 -0.3366 -0.6196
  518MOL0     O68245   6.569   1.845   8.459 -0.1120 -0.7258  0.2123
  518MOL0     C68246   6.542   1.786   8.351  0.4700  0.0612  0.5806
  518MOL0     O68247   6.429   1.724   8.321 -0.2927 -0.4576 -0.5820
  518MOL0     C68248   6.345   1.696   8.427  0.4938 -0.0663 -0.6129
  518MOL0     C68249   6.236   1.785   8.450 -0.8690 -0.6410 -0.7280
  518MOL0     C68250   6.146   1.738   8.544  0.5884 -0.3729 -0.7988
  518MOL0     C68251   6.155   1.611   8.606  0.2984  0.3693 -0.0526
  518MOL0     O68252   6.065   1.567   8.699  0.0786  0.8641 -0.3353
  518MOL0     C68253   5.941   1.513   8.655  0.5192 -0.3380  0.4467
  518MOL0     C68254   5.900   1.397   8.736  0.1974 -0.6210  0.2996
  518MOL0     C68255   5.789   1.310   8.681  1.0142  0.5387  0.7957
  518MOL0     C68256   5.749   1.180   8.765  0.6285 -0.3563 -0.7432
  518MOL0     C68257   5.849   1.065   8.746  0.2555 -0.5149 -0.3369
  518MOL0     C68258   5.791   0.937   8.808  0.3006  0.4543  0.3537
  518MOL0     C68259   5.866   0.826   8.741 -0.5735  0.1980  0.8250
  518MOL0     C68260   6.018   0.821   8.755  0.4273 -0.3030 -0.0324
  518MOL0     N68261   6.081   0.745   8.647 -0.1283 -0.5809  0.5911
  518MOL0     C68262   6.179   0.805   8.566  0.1040 -0.4599 -0.4234
  518MOL0     C68263   6.226   0.702   8.490 -0.4011 -0.1148  0.7394
  518MOL0     C68264   6.317   0.714   8.380  0.2499 -0.0029 -0.3999
  518MOL0     C68265   6.241   0.659   8.260 -0.3843  0.4402 -0.6793
  518MOL0     C68266   6.306   0.678   8.127 -0.3534 -1.0380 -0.0227
  518MOL0     C68267   6.448   0.623   8.094 -0.5489 -0.2360  0.3289
  518MOL0     O68268   6.473   0.482   8.089 -0.1021 -0.3054 -0.2251
  518MOL0     C68269   6.485   0.419   7.965  0.2145 -0.4438  0.1808
  518MOL0     C68270   6.402   0.309   7.946  0.4297 -0.6630  0.5066
  518MOL0     C68271   6.406   0.243   7.818  0.7129 -0.5753 -0.5680
  518MOL0     C68272   6.502   0.288   7.723  0.1510  0.2256  0.9470
  518MOL0     C68273   6.494   0.226   7.582 -1.2615  0.2032 -0.3953
  518MOL0     O68274   6.605   0.249   7.501 -0.4989  0.7892  0.4920
  518MOL0     C68275   6.603   0.198   7.373 -0.4917 -0.4744  0.2481
  518MOL0     C68276   6.646   0.282   7.271 -0.3574  0.2749 -0.6186
  518MOL0     C68277   6.680   0.229   7.140  0.9496  0.1319  0.2424
  518MOL0     C68278   6.676   0.086   7.116  0.2958 -1.5675 -1.0455
  518MOL0     O68279   6.711   0.015   7.005 -0.4851 -0.1273  0.5654
  518MOL0     C68280   6.781   0.076   6.896 -0.3362 -0.9072  0.5058
  518MOL0     C68281   6.822  -0.037   6.802 -0.5178  0.6409 -0.0705
  518MOL0     C68282   6.914  -0.001   6.680 -0.1031 -0.7173 -0.8706
  518MOL0     C68283   6.853   0.106   6.586 -0.1688  1.3282  0.0825
  518MOL0     C68284   6.946   0.143   6.470  1.3443 -0.1932 -0.5705
  518MOL0     C68285   7.035   0.031   6.402 -0.4304 -0.9292 -0.0137
  518MOL0     C68286   7.182   0.033   6.462  0.3275 -1.0875  0.8180
  518MOL0     C68287   7.247  -0.097   6.432  0.1453  0.0854  0.4871
  518MOL0    Cl68288   7.216  -0.207   6.573 -0.1638  0.2190 -0.1408
  518MOL0     C68289   6.635   0.004   7.222  0.5207 -0.0470 -0.4958
  518MOL0     C68290   6.589   0.058   7.343 -0.4621 -0.2884 -0.3841
  518MOL0     O68291   6.394   0.184   7.538 -0.0729  0.1405 -0.4970
  518MOL0     C68292   6.593   0.386   7.748 -0.4156 -1.0006 -0.6963
  518MOL0     C68293   6.587   0.448   7.879 -1.1676 -0.8562  1.0883
  518MOL0     N68294   6.178   0.586   8.536 -0.6638  0.0099  0.3855
  518MOL0     N68295   6.093   0.615   8.621  0.3993  0.0046  0.2398
  518MOL0     C68296   6.264   1.522   8.577 -0.1550  0.2682 -0.9906
  518MOL0     C68297   6.369   1.572   8.491  0.8558 -0.5160 -0.2160
  518MOL0     C68298   6.650   1.778   8.245  0.6859 -0.2567 -0.4593
  518MOL0     C68299   6.630   1.697   8.132 -0.2736  0.9376 -0.6428
  518MOL0     C68300   6.727   1.683   8.030 -0.5025 -0.2014  0.3440
  518MOL0     C68301   6.850   1.745   8.050 -0.4392  0.4943  0.2122
  518MOL0     O68302   6.955   1.730   7.967 -0.2714  0.3314  0.8145
  518MOL0     C68303   6.945   1.622   7.857  1.2775 -0.3174 -0.7344
  518MOL0     C68304   7.077   1.606   7.785 -0.7958 -0.6932 -0.1929
  518MOL0     C68305   7.126   1.738   7.730  0.4591  0.1141 -0.5225
  518MOL0     C68306   7.252   1.724   7.651 -0.5947  0.2247  0.2738
  518MOL0     C68307   7.289   1.856   7.590 -0.4308  1.0270 -0.2619
  518MOL0     C68308   7.293   1.959   7.536 -0.9217 -0.7024 -0.0717
  518MOL0     C68309   6.863   1.837   8.152 -1.4057 -0.7654 -1.3204
  518MOL0     C68310   6.771   1.846   8.256  0.3091 -0.9755  0.2340
  518MOL0     H68311   6.237   1.868   8.381  0.0930 -0.9962 -1.1557
  518MOL0     H68312   6.062   1.804   8.566  0.9257 -0.7974  2.2905
  518MOL0     H68313   5.943   1.485   8.550  1.7464  4.0394 -0.8881
  518MOL0     H68314   5.872   1.596   8.675  0.8754 -0.2117  1.2097
  518MOL0     H68315   5.866   1.434   8.833 -4.1121 -0.4356 -1.0576
  518MOL0     H68316   5.982   1.326   8.752  1.1214  0.2553 -0.4303
  518MOL0     H68317   5.803   1.273   8.580  3.3654 -0.1011  1.3099
  518MOL0     H68318   5.698   1.371   8.670  2.3806  2.2452 -2.3765
  518MOL0     H68319   5.743   1.212   8.869  2.0966  3.3672 -1.6412
  518MOL0     H68320   5.648   1.147   8.739  1.9780 -2.4311 -4.0466
  518MOL0     H68321   5.940   1.107   8.790 -1.0764  0.3992  1.6887
  518MOL0     H68322   5.874   1.051   8.640  0.2997  2.4958 -0.7986
  518MOL0     H68323   5.687   0.918   8.780  0.5237  0.9128 -0.8780
  518MOL0     H68324   5.797   0.936   8.917  1.0094  0.1384  0.3172
  518MOL0     H68325   5.812   0.733   8.764 -4.6726  2.4730  1.3349
  518MOL0     H68326   5.831   0.836   8.638 -0.5104  0.8642  0.8660
  518MOL0     H68327   6.042   0.786   8.856 -1.9448  0.2884  0.8046
  518MOL0     H68328   6.058   0.922   8.748  4.4366 -1.7904 -1.0904
  518MOL0     H68329   6.203   0.910   8.566  3.4271 -1.1007  0.6848
  518MOL0     H68330   6.414   0.666   8.390  0.2518 -0.4947 -2.3449
  518MOL0     H68331   6.350   0.815   8.353 -0.0643 -0.6443 -3.6866
  518MOL0     H68332   6.137   0.694   8.258  0.2185  2.3196 -1.1533
  518MOL0     H68333   6.248   0.550   8.268  2.5775  0.5203 -1.3030
  518MOL0     H68334   6.241   0.629   8.055 -0.4174 -0.2712 -0.4906
  518MOL0     H68335   6.309   0.786   8.108 -0.9466 -1.2558 -1.4554
  518MOL0     H68336   6.513   0.665   8.170 -1.4437 -0.6069  1.3264
  518MOL0     H68337   6.468   0.667   7.996  2.9850 -0.1768  0.9482
  518MOL0     H68338   6.332   0.283   8.025  1.5633 -0.6181  1.5517
  518MOL0     H68339   6.336   0.161   7.802 -1.5190  1.0729  0.2731
  518MOL0     H68340   6.648   0.387   7.300 -1.1959 -0.1340  1.0197
  518MOL0     H68341   6.714   0.293   7.059  1.5275  0.1026  0.4563
  518MOL0     H68342   6.866   0.128   6.942 -0.1777 -1.0574  0.3850
  518MOL0     H68343   6.720   0.154   6.849  3.5240  1.4792 -1.0513
  518MOL0     H68344   6.730  -0.083   6.765 -0.8169  1.5779 -0.5282
  518MOL0     H68345   6.871  -0.117   6.858 -0.9437  1.0473  0.9022
  518MOL0     H68346   6.944  -0.086   6.617  0.8380 -1.2934  0.3137
  518MOL0     H68347   7.002   0.054   6.714 -2.1891  2.2738  0.1212
  518MOL0     H68348   6.756   0.066   6.557  0.4515  0.1050 -0.3967
  518MOL0     H68349   6.839   0.197   6.645  0.7037  0.2049  2.1377
  518MOL0     H68350   7.012   0.215   6.520 -0.2350  0.4121  0.7158
  518MOL0     H68351   6.890   0.193   6.391  3.1076  0.8886 -1.1908
  518MOL0     H68352   7.043   0.043   6.293  3.0797  2.0486  0.4048
  518MOL0     H68353   6.989  -0.068   6.416 -0.9806 -0.4952  1.4067
  518MOL0     H68354   7.231   0.119   6.415 -2.0687 -0.7397 -1.2685
  518MOL0     H68355   7.175   0.042   6.571  3.0815 -2.0808  1.1327
  518MOL0     H68356   7.356  -0.088   6.420  0.1432 -1.4947 -1.1161
  518MOL0     H68357   7.212  -0.161   6.351  0.4677 -0.5018  0.8083
  518MOL0     H68358   6.628  -0.105   7.216  0.4064 -0.4340  3.6598
  518MOL0     H68359   6.545  -0.011   7.414  0.5799  2.4538  3.2059
  518MOL0     H68360   6.673   0.418   7.682  3.3920 -0.6079  3.5761
  518MOL0     H68361   6.660   0.522   7.911 -0.6079 -0.9621  0.0999
  518MOL0     H68362   6.270   1.419   8.610 -1.3933  0.8460  1.2200
  518MOL0     H68363   6.446   1.504   8.455  2.8053  1.5987 -0.2833
  518MOL0     H68364   6.539   1.638   8.125  0.8010 -0.7927 -0.7173
  518MOL0     H68365   6.715   1.632   7.934  0.8930  0.8438 -0.4210
  518MOL0     H68366   6.864   1.658   7.793 -0.4517  2.5347  2.6911
  518MOL0     H68367   6.939   1.529   7.914  4.2196 -0.2360 -0.1567
  518MOL0     H68368   7.159   1.573   7.849  3.0632  1.3365 -3.6220
  518MOL0     H68369   7.084   1.537   7.700  1.6773 -1.1428  0.3068
  518MOL0     H68370   7.142   1.802   7.817 -0.7350  0.9512 -0.8914
  518MOL0     H68371   7.046   1.795   7.680  1.3613 -0.6337 -2.9874
  518MOL0     H68372   7.332   1.692   7.718 -0.1664  1.8814  0.5912
  518MOL0     H68373   7.243   1.653   7.568  0.1991 -0.4417  0.7423
  518MOL0     H68374   7.303   2.050   7.481  0.0615 -0.8008 -0.0718
  518MOL0     H68375   6.950   1.902   8.155 -1.2179 -1.0629  0.5128
  518MOL0     H68376   6.792   1.907   8.343 -2.5100  3.8808 -2.0537
  519MOL0     O68377   2.211  10.467   6.650 -1.0383 -0.0992 -0.0528
  519MOL0     C68378   2.108  10.489   6.584  0.5171  0.1795 -0.7730
  519MOL0     O68379   2.095  10.573   6.479  0.1261 -0.0070  0.6038
  519MOL0     C68380   2.193  10.667   6.477  0.6150 -0.1953 -0.0632
  519MOL0     C68381   2.182  10.781   6.564  0.4799 -0.3506 -0.5699
  519MOL0     C68382   2.289  10.874   6.569 -0.8535 -0.0338 -0.8682
  519MOL0     C68383   2.395  10.861   6.481  0.3208 -0.1588  0.6726
  519MOL0     O68384   2.493  10.965   6.485  0.5888  0.2218  0.2692
  519MOL0     C68385   2.595  10.979   6.387 -1.2617  0.2284  0.7543
  519MOL0     C68386   2.714  10.901   6.442  0.7534  1.4262  0.5803
  519MOL0     C68387   2.766  10.982   6.553 -0.1861 -0.1412 -0.2260
  519MOL0     C68388   2.869  10.905   6.637 -0.5451  0.9979 -0.1268
  519MOL0     C68389   2.928  10.989   6.751 -0.4768  0.3309 -0.2111
  519MOL0     C68390   2.819  11.052   6.841 -0.2729  0.4151  0.5871
  519MOL0     C68391   2.872  11.079   6.984  0.7225  0.0031  0.3365
  519MOL0     C68392   2.774  11.163   7.073  0.4599  0.4085 -0.4105
  519MOL0     N68393   2.832  11.204   7.203 -0.6429  0.1836 -0.5470
  519MOL0     C68394   2.956  11.261   7.226 -1.2002  0.3413 -0.7158
  519MOL0     C68395   2.958  11.308   7.356  0.2754 -0.1529  0.1495
  519MOL0     C68396   3.068  11.395   7.421 -0.8877  0.1793 -0.5326
  519MOL0     C68397   3.097  11.320   7.551  0.6295 -0.1739  0.4210
  519MOL0     C68398   3.191  11.208   7.519  1.5923  1.1317 -0.2722
  519MOL0     C68399   3.280  11.180   7.636  0.3089 -0.0954 -0.9303
  519MOL0     O68400   3.340  11.046   7.646  0.3426 -0.2480 -0.3233
  519MOL0     C68401   3.483  11.033   7.635  0.2468  0.4453  0.2551
  519MOL0     C68402   3.560  11.108   7.547  0.2244 -0.2536 -0.1468
  519MOL0     C68403   3.698  11.099   7.556 -0.7122 -0.5234 -0.5497
  519MOL0     C68404   3.757  10.999   7.641  0.3375  0.2580 -1.0449
  519MOL0     C68405   3.909  10.976   7.646 -0.4729 -0.5342 -0.0262
  519MOL0     O68406   3.957  10.916   7.752  0.2994 -0.1345 -0.6253
  519MOL0     C68407   4.091  10.887   7.771 -0.1545 -0.9296  0.4824
  519MOL0     C68408   4.145  10.882   7.898 -0.7091  0.4594  0.4596
  519MOL0     C68409   4.274  10.825   7.928 -0.7727 -0.7368  0.0050
  519MOL0     C68410   4.358  10.786   7.822  0.0706  0.0191  0.0068
  519MOL0     O68411   4.482  10.723   7.822 -0.1800 -0.5018 -0.8995
  519MOL0     C68412   4.579  10.767   7.920 -0.6462 -0.0220  0.1139
  519MOL0     C68413   4.721  10.727   7.890 -0.2405 -0.3019  0.1708
  519MOL0     C68414   4.792  10.851   7.835  0.6135 -0.1090  1.0951
  519MOL0     C68415   4.938  10.808   7.803 -0.1021 -0.0874  0.2346
  519MOL0     C68416   5.044  10.910   7.860  0.1793 -0.2443  1.3683
  519MOL0     C68417   5.043  11.031   7.777  0.2628 -0.2028 -0.8120
  519MOL0     C68418   5.138  11.133   7.829  0.9730 -0.0242 -0.0215
  519MOL0     C68419   5.283  11.073   7.817 -0.7312 -0.5487 -0.8811
  519MOL0    Cl68420   5.395  11.217   7.808  0.4431 -0.4734 -0.3211
  519MOL0     C68421   4.303  10.789   7.700 -0.3699 -0.2897  0.2170
  519MOL0     C68422   4.171  10.826   7.675 -1.0923 -0.6621  1.0803
  519MOL0     O68423   3.974  11.023   7.549  0.0423 -0.1396 -0.0173
  519MOL0     C68424   3.680  10.918   7.727  0.4803  0.6457  0.5611
  519MOL0     C68425   3.546  10.927   7.712 -0.1676 -0.2004  0.4445
  519MOL0     N68426   2.844  11.268   7.410  0.3746 -1.3478 -0.0149
  519MOL0     N68427   2.767  11.208   7.318  0.6195  0.1106  0.0949
  519MOL0     C68428   2.400  10.748   6.391 -1.4727  0.7651 -0.1091
  519MOL0     C68429   2.300  10.649   6.396  0.3972  0.0246  0.0483
  519MOL0     C68430   1.990  10.415   6.624  0.9217  0.9999 -0.0233
  519MOL0     C68431   1.985  10.333   6.735 -0.4341 -0.1218 -0.4954
  519MOL0     C68432   1.866  10.284   6.781  0.6924 -0.1347 -0.3881
  519MOL0     C68433   1.752  10.306   6.716  0.7698  0.2228  1.0420
  519MOL0     O68434   1.635  10.265   6.772 -0.5728  0.1341  0.1293
  519MOL0     C68435   1.534  10.366   6.803 -0.0371 -0.1510  0.1618
  519MOL0     C68436   1.467  10.342   6.940 -0.7082  0.2676  0.1494
  519MOL0     C68437   1.568  10.386   7.051 -0.5135  0.9351  0.0159
  519MOL0     C68438   1.536  10.318   7.189 -0.6543  0.2835  0.7876
  519MOL0     C68439   1.582  10.400   7.302 -0.6369 -0.7275  0.4873
  519MOL0     C68440   1.616  10.454   7.407 -0.1338 -0.4241 -0.1598
  519MOL0     C68441   1.754  10.384   6.605 -0.1981 -0.3891 -0.7196
  519MOL0     C68442   1.874  10.426   6.556 -0.3773 -0.0400  0.1669
  519MOL0     H68443   2.107  10.798   6.641  2.1419 -2.1895  1.5960
  519MOL0     H68444   2.290  10.960   6.636 -1.0731 -1.4353  1.0097
  519MOL0     H68445   2.630  11.079   6.360  3.7493 -1.3996  0.1981
  519MOL0     H68446   2.557  10.935   6.294  0.8679  1.4362 -0.7755
  519MOL0     H68447   2.799  10.896   6.373 -1.7517  2.9260 -2.8752
  519MOL0     H68448   2.685  10.806   6.487 -2.2851  3.0587  2.4044
  519MOL0     H68449   2.680  10.999   6.617 -0.9184  0.9446 -1.4440
  519MOL0     H68450   2.805  11.080   6.524 -1.5119  0.8252  1.1030
  519MOL0     H68451   2.822  10.826   6.697  2.9365 -0.3290  1.1040
  519MOL0     H68452   2.939  10.850   6.574 -3.3895 -2.8665 -0.3159
  519MOL0     H68453   2.983  11.060   6.689 -1.3113  0.1200 -1.2157
  519MOL0     H68454   2.990  10.921   6.810 -4.8845 -3.4812  0.6336
  519MOL0     H68455   2.742  10.974   6.846  3.2060 -3.5206 -1.1184
  519MOL0     H68456   2.787  11.143   6.789 -2.7252 -0.2491  0.7969
  519MOL0     H68457   2.894  10.982   7.030 -2.7402 -1.2216 -0.2894
  519MOL0     H68458   2.959  11.142   6.965  0.6225 -0.2124 -0.8480
  519MOL0     H68459   2.683  11.107   7.092 -0.5396  2.3960  1.0809
  519MOL0     H68460   2.730  11.252   7.027 -1.8207  1.5825  3.5256
  519MOL0     H68461   3.037  11.273   7.155 -1.5383 -0.2706 -1.2156
  519MOL0     H68462   3.025  11.491   7.452  2.1652  0.6482  3.0096
  519MOL0     H68463   3.154  11.415   7.356 -1.1367  0.6536 -0.7239
  519MOL0     H68464   3.018  11.284   7.617  0.5024  0.0497  0.3927
  519MOL0     H68465   3.143  11.390   7.621 -0.0941  0.1419  0.5926
  519MOL0     H68466   3.125  11.122   7.504 -2.4479  3.7579  1.0208
  519MOL0     H68467   3.251  11.218   7.428  1.6771 -0.8310 -0.4934
  519MOL0     H68468   3.224  11.180   7.730  0.0831 -2.1921 -1.0211
  519MOL0     H68469   3.356  11.258   7.644  0.4328 -0.1917 -1.1540
  519MOL0     H68470   3.508  11.164   7.471 -1.6777 -1.0562  0.5010
  519MOL0     H68471   3.760  11.160   7.490  1.8803 -0.5472  1.6819
  519MOL0     H68472   4.088  10.933   7.974  3.0150  5.9674  0.1991
  519MOL0     H68473   4.326  10.814   8.023 -0.1771 -1.3363 -0.3784
  519MOL0     H68474   4.554  10.720   8.016 -0.1341  2.6821  1.6774
  519MOL0     H68475   4.571  10.874   7.939 -2.3114 -0.0972 -0.0613
  519MOL0     H68476   4.723  10.634   7.833  0.8504  0.2414 -0.7111
  519MOL0     H68477   4.768  10.694   7.983 -0.6848  1.3646  1.0368
  519MOL0     H68478   4.792  10.944   7.893 -2.2122  3.1017 -3.3756
  519MOL0     H68479   4.735  10.883   7.747 -1.2962  1.7086  2.8670
  519MOL0     H68480   4.966  10.712   7.847  2.4799  0.1295 -0.7637
  519MOL0     H68481   4.943  10.792   7.695  1.1248 -2.2940  0.5625
  519MOL0     H68482   5.138  10.855   7.853  0.2170  0.0265 -2.5567
  519MOL0     H68483   5.023  10.934   7.964  1.5668  1.0965  1.3724
  519MOL0     H68484   4.948  11.084   7.786  1.8818  3.0793 -1.1255
  519MOL0     H68485   5.060  10.997   7.675 -3.1206 -2.3596 -0.7998
  519MOL0     H68486   5.113  11.219   7.767 -3.1845 -1.6121 -0.9157
  519MOL0     H68487   5.104  11.170   7.926  2.0858 -0.6930  0.6563
  519MOL0     H68488   5.301  11.018   7.724  0.9266  0.6691 -1.3282
  519MOL0     H68489   5.299  11.015   7.908  2.8839  2.2812  0.5250
  519MOL0     H68490   4.357  10.746   7.616 -0.3882  2.7557 -1.5305
  519MOL0     H68491   4.119  10.807   7.582  0.1617 -4.0175  0.9430
  519MOL0     H68492   3.723  10.841   7.790  2.2503  0.6611 -0.5768
  519MOL0     H68493   3.494  10.866   7.785 -1.2124 -1.1927 -1.0596
  519MOL0     H68494   2.477  10.727   6.317 -2.5407 -0.8626 -0.8140
  519MOL0     H68495   2.286  10.564   6.330 -1.7865  0.1487  0.2789
  519MOL0     H68496   2.080  10.329   6.788 -0.5131  0.4788 -0.3051
  519MOL0     H68497   1.848  10.239   6.878 -0.2504  2.7869  0.9154
  519MOL0     H68498   1.464  10.375   6.720  2.2785 -0.5635 -1.9557
  519MOL0     H68499   1.579  10.466   6.802 -2.4477  0.9921  0.2667
  519MOL0     H68500   1.384  10.411   6.955  1.8360  3.1151  2.6543
  519MOL0     H68501   1.452  10.235   6.957  0.0062  0.3934  1.7718
  519MOL0     H68502   1.564  10.495   7.057 -1.6560  0.8671  0.5869
  519MOL0     H68503   1.670  10.356   7.024 -1.1256  0.9655 -2.6800
  519MOL0     H68504   1.434  10.281   7.198 -0.2396 -0.6755  1.7443
  519MOL0     H68505   1.583  10.219   7.188  0.1346  0.6124 -1.4194
  519MOL0     H68506   1.635  10.493   7.505 -0.3065  0.1069 -0.3322
  519MOL0     H68507   1.662  10.422   6.560 -0.6270  0.3452  0.7142
  519MOL0     H68508   1.875  10.489   6.468 -0.4074  4.2472  2.9589
  520MOL0     O68509  10.608   3.477   5.031  0.2514  0.9311 -0.2005
  520MOL0     C68510  10.669   3.565   4.982 -0.3235 -0.3277 -0.1458
  520MOL0     O68511  10.726   3.672   5.046 -0.7005  0.3261  0.2416
  520MOL0     C68512  10.708   3.693   5.179 -0.4130 -0.2017  0.8579
  520MOL0     C68513  10.700   3.831   5.218  0.1326  1.1999 -0.0529
  520MOL0     C68514  10.692   3.866   5.351  0.1234 -0.2589 -0.1211
  520MOL0     C68515  10.675   3.766   5.445 -0.5814  1.0448 -1.2757
  520MOL0     O68516  10.675   3.811   5.582  0.8053 -0.0087 -0.0349
  520MOL0     C68517  10.744   3.733   5.673 -0.0386 -0.4949 -0.0705
  520MOL0     C68518  10.755   3.823   5.799 -1.3251 -0.3513  0.2715
  520MOL0     C68519  10.836   3.765   5.917 -0.2233  0.3104 -0.5404
  520MOL0     C68520  10.850   3.864   6.035  0.0726 -0.1201  0.5577
  520MOL0     C68521  10.861   3.784   6.159  0.0526 -0.4479  0.6470
  520MOL0     C68522  10.842   3.885   6.269  0.0362 -0.0045 -0.6852
  520MOL0     C68523  10.874   3.833   6.413 -0.3732  0.0852  1.1154
  520MOL0     C68524  10.903   3.959   6.499 -0.0454  0.9444 -0.3381
  520MOL0     N68525  11.031   4.028   6.479 -0.2902 -0.1821  0.5082
  520MOL0     C68526  11.069   4.153   6.523 -0.1176  0.6315  0.0560
  520MOL0     C68527  11.203   4.166   6.500  0.0628  0.2139 -0.2586
  520MOL0     C68528  11.289   4.277   6.541 -0.0556  0.1106 -0.6588
  520MOL0     C68529  11.389   4.340   6.434 -0.1367  0.3589 -0.5954
  520MOL0     C68530  11.320   4.425   6.325  0.0559  0.1259 -0.4725
  520MOL0     C68531  11.210   4.352   6.235 -0.0863  0.0466 -0.5222
  520MOL0     O68532  11.167   4.450   6.141 -0.5876  0.3912  0.3215
  520MOL0     C68533  11.052   4.421   6.073  0.4680 -0.2055  0.4248
  520MOL0     C68534  10.986   4.526   6.009 -0.4183  0.2214  0.1105
  520MOL0     C68535  10.874   4.504   5.932  0.1301  0.2922  0.2107
  520MOL0     C68536  10.820   4.372   5.919 -0.7141 -0.7569 -0.4836
  520MOL0     C68537  10.706   4.347   5.834  0.1606 -0.3066  0.1960
  520MOL0     O68538  10.708   4.225   5.774 -0.8515 -0.2401  0.1196
  520MOL0     C68539  10.609   4.191   5.685 -0.1967  0.8119  0.5279
  520MOL0     C68540  10.499   4.115   5.725  0.5295 -0.6090  0.7671
  520MOL0     C68541  10.394   4.105   5.635 -0.0116 -0.2840 -0.3007
  520MOL0     C68542  10.397   4.139   5.507 -0.5881 -0.6903  0.2303
  520MOL0     O68543  10.318   4.071   5.424 -0.0675  0.7860  0.1881
  520MOL0     C68544  10.322   3.928   5.451 -0.9467 -0.2098 -1.0434
  520MOL0     C68545  10.295   3.844   5.327  0.2331  0.0397 -0.3334
  520MOL0     C68546  10.309   3.695   5.358 -0.6523 -0.3103 -0.1662
  520MOL0     C68547  10.294   3.612   5.229 -0.4827  0.1858  0.1117
  520MOL0     C68548  10.283   3.468   5.275  0.6553  0.7537  0.2880
  520MOL0     C68549  10.282   3.378   5.159  0.4436 -0.1966  0.7500
  520MOL0     C68550  10.240   3.234   5.185  0.8772  0.4468 -0.8118
  520MOL0     C68551  10.259   3.133   5.071 -0.0198  0.2520  0.1692
  520MOL0    Cl68552  10.146   3.146   4.941 -0.0885 -0.0640 -0.1636
  520MOL0     C68553  10.509   4.211   5.464 -1.0622 -0.5205  0.4386
  520MOL0     C68554  10.608   4.244   5.556  0.1080 -0.2255 -0.4774
  520MOL0     O68555  10.616   4.431   5.832  0.2026  0.1764 -0.1756
  520MOL0     C68556  10.897   4.268   5.968 -0.3708 -0.4374 -0.2042
  520MOL0     C68557  11.010   4.294   6.046  0.6717  0.0296 -0.6754
  520MOL0     N68558  11.240   4.047   6.435  0.3866  0.1804 -0.1759
  520MOL0     N68559  11.148   3.967   6.430  0.6196  1.1925 -0.5596
  520MOL0     C68560  10.698   3.630   5.413  0.2854  0.3726  0.1887
  520MOL0     C68561  10.715   3.598   5.285  0.0241 -0.5341  0.2270
  520MOL0     C68562  10.722   3.542   4.841 -0.7765 -0.4076 -0.0393
  520MOL0     C68563  10.770   3.652   4.767  0.0556 -0.5683  0.3720
  520MOL0     C68564  10.809   3.637   4.635 -0.5534 -0.0421 -0.0510
  520MOL0     C68565  10.808   3.514   4.573 -0.1562  0.5469 -1.1271
  520MOL0     O68566  10.835   3.514   4.443 -0.6059 -0.9025  0.5377
  520MOL0     C68567  10.738   3.462   4.363  0.9130 -0.0972  0.9450
  520MOL0     C68568  10.797   3.461   4.228  1.1942  0.0373  0.3668
  520MOL0     C68569  10.798   3.599   4.156 -1.6611 -0.6180 -0.9422
  520MOL0     C68570  10.870   3.581   4.021  0.7619  1.3049  0.2425
  520MOL0     C68571  11.019   3.575   4.024 -0.9545 -0.2085 -0.1068
  520MOL0     C68572  11.141   3.574   4.003  0.5291  0.3303 -1.1741
  520MOL0     C68573  10.757   3.400   4.640  0.6263 -0.9307  0.5158
  520MOL0     C68574  10.725   3.409   4.777 -0.1323 -0.8535  0.7902
  520MOL0     H68575  10.709   3.904   5.138  0.3472  1.1656 -0.0603
  520MOL0     H68576  10.714   3.967   5.385  1.7581  0.6037 -3.3426
  520MOL0     H68577  10.840   3.709   5.627 -0.5584  1.2633 -2.2117
  520MOL0     H68578  10.690   3.642   5.703 -0.5480  0.0479  0.6836
  520MOL0     H68579  10.652   3.834   5.835 -1.7103 -2.1057 -0.1898
  520MOL0     H68580  10.800   3.917   5.764 -1.1118 -0.6625 -0.2999
  520MOL0     H68581  10.935   3.723   5.898 -0.9966 -3.4516  2.6007
  520MOL0     H68582  10.774   3.678   5.940 -0.7779  1.0564  0.8993
  520MOL0     H68583  10.943   3.921   6.024  1.4064 -2.3551 -0.4926
  520MOL0     H68584  10.757   3.923   6.039  0.2018  0.0141  1.9037
  520MOL0     H68585  10.958   3.735   6.152  1.9712  3.2128 -1.1523
  520MOL0     H68586  10.785   3.705   6.168  3.1375 -3.5868  1.1224
  520MOL0     H68587  10.744   3.932   6.260  0.3438  0.4794 -1.7162
  520MOL0     H68588  10.910   3.970   6.259 -2.5745  2.5349  1.3788
  520MOL0     H68589  10.782   3.784   6.447 -1.3286  1.6381  0.8881
  520MOL0     H68590  10.961   3.766   6.417  1.7358  2.6913  2.4836
  520MOL0     H68591  10.905   3.920   6.601  3.5632 -1.2672 -1.0629
  520MOL0     H68592  10.823   4.032   6.489 -0.5995  0.9031  2.8626
  520MOL0     H68593  11.014   4.238   6.562 -0.4198  3.1707 -5.1114
  520MOL0     H68594  11.350   4.236   6.621  0.9135  2.4172 -0.1283
  520MOL0     H68595  11.230   4.357   6.586 -0.6274 -1.7138  2.0384
  520MOL0     H68596  11.445   4.263   6.380  0.5400  1.8069 -2.0237
  520MOL0     H68597  11.458   4.398   6.497 -0.7866  1.9808 -1.3248
  520MOL0     H68598  11.289   4.521   6.366 -1.3242 -1.2017  1.7793
  520MOL0     H68599  11.395   4.464   6.255  0.6532  2.8020  1.5016
  520MOL0     H68600  11.122   4.309   6.283 -0.8086  0.8417 -1.1032
  520MOL0     H68601  11.263   4.269   6.186  0.6264  1.0253 -1.4583
  520MOL0     H68602  11.024   4.616   6.056  3.4630 -2.5297  2.8955
  520MOL0     H68603  10.832   4.593   5.886 -2.0000 -0.7767  0.0122
  520MOL0     H68604  10.489   4.079   5.826  0.6080 -3.1652 -0.0679
  520MOL0     H68605  10.305   4.059   5.677 -0.3773  1.7711  1.3689
  520MOL0     H68606  10.244   3.910   5.526 -2.3774  1.0653 -2.1328
  520MOL0     H68607  10.424   3.899   5.476 -1.2162  1.2818  2.3402
  520MOL0     H68608  10.372   3.873   5.255 -0.1611  0.4242 -0.6075
  520MOL0     H68609  10.196   3.854   5.282 -0.8579 -1.2822  1.5882
  520MOL0     H68610  10.245   3.660   5.440  1.9401  0.8126  2.5176
  520MOL0     H68611  10.414   3.685   5.387  0.4266  4.9525 -1.2008
  520MOL0     H68612  10.200   3.635   5.179 -1.9792 -0.7299  2.3267
  520MOL0     H68613  10.381   3.633   5.166 -2.2170  1.7956 -1.9083
  520MOL0     H68614  10.193   3.465   5.337 -1.6932 -2.6800 -2.8674
  520MOL0     H68615  10.370   3.453   5.341 -0.7973  0.5952  2.2545
  520MOL0     H68616  10.381   3.381   5.113  0.3024 -2.6514  0.1258
  520MOL0     H68617  10.216   3.419   5.082  1.2912 -3.3570 -1.9028
  520MOL0     H68618  10.295   3.197   5.272 -1.7602 -1.7623  0.0612
  520MOL0     H68619  10.130   3.232   5.191  0.8418  0.5693 -1.3422
  520MOL0     H68620  10.247   3.033   5.113  0.9613 -0.7814 -1.8484
  520MOL0     H68621  10.361   3.144   5.033  0.8472  0.5669  2.4692
  520MOL0     H68622  10.536   4.222   5.360  0.0322 -0.0219  0.7690
  520MOL0     H68623  10.693   4.299   5.518  0.2144 -0.9322 -1.3051
  520MOL0     H68624  10.874   4.162   5.962  0.0594 -0.4590 -2.5244
  520MOL0     H68625  11.051   4.199   6.079  0.5539  0.3736  0.4961
  520MOL0     H68626  10.721   3.562   5.495  1.9728  0.5773 -0.0726
  520MOL0     H68627  10.717   3.495   5.250  1.5250 -0.2481 -0.6002
  520MOL0     H68628  10.749   3.750   4.810 -1.8896 -1.5885  1.9023
  520MOL0     H68629  10.822   3.729   4.579 -1.4598  0.1906  0.1116
  520MOL0     H68630  10.639   3.509   4.364  0.2960 -1.1963  4.0370
  520MOL0     H68631  10.718   3.356   4.384  0.0616  0.2209  1.7845
  520MOL0     H68632  10.892   3.410   4.211  1.9277  2.1578 -2.9578
  520MOL0     H68633  10.729   3.389   4.182  1.1788 -1.9668  3.2891
  520MOL0     H68634  10.849   3.680   4.209 -1.7972 -0.3559 -1.2124
  520MOL0     H68635  10.698   3.642   4.148  0.1777  4.4791 -0.1266
  520MOL0     H68636  10.829   3.499   3.962 -0.9229  1.7648  0.7246
  520MOL0     H68637  10.851   3.665   3.954  1.7197  1.8722  0.6667
  520MOL0     H68638  11.242   3.583   3.970  1.7212 -0.1340  1.9755
  520MOL0     H68639  10.757   3.316   4.572 -1.1055 -0.1654 -0.4945
  520MOL0     H68640  10.680   3.330   4.836 -1.9856 -1.6477 -1.5683
  521MOL0     O68641   6.776   9.489   5.731 -0.0388 -0.0707  0.1246
  521MOL0     C68642   6.689   9.498   5.651 -0.1395 -0.1107  0.1302
  521MOL0     O68643   6.582   9.588   5.653  0.8359 -0.0699  0.0110
  521MOL0     C68644   6.582   9.668   5.763  0.3625 -1.0865 -0.6958
  521MOL0     C68645   6.466   9.667   5.841 -0.1835 -0.3870 -0.5611
  521MOL0     C68646   6.443   9.757   5.945  0.2018 -0.5497  0.3080
  521MOL0     C68647   6.550   9.845   5.978  0.7251 -0.0297  0.5336
  521MOL0     O68648   6.523   9.935   6.075  0.8508  0.4235 -0.2423
  521MOL0     C68649   6.624  10.032   6.121 -0.3540 -0.9685  0.0679
  521MOL0     C68650   6.712   9.980   6.239  0.4226  0.2731  0.6073
  521MOL0     C68651   6.856  10.014   6.219 -0.2321  0.9604 -0.1796
  521MOL0     C68652   6.945   9.962   6.326  0.7856  0.8505  0.4016
  521MOL0     C68653   7.079   9.950   6.294 -1.3917  0.5196 -0.3504
  521MOL0     C68654   7.145  10.075   6.233 -0.0654  0.6257 -0.2983
  521MOL0     C68655   7.295  10.070   6.214  1.1206  0.0999  0.3475
  521MOL0     C68656   7.348   9.976   6.109  0.1848  0.1702  0.2571
  521MOL0     N68657   7.483  10.016   6.071  0.1924 -0.4843  0.3567
  521MOL0     C68658   7.601   9.939   6.070  0.3808  0.9162 -0.0863
  521MOL0     C68659   7.706  10.018   6.029 -0.3710 -0.9550  0.4631
  521MOL0     C68660   7.847   9.971   6.025 -0.0275 -0.1836  0.5302
  521MOL0     C68661   7.907   9.987   5.884 -0.5019 -0.3034  0.1810
  521MOL0     C68662   8.062   9.957   5.890  0.2528 -0.0366  0.4054
  521MOL0     C68663   8.132   9.928   5.759 -0.2397 -0.0134  0.4661
  521MOL0     O68664   8.271   9.895   5.801 -0.1857  0.8172 -0.7810
  521MOL0     C68665   8.373   9.884   5.712 -0.2841 -0.3257  0.5782
  521MOL0     C68666   8.507   9.876   5.760 -0.0993  0.0784  0.0167
  521MOL0     C68667   8.622   9.901   5.671 -0.3858 -0.1434 -0.2826
  521MOL0     C68668   8.596   9.902   5.525 -0.9028  0.6484  0.3025
  521MOL0     C68669   8.693   9.882   5.420 -0.5449  0.1716  0.5203
  521MOL0     O68670   8.817   9.840   5.460 -0.3959  0.7577 -0.5022
  521MOL0     C68671   8.900   9.786   5.361  0.3383 -0.3972  0.3893
  521MOL0     C68672   8.880   9.663   5.292  0.9865  0.2723 -1.0383
  521MOL0     C68673   8.964   9.617   5.190 -0.4797  0.4331  1.0695
  521MOL0     C68674   9.062   9.696   5.131  0.5125  0.2156  0.6521
  521MOL0     O68675   9.144   9.652   5.028 -0.6221  0.3553  0.2411
  521MOL0     C68676   9.286   9.670   5.055  0.2620  0.0713 -0.4326
  521MOL0     C68677   9.360   9.571   4.967  1.0231  0.6974  0.0543
  521MOL0     C68678   9.500   9.542   5.024  0.2674  1.0402 -1.6733
  521MOL0     C68679   9.632   9.595   4.960 -0.1792 -0.2462 -0.3302
  521MOL0     C68680   9.663   9.530   4.824  1.0188  0.3256 -0.1983
  521MOL0     C68681   9.777   9.614   4.768 -0.0597 -0.8308  0.4410
  521MOL0     C68682   9.806   9.566   4.621 -0.4062 -1.7189  0.0103
  521MOL0     C68683   9.909   9.645   4.539  0.2124 -0.2252 -0.5994
  521MOL0    Cl68684  10.056   9.546   4.487 -0.2106  0.0465  0.1017
  521MOL0     C68685   9.073   9.826   5.191 -0.3592  0.3186 -0.6071
  521MOL0     C68686   8.998   9.868   5.299  0.7413  0.0227 -0.2467
  521MOL0     O68687   8.655   9.882   5.300 -0.5610 -0.1747 -0.9053
  521MOL0     C68688   8.460   9.892   5.494  0.8528  0.9034  0.1926
  521MOL0     C68689   8.358   9.896   5.572  0.3428  0.6112 -0.9297
  521MOL0     N68690   7.663  10.146   5.989 -0.2499  0.3928 -0.3317
  521MOL0     N68691   7.527  10.133   6.011  0.1957 -0.5116  0.7969
  521MOL0     C68692   6.671   9.842   5.902 -0.2328  0.0885 -0.2208
  521MOL0     C68693   6.687   9.754   5.793  0.1071 -0.1618  0.9272
  521MOL0     C68694   6.712   9.405   5.533  0.7337 -0.1063 -0.3340
  521MOL0     C68695   6.655   9.430   5.403 -0.2411  0.3510 -0.1993
  521MOL0     C68696   6.687   9.355   5.288 -0.2340  0.6311 -0.0911
  521MOL0     C68697   6.764   9.246   5.307  0.1161  0.6447 -1.1496
  521MOL0     O68698   6.813   9.155   5.208 -0.4060  1.0123  0.3466
  521MOL0     C68699   6.831   9.206   5.075 -0.0918  0.0863 -0.4247
  521MOL0     C68700   6.867   9.114   4.967 -0.0450  0.3536  0.5014
  521MOL0     C68701   6.998   9.043   4.971  0.5252  0.9121 -0.1113
  521MOL0     C68702   7.057   9.018   4.825 -0.7099  0.3536  0.4504
  521MOL0     C68703   7.190   8.956   4.841 -0.3610 -0.0193  0.4228
  521MOL0     C68704   7.297   8.910   4.857 -0.5279 -0.7439 -1.0449
  521MOL0     C68705   6.791   9.204   5.438  0.1083 -0.4530 -1.4361
  521MOL0     C68706   6.771   9.284   5.554  0.1966  0.7408  0.3456
  521MOL0     H68707   6.381   9.603   5.823  0.8018 -2.7413  2.3650
  521MOL0     H68708   6.350   9.768   6.000  0.9021  1.2943  1.1978
  521MOL0     H68709   6.568  10.120   6.152  0.4158  0.8066 -3.1548
  521MOL0     H68710   6.684  10.081   6.044  0.3802  0.6272  1.5734
  521MOL0     H68711   6.690   9.874   6.252  1.4200  0.2245  2.2574
  521MOL0     H68712   6.676  10.009   6.338  0.7888 -0.1932  0.8795
  521MOL0     H68713   6.869  10.122   6.207  1.8698  1.2888  3.4811
  521MOL0     H68714   6.877   9.960   6.126 -4.0807 -0.8483 -0.1678
  521MOL0     H68715   6.933  10.028   6.412  2.0824  0.6256  0.7774
  521MOL0     H68716   6.920   9.857   6.344  1.1378  0.3802 -1.6359
  521MOL0     H68717   7.097   9.874   6.217 -1.4049  1.7842 -1.6576
  521MOL0     H68718   7.138   9.918   6.380 -0.1046 -2.4714 -2.1775
  521MOL0     H68719   7.117  10.162   6.292  3.0909  0.4778  1.6549
  521MOL0     H68720   7.115  10.089   6.128  2.0330 -1.8034 -1.3531
  521MOL0     H68721   7.320  10.174   6.189 -1.3742  0.6724 -0.1534
  521MOL0     H68722   7.347  10.048   6.307  2.4318  0.7494 -0.2134
  521MOL0     H68723   7.289   9.968   6.017  0.6457 -0.1107 -0.0221
  521MOL0     H68724   7.349   9.872   6.145  0.5998 -0.6996 -2.0503
  521MOL0     H68725   7.606   9.837   6.108 -1.7432  0.9728  0.4778
  521MOL0     H68726   7.852   9.862   6.041 -0.6544 -0.5129 -1.2372
  521MOL0     H68727   7.919  10.030   6.081  2.4664  0.9479 -3.4566
  521MOL0     H68728   7.882  10.083   5.838  2.4115 -0.2953 -1.7105
  521MOL0     H68729   7.861   9.912   5.819 -0.8417  0.2075 -0.1664
  521MOL0     H68730   8.111  10.043   5.936 -0.9160  1.8681 -1.7185
  521MOL0     H68731   8.070   9.873   5.960  1.4080  0.7540  1.2501
  521MOL0     H68732   8.140  10.028   5.715 -2.8407 -0.1420 -0.4309
  521MOL0     H68733   8.090   9.856   5.689  2.9027 -1.3615 -0.2033
  521MOL0     H68734   8.519   9.869   5.868  0.8364 -1.0857 -0.1403
  521MOL0     H68735   8.718   9.881   5.716 -1.3066 -2.0702  0.9439
  521MOL0     H68736   8.800   9.601   5.330  0.6435  1.0101 -0.5367
  521MOL0     H68737   8.944   9.520   5.146  2.1529 -0.3136  1.3562
  521MOL0     H68738   9.307   9.642   5.159 -1.0873 -2.3070 -0.7330
  521MOL0     H68739   9.313   9.776   5.046 -0.2827  0.4581  1.8085
  521MOL0     H68740   9.369   9.599   4.862  3.3049 -2.8673 -0.8827
  521MOL0     H68741   9.298   9.481   4.977  0.2860  1.2037  0.0898
  521MOL0     H68742   9.511   9.436   5.049  0.2192  1.4182  0.1202
  521MOL0     H68743   9.501   9.586   5.124 -1.4607 -0.1320 -1.0942
  521MOL0     H68744   9.625   9.703   4.950 -3.5532  0.0744  2.9914
  521MOL0     H68745   9.713   9.574   5.031 -1.5471 -1.5712  0.9416
  521MOL0     H68746   9.580   9.539   4.753  1.6586  0.0729 -0.9987
  521MOL0     H68747   9.679   9.422   4.831 -3.1031 -0.4723 -0.3463
  521MOL0     H68748   9.869   9.608   4.828 -0.2363 -1.1518  0.6835
  521MOL0     H68749   9.740   9.717   4.757  3.0399  0.2787 -0.5461
  521MOL0     H68750   9.853   9.469   4.637 -1.8652 -2.6088 -0.8454
  521MOL0     H68751   9.719   9.555   4.554 -2.1511 -0.3518  1.9329
  521MOL0     H68752   9.937   9.737   4.591  0.5396 -0.3886 -0.4885
  521MOL0     H68753   9.854   9.677   4.449  1.6797  0.0575 -1.4389
  521MOL0     H68754   9.153   9.877   5.139  0.3583 -1.5001 -1.3952
  521MOL0     H68755   9.020   9.967   5.337 -1.5863  0.5193 -0.0108
  521MOL0     H68756   8.433   9.873   5.390  0.3848 -3.4398  0.8835
  521MOL0     H68757   8.266   9.910   5.516 -0.2508  0.1457 -0.0903
  521MOL0     H68758   6.754   9.899   5.941  0.1991  0.2960 -1.4011
  521MOL0     H68759   6.773   9.756   5.728  0.2183 -2.6359  0.9150
  521MOL0     H68760   6.597   9.519   5.384 -0.8692  0.0425  0.2551
  521MOL0     H68761   6.655   9.373   5.185 -0.7301 -3.1990 -0.7369
  521MOL0     H68762   6.914   9.277   5.085  1.3787 -1.6599  0.2407
  521MOL0     H68763   6.739   9.248   5.033 -0.6490 -0.1475  0.5214
  521MOL0     H68764   6.785   9.046   4.943 -1.3109  2.0588 -0.1577
  521MOL0     H68765   6.875   9.175   4.876 -2.9292 -2.4692 -1.9106
  521MOL0     H68766   6.989   8.942   5.014  2.2438  1.5333  1.8729
  521MOL0     H68767   7.072   9.102   5.025  0.9550  2.9428 -2.7195
  521MOL0     H68768   6.989   8.944   4.781  1.8843 -1.1280 -1.3253
  521MOL0     H68769   7.036   9.095   4.750 -2.4385 -0.8033 -0.3390
  521MOL0     H68770   7.398   8.875   4.862  1.6757  4.9066  0.7998
  521MOL0     H68771   6.848   9.113   5.454  3.0329  1.4132 -0.3455
  521MOL0     H68772   6.800   9.247   5.652  0.5170  3.0442  1.1769
  522MOL0     O68773   1.132   7.716   9.232  0.8352  1.2268 -0.0250
  522MOL0     C68774   1.103   7.625   9.300  0.7944 -0.0326  0.0041
  522MOL0     O68775   1.180   7.569   9.392 -0.6301 -0.8653  0.1986
  522MOL0     C68776   1.312   7.602   9.412 -0.2285  0.3195 -0.5455
  522MOL0     C68777   1.392   7.490   9.457  0.4192 -0.8831  0.0243
  522MOL0     C68778   1.519   7.510   9.471 -0.8440  0.1582 -0.2875
  522MOL0     C68779   1.580   7.633   9.463  0.1041 -1.0149  0.6351
  522MOL0     O68780   1.710   7.648   9.472 -0.2936 -0.1044 -0.0183
  522MOL0     C68781   1.771   7.671   9.602  0.9844 -1.2817  0.0784
  522MOL0     C68782   1.921   7.658   9.591  0.6912 -0.1999 -0.2330
  522MOL0     C68783   1.986   7.610   9.718  0.5762 -0.2232 -0.3243
  522MOL0     C68784   2.134   7.638   9.715 -0.2578  0.3881  0.6965
  522MOL0     C68785   2.219   7.600   9.836 -0.5100 -0.4116  0.7453
  522MOL0     C68786   2.238   7.454   9.850 -0.2973  0.0516  0.0035
  522MOL0     C68787   2.285   7.428   9.993  0.1498 -0.2468 -0.6841
  522MOL0     C68788   2.356   7.289  10.004  0.9980 -0.2571  0.6834
  522MOL0     N68789   2.388   7.259  10.144 -0.6709  0.2292 -0.1340
  522MOL0     C68790   2.327   7.169  10.229 -0.5796 -1.1961  0.0955
  522MOL0     C68791   2.381   7.212  10.351 -0.0386  0.7931 -0.2200
  522MOL0     C68792   2.347   7.161  10.486  0.7207 -0.4085  0.5341
  522MOL0     C68793   2.433   7.045  10.532  0.3408  0.3923  0.3386
  522MOL0     C68794   2.440   6.918  10.449 -0.0017 -0.1883  1.2967
  522MOL0     C68795   2.514   6.795  10.522 -0.7047 -0.0430  0.1731
  522MOL0     O68796   2.557   6.718  10.415 -0.9190 -0.0338 -0.2806
  522MOL0     C68797   2.616   6.597  10.441 -1.9977 -0.5887 -0.4160
  522MOL0     C68798   2.628   6.502  10.338  0.0390  0.4966  0.9130
  522MOL0     C68799   2.676   6.369  10.360 -0.5879  0.2882 -0.2920
  522MOL0     C68800   2.723   6.332  10.485  0.1542 -0.0300 -0.8105
  522MOL0     C68801   2.783   6.199  10.520  0.4318 -0.0338 -0.2997
  522MOL0     O68802   2.808   6.117  10.410  0.4470  0.2461 -0.4849
  522MOL0     C68803   2.867   5.992  10.417 -0.5864 -0.4251 -0.2945
  522MOL0     C68804   2.945   5.935  10.518  0.4572  0.2053 -0.5006
  522MOL0     C68805   3.030   5.823  10.492  0.8689  0.3383 -0.7055
  522MOL0     C68806   3.022   5.764  10.365  1.1676  0.8869 -0.1457
  522MOL0     O68807   3.111   5.656  10.338  0.1178  0.2520 -0.0074
  522MOL0     C68808   3.092   5.575  10.227 -0.5824  0.2160 -0.7242
  522MOL0     C68809   3.211   5.467  10.234  0.6790 -0.9886  0.5716
  522MOL0     C68810   3.199   5.370  10.356 -0.9763 -1.0679  0.4014
  522MOL0     C68811   3.328   5.282  10.363  0.4640  0.0153 -0.0748
  522MOL0     C68812   3.318   5.151  10.281  0.1652  0.2949  0.2382
  522MOL0     C68813   3.456   5.089  10.302 -0.2291  0.7366 -0.5590
  522MOL0     C68814   3.456   4.955  10.225  0.0025 -0.5427 -0.4677
  522MOL0     C68815   3.605   4.899  10.213  0.8534 -0.0084  0.9699
  522MOL0    Cl68816   3.683   4.980  10.080  0.5132  0.3671  0.2205
  522MOL0     C68817   2.935   5.816  10.270  0.5265  0.0852 -0.7152
  522MOL0     C68818   2.852   5.930  10.296  0.7455  0.2904  0.3270
  522MOL0     O68819   2.805   6.178  10.642  0.1340  0.2911  0.6811
  522MOL0     C68820   2.691   6.424  10.600  0.7336 -0.6135  0.7644
  522MOL0     C68821   2.642   6.554  10.574  1.0796  0.6794  0.5891
  522MOL0     N68822   2.480   7.319  10.339 -0.2503  1.8123  0.0321
  522MOL0     N68823   2.497   7.325  10.210 -0.1514  0.0088  0.0270
  522MOL0     C68824   1.504   7.748   9.441 -0.5844 -0.7118 -0.4215
  522MOL0     C68825   1.369   7.734   9.401 -0.8942  0.3629  0.1274
  522MOL0     C68826   0.981   7.543   9.263 -0.2562  0.2377  0.0258
  522MOL0     C68827   0.950   7.424   9.328  0.0264 -0.1685  0.2270
  522MOL0     C68828   0.848   7.344   9.278 -0.7610 -0.5027  0.8565
  522MOL0     C68829   0.792   7.362   9.148  0.1224  0.3544 -0.4996
  522MOL0     O68830   0.723   7.259   9.090 -0.0660  0.5721  0.0908
  522MOL0     C68831   0.760   7.219   8.957 -0.6934 -0.0054  0.7355
  522MOL0     C68832   0.803   7.070   8.952  0.7144 -0.7232  0.3489
  522MOL0     C68833   0.950   7.046   8.950 -0.0703 -0.4660  0.2831
  522MOL0     C68834   0.998   6.897   8.992  0.0336 -0.9528 -0.2002
  522MOL0     C68835   0.905   6.789   8.952 -1.2221  0.5397  0.2449
  522MOL0     C68836   0.835   6.699   8.915 -0.6823  0.1883 -0.4157
  522MOL0     C68837   0.823   7.485   9.084  0.4330  0.5929 -0.9624
  522MOL0     C68838   0.907   7.575   9.142 -0.9409  0.8293  0.0409
  522MOL0     H68839   1.346   7.392   9.453 -0.2815 -0.5360 -1.5949
  522MOL0     H68840   1.582   7.422   9.476 -1.6808 -0.5640 -1.7330
  522MOL0     H68841   1.730   7.587   9.659 -3.2533 -2.1200 -3.6394
  522MOL0     H68842   1.743   7.773   9.632 -0.0902 -0.4200 -3.3906
  522MOL0     H68843   1.963   7.753   9.559 -0.9538  0.5232 -0.3245
  522MOL0     H68844   1.940   7.588   9.508 -2.6561 -1.0144 -0.4556
  522MOL0     H68845   1.980   7.501   9.725 -1.3761 -0.0277  2.3901
  522MOL0     H68846   1.934   7.659   9.801  2.9903  2.1593 -0.0516
  522MOL0     H68847   2.179   7.610   9.619 -1.7045  0.7421 -0.1205
  522MOL0     H68848   2.143   7.747   9.711  0.6264  0.3871  2.2623
  522MOL0     H68849   2.178   7.645   9.926  1.4087  3.1566  0.0098
  522MOL0     H68850   2.320   7.641   9.830 -0.7780  0.2630  0.7192
  522MOL0     H68851   2.313   7.413   9.783  2.4638  0.9847  2.2858
  522MOL0     H68852   2.138   7.413   9.836 -1.4842  1.7002  2.7143
  522MOL0     H68853   2.355   7.507  10.025 -0.5918 -0.7512  2.4814
  522MOL0     H68854   2.191   7.430  10.048 -1.0486 -1.6190 -2.5726
  522MOL0     H68855   2.447   7.285   9.943  0.8067 -0.9419  0.4353
  522MOL0     H68856   2.292   7.206   9.973 -0.5497  0.6493  1.3360
  522MOL0     H68857   2.261   7.086  10.207 -1.0107 -1.4735  2.1887
  522MOL0     H68858   2.247   7.120  10.468 -1.0775  4.3145 -2.2742
  522MOL0     H68859   2.339   7.243  10.559  1.3460 -0.9994  1.2882
  522MOL0     H68860   2.400   7.018  10.633 -0.3715  1.9526  0.5526
  522MOL0     H68861   2.535   7.085  10.534  0.4948  0.0606 -0.5228
  522MOL0     H68862   2.337   6.892  10.423 -0.6371  2.5618  0.7015
  522MOL0     H68863   2.491   6.948  10.357  2.5152 -0.6906  2.4519
  522MOL0     H68864   2.445   6.747  10.591  0.8942  1.0652  2.6761
  522MOL0     H68865   2.606   6.817  10.578  0.8877  1.4039 -2.7495
  522MOL0     H68866   2.584   6.519  10.241 -2.5805  2.9846  2.3947
  522MOL0     H68867   2.686   6.303  10.274 -1.4382  1.4157 -1.3086
  522MOL0     H68868   2.973   5.989  10.608 -0.1644  0.2377 -0.3211
  522MOL0     H68869   3.091   5.781  10.571 -2.3370 -1.3881  1.0684
  522MOL0     H68870   3.104   5.635  10.137  2.5158 -1.1975 -1.3656
  522MOL0     H68871   3.000   5.516  10.229  0.0618 -0.8066 -0.5543
  522MOL0     H68872   3.301   5.529  10.235 -0.6656  1.2601 -2.1691
  522MOL0     H68873   3.207   5.419  10.136 -0.7533 -0.9287  0.5752
  522MOL0     H68874   3.103   5.324  10.381  0.1203 -2.2516  2.7128
  522MOL0     H68875   3.213   5.442  10.437 -0.6044  0.4744 -0.9714
  522MOL0     H68876   3.409   5.340  10.318 -0.5498  0.7487 -1.0351
  522MOL0     H68877   3.337   5.269  10.471  0.5717  0.4194 -0.0320
  522MOL0     H68878   3.294   5.173  10.176  2.7894 -0.1468 -0.5280
  522MOL0     H68879   3.241   5.084  10.320  3.5910 -3.5615  0.9321
  522MOL0     H68880   3.476   5.048  10.402 -2.4100 -1.5179 -0.9543
  522MOL0     H68881   3.535   5.151  10.259  0.5118 -2.2712 -4.0555
  522MOL0     H68882   3.409   4.876  10.284  1.0744  0.3621  1.7283
  522MOL0     H68883   3.400   4.971  10.132 -0.4676  1.3153  0.0858
  522MOL0     H68884   3.593   4.790  10.213 -1.4869  0.1670 -0.8680
  522MOL0     H68885   3.657   4.919  10.307  0.2464  1.1961  1.0654
  522MOL0     H68886   2.929   5.770  10.172 -0.3770  0.4326 -0.8314
  522MOL0     H68887   2.792   5.988  10.225 -2.4042  0.0309  2.5719
  522MOL0     H68888   2.718   6.398  10.702 -1.2971 -0.6490  1.3354
  522MOL0     H68889   2.644   6.609  10.667  3.6078 -0.6086  1.4155
  522MOL0     H68890   1.557   7.842   9.437 -0.9576 -0.5341 -2.0122
  522MOL0     H68891   1.314   7.826   9.382 -2.1755 -0.1169  1.3091
  522MOL0     H68892   0.993   7.395   9.423 -0.1111  0.9993  0.6546
  522MOL0     H68893   0.811   7.259   9.334 -4.2879  0.9512  0.9617
  522MOL0     H68894   0.841   7.285   8.924  0.7223 -1.2539  1.5690
  522MOL0     H68895   0.671   7.224   8.893  1.8037  1.1233 -2.9811
  522MOL0     H68896   0.748   7.030   9.038 -0.6372 -0.5488 -0.4006
  522MOL0     H68897   0.750   7.024   8.867 -2.4569  0.3860  1.5795
  522MOL0     H68898   1.009   7.112   9.014  1.7453 -1.0185 -0.7295
  522MOL0     H68899   0.983   7.064   8.846  1.8671  1.0985  1.0889
  522MOL0     H68900   1.093   6.892   8.938  1.8193  0.5845  2.5287
  522MOL0     H68901   1.010   6.903   9.100  1.3620 -2.8753 -0.2099
  522MOL0     H68902   0.776   6.616   8.881  0.4415  0.2701 -2.7413
  522MOL0     H68903   0.793   7.504   8.982 -0.6312 -1.6957 -1.1476
  522MOL0     H68904   0.930   7.662   9.080  1.5463 -0.7572 -1.4466
  523MOL0     O68905   8.008   9.525   6.726  0.4190  0.3317  0.2442
  523MOL0     C68906   7.981   9.536   6.604 -0.2997 -0.4624 -0.6126
  523MOL0     O68907   7.848   9.555   6.551 -0.3050 -0.6009 -0.5397
  523MOL0     C68908   7.749   9.591   6.647 -0.1408  0.7445  0.6461
  523MOL0     C68909   7.641   9.502   6.681  0.3842  0.2561  0.1455
  523MOL0     C68910   7.545   9.558   6.777  0.1400  0.7700  0.5732
  523MOL0     C68911   7.555   9.693   6.824 -0.6062 -0.6244  0.8574
  523MOL0     O68912   7.454   9.741   6.907  0.2531  0.1336 -0.3290
  523MOL0     C68913   7.497   9.784   7.031 -0.2854  0.0434  0.6317
  523MOL0     C68914   7.372   9.766   7.121 -0.3225  0.2697  0.5715
  523MOL0     C68915   7.364   9.622   7.188  0.0993  0.5570  0.5875
  523MOL0     C68916   7.227   9.566   7.202  0.0699  0.8519  0.3021
  523MOL0     C68917   7.137   9.632   7.305  0.1970  0.4504 -0.3148
  523MOL0     C68918   6.994   9.582   7.306 -0.0944  1.4895 -0.4596
  523MOL0     C68919   6.908   9.689   7.370  0.5375 -0.8838  0.5613
  523MOL0     C68920   6.760   9.654   7.388  0.0630 -0.4858  0.1381
  523MOL0     N68921   6.742   9.547   7.488 -0.3565  0.1310  1.0925
  523MOL0     C68922   6.730   9.545   7.619  0.1239 -0.4447  0.4734
  523MOL0     C68923   6.700   9.421   7.661  1.2569  1.4989 -0.3730
  523MOL0     C68924   6.656   9.368   7.802 -0.6234 -0.1931  0.7287
  523MOL0     C68925   6.531   9.443   7.856 -0.8958 -0.0496 -0.1812
  523MOL0     C68926   6.472   9.363   7.973  0.5212  1.0248  0.2743
  523MOL0     C68927   6.362   9.431   8.052  0.2678  0.0726  0.0376
  523MOL0     O68928   6.353   9.378   8.189 -0.0166  1.0357  0.2234
  523MOL0     C68929   6.275   9.442   8.283 -0.2185 -0.1819  0.9484
  523MOL0     C68930   6.259   9.587   8.288 -0.0838 -0.0038 -0.4425
  523MOL0     C68931   6.181   9.641   8.388 -0.3614 -0.5020 -0.2466
  523MOL0     C68932   6.121   9.559   8.492  0.0407  0.4101  0.2092
  523MOL0     C68933   6.049   9.614   8.603  0.6807 -0.0943 -0.6477
  523MOL0     O68934   6.005   9.522   8.698  0.0474 -0.1324  0.2867
  523MOL0     C68935   5.974   9.575   8.820 -0.1726  0.5228 -0.3321
  523MOL0     C68936   6.016   9.509   8.944 -0.6817  0.2916  0.7935
  523MOL0     C68937   5.969   9.547   9.060 -0.6933 -0.3306 -0.3074
  523MOL0     C68938   5.899   9.665   9.080 -0.2727 -0.4204  0.1000
  523MOL0     O68939   5.870   9.714   9.204  0.1095 -0.0153  0.5824
  523MOL0     C68940   5.960   9.818   9.245  0.7015  0.0057 -0.2196
  523MOL0     C68941   5.932   9.878   9.386  0.2444  0.0977 -1.3112
  523MOL0     C68942   5.795   9.948   9.421  0.0737  0.8481 -0.0451
  523MOL0     C68943   5.753  10.047   9.315  0.5494 -0.9402  0.1221
  523MOL0     C68944   5.610  10.112   9.333 -0.0248  0.5366  0.4503
  523MOL0     C68945   5.576  10.211   9.223 -0.4558  1.0970  0.9083
  523MOL0     C68946   5.428  10.235   9.245 -0.8105  0.1743 -0.1645
  523MOL0     C68947   5.390  10.337   9.134 -0.0297 -0.0610  0.1282
  523MOL0    Cl68948   5.258  10.443   9.188  0.8763  0.0287 -0.0597
  523MOL0     C68949   5.849   9.730   8.966 -1.9060  0.1450  0.2653
  523MOL0     C68950   5.892   9.682   8.837  0.5700 -0.0822  0.0925
  523MOL0     O68951   6.043   9.738   8.604  0.5863 -0.8037  0.1662
  523MOL0     C68952   6.126   9.425   8.476  0.2716  1.0145  0.1697
  523MOL0     C68953   6.206   9.372   8.378  0.8528 -0.5806  0.5445
  523MOL0     N68954   6.705   9.338   7.553  0.4914  0.4365  1.1061
  523MOL0     N68955   6.723   9.415   7.445  0.2092  0.6466  0.0239
  523MOL0     C68956   7.666   9.772   6.790  0.3770 -0.1114 -0.5600
  523MOL0     C68957   7.756   9.714   6.698 -0.3676  0.5786  0.1143
  523MOL0     C68958   8.097   9.552   6.511  0.4313  0.4142 -0.4819
  523MOL0     C68959   8.116   9.464   6.397  0.4475 -0.4481 -0.8371
  523MOL0     C68960   8.229   9.472   6.320 -0.5805  0.7083  0.5450
  523MOL0     C68961   8.328   9.567   6.341 -0.0686  1.0637 -0.7778
  523MOL0     O68962   8.448   9.570   6.280 -0.5903 -0.9993  1.2766
  523MOL0     C68963   8.501   9.457   6.211 -0.3125  0.5903  0.2970
  523MOL0     C68964   8.649   9.469   6.212 -0.3415 -1.0186 -0.1342
  523MOL0     C68965   8.720   9.354   6.150 -1.5219  0.4907  0.3138
  523MOL0     C68966   8.877   9.363   6.146  0.3708 -0.9651  0.3025
  523MOL0     C68967   8.933   9.279   6.255  0.0549 -0.5199  0.4569
  523MOL0     C68968   8.960   9.234   6.359 -0.6836 -0.3269 -0.2248
  523MOL0     C68969   8.312   9.664   6.444 -0.1797  0.3627  0.0969
  523MOL0     C68970   8.209   9.648   6.537 -0.5562  0.5374 -0.1166
  523MOL0     H68971   7.645   9.398   6.650 -0.3026 -0.2316  1.5861
  523MOL0     H68972   7.467   9.488   6.804  1.9032 -2.6601 -2.3270
  523MOL0     H68973   7.514   9.892   7.032 -0.4053  0.1519 -2.2395
  523MOL0     H68974   7.588   9.732   7.061 -0.8760 -1.0433  0.5957
  523MOL0     H68975   7.281   9.778   7.061 -0.1438  0.9508  0.4268
  523MOL0     H68976   7.359   9.842   7.198 -1.3427 -0.2576  0.9356
  523MOL0     H68977   7.424   9.630   7.279  1.3209  3.0286 -0.3581
  523MOL0     H68978   7.415   9.554   7.119 -1.4024 -2.2010  1.9766
  523MOL0     H68979   7.174   9.564   7.106 -1.3511 -3.7156  0.9021
  523MOL0     H68980   7.220   9.459   7.224 -0.2645  1.4196  3.3706
  523MOL0     H68981   7.134   9.738   7.278 -0.1022  1.2572  2.5688
  523MOL0     H68982   7.171   9.625   7.409 -3.3484 -0.0987  0.9327
  523MOL0     H68983   6.997   9.483   7.352  4.1067 -0.0240 -3.3258
  523MOL0     H68984   6.961   9.557   7.205  1.4680 -0.8080 -0.4732
  523MOL0     H68985   6.935   9.717   7.472 -1.1169  0.8042  0.6020
  523MOL0     H68986   6.916   9.782   7.312 -3.1362  1.0051  2.7432
  523MOL0     H68987   6.711   9.620   7.297 -1.0362 -1.5894  1.1187
  523MOL0     H68988   6.703   9.744   7.416  1.3299 -0.0854  1.5697
  523MOL0     H68989   6.725   9.638   7.675  0.7208 -0.2658  0.2339
  523MOL0     H68990   6.735   9.390   7.874 -0.1763 -0.0176  0.1900
  523MOL0     H68991   6.645   9.259   7.804  0.9300 -0.3656  2.5194
  523MOL0     H68992   6.466   9.460   7.769 -1.7696 -0.6234  0.3522
  523MOL0     H68993   6.570   9.535   7.901 -1.2912  0.0732 -0.0834
  523MOL0     H68994   6.434   9.270   7.929 -0.6881  1.3625  0.5593
  523MOL0     H68995   6.544   9.325   8.046 -3.0801  0.6612  4.0848
  523MOL0     H68996   6.265   9.433   8.001  0.4248 -1.1322 -0.3414
  523MOL0     H68997   6.404   9.531   8.063  1.0507 -0.1840 -0.5404
  523MOL0     H68998   6.319   9.654   8.227  2.0850 -0.7563  0.7420
  523MOL0     H68999   6.189   9.749   8.391  3.7378 -0.5595 -2.7581
  523MOL0     H69000   6.082   9.425   8.924  1.5167  1.8364  1.1884
  523MOL0     H69001   6.000   9.493   9.148  1.1302 -0.5552 -1.0428
  523MOL0     H69002   5.956   9.905   9.178  0.8947  0.2019  0.0199
  523MOL0     H69003   6.065   9.787   9.248  0.5805 -0.4312 -0.5109
  523MOL0     H69004   5.998   9.966   9.392  0.9387 -0.3534 -2.1204
  523MOL0     H69005   5.955   9.812   9.470  0.6175 -0.0456 -1.5202
  523MOL0     H69006   5.804  10.004   9.514  0.5588  1.4995 -0.4721
  523MOL0     H69007   5.708   9.882   9.427 -0.6577  1.8123  0.2965
  523MOL0     H69008   5.828  10.126   9.317  0.0668 -0.4862  1.1738
  523MOL0     H69009   5.736   9.985   9.226 -1.8777 -0.7857  0.4043
  523MOL0     H69010   5.608  10.173   9.424 -2.3004  1.2536 -0.0215
  523MOL0     H69011   5.538  10.030   9.334  1.5949 -1.1469  4.7249
  523MOL0     H69012   5.591  10.180   9.119  1.0670  1.9268  0.8447
  523MOL0     H69013   5.631  10.305   9.231  1.9635  0.0695 -1.9970
  523MOL0     H69014   5.363  10.148   9.228  1.5095 -1.4724 -1.1367
  523MOL0     H69015   5.408  10.280   9.342  3.7398  0.1066  1.0502
  523MOL0     H69016   5.375  10.282   9.041  1.5479  3.0248 -2.1357
  523MOL0     H69017   5.462  10.417   9.111 -0.5690  0.9622  1.8156
  523MOL0     H69018   5.790   9.819   8.985 -0.3708  2.3507 -3.9502
  523MOL0     H69019   5.852   9.736   8.752  0.4657 -0.9945 -0.4491
  523MOL0     H69020   6.078   9.357   8.546 -3.1071  0.4867 -2.3819
  523MOL0     H69021   6.206   9.266   8.358 -0.2720 -0.5112  0.1322
  523MOL0     H69022   7.676   9.871   6.834 -2.9155  0.3104 -0.5752
  523MOL0     H69023   7.836   9.780   6.666  0.0367  0.2044  0.3412
  523MOL0     H69024   8.040   9.393   6.367 -0.8851  0.4454  0.3082
  523MOL0     H69025   8.228   9.398   6.240  0.5789  0.2470  0.9374
  523MOL0     H69026   8.469   9.448   6.107  1.8664 -3.8587 -0.1978
  523MOL0     H69027   8.458   9.369   6.259  1.4608  0.6777  2.1994
  523MOL0     H69028   8.672   9.568   6.171 -2.6885  0.4919  1.8095
  523MOL0     H69029   8.681   9.472   6.316  0.1423  0.5325 -0.3011
  523MOL0     H69030   8.686   9.337   6.048 -0.3234 -1.6327  0.1959
  523MOL0     H69031   8.705   9.259   6.202  0.5363  0.1051  0.2927
  523MOL0     H69032   8.904   9.338   6.043 -1.6579  2.7113 -1.3442
  523MOL0     H69033   8.903   9.468   6.159 -0.2112 -0.5568 -1.5359
  523MOL0     H69034   8.974   9.182   6.452 -2.8479  0.7057  0.7557
  523MOL0     H69035   8.391   9.738   6.455 -0.8144  1.0665  0.0012
  523MOL0     H69036   8.199   9.703   6.630  1.8164  3.0836 -1.2408
  524MOL0     O69037   9.094   5.237   2.647  0.4230 -0.4655  0.5466
  524MOL0     C69038   9.125   5.185   2.542 -0.2649 -0.1799  0.6868
  524MOL0     O69039   9.184   5.066   2.531 -0.1150  0.4146 -0.4066
  524MOL0     C69040   9.225   5.009   2.649  0.1651  0.5496 -0.7023
  524MOL0     C69041   9.146   4.897   2.697 -0.4117 -0.4861 -0.0073
  524MOL0     C69042   9.172   4.863   2.833  0.6104 -0.2599  0.4579
  524MOL0     C69043   9.277   4.911   2.909 -0.0596  0.8589  0.2237
  524MOL0     O69044   9.305   4.867   3.033  0.0351 -0.3751 -0.3785
  524MOL0     C69045   9.308   4.726   3.040  0.3129 -0.2983  0.0007
  524MOL0     C69046   9.407   4.670   3.142  0.3475 -0.2664 -0.7849
  524MOL0     C69047   9.383   4.682   3.297  0.7083 -0.4306 -0.6253
  524MOL0     C69048   9.465   4.597   3.390  0.3825  0.1217 -0.8211
  524MOL0     C69049   9.405   4.621   3.532  0.1647  0.5481  0.0357
  524MOL0     C69050   9.479   4.565   3.652  0.3956 -0.0023 -0.3791
  524MOL0     C69051   9.389   4.577   3.775  0.1510  0.4954 -0.5731
  524MOL0     C69052   9.421   4.461   3.869 -0.5693 -0.2083 -0.1351
  524MOL0     N69053   9.374   4.326   3.832  0.3352  0.2536  0.2915
  524MOL0     C69054   9.249   4.292   3.788 -0.4195 -0.4727  0.1844
  524MOL0     C69055   9.256   4.169   3.732 -0.8765 -0.0502  0.0756
  524MOL0     C69056   9.142   4.075   3.684 -0.9754 -0.9134  0.5360
  524MOL0     C69057   9.153   4.050   3.531 -0.1207  0.3094 -0.2625
  524MOL0     C69058   9.081   4.158   3.428 -0.0967  0.2201 -0.5442
  524MOL0     C69059   9.171   4.277   3.441 -0.4157 -0.2767  0.1328
  524MOL0     O69060   9.192   4.339   3.323  0.1211 -0.0928  0.7922
  524MOL0     C69061   9.082   4.402   3.269  0.1411  0.1721 -0.0166
  524MOL0     C69062   8.954   4.421   3.327 -0.0310  0.0206 -0.0380
  524MOL0     C69063   8.854   4.496   3.261  0.1897 -0.4564 -0.5112
  524MOL0     C69064   8.881   4.535   3.124  0.5765  0.8692 -0.8412
  524MOL0     C69065   8.775   4.604   3.044  0.0447 -0.4853 -0.4748
  524MOL0     O69066   8.642   4.607   3.076  1.0417 -0.3255  0.0195
  524MOL0     C69067   8.561   4.663   2.972  0.3440 -0.1079  0.2767
  524MOL0     C69068   8.556   4.804   2.939  0.3466  0.2514 -0.0806
  524MOL0     C69069   8.469   4.846   2.830  0.0831 -0.2930 -0.1828
  524MOL0     C69070   8.388   4.761   2.760 -0.4530  1.8968  0.5244
  524MOL0     O69071   8.317   4.808   2.654  0.2202  0.0320  0.3418
  524MOL0     C69072   8.372   4.778   2.519  0.2417 -0.2621 -0.5852
  524MOL0     C69073   8.485   4.868   2.502 -0.0047  0.1118 -0.6660
  524MOL0     C69074   8.446   5.021   2.498 -0.6062  0.4862 -0.0334
  524MOL0     C69075   8.569   5.114   2.509 -0.6659 -0.0569 -0.7998
  524MOL0     C69076   8.532   5.261   2.527  0.1345  0.7543  0.7987
  524MOL0     C69077   8.646   5.364   2.493 -1.6955 -0.4542  0.9361
  524MOL0     C69078   8.616   5.506   2.529 -0.0197 -0.3149  0.6878
  524MOL0     C69079   8.724   5.600   2.488 -0.6259 -0.1654  0.1895
  524MOL0    Cl69080   8.724   5.604   2.308 -0.2212  0.3524 -0.1565
  524MOL0     C69081   8.399   4.627   2.786  0.3337  0.1565 -0.8217
  524MOL0     C69082   8.483   4.578   2.895 -0.1687  0.4179 -0.0778
  524MOL0     O69083   8.824   4.661   2.944 -0.0999 -0.2027  0.7453
  524MOL0     C69084   9.005   4.517   3.071  0.1273 -0.0957  0.3893
  524MOL0     C69085   9.107   4.458   3.149 -0.8283 -0.2806 -0.6194
  524MOL0     N69086   9.387   4.127   3.756  0.0465  0.2732  0.5729
  524MOL0     N69087   9.457   4.228   3.798 -0.4707  0.1920 -0.3916
  524MOL0     C69088   9.351   5.017   2.862 -0.2420  0.4407  0.6816
  524MOL0     C69089   9.335   5.063   2.727  0.7963 -0.4079 -0.7930
  524MOL0     C69090   9.140   5.271   2.426 -0.5645  0.3046  0.1057
  524MOL0     C69091   9.090   5.410   2.433 -0.7846  0.4092 -0.1432
  524MOL0     C69092   9.088   5.488   2.315  0.2852 -0.2406  0.1088
  524MOL0     C69093   9.137   5.439   2.191 -0.0932  0.2526 -0.5274
  524MOL0     O69094   9.128   5.510   2.071  0.6870  0.3135  0.4118
  524MOL0     C69095   9.034   5.609   2.040  0.4832 -0.1032  1.0400
  524MOL0     C69096   9.110   5.746   2.041 -0.3841 -0.0311  0.3252
  524MOL0     C69097   9.235   5.753   1.940  0.3862  0.0613 -0.3141
  524MOL0     C69098   9.309   5.880   1.949  0.2758  0.9693  0.2358
  524MOL0     C69099   9.388   5.899   1.830 -0.1828  0.4614  0.5076
  524MOL0     C69100   9.455   5.901   1.729 -1.2588 -0.1228 -0.3985
  524MOL0     C69101   9.194   5.308   2.190 -1.1572 -0.0748  0.6343
  524MOL0     C69102   9.178   5.226   2.305  0.4600 -0.6147  0.3335
  524MOL0     H69103   9.066   4.851   2.641  0.8285 -1.6579 -0.8699
  524MOL0     H69104   9.098   4.799   2.880  1.0809 -0.5116  0.8558
  524MOL0     H69105   9.330   4.686   2.941  0.5225 -1.2869  0.4319
  524MOL0     H69106   9.205   4.695   3.056  0.2539 -0.9793 -1.5595
  524MOL0     H69107   9.504   4.720   3.129  1.3850 -1.5976  1.2863
  524MOL0     H69108   9.430   4.564   3.128  0.8527 -0.2122 -0.3780
  524MOL0     H69109   9.276   4.666   3.314  0.5924 -0.7763 -1.5870
  524MOL0     H69110   9.403   4.787   3.320  1.1479  0.1890 -3.4189
  524MOL0     H69111   9.473   4.489   3.378  1.7804 -0.0211  1.0326
  524MOL0     H69112   9.568   4.630   3.410  0.3966 -0.6338  0.4566
  524MOL0     H69113   9.305   4.577   3.534  1.2261 -2.1888 -1.7235
  524MOL0     H69114   9.395   4.729   3.545  1.0460  0.5127  1.2098
  524MOL0     H69115   9.556   4.640   3.673  0.7197 -0.9996  2.3201
  524MOL0     H69116   9.514   4.465   3.625  1.6613 -0.1263  1.5931
  524MOL0     H69117   9.400   4.677   3.820 -0.4747  0.5706 -0.5773
  524MOL0     H69118   9.282   4.569   3.751 -0.1389 -0.1113  0.8650
  524MOL0     H69119   9.368   4.480   3.963 -0.5356  0.5373 -0.2617
  524MOL0     H69120   9.529   4.459   3.885 -0.8104 -2.8490  1.8218
  524MOL0     H69121   9.162   4.356   3.791 -0.1124  0.0072 -0.8815
  524MOL0     H69122   9.044   4.110   3.716  0.0090  0.8452  1.8457
  524MOL0     H69123   9.150   3.984   3.745  1.0523 -0.5497  0.9105
  524MOL0     H69124   9.096   3.961   3.500 -1.8333  1.2629  0.0050
  524MOL0     H69125   9.259   4.032   3.514  0.3231  2.5450 -0.0732
  524MOL0     H69126   9.088   4.134   3.321  0.0547 -0.9123 -0.2946
  524MOL0     H69127   8.982   4.187   3.463  0.6494  0.6962  1.2548
  524MOL0     H69128   9.274   4.249   3.465 -0.3428  0.5406  0.8277
  524MOL0     H69129   9.151   4.351   3.519  2.1688 -0.8862  1.4876
  524MOL0     H69130   8.936   4.403   3.433 -2.2832  3.3584  0.2783
  524MOL0     H69131   8.757   4.502   3.310  1.4171 -4.2979  2.8898
  524MOL0     H69132   8.605   4.880   2.997 -0.1693  2.7603 -2.7175
  524MOL0     H69133   8.472   4.953   2.815 -1.1336 -0.3952 -1.2689
  524MOL0     H69134   8.302   4.806   2.439 -1.8789 -0.1233  1.2147
  524MOL0     H69135   8.389   4.670   2.522 -2.0071 -0.6412  1.8874
  524MOL0     H69136   8.539   4.846   2.409  1.2180 -0.1270  0.0778
  524MOL0     H69137   8.556   4.854   2.584 -2.4632 -0.5226  1.4617
  524MOL0     H69138   8.383   5.041   2.586 -0.7090 -1.2399  0.3262
  524MOL0     H69139   8.397   5.047   2.404  3.6829  0.6960 -2.4224
  524MOL0     H69140   8.634   5.085   2.592  1.0199  3.6661 -0.6186
  524MOL0     H69141   8.632   5.113   2.419 -2.9929 -1.8922 -2.5337
  524MOL0     H69142   8.498   5.285   2.628  3.0457 -0.0542  2.0957
  524MOL0     H69143   8.452   5.284   2.456  1.7168  0.6012 -1.1252
  524MOL0     H69144   8.659   5.365   2.384 -1.9036  1.4491  0.8991
  524MOL0     H69145   8.741   5.330   2.535 -1.3811 -3.7563 -1.9568
  524MOL0     H69146   8.531   5.546   2.474  1.9131 -2.9107 -4.9438
  524MOL0     H69147   8.606   5.523   2.637  0.5966  2.3718  0.3960
  524MOL0     H69148   8.822   5.574   2.529 -0.6224  2.0120  1.7429
  524MOL0     H69149   8.704   5.698   2.533  0.2349 -0.2983  0.8848
  524MOL0     H69150   8.331   4.569   2.724 -0.8942  1.0849 -0.4000
  524MOL0     H69151   8.470   4.472   2.912  1.9189  0.3422  1.2805
  524MOL0     H69152   9.034   4.542   2.970 -1.3994 -1.6641 -0.4890
  524MOL0     H69153   9.208   4.467   3.110 -0.3955  3.5617  0.9310
  524MOL0     H69154   9.423   5.062   2.929  2.1517  0.3810 -1.6867
  524MOL0     H69155   9.398   5.140   2.684 -2.1318  2.4284 -0.4499
  524MOL0     H69156   9.055   5.446   2.529  1.7355  1.6174  0.3886
  524MOL0     H69157   9.049   5.589   2.318 -3.6956 -1.5775 -0.5451
  524MOL0     H69158   8.958   5.619   2.118  1.8477  1.1104  2.2755
  524MOL0     H69159   8.989   5.573   1.947  1.0081  3.7885 -0.9194
  524MOL0     H69160   9.047   5.831   2.014 -0.8607 -0.8517 -1.2911
  524MOL0     H69161   9.136   5.769   2.145 -1.2009  1.3239  0.2644
  524MOL0     H69162   9.186   5.750   1.842  0.7585 -0.7030 -0.4856
  524MOL0     H69163   9.305   5.673   1.966  0.5248 -0.9152 -3.3364
  524MOL0     H69164   9.239   5.964   1.948 -1.6045 -0.5210 -1.1883
  524MOL0     H69165   9.376   5.884   2.036  0.7112  4.2133 -0.1376
  524MOL0     H69166   9.512   5.911   1.639  2.0238  1.4779  1.6628
  524MOL0     H69167   9.250   5.274   2.103  3.0278 -2.5337  3.9185
  524MOL0     H69168   9.228   5.132   2.284 -0.8592 -0.7161 -3.0111
  525MOL0     O69169   1.355   3.329   7.969  0.3930  0.3692 -0.0730
  525MOL0     C69170   1.279   3.245   7.913 -0.4165 -0.4719  0.2363
  525MOL0     O69171   1.187   3.271   7.811  1.0226 -0.1579  0.2811
  525MOL0     C69172   1.171   3.409   7.792 -0.2301 -0.8034 -0.2144
  525MOL0     C69173   1.244   3.482   7.711  0.3123  0.5487  0.5178
  525MOL0     C69174   1.223   3.621   7.675 -1.4476  1.7647 -0.7226
  525MOL0     C69175   1.128   3.689   7.745  0.4005  0.1812 -0.3504
  525MOL0     O69176   1.105   3.822   7.714 -0.8504 -0.1271  0.4610
  525MOL0     C69177   0.981   3.891   7.737 -0.5092  0.1285 -0.1264
  525MOL0     C69178   0.946   3.970   7.604  0.0342 -0.1481  0.1166
  525MOL0     C69179   1.057   4.070   7.576  0.9149 -0.0601 -0.8644
  525MOL0     C69180   1.008   4.144   7.453 -1.7726  0.3311 -1.2275
  525MOL0     C69181   1.116   4.246   7.383  0.4158  0.9952  0.2517
  525MOL0     C69182   1.057   4.314   7.257  0.5541  0.2051  0.0436
  525MOL0     C69183   1.156   4.413   7.209 -0.1226 -0.4165  1.1935
  525MOL0     C69184   1.141   4.550   7.282  0.0568 -0.2773 -0.1322
  525MOL0     N69185   1.274   4.611   7.299 -0.2059  0.9416 -0.3108
  525MOL0     C69186   1.357   4.670   7.200  0.4327 -0.3710  0.2735
  525MOL0     C69187   1.470   4.674   7.266 -0.3361  0.2219  0.6005
  525MOL0     C69188   1.603   4.725   7.202  0.0467 -0.0375  0.4011
  525MOL0     C69189   1.653   4.864   7.250 -0.0412 -0.1995  0.2386
  525MOL0     C69190   1.585   4.993   7.195 -0.4062 -0.3219  0.3643
  525MOL0     C69191   1.485   5.050   7.288  0.5508  0.2278 -0.3128
  525MOL0     O69192   1.359   4.966   7.288  0.0033 -0.2727 -0.1147
  525MOL0     C69193   1.249   5.019   7.347 -0.6803 -0.2883 -0.4465
  525MOL0     C69194   1.125   4.954   7.320  0.1847 -0.4971 -1.2994
  525MOL0     C69195   1.007   4.998   7.374 -0.1816 -0.4015  0.4708
  525MOL0     C69196   0.997   5.125   7.452 -0.8022 -0.0947 -0.1686
  525MOL0     C69197   0.871   5.194   7.483  0.2270  0.3488  0.2352
  525MOL0     O69198   0.871   5.307   7.551  0.7193  0.2332 -0.1964
  525MOL0     C69199   0.756   5.382   7.581 -0.0896  0.6436 -0.1919
  525MOL0     C69200   0.757   5.460   7.699 -0.1063 -0.4922 -0.1325
  525MOL0     C69201   0.645   5.543   7.739 -0.0561  0.3652  0.4852
  525MOL0     C69202   0.544   5.553   7.655  0.2586 -0.0426 -0.3870
  525MOL0     O69203   0.430   5.625   7.681  0.4917  0.1683 -0.0898
  525MOL0     C69204   0.369   5.631   7.816  0.2475 -0.6083 -1.1239
  525MOL0     C69205   0.214   5.616   7.828 -0.1057 -0.3258  0.2551
  525MOL0     C69206   0.163   5.477   7.798 -0.0333  0.2153  0.0836
  525MOL0     C69207   0.016   5.458   7.850 -0.7012 -0.5731  0.7148
  525MOL0     C69208  -0.057   5.320   7.826 -0.1040  0.6708 -0.9228
  525MOL0     C69209  -0.146   5.317   7.698 -0.9688 -0.9104 -1.5964
  525MOL0     C69210  -0.222   5.185   7.691  0.4427  0.4701 -0.4455
  525MOL0     C69211  -0.135   5.063   7.677 -0.0476 -0.0379  0.4664
  525MOL0    Cl69212  -0.214   4.903   7.669 -0.3252 -0.0328 -0.0839
  525MOL0     C69213   0.541   5.478   7.535 -0.5003  0.1410  0.1278
  525MOL0     C69214   0.650   5.397   7.492  0.1940  1.0220  0.2778
  525MOL0     O69215   0.767   5.141   7.443  0.7507  0.1899 -0.9208
  525MOL0     C69216   1.115   5.195   7.467 -0.3919 -0.6074  0.2636
  525MOL0     C69217   1.238   5.140   7.426 -0.6420 -0.6677 -0.9266
  525MOL0     N69218   1.458   4.634   7.399 -0.6776  1.1567  0.8045
  525MOL0     N69219   1.344   4.594   7.413 -0.0540  1.1296 -1.0027
  525MOL0     C69220   1.053   3.613   7.836  0.0375 -1.0941  0.1718
  525MOL0     C69221   1.070   3.480   7.860 -0.2160  0.4860 -0.3370
  525MOL0     C69222   1.305   3.107   7.958 -0.0383  0.0895 -0.1930
  525MOL0     C69223   1.204   3.011   7.935 -0.0860 -0.1086  0.2032
  525MOL0     C69224   1.232   2.872   7.970 -0.5918 -0.7194  0.0281
  525MOL0     C69225   1.358   2.838   8.022  0.0477  0.7634 -0.0855
  525MOL0     O69226   1.377   2.703   8.039  0.2522 -0.4301  0.3709
  525MOL0     C69227   1.493   2.653   8.104  0.3553  0.0261  0.0517
  525MOL0     C69228   1.516   2.495   8.093 -1.2464  0.8905 -0.6093
  525MOL0     C69229   1.387   2.426   8.133  0.3188 -0.9178 -0.7308
  525MOL0     C69230   1.368   2.294   8.057  0.1247  0.4360 -0.3634
  525MOL0     C69231   1.439   2.192   8.141  0.6859 -0.9269  0.6037
  525MOL0     C69232   1.502   2.123   8.216 -0.1094  0.4362  0.9868
  525MOL0     C69233   1.441   2.940   8.067  0.3891  0.5396  1.2254
  525MOL0     C69234   1.419   3.071   8.029  1.1716 -0.3390  0.1775
  525MOL0     H69235   1.306   3.427   7.640 -2.1217 -2.1436  0.2750
  525MOL0     H69236   1.295   3.674   7.613  0.8297 -0.2203  0.0484
  525MOL0     H69237   0.985   3.958   7.823  0.5066 -3.6280  3.0926
  525MOL0     H69238   0.916   3.806   7.761 -1.8439  1.0033 -0.5841
  525MOL0     H69239   0.844   4.009   7.613 -0.1363 -0.2486 -1.1082
  525MOL0     H69240   0.932   3.897   7.523  1.2796 -1.9898  1.4871
  525MOL0     H69241   1.158   4.030   7.568  0.7636 -0.9050  0.9619
  525MOL0     H69242   1.062   4.143   7.657 -0.2962 -1.2410  0.3315
  525MOL0     H69243   0.989   4.077   7.369  1.2481 -1.6801 -0.4774
  525MOL0     H69244   0.912   4.189   7.479 -0.3124  3.2701 -0.4434
  525MOL0     H69245   1.207   4.189   7.359  0.2015  1.3122 -1.4014
  525MOL0     H69246   1.142   4.333   7.444  3.5577  0.1819  0.2777
  525MOL0     H69247   0.965   4.359   7.296  0.2525 -1.1275  0.9175
  525MOL0     H69248   1.034   4.246   7.175  1.6525  0.7989 -0.7965
  525MOL0     H69249   1.254   4.369   7.231  1.6319  2.3229 -0.6048
  525MOL0     H69250   1.137   4.414   7.101 -1.5563  0.2602  1.4311
  525MOL0     H69251   1.105   4.545   7.385  0.7613  1.8344  0.2528
  525MOL0     H69252   1.067   4.614   7.233  0.0570 -1.5217 -1.8471
  525MOL0     H69253   1.323   4.694   7.099 -1.2505 -3.2409  0.0469
  525MOL0     H69254   1.591   4.720   7.093 -2.2229 -1.3026  0.6631
  525MOL0     H69255   1.683   4.654   7.226  2.3035  2.1764 -0.0967
  525MOL0     H69256   1.757   4.863   7.216  0.8641 -1.0392  2.7530
  525MOL0     H69257   1.651   4.871   7.360  0.8319 -0.3212  0.2684
  525MOL0     H69258   1.671   5.061   7.190  0.2135 -1.0887  0.3576
  525MOL0     H69259   1.548   4.971   7.095 -5.5129  2.0625  1.3916
  525MOL0     H69260   1.455   5.152   7.260  1.4392 -0.2759 -3.5782
  525MOL0     H69261   1.529   5.062   7.387  0.9810  0.1471 -0.4918
  525MOL0     H69262   1.115   4.878   7.243 -0.4073 -3.2241  1.2699
  525MOL0     H69263   0.912   4.946   7.368  0.2371 -1.3246  1.5065
  525MOL0     H69264   0.840   5.463   7.770 -0.8104  0.6377  0.6763
  525MOL0     H69265   0.651   5.605   7.828  2.7979 -0.6154  1.1057
  525MOL0     H69266   0.395   5.732   7.847 -3.9864  1.4121 -3.3989
  525MOL0     H69267   0.412   5.557   7.885  1.9942  0.9310 -0.4873
  525MOL0     H69268   0.172   5.672   7.743 -3.0060 -1.0154  1.1254
  525MOL0     H69269   0.181   5.656   7.924 -0.5887 -0.5953  0.2068
  525MOL0     H69270   0.224   5.406   7.856 -4.3125 -1.5865  2.9348
  525MOL0     H69271   0.179   5.455   7.692 -3.3679 -1.8834 -0.1287
  525MOL0     H69272   0.013   5.488   7.955 -0.0215 -3.6394  1.7089
  525MOL0     H69273  -0.037   5.529   7.785  2.5437  0.0880 -1.4615
  525MOL0     H69274  -0.111   5.295   7.918 -1.0488 -0.8407 -1.8350
  525MOL0     H69275   0.026   5.248   7.831 -1.2744 -0.6695  2.4245
  525MOL0     H69276  -0.087   5.338   7.608 -0.5798  2.4431 -0.6963
  525MOL0     H69277  -0.217   5.400   7.700 -1.0665 -0.9432  1.7118
  525MOL0     H69278  -0.283   5.183   7.782  2.3367  1.6050  0.9043
  525MOL0     H69279  -0.277   5.190   7.597  1.8266  1.3569 -1.2320
  525MOL0     H69280  -0.064   5.066   7.760 -0.5588  0.6537  0.8883
  525MOL0     H69281  -0.087   5.077   7.579 -0.5415  2.9004  0.5692
  525MOL0     H69282   0.450   5.494   7.478 -2.3096 -0.2866  2.7269
  525MOL0     H69283   0.651   5.348   7.396  3.3727  3.5465 -1.1583
  525MOL0     H69284   1.120   5.295   7.510  0.3618 -0.2167 -0.6930
  525MOL0     H69285   1.331   5.189   7.454 -1.5245 -0.5717  2.1255
  525MOL0     H69286   0.979   3.667   7.895  1.7725 -0.3365  1.7252
  525MOL0     H69287   1.007   3.429   7.933  0.1889 -1.3932 -1.2469
  525MOL0     H69288   1.122   3.039   7.869  0.6225  1.8513  0.0769
  525MOL0     H69289   1.150   2.801   7.961 -1.0828 -1.0109  4.5152
  525MOL0     H69290   1.483   2.679   8.209  2.7403  0.5183  0.2180
  525MOL0     H69291   1.586   2.694   8.064  0.4853 -1.2476 -1.0466
  525MOL0     H69292   1.549   2.471   7.992  0.2610  2.0463 -0.4224
  525MOL0     H69293   1.600   2.468   8.158 -1.2792 -2.2418 -1.6688
  525MOL0     H69294   1.309   2.500   8.111 -0.9102 -1.4350  1.6015
  525MOL0     H69295   1.372   2.401   8.238 -0.7274  0.3600 -0.5486
  525MOL0     H69296   1.263   2.264   8.046  0.7022 -3.7292  3.0508
  525MOL0     H69297   1.423   2.290   7.962  2.7070  3.1109  0.8827
  525MOL0     H69298   1.582   2.072   8.264  3.2645  3.3633 -1.0391
  525MOL0     H69299   1.536   2.914   8.110  0.7992 -1.1024 -0.5320
  525MOL0     H69300   1.494   3.146   8.052 -0.3466  0.4840  2.9400
  526MOL0     O69301   2.409   4.253   0.516 -0.5541 -0.4017  0.0509
  526MOL0     C69302   2.456   4.278   0.407 -0.5963  0.4686  0.5712
  526MOL0     O69303   2.461   4.194   0.302  0.3333 -1.3005 -0.2639
  526MOL0     C69304   2.392   4.079   0.309 -1.0357 -0.3293 -0.7951
  526MOL0     C69305   2.275   4.059   0.235 -0.2240 -0.1770  0.7736
  526MOL0     C69306   2.214   3.936   0.237  0.5302  1.1901  0.3906
  526MOL0     C69307   2.263   3.828   0.316  0.2990 -0.5105  1.0869
  526MOL0     O69308   2.181   3.715   0.323  0.8133 -0.0129  0.5182
  526MOL0     C69309   2.259   3.596   0.352 -0.2753  0.0723 -0.4548
  526MOL0     C69310   2.284   3.534   0.216 -1.1889  0.2220  0.9250
  526MOL0     C69311   2.391   3.421   0.213  0.1925  0.2682 -0.3613
  526MOL0     C69312   2.547   3.467   0.195  0.1888  0.2346  0.3097
  526MOL0     C69313   2.654   3.371   0.259 -0.2395  0.7842 -0.7665
  526MOL0     C69314   2.615   3.224   0.242  0.5897  0.4202 -0.8552
  526MOL0     C69315   2.576   3.173   0.091  0.5314 -0.4830  0.9521
  526MOL0     C69316   2.710   3.136   0.022 -0.1625 -0.3769 -0.2536
  526MOL0     N69317   2.742   2.997   0.052  0.0580 -0.2478 -0.1200
  526MOL0     C69318   2.863   2.958   0.111 -0.2879  0.3222  0.0802
  526MOL0     C69319   2.859   2.824   0.121  0.5138 -0.1967  0.0749
  526MOL0     C69320   2.987   2.758   0.155 -0.0248 -0.5858 -1.1326
  526MOL0     C69321   2.966   2.617   0.221  0.3276  0.1158 -0.5221
  526MOL0     C69322   2.975   2.605   0.374 -0.8525 -0.5927 -0.1225
  526MOL0     C69323   2.878   2.693   0.451 -0.0354  0.3224  0.0410
  526MOL0     O69324   2.920   2.834   0.445  0.5350  0.6029 -0.1610
  526MOL0     C69325   2.839   2.934   0.481  0.0506 -0.8033 -0.9865
  526MOL0     C69326   2.713   2.921   0.549 -1.3557 -0.2064  0.2579
  526MOL0     C69327   2.640   3.036   0.594  0.2828  0.0510  1.0016
  526MOL0     C69328   2.690   3.167   0.582  0.5573 -0.4640 -0.2315
  526MOL0     C69329   2.616   3.275   0.632 -0.6144  0.6563 -0.5230
  526MOL0     O69330   2.505   3.249   0.712 -0.0948  0.6595 -0.7781
  526MOL0     C69331   2.445   3.359   0.770  0.6512  0.5204  0.2157
  526MOL0     C69332   2.463   3.390   0.904  0.2403 -0.3477 -0.3052
  526MOL0     C69333   2.413   3.511   0.958  0.0848 -0.3820  0.5399
  526MOL0     C69334   2.341   3.604   0.873  0.1958  0.2269 -1.0247
  526MOL0     O69335   2.277   3.718   0.912 -0.0090 -0.1065 -0.2745
  526MOL0     C69336   2.357   3.814   0.979 -0.0174  1.4019  0.4519
  526MOL0     C69337   2.268   3.930   1.012  0.3437 -0.5885 -0.4136
  526MOL0     C69338   2.325   3.994   1.139  0.3826 -0.1367 -0.4310
  526MOL0     C69339   2.274   4.134   1.166 -0.0626 -0.0581 -0.2271
  526MOL0     C69340   2.317   4.204   1.293  0.5332 -0.0015 -0.2709
  526MOL0     C69341   2.276   4.348   1.304  0.1264 -0.1020  0.4207
  526MOL0     C69342   2.282   4.388   1.461 -0.2737  0.7447 -0.2796
  526MOL0     C69343   2.250   4.542   1.477 -0.4727 -0.2146  0.2918
  526MOL0    Cl69344   2.079   4.593   1.457  0.2263 -0.1327  0.3311
  526MOL0     C69345   2.335   3.581   0.742  1.3149 -0.0312  0.9254
  526MOL0     C69346   2.390   3.461   0.689  1.2297  1.4129  0.5909
  526MOL0     O69347   2.656   3.387   0.614 -0.6745  0.0403  0.7568
  526MOL0     C69348   2.826   3.186   0.529 -0.1156  0.2238  0.4617
  526MOL0     C69349   2.884   3.070   0.478 -0.2293  0.3556  0.7486
  526MOL0     N69350   2.739   2.787   0.054 -0.2863 -0.1548 -0.6445
  526MOL0     N69351   2.665   2.886   0.013 -0.2200 -0.0160 -0.2265
  526MOL0     C69352   2.371   3.855   0.406 -0.4780  0.4934  0.4795
  526MOL0     C69353   2.438   3.979   0.392  0.0717  0.0940 -0.4244
  526MOL0     C69354   2.526   4.405   0.379 -0.8004  0.0148 -0.3527
  526MOL0     C69355   2.530   4.508   0.483  0.0779  0.0415  0.0202
  526MOL0     C69356   2.594   4.628   0.454  1.2728 -0.6160 -0.3189
  526MOL0     C69357   2.646   4.657   0.330 -0.7368 -0.1884  0.0673
  526MOL0     O69358   2.692   4.789   0.311 -0.2743 -0.5845 -0.4525
  526MOL0     C69359   2.716   4.832   0.176 -0.0888 -0.3868 -0.6405
  526MOL0     C69360   2.697   4.985   0.187 -0.0346  0.6166 -0.3955
  526MOL0     C69361   2.545   5.014   0.195 -0.4609 -0.0563  0.1575
  526MOL0     C69362   2.510   5.160   0.229 -0.3450  0.0602 -0.5032
  526MOL0     C69363   2.536   5.197   0.374  0.3251  0.6656  1.1704
  526MOL0     C69364   2.559   5.230   0.488 -1.0911 -0.2245  0.2756
  526MOL0     C69365   2.659   4.560   0.226 -0.4451  0.9919 -0.3741
  526MOL0     C69366   2.595   4.429   0.253  0.1234  0.2131 -0.4344
  526MOL0     H69367   2.238   4.130   0.162 -2.2625 -0.7744  1.1643
  526MOL0     H69368   2.128   3.905   0.179  0.3843 -0.9066  1.6090
  526MOL0     H69369   2.196   3.521   0.401 -0.9669  0.8681 -0.1047
  526MOL0     H69370   2.353   3.592   0.408 -1.0941  0.2428  0.9907
  526MOL0     H69371   2.323   3.608   0.146 -1.6272 -1.7993 -1.5871
  526MOL0     H69372   2.196   3.490   0.168  0.6761 -1.5886 -1.0627
  526MOL0     H69373   2.372   3.358   0.126  1.6598 -1.8981  0.8052
  526MOL0     H69374   2.361   3.354   0.294  2.0387  1.2942  1.2707
  526MOL0     H69375   2.561   3.446   0.088  1.3648  0.1992  0.4606
  526MOL0     H69376   2.567   3.572   0.215  1.7690  0.1867 -0.8056
  526MOL0     H69377   2.668   3.393   0.365  1.5878  3.3268 -1.4354
  526MOL0     H69378   2.754   3.385   0.217 -0.4860  1.3433 -1.1875
  526MOL0     H69379   2.540   3.194   0.315  0.6756 -1.6535 -1.5403
  526MOL0     H69380   2.710   3.174   0.266  0.4100  1.0396  1.4190
  526MOL0     H69381   2.500   3.095   0.096  0.9248 -0.9372  0.1169
  526MOL0     H69382   2.534   3.257   0.036  0.5071  0.4252  2.3225
  526MOL0     H69383   2.787   3.209   0.048  0.1927 -0.9884  0.4280
  526MOL0     H69384   2.703   3.140  -0.088  2.3514 -2.3204 -0.5853
  526MOL0     H69385   2.950   3.020   0.131  0.3058 -0.5934  0.4157
  526MOL0     H69386   3.037   2.829   0.221 -4.5742  2.8909 -0.9673
  526MOL0     H69387   3.057   2.753   0.071  3.0584  0.6141  1.1574
  526MOL0     H69388   3.039   2.549   0.177 -1.1966 -1.1319 -1.2270
  526MOL0     H69389   2.868   2.587   0.183 -0.3305 -2.1867  2.6127
  526MOL0     H69390   2.965   2.496   0.384 -0.1160 -1.0685 -3.3697
  526MOL0     H69391   3.079   2.619   0.407 -0.1603 -0.8814 -2.0374
  526MOL0     H69392   2.887   2.654   0.552 -1.7129 -1.6363 -0.4803
  526MOL0     H69393   2.777   2.692   0.407 -0.4961  0.5930  1.0591
  526MOL0     H69394   2.681   2.819   0.563  2.0820 -1.4694  0.0303
  526MOL0     H69395   2.549   3.015   0.650  0.9213  2.1278  2.9985
  526MOL0     H69396   2.499   3.317   0.976  0.2569  1.9788  2.2151
  526MOL0     H69397   2.419   3.523   1.066  2.4648 -1.2174  0.5683
  526MOL0     H69398   2.442   3.839   0.914  0.5500  1.4471  1.1974
  526MOL0     H69399   2.400   3.770   1.069 -0.3998  0.9287  0.4089
  526MOL0     H69400   2.166   3.899   1.036  0.2297 -0.3111 -0.5277
  526MOL0     H69401   2.261   3.997   0.926 -0.2314 -0.7263 -0.4778
  526MOL0     H69402   2.434   3.993   1.148  0.2982  2.3354  2.3094
  526MOL0     H69403   2.285   3.933   1.221  0.7014  1.1805  0.7409
  526MOL0     H69404   2.299   4.202   1.084  0.0022  1.4820  1.0016
  526MOL0     H69405   2.169   4.109   1.185  0.6525 -2.2227  1.1819
  526MOL0     H69406   2.427   4.198   1.286  0.5942 -4.4862  1.4123
  526MOL0     H69407   2.292   4.137   1.376  0.5667  0.8210  0.4136
  526MOL0     H69408   2.179   4.383   1.267  0.4231  0.3657  0.0659
  526MOL0     H69409   2.359   4.406   1.262  1.3457 -1.4117  0.9376
  526MOL0     H69410   2.212   4.325   1.517  0.7202  2.0756  2.6974
  526MOL0     H69411   2.382   4.371   1.502 -0.9092 -1.1252  0.5973
  526MOL0     H69412   2.319   4.603   1.418 -1.3632  1.0876  0.5526
  526MOL0     H69413   2.277   4.569   1.580 -2.1544  2.5692  0.1140
  526MOL0     H69414   2.300   3.666   0.684  1.3120  1.3130  2.8108
  526MOL0     H69415   2.388   3.441   0.583 -4.1687  0.5882  0.6001
  526MOL0     H69416   2.885   3.276   0.538  1.2435 -0.6664  0.8376
  526MOL0     H69417   2.985   3.094   0.448 -0.5476  0.1879 -0.5215
  526MOL0     H69418   2.408   3.797   0.491 -2.0173  1.4190  1.8309
  526MOL0     H69419   2.523   4.007   0.454 -2.2685  2.9595  1.7597
  526MOL0     H69420   2.504   4.472   0.582  4.1053 -0.1077  1.1874
  526MOL0     H69421   2.620   4.710   0.519  0.4084 -0.4020 -0.2343
  526MOL0     H69422   2.646   4.780   0.110  1.1238 -2.3302 -0.4581
  526MOL0     H69423   2.822   4.819   0.151  0.8468  0.8541  2.2324
  526MOL0     H69424   2.746   5.026   0.276 -1.4541 -3.1827  2.4004
  526MOL0     H69425   2.732   5.030   0.094 -0.7694 -3.7214 -3.0647
  526MOL0     H69426   2.514   4.954   0.281  1.2995 -2.0882 -0.5303
  526MOL0     H69427   2.491   4.980   0.107 -1.0787  0.6451  0.2596
  526MOL0     H69428   2.572   5.222   0.164  0.4230 -0.8675 -0.6741
  526MOL0     H69429   2.405   5.175   0.200 -1.4198 -0.6244  2.5727
  526MOL0     H69430   2.563   5.270   0.588  0.2640 -4.1584  2.0403
  526MOL0     H69431   2.701   4.570   0.126  1.8668 -3.2970 -0.0740
  526MOL0     H69432   2.600   4.353   0.176 -1.4842 -1.2817  0.8667
  527MOL0     O69433   9.647   6.924   0.056  0.8288  0.8063 -1.1825
  527MOL0     C69434   9.727   6.929   0.150 -0.2369  0.1223  0.7054
  527MOL0     O69435   9.725   6.850   0.271 -0.1472  0.0755 -0.6633
  527MOL0     C69436   9.621   6.761   0.289 -0.4882 -0.6581  0.6288
  527MOL0     C69437   9.633   6.622   0.262 -0.0886  0.8466 -0.3230
  527MOL0     C69438   9.518   6.548   0.267  0.7652 -0.0164  1.1244
  527MOL0     C69439   9.399   6.596   0.328 -0.5618 -0.1323 -1.0147
  527MOL0     O69440   9.295   6.508   0.358 -0.4621  0.1326 -0.1432
  527MOL0     C69441   9.219   6.464   0.248  0.2869  0.8470  0.1952
  527MOL0     C69442   9.078   6.430   0.283  1.3525 -0.3598 -0.1907
  527MOL0     C69443   9.060   6.289   0.338  0.3079  0.6853  0.2896
  527MOL0     C69444   9.060   6.292   0.491 -0.1840 -0.7305 -0.0041
  527MOL0     C69445   9.011   6.157   0.554 -0.4480  0.3244  0.4079
  527MOL0     C69446   9.046   6.132   0.698  1.7377 -0.3577 -0.2639
  527MOL0     C69447   8.945   6.062   0.788 -0.1433 -0.8717 -0.7452
  527MOL0     C69448   8.827   6.156   0.825 -0.2752  0.6894 -0.6690
  527MOL0     N69449   8.856   6.296   0.838  0.3446 -0.2456 -0.4769
  527MOL0     C69450   8.921   6.356   0.944  0.1456 -0.8899 -1.4947
  527MOL0     C69451   8.907   6.493   0.923  0.6035 -0.2890 -0.4037
  527MOL0     C69452   8.964   6.607   1.000  0.8657 -0.2602  0.9642
  527MOL0     C69453   8.929   6.586   1.145 -0.8442 -0.7867  0.7638
  527MOL0     C69454   8.895   6.720   1.210  0.3492  0.4409 -0.7278
  527MOL0     C69455   8.862   6.692   1.352 -0.0681  0.2307  0.0008
  527MOL0     O69456   8.727   6.658   1.374  0.3015  0.5858 -0.2185
  527MOL0     C69457   8.683   6.628   1.495 -1.1430  0.0041 -1.1203
  527MOL0     C69458   8.550   6.589   1.508  0.6027  0.1246 -0.4069
  527MOL0     C69459   8.497   6.546   1.635 -0.4647  0.4172  1.5386
  527MOL0     C69460   8.574   6.560   1.754  0.5059 -0.0067 -0.2940
  527MOL0     C69461   8.519   6.538   1.885 -0.4202 -0.4554 -0.4282
  527MOL0     O69462   8.603   6.474   1.973 -0.3462 -0.6982 -0.2260
  527MOL0     C69463   8.546   6.450   2.102 -0.8111 -0.4742 -0.8117
  527MOL0     C69464   8.617   6.509   2.210 -0.4911  1.1210  0.3856
  527MOL0     C69465   8.576   6.490   2.346  0.2331  0.0007  0.8554
  527MOL0     C69466   8.469   6.401   2.375  0.6691  0.3995  0.4489
  527MOL0     O69467   8.437   6.352   2.497  0.2508  0.7039 -0.0965
  527MOL0     C69468   8.482   6.413   2.618  0.5225 -0.7248 -0.4727
  527MOL0     C69469   8.434   6.326   2.744 -0.5646 -0.8511  1.2216
  527MOL0     C69470   8.519   6.204   2.769 -0.3486 -0.1931  1.4685
  527MOL0     C69471   8.621   6.236   2.880 -0.7406  1.0517  0.5368
  527MOL0     C69472   8.758   6.163   2.850  0.3648 -0.4314  0.7741
  527MOL0     C69473   8.848   6.230   2.738  0.5007 -0.4315  0.2351
  527MOL0     C69474   8.885   6.380   2.761 -0.5035 -0.8173 -0.3182
  527MOL0     C69475   8.979   6.433   2.644 -0.3233  1.0649 -0.6488
  527MOL0    Cl69476   8.895   6.450   2.488 -0.3912 -0.5002 -0.3846
  527MOL0     C69477   8.415   6.324   2.267  0.2817 -0.2879 -0.1172
  527MOL0     C69478   8.456   6.352   2.135  0.9726 -0.8620 -0.4381
  527MOL0     O69479   8.403   6.573   1.901  0.0694  1.0847 -0.6601
  527MOL0     C69480   8.709   6.596   1.735  0.2702  0.5472 -0.5173
  527MOL0     C69481   8.760   6.636   1.611  0.7131  0.0874  0.2582
  527MOL0     N69482   8.843   6.511   0.803  0.2582  0.0578 -0.1664
  527MOL0     N69483   8.823   6.395   0.753 -0.4639 -0.2809  0.5220
  527MOL0     C69484   9.388   6.732   0.354  0.3226  0.2038 -0.6486
  527MOL0     C69485   9.503   6.818   0.336 -0.5291  0.3201  0.3129
  527MOL0     C69486   9.855   7.000   0.127  0.7488  0.2011  0.2050
  527MOL0     C69487   9.869   7.070   0.012  0.2421 -1.2466  0.1575
  527MOL0     C69488   9.982   7.141  -0.023  0.1126 -0.2402 -0.3395
  527MOL0     C69489  10.088   7.160   0.070 -0.1629 -0.2671 -0.2107
  527MOL0     O69490  10.196   7.226   0.021 -0.8150  0.6661  0.8128
  527MOL0     C69491  10.286   7.275   0.115 -0.1896 -0.2946  0.1480
  527MOL0     C69492  10.321   7.417   0.087 -0.0571  0.2932 -0.1501
  527MOL0     C69493  10.389   7.437  -0.045  0.3707 -1.4756 -0.0575
  527MOL0     C69494  10.412   7.587  -0.073  0.3060  0.2117  0.3827
  527MOL0     C69495  10.484   7.611  -0.197  0.4250 -1.1282  0.0249
  527MOL0     C69496  10.539   7.637  -0.299 -0.1300 -0.5312  0.5097
  527MOL0     C69497  10.068   7.105   0.196 -0.6075  0.2832 -0.8250
  527MOL0     C69498   9.951   7.026   0.227 -1.2145  0.1762  0.7080
  527MOL0     H69499   9.722   6.575   0.221 -1.2289  0.1801 -2.1455
  527MOL0     H69500   9.509   6.444   0.239  2.2604 -0.5724  2.5314
  527MOL0     H69501   9.267   6.377   0.201 -2.6094 -0.4844 -0.5573
  527MOL0     H69502   9.209   6.543   0.173  1.7233  0.5049 -0.3862
  527MOL0     H69503   9.017   6.442   0.194 -1.0552  0.1048  1.4157
  527MOL0     H69504   9.031   6.498   0.355 -2.0121 -0.3806 -2.1505
  527MOL0     H69505   9.134   6.222   0.294  1.5488  2.3898 -0.3432
  527MOL0     H69506   8.961   6.247   0.319  0.5501 -0.9476  2.2423
  527MOL0     H69507   9.160   6.307   0.532 -0.4928 -0.9301  0.8367
  527MOL0     H69508   8.996   6.372   0.529  0.6054 -0.4404  0.7489
  527MOL0     H69509   9.058   6.075   0.499  1.8599  1.5596  0.4257
  527MOL0     H69510   8.905   6.132   0.548  0.0538 -2.3797  1.4065
  527MOL0     H69511   9.072   6.227   0.746 -0.7361 -0.3767  1.2811
  527MOL0     H69512   9.136   6.071   0.707  2.0330  0.2333  1.0292
  527MOL0     H69513   8.899   5.976   0.739 -2.1607  0.1318 -0.7173
  527MOL0     H69514   8.998   6.045   0.882  2.4690  0.3182 -1.9206
  527MOL0     H69515   8.786   6.123   0.920 -0.6331 -2.2665 -1.7682
  527MOL0     H69516   8.749   6.139   0.751 -2.4783  0.0912  1.6886
  527MOL0     H69517   8.961   6.303   1.030  1.2946  1.5099 -0.4571
  527MOL0     H69518   8.920   6.701   0.966  0.1476  0.3491  3.3520
  527MOL0     H69519   9.072   6.622   0.991  0.3535  4.8840  0.1874
  527MOL0     H69520   9.016   6.541   1.194 -0.5557 -1.1080 -0.0208
  527MOL0     H69521   8.851   6.509   1.150  0.6568 -2.4977 -0.4725
  527MOL0     H69522   8.982   6.786   1.208 -0.3777  1.4573  0.0876
  527MOL0     H69523   8.811   6.761   1.153  0.3128  1.1130 -0.1893
  527MOL0     H69524   8.865   6.794   1.391  1.1141  0.6006 -1.0146
  527MOL0     H69525   8.934   6.619   1.389 -0.3875 -0.6093 -0.9895
  527MOL0     H69526   8.493   6.578   1.416 -1.4210 -3.0087  1.0343
  527MOL0     H69527   8.397   6.506   1.651 -1.3074  2.3590  1.3984
  527MOL0     H69528   8.707   6.565   2.187 -1.4045  2.0986 -1.0224
  527MOL0     H69529   8.643   6.530   2.421  1.5641 -1.4650  0.5022
  527MOL0     H69530   8.444   6.515   2.626 -0.1305 -0.8835 -1.3841
  527MOL0     H69531   8.591   6.421   2.609  0.5973  0.0825  0.8766
  527MOL0     H69532   8.332   6.291   2.724 -1.7156  1.6892  2.1963
  527MOL0     H69533   8.423   6.390   2.831  0.5574  0.8596  0.1538
  527MOL0     H69534   8.574   6.185   2.676 -0.5102 -0.4256  1.4204
  527MOL0     H69535   8.450   6.124   2.800 -3.3787  2.1690  1.2532
  527MOL0     H69536   8.645   6.342   2.893  5.1859  0.2509 -0.6670
  527MOL0     H69537   8.578   6.188   2.968 -1.6600 -1.7674 -1.3128
  527MOL0     H69538   8.736   6.059   2.826  3.1334 -0.3373 -3.3093
  527MOL0     H69539   8.821   6.165   2.939 -0.5235 -2.1158  1.4679
  527MOL0     H69540   8.791   6.227   2.645 -1.1754  0.9653  1.1567
  527MOL0     H69541   8.943   6.177   2.725  0.9740  0.7701 -1.6706
  527MOL0     H69542   8.797   6.443   2.778  0.6741  0.5478  1.0859
  527MOL0     H69543   8.950   6.384   2.850 -1.1135 -0.8168  0.1331
  527MOL0     H69544   9.064   6.365   2.638 -1.3214 -0.3550  0.3784
  527MOL0     H69545   9.011   6.536   2.664 -0.1120  0.6130  1.6586
  527MOL0     H69546   8.332   6.258   2.288  1.4953 -2.0713 -0.7000
  527MOL0     H69547   8.400   6.293   2.063  1.1629 -1.2952 -0.2391
  527MOL0     H69548   8.777   6.599   1.819  1.0792 -0.5228 -1.1091
  527MOL0     H69549   8.856   6.686   1.602  1.0371 -0.2138  1.7336
  527MOL0     H69550   9.288   6.765   0.383  0.1185  0.1383 -1.2563
  527MOL0     H69551   9.501   6.924   0.361  0.0370  0.0854  1.4310
  527MOL0     H69552   9.779   7.080  -0.048 -0.6801 -0.9943  1.5507
  527MOL0     H69553   9.979   7.181  -0.123 -0.1291  1.9740  0.4970
  527MOL0     H69554  10.372   7.209   0.107 -0.2296 -0.5799  1.7419
  527MOL0     H69555  10.247   7.272   0.218  0.1884  0.1673  0.3095
  527MOL0     H69556  10.231   7.478   0.096 -0.0390  0.3784 -0.5409
  527MOL0     H69557  10.381   7.440   0.175 -2.7243  0.5940  1.6988
  527MOL0     H69558  10.330   7.398  -0.129 -2.9399  0.6890  1.0435
  527MOL0     H69559  10.491   7.399  -0.053  0.9193 -0.2582  0.7750
  527MOL0     H69560  10.318   7.642  -0.086  1.2939  1.4362 -2.4052
  527MOL0     H69561  10.474   7.636   0.003  2.7869  2.4352 -2.7785
  527MOL0     H69562  10.596   7.664  -0.385  0.3008  1.7455  1.4460
  527MOL0     H69563  10.131   7.127   0.282 -2.4208 -1.8435  1.1671
  527MOL0     H69564   9.940   6.980   0.325  0.9636  2.6511  2.2395
  528MOL0     O69565  10.951   4.133   7.746  0.5503  0.2018 -0.5319
  528MOL0     C69566  10.901   4.130   7.862  0.6305  0.4686  0.3998
  528MOL0     O69567  10.908   4.219   7.966 -0.0967  0.5351 -0.1292
  528MOL0     C69568  11.017   4.289   7.999 -0.1872 -0.1202  0.0755
  528MOL0     C69569  11.012   4.383   8.104  0.7109  0.2417  0.5033
  528MOL0     C69570  11.117   4.471   8.136 -0.2819 -0.5369 -0.5943
  528MOL0     C69571  11.240   4.464   8.075  0.3498 -0.3821  1.1043
  528MOL0     O69572  11.338   4.549   8.105 -0.0131  0.0547 -0.2411
  528MOL0     C69573  11.387   4.635   7.995 -0.3120  1.0252 -0.5373
  528MOL0     C69574  11.513   4.723   8.044 -0.0634  0.2189 -0.4071
  528MOL0     C69575  11.553   4.833   7.935 -0.4641  0.4711 -0.2725
  528MOL0     C69576  11.687   4.905   7.949  0.7694  0.4914  0.0996
  528MOL0     C69577  11.685   5.025   7.856 -0.5027 -0.9444  0.3111
  528MOL0     C69578  11.689   4.991   7.700 -0.3888 -0.4861 -0.6972
  528MOL0     C69579  11.773   5.096   7.611  0.2508  0.6227 -0.3267
  528MOL0     C69580  11.917   5.120   7.654  0.2524  0.5197  0.2547
  528MOL0     N69581  11.980   4.993   7.690 -0.3417  0.7889  0.1754
  528MOL0     C69582  12.021   4.896   7.602 -0.2416  0.6991 -0.5407
  528MOL0     C69583  12.109   4.821   7.679  0.0595 -0.3395  0.0422
  528MOL0     C69584  12.197   4.714   7.638 -0.5258 -0.3842  0.4370
  528MOL0     C69585  12.342   4.749   7.658 -0.5122 -0.0788 -0.1344
  528MOL0     C69586  12.431   4.654   7.578 -0.1151 -0.3241  0.3476
  528MOL0     C69587  12.439   4.517   7.631  1.1378 -0.9107 -0.4727
  528MOL0     O69588  12.313   4.453   7.611 -0.9742  0.0246  1.0418
  528MOL0     C69589  12.273   4.372   7.712 -0.5099  0.3273 -0.0778
  528MOL0     C69590  12.140   4.322   7.690 -0.4607  0.7122  0.0878
  528MOL0     C69591  12.092   4.217   7.763  0.0550  0.6752  0.7035
  528MOL0     C69592  12.155   4.166   7.877 -1.2067  0.4804  0.2756
  528MOL0     C69593  12.088   4.060   7.956  0.1631 -0.6629  0.0796
  528MOL0     O69594  12.155   4.028   8.063  0.0114  0.4262  0.8042
  528MOL0     C69595  12.107   3.931   8.151 -0.2227  0.2266  0.4537
  528MOL0     C69596  12.138   3.797   8.129  0.0620  0.7578  0.2380
  528MOL0     C69597  12.102   3.699   8.213 -0.1106 -0.3472 -1.0675
  528MOL0     C69598  12.010   3.737   8.314 -0.1118  0.2385 -0.0034
  528MOL0     O69599  11.941   3.648   8.395  0.0125  0.4127  0.3104
  528MOL0     C69600  11.911   3.519   8.348  0.2151  0.1186 -0.0318
  528MOL0     C69601  11.970   3.415   8.452  0.2087 -0.4468 -0.0385
  528MOL0     C69602  12.119   3.398   8.445 -0.7787 -0.0356 -0.6822
  528MOL0     C69603  12.142   3.312   8.570  0.2973  0.7878 -0.3159
  528MOL0     C69604  12.280   3.300   8.615 -0.1360 -0.1859  0.6155
  528MOL0     C69605  12.378   3.235   8.527  0.4250 -0.2538  0.2106
  528MOL0     C69606  12.387   3.082   8.558  0.0260  0.9067  0.3568
  528MOL0     C69607  12.478   3.035   8.677  1.4847  0.1997  0.1274
  528MOL0    Cl69608  12.370   3.033   8.828  0.2899  0.7561  0.2553
  528MOL0     C69609  11.974   3.874   8.339  0.3176  0.3029  0.3589
  528MOL0     C69610  12.029   3.974   8.260 -1.0235  0.4778  0.2325
  528MOL0     O69611  11.985   4.013   7.913  0.1088  0.0722 -0.3363
  528MOL0     C69612  12.292   4.208   7.892  0.6918  0.1248 -1.0501
  528MOL0     C69613  12.351   4.297   7.804  0.9982 -0.0342 -0.1609
  528MOL0     N69614  12.090   4.860   7.810 -0.1014 -0.3957 -0.4581
  528MOL0     N69615  12.006   4.961   7.818  0.3853  0.2495 -0.4971
  528MOL0     C69616  11.256   4.365   7.977  0.4692 -0.2592 -0.4860
  528MOL0     C69617  11.146   4.273   7.936  0.4150  0.0564 -0.3054
  528MOL0     C69618  10.805   4.024   7.878  1.1885  0.3571  0.6033
  528MOL0     C69619  10.723   4.017   7.993 -0.8670  0.8368 -0.0223
  528MOL0     C69620  10.629   3.911   8.018 -0.0957 -0.8383  0.1336
  528MOL0     C69621  10.627   3.800   7.940  0.0289 -0.4114 -1.0862
  528MOL0     O69622  10.554   3.694   7.980  0.5731  0.0991  0.5294
  528MOL0     C69623  10.600   3.628   8.097  0.5949 -0.6747 -0.1878
  528MOL0     C69624  10.488   3.572   8.186  0.5835 -0.2574 -1.6573
  528MOL0     C69625  10.388   3.683   8.228 -0.3383 -0.5412 -1.2840
  528MOL0     C69626  10.300   3.632   8.350 -0.3698  0.1102 -0.0905
  528MOL0     C69627  10.239   3.744   8.420  0.3688  0.8633 -0.3019
  528MOL0     C69628  10.181   3.812   8.502  0.3738 -0.3648  0.2678
  528MOL0     C69629  10.713   3.793   7.833 -0.1025  1.4818 -0.1949
  528MOL0     C69630  10.798   3.905   7.793  0.0605 -0.2691 -0.6994
  528MOL0     H69631  10.918   4.392   8.158 -0.2344  2.7911 -1.3310
  528MOL0     H69632  11.089   4.524   8.226  0.1189 -0.8564 -0.2787
  528MOL0     H69633  11.316   4.703   7.947  1.0937  1.4666 -2.1002
  528MOL0     H69634  11.431   4.565   7.924  0.0613  0.2537  0.4235
  528MOL0     H69635  11.602   4.660   8.057 -0.8196 -0.7574  0.1245
  528MOL0     H69636  11.481   4.748   8.145 -1.8524 -1.5271 -0.4862
  528MOL0     H69637  11.477   4.912   7.947 -0.6134  0.3318 -0.2997
  528MOL0     H69638  11.561   4.794   7.833  2.0803 -0.5806  0.2756
  528MOL0     H69639  11.688   4.943   8.052  0.7624  2.1826 -0.4916
  528MOL0     H69640  11.770   4.834   7.939  0.3378  0.0346 -0.3045
  528MOL0     H69641  11.769   5.091   7.882  0.2611 -1.2897 -1.1975
  528MOL0     H69642  11.590   5.077   7.871 -1.0742 -0.3280 -4.1476
  528MOL0     H69643  11.590   5.002   7.655 -0.6565  1.7687  0.2885
  528MOL0     H69644  11.729   4.892   7.679  0.4821 -1.0811  3.0559
  528MOL0     H69645  11.777   5.041   7.516 -0.3335  0.7881 -0.4486
  528MOL0     H69646  11.727   5.196   7.615  2.3563  1.5994  2.7315
  528MOL0     H69647  11.925   5.205   7.722  1.5069 -0.4755  1.4416
  528MOL0     H69648  11.964   5.153   7.562  1.1254  1.7397  1.1088
  528MOL0     H69649  12.008   4.895   7.494 -1.9499 -4.3899 -0.5697
  528MOL0     H69650  12.180   4.683   7.535  0.6903  2.2907 -0.6564
  528MOL0     H69651  12.191   4.625   7.702 -1.6951 -0.5127  0.1714
  528MOL0     H69652  12.369   4.748   7.764  0.1971 -2.0777 -0.3023
  528MOL0     H69653  12.359   4.853   7.628  1.3873  0.8459  3.5113
  528MOL0     H69654  12.402   4.669   7.474  1.7079  0.3844 -0.1000
  528MOL0     H69655  12.535   4.688   7.588 -0.8233  2.0127  0.2139
  528MOL0     H69656  12.455   4.538   7.737  0.3290 -2.5979  0.0155
  528MOL0     H69657  12.527   4.467   7.591  2.0362 -1.8021  2.4065
  528MOL0     H69658  12.078   4.365   7.612  0.8271  2.0516 -0.2440
  528MOL0     H69659  11.992   4.187   7.733 -0.3755  1.9699  0.7863
  528MOL0     H69660  12.191   3.762   8.041 -1.9297  1.1787 -1.1921
  528MOL0     H69661  12.132   3.595   8.211  0.8972 -0.3609  3.7331
  528MOL0     H69662  11.936   3.490   8.246  0.7895  1.6100 -0.3326
  528MOL0     H69663  11.803   3.500   8.338  0.4175 -0.0785 -2.3922
  528MOL0     H69664  11.929   3.317   8.427 -1.2249  0.2200 -0.3964
  528MOL0     H69665  11.938   3.452   8.550  1.4644 -0.8602  0.5451
  528MOL0     H69666  12.175   3.491   8.451 -0.3086 -0.4225  2.1208
  528MOL0     H69667  12.147   3.348   8.351 -0.5805  1.6236 -1.5485
  528MOL0     H69668  12.086   3.338   8.660  2.4626 -0.2025  1.4116
  528MOL0     H69669  12.105   3.212   8.543 -1.1634  1.1777  0.1891
  528MOL0     H69670  12.294   3.250   8.711  1.8079  0.6878  0.8349
  528MOL0     H69671  12.325   3.396   8.644  0.5606  0.0518 -1.1203
  528MOL0     H69672  12.478   3.274   8.550  0.5803 -1.0850  1.0406
  528MOL0     H69673  12.361   3.258   8.422 -1.9157 -5.2382 -0.7923
  528MOL0     H69674  12.290   3.036   8.582  1.4401 -0.6329  3.8775
  528MOL0     H69675  12.419   3.041   8.462  0.3251 -2.6253  1.8137
  528MOL0     H69676  12.566   3.097   8.700  1.9228 -1.0855  2.2262
  528MOL0     H69677  12.510   2.934   8.650 -3.5025 -1.1582 -1.7551
  528MOL0     H69678  11.916   3.905   8.426  0.5431  1.2084  0.1872
  528MOL0     H69679  11.994   4.077   8.263  1.0439  1.3072 -1.4863
  528MOL0     H69680  12.356   4.161   7.965 -1.0765 -2.2999 -0.9443
  528MOL0     H69681  12.455   4.324   7.823  0.8549  0.1927  0.3127
  528MOL0     H69682  11.357   4.347   7.941  1.4815 -1.6875  2.7502
  528MOL0     H69683  11.167   4.188   7.873 -0.2469  0.9291 -1.7762
  528MOL0     H69684  10.724   4.100   8.064 -0.5204  1.3860 -0.6571
  528MOL0     H69685  10.559   3.928   8.099 -1.3724  4.8415 -1.7456
  528MOL0     H69686  10.648   3.703   8.160 -1.4668  1.2344 -0.7350
  528MOL0     H69687  10.675   3.554   8.066  0.7120 -0.4770 -0.3764
  528MOL0     H69688  10.432   3.485   8.152 -2.0366 -0.8619  3.3733
  528MOL0     H69689  10.533   3.546   8.282  1.2504  1.9565 -1.2936
  528MOL0     H69690  10.328   3.712   8.140 -1.2430  1.7902  0.0166
  528MOL0     H69691  10.439   3.772   8.266 -4.3214  1.2434  0.4548
  528MOL0     H69692  10.242   3.556   8.298 -0.3886  0.9630 -1.3678
  528MOL0     H69693  10.352   3.577   8.429  0.4278 -1.8295 -1.8668
  528MOL0     H69694  10.139   3.878   8.575 -0.6669  0.0651 -0.6878
  528MOL0     H69695  10.713   3.704   7.770  2.3998  2.9221 -2.4236
  528MOL0     H69696  10.865   3.883   7.710  2.7452 -2.1944  1.7530
  529MOL0     O69697   3.544   5.534   3.982 -0.3762 -0.4450  1.0388
  529MOL0     C69698   3.640   5.572   3.916  1.0116  0.3364  0.1748
  529MOL0     O69699   3.633   5.681   3.839  0.7083 -0.0525  0.4488
  529MOL0     C69700   3.511   5.726   3.806 -0.6448 -0.3438 -0.3412
  529MOL0     C69701   3.430   5.804   3.893 -0.1534 -0.2671  1.2877
  529MOL0     C69702   3.304   5.854   3.840  0.8013 -0.3837 -0.3781
  529MOL0     C69703   3.260   5.827   3.709 -0.3206 -0.2011  0.8350
  529MOL0     O69704   3.129   5.853   3.660  0.1540 -0.8040 -0.7348
  529MOL0     C69705   3.052   5.961   3.722 -0.6896  0.4937 -0.3728
  529MOL0     C69706   3.106   6.100   3.694  0.2997 -0.9050  1.2172
  529MOL0     C69707   3.155   6.168   3.819  0.4242 -0.3223 -0.8100
  529MOL0     C69708   3.217   6.309   3.786 -0.3304 -0.3249  0.1374
  529MOL0     C69709   3.338   6.361   3.870  0.6779 -0.6386 -0.4525
  529MOL0     C69710   3.319   6.372   4.021  0.2775  0.1194  0.1769
  529MOL0     C69711   3.416   6.476   4.074 -0.6201  0.4047  0.2274
  529MOL0     C69712   3.563   6.443   4.051  0.1368  0.6048 -0.9105
  529MOL0     N69713   3.655   6.548   4.101  0.1101 -0.0983 -0.1452
  529MOL0     C69714   3.654   6.681   4.064 -1.2599  0.7738  0.8268
  529MOL0     C69715   3.761   6.735   4.124 -0.2952  0.2817  0.3458
  529MOL0     C69716   3.818   6.872   4.117 -0.1188 -0.4446 -0.5619
  529MOL0     C69717   3.919   6.913   4.220 -0.4263  0.0027 -0.2827
  529MOL0     C69718   3.986   7.047   4.208  0.3734 -0.1042  0.0228
  529MOL0     C69719   3.892   7.168   4.215  0.3457 -0.9154  0.5375
  529MOL0     O69720   3.836   7.200   4.084 -0.5978  0.4593 -0.7948
  529MOL0     C69721   3.749   7.302   4.084  0.6682 -0.2501 -0.0735
  529MOL0     C69722   3.611   7.269   4.056  0.6445 -0.5648 -0.1894
  529MOL0     C69723   3.516   7.370   4.049  0.6608 -0.4452  0.4502
  529MOL0     C69724   3.556   7.504   4.079 -0.1877 -0.0992  0.2748
  529MOL0     C69725   3.459   7.617   4.086  0.6870 -0.2990 -0.2528
  529MOL0     O69726   3.501   7.738   4.035 -1.3407  0.3680  0.2005
  529MOL0     C69727   3.420   7.838   4.001  0.5557  0.1067  0.0402
  529MOL0     C69728   3.471   7.972   3.978  0.2429 -0.0038 -0.4563
  529MOL0     C69729   3.391   8.080   3.921  0.1000 -0.3489 -0.0446
  529MOL0     C69730   3.259   8.056   3.893  0.4936 -0.7099  0.5839
  529MOL0     O69731   3.169   8.156   3.847 -0.0186 -0.5740 -0.2103
  529MOL0     C69732   3.226   8.284   3.825  0.2043 -0.3564  0.2630
  529MOL0     C69733   3.129   8.372   3.743  1.4785  0.5090  0.3141
  529MOL0     C69734   3.195   8.486   3.675 -0.1492 -0.2429 -0.3241
  529MOL0     C69735   3.250   8.588   3.773  0.9537 -0.3627 -0.0537
  529MOL0     C69736   3.144   8.676   3.849  0.1249  0.5395  0.4763
  529MOL0     C69737   3.225   8.773   3.939 -0.6420 -0.6515  0.0711
  529MOL0     C69738   3.124   8.875   3.998 -0.1619  0.2653 -0.3238
  529MOL0     C69739   3.050   8.967   3.894  0.4297  0.3952  0.7571
  529MOL0    Cl69740   3.164   9.070   3.790 -0.1989 -0.3599 -0.2719
  529MOL0     C69741   3.216   7.927   3.906  0.9958  0.0739 -0.0012
  529MOL0     C69742   3.290   7.823   3.957 -0.3373  0.6947 -0.0103
  529MOL0     O69743   3.359   7.592   4.136  0.2641  0.7965  0.7909
  529MOL0     C69744   3.685   7.524   4.098  0.3981 -1.5861 -0.4895
  529MOL0     C69745   3.780   7.432   4.105  0.9071 -0.5555  0.7090
  529MOL0     N69746   3.827   6.638   4.192  0.6098 -0.4928 -0.3347
  529MOL0     N69747   3.758   6.527   4.185  0.4958  0.2072  0.9332
  529MOL0     C69748   3.349   5.748   3.627  0.6855 -1.2100 -0.5326
  529MOL0     C69749   3.467   5.693   3.675 -0.5032  0.1461  0.4186
  529MOL0     C69750   3.761   5.503   3.931 -0.5601  0.4266  0.4220
  529MOL0     C69751   3.869   5.530   3.855 -0.3096 -0.6084  0.7701
  529MOL0     C69752   3.995   5.468   3.869 -0.3061 -0.3458  0.3894
  529MOL0     C69753   4.002   5.351   3.944  0.7188  0.6934  0.4778
  529MOL0     O69754   4.106   5.257   3.943  0.1467  0.2298 -0.1309
  529MOL0     C69755   4.234   5.301   3.915 -0.3367  0.0621 -0.4556
  529MOL0     C69756   4.333   5.179   3.920 -0.2267 -0.2263 -0.0594
  529MOL0     C69757   4.320   5.078   3.810 -0.5858  0.2849  0.3114
  529MOL0     C69758   4.422   4.963   3.824  0.4553 -0.6220  0.7738
  529MOL0     C69759   4.418   4.899   3.953 -0.5761  1.1108  0.2656
  529MOL0     C69760   4.424   4.844   4.066  0.2720  1.3604  0.6505
  529MOL0     C69761   3.892   5.320   4.030  0.4055 -0.4729 -0.5984
  529MOL0     C69762   3.778   5.395   4.026  0.7069  0.1186  0.2483
  529MOL0     H69763   3.454   5.801   3.999  0.0890 -2.5142  1.2184
  529MOL0     H69764   3.233   5.904   3.905 -0.5256  0.7372 -2.5528
  529MOL0     H69765   3.038   5.946   3.830 -0.7008 -0.6192 -0.5151
  529MOL0     H69766   2.951   5.952   3.680 -1.0922 -1.0289  0.8192
  529MOL0     H69767   3.017   6.151   3.655  1.0740 -1.8199 -1.9835
  529MOL0     H69768   3.172   6.106   3.608 -1.2726  0.2439  0.0365
  529MOL0     H69769   3.222   6.113   3.884  0.7123 -2.1606 -2.5589
  529MOL0     H69770   3.065   6.190   3.878 -0.0463 -0.1644 -1.5656
  529MOL0     H69771   3.261   6.318   3.687 -0.1937  3.0258  0.3908
  529MOL0     H69772   3.141   6.387   3.781  0.7792  0.8429  1.0088
  529MOL0     H69773   3.359   6.463   3.834 -3.7620 -1.0167 -5.3688
  529MOL0     H69774   3.432   6.306   3.866  1.5212  0.5515  1.7633
  529MOL0     H69775   3.321   6.279   4.080 -2.2015 -0.0082  0.1811
  529MOL0     H69776   3.220   6.418   4.032  0.0760 -0.4050  0.6033
  529MOL0     H69777   3.378   6.576   4.052 -5.7279 -1.4424 -0.8097
  529MOL0     H69778   3.414   6.480   4.183  3.7205  1.3380  0.4566
  529MOL0     H69779   3.589   6.430   3.945  2.0773  1.1635 -0.5408
  529MOL0     H69780   3.590   6.346   4.094  1.4577  1.0729 -0.6391
  529MOL0     H69781   3.580   6.731   4.002 -1.6727 -1.5211 -0.6531
  529MOL0     H69782   3.734   6.941   4.112 -0.9662 -1.5278 -4.9153
  529MOL0     H69783   3.871   6.869   4.022  0.3327 -1.1802 -0.2971
  529MOL0     H69784   3.998   6.840   4.242 -0.4557 -0.1649 -0.7234
  529MOL0     H69785   3.873   6.911   4.319 -0.9268 -0.7702 -0.5240
  529MOL0     H69786   4.046   7.058   4.299 -0.1945  2.2756  0.1924
  529MOL0     H69787   4.042   7.052   4.115 -1.4603 -1.5175 -1.2388
  529MOL0     H69788   3.950   7.252   4.256 -2.5292  1.4993  0.0081
  529MOL0     H69789   3.808   7.154   4.284  0.0104  4.1673  1.5554
  529MOL0     H69790   3.575   7.168   4.043  3.7100 -1.7108 -0.5674
  529MOL0     H69791   3.413   7.339   4.037  0.1205  0.4188  2.4010
  529MOL0     H69792   3.576   7.993   3.997  0.7090 -0.6642 -2.0548
  529MOL0     H69793   3.435   8.179   3.920  0.4665 -0.4997 -1.1335
  529MOL0     H69794   3.309   8.270   3.756  1.2328 -4.1849  1.9710
  529MOL0     H69795   3.259   8.340   3.913 -1.5380  2.1797 -0.5817
  529MOL0     H69796   3.052   8.419   3.804  2.7364  1.2484  1.3932
  529MOL0     H69797   3.075   8.316   3.666  2.6830  1.2378 -1.1282
  529MOL0     H69798   3.121   8.533   3.609  1.6528 -0.2818 -2.4789
  529MOL0     H69799   3.277   8.449   3.613  1.8180 -0.8792  2.4748
  529MOL0     H69800   3.322   8.540   3.840  0.0361 -0.8301  0.6178
  529MOL0     H69801   3.302   8.675   3.732  1.7738  0.9299  3.3991
  529MOL0     H69802   3.084   8.620   3.922  1.0215 -0.0867  0.7523
  529MOL0     H69803   3.082   8.743   3.790 -2.3362  2.9227  5.1850
  529MOL0     H69804   3.308   8.823   3.889 -0.4641 -0.6372  0.3790
  529MOL0     H69805   3.269   8.716   4.021 -3.5671 -1.7902  1.0005
  529MOL0     H69806   3.047   8.822   4.054 -0.4969  0.9138 -0.1604
  529MOL0     H69807   3.184   8.942   4.059  2.5398 -1.0428 -1.3682
  529MOL0     H69808   2.987   9.036   3.951  0.1436 -0.3629  1.3846
  529MOL0     H69809   2.990   8.914   3.820  2.4025 -0.8223 -0.0691
  529MOL0     H69810   3.116   7.895   3.878  0.8117  0.1171  0.6051
  529MOL0     H69811   3.228   7.734   3.966 -1.3349  1.3648 -0.0968
  529MOL0     H69812   3.718   7.624   4.126  0.5186 -1.3311 -1.4779
  529MOL0     H69813   3.884   7.458   4.121  1.1162  0.2563 -1.5565
  529MOL0     H69814   3.311   5.720   3.530  1.2800  1.1657 -1.5189
  529MOL0     H69815   3.529   5.635   3.609 -1.6825 -1.4656  0.6626
  529MOL0     H69816   3.877   5.608   3.780  1.4062 -3.3972 -2.1557
  529MOL0     H69817   4.077   5.498   3.805 -0.0251 -1.3381  0.2601
  529MOL0     H69818   4.259   5.380   3.986 -1.0091  1.7504 -2.0279
  529MOL0     H69819   4.242   5.334   3.811  1.9678 -2.9729 -1.4076
  529MOL0     H69820   4.432   5.224   3.921 -0.2828 -0.1090  0.8941
  529MOL0     H69821   4.318   5.142   4.022 -1.4625  3.6889  1.3445
  529MOL0     H69822   4.329   5.133   3.716 -1.4438 -0.9446 -0.5245
  529MOL0     H69823   4.223   5.033   3.834 -1.3247  2.9188  2.8268
  529MOL0     H69824   4.416   4.892   3.741  2.5216  2.7117 -2.5240
  529MOL0     H69825   4.525   4.997   3.808  0.3173  0.2177  1.5785
  529MOL0     H69826   4.431   4.806   4.166  1.5845 -0.7896 -0.1790
  529MOL0     H69827   3.895   5.239   4.103  1.6503  2.6102  3.1293
  529MOL0     H69828   3.690   5.369   4.085  2.3116  0.4526  2.9648
  530MOL0     O69829   3.744   3.857   2.565 -0.6402  0.6469 -0.6673
  530MOL0     C69830   3.775   3.851   2.684 -0.1633 -0.5010 -0.4053
  530MOL0     O69831   3.697   3.867   2.795  0.6385  0.3083  0.1775
  530MOL0     C69832   3.563   3.888   2.783  0.5887  0.5845 -1.1003
  530MOL0     C69833   3.510   3.988   2.696  1.0461  1.1083  0.0692
  530MOL0     C69834   3.370   4.001   2.681 -0.4321  0.7637 -0.5312
  530MOL0     C69835   3.283   3.924   2.759  0.4356  0.8363  0.1958
  530MOL0     O69836   3.152   3.942   2.738 -0.3677  0.7860 -0.1966
  530MOL0     C69837   3.059   3.825   2.754 -0.5439 -0.9186  1.3473
  530MOL0     C69838   2.920   3.879   2.735 -0.2016  1.0784  0.6472
  530MOL0     C69839   2.889   3.926   2.587 -0.4124 -0.1798  0.0253
  530MOL0     C69840   2.743   3.978   2.595 -1.0864  0.5902  0.6121
  530MOL0     C69841   2.680   4.004   2.452  0.4574 -0.0230  0.9676
  530MOL0     C69842   2.655   3.881   2.367 -0.1828 -0.8069  0.1370
  530MOL0     C69843   2.760   3.861   2.257  0.0383  0.1502  0.5426
  530MOL0     C69844   2.753   3.713   2.213 -0.1271  0.7647 -0.3717
  530MOL0     N69845   2.625   3.671   2.149  0.0513  0.3175 -0.4100
  530MOL0     C69846   2.542   3.573   2.195  0.7244  0.0398  0.2245
  530MOL0     C69847   2.457   3.545   2.093  0.7853 -1.0239  0.3195
  530MOL0     C69848   2.326   3.465   2.101 -0.8748 -1.2764  0.1038
  530MOL0     C69849   2.235   3.539   2.202  0.4845 -0.2672  0.2126
  530MOL0     C69850   2.186   3.676   2.155  0.5411 -0.3351 -0.1017
  530MOL0     C69851   2.079   3.734   2.249  0.0391  0.1305  0.5134
  530MOL0     O69852   2.070   3.870   2.227  0.3845 -0.1346 -0.3927
  530MOL0     C69853   1.958   3.933   2.268 -0.9721  0.4209 -0.7151
  530MOL0     C69854   1.843   3.878   2.326  0.1418  0.0015 -0.1668
  530MOL0     C69855   1.734   3.963   2.348 -0.6966  0.4523  0.0257
  530MOL0     C69856   1.720   4.080   2.282  1.3215 -0.7613 -0.5407
  530MOL0     C69857   1.600   4.171   2.283 -0.2656  0.4606  0.6835
  530MOL0     O69858   1.623   4.296   2.208  0.5332  0.2842 -0.9456
  530MOL0     C69859   1.523   4.398   2.197  0.0023 -0.1137 -0.3090
  530MOL0     C69860   1.501   4.464   2.078 -1.5392 -0.4946  0.0764
  530MOL0     C69861   1.394   4.550   2.062  0.5431  1.0080  0.0117
  530MOL0     C69862   1.312   4.572   2.162  0.1892 -0.8910 -0.0995
  530MOL0     O69863   1.198   4.640   2.131  0.4777  0.2698  0.2110
  530MOL0     C69864   1.109   4.676   2.241  0.0335  1.5370 -0.7496
  530MOL0     C69865   0.980   4.723   2.182 -0.1166 -1.2133 -0.9808
  530MOL0     C69866   0.886   4.617   2.117 -0.2622  0.2263 -0.5349
  530MOL0     C69867   0.736   4.643   2.163 -0.5452 -0.5634 -0.0115
  530MOL0     C69868   0.690   4.787   2.106  0.2637  0.6947 -0.1713
  530MOL0     C69869   0.654   4.778   1.961 -0.3687 -0.2737 -0.0449
  530MOL0     C69870   0.591   4.905   1.902  0.5959  0.1204 -0.0084
  530MOL0     C69871   0.530   4.872   1.758 -0.8636  0.4111 -0.1085
  530MOL0    Cl69872   0.472   5.034   1.691 -0.5089 -0.6698  0.5604
  530MOL0     C69873   1.336   4.524   2.286 -1.5781  0.0227 -0.1561
  530MOL0     C69874   1.440   4.424   2.304  0.8233 -0.5925 -1.2177
  530MOL0     O69875   1.504   4.136   2.345  0.3622 -0.0499 -0.4916
  530MOL0     C69876   1.841   4.141   2.237 -0.8114 -0.6328 -0.1304
  530MOL0     C69877   1.953   4.060   2.221  0.0970 -0.3221 -0.9459
  530MOL0     N69878   2.518   3.604   1.985 -0.1267 -0.3221  0.4129
  530MOL0     N69879   2.601   3.691   2.015  0.1770  0.2868  0.4606
  530MOL0     C69880   3.329   3.845   2.863 -0.0296  0.1783 -0.4710
  530MOL0     C69881   3.466   3.829   2.872  0.0576 -0.1118  0.8501
  530MOL0     C69882   3.916   3.827   2.708  0.7120 -0.7101  0.0886
  530MOL0     C69883   3.998   3.753   2.618 -0.0207 -0.7304 -0.0661
  530MOL0     C69884   4.128   3.735   2.644 -0.5795 -0.3022 -0.0429
  530MOL0     C69885   4.195   3.797   2.748  0.3093 -0.5370 -0.4949
  530MOL0     O69886   4.327   3.787   2.751  0.2037  0.6705  0.9912
  530MOL0     C69887   4.388   3.738   2.875 -0.0824  0.0594 -0.4558
  530MOL0     C69888   4.524   3.795   2.910  0.1321  0.7671 -0.0409
  530MOL0     C69889   4.545   3.942   2.884 -0.5239 -0.6510 -0.2634
  530MOL0     C69890   4.493   4.013   3.005  0.6411  0.1524  0.0166
  530MOL0     C69891   4.519   4.159   2.998 -0.1646  0.3888  0.5789
  530MOL0     C69892   4.530   4.275   2.993 -0.3701 -0.1655 -0.4756
  530MOL0     C69893   4.114   3.882   2.834  0.3003  0.6939  0.4101
  530MOL0     C69894   3.979   3.882   2.821 -1.2360 -0.6352  0.6316
  530MOL0     H69895   3.572   4.044   2.627  1.1930  0.2086 -0.5421
  530MOL0     H69896   3.342   4.065   2.598  1.6543 -2.3549 -3.9271
  530MOL0     H69897   3.083   3.776   2.849 -1.5149 -2.2657  0.9250
  530MOL0     H69898   3.071   3.749   2.677 -0.0980 -0.9533  1.4484
  530MOL0     H69899   2.901   3.971   2.791 -2.8241  0.8036  0.3125
  530MOL0     H69900   2.861   3.797   2.776  0.6840 -0.7398 -1.5339
  530MOL0     H69901   2.920   3.853   2.511  0.0769  2.4398 -2.4793
  530MOL0     H69902   2.958   4.009   2.567 -0.6460  0.8121  2.9619
  530MOL0     H69903   2.695   3.890   2.640  1.5305 -2.0034 -1.2725
  530MOL0     H69904   2.735   4.058   2.669  0.7520 -0.6895  2.3485
  530MOL0     H69905   2.748   4.055   2.383  0.0507  0.3584  0.8439
  530MOL0     H69906   2.578   4.039   2.469 -1.6628 -5.0280  0.2763
  530MOL0     H69907   2.559   3.896   2.318  0.2462 -2.2303 -1.2287
  530MOL0     H69908   2.639   3.793   2.430 -1.0329 -1.8485 -1.4779
  530MOL0     H69909   2.758   3.937   2.179 -0.3521  1.4211  1.7600
  530MOL0     H69910   2.861   3.866   2.301  0.4073 -0.6263 -0.1864
  530MOL0     H69911   2.767   3.662   2.309 -1.2578 -0.9299 -1.0510
  530MOL0     H69912   2.843   3.686   2.156  0.3427 -0.8305  1.0443
  530MOL0     H69913   2.543   3.518   2.288 -3.8371 -0.0952  0.4262
  530MOL0     H69914   2.369   3.366   2.116  0.2829 -0.7793  0.1610
  530MOL0     H69915   2.268   3.464   2.008  0.6643  1.1595 -0.9913
  530MOL0     H69916   2.289   3.553   2.296 -1.2628  3.1046  0.8969
  530MOL0     H69917   2.151   3.476   2.233  1.0886  0.0076  2.5638
  530MOL0     H69918   2.265   3.752   2.166 -0.2388  0.5493 -0.4759
  530MOL0     H69919   2.159   3.670   2.049  3.3778 -0.9177 -0.9061
  530MOL0     H69920   2.120   3.723   2.350  3.1067  1.7876 -0.4410
  530MOL0     H69921   1.980   3.691   2.230  0.6770 -0.2454 -2.3956
  530MOL0     H69922   1.849   3.778   2.367  3.8785  0.3673  0.5694
  530MOL0     H69923   1.648   3.924   2.402 -1.0322  0.1284 -0.7162
  530MOL0     H69924   1.569   4.447   1.995  0.0656 -0.2269  1.2981
  530MOL0     H69925   1.381   4.593   1.963  1.0710  1.1883  0.0201
  530MOL0     H69926   1.147   4.734   2.326  1.3583 -0.4113  0.0620
  530MOL0     H69927   1.079   4.579   2.282  2.5803  1.9180  2.4324
  530MOL0     H69928   1.003   4.796   2.104 -1.0428 -3.0734 -3.1151
  530MOL0     H69929   0.918   4.765   2.261 -2.7575 -1.0946 -3.0092
  530MOL0     H69930   0.911   4.512   2.135 -1.3472 -0.6480 -3.4697
  530MOL0     H69931   0.882   4.628   2.008 -0.1395 -0.0915 -0.5738
  530MOL0     H69932   0.683   4.553   2.130  1.2840 -2.4132  1.7126
  530MOL0     H69933   0.738   4.640   2.272  1.4906 -1.0550 -0.0149
  530MOL0     H69934   0.762   4.867   2.124  0.2135  0.8245 -0.5288
  530MOL0     H69935   0.593   4.803   2.154 -0.6834  1.6349 -2.2569
  530MOL0     H69936   0.585   4.694   1.946 -3.0310  1.9593 -1.1207
  530MOL0     H69937   0.748   4.761   1.907  0.9141 -0.2961  2.0945
  530MOL0     H69938   0.520   4.950   1.972 -3.1262  0.8789 -3.9147
  530MOL0     H69939   0.674   4.976   1.891 -0.4622  1.1397 -1.7369
  530MOL0     H69940   0.442   4.809   1.773  0.3811 -1.3685  0.0906
  530MOL0     H69941   0.597   4.823   1.687  2.5826  2.0995  1.6876
  530MOL0     H69942   1.285   4.562   2.374 -1.2913  1.2588 -0.5013
  530MOL0     H69943   1.463   4.381   2.401 -1.3378  1.1377  0.1583
  530MOL0     H69944   1.848   4.244   2.202 -3.7283 -1.1769 -2.7076
  530MOL0     H69945   2.043   4.110   2.186 -0.1069  1.0559  0.4106
  530MOL0     H69946   3.263   3.800   2.938  0.0457  1.9388  0.7168
  530MOL0     H69947   3.504   3.764   2.950  2.9606 -0.4872 -0.7189
  530MOL0     H69948   3.939   3.706   2.540 -0.3996  0.7999 -0.7520
  530MOL0     H69949   4.187   3.673   2.578  2.6165  1.9100  0.5289
  530MOL0     H69950   4.397   3.629   2.867 -1.7776 -0.0811 -0.8556
  530MOL0     H69951   4.324   3.760   2.961  0.1476  0.7293 -0.4499
  530MOL0     H69952   4.565   3.768   3.007  3.7296  1.0301 -1.3351
  530MOL0     H69953   4.584   3.737   2.838 -1.0712 -0.2927 -0.2285
  530MOL0     H69954   4.494   3.974   2.793 -2.7477 -0.0898  1.0884
  530MOL0     H69955   4.652   3.963   2.874  0.1979 -3.0776  1.4546
  530MOL0     H69956   4.386   3.998   3.018  0.7805 -1.1711 -0.2690
  530MOL0     H69957   4.551   3.979   3.091  0.6947  2.6698  1.0597
  530MOL0     H69958   4.523   4.376   2.959 -1.3412 -0.2068 -0.4206
  530MOL0     H69959   4.170   3.936   2.910  2.8849 -0.4722 -0.5221
  530MOL0     H69960   3.916   3.940   2.889  2.6263  2.0139  2.3018
  531MOL0     O69961   1.582   8.492   3.418 -0.1985 -0.2143  0.2285
  531MOL0     C69962   1.550   8.468   3.534  0.9575 -0.8412  0.0278
  531MOL0     O69963   1.556   8.349   3.594  0.7659 -0.1504 -0.3162
  531MOL0     C69964   1.620   8.235   3.552  0.0051 -0.2187 -0.4444
  531MOL0     C69965   1.687   8.212   3.432 -0.2858 -0.1877 -0.2191
  531MOL0     C69966   1.760   8.097   3.413  1.4257 -0.1588 -0.3486
  531MOL0     C69967   1.768   8.001   3.507  1.3655 -0.0409 -0.4692
  531MOL0     O69968   1.845   7.899   3.476  0.3098  0.0200  0.4453
  531MOL0     C69969   1.899   7.811   3.563 -0.5336  0.1783 -0.1123
  531MOL0     C69970   1.990   7.708   3.494 -0.2379  0.0699  0.1466
  531MOL0     C69971   2.099   7.778   3.406  0.4528  0.6379  0.1065
  531MOL0     C69972   2.245   7.721   3.433  0.5003  0.1793  0.1049
  531MOL0     C69973   2.356   7.801   3.355 -0.2539  0.3748 -0.6612
  531MOL0     C69974   2.363   7.771   3.203 -0.0597 -0.5343  0.4434
  531MOL0     C69975   2.436   7.643   3.176  0.4149 -0.6008 -0.3134
  531MOL0     C69976   2.489   7.637   3.036 -0.0532 -0.8968  0.1120
  531MOL0     N69977   2.551   7.514   3.003 -0.5370  1.6899  0.2907
  531MOL0     C69978   2.663   7.462   3.068  0.7956 -0.8279  0.0972
  531MOL0     C69979   2.651   7.333   3.036 -0.0971 -0.7701 -0.2240
  531MOL0     C69980   2.735   7.233   3.093 -0.3240 -0.2508  0.5332
  531MOL0     C69981   2.881   7.275   3.088  0.0307 -0.0254  0.2273
  531MOL0     C69982   2.980   7.167   3.134  0.8406  0.1085 -0.8160
  531MOL0     C69983   3.125   7.206   3.114 -0.3559  0.1078 -0.4156
  531MOL0     O69984   3.149   7.278   2.989  0.7445  0.1352 -0.7299
  531MOL0     C69985   3.163   7.218   2.861  0.6285  0.3188  1.2328
  531MOL0     C69986   3.206   7.290   2.752  0.0140 -0.3834 -0.8622
  531MOL0     C69987   3.198   7.245   2.630 -0.3076 -0.0488  0.3292
  531MOL0     C69988   3.180   7.106   2.599  0.8043 -1.3381 -0.2208
  531MOL0     C69989   3.178   7.052   2.456 -0.0154  0.8314  0.2466
  531MOL0     O69990   3.134   6.921   2.441 -0.4887 -0.4473 -0.4814
  531MOL0     C69991   3.116   6.898   2.308  0.3145  0.6548  0.4646
  531MOL0     C69992   3.198   6.811   2.232  0.0950 -0.9033  0.2009
  531MOL0     C69993   3.173   6.787   2.087  0.0911 -0.7097 -0.4153
  531MOL0     C69994   3.054   6.841   2.026  0.4232  0.0216 -0.1872
  531MOL0     O69995   3.036   6.814   1.889  0.4978 -0.1108  0.9009
  531MOL0     C69996   2.906   6.845   1.823  0.6752 -0.5735  0.5438
  531MOL0     C69997   2.911   6.846   1.668  0.5116 -0.6603 -0.3723
  531MOL0     C69998   3.020   6.936   1.616 -0.3006 -0.3234 -0.1519
  531MOL0     C69999   3.042   6.920   1.464 -0.1593 -1.0092 -0.3017
  531MOL0     C70000   3.125   7.038   1.418  0.5849  0.3131  0.3662
  531MOL0     C70001   3.265   7.024   1.461  0.1114 -0.5045 -0.5814
  531MOL0     C70002   3.346   7.117   1.371  0.5142  0.5803 -0.8823
  531MOL0     C70003   3.483   7.140   1.433  0.1550 -0.0240  0.5798
  531MOL0    Cl70004   3.603   7.203   1.324 -0.1801  0.0547  0.2154
  531MOL0     C70005   2.968   6.923   2.110  0.2489 -0.0263 -0.1559
  531MOL0     C70006   3.002   6.948   2.244 -0.2112 -0.3742  0.2286
  531MOL0     O70007   3.204   7.131   2.362  0.2598 -0.1923  0.7103
  531MOL0     C70008   3.143   7.024   2.712 -0.8468 -1.2342  0.0907
  531MOL0     C70009   3.128   7.083   2.843  0.3132  0.8069 -0.0474
  531MOL0     N70010   2.548   7.314   2.952  0.6210  0.0065  0.4675
  531MOL0     N70011   2.495   7.424   2.918  0.2955 -0.3630  0.4343
  531MOL0     C70012   1.691   8.016   3.624 -0.8642 -0.2613 -0.1147
  531MOL0     C70013   1.615   8.128   3.644  0.4448 -0.2762  0.4302
  531MOL0     C70014   1.486   8.583   3.615  0.3060  0.1194  1.3914
  531MOL0     C70015   1.437   8.549   3.743  0.0556  0.7715 -0.5806
  531MOL0     C70016   1.350   8.635   3.815  0.0642  0.5458 -0.0339
  531MOL0     C70017   1.306   8.758   3.758 -0.4139 -0.6622 -0.4400
  531MOL0     O70018   1.212   8.840   3.823  0.0505 -0.5208  0.3742
  531MOL0     C70019   1.274   8.965   3.871 -0.4370  0.4624  0.0249
  531MOL0     C70020   1.213   9.094   3.821  0.1456  0.1448  1.5958
  531MOL0     C70021   1.065   9.108   3.834  0.0131 -0.2105  0.1154
  531MOL0     C70022   0.990   9.240   3.849  0.6952  0.1023  0.2292
  531MOL0     C70023   1.057   9.327   3.945  0.2068  0.4490 -0.1725
  531MOL0     C70024   1.108   9.391   4.040  0.7846  0.2063  0.5665
  531MOL0     C70025   1.360   8.795   3.633  0.4811 -0.0231  0.6679
  531MOL0     C70026   1.441   8.704   3.548  1.0978 -0.6803  0.6234
  531MOL0     H70027   1.693   8.285   3.352  1.3681 -2.9386 -2.8398
  531MOL0     H70028   1.823   8.096   3.325  0.9061  1.1777 -0.7652
  531MOL0     H70029   1.820   7.755   3.613  0.2314 -0.8895 -0.0717
  531MOL0     H70030   1.958   7.870   3.634 -0.6954  0.8515 -0.5293
  531MOL0     H70031   1.927   7.637   3.440 -0.3636 -0.8013  1.3994
  531MOL0     H70032   2.043   7.655   3.573 -0.5723 -2.0995 -1.0248
  531MOL0     H70033   2.095   7.881   3.440 -2.1091  1.3289 -1.9697
  531MOL0     H70034   2.063   7.779   3.302 -0.2256  1.1141  0.3385
  531MOL0     H70035   2.261   7.749   3.538 -1.9655 -0.8112  0.8098
  531MOL0     H70036   2.244   7.614   3.408 -1.7110  0.8666 -3.3767
  531MOL0     H70037   2.452   7.793   3.405 -0.7482  0.8886  0.4141
  531MOL0     H70038   2.326   7.902   3.385  1.5197  0.0686  2.6332
  531MOL0     H70039   2.419   7.853   3.159  1.1151 -1.2357  0.5888
  531MOL0     H70040   2.265   7.767   3.153  1.7334  1.8749 -3.8177
  531MOL0     H70041   2.506   7.637   3.260 -1.6197 -2.6064  1.3631
  531MOL0     H70042   2.373   7.556   3.194 -0.0988 -0.0191  0.7557
  531MOL0     H70043   2.553   7.720   3.006 -3.1673  2.3503  1.6634
  531MOL0     H70044   2.405   7.653   2.967 -0.4588 -3.7720 -0.2140
  531MOL0     H70045   2.725   7.507   3.145 -0.2470  1.6918 -0.4103
  531MOL0     H70046   2.732   7.143   3.031 -0.9226 -0.0740  0.3021
  531MOL0     H70047   2.703   7.219   3.196  0.0450 -2.6470  0.3669
  531MOL0     H70048   2.891   7.367   3.145 -1.4845  1.6011 -1.9721
  531MOL0     H70049   2.897   7.289   2.981 -1.3418 -2.4710 -0.3916
  531MOL0     H70050   2.971   7.131   3.236  0.4407 -0.6827 -1.1185
  531MOL0     H70051   2.959   7.079   3.071  2.7268 -0.9220 -0.0816
  531MOL0     H70052   3.191   7.119   3.122 -0.3306  0.2129  0.7204
  531MOL0     H70053   3.140   7.271   3.201 -0.3413  0.1182 -0.4265
  531MOL0     H70054   3.214   7.396   2.775  2.4942 -0.8135  0.5873
  531MOL0     H70055   3.212   7.316   2.548  1.7780  1.6712  2.0402
  531MOL0     H70056   3.282   6.750   2.265  1.6008 -1.3741 -3.8375
  531MOL0     H70057   3.243   6.721   2.038  1.9806  1.7120 -1.1879
  531MOL0     H70058   2.868   6.942   1.857  1.7495 -0.8700  2.7836
  531MOL0     H70059   2.822   6.781   1.852  1.2358 -0.6233  2.1383
  531MOL0     H70060   2.811   6.871   1.632  0.9804 -0.1198 -1.3239
  531MOL0     H70061   2.925   6.745   1.629  3.0111 -0.0889 -1.1346
  531MOL0     H70062   3.112   6.910   1.670  2.7244  1.0592 -4.1385
  531MOL0     H70063   2.988   7.039   1.635 -2.2661 -0.4792 -2.1533
  531MOL0     H70064   3.091   6.829   1.430  0.9663  0.5183 -3.0238
  531MOL0     H70065   2.942   6.930   1.422 -1.5928 -2.4942  2.4461
  531MOL0     H70066   3.084   7.135   1.451  0.4561  0.5410 -0.4573
  531MOL0     H70067   3.121   7.026   1.310 -2.7898 -1.0297  0.5265
  531MOL0     H70068   3.287   6.917   1.467 -0.8391 -0.6593  1.0208
  531MOL0     H70069   3.273   7.057   1.565  0.3811 -0.3558 -0.6479
  531MOL0     H70070   3.354   7.067   1.274  3.8051 -3.0452  0.9883
  531MOL0     H70071   3.288   7.210   1.362 -1.2650 -0.5187 -1.2447
  531MOL0     H70072   3.523   7.045   1.470 -1.2149 -0.3503  1.2877
  531MOL0     H70073   3.478   7.215   1.512 -1.3547  0.8356 -0.2978
  531MOL0     H70074   2.877   6.965   2.068 -1.6842  0.3468  3.8730
  531MOL0     H70075   2.947   7.027   2.294 -2.3743 -1.0436 -0.9348
  531MOL0     H70076   3.114   6.923   2.685 -2.7535 -0.4531 -0.9538
  531MOL0     H70077   3.092   7.021   2.925 -4.9683  1.0936 -1.7859
  531MOL0     H70078   1.675   7.936   3.695 -0.7654 -0.0592  0.1402
  531MOL0     H70079   1.567   8.140   3.741  1.2839 -1.8588  1.0995
  531MOL0     H70080   1.450   8.452   3.790 -2.2576 -0.1098 -1.6344
  531MOL0     H70081   1.306   8.593   3.904  0.7302 -1.6836 -0.6895
  531MOL0     H70082   1.376   8.972   3.833  0.0574  0.1784  1.2280
  531MOL0     H70083   1.283   8.957   3.980 -3.4673  0.2480  0.3346
  531MOL0     H70084   1.255   9.177   3.880  1.4993  1.8113 -1.4547
  531MOL0     H70085   1.242   9.116   3.718  1.3684 -0.3032  1.8267
  531MOL0     H70086   1.041   9.047   3.921  0.8336  0.8833  1.1464
  531MOL0     H70087   1.018   9.053   3.753 -2.8035  1.5721  0.4252
  531MOL0     H70088   0.963   9.269   3.747  0.0132 -2.8526 -0.5246
  531MOL0     H70089   0.893   9.233   3.899  0.9275  0.1096  0.6918
  531MOL0     H70090   1.137   9.450   4.125 -0.7580  1.2522  0.4210
  531MOL0     H70091   1.342   8.897   3.599 -2.6307  0.0852  2.3501
  531MOL0     H70092   1.464   8.730   3.446  0.9345 -1.8829  0.2662
  532MOL0     O70093   0.638  11.067   3.849 -0.0176 -0.3091 -0.5241
  532MOL0     C70094   0.515  11.061   3.841 -0.2052  0.1117 -0.3098
  532MOL0     O70095   0.434  11.154   3.868 -0.3058 -0.8108  0.7546
  532MOL0     C70096   0.310  11.175   3.820  0.3947 -0.4406  0.0830
  532MOL0     C70097   0.215  11.227   3.911 -0.4000  0.2829 -0.5070
  532MOL0     C70098   0.080  11.254   3.867 -0.3107 -0.0246 -0.3072
  532MOL0     C70099   0.033  11.221   3.739  0.1808 -0.4951  0.2353
  532MOL0     O70100  -0.095  11.236   3.693  0.4333  0.0511 -0.3221
  532MOL0     C70101  -0.199  11.287   3.787 -0.5852 -0.1496  0.3690
  532MOL0     C70102  -0.208  11.430   3.778 -0.0967  0.1041  0.6171
  532MOL0     C70103  -0.328  11.508   3.861  0.2062  0.5093 -0.5136
  532MOL0     C70104  -0.273  11.590   3.987 -0.2153 -0.0089  0.1291
  532MOL0     C70105  -0.392  11.602   4.082  1.3314 -0.2249  0.7689
  532MOL0     C70106  -0.390  11.731   4.164 -0.1294 -0.4402 -0.5681
  532MOL0     C70107  -0.519  11.747   4.252  0.1042  0.1509 -0.1081
  532MOL0     C70108  -0.500  11.872   4.338  0.4628  0.1826  0.3484
  532MOL0     N70109  -0.622  11.928   4.413 -0.2001 -1.1007  0.7032
  532MOL0     C70110  -0.746  11.891   4.393  0.0987 -0.7394  1.3228
  532MOL0     C70111  -0.834  11.981   4.443  0.4860 -0.3695 -0.1861
  532MOL0     C70112  -0.981  11.994   4.427 -0.0044  0.0637  0.4679
  532MOL0     C70113  -1.063  11.870   4.446 -0.4312  0.1803 -0.1189
  532MOL0     C70114  -1.213  11.884   4.414  0.1876  0.1144  0.4106
  532MOL0     C70115  -1.285  11.757   4.427  0.7054  0.4143 -0.6985
  532MOL0     O70116  -1.261  11.710   4.566  0.8537 -0.3375 -0.6238
  532MOL0     C70117  -1.354  11.616   4.610  0.9488 -0.6431  0.2257
  532MOL0     C70118  -1.452  11.556   4.530  1.1228  1.0807  0.4850
  532MOL0     C70119  -1.539  11.465   4.591  0.7981  0.2200 -0.5008
  532MOL0     C70120  -1.537  11.427   4.728  0.3686 -0.6575 -0.2983
  532MOL0     C70121  -1.621  11.319   4.775  0.2018 -0.0742 -0.7354
  532MOL0     O70122  -1.735  11.306   4.710  0.3287  0.8219  0.2904
  532MOL0     C70123  -1.829  11.232   4.778  0.1046  0.2677 -0.3017
  532MOL0     C70124  -1.919  11.311   4.845 -1.1462 -0.0646  0.1568
  532MOL0     C70125  -2.023  11.262   4.923 -0.9057  0.6744  0.6130
  532MOL0     C70126  -2.042  11.121   4.921 -0.3588  0.2351 -0.3529
  532MOL0     O70127  -2.149  11.074   4.997  1.0606 -0.1072  0.1357
  532MOL0     C70128  -2.249  10.998   4.927  0.7488 -1.3128 -0.1867
  532MOL0     C70129  -2.377  11.086   4.956 -0.3050  0.0630 -0.3413
  532MOL0     C70130  -2.509  11.038   4.899  1.1359 -0.4972  1.6873
  532MOL0     C70131  -2.503  11.038   4.740 -0.2376  1.0839  0.1896
  532MOL0     C70132  -2.648  11.072   4.682 -0.0736  0.2337 -0.3933
  532MOL0     C70133  -2.750  10.962   4.702  0.1384  0.7049 -0.6233
  532MOL0     C70134  -2.900  11.018   4.697  0.7064  0.2042 -0.9410
  532MOL0     C70135  -2.946  11.101   4.576 -0.6090  0.4171 -0.8650
  532MOL0    Cl70136  -2.878  11.016   4.431 -0.5228  0.2637  0.2502
  532MOL0     C70137  -1.952  11.043   4.849 -0.4972  0.3390 -0.2070
  532MOL0     C70138  -1.854  11.098   4.771 -0.9181  0.0658  0.0002
  532MOL0     O70139  -1.599  11.268   4.887 -0.5138 -0.2898  0.6041
  532MOL0     C70140  -1.438  11.494   4.800  0.3107  0.0429  0.0022
  532MOL0     C70141  -1.349  11.583   4.742 -0.7092 -0.7612 -0.5306
  532MOL0     N70142  -0.748  12.077   4.506  0.0038 -0.5206  0.3070
  532MOL0     N70143  -0.625  12.050   4.472 -0.6222 -0.3659 -0.0698
  532MOL0     C70144   0.133  11.177   3.644 -0.0717  0.0168  0.7790
  532MOL0     C70145   0.270  11.157   3.686  0.9217  0.3934 -0.1031
  532MOL0     C70146   0.467  10.931   3.784 -0.6633 -0.0940  0.8241
  532MOL0     C70147   0.334  10.883   3.825 -0.4521 -1.0143 -1.1444
  532MOL0     C70148   0.285  10.772   3.759 -0.3291  0.2753 -0.1007
  532MOL0     C70149   0.370  10.695   3.668  0.1837  0.9614 -0.4321
  532MOL0     O70150   0.324  10.593   3.592  0.1705  0.4866 -0.7778
  532MOL0     C70151   0.297  10.469   3.665 -0.4032  0.0146  0.0176
  532MOL0     C70152   0.425  10.390   3.702 -0.7922  0.3770  0.3523
  532MOL0     C70153   0.392  10.276   3.804 -0.1308 -0.7669 -0.4717
  532MOL0     C70154   0.349  10.150   3.735 -0.9367  1.0041  0.9910
  532MOL0     C70155   0.265  10.066   3.816 -0.2681 -0.4287 -0.2398
  532MOL0     C70156   0.205  10.007   3.906  0.5443 -0.4524 -0.1088
  532MOL0     C70157   0.488  10.739   3.636 -0.1491  0.2092 -0.0932
  532MOL0     C70158   0.540  10.851   3.692  0.8185  0.1626 -0.1804
  532MOL0     H70159   0.244  11.247   4.014 -0.7080 -2.8885  0.3136
  532MOL0     H70160   0.019  11.304   3.942  1.1593 -0.2959  1.1378
  532MOL0     H70161  -0.180  11.253   3.889 -2.5354 -2.9178 -0.0885
  532MOL0     H70162  -0.296  11.241   3.763 -1.5422  1.4054  1.1125
  532MOL0     H70163  -0.218  11.460   3.673  3.9952  0.8504  0.2712
  532MOL0     H70164  -0.123  11.494   3.804 -0.9204  1.6972 -0.4108
  532MOL0     H70165  -0.405  11.438   3.895  0.3957 -0.7922 -2.6020
  532MOL0     H70166  -0.379  11.577   3.793  3.4414  1.7660 -1.8198
  532MOL0     H70167  -0.183  11.541   4.024  1.5724  1.5930 -1.8268
  532MOL0     H70168  -0.243  11.692   3.960  1.0863  0.1011  1.8523
  532MOL0     H70169  -0.406  11.511   4.140 -0.1646  0.8366  2.1933
  532MOL0     H70170  -0.488  11.613   4.031  2.1557 -3.4823 -1.7429
  532MOL0     H70171  -0.381  11.818   4.098  3.1647 -1.8156 -2.1565
  532MOL0     H70172  -0.301  11.732   4.227 -1.1785 -0.0434  0.9786
  532MOL0     H70173  -0.598  11.772   4.181 -1.8924  1.7960  2.5073
  532MOL0     H70174  -0.556  11.655   4.297 -1.8404 -0.7951 -3.3104
  532MOL0     H70175  -0.466  11.954   4.274 -3.1384  1.7029  0.0929
  532MOL0     H70176  -0.417  11.848   4.404  1.2042  1.8683  0.0710
  532MOL0     H70177  -0.780  11.806   4.336 -3.1243  0.7461  0.7982
  532MOL0     H70178  -0.992  12.042   4.329 -1.3299  0.4766  0.8017
  532MOL0     H70179  -1.025  12.067   4.495  0.4711 -0.7878  1.7294
  532MOL0     H70180  -1.053  11.837   4.550  2.1321  0.2410 -0.2638
  532MOL0     H70181  -1.022  11.798   4.373  0.0531  1.2958 -0.9811
  532MOL0     H70182  -1.267  11.960   4.472 -0.1607  0.3542 -0.2195
  532MOL0     H70183  -1.223  11.916   4.310  2.8580  0.9163  0.3299
  532MOL0     H70184  -1.254  11.682   4.353  2.3876 -1.3423  1.6314
  532MOL0     H70185  -1.393  11.764   4.411  1.1872 -0.2573 -5.7347
  532MOL0     H70186  -1.449  11.563   4.422 -4.2772  3.0261  0.1621
  532MOL0     H70187  -1.614  11.418   4.528 -0.5669 -0.0856  1.2523
  532MOL0     H70188  -1.916  11.419   4.843 -1.4779 -0.0405  0.6078
  532MOL0     H70189  -2.103  11.321   4.967  0.3967  2.4129  0.7410
  532MOL0     H70190  -2.256  10.901   4.977  0.4510 -1.4176 -0.4273
  532MOL0     H70191  -2.239  10.985   4.819  2.0505 -2.1255  0.0113
  532MOL0     H70192  -2.370  11.192   4.927 -0.0634 -0.7119 -3.3902
  532MOL0     H70193  -2.377  11.091   5.066 -2.4966  2.9083 -0.3641
  532MOL0     H70194  -2.593  11.097   4.939 -0.1320  1.8743 -3.5381
  532MOL0     H70195  -2.535  10.934   4.918  1.9850 -0.6440  2.0539
  532MOL0     H70196  -2.427  11.106   4.702 -2.0323  2.0165 -1.9458
  532MOL0     H70197  -2.474  10.942   4.697 -0.7007  0.9788  0.1058
  532MOL0     H70198  -2.642  11.097   4.576 -1.1706  0.3885 -0.4313
  532MOL0     H70199  -2.682  11.166   4.727 -0.9482  0.7904 -2.1445
  532MOL0     H70200  -2.745  10.919   4.803 -3.2557  0.1685 -0.5776
  532MOL0     H70201  -2.741  10.879   4.632 -3.8891  0.9764 -1.6895
  532MOL0     H70202  -2.968  10.933   4.698  0.2018  0.5982  0.5015
  532MOL0     H70203  -2.928  11.074   4.786 -1.7193 -1.5136 -0.5343
  532MOL0     H70204  -2.906  11.202   4.592 -0.3778  0.2816 -0.5696
  532MOL0     H70205  -3.055  11.097   4.568 -0.8398 -0.1612  1.7140
  532MOL0     H70206  -1.967  10.936   4.854 -1.9751  0.5253 -0.1992
  532MOL0     H70207  -1.788  11.036   4.711 -0.8313 -0.2338  0.4031
  532MOL0     H70208  -1.430  11.478   4.907 -0.6834 -2.7655 -0.2738
  532MOL0     H70209  -1.279  11.636   4.806 -0.1310 -2.2013  0.0631
  532MOL0     H70210   0.091  11.149   3.548 -1.8460  2.8223  0.6248
  532MOL0     H70211   0.343  11.112   3.619  3.1390  2.2530  0.9180
  532MOL0     H70212   0.264  10.925   3.896  0.8029 -1.2719  0.2827
  532MOL0     H70213   0.184  10.739   3.782 -1.1900  1.8524 -1.3997
  532MOL0     H70214   0.233  10.408   3.601  0.0384 -1.4920  0.9518
  532MOL0     H70215   0.242  10.492   3.757  0.7608 -2.8763  1.5929
  532MOL0     H70216   0.483  10.342   3.623  0.0667  0.8996  0.6549
  532MOL0     H70217   0.500  10.458   3.743 -1.8063  0.6528  1.8562
  532MOL0     H70218   0.314  10.303   3.876  1.5397 -0.4655  1.2865
  532MOL0     H70219   0.474  10.244   3.869 -1.1424  0.5332  1.5434
  532MOL0     H70220   0.303  10.168   3.637  0.9507  2.4272  0.3129
  532MOL0     H70221   0.437  10.097   3.698  0.0613  0.6820  3.6106
  532MOL0     H70222   0.145   9.979   3.990 -2.1213  3.3673 -0.5150
  532MOL0     H70223   0.532  10.672   3.563  0.3306 -0.1117  0.4806
  532MOL0     H70224   0.636  10.887   3.657  0.6604 -1.1333 -2.1474
  533MOL0     O70225   4.762   8.280   9.307  0.5068 -0.5358  0.8411
  533MOL0     C70226   4.807   8.242   9.409  0.2232  0.0622  0.2016
  533MOL0     O70227   4.936   8.243   9.444 -0.4211  0.1127  0.6446
  533MOL0     C70228   5.039   8.295   9.362 -1.0056 -0.0087 -0.0481
  533MOL0     C70229   5.162   8.240   9.379 -0.0122  0.2138  0.9994
  533MOL0     C70230   5.264   8.285   9.298  0.2896 -0.4484 -0.1602
  533MOL0     C70231   5.254   8.375   9.193  0.7709 -0.0801 -0.2226
  533MOL0     O70232   5.354   8.418   9.104 -0.3135 -0.1084  0.2966
  533MOL0     C70233   5.484   8.360   9.125  0.8553 -0.1752  0.0304
  533MOL0     C70234   5.565   8.417   9.005 -0.0336  0.8260 -0.9363
  533MOL0     C70235   5.704   8.354   9.014  0.7822  0.3941 -0.6275
  533MOL0     C70236   5.696   8.204   8.982  1.0029 -0.1674 -0.5013
  533MOL0     C70237   5.827   8.147   8.942 -1.1778 -0.7686  0.3444
  533MOL0     C70238   5.817   8.032   8.837 -0.0319 -0.6136  0.3705
  533MOL0     C70239   5.784   7.905   8.918  0.7601  0.2666  0.6437
  533MOL0     C70240   5.899   7.839   8.988 -1.1835 -0.9959 -0.4401
  533MOL0     N70241   5.864   7.716   9.051 -0.4437  1.2292 -1.3001
  533MOL0     C70242   5.803   7.697   9.176 -0.3553 -0.5113 -0.3633
  533MOL0     C70243   5.794   7.562   9.197  1.3724 -0.6735 -0.2339
  533MOL0     C70244   5.735   7.486   9.312  0.1668  0.4628 -0.4634
  533MOL0     C70245   5.807   7.512   9.448  0.7333  0.1814 -0.5241
  533MOL0     C70246   5.965   7.521   9.436  0.9626 -0.7829  0.4402
  533MOL0     C70247   6.034   7.382   9.428 -0.8723  0.0434  0.2164
  533MOL0     O70248   6.178   7.398   9.467  0.0569 -0.2756  0.5447
  533MOL0     C70249   6.239   7.288   9.522  0.5213  0.2175 -0.6196
  533MOL0     C70250   6.194   7.164   9.503 -0.7813  0.4719 -0.0702
  533MOL0     C70251   6.259   7.052   9.557 -0.0736  0.5097  0.0051
  533MOL0     C70252   6.381   7.064   9.626  0.7870 -0.3432  0.0130
  533MOL0     C70253   6.471   6.959   9.660  0.4968  0.5112  0.0445
  533MOL0     O70254   6.611   6.988   9.660 -0.4643 -0.4967 -0.3885
  533MOL0     C70255   6.689   6.887   9.677 -0.2846  0.2491  0.4585
  533MOL0     C70256   6.700   6.779   9.592  0.2976  0.7354  0.8088
  533MOL0     C70257   6.805   6.686   9.588  0.1832 -0.3990  0.1584
  533MOL0     C70258   6.876   6.682   9.707 -0.0526  0.5479 -0.2456
  533MOL0     O70259   6.963   6.583   9.755 -0.0159  0.0617  0.0611
  533MOL0     C70260   7.018   6.487   9.656  0.3238  0.4369  0.2995
  533MOL0     C70261   7.088   6.553   9.526  1.0232 -0.6003  0.0690
  533MOL0     C70262   7.175   6.458   9.442  0.9372 -0.5617 -0.4200
  533MOL0     C70263   7.300   6.534   9.381 -0.3508 -0.5145 -0.8332
  533MOL0     C70264   7.341   6.444   9.257  0.7747  0.2326  0.5711
  533MOL0     C70265   7.456   6.493   9.164 -0.1147  0.3436 -0.1986
  533MOL0     C70266   7.474   6.390   9.045  0.2913 -0.5111 -0.1715
  533MOL0     C70267   7.543   6.263   9.081 -1.1621 -0.3280 -0.5946
  533MOL0    Cl70268   7.530   6.160   8.938  0.3844 -0.0028 -0.2141
  533MOL0     C70269   6.852   6.777   9.806 -0.1065  1.0587  0.3875
  533MOL0     C70270   6.769   6.893   9.786  0.4284 -0.2700 -0.8321
  533MOL0     O70271   6.422   6.848   9.652 -0.5444  0.8266  0.0227
  533MOL0     C70272   6.422   7.195   9.645 -0.2971 -0.2217 -0.4031
  533MOL0     C70273   6.352   7.302   9.592  0.2584 -0.6352  0.2435
  533MOL0     N70274   5.856   7.502   9.096  0.8612 -0.8717 -0.1591
  533MOL0     N70275   5.899   7.593   9.015  0.2859 -0.0048  0.2839
  533MOL0     C70276   5.129   8.428   9.167  0.4277 -0.6995 -0.1915
  533MOL0     C70277   5.025   8.395   9.257 -0.6100  0.0416  0.6243
  533MOL0     C70278   4.713   8.181   9.506 -0.2608  0.4795 -0.0530
  533MOL0     C70279   4.760   8.117   9.623  0.1497 -0.2374  0.1526
  533MOL0     C70280   4.680   8.031   9.698 -0.1516 -0.4987  0.0345
  533MOL0     C70281   4.545   8.016   9.668  0.5462 -0.0128  1.0281
  533MOL0     O70282   4.454   7.954   9.755  0.0084 -0.2637  0.4244
  533MOL0     C70283   4.506   7.875   9.871  0.2074 -0.9877  0.1240
  533MOL0     C70284   4.392   7.803   9.932  0.3765  0.4473 -1.0259
  533MOL0     C70285   4.435   7.731  10.055 -0.1972  0.2200 -0.4639
  533MOL0     C70286   4.310   7.663  10.123 -0.3817  0.3306  0.2265
  533MOL0     C70287   4.346   7.633  10.264 -0.3851 -0.3056  0.0847
  533MOL0     C70288   4.392   7.594  10.372  0.8281  0.6690  0.0828
  533MOL0     C70289   4.500   8.079   9.554  0.6521  0.0224  0.2093
  533MOL0     C70290   4.576   8.164   9.481 -0.2225  0.3035  0.7836
  533MOL0     H70291   5.179   8.167   9.458  0.6949 -0.3611  0.3312
  533MOL0     H70292   5.359   8.240   9.321 -0.6699 -1.4541  2.1323
  533MOL0     H70293   5.476   8.251   9.119  0.9432 -0.2231  0.7505
  533MOL0     H70294   5.519   8.394   9.222 -1.8953  1.0711  0.6849
  533MOL0     H70295   5.582   8.525   9.005  1.5751  0.6201  0.6259
  533MOL0     H70296   5.522   8.382   8.910 -1.9473 -0.4021  0.2996
  533MOL0     H70297   5.751   8.357   9.112 -0.4322 -2.6621  0.1493
  533MOL0     H70298   5.773   8.399   8.942  1.2565  0.1587 -0.3248
  533MOL0     H70299   5.648   8.155   9.067 -2.8776  0.8809 -1.8995
  533MOL0     H70300   5.624   8.197   8.900 -0.2210 -0.0607  0.5213
  533MOL0     H70301   5.886   8.116   9.029  0.4683  0.1729 -0.3767
  533MOL0     H70302   5.895   8.215   8.889 -2.2071  0.2201  0.2601
  533MOL0     H70303   5.914   8.012   8.791  1.2188  0.2770  2.4677
  533MOL0     H70304   5.736   8.054   8.767  0.4391 -0.0613 -0.0128
  533MOL0     H70305   5.705   7.922   8.992 -1.3661 -0.6645 -1.2808
  533MOL0     H70306   5.738   7.841   8.842  1.6843 -0.6630  0.8462
  533MOL0     H70307   5.933   7.911   9.063  0.8361  0.2508 -2.4195
  533MOL0     H70308   5.988   7.832   8.925 -0.6563 -0.8823  0.2764
  533MOL0     H70309   5.758   7.765   9.247 -1.4217 -0.5902 -0.9438
  533MOL0     H70310   5.746   7.381   9.286  0.7084  0.2192  0.6839
  533MOL0     H70311   5.630   7.513   9.326 -0.1913 -0.9572 -0.2894
  533MOL0     H70312   5.770   7.440   9.521  1.5809  1.2549  1.0331
  533MOL0     H70313   5.772   7.609   9.484 -0.9547 -1.0291  1.2836
  533MOL0     H70314   5.998   7.587   9.356 -0.1655  3.1457  2.9176
  533MOL0     H70315   6.004   7.566   9.528  2.7342 -0.1382 -0.5825
  533MOL0     H70316   6.006   7.337   9.332 -3.1058  3.2892 -0.8424
  533MOL0     H70317   5.987   7.325   9.508 -0.8793 -0.2296  0.0172
  533MOL0     H70318   6.099   7.149   9.453 -0.6940  3.2204 -1.2214
  533MOL0     H70319   6.228   6.950   9.541 -0.3551  0.3127  1.6329
  533MOL0     H70320   6.646   6.789   9.497  1.9722  2.3726 -0.0270
  533MOL0     H70321   6.809   6.621   9.501  0.0284  0.6829 -0.6880
  533MOL0     H70322   6.939   6.422   9.619 -1.5999  3.5257 -1.5077
  533MOL0     H70323   7.090   6.421   9.706 -2.4030 -2.1771  1.0477
  533MOL0     H70324   7.156   6.631   9.563 -2.0796  1.9779  0.8436
  533MOL0     H70325   7.010   6.593   9.459  0.4207 -1.6958  0.1021
  533MOL0     H70326   7.099   6.414   9.377 -1.3613  1.4301  0.7839
  533MOL0     H70327   7.205   6.368   9.497 -1.1357 -0.8647  0.2830
  533MOL0     H70328   7.251   6.626   9.347  1.3094  0.7915  0.1743
  533MOL0     H70329   7.383   6.548   9.451 -1.3023  1.1374  0.0221
  533MOL0     H70330   7.259   6.431   9.186  2.4965  2.0620 -1.9496
  533MOL0     H70331   7.375   6.354   9.308  3.1534  1.9871  2.3301
  533MOL0     H70332   7.548   6.496   9.223 -0.6396 -2.4779  0.9116
  533MOL0     H70333   7.442   6.595   9.126 -2.1324 -0.1443 -0.8734
  533MOL0     H70334   7.377   6.364   9.003 -0.0214  0.1681  0.1279
  533MOL0     H70335   7.524   6.447   8.966  2.7095 -2.7148 -0.3949
  533MOL0     H70336   7.497   6.219   9.169 -1.4028 -1.3662 -1.2288
  533MOL0     H70337   7.647   6.278   9.113 -0.8685 -0.4862 -1.4525
  533MOL0     H70338   6.902   6.768   9.902 -1.7765 -1.0138  1.1623
  533MOL0     H70339   6.771   6.983   9.846 -0.0158 -1.7378  1.5276
  533MOL0     H70340   6.515   7.210   9.699  0.7682 -0.4231 -2.1011
  533MOL0     H70341   6.390   7.402   9.611  0.0581  0.0421 -2.4701
  533MOL0     H70342   5.112   8.496   9.084 -0.0735  1.4744  1.5868
  533MOL0     H70343   4.929   8.442   9.237 -1.2994 -1.4877  0.2055
  533MOL0     H70344   4.861   8.129   9.663  0.4134 -1.1119 -0.2287
  533MOL0     H70345   4.738   7.973   9.768 -0.1152 -2.3527 -1.4444
  533MOL0     H70346   4.555   7.946   9.938 -2.3198  3.5196 -2.2756
  533MOL0     H70347   4.586   7.810   9.835  2.9038  2.2999 -0.3177
  533MOL0     H70348   4.326   7.886   9.957  2.3989  2.3843 -1.7976
  533MOL0     H70349   4.360   7.732   9.856 -1.2045  0.9320 -0.8316
  533MOL0     H70350   4.471   7.813  10.118  0.1352 -0.4692  0.2514
  533MOL0     H70351   4.509   7.657  10.025 -1.1214  0.3306 -3.2742
  533MOL0     H70352   4.224   7.729  10.114 -2.6235 -2.5553 -1.2857
  533MOL0     H70353   4.285   7.569  10.072 -3.2177  1.4901 -0.6926
  533MOL0     H70354   4.428   7.561  10.467 -1.0265 -0.8835  0.3185
  533MOL0     H70355   4.393   8.085   9.535  0.8171  1.1740 -0.4519
  533MOL0     H70356   4.547   8.215   9.390 -1.6886  1.7382  1.9985
  534MOL0     O70357  11.354   2.241   0.176 -0.3649 -0.4772  0.5749
  534MOL0     C70358  11.457   2.186   0.203 -0.0468 -0.5607  0.0578
  534MOL0     O70359  11.517   2.208   0.327 -0.8923 -1.0217  0.2487
  534MOL0     C70360  11.453   2.288   0.420 -0.3058 -0.6830 -0.6500
  534MOL0     C70361  11.499   2.256   0.548 -0.4104 -0.3968 -1.1141
  534MOL0     C70362  11.471   2.331   0.659 -0.5399  0.3136  1.2890
  534MOL0     C70363  11.389   2.445   0.649  0.0288 -0.7133  0.8078
  534MOL0     O70364  11.362   2.529   0.757 -0.2057  0.8304 -0.4008
  534MOL0     C70365  11.421   2.493   0.890  0.3199  0.6302 -0.1245
  534MOL0     C70366  11.400   2.601   0.986 -0.7547 -1.1488  1.2993
  534MOL0     C70367  11.478   2.590   1.117  0.6120 -0.0061 -0.3861
  534MOL0     C70368  11.519   2.728   1.172  1.1053 -0.4144  1.0565
  534MOL0     C70369  11.581   2.710   1.310 -0.8807 -0.3803  0.0515
  534MOL0     C70370  11.659   2.834   1.355  0.8027  0.1444  0.3035
  534MOL0     C70371  11.809   2.818   1.333  0.0169 -0.3389  0.2704
  534MOL0     C70372  11.873   2.833   1.192  0.1740 -0.6734 -1.0006
  534MOL0     N70373  12.016   2.837   1.199  1.6415  0.4438 -0.3835
  534MOL0     C70374  12.098   2.945   1.181  0.1871  0.6531  0.3726
  534MOL0     C70375  12.220   2.904   1.215 -0.1353  0.0805 -0.4050
  534MOL0     C70376  12.349   2.975   1.198 -0.7024  0.5440  0.6050
  534MOL0     C70377  12.396   2.979   1.055 -0.2101  0.3051  0.0083
  534MOL0     C70378  12.556   3.014   1.055 -0.3583  0.1373 -0.1492
  534MOL0     C70379  12.650   2.916   1.122 -0.5095  0.3233 -0.0270
  534MOL0     O70380  12.615   2.781   1.076  0.3605 -0.4270  0.1422
  534MOL0     C70381  12.716   2.694   1.089  0.1225  1.9288  0.1195
  534MOL0     C70382  12.711   2.613   1.209 -0.3619 -0.3827  0.2682
  534MOL0     C70383  12.814   2.531   1.238  0.5282 -0.4845  1.0876
  534MOL0     C70384  12.931   2.526   1.157 -0.3452 -0.4356  0.0783
  534MOL0     C70385  13.034   2.428   1.181 -0.4001 -0.3996  0.4545
  534MOL0     O70386  13.126   2.410   1.087  0.0942  0.8825  0.8228
  534MOL0     C70387  13.239   2.337   1.111  0.2493 -0.1133  1.1248
  534MOL0     C70388  13.293   2.250   1.015  0.0402 -0.9726  0.5036
  534MOL0     C70389  13.413   2.182   1.027 -0.4796  0.3960  1.0817
  534MOL0     C70390  13.493   2.198   1.146 -0.3933  0.3766  0.5099
  534MOL0     O70391  13.609   2.116   1.173  0.3365 -0.8701 -0.1283
  534MOL0     C70392  13.613   2.050   1.304  0.0653  0.5560  0.2177
  534MOL0     C70393  13.638   1.905   1.281  0.1829 -0.4224  1.0653
  534MOL0     C70394  13.516   1.845   1.218  0.7782  0.0671  0.9604
  534MOL0     C70395  13.508   1.692   1.217  0.1448  0.7832 -0.1627
  534MOL0     C70396  13.374   1.634   1.183  0.0604  0.3140 -0.5118
  534MOL0     C70397  13.374   1.484   1.204 -0.1849 -0.6668 -0.3559
  534MOL0     C70398  13.236   1.432   1.219  0.0387  1.2943  0.5912
  534MOL0     C70399  13.150   1.424   1.088  0.2617  0.3296  1.0435
  534MOL0    Cl70400  13.000   1.334   1.085  0.2725 -0.0224  0.1915
  534MOL0     C70401  13.442   2.281   1.239  0.5987 -0.5938  0.0919
  534MOL0     C70402  13.312   2.342   1.224 -0.8260 -0.3866 -1.1599
  534MOL0     O70403  13.021   2.353   1.275  0.4280  0.2372 -0.2094
  534MOL0     C70404  12.933   2.605   1.044 -0.0130  0.1134 -0.8373
  534MOL0     C70405  12.830   2.694   1.012 -0.1432  0.0275  1.6879
  534MOL0     N70406  12.212   2.780   1.277  0.7097 -0.7709  0.5713
  534MOL0     N70407  12.087   2.743   1.262 -0.2995  0.5266  0.2514
  534MOL0     C70408  11.337   2.477   0.522 -0.9881 -0.6930 -0.5972
  534MOL0     C70409  11.373   2.403   0.408  0.0861  0.7529  0.7539
  534MOL0     C70410  11.515   2.084   0.101 -0.0913 -0.0694 -0.1213
  534MOL0     C70411  11.616   2.001   0.137 -1.6650 -0.1171  0.6982
  534MOL0     C70412  11.677   1.905   0.052 -0.7168 -0.3992  0.4219
  534MOL0     C70413  11.638   1.901  -0.085 -0.1979  0.1397  0.2543
  534MOL0     O70414  11.675   1.819  -0.186 -1.0850  0.1345  0.1429
  534MOL0     C70415  11.749   1.706  -0.135  0.0687  0.1687 -0.4002
  534MOL0     C70416  11.900   1.727  -0.120 -0.6841  0.4186  0.2057
  534MOL0     C70417  11.994   1.598  -0.116  0.4440  0.3992  0.4969
  534MOL0     C70418  12.143   1.636  -0.103  0.2773  0.1290  0.0877
  534MOL0     C70419  12.212   1.515  -0.053  1.1384  0.0904 -0.0070
  534MOL0     C70420  12.262   1.415  -0.008  0.3002  0.9545 -0.4530
  534MOL0     C70421  11.526   1.981  -0.130 -0.7503  0.3764  0.1029
  534MOL0     C70422  11.465   2.072  -0.035 -0.4372  0.6877 -0.6084
  534MOL0     H70423  11.557   2.166   0.565 -1.1221 -0.8775 -1.2020
  534MOL0     H70424  11.530   2.295   0.743  2.7419 -2.2479 -1.8090
  534MOL0     H70425  11.528   2.468   0.882  0.0758 -0.1098 -1.4517
  534MOL0     H70426  11.367   2.408   0.932 -1.5118  1.4833 -0.6748
  534MOL0     H70427  11.293   2.623   0.992 -0.8511 -1.1819  0.0717
  534MOL0     H70428  11.452   2.685   0.940  1.1199 -2.1168  1.5788
  534MOL0     H70429  11.573   2.535   1.115  0.9038  0.3830 -3.7668
  534MOL0     H70430  11.422   2.539   1.196  3.6127 -1.4876  0.9470
  534MOL0     H70431  11.579   2.794   1.109 -0.9419  0.0267 -0.5515
  534MOL0     H70432  11.424   2.782   1.171  0.9896 -0.5267 -2.0066
  534MOL0     H70433  11.649   2.624   1.302 -2.0883 -1.4489  0.8122
  534MOL0     H70434  11.507   2.690   1.389 -3.2610  2.3882 -1.3154
  534MOL0     H70435  11.643   2.846   1.462 -0.2875 -0.6879  0.2602
  534MOL0     H70436  11.623   2.928   1.313 -1.9640  0.2912  2.6820
  534MOL0     H70437  11.858   2.895   1.394  0.3486 -0.5310  0.2450
  534MOL0     H70438  11.835   2.722   1.379  1.7081  1.4149  3.3627
  534MOL0     H70439  11.830   2.926   1.154 -2.2564 -0.9218  0.8517
  534MOL0     H70440  11.846   2.743   1.136 -0.8141  0.0518 -1.7130
  534MOL0     H70441  12.076   3.038   1.129  3.1493 -0.2583 -2.8637
  534MOL0     H70442  12.415   2.937   1.277 -1.1219  0.5802  0.9838
  534MOL0     H70443  12.321   3.068   1.250 -3.3269 -1.0214  2.2735
  534MOL0     H70444  12.347   3.055   0.994  1.5418  0.0906 -1.7773
  534MOL0     H70445  12.366   2.887   1.005 -0.7289 -0.1180  1.0731
  534MOL0     H70446  12.593   3.024   0.953 -2.3392 -0.8785 -1.0090
  534MOL0     H70447  12.559   3.108   1.110  0.2868 -0.2335  0.4645
  534MOL0     H70448  12.648   2.913   1.231  0.5709 -2.5040 -0.0029
  534MOL0     H70449  12.752   2.938   1.088 -0.8957 -1.2029 -2.4902
  534MOL0     H70450  12.623   2.625   1.272 -0.3375  1.6767 -0.0452
  534MOL0     H70451  12.803   2.472   1.329 -1.8903  0.3692  1.3966
  534MOL0     H70452  13.231   2.251   0.926 -0.7153  2.0680  0.9816
  534MOL0     H70453  13.452   2.131   0.940 -2.2790  2.4754 -1.1050
  534MOL0     H70454  13.523   2.068   1.362  1.2824  3.0569  1.4893
  534MOL0     H70455  13.690   2.087   1.372 -0.3622  0.2081  0.8923
  534MOL0     H70456  13.650   1.845   1.371  3.4330 -0.9343  0.4379
  534MOL0     H70457  13.733   1.901   1.225 -1.7396  0.4420 -2.5809
  534MOL0     H70458  13.500   1.864   1.111 -1.0074  1.4018  1.4160
  534MOL0     H70459  13.427   1.877   1.273 -0.1809 -3.0523  1.3890
  534MOL0     H70460  13.590   1.664   1.151 -1.2032 -0.3382 -1.4363
  534MOL0     H70461  13.532   1.656   1.317  0.9979 -2.7191 -1.4848
  534MOL0     H70462  13.364   1.649   1.075  2.7851  1.0727 -0.7333
  534MOL0     H70463  13.293   1.683   1.239  0.3476  0.0725  0.1208
  534MOL0     H70464  13.425   1.462   1.298 -1.7035 -1.5984  0.3020
  534MOL0     H70465  13.431   1.464   1.113  0.9203  3.6262 -0.8700
  534MOL0     H70466  13.243   1.336   1.270 -2.1001  0.2157 -0.9955
  534MOL0     H70467  13.191   1.503   1.289  0.3484  1.0434  1.0500
  534MOL0     H70468  13.215   1.361   1.027  2.1092 -0.6506  3.8204
  534MOL0     H70469  13.129   1.520   1.040 -1.3736 -0.5031  0.0186
  534MOL0     H70470  13.497   2.301   1.330  0.9158 -0.8231 -0.0484
  534MOL0     H70471  13.285   2.402   1.310 -0.3790 -0.3546 -1.0398
  534MOL0     H70472  13.022   2.609   0.981  2.2279 -3.0154  1.7903
  534MOL0     H70473  12.847   2.762   0.929  3.2119 -1.5195  0.9449
  534MOL0     H70474  11.275   2.564   0.501 -2.0746 -1.3311 -0.1570
  534MOL0     H70475  11.340   2.434   0.310  1.5216  1.3864  0.4324
  534MOL0     H70476  11.661   2.010   0.235 -0.5810 -1.7658  0.3879
  534MOL0     H70477  11.759   1.846   0.092 -0.7288 -2.4146 -2.2433
  534MOL0     H70478  11.740   1.627  -0.210 -1.1053  0.9770 -1.1369
  534MOL0     H70479  11.706   1.649  -0.052 -3.4612  2.9502 -0.1064
  534MOL0     H70480  11.934   1.784  -0.208 -2.7936  0.8953 -0.3428
  534MOL0     H70481  11.916   1.795  -0.036 -0.9842 -0.4330  0.9525
  534MOL0     H70482  11.968   1.535  -0.202  0.2094 -0.8503  1.4625
  534MOL0     H70483  11.954   1.538  -0.034 -1.1569  2.1145  1.0492
  534MOL0     H70484  12.185   1.654  -0.202  1.2639 -1.2521  0.2182
  534MOL0     H70485  12.162   1.719  -0.034 -0.5423  0.4796 -0.0964
  534MOL0     H70486  12.309   1.331   0.040 -1.2113 -0.3128 -1.1211
  534MOL0     H70487  11.495   1.986  -0.234 -1.6880  2.2683  0.4251
  534MOL0     H70488  11.380   2.132  -0.064 -2.0628 -0.2349  1.9153
  535MOL0     O70489   3.053   7.890   1.156 -0.3249  0.4761  0.0113
  535MOL0     C70490   2.976   7.888   1.255 -0.4901 -0.4924  0.0855
  535MOL0     O70491   2.880   7.986   1.282 -0.4169 -0.6058 -0.4222
  535MOL0     C70492   2.842   8.086   1.190 -0.7512  0.9806 -0.1587
  535MOL0     C70493   2.797   8.201   1.240  1.0164  0.3038  0.0406
  535MOL0     C70494   2.753   8.304   1.152  0.1166  0.1897 -0.3006
  535MOL0     C70495   2.758   8.296   1.015 -0.3279  0.1810  0.0195
  535MOL0     O70496   2.727   8.408   0.937  0.3858  0.1022 -0.5754
  535MOL0     C70497   2.803   8.437   0.818  0.6713  0.7551  1.4993
  535MOL0     C70498   2.942   8.485   0.848 -0.5403 -1.4078 -0.6528
  535MOL0     C70499   3.002   8.535   0.717  0.2170  1.4164  0.2498
  535MOL0     C70500   3.127   8.629   0.711  1.2489  0.3702 -0.4924
  535MOL0     C70501   3.151   8.653   0.567 -0.6311 -0.2787  1.4489
  535MOL0     C70502   3.204   8.544   0.468  0.2900 -0.5261 -0.0144
  535MOL0     C70503   3.274   8.596   0.342  0.3785  0.2652 -0.5779
  535MOL0     C70504   3.290   8.483   0.229 -0.2010 -0.2790 -0.1104
  535MOL0     N70505   3.375   8.368   0.272  0.3347  0.7314  0.3163
  535MOL0     C70506   3.327   8.238   0.250  0.2777  0.3062 -0.8281
  535MOL0     C70507   3.441   8.162   0.246 -0.2228  0.4252 -0.1766
  535MOL0     C70508   3.459   8.017   0.241  0.8626 -0.2702 -0.1361
  535MOL0     C70509   3.604   7.975   0.209  0.2619 -0.8656  0.6119
  535MOL0     C70510   3.608   7.827   0.168  0.7180 -0.4528  0.0450
  535MOL0     C70511   3.738   7.746   0.174  0.0674 -0.5909 -0.1901
  535MOL0     O70512   3.844   7.806   0.249  0.0300  0.2661 -0.2024
  535MOL0     C70513   3.946   7.881   0.205 -0.6688  0.4779 -0.0641
  535MOL0     C70514   4.062   7.878   0.288 -1.1516  0.3987  0.8046
  535MOL0     C70515   4.181   7.943   0.251 -0.4659 -0.4329  0.2211
  535MOL0     C70516   4.190   8.012   0.126  0.2996  0.5322 -0.2850
  535MOL0     C70517   4.311   8.081   0.079  0.8256  0.0572 -0.3811
  535MOL0     O70518   4.303   8.148  -0.038  0.3654 -0.1108  0.6513
  535MOL0     C70519   4.397   8.219  -0.099  0.1067  0.6946  0.1817
  535MOL0     C70520   4.372   8.249  -0.235 -0.2347  0.3607  0.7721
  535MOL0     C70521   4.474   8.298  -0.320 -0.8531 -0.4537  0.1441
  535MOL0     C70522   4.607   8.326  -0.262 -1.0495  0.0146  0.9119
  535MOL0     O70523   4.710   8.382  -0.333 -0.6045  0.1626 -0.2300
  535MOL0     C70524   4.772   8.296  -0.422  1.2009  0.0333  0.0153
  535MOL0     C70525   4.909   8.362  -0.457  0.7839 -0.2288  0.2433
  535MOL0     C70526   5.020   8.261  -0.492  0.7967 -0.3808 -0.4341
  535MOL0     C70527   5.151   8.330  -0.525 -0.1089 -0.5730 -0.6103
  535MOL0     C70528   5.231   8.251  -0.622 -0.5692  0.2896  0.3889
  535MOL0     C70529   5.379   8.304  -0.608  1.1222  0.1370 -0.2091
  535MOL0     C70530   5.390   8.446  -0.687 -0.0909  0.8238 -0.9449
  535MOL0     C70531   5.540   8.459  -0.735  0.0884  0.0965  0.1963
  535MOL0    Cl70532   5.554   8.613  -0.845  0.0526  0.0894  0.2385
  535MOL0     C70533   4.629   8.305  -0.130  0.2530  0.1500 -0.1830
  535MOL0     C70534   4.530   8.247  -0.045  0.5669 -0.2514  0.6229
  535MOL0     O70535   4.405   8.067   0.148 -0.5235  0.0608  0.0802
  535MOL0     C70536   4.077   8.008   0.047  0.9623  0.9873 -0.4537
  535MOL0     C70537   3.961   7.945   0.085  0.2620  0.5162 -0.3889
  535MOL0     N70538   3.546   8.255   0.248 -0.3952 -0.0867  0.8924
  535MOL0     N70539   3.505   8.370   0.261 -0.2689  0.3413  1.1860
  535MOL0     C70540   2.810   8.172   0.968  0.4073 -0.0208  0.0702
  535MOL0     C70541   2.857   8.076   1.051 -0.5115 -0.3364  0.0564
  535MOL0     C70542   3.008   7.794   1.367  0.3614 -0.4531  0.7443
  535MOL0     C70543   2.944   7.804   1.493  0.3125 -1.1760 -0.1930
  535MOL0     C70544   2.977   7.711   1.594 -0.4855 -0.1420  0.8083
  535MOL0     C70545   3.069   7.609   1.573 -0.5203  0.6614  0.0709
  535MOL0     O70546   3.125   7.514   1.660 -0.4222  0.4594  0.6122
  535MOL0     C70547   3.082   7.503   1.797 -0.5470  0.2972  0.2297
  535MOL0     C70548   2.933   7.451   1.809 -0.3630  0.2779  0.3803
  535MOL0     C70549   2.906   7.310   1.758  0.3919  0.4210 -0.2921
  535MOL0     C70550   2.755   7.284   1.725  0.1285 -0.0243  1.7618
  535MOL0     C70551   2.659   7.364   1.804 -0.5525 -0.4965  0.6243
  535MOL0     C70552   2.597   7.427   1.888  0.5081  0.2649  0.2289
  535MOL0     C70553   3.135   7.610   1.450  0.2275 -0.7380  0.5025
  535MOL0     C70554   3.103   7.705   1.355  0.0548  1.5193  0.2223
  535MOL0     H70555   2.781   8.220   1.346  0.0189 -1.3041  0.2141
  535MOL0     H70556   2.712   8.391   1.203  0.2336 -0.8852  1.7521
  535MOL0     H70557   2.745   8.511   0.763  1.9911 -0.4218 -1.7571
  535MOL0     H70558   2.816   8.353   0.749 -1.9782  0.6194  1.0694
  535MOL0     H70559   3.010   8.403   0.874 -2.0474 -2.6703 -0.5431
  535MOL0     H70560   2.947   8.566   0.922  1.2697 -0.7837 -1.4028
  535MOL0     H70561   2.927   8.591   0.660  0.4979  1.6081  0.0716
  535MOL0     H70562   3.018   8.439   0.667 -2.9352 -0.8514  3.1054
  535MOL0     H70563   3.101   8.726   0.754  1.1933  1.1023 -2.0837
  535MOL0     H70564   3.214   8.589   0.764  1.3302  0.0595 -0.8573
  535MOL0     H70565   3.223   8.736   0.562  1.4134 -1.9551  1.9054
  535MOL0     H70566   3.059   8.692   0.523 -1.2671 -1.3151  1.8518
  535MOL0     H70567   3.118   8.479   0.452 -0.8160 -0.7913  5.1635
  535MOL0     H70568   3.266   8.478   0.529 -0.0744 -2.9770 -2.1356
  535MOL0     H70569   3.215   8.678   0.299  1.7277  1.0809 -0.9454
  535MOL0     H70570   3.373   8.637   0.365 -0.3049  0.9433  1.2953
  535MOL0     H70571   3.347   8.537   0.152 -2.4545  2.6192  0.0258
  535MOL0     H70572   3.196   8.460   0.177 -0.3035 -0.3502  0.1052
  535MOL0     H70573   3.223   8.211   0.234 -0.4940  2.4644  0.1106
  535MOL0     H70574   3.396   7.983   0.157  0.8375 -0.4126 -0.0598
  535MOL0     H70575   3.418   7.965   0.328  1.6335 -0.7700 -0.0669
  535MOL0     H70576   3.669   7.994   0.295 -0.4212  1.6479  0.6473
  535MOL0     H70577   3.635   8.025   0.117 -1.3840  2.1356  1.5297
  535MOL0     H70578   3.543   7.770   0.235 -0.2243  0.5792  0.0257
  535MOL0     H70579   3.564   7.820   0.067  2.4841  0.2386 -0.8075
  535MOL0     H70580   3.779   7.720   0.075 -0.2639 -0.0085 -0.4902
  535MOL0     H70581   3.725   7.646   0.216  1.9876 -0.5023  0.7356
  535MOL0     H70582   4.058   7.834   0.387  2.6155  0.6433  1.2008
  535MOL0     H70583   4.269   7.950   0.314  3.2666 -3.2317 -4.0242
  535MOL0     H70584   4.277   8.227  -0.282  0.3637  1.8960 -1.3023
  535MOL0     H70585   4.454   8.322  -0.424 -0.5683  2.0209  0.5976
  535MOL0     H70586   4.706   8.271  -0.506  0.7229  2.6407 -0.4567
  535MOL0     H70587   4.797   8.205  -0.367 -0.8130 -0.2556  0.5260
  535MOL0     H70588   4.947   8.420  -0.372  1.3696 -0.7506  0.3518
  535MOL0     H70589   4.896   8.429  -0.542 -2.9480 -3.3574 -1.9809
  535MOL0     H70590   4.994   8.193  -0.573  0.1456  2.0433 -2.3816
  535MOL0     H70591   5.035   8.200  -0.402  0.9257 -3.0914 -2.1807
  535MOL0     H70592   5.140   8.432  -0.562  0.9021 -1.0662 -2.3598
  535MOL0     H70593   5.197   8.354  -0.429  4.0704 -0.9054 -2.2938
  535MOL0     H70594   5.192   8.270  -0.722  2.3175  1.2834 -0.6634
  535MOL0     H70595   5.240   8.143  -0.604 -2.2561  0.2686  1.2814
  535MOL0     H70596   5.451   8.233  -0.649  3.3189  1.2606  1.4897
  535MOL0     H70597   5.408   8.317  -0.503 -0.9371 -2.7416  0.8550
  535MOL0     H70598   5.322   8.441  -0.773 -4.1224  3.7107  1.7402
  535MOL0     H70599   5.366   8.532  -0.623 -1.3058  1.0178 -1.6353
  535MOL0     H70600   5.584   8.374  -0.787  0.0145  1.5496 -2.4077
  535MOL0     H70601   5.607   8.476  -0.651  0.0858 -2.6069  0.8348
  535MOL0     H70602   4.728   8.327  -0.093  0.6436 -2.3721  0.4456
  535MOL0     H70603   4.560   8.212   0.053  0.0164 -3.1879 -0.1628
  535MOL0     H70604   4.074   8.058  -0.050 -0.2075  2.1321  0.1367
  535MOL0     H70605   3.868   7.947   0.028  0.1222 -2.3415 -0.3936
  535MOL0     H70606   2.816   8.165   0.860 -4.0650 -1.5592 -0.2824
  535MOL0     H70607   2.889   7.983   1.005  1.0534  0.1139  0.1654
  535MOL0     H70608   2.882   7.886   1.528 -0.2121 -1.0710 -1.3269
  535MOL0     H70609   2.940   7.718   1.696  0.4752  1.0545  1.0956
  535MOL0     H70610   3.103   7.599   1.847  0.5345  0.4142 -0.4209
  535MOL0     H70611   3.150   7.439   1.854  3.4376  1.2898 -2.9477
  535MOL0     H70612   2.907   7.451   1.916 -2.2266 -2.7697  0.0441
  535MOL0     H70613   2.863   7.525   1.769  0.4362 -0.4205 -2.5412
  535MOL0     H70614   2.924   7.247   1.845 -0.9479  1.5746  0.8879
  535MOL0     H70615   2.963   7.276   1.672 -0.4764 -4.0089  0.6429
  535MOL0     H70616   2.752   7.320   1.622  1.6837 -2.4368  0.7743
  535MOL0     H70617   2.725   7.179   1.725  0.1481 -0.0897 -0.4355
  535MOL0     H70618   2.528   7.480   1.950  0.5417 -2.4570  2.8301
  535MOL0     H70619   3.213   7.538   1.427  0.3916 -0.6718  0.8456
  535MOL0     H70620   3.151   7.698   1.258 -0.9095  0.6893 -0.2122
  536MOL0     O70621   6.301   4.381   7.485 -1.1807 -0.6847  0.8891
  536MOL0     C70622   6.325   4.483   7.554 -0.1674  0.9382 -0.6297
  536MOL0     O70623   6.446   4.519   7.604 -0.1327 -0.5481 -0.2220
  536MOL0     C70624   6.553   4.461   7.564 -0.6799  1.1857  1.2760
  536MOL0     C70625   6.638   4.416   7.662  0.4294  0.1783 -0.9170
  536MOL0     C70626   6.771   4.363   7.630  0.2786 -0.6971 -0.2925
  536MOL0     C70627   6.822   4.380   7.497  0.6124 -0.4855 -0.3538
  536MOL0     O70628   6.938   4.312   7.467  0.7349  1.3901  0.4960
  536MOL0     C70629   6.986   4.334   7.335  0.2797  0.5876  1.1928
  536MOL0     C70630   7.109   4.245   7.311  0.5563  0.9881 -0.2953
  536MOL0     C70631   7.240   4.323   7.322 -0.3849 -0.1308 -0.1434
  536MOL0     C70632   7.352   4.236   7.270 -0.5708 -0.3423 -1.2528
  536MOL0     C70633   7.489   4.298   7.240 -0.1244 -0.7031 -0.7829
  536MOL0     C70634   7.525   4.309   7.085  0.1878  0.4325 -0.3389
  536MOL0     C70635   7.425   4.393   7.005 -0.4894 -0.3053 -0.5151
  536MOL0     C70636   7.437   4.550   7.031  0.5474  0.2690  0.0358
  536MOL0     N70637   7.337   4.638   6.969 -0.6263  0.5580  0.2204
  536MOL0     C70638   7.249   4.599   6.860 -0.4726 -0.2380  0.4975
  536MOL0     C70639   7.171   4.709   6.846  0.0761 -0.8471  0.0695
  536MOL0     C70640   7.047   4.692   6.763 -0.0594  0.5491 -0.0026
  536MOL0     C70641   6.996   4.829   6.701 -0.3117  0.0059 -0.0267
  536MOL0     C70642   6.857   4.813   6.641  0.3587  0.5122 -0.2569
  536MOL0     C70643   6.823   4.677   6.570  0.5937 -0.7092 -0.6508
  536MOL0     O70644   6.707   4.678   6.481  0.1538  0.1793 -0.2652
  536MOL0     C70645   6.694   4.556   6.415  0.1692  0.0109 -0.3752
  536MOL0     C70646   6.753   4.427   6.456 -0.2489 -0.3377 -0.0284
  536MOL0     C70647   6.735   4.316   6.378 -0.2734  0.2844 -0.1633
  536MOL0     C70648   6.646   4.319   6.270  0.7876 -0.1066 -0.4028
  536MOL0     C70649   6.611   4.194   6.199  1.0251 -0.9150  0.8576
  536MOL0     O70650   6.562   4.221   6.075 -0.9544  0.3171  0.3417
  536MOL0     C70651   6.441   4.166   6.044 -1.3390  0.2831  0.8501
  536MOL0     C70652   6.438   4.126   5.909 -0.1366  0.2233 -0.6854
  536MOL0     C70653   6.340   4.038   5.868  0.6152  0.6667 -0.8144
  536MOL0     C70654   6.242   3.992   5.956 -0.3693 -0.3024 -0.1604
  536MOL0     O70655   6.145   3.914   5.898 -0.0485 -0.2642 -0.4690
  536MOL0     C70656   6.023   3.909   5.971 -0.5604  0.4248  1.1236
  536MOL0     C70657   5.926   3.831   5.872  0.5880 -1.1886  0.0506
  536MOL0     C70658   5.882   3.925   5.746 -0.2625  0.1007 -0.9762
  536MOL0     C70659   5.979   3.935   5.630  0.6185 -1.1533 -0.7538
  536MOL0     C70660   5.955   4.047   5.524 -0.3872  0.4206 -0.2503
  536MOL0     C70661   5.833   4.020   5.434 -0.5045  0.3758  0.2487
  536MOL0     C70662   5.836   4.102   5.310  0.7411 -0.8620 -0.1233
  536MOL0     C70663   5.707   4.085   5.228 -0.5002 -0.2171 -0.1437
  536MOL0    Cl70664   5.611   4.232   5.211 -0.0503  0.0116 -0.1266
  536MOL0     C70665   6.244   4.041   6.087 -0.5537 -0.3385 -0.1089
  536MOL0     C70666   6.346   4.126   6.132 -0.0312  0.1231  0.1286
  536MOL0     O70667   6.652   4.091   6.236  0.5835 -0.3754  0.2179
  536MOL0     C70668   6.586   4.440   6.225  0.2238 -0.9516  0.2138
  536MOL0     C70669   6.613   4.557   6.298 -0.5591 -0.6485 -0.9319
  536MOL0     N70670   7.215   4.807   6.938 -0.5338 -0.1457 -0.3901
  536MOL0     N70671   7.322   4.766   7.006  0.2502 -0.0621  0.6504
  536MOL0     C70672   6.723   4.428   7.400 -0.2715 -0.2755  0.4152
  536MOL0     C70673   6.594   4.469   7.426 -0.8065  0.0756 -1.5154
  536MOL0     C70674   6.215   4.567   7.592 -0.4138 -0.5710 -0.3378
  536MOL0     C70675   6.077   4.537   7.550 -0.0228  0.1070  0.2158
  536MOL0     C70676   5.972   4.610   7.601 -0.7506  1.1891 -1.0102
  536MOL0     C70677   5.999   4.725   7.675 -0.4416  0.2849 -0.9520
  536MOL0     O70678   5.902   4.815   7.716 -1.1214  0.2471  0.7343
  536MOL0     C70679   5.773   4.789   7.687  0.0895  0.6402 -0.2958
  536MOL0     C70680   5.683   4.911   7.716  0.6446 -0.1658 -0.2530
  536MOL0     C70681   5.537   4.902   7.676  1.1974 -0.3154  0.0719
  536MOL0     C70682   5.478   5.040   7.638 -0.2353  0.7849  0.1986
  536MOL0     C70683   5.525   5.076   7.505 -0.8476 -0.1213  0.0475
  536MOL0     C70684   5.590   5.091   7.401  0.0305  1.2342  0.0016
  536MOL0     C70685   6.133   4.762   7.723 -0.1626  1.5439  0.1150
  536MOL0     C70686   6.236   4.673   7.686 -0.5818 -0.7307  0.8551
  536MOL0     H70687   6.612   4.394   7.765 -1.9510  1.1134 -1.2462
  536MOL0     H70688   6.843   4.343   7.709 -0.5632  1.8984  1.2491
  536MOL0     H70689   7.015   4.440   7.329  0.5900  0.4229 -1.8029
  536MOL0     H70690   6.917   4.315   7.252  0.4098  1.5457  0.8435
  536MOL0     H70691   7.089   4.205   7.212 -2.8968 -0.6095  0.8959
  536MOL0     H70692   7.116   4.157   7.376 -3.5272  0.2031 -0.6752
  536MOL0     H70693   7.269   4.354   7.423  1.7219 -0.2214 -0.6654
  536MOL0     H70694   7.246   4.415   7.264  1.0663  0.4048  0.8050
  536MOL0     H70695   7.367   4.170   7.356 -1.2538  1.1727  0.0834
  536MOL0     H70696   7.321   4.175   7.185 -1.0340  0.4142 -1.6374
  536MOL0     H70697   7.560   4.224   7.278  0.4582 -0.5415 -1.5176
  536MOL0     H70698   7.505   4.397   7.285 -2.1327 -0.1897 -1.0916
  536MOL0     H70699   7.507   4.211   7.040 -0.4060  1.1009 -1.6093
  536MOL0     H70700   7.626   4.350   7.073  0.3656  0.4741  1.1036
  536MOL0     H70701   7.432   4.387   6.897 -0.5718 -0.3553 -0.5173
  536MOL0     H70702   7.327   4.359   7.038 -0.5690  1.5327  1.4052
  536MOL0     H70703   7.530   4.574   6.979 -1.1689 -0.7539 -3.8925
  536MOL0     H70704   7.433   4.566   7.139  0.4004  1.4678 -0.1308
  536MOL0     H70705   7.241   4.498   6.821 -0.0125  0.3927 -1.3260
  536MOL0     H70706   6.965   4.654   6.823  0.0060  0.4676  0.0347
  536MOL0     H70707   7.063   4.616   6.686 -0.0023  0.9048 -0.3486
  536MOL0     H70708   7.066   4.857   6.621  2.1378 -2.5882  1.0411
  536MOL0     H70709   6.999   4.910   6.775 -0.3624  1.3744 -1.4543
  536MOL0     H70710   6.800   4.834   6.732  2.7130 -0.3245  1.5114
  536MOL0     H70711   6.835   4.890   6.566  2.6778 -1.7093 -3.4790
  536MOL0     H70712   6.803   4.614   6.657 -1.2659 -0.3594 -0.8023
  536MOL0     H70713   6.915   4.664   6.512  2.0923 -0.0152  1.4518
  536MOL0     H70714   6.817   4.426   6.543  0.2970  0.4914 -0.4022
  536MOL0     H70715   6.781   4.219   6.397  4.0953  2.3215  0.9115
  536MOL0     H70716   6.520   4.160   5.847  0.4370  2.1068  0.9896
  536MOL0     H70717   6.331   4.005   5.765 -0.4552 -0.2519 -0.4502
  536MOL0     H70718   5.978   4.007   5.991 -2.9358 -0.4390  0.4448
  536MOL0     H70719   6.026   3.855   6.066  0.8923 -1.2116  0.1917
  536MOL0     H70720   5.837   3.799   5.928  1.4520 -2.7056  0.6193
  536MOL0     H70721   5.968   3.735   5.842  0.0776 -1.5747  0.5311
  536MOL0     H70722   5.875   4.031   5.775 -1.5890  0.0815 -1.1722
  536MOL0     H70723   5.782   3.894   5.715 -0.4639 -0.4396  0.1705
  536MOL0     H70724   6.078   3.968   5.663  0.8460  1.2749 -3.4410
  536MOL0     H70725   5.979   3.832   5.593 -1.8687 -2.8840  3.2223
  536MOL0     H70726   6.038   4.048   5.453 -0.8216  2.0533 -0.7943
  536MOL0     H70727   5.957   4.147   5.568 -0.4784  0.0989  0.4900
  536MOL0     H70728   5.752   4.043   5.504  0.9359  1.1231  1.7304
  536MOL0     H70729   5.827   3.915   5.403  2.7239  0.8263 -2.4628
  536MOL0     H70730   5.850   4.207   5.340  2.3126 -1.5781  1.8121
  536MOL0     H70731   5.922   4.069   5.252  1.0666 -1.3646  0.6306
  536MOL0     H70732   5.648   4.008   5.277  1.8071 -1.6305  0.5811
  536MOL0     H70733   5.729   4.047   5.128 -2.0599 -1.9142  0.1036
  536MOL0     H70734   6.166   4.010   6.156 -2.1674  2.6520 -0.4255
  536MOL0     H70735   6.345   4.168   6.232 -0.3329  0.7432 -0.1334
  536MOL0     H70736   6.521   4.444   6.138 -0.9242  0.6903  1.1007
  536MOL0     H70737   6.586   4.656   6.263  3.0882  1.3182  1.2305
  536MOL0     H70738   6.753   4.430   7.295 -0.9360  0.2620  0.2298
  536MOL0     H70739   6.526   4.503   7.349 -4.0911 -2.1884  0.1716
  536MOL0     H70740   6.059   4.467   7.469  1.4357  2.4470 -2.3138
  536MOL0     H70741   5.870   4.578   7.585 -0.0522 -0.6184 -2.1604
  536MOL0     H70742   5.724   4.701   7.731  1.8841 -0.8832 -1.1790
  536MOL0     H70743   5.759   4.777   7.579  1.5983 -0.8898 -0.3547
  536MOL0     H70744   5.686   4.923   7.825  0.9990 -1.0016 -0.1610
  536MOL0     H70745   5.734   4.996   7.669 -1.2847  0.6799 -0.9174
  536MOL0     H70746   5.486   4.861   7.764  1.0997 -1.2697 -0.4140
  536MOL0     H70747   5.520   4.825   7.601 -1.6089  0.0417  0.2504
  536MOL0     H70748   5.370   5.023   7.634  0.1018 -1.9891  1.0933
  536MOL0     H70749   5.488   5.112   7.719  0.8826  0.4090  0.4095
  536MOL0     H70750   5.654   5.098   7.315  2.7199  0.3995  1.8163
  536MOL0     H70751   6.173   4.839   7.787  2.5818  1.4469 -1.3145
  536MOL0     H70752   6.330   4.701   7.731  0.1708  2.5748 -2.3232
  537MOL0     O70753   8.148   1.717   8.168  0.2110  0.5919  0.2945
  537MOL0     C70754   8.041   1.759   8.125 -0.1239  0.2665  0.1269
  537MOL0     O70755   8.020   1.826   8.003 -0.2467  0.2556 -0.5312
  537MOL0     C70756   8.115   1.845   7.906 -0.8534 -0.6363 -0.3493
  537MOL0     C70757   8.086   1.942   7.805  0.0374  0.0421  0.2742
  537MOL0     C70758   8.166   1.966   7.699  0.0835  0.3462  0.7322
  537MOL0     C70759   8.288   1.889   7.678 -0.1631 -0.4539  0.0177
  537MOL0     O70760   8.368   1.939   7.577 -0.0203 -0.2903 -0.0917
  537MOL0     C70761   8.497   1.881   7.573 -0.2094  0.1746  0.1317
  537MOL0     C70762   8.494   1.765   7.466  0.4921  0.7632  0.1835
  537MOL0     C70763   8.466   1.811   7.325 -0.3261 -0.1609  0.5522
  537MOL0     C70764   8.544   1.939   7.268  0.1535 -0.4382 -0.0727
  537MOL0     C70765   8.494   1.981   7.129 -0.7028 -0.1649 -0.3296
  537MOL0     C70766   8.538   1.879   7.023 -0.4404 -0.0395 -1.1502
  537MOL0     C70767   8.496   1.920   6.884 -0.0579 -0.0609 -0.0042
  537MOL0     C70768   8.549   2.063   6.839 -0.1464  0.1723 -0.5533
  537MOL0     N70769   8.524   2.108   6.702  0.1419 -0.7293  0.1929
  537MOL0     C70770   8.610   2.132   6.600  0.7906 -0.5290  1.3553
  537MOL0     C70771   8.536   2.183   6.490  0.5360  0.5615  0.6075
  537MOL0     C70772   8.581   2.239   6.356  0.4732 -0.0314  0.4922
  537MOL0     C70773   8.537   2.378   6.312 -0.0191 -0.6200  0.6919
  537MOL0     C70774   8.584   2.498   6.400  0.0249  0.5284 -0.8103
  537MOL0     C70775   8.591   2.628   6.320 -0.4813 -0.1943  0.1901
  537MOL0     O70776   8.672   2.614   6.194  0.9078 -0.0072  1.1804
  537MOL0     C70777   8.806   2.616   6.195  0.7080 -0.3650 -0.2652
  537MOL0     C70778   8.883   2.667   6.304  0.2943  0.2840 -0.8951
  537MOL0     C70779   9.021   2.642   6.299 -0.1726 -0.2159  0.3635
  537MOL0     C70780   9.091   2.587   6.191 -0.1200  1.0152 -0.2628
  537MOL0     C70781   9.237   2.571   6.190  0.0772 -0.4100  1.1114
  537MOL0     O70782   9.295   2.608   6.304 -0.0231  0.3685  0.4234
  537MOL0     C70783   9.411   2.551   6.340  0.5110  0.6335  0.1614
  537MOL0     C70784   9.521   2.630   6.365 -0.2554 -0.4082  0.0852
  537MOL0     C70785   9.646   2.574   6.411  0.5859 -0.2565  0.1630
  537MOL0     C70786   9.655   2.439   6.422 -0.8088  1.3937 -0.5805
  537MOL0     O70787   9.780   2.397   6.453 -0.0044  0.3526 -0.8670
  537MOL0     C70788   9.792   2.280   6.533 -0.8862 -0.5985 -0.3819
  537MOL0     C70789   9.934   2.309   6.607 -0.2086  0.4305 -0.1278
  537MOL0     C70790   9.975   2.186   6.691 -0.9764  0.4604 -0.5758
  537MOL0     C70791  10.114   2.222   6.747 -0.3813  0.0885  0.0541
  537MOL0     C70792  10.226   2.116   6.733  0.2793 -0.2384 -0.3079
  537MOL0     C70793  10.350   2.176   6.814 -0.1275 -0.4528  0.0676
  537MOL0     C70794  10.450   2.060   6.861  0.9567 -0.3575  1.4223
  537MOL0     C70795  10.555   2.061   6.749  0.0460  0.6590  0.1286
  537MOL0    Cl70796  10.681   1.953   6.802  0.2392  0.4066 -0.3622
  537MOL0     C70797   9.542   2.365   6.413  0.1302 -0.1038  0.5773
  537MOL0     C70798   9.426   2.411   6.355  0.7619 -1.5829 -0.4690
  537MOL0     O70799   9.290   2.521   6.087 -0.1614 -0.0269 -0.2569
  537MOL0     C70800   9.010   2.544   6.087 -0.3259  0.2797  0.4789
  537MOL0     C70801   8.873   2.566   6.084 -0.3016  0.7003 -0.0365
  537MOL0     N70802   8.408   2.181   6.537 -0.2823 -0.4534  0.3134
  537MOL0     N70803   8.401   2.151   6.663  0.5470 -0.3255  0.7376
  537MOL0     C70804   8.321   1.792   7.779  0.6209  0.2179  0.5991
  537MOL0     C70805   8.241   1.777   7.893  0.2518 -0.4823  0.9082
  537MOL0     C70806   7.944   1.769   8.237  0.2649 -0.6634  0.5879
  537MOL0     C70807   7.823   1.837   8.205  0.6471  0.4187 -0.7576
  537MOL0     C70808   7.727   1.859   8.303 -0.1440  0.2620 -0.2859
  537MOL0     C70809   7.753   1.817   8.443  0.3249 -0.7183 -0.1305
  537MOL0     O70810   7.665   1.841   8.551 -0.0270 -0.5200 -0.1053
  537MOL0     C70811   7.555   1.942   8.521  0.4682  0.5455  0.1286
  537MOL0     C70812   7.463   1.982   8.636  0.1573 -0.6029  0.7026
  537MOL0     C70813   7.534   1.990   8.769  0.6883  1.4945  0.3320
  537MOL0     C70814   7.446   2.019   8.887 -0.4563  0.3369  0.0631
  537MOL0     C70815   7.525   2.022   9.013  0.7677 -0.3434  0.3939
  537MOL0     C70816   7.585   2.012   9.120  0.3558  0.1005  0.0127
  537MOL0     C70817   7.866   1.744   8.463 -0.4320 -0.3676 -0.0635
  537MOL0     C70818   7.966   1.735   8.366 -0.7904  0.6580 -0.6518
  537MOL0     H70819   7.995   2.002   7.809  0.8986  1.3341  1.2471
  537MOL0     H70820   8.150   2.039   7.620 -0.7132  1.3940  1.8215
  537MOL0     H70821   8.537   1.859   7.673  0.9574 -0.7130 -0.5134
  537MOL0     H70822   8.560   1.963   7.537 -0.5132  1.1569  1.7243
  537MOL0     H70823   8.426   1.687   7.500 -1.6863  2.1332 -0.8385
  537MOL0     H70824   8.593   1.719   7.462 -0.7157 -2.0986  0.7694
  537MOL0     H70825   8.358   1.826   7.330 -0.4617 -1.5396  4.0293
  537MOL0     H70826   8.480   1.730   7.252  0.6311  2.4327 -2.3642
  537MOL0     H70827   8.527   2.023   7.336  0.4399  0.1892 -0.7587
  537MOL0     H70828   8.651   1.916   7.271  0.7925  2.0380 -0.8207
  537MOL0     H70829   8.530   2.083   7.111 -0.0215 -0.7552 -2.7500
  537MOL0     H70830   8.385   1.983   7.118 -1.0195  1.9952  2.2204
  537MOL0     H70831   8.493   1.781   7.040 -2.0052  0.6588 -1.1673
  537MOL0     H70832   8.648   1.873   7.020 -0.4022 -2.2853  1.0418
  537MOL0     H70833   8.527   1.845   6.809  1.3141  2.2843 -1.9203
  537MOL0     H70834   8.387   1.920   6.876 -0.1372  3.0790 -0.1807
  537MOL0     H70835   8.658   2.061   6.852 -0.3016 -2.1890  1.0977
  537MOL0     H70836   8.514   2.143   6.904  1.9041  2.0850 -1.6458
  537MOL0     H70837   8.717   2.119   6.596  0.7892 -0.2962 -0.4945
  537MOL0     H70838   8.545   2.165   6.284  2.7108 -1.6303  0.9198
  537MOL0     H70839   8.690   2.236   6.348  0.3328 -1.6829 -2.4447
  537MOL0     H70840   8.428   2.386   6.302  0.0949  0.0835 -0.2152
  537MOL0     H70841   8.580   2.386   6.212  0.8486 -2.6132  0.8598
  537MOL0     H70842   8.510   2.512   6.480  2.0480 -0.2885  1.3237
  537MOL0     H70843   8.676   2.463   6.448 -0.5378 -1.5952 -1.1757
  537MOL0     H70844   8.640   2.707   6.377  3.3155 -0.4440 -2.3828
  537MOL0     H70845   8.494   2.669   6.290 -0.0003  0.0709 -1.0832
  537MOL0     H70846   8.842   2.724   6.386  2.3718  1.8431 -0.8661
  537MOL0     H70847   9.077   2.682   6.383 -2.1190 -1.7408  2.5136
  537MOL0     H70848   9.516   2.737   6.349  0.2775 -0.6688 -2.0517
  537MOL0     H70849   9.735   2.635   6.424  1.9866 -1.8185 -1.4577
  537MOL0     H70850   9.782   2.188   6.474 -2.7203 -0.5433 -0.1980
  537MOL0     H70851   9.713   2.272   6.608 -1.3257 -0.9134 -0.8781
  537MOL0     H70852   9.919   2.390   6.679 -1.1587 -1.8056  2.3394
  537MOL0     H70853  10.008   2.341   6.532 -2.2857  1.4804 -1.8669
  537MOL0     H70854   9.985   2.090   6.640 -1.6922 -1.1282  2.1143
  537MOL0     H70855   9.905   2.162   6.772  2.4690  0.1154  2.5631
  537MOL0     H70856  10.147   2.323   6.719 -1.5134 -0.1791 -2.4830
  537MOL0     H70857  10.107   2.222   6.856  0.1454  4.2632  0.2502
  537MOL0     H70858  10.243   2.108   6.625 -1.8986 -0.3188 -0.6827
  537MOL0     H70859  10.189   2.027   6.785 -1.6227  1.5804  1.6440
  537MOL0     H70860  10.325   2.219   6.911  2.1503  0.9493  0.1164
  537MOL0     H70861  10.414   2.248   6.762  0.3490  0.1259  1.4036
  537MOL0     H70862  10.495   2.082   6.958 -1.2853  2.2038  1.9871
  537MOL0     H70863  10.393   1.967   6.868 -2.1843  1.2628 -0.6633
  537MOL0     H70864  10.601   2.160   6.744  1.2293  0.0724 -1.9125
  537MOL0     H70865  10.519   2.036   6.649 -0.5484 -0.0660  0.5184
  537MOL0     H70866   9.545   2.258   6.434 -0.8595 -1.2647 -3.9383
  537MOL0     H70867   9.339   2.349   6.334 -1.3315  0.3580  1.7460
  537MOL0     H70868   9.064   2.494   6.007 -0.9610  1.3155 -0.6262
  537MOL0     H70869   8.813   2.522   6.005 -2.3368  3.7734 -0.3888
  537MOL0     H70870   8.412   1.732   7.775  0.4533 -0.1636  2.1673
  537MOL0     H70871   8.284   1.718   7.973 -0.1773 -3.7122 -1.0748
  537MOL0     H70872   7.791   1.863   8.105  1.4963 -4.5518 -2.6170
  537MOL0     H70873   7.636   1.898   8.258  1.8067  1.0347 -3.9928
  537MOL0     H70874   7.486   1.904   8.445  0.6853  1.9737 -0.8091
  537MOL0     H70875   7.591   2.032   8.471  0.6081 -1.3920 -3.6060
  537MOL0     H70876   7.407   2.072   8.611 -0.1675 -1.6752 -3.1671
  537MOL0     H70877   7.388   1.905   8.660 -0.2271 -0.4712 -0.0590
  537MOL0     H70878   7.601   2.076   8.775  1.2560  0.9421  3.2538
  537MOL0     H70879   7.596   1.901   8.784  0.4853  0.7491 -2.5053
  537MOL0     H70880   7.401   2.115   8.859 -1.7863 -1.3502 -4.6311
  537MOL0     H70881   7.364   1.946   8.888 -0.4508  0.3273 -0.1245
  537MOL0     H70882   7.648   2.003   9.205 -1.7841 -1.8508  1.5121
  537MOL0     H70883   7.877   1.694   8.559 -4.7690 -2.4775 -0.4228
  537MOL0     H70884   8.050   1.677   8.404 -1.2171  0.9571  0.8157
  538MOL0     O70885  10.659   5.219   3.252 -0.6842  0.6445  0.9740
  538MOL0     C70886  10.593   5.273   3.169  0.7289  0.5972  0.7884
  538MOL0     O70887  10.575   5.232   3.037 -0.2164  0.8274 -0.9585
  538MOL0     C70888  10.616   5.112   2.987  0.7068  0.4543 -0.6249
  538MOL0     C70889  10.615   4.987   3.067 -0.3868 -0.4453 -0.2779
  538MOL0     C70890  10.649   4.866   3.010  0.6549 -0.1870 -0.0126
  538MOL0     C70891  10.680   4.854   2.874  0.0291 -0.1769  0.6654
  538MOL0     O70892  10.712   4.737   2.801  0.3470  0.5477 -0.5078
  538MOL0     C70893  10.692   4.611   2.863  0.2953 -0.5924 -0.5256
  538MOL0     C70894  10.712   4.501   2.757  0.1985  0.6673  0.2555
  538MOL0     C70895  10.685   4.363   2.818 -0.1650 -0.7332  0.5973
  538MOL0     C70896  10.756   4.248   2.738 -0.1333 -0.0331 -0.6392
  538MOL0     C70897  10.717   4.236   2.591 -0.3518  0.4141 -0.6533
  538MOL0     C70898  10.568   4.216   2.580 -0.5720  0.4774  0.1851
  538MOL0     C70899  10.516   4.222   2.433 -0.2623  0.0422 -0.7263
  538MOL0     C70900  10.365   4.250   2.403  0.7027  0.5933  0.0585
  538MOL0     N70901  10.266   4.150   2.448 -0.2413  0.0118  0.2134
  538MOL0     C70902  10.236   4.024   2.410  0.4865 -0.8275 -0.0028
  538MOL0     C70903  10.142   3.980   2.496  0.9802 -0.7359  0.8421
  538MOL0     C70904  10.077   3.847   2.482  0.4106  0.3289  0.3667
  538MOL0     C70905  10.011   3.804   2.619 -0.1008 -0.6825 -0.1906
  538MOL0     C70906   9.980   3.657   2.607  0.3997  0.1344 -0.1262
  538MOL0     C70907   9.923   3.593   2.735  0.0109 -0.3996  0.3275
  538MOL0     O70908  10.026   3.525   2.808  0.5554  1.1555 -0.3835
  538MOL0     C70909  10.031   3.387   2.805  1.0510 -0.2591 -0.0994
  538MOL0     C70910   9.914   3.317   2.838 -0.3315 -0.0188 -0.2340
  538MOL0     C70911   9.917   3.175   2.861  0.1740 -0.1947 -0.2609
  538MOL0     C70912  10.038   3.104   2.842 -0.8278 -0.2130 -0.0318
  538MOL0     C70913  10.046   2.962   2.865 -0.2670  0.1357  0.9956
  538MOL0     O70914  10.174   2.919   2.895  0.0766 -0.0062  0.1240
  538MOL0     C70915  10.203   2.786   2.910  0.0049 -0.2051  0.6824
  538MOL0     C70916  10.212   2.693   2.805 -0.2170 -0.5407 -0.7175
  538MOL0     C70917  10.254   2.564   2.837  0.6910 -0.3283 -0.0717
  538MOL0     C70918  10.285   2.526   2.964  0.1722  0.3961 -0.4428
  538MOL0     O70919  10.313   2.399   3.002  1.1507  0.1047 -0.2630
  538MOL0     C70920  10.433   2.346   2.956 -0.5135 -0.0548 -0.2662
  538MOL0     C70921  10.409   2.230   2.876  1.4231 -0.0128  0.3069
  538MOL0     C70922  10.510   2.191   2.771 -0.2369  0.1270  0.5906
  538MOL0     C70923  10.651   2.187   2.841 -0.1039  0.4374 -0.4147
  538MOL0     C70924  10.757   2.114   2.763 -0.4246  0.3967  0.0450
  538MOL0     C70925  10.901   2.168   2.793  0.3015  0.1652  0.2089
  538MOL0     C70926  10.935   2.309   2.729 -0.5288  0.1947 -0.7560
  538MOL0     C70927  11.080   2.346   2.790  0.4524 -0.3413  0.7600
  538MOL0    Cl70928  11.150   2.497   2.700  0.1397 -0.1096 -0.5389
  538MOL0     C70929  10.251   2.606   3.073 -0.6065 -1.0055 -0.3645
  538MOL0     C70930  10.222   2.736   3.036  0.1681 -0.4434 -0.3317
  538MOL0     O70931   9.943   2.891   2.851 -0.5078 -0.0918  0.3548
  538MOL0     C70932  10.146   3.178   2.794  0.3350 -0.5361 -0.2431
  538MOL0     C70933  10.140   3.316   2.780 -0.3971  0.0904  0.3180
  538MOL0     N70934  10.112   4.080   2.584  0.5567  0.0651  0.0254
  538MOL0     N70935  10.188   4.180   2.555 -0.0538 -0.6413  0.6226
  538MOL0     C70936  10.690   4.971   2.808 -0.2843 -0.5797  0.0731
  538MOL0     C70937  10.658   5.099   2.855  0.9440  1.4338 -0.2103
  538MOL0     C70938  10.531   5.396   3.213 -0.8160  1.0759 -0.1703
  538MOL0     C70939  10.464   5.491   3.133  0.3123 -0.2523  0.0699
  538MOL0     C70940  10.405   5.604   3.192 -0.1295  0.2458  0.0181
  538MOL0     C70941  10.413   5.639   3.326  0.4563 -0.5423  0.6672
  538MOL0     O70942  10.339   5.753   3.357  0.0457 -0.3029  0.3009
  538MOL0     C70943  10.329   5.797   3.491  0.5648  0.2463  0.4697
  538MOL0     C70944  10.296   5.941   3.503  0.9570 -0.7528 -0.0713
  538MOL0     C70945  10.283   5.998   3.643  0.0501 -0.0800 -0.2562
  538MOL0     C70946  10.210   5.915   3.739  0.4018  0.1912  0.6630
  538MOL0     C70947  10.063   5.915   3.714  0.2229  0.3586 -0.4095
  538MOL0     C70948   9.941   5.922   3.698  0.4099 -0.3291 -0.0835
  538MOL0     C70949  10.474   5.539   3.410 -0.1737 -0.0359 -0.5256
  538MOL0     C70950  10.527   5.423   3.355  0.0304  0.5558 -0.3980
  538MOL0     H70951  10.599   4.998   3.174  3.7275  0.5054  0.4017
  538MOL0     H70952  10.653   4.774   3.068 -5.5730 -1.2483 -0.6195
  538MOL0     H70953  10.591   4.597   2.902  0.5683 -0.1477  0.3664
  538MOL0     H70954  10.762   4.579   2.941 -1.4130 -3.5005 -0.0377
  538MOL0     H70955  10.819   4.502   2.736  0.2274  2.3746  0.3141
  538MOL0     H70956  10.652   4.524   2.668 -0.8109  2.2836  1.2911
  538MOL0     H70957  10.576   4.356   2.824 -0.3084  0.5651 -0.2476
  538MOL0     H70958  10.726   4.359   2.920  0.3720 -0.7620  0.3838
  538MOL0     H70959  10.866   4.248   2.744 -0.1864 -0.2966  0.6830
  538MOL0     H70960  10.724   4.158   2.790 -1.0176  1.7683  2.1800
  538MOL0     H70961  10.762   4.144   2.552 -1.0635 -0.7048  1.0366
  538MOL0     H70962  10.762   4.324   2.544  2.3342 -1.3344 -1.5956
  538MOL0     H70963  10.517   4.306   2.614 -1.3456  0.3916 -0.7250
  538MOL0     H70964  10.538   4.128   2.637 -0.6394 -0.1039 -0.7429
  538MOL0     H70965  10.579   4.301   2.391  2.6507  0.5860  3.9360
  538MOL0     H70966  10.544   4.125   2.389 -1.5335 -1.5129  1.6520
  538MOL0     H70967  10.344   4.272   2.297 -1.4928 -0.0655  0.3013
  538MOL0     H70968  10.339   4.346   2.449 -2.0973 -0.8083  1.6737
  538MOL0     H70969  10.281   3.959   2.336  0.0167 -1.4648  0.2648
  538MOL0     H70970  10.152   3.778   2.444 -3.0460 -1.1729 -4.6573
  538MOL0     H70971   9.997   3.858   2.409  1.2027  3.3146 -0.1886
  538MOL0     H70972   9.924   3.867   2.639  2.2917  2.3754  1.5004
  538MOL0     H70973  10.076   3.826   2.704 -0.1863  0.1100 -0.3170
  538MOL0     H70974   9.904   3.637   2.531  0.3263 -1.6536  0.3763
  538MOL0     H70975  10.065   3.595   2.578  2.0730  1.3374  1.9115
  538MOL0     H70976   9.841   3.531   2.699  0.8443  1.2024 -5.4329
  538MOL0     H70977   9.876   3.670   2.797  1.1974  2.6549 -2.2367
  538MOL0     H70978   9.829   3.375   2.871 -2.2677 -1.1033 -2.9667
  538MOL0     H70979   9.830   3.128   2.904 -0.7558  1.9812  0.3625
  538MOL0     H70980  10.172   2.721   2.708 -1.1561  3.1945  0.5596
  538MOL0     H70981  10.255   2.497   2.752 -0.4131  1.1024 -1.2768
  538MOL0     H70982  10.507   2.321   3.033  1.6258 -0.6479 -2.3763
  538MOL0     H70983  10.473   2.426   2.893 -4.4596  3.2456  1.0044
  538MOL0     H70984  10.329   2.254   2.806  1.9429  0.0885 -0.2607
  538MOL0     H70985  10.382   2.143   2.938 -2.6088  0.0577 -1.0329
  538MOL0     H70986  10.505   2.262   2.689 -2.2230 -0.0034  0.5607
  538MOL0     H70987  10.500   2.096   2.717  3.8529  0.0842 -0.4502
  538MOL0     H70988  10.672   2.292   2.861  0.4158  0.5553 -1.4782
  538MOL0     H70989  10.637   2.130   2.933  0.3658 -1.1634 -1.2906
  538MOL0     H70990  10.736   2.123   2.656 -1.9937 -0.6273  0.2350
  538MOL0     H70991  10.757   2.006   2.780  0.6166  0.4421  0.3959
  538MOL0     H70992  10.960   2.091   2.742 -1.9928 -0.3760 -1.7590
  538MOL0     H70993  10.925   2.161   2.900  3.1137  0.7813 -0.2907
  538MOL0     H70994  10.938   2.318   2.620  1.8769  2.6172 -0.6021
  538MOL0     H70995  10.871   2.395   2.749  0.6153  0.8236  0.3277
  538MOL0     H70996  11.155   2.273   2.760 -0.2645  0.2127 -2.7740
  538MOL0     H70997  11.091   2.355   2.899  2.2509 -0.4583  0.6086
  538MOL0     H70998  10.246   2.573   3.176 -1.6976 -0.3817 -0.1956
  538MOL0     H70999  10.222   2.814   3.112 -1.9568 -0.5811 -0.1186
  538MOL0     H71000  10.245   3.133   2.792  0.3123 -0.6738  0.8229
  538MOL0     H71001  10.221   3.374   2.737  1.4628 -0.1398  3.2488
  538MOL0     H71002  10.711   4.971   2.702  0.1669  2.7169  0.0464
  538MOL0     H71003  10.641   5.190   2.799 -2.6571  0.7172 -0.5595
  538MOL0     H71004  10.440   5.471   3.029 -3.7967 -1.5718  1.0896
  538MOL0     H71005  10.347   5.671   3.129  3.1493  4.4998  1.0244
  538MOL0     H71006  10.426   5.789   3.539  1.3264  1.3900 -0.8241
  538MOL0     H71007  10.258   5.728   3.539  2.4528 -1.5779  0.7644
  538MOL0     H71008  10.360   5.997   3.436  1.3541 -2.1747 -0.9136
  538MOL0     H71009  10.191   5.944   3.473  0.1107  1.7169  2.6224
  538MOL0     H71010  10.226   6.091   3.651  2.4776  1.4155  1.1343
  538MOL0     H71011  10.383   6.022   3.680 -0.5057  1.6299  0.2403
  538MOL0     H71012  10.251   5.814   3.728 -0.2644 -0.2203  1.8252
  538MOL0     H71013  10.222   5.950   3.842  1.2699  1.1372  0.2459
  538MOL0     H71014   9.836   5.928   3.676  0.4051 -2.6012 -1.0102
  538MOL0     H71015  10.469   5.548   3.518 -1.6591 -5.0363  0.0711
  538MOL0     H71016  10.578   5.353   3.420 -2.4360 -0.1666  0.9097
  539MOL0     O71017   9.203   7.095   1.283 -0.4925 -0.0381  0.7653
  539MOL0     C71018   9.206   7.091   1.159 -0.4599 -0.2578 -0.4937
  539MOL0     O71019   9.097   7.088   1.076  0.2626 -0.1182  0.0279
  539MOL0     C71020   8.971   7.120   1.129  0.2691 -0.7997 -0.0460
  539MOL0     C71021   8.858   7.050   1.081  0.2915  0.4112  0.7762
  539MOL0     C71022   8.734   7.079   1.125 -0.3999  0.4977 -0.2549
  539MOL0     C71023   8.708   7.191   1.195 -0.1830 -0.8464 -0.6737
  539MOL0     O71024   8.588   7.227   1.249  0.0387  0.2754  0.8926
  539MOL0     C71025   8.468   7.147   1.244  0.3551  0.0735  0.2159
  539MOL0     C71026   8.455   7.029   1.349  0.7368  1.0765 -0.4449
  539MOL0     C71027   8.480   7.089   1.486  0.1310  0.8586 -0.4336
  539MOL0     C71028   8.470   6.969   1.588  0.2872 -0.0552 -0.2485
  539MOL0     C71029   8.452   7.025   1.730  0.8234 -0.0251  0.6326
  539MOL0     C71030   8.559   6.981   1.819 -0.2556  0.2827  0.8107
  539MOL0     C71031   8.524   6.976   1.970 -0.0852 -0.4061  0.0821
  539MOL0     C71032   8.604   6.864   2.043  0.0101 -0.8299 -0.7189
  539MOL0     N71033   8.571   6.864   2.179 -0.0095  0.9658 -0.4345
  539MOL0     C71034   8.460   6.792   2.226 -0.2627 -0.2442 -0.6657
  539MOL0     C71035   8.455   6.816   2.360  0.6910  0.3601 -0.1808
  539MOL0     C71036   8.372   6.761   2.472  0.4206 -0.1536 -0.1901
  539MOL0     C71037   8.398   6.796   2.621 -0.1107  0.0963  0.1418
  539MOL0     C71038   8.341   6.944   2.643  0.1899  0.0860 -0.0263
  539MOL0     C71039   8.405   7.019   2.752  0.1532  0.1222  0.8872
  539MOL0     O71040   8.366   6.957   2.869 -0.5805 -0.4218 -0.1836
  539MOL0     C71041   8.406   7.016   2.990  0.8417 -0.0834  0.6048
  539MOL0     C71042   8.419   7.159   3.018  0.3975  0.6206  0.9180
  539MOL0     C71043   8.466   7.199   3.142  0.3095 -0.6414 -0.2331
  539MOL0     C71044   8.495   7.106   3.240  0.2680 -0.2218 -0.0022
  539MOL0     C71045   8.560   7.143   3.363  0.1041  0.0058  0.7885
  539MOL0     O71046   8.594   7.270   3.365 -0.8951 -0.0653  0.2745
  539MOL0     C71047   8.647   7.322   3.482 -0.2030 -0.4723 -0.5050
  539MOL0     C71048   8.569   7.352   3.593  0.5675  0.3720 -0.3339
  539MOL0     C71049   8.622   7.382   3.724  0.3873  0.8559 -0.1729
  539MOL0     C71050   8.756   7.416   3.729 -0.7655  0.1804 -0.4375
  539MOL0     O71051   8.828   7.453   3.840 -0.2546 -0.0509 -0.0820
  539MOL0     C71052   8.814   7.374   3.965  0.1375 -0.5425  0.7447
  539MOL0     C71053   8.932   7.390   4.067 -1.2018  0.2654 -0.6254
  539MOL0     C71054   8.980   7.252   4.110  0.4852  0.0148  0.2144
  539MOL0     C71055   9.119   7.250   4.188 -0.0135 -0.0217 -0.0171
  539MOL0     C71056   9.156   7.106   4.219 -0.4632 -0.2703  0.4235
  539MOL0     C71057   9.197   7.017   4.104  0.7194  0.0388  0.2969
  539MOL0     C71058   9.268   6.898   4.163  0.5733  0.1312 -0.9044
  539MOL0     C71059   9.284   6.792   4.061  0.7168  0.4063  0.1448
  539MOL0    Cl71060   9.427   6.827   3.965 -0.0262  0.0029  0.2225
  539MOL0     C71061   8.834   7.406   3.613  0.2482  0.0228  0.5674
  539MOL0     C71062   8.786   7.348   3.490 -0.2534  0.1376 -0.0522
  539MOL0     O71063   8.595   7.061   3.444  0.3834  0.3672 -0.6129
  539MOL0     C71064   8.475   6.973   3.209  0.1475  0.6368 -0.5938
  539MOL0     C71065   8.427   6.926   3.089 -0.8262 -0.4756 -0.0561
  539MOL0     N71066   8.569   6.886   2.384  0.5196  0.2180  0.3483
  539MOL0     N71067   8.634   6.923   2.279 -0.8782  0.7731  0.0453
  539MOL0     C71068   8.820   7.258   1.253 -0.6317 -0.2666  0.9970
  539MOL0     C71069   8.951   7.229   1.215  0.2482  0.1732  0.3574
  539MOL0     C71070   9.350   7.076   1.112  1.1223 -0.4989  0.4552
  539MOL0     C71071   9.458   7.094   1.199 -0.0245 -0.5809  0.0525
  539MOL0     C71072   9.584   7.092   1.137  0.5208 -0.1523 -0.8478
  539MOL0     C71073   9.604   7.068   1.005 -0.8040 -0.4297  0.2574
  539MOL0     O71074   9.734   7.059   0.968  0.0216  0.1520  0.2657
  539MOL0     C71075   9.793   6.939   1.020 -0.5554  0.7454  1.0808
  539MOL0     C71076   9.893   6.876   0.908 -0.2531  0.8646 -0.0008
  539MOL0     C71077   9.991   6.974   0.826  0.6078  0.3085 -0.8604
  539MOL0     C71078  10.088   6.896   0.742 -1.2009  0.8062  0.4634
  539MOL0     C71079  10.003   6.811   0.652 -0.6374  0.6072 -0.4209
  539MOL0     C71080   9.934   6.750   0.573  0.7550  0.2409 -0.1325
  539MOL0     C71081   9.506   7.041   0.916 -0.0507  0.1605  0.7495
  539MOL0     C71082   9.377   7.044   0.973 -0.4467  0.2075 -0.5043
  539MOL0     H71083   8.879   6.976   1.005  1.6015 -2.1865  3.4843
  539MOL0     H71084   8.652   7.020   1.087 -1.7924  2.9997 -1.4161
  539MOL0     H71085   8.468   7.105   1.143  1.2124  0.5492  0.0103
  539MOL0     H71086   8.376   7.206   1.246 -0.8978 -1.8073  0.5611
  539MOL0     H71087   8.534   6.954   1.334 -2.5036 -3.2279  1.6891
  539MOL0     H71088   8.361   6.975   1.336  1.0784 -0.0907  1.5257
  539MOL0     H71089   8.395   7.149   1.519 -1.8316 -1.4074 -1.1085
  539MOL0     H71090   8.576   7.141   1.492  0.5818  0.0234 -0.1940
  539MOL0     H71091   8.387   6.904   1.559 -0.5601 -0.6291  3.0921
  539MOL0     H71092   8.559   6.905   1.586  1.1655  0.9552  2.3544
  539MOL0     H71093   8.358   6.975   1.756 -0.3599  2.0702  0.5739
  539MOL0     H71094   8.453   7.134   1.740 -2.7004  0.0870  0.8146
  539MOL0     H71095   8.641   7.054   1.822 -1.2243  1.4601 -0.2139
  539MOL0     H71096   8.592   6.883   1.783 -0.1813  0.5316  0.1818
  539MOL0     H71097   8.554   7.076   2.004 -1.8555  0.3792 -0.6013
  539MOL0     H71098   8.418   6.976   1.996  0.2643  2.0865  1.9421
  539MOL0     H71099   8.712   6.874   2.025 -0.3815  4.2860 -1.6292
  539MOL0     H71100   8.582   6.764   2.005  1.7511 -1.5664  0.0750
  539MOL0     H71101   8.386   6.741   2.165  2.2956 -2.8005 -1.9009
  539MOL0     H71102   8.375   6.652   2.476 -0.5861 -0.2162  3.7226
  539MOL0     H71103   8.264   6.773   2.454 -0.5866 -2.8310  2.9996
  539MOL0     H71104   8.506   6.802   2.638  0.0546  2.2785 -1.2143
  539MOL0     H71105   8.343   6.730   2.688 -1.3760  0.6805 -0.2892
  539MOL0     H71106   8.349   6.995   2.547  1.8902  1.5467  0.8439
  539MOL0     H71107   8.237   6.937   2.677  0.1306 -2.9004 -0.4786
  539MOL0     H71108   8.375   7.124   2.742  0.7304  0.1273 -1.5241
  539MOL0     H71109   8.514   7.008   2.744  0.1109  0.2076  0.1000
  539MOL0     H71110   8.398   7.238   2.947 -6.3298 -0.6913  0.7862
  539MOL0     H71111   8.471   7.306   3.159  3.9442 -0.2105 -2.7659
  539MOL0     H71112   8.463   7.330   3.584  0.2501  2.0297 -1.0143
  539MOL0     H71113   8.554   7.363   3.806 -0.6433  0.4075 -1.1057
  539MOL0     H71114   8.815   7.270   3.930  0.5317 -0.9530  1.9252
  539MOL0     H71115   8.720   7.400   4.014  0.5776  2.3747  0.1793
  539MOL0     H71116   8.905   7.441   4.159 -2.1298  1.5629 -1.5794
  539MOL0     H71117   9.005   7.460   4.026  3.3989 -0.3350  5.1538
  539MOL0     H71118   9.004   7.190   4.024  4.4509 -0.6027  1.5150
  539MOL0     H71119   8.905   7.192   4.162 -1.0390  1.4141 -0.2846
  539MOL0     H71120   9.197   7.289   4.122  0.2860  0.7215  0.7572
  539MOL0     H71121   9.121   7.313   4.278  1.4862  2.1650 -1.4887
  539MOL0     H71122   9.068   7.057   4.262 -0.3864 -0.7489  0.0446
  539MOL0     H71123   9.238   7.101   4.291  0.6859  1.4397 -0.7107
  539MOL0     H71124   9.265   7.080   4.046  1.1326 -1.5759 -1.0592
  539MOL0     H71125   9.112   6.984   4.043  0.7884  0.7830 -0.2142
  539MOL0     H71126   9.369   6.935   4.184  0.0658  1.4731 -0.7832
  539MOL0     H71127   9.211   6.856   4.247  1.9983 -1.7673 -0.8227
  539MOL0     H71128   9.192   6.781   4.003  0.0411 -3.5177  1.6320
  539MOL0     H71129   9.301   6.694   4.109 -3.0314 -1.2289 -1.4895
  539MOL0     H71130   8.942   7.421   3.618  0.0734  2.1125 -0.6238
  539MOL0     H71131   8.851   7.332   3.405  0.8568  0.2246  0.7532
  539MOL0     H71132   8.509   6.893   3.274  0.2229 -0.4538 -1.9347
  539MOL0     H71133   8.415   6.819   3.093 -0.4076 -0.6112 -1.7965
  539MOL0     H71134   8.788   7.333   1.325  0.0322 -0.8324  1.9122
  539MOL0     H71135   9.026   7.289   1.266 -0.0225  0.6185  0.2369
  539MOL0     H71136   9.444   7.123   1.302 -3.5124  0.4211 -0.5695
  539MOL0     H71137   9.664   7.114   1.207 -1.0278  1.1932  0.5903
  539MOL0     H71138   9.716   6.865   1.042 -1.2271  0.5974 -1.4973
  539MOL0     H71139   9.844   6.961   1.115  1.2196 -0.3445  0.4462
  539MOL0     H71140   9.958   6.806   0.961 -0.9128  0.1224 -0.1504
  539MOL0     H71141   9.830   6.818   0.840 -1.0678  1.1552  0.4914
  539MOL0     H71142  10.050   7.026   0.902  0.7736  0.2070 -0.9187
  539MOL0     H71143   9.931   7.043   0.766  1.2202 -0.2411 -2.1176
  539MOL0     H71144  10.161   6.963   0.698  0.0459 -1.7914 -1.7035
  539MOL0     H71145  10.157   6.834   0.801 -1.8171 -0.7756 -0.4271
  539MOL0     H71146   9.880   6.683   0.510 -0.4445  0.8174  0.2427
  539MOL0     H71147   9.542   7.029   0.814 -3.2677 -1.0206 -0.3556
  539MOL0     H71148   9.289   7.014   0.916  0.4379 -1.2656 -1.1481
  540MOL0     O71149   9.076   9.408   1.277  0.1866  0.5232 -0.2845
  540MOL0     C71150   9.189   9.390   1.322 -0.5172  0.0075 -0.1728
  540MOL0     O71151   9.247   9.276   1.368 -0.6780  0.0150  0.0321
  540MOL0     C71152   9.166   9.172   1.397  0.8353 -0.3298 -0.0183
  540MOL0     C71153   9.098   9.096   1.298 -0.3355 -0.5890 -0.3340
  540MOL0     C71154   9.023   8.984   1.329  0.1383 -0.1220 -0.3912
  540MOL0     C71155   9.046   8.921   1.448 -0.0359 -0.0939  0.0180
  540MOL0     O71156   8.987   8.802   1.467 -0.4784  1.1325 -0.6140
  540MOL0     C71157   8.975   8.699   1.357 -0.1965 -0.0094 -0.2265
  540MOL0     C71158   8.951   8.564   1.415  0.4901 -0.0956  0.2383
  540MOL0     C71159   8.815   8.559   1.491  0.4308 -0.1656 -0.0599
  540MOL0     C71160   8.776   8.424   1.537  0.0030  0.3908 -0.6040
  540MOL0     C71161   8.872   8.366   1.644  0.1997  0.6608 -0.7829
  540MOL0     C71162   8.826   8.220   1.690 -0.3683 -0.8084  0.0255
  540MOL0     C71163   8.828   8.124   1.573 -0.8582 -0.6804  0.1756
  540MOL0     C71164   8.815   7.979   1.614  0.3623  0.3743 -0.0680
  540MOL0     N71165   8.676   7.953   1.648  0.4731  0.1676  0.6973
  540MOL0     C71166   8.574   7.942   1.555 -0.3660  0.2716  0.3312
  540MOL0     C71167   8.466   7.902   1.632 -0.1898 -0.1331 -0.5030
  540MOL0     C71168   8.312   7.886   1.594 -0.1703  0.0606 -0.2613
  540MOL0     C71169   8.252   7.956   1.465 -0.3855 -0.0684 -0.1152
  540MOL0     C71170   8.252   8.106   1.457 -0.3627 -0.0699 -0.0133
  540MOL0     C71171   8.182   8.156   1.327 -0.4009 -0.2944  0.1532
  540MOL0     O71172   8.197   8.300   1.295  0.1175 -0.6869 -0.9187
  540MOL0     C71173   8.314   8.339   1.232 -0.0609 -0.6395  0.1917
  540MOL0     C71174   8.432   8.365   1.306  0.6645  0.2018  0.4670
  540MOL0     C71175   8.548   8.418   1.243  0.3488  0.5745 -0.6028
  540MOL0     C71176   8.543   8.447   1.103  0.7246  1.2338  0.8427
  540MOL0     C71177   8.658   8.502   1.024  0.2801  0.2251 -0.9781
  540MOL0     O71178   8.643   8.527   0.891  0.1890  0.0116  0.3138
  540MOL0     C71179   8.756   8.580   0.837  0.1242  0.0812  0.1614
  540MOL0     C71180   8.804   8.513   0.722 -0.4133  0.3694  0.8626
  540MOL0     C71181   8.910   8.578   0.652 -0.2504 -0.8470 -0.8366
  540MOL0     C71182   8.976   8.700   0.699  0.5614  0.4020  0.1239
  540MOL0     O71183   9.068   8.765   0.627 -0.3326 -0.0575 -0.2363
  540MOL0     C71184   9.104   8.726   0.494 -0.0292  0.0357 -0.7162
  540MOL0     C71185   8.987   8.748   0.397 -0.1879  0.3313 -0.4890
  540MOL0     C71186   9.045   8.749   0.253 -1.0780  0.6442  0.0573
  540MOL0     C71187   9.092   8.613   0.205 -0.8777 -1.3781  0.1813
  540MOL0     C71188   9.155   8.610   0.057  0.2867  0.8868  0.4716
  540MOL0     C71189   9.300   8.666   0.040 -0.2432 -0.4031  0.5522
  540MOL0     C71190   9.353   8.638  -0.104 -0.3912 -0.2394 -0.1836
  540MOL0     C71191   9.301   8.738  -0.208  0.3384 -0.0015  0.1527
  540MOL0    Cl71192   9.351   8.904  -0.162 -0.1797  0.9079 -0.0902
  540MOL0     C71193   8.920   8.757   0.818 -0.4921  0.1375  0.4194
  540MOL0     C71194   8.816   8.698   0.877  0.8466  0.3720 -0.0798
  540MOL0     O71195   8.765   8.499   1.085 -0.1577  0.5775 -0.3332
  540MOL0     C71196   8.428   8.411   1.032 -0.1164  0.6617 -0.0837
  540MOL0     C71197   8.314   8.364   1.102  0.1720 -0.2723  0.7240
  540MOL0     N71198   8.509   7.881   1.764  0.0050  0.8385 -0.2085
  540MOL0     N71199   8.636   7.910   1.768  0.0848 -0.0456 -0.2160
  540MOL0     C71200   9.106   8.998   1.553 -0.4066  1.5096 -0.0160
  540MOL0     C71201   9.156   9.125   1.527 -0.5562  0.0162 -0.9935
  540MOL0     C71202   9.281   9.502   1.298 -1.2636  0.0832 -0.2323
  540MOL0     C71203   9.235   9.627   1.253 -0.3529  0.1340  1.4090
  540MOL0     C71204   9.327   9.718   1.215 -0.6350 -0.2655 -0.0845
  540MOL0     C71205   9.460   9.708   1.252  0.6759 -0.0883 -0.5367
  540MOL0     O71206   9.532   9.819   1.246  0.4444  0.0582  0.2922
  540MOL0     C71207   9.667   9.814   1.224 -0.1576  0.4312  0.0775
  540MOL0     C71208   9.726   9.804   1.085 -0.4170  0.4818 -0.3911
  540MOL0     C71209   9.771   9.937   1.039  0.3287 -0.9109  0.3345
  540MOL0     C71210   9.651  10.044   1.013 -0.2954 -0.1044 -0.3403
  540MOL0     C71211   9.631  10.155   1.115 -0.6433  0.4516 -0.2821
  540MOL0     C71212   9.640  10.243   1.195 -0.5784  0.1753 -0.9656
  540MOL0     C71213   9.500   9.585   1.319 -0.4248 -0.9202 -1.0319
  540MOL0     C71214   9.406   9.485   1.342  0.2759 -0.7982 -0.1663
  540MOL0     H71215   9.082   9.127   1.195 -3.4970 -1.6727 -0.2836
  540MOL0     H71216   8.962   8.927   1.260  0.8097 -1.2217 -0.0993
  540MOL0     H71217   9.077   8.691   1.318 -0.4516 -1.7122 -0.6350
  540MOL0     H71218   8.904   8.724   1.277 -0.3781  0.5993  0.1202
  540MOL0     H71219   9.035   8.535   1.478  2.1926  0.3208 -1.7254
  540MOL0     H71220   8.937   8.494   1.331 -0.2328  2.1532 -1.6263
  540MOL0     H71221   8.739   8.595   1.421 -0.1117 -0.7383  0.2181
  540MOL0     H71222   8.814   8.638   1.567 -0.0057 -0.9606  0.7870
  540MOL0     H71223   8.672   8.428   1.569 -0.4111 -3.0375 -1.1096
  540MOL0     H71224   8.782   8.362   1.447 -0.5861  1.3152 -1.2886
  540MOL0     H71225   8.891   8.419   1.738  0.0437 -2.3612  1.0816
  540MOL0     H71226   8.974   8.357   1.605  0.5269  1.4752 -0.1521
  540MOL0     H71227   8.730   8.230   1.741  0.5510  4.9467  1.3581
  540MOL0     H71228   8.896   8.185   1.767  1.8173  1.7032 -0.6768
  540MOL0     H71229   8.758   8.157   1.495 -0.2829 -0.0272 -0.0757
  540MOL0     H71230   8.928   8.136   1.529 -1.4448  2.2222 -0.6137
  540MOL0     H71231   8.884   7.955   1.696  1.3254  0.0929 -0.9301
  540MOL0     H71232   8.846   7.918   1.529 -1.4972 -1.5563  0.5608
  540MOL0     H71233   8.565   7.986   1.456 -1.7263  2.0552  1.1638
  540MOL0     H71234   8.249   7.913   1.679 -4.3925 -0.3322 -2.9618
  540MOL0     H71235   8.300   7.777   1.589  0.2667 -0.1159  1.6264
  540MOL0     H71236   8.154   7.915   1.442 -0.4970  1.0864 -1.9189
  540MOL0     H71237   8.323   7.916   1.392  1.4464 -0.9499  2.0370
  540MOL0     H71238   8.208   8.145   1.549 -1.6698 -0.1457 -0.5763
  540MOL0     H71239   8.357   8.136   1.459  0.7197 -3.2887  3.7927
  540MOL0     H71240   8.076   8.130   1.324 -0.5415  0.2739 -0.0261
  540MOL0     H71241   8.216   8.101   1.239  1.9696  1.3560 -0.0483
  540MOL0     H71242   8.435   8.341   1.412 -0.3120  2.8637  1.1879
  540MOL0     H71243   8.645   8.430   1.291  0.5951 -1.3420 -0.5520
  540MOL0     H71244   8.755   8.432   0.669  0.1962  1.0867 -0.8846
  540MOL0     H71245   8.930   8.534   0.554  1.9422 -1.2237 -0.2692
  540MOL0     H71246   9.144   8.625   0.506  0.9482  0.7613  3.9716
  540MOL0     H71247   9.183   8.789   0.451 -2.3643  1.3239 -3.4115
  540MOL0     H71248   8.954   8.850   0.417  3.1822  1.7732 -1.4172
  540MOL0     H71249   8.899   8.684   0.400 -1.5093  2.0503  3.0838
  540MOL0     H71250   9.121   8.825   0.234 -1.4875  0.3738 -3.2506
  540MOL0     H71251   8.956   8.777   0.196 -0.7275 -0.6405 -1.1571
  540MOL0     H71252   9.165   8.580   0.280  0.1772  0.9993  0.2892
  540MOL0     H71253   9.004   8.549   0.192 -0.9388 -1.0257 -1.2781
  540MOL0     H71254   9.080   8.662  -0.002 -1.7124 -2.8909 -0.6863
  540MOL0     H71255   9.153   8.502   0.035 -1.5210  0.7028  1.4178
  540MOL0     H71256   9.350   8.606   0.116 -2.8766 -2.5774  0.7675
  540MOL0     H71257   9.320   8.764   0.082  1.3088 -0.6694  0.4869
  540MOL0     H71258   9.462   8.649  -0.108 -0.3219 -0.9842 -0.8260
  540MOL0     H71259   9.334   8.538  -0.146 -0.8347  0.9771 -3.1677
  540MOL0     H71260   9.193   8.744  -0.217  0.6307  2.1062 -4.3227
  540MOL0     H71261   9.339   8.712  -0.307  4.6274 -0.5398  1.6845
  540MOL0     H71262   8.951   8.847   0.869  1.7163  1.0583 -2.2328
  540MOL0     H71263   8.785   8.741   0.971  2.7358 -1.8311  1.6982
  540MOL0     H71264   8.421   8.431   0.926  2.2863  0.7406 -0.3012
  540MOL0     H71265   8.219   8.353   1.051  0.6203 -2.4217  0.2505
  540MOL0     H71266   9.113   8.958   1.654 -2.9425  1.5899  0.2552
  540MOL0     H71267   9.205   9.170   1.613 -0.9617  1.6368 -1.5599
  540MOL0     H71268   9.128   9.645   1.246 -0.3559 -0.3542 -0.0828
  540MOL0     H71269   9.303   9.813   1.167 -1.3583  0.2333  1.2203
  540MOL0     H71270   9.712   9.732   1.281 -3.9243 -0.6820  1.7113
  540MOL0     H71271   9.709   9.899   1.278 -1.8004  1.7407 -0.6070
  540MOL0     H71272   9.818   9.745   1.099 -1.6199 -1.9628 -2.0521
  540MOL0     H71273   9.663   9.742   1.020  0.4272 -1.9263  0.9593
  540MOL0     H71274   9.817   9.923   0.941 -1.9917 -2.2705 -0.6383
  540MOL0     H71275   9.838   9.983   1.111 -1.5038  4.3873 -0.9221
  540MOL0     H71276   9.669  10.077   0.910  0.0582 -0.5083 -0.4094
  540MOL0     H71277   9.557   9.987   1.011  0.3846 -1.2617 -2.0050
  540MOL0     H71278   9.656  10.324   1.262 -1.1807 -0.9805  0.6445
  540MOL0     H71279   9.600   9.576   1.361 -0.2439 -0.8216 -1.4356
  540MOL0     H71280   9.454   9.398   1.385  2.0342 -0.4362 -1.2655
  541MOL0     O71281  11.043   5.418  10.212  0.6534  0.0732  0.1134
  541MOL0     C71282  10.938   5.472  10.246  0.8786 -0.4098 -0.2304
  541MOL0     O71283  10.816   5.442  10.188 -0.0593 -0.6955 -0.4759
  541MOL0     C71284  10.782   5.327  10.121 -0.9540  0.6578 -1.1356
  541MOL0     C71285  10.865   5.208  10.098 -0.8869 -0.7864  0.5933
  541MOL0     C71286  10.805   5.108  10.035 -0.2342  0.0899 -0.6230
  541MOL0     C71287  10.672   5.098   9.992  0.0190 -0.5488 -1.4549
  541MOL0     O71288  10.603   4.989   9.945 -0.3980  0.2680  0.3383
  541MOL0     C71289  10.493   4.931  10.015  0.0566 -0.6758  0.2926
  541MOL0     C71290  10.509   4.789  10.047 -0.2635  0.0242 -0.7328
  541MOL0     C71291  10.553   4.705   9.920 -0.2602 -0.3181 -0.0286
  541MOL0     C71292  10.443   4.694   9.813 -0.6011  1.5567 -0.9535
  541MOL0     C71293  10.333   4.595   9.859 -0.2200  0.4290  0.3726
  541MOL0     C71294  10.229   4.582   9.753  0.1056  0.5344  0.2397
  541MOL0     C71295  10.274   4.520   9.617 -0.1002  0.2538 -0.4156
  541MOL0     C71296  10.355   4.390   9.623 -0.1531  0.3823 -0.0527
  541MOL0     N71297  10.280   4.290   9.700 -0.3572 -0.3772 -0.0732
  541MOL0     C71298  10.139   4.261   9.691 -1.2621 -1.1089 -1.0362
  541MOL0     C71299  10.115   4.162   9.780  0.7822 -0.5172 -0.1889
  541MOL0     C71300   9.983   4.086   9.802  1.2395  0.2976 -0.4001
  541MOL0     C71301   9.892   4.156   9.909  0.1925 -0.8747 -0.1163
  541MOL0     C71302   9.752   4.082   9.927  0.1063  0.0186 -1.1156
  541MOL0     C71303   9.742   3.941   9.974  0.4779  0.8799  0.2943
  541MOL0     O71304   9.820   3.928  10.097  0.2144 -0.3385 -0.5102
  541MOL0     C71305   9.767   3.851  10.190 -0.7623  0.6517  0.3208
  541MOL0     C71306   9.810   3.871  10.325 -0.8420  0.7124  0.2108
  541MOL0     C71307   9.761   3.790  10.435 -1.1421 -0.1439  0.2634
  541MOL0     C71308   9.664   3.687  10.412 -1.0523  0.2970  0.6691
  541MOL0     C71309   9.607   3.609  10.521  0.8737  0.0228 -0.1725
  541MOL0     O71310   9.667   3.633  10.641  0.3064 -0.4226 -0.0307
  541MOL0     C71311   9.662   3.532  10.735 -0.3619 -0.2138  0.3491
  541MOL0     C71312   9.622   3.541  10.872 -0.5285  0.1496 -0.0640
  541MOL0     C71313   9.612   3.435  10.952  0.2247  0.3223  0.5455
  541MOL0     C71314   9.652   3.306  10.916  0.9366 -1.0603 -0.7597
  541MOL0     O71315   9.679   3.208  11.009 -0.0904 -0.3414  0.8940
  541MOL0     C71316   9.576   3.183  11.112 -1.4083 -0.3367  0.0626
  541MOL0     C71317   9.613   3.055  11.182  0.5521  0.2196  0.4712
  541MOL0     C71318   9.535   3.037  11.307 -0.9129  0.6373 -0.2219
  541MOL0     C71319   9.563   2.899  11.366 -0.3918 -0.3688 -0.3847
  541MOL0     C71320   9.510   2.889  11.507  0.3945 -0.5900 -0.3796
  541MOL0     C71321   9.359   2.925  11.530  0.6298  0.2410  0.5740
  541MOL0     C71322   9.303   2.877  11.661 -0.1184  0.8882 -0.2689
  541MOL0     C71323   9.398   2.873  11.779  0.3353  0.0467  0.6188
  541MOL0    Cl71324   9.448   3.042  11.804 -0.1377  0.4054 -0.4449
  541MOL0     C71325   9.687   3.296  10.777 -0.0862  0.9582  0.1333
  541MOL0     C71326   9.696   3.404  10.691  0.0177  0.4030 -0.0576
  541MOL0     O71327   9.528   3.519  10.490 -0.6082  0.1848  0.3837
  541MOL0     C71328   9.623   3.679  10.279  0.1434  0.2413  0.5306
  541MOL0     C71329   9.678   3.742  10.170 -1.0220 -0.6353  0.4262
  541MOL0     N71330  10.230   4.133   9.850  0.0050  0.3972  1.0365
  541MOL0     N71331  10.325   4.209   9.802  0.2949 -0.1723  0.0770
  541MOL0     C71332  10.588   5.205  10.039 -0.0945 -0.0486 -0.6233
  541MOL0     C71333  10.643   5.317  10.103  0.8268  0.6170  0.1467
  541MOL0     C71334  10.943   5.562  10.363  0.8745 -0.1406  0.1022
  541MOL0     C71335  11.067   5.604  10.420 -0.1752  0.4816  0.3411
  541MOL0     C71336  11.067   5.687  10.535 -0.0408  0.5529 -0.4443
  541MOL0     C71337  10.949   5.750  10.583  0.3252 -0.1136  0.0858
  541MOL0     O71338  10.966   5.834  10.685 -0.1967 -0.1366  0.6882
  541MOL0     C71339  11.028   5.961  10.669 -0.4219 -0.3139 -0.2599
  541MOL0     C71340  10.923   6.074  10.691 -0.3692  0.1872 -0.4139
  541MOL0     C71341  10.994   6.201  10.733  0.5188 -0.0197 -0.2381
  541MOL0     C71342  10.903   6.315  10.689 -0.5204  0.1674 -0.1535
  541MOL0     C71343  10.785   6.319  10.778 -0.5266  0.7885  0.0731
  541MOL0     C71344  10.716   6.336  10.873  0.1342 -0.2866  0.1795
  541MOL0     C71345  10.822   5.715  10.531  0.3724  0.3335  1.0611
  541MOL0     C71346  10.826   5.615  10.425 -0.1458  0.0740  0.0804
  541MOL0     H71347  10.971   5.212  10.121  0.1965  1.6387 -3.7680
  541MOL0     H71348  10.871   5.021  10.028  0.2607  0.1552  1.9910
  541MOL0     H71349  10.404   4.943   9.952 -1.7909 -0.7789  2.7212
  541MOL0     H71350  10.467   4.977  10.111 -1.3429 -1.7029  0.4349
  541MOL0     H71351  10.420   4.748  10.095 -0.2295  2.2242  1.3907
  541MOL0     H71352  10.590   4.781  10.120 -0.0102  0.6205 -0.9380
  541MOL0     H71353  10.587   4.604   9.942 -3.6982 -1.7677 -0.8240
  541MOL0     H71354  10.625   4.756   9.855 -1.9006  1.7430 -0.3555
  541MOL0     H71355  10.391   4.784   9.780 -2.1964  1.1259  0.2526
  541MOL0     H71356  10.493   4.647   9.727  0.1239  1.7476 -0.6422
  541MOL0     H71357  10.282   4.627   9.950 -0.9308 -1.1339  0.5536
  541MOL0     H71358  10.379   4.499   9.883  1.4788  0.7585 -1.2277
  541MOL0     H71359  10.194   4.685   9.741  0.3458  0.5644 -0.1997
  541MOL0     H71360  10.140   4.527   9.785 -1.5660  1.9390 -1.7656
  541MOL0     H71361  10.184   4.512   9.555 -0.9929  3.3280  0.3220
  541MOL0     H71362  10.332   4.596   9.564  0.8847  1.1018  1.7928
  541MOL0     H71363  10.456   4.398   9.663  0.3970  1.2185 -1.5261
  541MOL0     H71364  10.356   4.347   9.522  2.6578  1.1581 -0.4345
  541MOL0     H71365  10.071   4.319   9.629 -0.9198 -1.9395 -2.2149
  541MOL0     H71366  10.004   3.984   9.837  1.6274  0.1953 -0.9228
  541MOL0     H71367   9.918   4.091   9.714  0.0063  0.2541  0.4801
  541MOL0     H71368   9.861   4.257   9.879  2.2813 -0.1666 -0.0529
  541MOL0     H71369   9.938   4.167  10.007 -0.8339  1.0948  0.1922
  541MOL0     H71370   9.692   4.139   9.998 -1.8995 -0.9410 -1.9674
  541MOL0     H71371   9.692   4.087   9.835 -1.9887  0.9954  0.2345
  541MOL0     H71372   9.769   3.860   9.906  0.5367 -0.6515  2.0660
  541MOL0     H71373   9.636   3.927   9.995  1.2110 -5.4605  1.5812
  541MOL0     H71374   9.893   3.941  10.339 -2.0196  1.9933  1.1120
  541MOL0     H71375   9.819   3.813  10.524 -0.1486  1.1720 -0.6818
  541MOL0     H71376   9.583   3.637  10.903  1.0886 -0.0979  3.1555
  541MOL0     H71377   9.569   3.441  11.051 -0.3021 -1.2221  0.4480
  541MOL0     H71378   9.480   3.176  11.060 -2.1065 -2.2694  1.4932
  541MOL0     H71379   9.571   3.273  11.175  0.0756 -2.0019  2.7634
  541MOL0     H71380   9.719   3.038  11.200  0.4779  0.8095  1.5666
  541MOL0     H71381   9.587   2.982  11.105  1.4441 -0.1796  0.5421
  541MOL0     H71382   9.431   3.057  11.280 -1.2779  0.4946  1.0160
  541MOL0     H71383   9.553   3.104  11.392  1.4930 -0.8763  0.5661
  541MOL0     H71384   9.513   2.825  11.304 -1.6103 -0.1604  0.3035
  541MOL0     H71385   9.671   2.885  11.364 -0.2842  0.3737 -0.2026
  541MOL0     H71386   9.566   2.950  11.578  0.6477 -2.0430  0.7004
  541MOL0     H71387   9.523   2.785  11.537  0.8133 -1.7340 -3.9620
  541MOL0     H71388   9.307   2.895  11.438 -4.5768  1.8183  2.6164
  541MOL0     H71389   9.348   3.034  11.536  0.2377  0.2564 -0.2720
  541MOL0     H71390   9.221   2.944  11.689 -1.1290  0.9569 -3.0881
  541MOL0     H71391   9.258   2.779  11.642  2.1236 -0.3323  0.4219
  541MOL0     H71392   9.488   2.823  11.743  0.8215  1.4833 -0.2815
  541MOL0     H71393   9.354   2.828  11.868 -1.5528 -0.5063 -0.5365
  541MOL0     H71394   9.718   3.204  10.728  2.2744  0.2592  2.6704
  541MOL0     H71395   9.733   3.367  10.596 -0.7352 -3.8603  1.0982
  541MOL0     H71396   9.551   3.605  10.244  0.9069  0.3709 -1.4169
  541MOL0     H71397   9.643   3.720  10.069  3.2139  1.5111 -1.7773
  541MOL0     H71398  10.481   5.195  10.029 -0.0650 -2.2257  0.6654
  541MOL0     H71399  10.564   5.388  10.126  1.9321  1.8548  0.2266
  541MOL0     H71400  11.161   5.561  10.387 -1.4843 -2.7761  0.4665
  541MOL0     H71401  11.160   5.729  10.571  0.0682  0.0962 -0.1877
  541MOL0     H71402  11.093   5.987  10.585  1.9775  2.1900  2.1640
  541MOL0     H71403  11.094   5.971  10.756 -0.8120  0.9100 -0.0910
  541MOL0     H71404  10.882   6.095  10.592  1.6359  1.8114 -0.9735
  541MOL0     H71405  10.841   6.053  10.761 -0.9518 -5.4789 -2.3037
  541MOL0     H71406  11.095   6.210  10.693  0.7146 -0.7627  0.0695
  541MOL0     H71407  11.004   6.201  10.842  3.2465  1.7420 -0.3999
  541MOL0     H71408  10.957   6.410  10.691  0.3316 -0.3109 -0.0484
  541MOL0     H71409  10.878   6.302  10.583  2.2251 -2.3335 -0.6397
  541MOL0     H71410  10.655   6.370  10.953  2.6108  1.5272  1.4487
  541MOL0     H71411  10.733   5.758  10.575 -3.3024 -2.5274 -2.7451
  541MOL0     H71412  10.734   5.583  10.379  0.5841 -3.3239  0.7006
  542MOL0     O71413  11.294   4.304   4.639 -0.2089  0.4358  0.4169
  542MOL0     C71414  11.319   4.189   4.595  0.3353 -0.0485 -0.5859
  542MOL0     O71415  11.241   4.127   4.507  0.5347  0.2901 -0.6418
  542MOL0     C71416  11.138   4.194   4.446  0.1380 -0.7666  0.7853
  542MOL0     C71417  11.164   4.292   4.345 -0.1891 -0.0334  0.1124
  542MOL0     C71418  11.061   4.362   4.282  0.4663 -0.1349  0.5381
  542MOL0     C71419  10.929   4.350   4.333  0.3613  0.2388 -0.0192
  542MOL0     O71420  10.825   4.428   4.289  0.0672 -0.5055 -0.0028
  542MOL0     C71421  10.845   4.564   4.266 -0.9638 -0.3912  0.1679
  542MOL0     C71422  10.723   4.633   4.220 -0.9664  0.0025  0.4302
  542MOL0     C71423  10.599   4.629   4.317  0.2651 -0.2434  0.2971
  542MOL0     C71424  10.575   4.500   4.373 -0.5324  1.2167 -0.6455
  542MOL0     C71425  10.435   4.497   4.438  0.1112 -0.2185  0.3843
  542MOL0     C71426  10.406   4.363   4.499  0.6507  0.3531  0.9033
  542MOL0     C71427  10.257   4.330   4.500 -0.6063 -1.1093  0.6005
  542MOL0     C71428  10.173   4.388   4.617 -0.4174 -0.4931 -0.2409
  542MOL0     N71429  10.049   4.448   4.572  1.1383 -1.3197 -1.1907
  542MOL0     C71430  10.012   4.581   4.592 -0.2869 -0.6045  0.5764
  542MOL0     C71431   9.884   4.591   4.538 -0.1125  0.3468 -0.3354
  542MOL0     C71432   9.786   4.699   4.542 -0.5402 -0.3490 -0.3539
  542MOL0     C71433   9.804   4.791   4.420 -0.0569 -0.3495  0.3896
  542MOL0     C71434   9.733   4.925   4.422 -0.3368  0.3564  0.2812
  542MOL0     C71435   9.794   5.031   4.517 -0.7296  0.7758 -0.0280
  542MOL0     O71436   9.881   5.117   4.440 -0.0903  0.6755 -0.5257
  542MOL0     C71437   9.897   5.248   4.483  0.5780  0.0620 -0.5721
  542MOL0     C71438   9.922   5.267   4.618 -0.4565 -1.1644 -0.0584
  542MOL0     C71439   9.943   5.400   4.658  0.0818 -1.0628  0.0764
  542MOL0     C71440   9.927   5.515   4.581 -0.5640  0.1368  0.9497
  542MOL0     C71441   9.928   5.643   4.650 -0.6822  0.1529 -0.6390
  542MOL0     O71442   9.931   5.756   4.568 -0.3112  0.1726  0.4787
  542MOL0     C71443   9.940   5.880   4.620 -0.0258  0.7317  0.0363
  542MOL0     C71444   9.837   5.971   4.585 -0.3137  0.0444 -0.5904
  542MOL0     C71445   9.827   6.094   4.647 -0.6914  0.4229 -0.5609
  542MOL0     C71446   9.934   6.129   4.728 -0.1317 -0.6080 -0.8179
  542MOL0     O71447   9.911   6.250   4.790  1.2265 -0.0111  0.5984
  542MOL0     C71448  10.022   6.312   4.846 -0.1843  0.1115  0.4269
  542MOL0     C71449   9.999   6.462   4.871  0.2202  0.7891 -1.0750
  542MOL0     C71450   9.942   6.483   5.018 -0.2374  0.6618  0.3562
  542MOL0     C71451   9.899   6.637   5.051  0.1894  0.8309  0.5267
  542MOL0     C71452  10.016   6.727   5.045 -0.7994 -0.7847  0.1625
  542MOL0     C71453   9.957   6.867   5.065 -0.3368  0.0709 -0.6609
  542MOL0     C71454  10.057   6.967   5.026  0.0084 -0.0016 -0.7455
  542MOL0     C71455  10.016   7.103   5.056 -0.7029 -0.4116 -0.0017
  542MOL0    Cl71456   9.941   7.130   5.218 -0.2590  0.1045 -0.0640
  542MOL0     C71457  10.039   6.042   4.764 -0.3106 -0.3345  0.4006
  542MOL0     C71458  10.039   5.913   4.709  1.2504  0.2661  0.0497
  542MOL0     O71459   9.946   5.648   4.773 -0.2483  0.9028 -0.3672
  542MOL0     C71460   9.904   5.491   4.442 -0.5238  0.6208  0.1032
  542MOL0     C71461   9.910   5.356   4.400  0.6229 -0.2686  0.2256
  542MOL0     N71462   9.842   4.461   4.506 -0.1498 -0.4194 -0.4411
  542MOL0     N71463   9.943   4.380   4.529  0.3942 -0.4646  0.2420
  542MOL0     C71464  10.898   4.261   4.441 -0.7261  0.5275  1.0442
  542MOL0     C71465  11.005   4.183   4.488 -0.1971  0.1620  0.1461
  542MOL0     C71466  11.447   4.127   4.635 -0.6009 -0.3012  0.3281
  542MOL0     C71467  11.540   4.204   4.712 -0.7039  0.7888  0.1461
  542MOL0     C71468  11.659   4.142   4.754  0.3048 -0.5256  0.2416
  542MOL0     C71469  11.696   4.016   4.710  0.3126 -0.1852 -0.0756
  542MOL0     O71470  11.828   3.984   4.742 -0.8705  0.1084  0.2470
  542MOL0     C71471  11.901   3.898   4.643 -0.1942 -0.6740  0.1909
  542MOL0     C71472  12.048   3.892   4.682  0.4935  0.1878 -0.9724
  542MOL0     C71473  12.079   3.885   4.831 -0.4502 -1.0546  0.0113
  542MOL0     C71474  11.993   3.783   4.909  1.1836 -0.2353 -0.1393
  542MOL0     C71475  12.062   3.749   5.023  0.0759  0.0257  0.4088
  542MOL0     C71476  12.135   3.744   5.122 -0.0469 -0.7574  0.2781
  542MOL0     C71477  11.607   3.941   4.630 -0.2308 -1.2490 -0.5696
  542MOL0     C71478  11.481   3.995   4.589  0.8104 -0.6368  0.1981
  542MOL0     H71479  11.262   4.313   4.302 -0.4649 -1.1772 -1.1246
  542MOL0     H71480  11.076   4.440   4.208 -0.0565  0.5105  1.1001
  542MOL0     H71481  10.918   4.571   4.186  0.3280  1.9056  1.4369
  542MOL0     H71482  10.881   4.613   4.358 -0.1167  0.1221 -0.4177
  542MOL0     H71483  10.690   4.607   4.119  0.9564  2.5002 -0.9624
  542MOL0     H71484  10.743   4.740   4.218  1.1027 -0.2998  1.5799
  542MOL0     H71485  10.514   4.658   4.255  1.1447 -1.8402 -1.7932
  542MOL0     H71486  10.600   4.708   4.393 -1.4696  0.9636 -0.8603
  542MOL0     H71487  10.585   4.424   4.295  1.9699  1.8130 -0.9946
  542MOL0     H71488  10.651   4.472   4.447 -3.3361 -4.6157  0.5871
  542MOL0     H71489  10.367   4.515   4.354  0.4203 -2.1006 -0.3379
  542MOL0     H71490  10.427   4.570   4.518 -1.9137  0.0356  0.0063
  542MOL0     H71491  10.427   4.355   4.606  0.7772  1.4114  0.9614
  542MOL0     H71492  10.454   4.277   4.451 -2.4573 -1.1439  0.1802
  542MOL0     H71493  10.200   4.349   4.408 -5.0624  4.6791  3.8847
  542MOL0     H71494  10.246   4.221   4.502  1.4229 -1.3426  3.3193
  542MOL0     H71495  10.231   4.459   4.678 -0.0514  0.1032 -1.2666
  542MOL0     H71496  10.144   4.311   4.689  2.9973 -1.3240  0.4210
  542MOL0     H71497  10.069   4.666   4.627 -0.6185  0.2060 -0.7969
  542MOL0     H71498   9.795   4.763   4.630 -0.2777 -0.8991  0.0228
  542MOL0     H71499   9.682   4.664   4.547 -0.9600  0.9783  1.4071
  542MOL0     H71500   9.768   4.743   4.328 -0.7081  0.7709  0.0410
  542MOL0     H71501   9.909   4.818   4.404 -0.3751  0.7243  0.0073
  542MOL0     H71502   9.734   4.964   4.320  1.0898  4.4158  1.6826
  542MOL0     H71503   9.627   4.913   4.446 -0.0076  1.0951  2.2640
  542MOL0     H71504   9.855   4.977   4.589 -0.3305  1.1018 -0.1191
  542MOL0     H71505   9.709   5.087   4.557 -0.1818  3.3051 -2.0904
  542MOL0     H71506   9.941   5.193   4.695 -1.3128  1.4394  2.8905
  542MOL0     H71507   9.952   5.410   4.765 -2.6479 -0.6132  0.3438
  542MOL0     H71508   9.770   5.951   4.502  0.7886  2.9862 -2.3432
  542MOL0     H71509   9.737   6.153   4.634 -0.6084  0.6830  0.0309
  542MOL0     H71510  10.107   6.315   4.777 -0.1639  3.5986  0.4675
  542MOL0     H71511  10.053   6.265   4.940  0.8564  3.5884  1.9591
  542MOL0     H71512   9.927   6.509   4.804 -4.1738 -0.6128  2.2529
  542MOL0     H71513  10.096   6.513   4.862  1.3025 -0.1656  2.9854
  542MOL0     H71514  10.007   6.445   5.098 -1.5610 -2.3096  0.1775
  542MOL0     H71515   9.852   6.420   5.022 -0.3356  0.6554 -1.3845
  542MOL0     H71516   9.822   6.664   4.978 -0.5372 -0.7858  0.6452
  542MOL0     H71517   9.861   6.631   5.153  3.6206  0.6463  1.9346
  542MOL0     H71518  10.077   6.716   4.954 -0.3309  1.4403  0.1391
  542MOL0     H71519  10.085   6.713   5.128 -0.4071  0.3366  0.0410
  542MOL0     H71520   9.929   6.874   5.171 -1.8968  0.2473 -1.0703
  542MOL0     H71521   9.870   6.880   5.000 -0.5036  0.2354 -0.4090
  542MOL0     H71522  10.138   6.941   5.094 -0.0576 -2.1615 -1.4082
  542MOL0     H71523  10.088   6.957   4.921 -0.3679  2.4299 -1.1528
  542MOL0     H71524   9.946   7.141   4.981 -1.5156  2.5599  2.0876
  542MOL0     H71525  10.109   7.161   5.058 -0.3273 -1.0087  0.2926
  542MOL0     H71526  10.120   6.074   4.828  1.4195  1.3232 -2.4071
  542MOL0     H71527  10.120   5.848   4.742  1.6827  0.7458 -0.0564
  542MOL0     H71528   9.914   5.559   4.359  3.6142 -1.7877 -1.6552
  542MOL0     H71529   9.902   5.332   4.294 -0.3255  1.8084 -0.2166
  542MOL0     H71530  10.797   4.259   4.481 -0.3856  1.3721  2.0191
  542MOL0     H71531  10.995   4.109   4.567  0.5563  1.3619  1.4171
  542MOL0     H71532  11.529   4.306   4.747  0.0201  0.5779  1.0074
  542MOL0     H71533  11.723   4.209   4.811 -1.2439  1.0883  0.1805
  542MOL0     H71534  11.890   3.946   4.545  2.1912  0.9074  0.6030
  542MOL0     H71535  11.878   3.792   4.638  1.8126 -1.1161 -0.9436
  542MOL0     H71536  12.095   3.810   4.627  0.6458  0.0511 -0.6433
  542MOL0     H71537  12.091   3.985   4.645  0.1737 -0.4904 -3.1769
  542MOL0     H71538  12.078   3.988   4.868 -1.1847 -0.5246 -1.4173
  542MOL0     H71539  12.182   3.848   4.826 -0.1910 -0.2417 -3.6034
  542MOL0     H71540  11.895   3.818   4.943  1.5130 -2.3517  3.6256
  542MOL0     H71541  11.972   3.692   4.853 -0.8407 -0.5903  1.0642
  542MOL0     H71542  12.198   3.738   5.208 -1.8078 -1.1641  1.6185
  542MOL0     H71543  11.624   3.840   4.594 -2.6519 -2.3289  1.0474
  542MOL0     H71544  11.410   3.940   4.529  0.7571 -0.1830 -0.1587
  543MOL0     O71545   9.159   3.170   1.402  1.1946  0.2363  0.5575
  543MOL0     C71546   9.171   3.151   1.523 -0.3112  0.5552 -0.2406
  543MOL0     O71547   9.253   3.214   1.605 -0.3918 -0.2860 -0.0247
  543MOL0     C71548   9.337   3.313   1.569 -0.9959 -0.5158  0.1918
  543MOL0     C71549   9.458   3.319   1.643 -0.3249 -0.1627 -0.4028
  543MOL0     C71550   9.549   3.419   1.639 -0.9786 -0.1951  0.3220
  543MOL0     C71551   9.531   3.521   1.552 -1.0279 -1.0361 -0.2645
  543MOL0     O71552   9.637   3.616   1.549 -0.2064  0.4003 -0.0006
  543MOL0     C71553   9.669   3.655   1.415  0.4844  0.1725  0.5998
  543MOL0     C71554   9.698   3.807   1.425 -0.5011 -0.5705 -0.0401
  543MOL0     C71555   9.722   3.875   1.288  0.3609 -0.0831  0.7975
  543MOL0     C71556   9.711   4.028   1.297  0.2235 -0.7443 -0.3461
  543MOL0     C71557   9.703   4.090   1.158 -0.1356  0.0413  0.8440
  543MOL0     C71558   9.569   4.076   1.084 -0.5666  0.4429 -0.4562
  543MOL0     C71559   9.581   4.144   0.948  0.1354  0.8829  0.0946
  543MOL0     C71560   9.469   4.121   0.853  1.0141 -0.0480 -0.6980
  543MOL0     N71561   9.358   4.202   0.902 -1.0303  0.2233  0.9647
  543MOL0     C71562   9.231   4.187   0.852 -0.0274 -0.1406 -0.0802
  543MOL0     C71563   9.160   4.295   0.911  0.0801 -0.4705  0.0313
  543MOL0     C71564   9.016   4.331   0.902 -0.2433 -0.8924  0.2685
  543MOL0     C71565   8.950   4.316   1.039  0.2775 -0.2706  0.4765
  543MOL0     C71566   8.808   4.364   1.021  0.2603  0.5666  0.2338
  543MOL0     C71567   8.724   4.341   1.139 -0.0202  0.6815 -0.3361
  543MOL0     O71568   8.785   4.406   1.248  0.9398 -0.8441 -0.3326
  543MOL0     C71569   8.756   4.333   1.359 -0.6779  0.2071 -0.0496
  543MOL0     C71570   8.817   4.213   1.397 -0.1775 -0.7024 -0.6748
  543MOL0     C71571   8.779   4.145   1.520 -0.5631  0.8149 -0.9362
  543MOL0     C71572   8.690   4.203   1.614  0.7933 -1.0790  0.6785
  543MOL0     C71573   8.654   4.147   1.739 -0.4157 -1.2592 -0.7386
  543MOL0     O71574   8.739   4.050   1.797 -0.4529  0.1479  0.0235
  543MOL0     C71575   8.724   3.998   1.918  0.2778  1.1118 -0.3648
  543MOL0     C71576   8.772   3.866   1.940  0.4372  0.5335 -0.3622
  543MOL0     C71577   8.785   3.802   2.066 -0.2941  0.2028 -0.7357
  543MOL0     C71578   8.745   3.879   2.183 -0.8597  0.3643 -0.4471
  543MOL0     O71579   8.764   3.821   2.309 -0.2056  0.7382 -0.1556
  543MOL0     C71580   8.704   3.872   2.430 -0.5453 -0.9380  0.0630
  543MOL0     C71581   8.760   3.799   2.563 -0.7058  0.1705 -0.6080
  543MOL0     C71582   8.673   3.690   2.618 -0.2469  0.3398  0.1300
  543MOL0     C71583   8.744   3.607   2.729 -0.2620 -0.9368  0.6184
  543MOL0     C71584   8.653   3.532   2.831  0.5128 -0.4996 -0.3997
  543MOL0     C71585   8.529   3.444   2.776  0.0453 -0.6417 -0.0411
  543MOL0     C71586   8.603   3.325   2.705 -1.5397 -0.1936 -0.6449
  543MOL0     C71587   8.514   3.205   2.673 -0.8439  0.6372  0.3344
  543MOL0    Cl71588   8.378   3.245   2.573 -0.4545  0.1347 -0.6818
  543MOL0     C71589   8.682   4.004   2.161  0.6003  0.1846  0.1143
  543MOL0     C71590   8.678   4.063   2.032  0.3973 -0.3209  0.9653
  543MOL0     O71591   8.546   4.173   1.782  0.3960  0.3783 -0.1512
  543MOL0     C71592   8.625   4.327   1.568  0.0036 -0.6087  0.2575
  543MOL0     C71593   8.661   4.383   1.442  0.2046  0.6277  0.4779
  543MOL0     N71594   9.255   4.366   0.987  0.4296  1.2755  0.8989
  543MOL0     N71595   9.369   4.317   0.978 -0.5005  0.0234  1.0239
  543MOL0     C71596   9.417   3.521   1.464  0.5280 -0.4619 -0.6528
  543MOL0     C71597   9.320   3.421   1.478  0.1065 -0.6490  0.0763
  543MOL0     C71598   9.100   3.041   1.594  0.2387 -1.1548 -0.1138
  543MOL0     C71599   9.066   3.048   1.730  0.2827  0.5152 -0.0402
  543MOL0     C71600   8.984   2.956   1.784  0.0624 -0.0938  0.2164
  543MOL0     C71601   8.945   2.841   1.716  0.4100  0.4870 -0.3990
  543MOL0     O71602   8.880   2.752   1.802  0.4837 -0.5047  0.5636
  543MOL0     C71603   8.749   2.707   1.756  0.6759 -0.8559 -0.1805
  543MOL0     C71604   8.645   2.824   1.726  1.5811 -0.1396  0.2995
  543MOL0     C71605   8.510   2.765   1.750  0.3351  1.2241  0.2810
  543MOL0     C71606   8.488   2.627   1.689 -0.8617  0.6510  0.7302
  543MOL0     C71607   8.357   2.563   1.720 -0.3150  0.5006 -0.1200
  543MOL0     C71608   8.254   2.496   1.748 -0.4004 -0.2080  0.8032
  543MOL0     C71609   8.965   2.839   1.578 -0.4328 -0.3481  0.6224
  543MOL0     C71610   9.052   2.930   1.521  1.5806 -0.3815  0.6187
  543MOL0     H71611   9.458   3.240   1.718 -0.3193  0.8563  0.7125
  543MOL0     H71612   9.636   3.421   1.705 -1.2719  1.7088  0.7057
  543MOL0     H71613   9.589   3.638   1.342  0.0815 -1.9436  1.4645
  543MOL0     H71614   9.754   3.605   1.367 -0.9314 -2.9699  1.0770
  543MOL0     H71615   9.789   3.823   1.483  2.1028 -0.0229 -3.9162
  543MOL0     H71616   9.614   3.855   1.476  0.4298  1.9939 -0.7740
  543MOL0     H71617   9.659   3.825   1.214  0.9303  1.2008 -0.6119
  543MOL0     H71618   9.829   3.857   1.271  1.2711  3.6620  1.6209
  543MOL0     H71619   9.618   4.049   1.352 -0.1103  0.0572 -1.1868
  543MOL0     H71620   9.803   4.067   1.341  1.0168 -1.9242 -0.9229
  543MOL0     H71621   9.785   4.047   1.100  0.2427  2.4797 -0.5707
  543MOL0     H71622   9.740   4.192   1.174  2.2368 -0.4156 -1.0049
  543MOL0     H71623   9.497   4.128   1.148 -0.5531  1.5073 -1.2757
  543MOL0     H71624   9.551   3.968   1.080  4.3123 -0.6235  0.2861
  543MOL0     H71625   9.593   4.250   0.973 -1.5214  0.4084  3.4227
  543MOL0     H71626   9.657   4.106   0.879  0.9267 -2.2837  2.4361
  543MOL0     H71627   9.436   4.017   0.857 -3.3026  1.1851  1.2331
  543MOL0     H71628   9.481   4.147   0.747 -1.8316 -3.6432 -2.0892
  543MOL0     H71629   9.201   4.104   0.789  0.3617 -0.0415 -0.3974
  543MOL0     H71630   8.976   4.256   0.834 -0.4781 -0.1501 -0.4261
  543MOL0     H71631   9.013   4.432   0.861 -0.5337  0.2121  2.8243
  543MOL0     H71632   8.994   4.379   1.116  0.5765 -1.8096  1.6067
  543MOL0     H71633   8.954   4.212   1.071 -0.0017 -0.5272 -0.2852
  543MOL0     H71634   8.795   4.469   0.994 -1.9218  0.3999  0.4826
  543MOL0     H71635   8.756   4.308   0.942 -0.2219 -0.3243  1.1683
  543MOL0     H71636   8.708   4.233   1.149  1.3391  0.4246 -0.7648
  543MOL0     H71637   8.626   4.378   1.108 -0.5780 -1.9400 -2.1182
  543MOL0     H71638   8.893   4.165   1.337 -0.3616 -1.7647 -0.0812
  543MOL0     H71639   8.814   4.045   1.543  0.0548  0.9731 -1.1894
  543MOL0     H71640   8.806   3.804   1.858  0.1553 -0.4565  0.2456
  543MOL0     H71641   8.816   3.700   2.086 -0.9240  0.2715  0.7520
  543MOL0     H71642   8.595   3.861   2.435 -0.6896  0.5449  0.9518
  543MOL0     H71643   8.714   3.980   2.442 -0.7712 -0.5647 -2.5148
  543MOL0     H71644   8.757   3.871   2.646  1.2551  2.0741 -2.0723
  543MOL0     H71645   8.863   3.762   2.562 -1.5299 -2.6143  2.2118
  543MOL0     H71646   8.674   3.612   2.541  3.8630 -0.6484  0.9797
  543MOL0     H71647   8.575   3.726   2.650  0.3447  1.9383  0.2443
  543MOL0     H71648   8.803   3.529   2.680  1.1273  0.3719  0.1149
  543MOL0     H71649   8.812   3.681   2.774  0.2248  1.3938 -3.4341
  543MOL0     H71650   8.592   3.607   2.882 -2.8733 -2.7139 -0.8668
  543MOL0     H71651   8.722   3.476   2.895  2.0227  3.7231  2.0661
  543MOL0     H71652   8.477   3.501   2.699  3.4726  0.6783 -1.5736
  543MOL0     H71653   8.453   3.405   2.844 -2.1482  1.1386 -1.3638
  543MOL0     H71654   8.650   3.355   2.611  0.1464  2.8759  0.9813
  543MOL0     H71655   8.679   3.282   2.772 -1.5119 -0.9113 -1.1338
  543MOL0     H71656   8.488   3.152   2.766  0.0512  0.1831  0.3374
  543MOL0     H71657   8.571   3.130   2.617 -4.3748 -2.7248  0.7769
  543MOL0     H71658   8.667   4.069   2.247  0.3372 -1.4895  1.3870
  543MOL0     H71659   8.632   4.160   2.015 -1.9782 -1.2994  1.4091
  543MOL0     H71660   8.552   4.387   1.622  0.3163 -0.2441  0.2773
  543MOL0     H71661   8.612   4.476   1.412  3.5324  2.4634  0.1994
  543MOL0     H71662   9.399   3.603   1.395  1.1246 -2.8923 -3.9121
  543MOL0     H71663   9.225   3.432   1.427  1.2153 -0.3637 -2.0112
  543MOL0     H71664   9.095   3.119   1.806  1.1140 -1.5561  1.6639
  543MOL0     H71665   8.963   2.966   1.890 -3.7586 -0.3456 -0.3830
  543MOL0     H71666   8.710   2.656   1.844  0.1076  2.0054  1.3572
  543MOL0     H71667   8.758   2.645   1.666 -0.9465  0.8780 -1.6453
  543MOL0     H71668   8.654   2.907   1.797 -1.4749 -1.3843  2.3549
  543MOL0     H71669   8.656   2.868   1.626  1.4237  0.5891  0.5949
  543MOL0     H71670   8.423   2.822   1.717 -1.5511 -2.5986 -2.0687
  543MOL0     H71671   8.500   2.741   1.856 -0.3525  0.5904  0.0812
  543MOL0     H71672   8.503   2.627   1.581  2.5744 -1.9397  1.0239
  543MOL0     H71673   8.566   2.555   1.714  0.7744  0.8921 -2.9921
  543MOL0     H71674   8.163   2.442   1.767 -1.1262  0.7021  0.0398
  543MOL0     H71675   8.936   2.751   1.521  3.6082 -3.1311  2.3456
  543MOL0     H71676   9.062   2.927   1.413  0.1373  2.6091  0.3086
  544MOL0     O71677   1.068   2.245   8.710 -0.1561 -0.9752  0.4649
  544MOL0     C71678   1.157   2.224   8.798  1.1934 -0.8619  1.0574
  544MOL0     O71679   1.188   2.100   8.843  0.4933  0.2407 -0.3936
  544MOL0     C71680   1.131   1.994   8.789  0.2481 -0.2122  1.2928
  544MOL0     C71681   1.142   1.963   8.652 -0.2858  0.7183 -0.1125
  544MOL0     C71682   1.082   1.845   8.603 -1.6664 -0.5993  0.0420
  544MOL0     C71683   1.024   1.754   8.684 -0.8201  0.3301  0.1386
  544MOL0     O71684   0.970   1.653   8.608 -0.3223  0.4728  0.0924
  544MOL0     C71685   0.876   1.579   8.675  0.1625 -0.1301 -0.6624
  544MOL0     C71686   0.815   1.479   8.577 -0.5183 -0.3739 -1.2458
  544MOL0     C71687   0.876   1.339   8.614 -0.2456  0.4108  0.5380
  544MOL0     C71688   0.808   1.227   8.548 -0.5081  0.5658  0.6307
  544MOL0     C71689   0.832   1.196   8.394  0.4635 -1.4394 -0.1265
  544MOL0     C71690   0.979   1.213   8.350 -0.1636 -0.4694  0.1072
  544MOL0     C71691   1.005   1.164   8.214 -0.4417  0.4676  0.3943
  544MOL0     C71692   0.936   1.245   8.105 -0.8118 -0.9500  0.4751
  544MOL0     N71693   0.976   1.390   8.105 -0.5736  0.6358  0.2758
  544MOL0     C71694   1.094   1.430   8.061  0.1250  0.2006 -0.3229
  544MOL0     C71695   1.114   1.559   8.105 -0.2618  0.5725 -0.5264
  544MOL0     C71696   1.243   1.651   8.089  0.7621  0.4738 -0.1013
  544MOL0     C71697   1.202   1.769   8.008 -0.6077 -0.3657  0.7737
  544MOL0     C71698   1.302   1.877   8.000  0.0308 -0.8468  0.9239
  544MOL0     C71699   1.260   1.980   7.888  0.1878  0.3699  0.2014
  544MOL0     O71700   1.137   2.040   7.934 -0.6603 -1.2103 -0.2043
  544MOL0     C71701   1.085   2.142   7.864 -0.6546  0.3951  0.0706
  544MOL0     C71702   1.113   2.161   7.731 -0.4142 -0.8117 -0.1543
  544MOL0     C71703   1.070   2.287   7.669 -0.0238  0.0357 -0.1059
  544MOL0     C71704   1.020   2.396   7.741 -0.0718 -0.0161 -0.2008
  544MOL0     C71705   0.977   2.522   7.675 -0.2851 -0.2489 -0.4609
  544MOL0     O71706   0.878   2.584   7.738  0.5222 -0.6131  0.4470
  544MOL0     C71707   0.828   2.703   7.692  0.1377 -0.1162  1.1606
  544MOL0     C71708   0.694   2.703   7.640  0.0673  0.7000 -0.0529
  544MOL0     C71709   0.623   2.819   7.629  1.1758 -0.0300  0.6911
  544MOL0     C71710   0.686   2.945   7.644 -0.5633  0.7022 -1.0758
  544MOL0     O71711   0.624   3.065   7.616  0.5665  0.1528  0.3400
  544MOL0     C71712   0.498   3.074   7.549  0.0487 -0.4005 -0.3306
  544MOL0     C71713   0.459   3.217   7.493 -0.3927 -0.9598 -0.0350
  544MOL0     C71714   0.509   3.284   7.370  0.4178  1.0670  0.3859
  544MOL0     C71715   0.468   3.208   7.245  0.1573 -0.5448  0.3978
  544MOL0     C71716   0.500   3.305   7.138  0.3280  0.4403  1.0815
  544MOL0     C71717   0.528   3.218   7.013 -0.3928 -1.4574  0.4126
  544MOL0     C71718   0.401   3.139   6.954 -0.9636  0.2636  0.1320
  544MOL0     C71719   0.417   2.989   6.990  0.1128 -0.2458 -0.4528
  544MOL0    Cl71720   0.533   2.912   6.877  0.2276 -0.0872 -0.1861
  544MOL0     C71721   0.819   2.942   7.699  0.3375  0.0307  0.2081
  544MOL0     C71722   0.890   2.825   7.720 -0.2394  0.6790  0.2164
  544MOL0     O71723   1.020   2.544   7.566  0.3687  0.5252  0.4547
  544MOL0     C71724   1.003   2.372   7.876  0.7242  0.1114 -0.0404
  544MOL0     C71725   1.024   2.247   7.935  0.2549 -0.2417  0.3275
  544MOL0     N71726   1.004   1.592   8.190 -0.1067 -0.4527 -0.4238
  544MOL0     N71727   0.931   1.487   8.191  0.8841  0.3163 -0.0974
  544MOL0     C71728   1.023   1.783   8.825 -0.6534  0.1623  0.0014
  544MOL0     C71729   1.072   1.903   8.877 -0.4580  0.4195 -0.1392
  544MOL0     C71730   1.219   2.337   8.874  0.1576  0.4928 -0.2701
  544MOL0     C71731   1.181   2.474   8.860  0.2543 -0.4047 -0.3994
  544MOL0     C71732   1.263   2.576   8.919 -0.3403 -0.6503  0.1572
  544MOL0     C71733   1.376   2.551   8.998  0.3617  1.4302 -0.3766
  544MOL0     O71734   1.450   2.653   9.048 -0.2015  0.8354 -0.6595
  544MOL0     C71735   1.565   2.622   9.133  0.1879  0.4750 -0.1717
  544MOL0     C71736   1.657   2.750   9.162  0.2654 -0.4153  0.4858
  544MOL0     C71737   1.582   2.844   9.261 -0.2143  0.2260  0.3117
  544MOL0     C71738   1.671   2.965   9.306  0.7621 -0.6487 -1.0687
  544MOL0     C71739   1.727   3.039   9.202  1.1010 -0.2597 -0.1155
  544MOL0     C71740   1.781   3.096   9.116 -0.4594  0.3794  0.4315
  544MOL0     C71741   1.403   2.412   9.019  0.8202 -0.0456 -0.1899
  544MOL0     C71742   1.327   2.310   8.956  0.3380 -0.2432 -0.3585
  544MOL0     H71743   1.175   2.035   8.579  0.0836 -1.2140 -1.9303
  544MOL0     H71744   1.107   1.827   8.499  0.2507 -2.5473  0.7574
  544MOL0     H71745   0.802   1.648   8.718  0.1753 -0.8959  0.6501
  544MOL0     H71746   0.931   1.523   8.751 -4.3347 -0.7812  2.5131
  544MOL0     H71747   0.829   1.502   8.471 -0.5416 -1.9733 -1.6195
  544MOL0     H71748   0.708   1.479   8.599  0.2759  2.5434  4.4430
  544MOL0     H71749   0.865   1.320   8.722 -0.6252 -2.9945  0.0166
  544MOL0     H71750   0.982   1.324   8.589 -0.6205 -0.5862 -0.4894
  544MOL0     H71751   0.846   1.137   8.598  0.1598 -0.1426 -1.0738
  544MOL0     H71752   0.701   1.232   8.572 -0.3303 -0.1422  1.6383
  544MOL0     H71753   0.780   1.269   8.331  0.0776 -1.6311 -0.0315
  544MOL0     H71754   0.790   1.099   8.368  0.3052 -1.6955  1.0581
  544MOL0     H71755   1.032   1.147   8.419  0.0540  0.8586  1.2715
  544MOL0     H71756   1.010   1.317   8.362  1.1753 -1.0147  1.7304
  544MOL0     H71757   1.113   1.167   8.194 -0.8386 -0.5394 -2.3407
  544MOL0     H71758   0.973   1.060   8.204  0.3539  0.3200 -0.8706
  544MOL0     H71759   0.827   1.233   8.105 -1.3416  2.5978  1.8284
  544MOL0     H71760   0.966   1.194   8.013 -0.4303 -0.8443  0.5406
  544MOL0     H71761   1.173   1.372   8.013 -1.2259 -1.7835 -0.2385
  544MOL0     H71762   1.321   1.590   8.042  1.3693 -0.3995  1.9192
  544MOL0     H71763   1.284   1.670   8.188  2.0752 -1.3197 -0.2490
  544MOL0     H71764   1.108   1.807   8.048 -1.1630  2.2695 -2.5160
  544MOL0     H71765   1.178   1.735   7.906  0.1971 -0.1825  0.5124
  544MOL0     H71766   1.302   1.926   8.098  3.0302  1.3980 -0.0425
  544MOL0     H71767   1.397   1.827   7.979  1.3059  1.8414 -0.1205
  544MOL0     H71768   1.237   1.924   7.796 -1.8774 -2.7914  2.4488
  544MOL0     H71769   1.342   2.048   7.862  1.7756 -2.4450 -3.1999
  544MOL0     H71770   1.169   2.086   7.676 -1.0923 -2.5055  1.3315
  544MOL0     H71771   1.091   2.310   7.564 -1.6373  0.8312 -0.2888
  544MOL0     H71772   0.633   2.616   7.622 -1.0130  1.4975 -0.3673
  544MOL0     H71773   0.521   2.807   7.593  1.2919 -2.3904  0.9570
  544MOL0     H71774   0.415   3.037   7.610 -0.2280  0.8581  0.0702
  544MOL0     H71775   0.509   3.012   7.459 -1.5415  2.0276 -2.3527
  544MOL0     H71776   0.489   3.288   7.571 -0.0256 -1.2419  0.0827
  544MOL0     H71777   0.350   3.221   7.485 -0.3443  0.8386 -0.2146
  544MOL0     H71778   0.617   3.277   7.388  0.2967  2.1597  1.6408
  544MOL0     H71779   0.485   3.390   7.361  1.4919  1.2768 -0.2173
  544MOL0     H71780   0.522   3.115   7.224  0.4407  0.1777 -2.4835
  544MOL0     H71781   0.360   3.197   7.254 -0.1946  1.6389 -0.5316
  544MOL0     H71782   0.592   3.360   7.162  0.6901 -1.1688  3.8802
  544MOL0     H71783   0.412   3.370   7.131  0.1314  0.1161  0.4639
  544MOL0     H71784   0.619   3.159   7.030  0.0007 -0.4357  2.0107
  544MOL0     H71785   0.561   3.287   6.936  0.5047 -2.4497 -0.1244
  544MOL0     H71786   0.304   3.179   6.986 -0.7485  0.8620  0.0443
  544MOL0     H71787   0.413   3.147   6.846  2.1846 -0.2047  0.3541
  544MOL0     H71788   0.334   2.919   6.973  3.0309 -3.5724 -2.4355
  544MOL0     H71789   0.445   2.980   7.095 -0.2366  2.3932 -0.0678
  544MOL0     H71790   0.864   3.036   7.730  0.9377 -0.1201 -0.1962
  544MOL0     H71791   0.984   2.825   7.775 -0.1631 -2.4100  0.2711
  544MOL0     H71792   0.965   2.446   7.945 -0.0212  1.0027 -1.3781
  544MOL0     H71793   0.999   2.233   8.040 -0.4256 -1.0251  0.0775
  544MOL0     H71794   0.977   1.714   8.895  3.1517 -1.2303  1.4342
  544MOL0     H71795   1.080   1.914   8.984 -2.0377 -2.0434  0.3164
  544MOL0     H71796   1.098   2.505   8.797  1.4216  3.5151 -0.2828
  544MOL0     H71797   1.239   2.680   8.899 -0.7895 -0.8903 -0.5696
  544MOL0     H71798   1.628   2.551   9.078 -2.1824  0.0249 -2.5261
  544MOL0     H71799   1.523   2.566   9.218 -0.8812 -0.1551 -1.0807
  544MOL0     H71800   1.753   2.733   9.212 -0.9578 -1.9646  2.4805
  544MOL0     H71801   1.655   2.809   9.071  1.6927 -0.7421  0.2208
  544MOL0     H71802   1.548   2.787   9.348  0.9261  1.5372  1.6500
  544MOL0     H71803   1.484   2.863   9.216 -0.4473 -0.5529  0.4607
  544MOL0     H71804   1.611   3.036   9.364  1.4132 -0.9273 -0.0327
  544MOL0     H71805   1.753   2.936   9.373  0.7687  0.6141 -0.5008
  544MOL0     H71806   1.847   3.159   9.058 -1.1821  1.8613  1.1625
  544MOL0     H71807   1.478   2.375   9.088  0.9408  0.8991  0.1980
  544MOL0     H71808   1.337   2.207   8.987 -0.5955  0.7458  3.8700
  545MOL0     O71809   2.571   1.129   4.142  0.3937 -0.2316  1.2882
  545MOL0     C71810   2.655   1.057   4.088  0.8318 -1.1214  0.7020
  545MOL0     O71811   2.630   0.980   3.980 -0.4272 -0.1772  0.0679
  545MOL0     C71812   2.511   1.003   3.923  0.3457  0.7399 -0.2387
  545MOL0     C71813   2.459   1.128   3.885  0.3097 -0.4208 -0.2702
  545MOL0     C71814   2.334   1.149   3.827 -0.1885  1.1852 -0.9559
  545MOL0     C71815   2.258   1.034   3.804 -0.1280 -1.7370  0.6985
  545MOL0     O71816   2.136   1.047   3.732  0.5164 -0.1307 -0.5267
  545MOL0     C71817   2.100   0.953   3.630 -0.1804  0.0469 -0.0321
  545MOL0     C71818   1.960   0.917   3.624  0.5792  0.3301 -0.3916
  545MOL0     C71819   1.872   1.041   3.612 -0.1451 -0.0104 -0.6768
  545MOL0     C71820   1.893   1.109   3.481 -0.1081  1.2613  0.3663
  545MOL0     C71821   1.785   1.222   3.462  0.0897  0.3056 -0.4482
  545MOL0     C71822   1.644   1.165   3.460  0.8503 -0.1669  0.0258
  545MOL0     C71823   1.612   1.060   3.360 -0.6405 -0.6503  0.4132
  545MOL0     C71824   1.629   1.087   3.205 -0.3226 -0.0109  0.3708
  545MOL0     N71825   1.597   0.969   3.119 -0.0957  0.2211  0.1604
  545MOL0     C71826   1.701   0.887   3.071  0.2469  0.3975  0.9544
  545MOL0     C71827   1.641   0.787   3.004  0.7233  1.0433 -0.3010
  545MOL0     C71828   1.710   0.669   2.915 -0.1248 -0.7494  0.1672
  545MOL0     C71829   1.840   0.606   2.988 -0.4908 -0.3381 -0.0751
  545MOL0     C71830   1.820   0.509   3.095  0.1027  1.0755 -1.1573
  545MOL0     C71831   1.742   0.583   3.209 -0.7407  0.0719 -0.7943
  545MOL0     O71832   1.735   0.508   3.332 -0.0940  0.5330  1.0212
  545MOL0     C71833   1.835   0.513   3.417 -0.3869 -0.6500 -0.3624
  545MOL0     C71834   1.807   0.466   3.544 -0.0823  0.5167 -1.1060
  545MOL0     C71835   1.903   0.489   3.651 -0.5603  0.3262  1.4492
  545MOL0     C71836   2.026   0.544   3.620 -0.1925 -0.6010  0.3040
  545MOL0     C71837   2.143   0.565   3.716  0.8044  0.7834 -0.1605
  545MOL0     O71838   2.124   0.497   3.837 -0.0014  0.3033 -0.6383
  545MOL0     C71839   2.219   0.502   3.935  0.4548 -1.0923  0.2905
  545MOL0     C71840   2.223   0.609   4.027 -0.1999 -0.8771 -0.5595
  545MOL0     C71841   2.331   0.612   4.120  0.5120 -0.4965 -0.0912
  545MOL0     C71842   2.429   0.514   4.130 -0.5837 -0.0999 -0.5436
  545MOL0     O71843   2.537   0.525   4.214 -0.5498 -0.1967 -0.0435
  545MOL0     C71844   2.656   0.537   4.142  0.3582  1.3746  0.3847
  545MOL0     C71845   2.752   0.643   4.190 -0.5334 -0.2645 -0.4630
  545MOL0     C71846   2.855   0.593   4.290 -0.2174 -0.2879 -0.3684
  545MOL0     C71847   2.910   0.703   4.378 -0.4405 -0.3967  0.9080
  545MOL0     C71848   2.977   0.646   4.499  0.2262  0.0427 -0.2298
  545MOL0     C71849   2.986   0.766   4.597 -0.1932 -0.8639  0.4100
  545MOL0     C71850   3.020   0.718   4.732 -0.1402 -0.2982 -0.2753
  545MOL0     C71851   3.010   0.824   4.841  0.0431 -0.4326 -0.8725
  545MOL0    Cl71852   2.859   0.896   4.864  0.1240 -0.1695 -0.5111
  545MOL0     C71853   2.416   0.400   4.050  0.4394 -0.3651  0.5615
  545MOL0     C71854   2.317   0.396   3.951 -0.0682 -1.2767  0.2175
  545MOL0     O71855   2.250   0.615   3.684 -0.3084  0.3200 -0.2364
  545MOL0     C71856   2.056   0.586   3.490  0.1486  0.3984  0.1094
  545MOL0     C71857   1.958   0.568   3.390  0.0118  0.5243 -1.0945
  545MOL0     N71858   1.504   0.821   2.997 -0.3944  0.3200  1.1208
  545MOL0     N71859   1.487   0.938   3.059  0.9706 -0.7790  0.6734
  545MOL0     C71860   2.301   0.908   3.844  0.1477 -0.0903  0.3424
  545MOL0     C71861   2.428   0.893   3.889 -0.1188 -0.6847  0.6303
  545MOL0     C71862   2.790   1.059   4.136 -0.7740 -0.7675 -0.9691
  545MOL0     C71863   2.907   1.041   4.058  0.8789  0.5956  0.7345
  545MOL0     C71864   3.034   1.017   4.107  0.4934 -0.0090 -0.8605
  545MOL0     C71865   3.054   1.015   4.250  0.2751 -0.0099 -1.0671
  545MOL0     O71866   3.181   1.006   4.304  0.3725 -0.1673 -0.1924
  545MOL0     C71867   3.264   1.118   4.266  1.0004  0.5994  0.0823
  545MOL0     C71868   3.251   1.232   4.366 -0.3103 -0.4212 -0.6595
  545MOL0     C71869   3.257   1.381   4.309 -0.5383  0.3210 -0.3821
  545MOL0     C71870   3.258   1.471   4.438  0.8400  0.5673  1.7604
  545MOL0     C71871   3.403   1.480   4.480  0.2205  0.0768 -1.1899
  545MOL0     C71872   3.515   1.505   4.521  0.9730  0.9121 -0.4082
  545MOL0     C71873   2.951   1.044   4.337  0.4857  1.0394  0.1649
  545MOL0     C71874   2.822   1.068   4.269 -0.1007  0.3895 -0.3983
  545MOL0     H71875   2.520   1.211   3.917 -1.2007  0.4822  0.3660
  545MOL0     H71876   2.304   1.250   3.800  0.7362  1.3666 -1.3668
  545MOL0     H71877   2.160   0.862   3.641 -1.2826 -0.5952  0.8368
  545MOL0     H71878   2.126   0.991   3.531 -1.5824  1.0610 -0.0428
  545MOL0     H71879   1.945   0.874   3.724 -1.5860 -1.3870 -1.3567
  545MOL0     H71880   1.943   0.838   3.550  2.5319 -1.8697  1.3605
  545MOL0     H71881   1.897   1.110   3.692 -0.9476 -0.4739 -0.0089
  545MOL0     H71882   1.774   1.000   3.637  1.7107 -2.5224  3.4245
  545MOL0     H71883   1.995   1.139   3.455 -0.8726  2.0504 -1.9965
  545MOL0     H71884   1.888   1.039   3.398  0.6365  0.3836  1.0281
  545MOL0     H71885   1.800   1.281   3.372 -1.2118 -0.0070 -0.8978
  545MOL0     H71886   1.795   1.283   3.552  2.0905  0.2556 -0.5945
  545MOL0     H71887   1.576   1.250   3.450  0.5826 -0.2046  1.2491
  545MOL0     H71888   1.606   1.129   3.557  0.2306  1.8852  0.5907
  545MOL0     H71889   1.665   0.970   3.392 -2.4340 -0.5980  4.0232
  545MOL0     H71890   1.513   1.019   3.380 -0.2489  0.1162  4.9721
  545MOL0     H71891   1.728   1.121   3.173 -0.6845 -0.1232 -0.9204
  545MOL0     H71892   1.558   1.170   3.193 -1.2881 -0.4840  2.3765
  545MOL0     H71893   1.806   0.898   3.094  0.1707  2.6727  0.5014
  545MOL0     H71894   1.738   0.716   2.820  2.3643 -1.6649  0.3751
  545MOL0     H71895   1.635   0.593   2.895  0.3815 -0.8734 -1.3384
  545MOL0     H71896   1.905   0.684   3.028 -2.3365  0.7553  0.9069
  545MOL0     H71897   1.904   0.555   2.915 -0.3217 -0.9414  0.4879
  545MOL0     H71898   1.768   0.415   3.073  1.7888  0.1428 -1.2959
  545MOL0     H71899   1.913   0.476   3.141 -0.3275  2.7889  1.1055
  545MOL0     H71900   1.642   0.597   3.167 -1.3368  2.0935  1.1236
  545MOL0     H71901   1.789   0.681   3.223 -1.1782  0.0002  1.6084
  545MOL0     H71902   1.710   0.423   3.566  0.5090 -0.0460  0.5272
  545MOL0     H71903   1.887   0.451   3.751 -0.6039 -0.5463  1.1143
  545MOL0     H71904   2.146   0.685   4.023  0.5340 -0.1433 -1.1778
  545MOL0     H71905   2.330   0.698   4.186 -5.7413  0.6640 -1.0674
  545MOL0     H71906   2.649   0.561   4.036  3.1782  3.2385  0.5178
  545MOL0     H71907   2.703   0.438   4.137  0.2704  1.3488  0.0035
  545MOL0     H71908   2.686   0.719   4.233  0.6414  3.7713 -4.9661
  545MOL0     H71909   2.803   0.693   4.108  2.2232  1.7763  2.2453
  545MOL0     H71910   2.937   0.543   4.238 -0.6554  0.3179 -1.6856
  545MOL0     H71911   2.814   0.519   4.360  0.2425  0.5771  0.8562
  545MOL0     H71912   2.980   0.760   4.316 -0.8915 -1.5174 -0.6862
  545MOL0     H71913   2.833   0.777   4.403  1.9472  2.3532  0.7654
  545MOL0     H71914   3.080   0.624   4.468  0.6357  0.9495  0.4374
  545MOL0     H71915   2.926   0.560   4.542 -1.6764  1.5744  0.7562
  545MOL0     H71916   2.892   0.822   4.605 -0.2408 -0.6735 -1.1240
  545MOL0     H71917   3.058   0.843   4.569 -0.7389  0.0015  1.3304
  545MOL0     H71918   2.953   0.640   4.767 -0.1118  0.3722  1.3682
  545MOL0     H71919   3.114   0.666   4.751 -0.3799 -0.1327  1.5000
  545MOL0     H71920   3.090   0.891   4.809  0.7122 -1.1244 -0.6664
  545MOL0     H71921   3.028   0.771   4.935  0.2912  0.3278 -0.4881
  545MOL0     H71922   2.487   0.319   4.062  1.3431  0.6725  2.8973
  545MOL0     H71923   2.320   0.314   3.880 -3.0864 -0.4004 -1.0837
  545MOL0     H71924   2.149   0.634   3.460  1.2163 -2.7454 -2.2192
  545MOL0     H71925   1.986   0.600   3.290  1.4462 -0.1282 -0.9284
  545MOL0     H71926   2.237   0.823   3.822  0.9184 -0.4137 -0.7629
  545MOL0     H71927   2.466   0.794   3.912 -0.6296 -0.0555  4.9081
  545MOL0     H71928   2.876   1.029   3.954 -0.6921  0.5260  1.1910
  545MOL0     H71929   3.118   1.020   4.038 -0.3531 -1.2597 -2.0005
  545MOL0     H71930   3.256   1.167   4.168  1.3230  1.1278  0.3110
  545MOL0     H71931   3.362   1.070   4.262  0.2573 -0.9360 -0.2290
  545MOL0     H71932   3.155   1.227   4.418  0.9229  2.0370  2.1364
  545MOL0     H71933   3.320   1.210   4.448 -1.9765 -1.6303  0.4770
  545MOL0     H71934   3.161   1.402   4.262 -0.9795  1.8418  1.0914
  545MOL0     H71935   3.339   1.416   4.246 -0.4440 -1.1756 -1.1158
  545MOL0     H71936   3.221   1.572   4.419 -1.7857 -1.0493 -3.7612
  545MOL0     H71937   3.201   1.409   4.508 -2.0278  0.9421 -0.0960
  545MOL0     H71938   3.615   1.532   4.549  1.4150 -0.0087 -1.0664
  545MOL0     H71939   2.970   1.046   4.443  0.5108  0.6854  0.1661
  545MOL0     H71940   2.736   1.087   4.332  0.6029  0.3705  0.5889
  546MOL0     O71941   9.631   4.814   0.155  1.0398 -0.1608  0.2067
  546MOL0     C71942   9.553   4.897   0.196  0.4815  0.7960  0.1002
  546MOL0     O71943   9.544   4.935   0.331 -0.1198 -0.1990 -0.6882
  546MOL0     C71944   9.629   4.900   0.434 -0.1481  0.1880  0.2096
  546MOL0     C71945   9.627   4.974   0.543 -0.2141 -0.4397 -0.4617
  546MOL0     C71946   9.710   4.945   0.655 -0.9928 -1.3610  0.0760
  546MOL0     C71947   9.792   4.835   0.654 -0.2966  0.1906  0.3812
  546MOL0     O71948   9.877   4.818   0.759 -0.5846 -0.8183  0.0030
  546MOL0     C71949  10.007   4.754   0.727  0.6068  0.2277 -0.4572
  546MOL0     C71950  10.113   4.836   0.814 -0.7019  0.5320  0.2007
  546MOL0     C71951  10.256   4.778   0.801  0.2190  0.2357  0.4703
  546MOL0     C71952  10.283   4.659   0.883  0.2885 -0.9618  0.6636
  546MOL0     C71953  10.256   4.679   1.031  0.2931  1.1821 -0.0127
  546MOL0     C71954  10.332   4.792   1.098  0.1578 -0.2468 -0.4067
  546MOL0     C71955  10.291   4.782   1.245 -1.1399 -0.4888 -0.0601
  546MOL0     C71956  10.401   4.848   1.331  0.1795 -0.6630  0.0614
  546MOL0     N71957  10.431   4.989   1.291 -0.1840 -0.8385  0.5771
  546MOL0     C71958  10.346   5.100   1.280 -0.2579  0.1792 -0.4161
  546MOL0     C71959  10.418   5.188   1.211 -0.1522 -0.0557 -1.3701
  546MOL0     C71960  10.360   5.314   1.154  0.5011 -0.3732  0.4849
  546MOL0     C71961  10.430   5.438   1.218 -0.1584 -0.1481 -0.4423
  546MOL0     C71962  10.561   5.473   1.150  0.3452  0.1481  0.7210
  546MOL0     C71963  10.542   5.571   1.030 -0.0807  1.0345  0.1869
  546MOL0     O71964  10.667   5.595   0.978  1.0459 -0.2394  0.6885
  546MOL0     C71965  10.702   5.730   0.969 -0.4406 -0.3473  0.9572
  546MOL0     C71966  10.697   5.828   1.072 -0.1781  0.5935 -0.5223
  546MOL0     C71967  10.745   5.951   1.048 -1.1283 -0.9736  0.6656
  546MOL0     C71968  10.817   5.995   0.931 -0.6685  0.8144 -0.5475
  546MOL0     C71969  10.863   6.132   0.908 -0.7081  0.8564 -0.5108
  546MOL0     O71970  10.912   6.161   0.789  0.0399  0.3945  0.4250
  546MOL0     C71971  10.946   6.290   0.761 -0.5738  0.8528 -0.6604
  546MOL0     C71972  11.020   6.368   0.852 -0.7980 -0.1690  0.7099
  546MOL0     C71973  11.066   6.501   0.815 -0.2080 -0.1121 -0.7741
  546MOL0     C71974  11.033   6.546   0.682 -0.3025  0.2847  0.0420
  546MOL0     O71975  11.073   6.665   0.645  0.3413 -0.1974  0.8587
  546MOL0     C71976  11.198   6.668   0.572  0.2527  0.0410  0.1475
  546MOL0     C71977  11.270   6.784   0.637 -0.1653 -0.9011 -0.2104
  546MOL0     C71978  11.384   6.826   0.535 -0.0873 -0.1439  0.9163
  546MOL0     C71979  11.479   6.940   0.583 -0.2299  0.3427  0.2404
  546MOL0     C71980  11.601   6.966   0.486 -0.0551  0.4160 -0.0739
  546MOL0     C71981  11.674   7.098   0.513  0.1951  0.1040  1.3902
  546MOL0     C71982  11.807   7.086   0.447 -0.2987  0.7140 -0.1827
  546MOL0     C71983  11.896   7.207   0.469 -0.0561  0.4421  0.3849
  546MOL0    Cl71984  12.065   7.158   0.476  0.6393 -0.4993  0.3990
  546MOL0     C71985  10.961   6.462   0.590 -0.4437 -0.4181  0.1668
  546MOL0     C71986  10.920   6.337   0.639  0.7253  0.0566  0.0104
  546MOL0     O71987  10.858   6.200   1.012 -0.8169  0.0445  0.3990
  546MOL0     C71988  10.825   5.897   0.830 -0.5681  0.3937  0.4680
  546MOL0     C71989  10.771   5.767   0.849  0.3222 -0.1192 -0.1061
  546MOL0     N71990  10.544   5.137   1.193 -0.0138  0.3639  0.1240
  546MOL0     N71991  10.551   5.020   1.236  0.1197 -0.4259  0.5736
  546MOL0     C71992   9.786   4.749   0.543 -1.0423  0.4891 -0.1304
  546MOL0     C71993   9.708   4.782   0.430  0.5486 -0.4400  0.6123
  546MOL0     C71994   9.471   4.958   0.086 -0.0489  0.5117  0.0598
  546MOL0     C71995   9.465   4.913  -0.043  0.7010  0.5961 -0.5136
  546MOL0     C71996   9.391   4.972  -0.138 -0.3130  0.4484 -0.2689
  546MOL0     C71997   9.324   5.089  -0.102 -0.2822 -0.0709  0.1047
  546MOL0     O71998   9.231   5.152  -0.184  0.6935 -0.5836  0.2770
  546MOL0     C71999   9.216   5.112  -0.332  0.3048 -0.3060  0.9233
  546MOL0     C72000   9.176   5.237  -0.417 -0.6011 -0.4404 -0.7981
  546MOL0     C72001   9.034   5.275  -0.374 -0.8065  0.1142  0.9691
  546MOL0     C72002   8.986   5.395  -0.471  0.0637  0.9400 -0.7913
  546MOL0     C72003   8.959   5.360  -0.614  0.7655  0.3634  0.2458
  546MOL0     C72004   8.925   5.324  -0.733  0.7749 -0.6479 -0.2562
  546MOL0     C72005   9.347   5.149   0.023  0.2420  0.3529 -0.6132
  546MOL0     C72006   9.417   5.082   0.122  1.2777 -0.6168  0.7484
  546MOL0     H72007   9.550   5.050   0.551  0.3788  0.0629  0.7455
  546MOL0     H72008   9.712   5.004   0.746 -3.4532 -1.3557  0.2074
  546MOL0     H72009  10.032   4.766   0.621  2.2150  1.2939  0.0111
  546MOL0     H72010  10.007   4.648   0.753 -2.3161 -0.4307 -2.5942
  546MOL0     H72011  10.075   4.840   0.917  2.3533 -1.9262  1.5953
  546MOL0     H72012  10.120   4.940   0.780 -1.3510  0.2745 -0.7545
  546MOL0     H72013  10.325   4.857   0.829  1.0538 -1.3209  3.1524
  546MOL0     H72014  10.278   4.751   0.697  0.8496  0.0095  0.6618
  546MOL0     H72015  10.233   4.577   0.829  0.9396 -0.9506  0.0279
  546MOL0     H72016  10.387   4.626   0.873  0.1588 -1.4038  0.7268
  546MOL0     H72017  10.281   4.585   1.083 -0.3580  1.3019  0.5274
  546MOL0     H72018  10.151   4.694   1.057 -0.1103 -3.7911  2.3942
  546MOL0     H72019  10.295   4.884   1.052  1.2877  0.6599  0.4409
  546MOL0     H72020  10.439   4.789   1.077 -0.0834 -1.3927 -1.6320
  546MOL0     H72021  10.191   4.818   1.271 -1.9127 -2.7637  0.3566
  546MOL0     H72022  10.299   4.677   1.274  3.2165 -0.7300 -1.4568
  546MOL0     H72023  10.496   4.793   1.330  0.1115 -0.8361 -2.5333
  546MOL0     H72024  10.368   4.857   1.435  1.6196 -2.8207  0.7656
  546MOL0     H72025  10.242   5.120   1.305  0.0806  0.8160  0.5448
  546MOL0     H72026  10.253   5.324   1.177  0.2741 -3.0217  0.8397
  546MOL0     H72027  10.352   5.309   1.045 -0.5719 -0.3382  0.5533
  546MOL0     H72028  10.446   5.410   1.323  0.2404  3.4978  0.6143
  546MOL0     H72029  10.358   5.520   1.217  0.1347  0.1071 -0.9525
  546MOL0     H72030  10.636   5.526   1.209 -0.5635  0.7971  1.3146
  546MOL0     H72031  10.607   5.388   1.099 -1.1873 -1.0623  1.2663
  546MOL0     H72032  10.494   5.668   1.045 -2.2466 -0.0239  0.4345
  546MOL0     H72033  10.483   5.521   0.954 -1.1444  1.3860  0.7681
  546MOL0     H72034  10.652   5.819   1.170 -0.2227 -0.8686 -0.6517
  546MOL0     H72035  10.723   6.029   1.121 -0.2938  1.8527 -1.9054
  546MOL0     H72036  11.056   6.336   0.949 -0.3953 -0.3180  0.5151
  546MOL0     H72037  11.107   6.565   0.892 -3.7007  0.8786  0.4602
  546MOL0     H72038  11.176   6.687   0.467  0.3398 -0.3505  0.0586
  546MOL0     H72039  11.259   6.578   0.579  0.0597  0.0009  1.5860
  546MOL0     H72040  11.304   6.777   0.741 -1.9712 -2.5903  0.3239
  546MOL0     H72041  11.195   6.863   0.642 -0.1390 -0.8471 -0.6609
  546MOL0     H72042  11.329   6.851   0.444 -1.2096 -3.0335  0.6897
  546MOL0     H72043  11.439   6.732   0.521 -0.2380 -0.0316 -0.5690
  546MOL0     H72044  11.419   7.031   0.594  0.1855  0.6721 -0.1545
  546MOL0     H72045  11.512   6.905   0.681  1.4103  2.1442  0.3927
  546MOL0     H72046  11.574   6.967   0.380  0.8327  1.4850 -0.3033
  546MOL0     H72047  11.662   6.875   0.494  0.8866  1.1543  1.8092
  546MOL0     H72048  11.702   7.093   0.619  1.4324 -3.1718  1.0370
  546MOL0     H72049  11.613   7.183   0.482  0.4256 -0.6797 -1.4964
  546MOL0     H72050  11.859   6.996   0.480  1.9175  2.8730  2.8438
  546MOL0     H72051  11.793   7.072   0.339  2.1459 -2.5676 -0.1972
  546MOL0     H72052  11.884   7.273   0.555  0.4112 -1.0357  1.6223
  546MOL0     H72053  11.890   7.273   0.382 -0.1590  2.0818  1.5807
  546MOL0     H72054  10.938   6.488   0.488  0.0182 -0.3034  0.0882
  546MOL0     H72055  10.856   6.271   0.581  1.0283 -0.2605  0.0346
  546MOL0     H72056  10.876   5.922   0.738  1.3261 -3.1317  0.3995
  546MOL0     H72057  10.785   5.684   0.780  1.3577  0.2876 -0.4077
  546MOL0     H72058   9.837   4.653   0.546 -1.5071  0.2375  3.0386
  546MOL0     H72059   9.686   4.702   0.360 -2.2913  0.3150  0.5355
  546MOL0     H72060   9.523   4.822  -0.057 -2.9491 -2.1131  0.5124
  546MOL0     H72061   9.393   4.931  -0.238  0.8065 -2.0692  0.6983
  546MOL0     H72062   9.150   5.026  -0.349  1.8048 -1.4649  0.7818
  546MOL0     H72063   9.315   5.077  -0.363  1.3340  2.5339  0.6860
  546MOL0     H72064   9.248   5.320  -0.414 -0.1479 -0.8328  1.3594
  546MOL0     H72065   9.172   5.208  -0.522 -0.6635  1.9851 -1.5396
  546MOL0     H72066   9.040   5.321  -0.275  1.2993  2.8623 -0.3078
  546MOL0     H72067   8.972   5.185  -0.384  0.0460 -0.3246 -0.7070
  546MOL0     H72068   8.891   5.423  -0.424  0.8902 -1.5426  2.7859
  546MOL0     H72069   9.054   5.480  -0.461  0.2036  0.8099 -0.6321
  546MOL0     H72070   8.889   5.283  -0.825  1.8507 -3.8325  0.6157
  546MOL0     H72071   9.324   5.254   0.039 -0.0397 -0.1137  2.9989
  546MOL0     H72072   9.438   5.136   0.213  1.0714 -2.1178  1.7368
  547MOL0     O72073   9.291   0.608   6.270 -0.3199 -0.0106  0.0340
  547MOL0     C72074   9.296   0.489   6.293 -0.9046  0.3573 -0.4153
  547MOL0     O72075   9.229   0.419   6.389 -0.3153  0.3590 -0.2897
  547MOL0     C72076   9.147   0.469   6.486  0.3953  0.6471  0.2805
  547MOL0     C72077   9.054   0.573   6.458 -0.7260 -0.2499  0.3524
  547MOL0     C72078   8.974   0.621   6.555  0.1746 -0.0779  0.1372
  547MOL0     C72079   8.971   0.552   6.685 -0.5132  0.1678  0.0601
  547MOL0     O72080   8.876   0.585   6.782 -0.4138 -0.2302  0.4876
  547MOL0     C72081   8.867   0.536   6.913 -0.0759  0.8877 -0.7781
  547MOL0     C72082   8.730   0.535   6.976 -0.9432 -0.4857 -0.6563
  547MOL0     C72083   8.668   0.681   6.988 -0.3881 -0.5948  0.1333
  547MOL0     C72084   8.537   0.671   7.073  0.0022 -0.7193  0.0675
  547MOL0     C72085   8.523   0.787   7.169 -0.0763  0.0473 -0.2103
  547MOL0     C72086   8.418   0.763   7.277 -0.0813 -0.4540  0.4365
  547MOL0     C72087   8.477   0.676   7.389 -0.9786  0.0054 -0.4582
  547MOL0     C72088   8.370   0.647   7.498 -0.1746 -0.1850 -0.3909
  547MOL0     N72089   8.418   0.577   7.612 -0.7518  0.6418  0.2756
  547MOL0     C72090   8.548   0.536   7.631 -0.1006 -0.8390 -0.3387
  547MOL0     C72091   8.546   0.453   7.735 -0.7021  0.8013  0.6069
  547MOL0     C72092   8.654   0.379   7.807  0.0441 -0.2338 -0.6818
  547MOL0     C72093   8.771   0.462   7.861  0.4829  1.0840 -0.7132
  547MOL0     C72094   8.730   0.590   7.937 -0.6435  0.1198 -0.3882
  547MOL0     C72095   8.644   0.551   8.066 -0.2888 -0.1996  0.9305
  547MOL0     O72096   8.564   0.651   8.135  0.4365  1.2570  0.5253
  547MOL0     C72097   8.470   0.615   8.229 -0.9792 -1.3198  0.3201
  547MOL0     C72098   8.410   0.727   8.284  0.7422 -0.2946  0.5263
  547MOL0     C72099   8.323   0.704   8.382 -0.2461 -0.3347 -0.1575
  547MOL0     C72100   8.290   0.571   8.431  0.1965 -0.3913  0.7757
  547MOL0     C72101   8.180   0.557   8.532 -0.2188  0.7165 -0.7800
  547MOL0     O72102   8.067   0.487   8.493 -0.0911  0.2818 -0.4367
  547MOL0     C72103   7.984   0.441   8.588  0.5047 -0.3452 -0.4789
  547MOL0     C72104   7.845   0.455   8.561 -0.7169 -0.2558  0.5852
  547MOL0     C72105   7.751   0.403   8.649  0.8270  0.6848 -0.0258
  547MOL0     C72106   7.786   0.337   8.767  1.0659 -0.5143  0.2412
  547MOL0     O72107   7.678   0.300   8.844 -0.1513 -0.4318  0.0581
  547MOL0     C72108   7.702   0.285   8.987  0.8708 -0.2664  0.3178
  547MOL0     C72109   7.573   0.275   9.060 -0.2667  0.2440 -0.5463
  547MOL0     C72110   7.508   0.133   9.039 -0.2118  0.9049  0.2472
  547MOL0     C72111   7.360   0.122   9.083  0.6120  1.1233  0.1698
  547MOL0     C72112   7.316  -0.030   9.072 -0.4773 -0.5715 -0.1009
  547MOL0     C72113   7.176  -0.049   9.122 -0.3904  0.5239 -1.0655
  547MOL0     C72114   7.182  -0.097   9.270 -0.7130  0.2821 -0.2300
  547MOL0     C72115   7.048  -0.131   9.334 -0.6344 -0.0058  0.7015
  547MOL0    Cl72116   7.034  -0.058   9.481  0.2815  0.1695 -0.5095
  547MOL0     C72117   7.922   0.322   8.795 -0.0770 -0.0685  0.8499
  547MOL0     C72118   8.019   0.375   8.707  0.5717  0.5314  0.0316
  547MOL0     O72119   8.192   0.614   8.641 -0.0994  0.6424 -0.3945
  547MOL0     C72120   8.348   0.465   8.369 -0.7014 -0.0139  0.4554
  547MOL0     C72121   8.452   0.489   8.279  0.7714 -0.0442  0.0009
  547MOL0     N72122   8.417   0.440   7.780  0.0186 -0.0186 -1.0800
  547MOL0     N72123   8.341   0.517   7.712 -0.2720 -0.1892  0.5791
  547MOL0     C72124   9.061   0.449   6.714 -0.3450 -0.2214  1.1039
  547MOL0     C72125   9.145   0.403   6.612  0.6370  0.1052 -0.4952
  547MOL0     C72126   9.382   0.405   6.209  0.6986  0.3945  0.0798
  547MOL0     C72127   9.369   0.261   6.217  0.6376 -0.1594  0.2061
  547MOL0     C72128   9.443   0.181   6.133 -0.7014 -0.3037  0.2508
  547MOL0     C72129   9.529   0.237   6.043 -1.4208  0.1780 -0.3124
  547MOL0     O72130   9.621   0.167   5.967  0.6837 -0.9234 -0.0859
  547MOL0     C72131   9.621   0.032   5.973 -0.2311 -0.2893 -0.1407
  547MOL0     C72132   9.529  -0.009   5.864 -0.1730  0.0749 -0.3452
  547MOL0     C72133   9.534  -0.158   5.824  0.0201  0.0202  0.4828
  547MOL0     C72134   9.523  -0.240   5.954 -0.0249 -0.1116 -0.4486
  547MOL0     C72135   9.509  -0.383   5.911  0.3656 -0.6082  0.2230
  547MOL0     C72136   9.489  -0.505   5.900 -0.8321  0.9750 -0.0359
  547MOL0     C72137   9.541   0.371   6.037 -0.1435 -0.5938  1.1668
  547MOL0     C72138   9.454   0.457   6.107 -0.7418  0.3295  0.1394
  547MOL0     H72139   9.056   0.625   6.363 -0.1672 -0.3112  0.3230
  547MOL0     H72140   8.908   0.704   6.533  0.4654  0.3007  0.6677
  547MOL0     H72141   8.943   0.581   6.977  1.9413 -1.4953 -1.3179
  547MOL0     H72142   8.894   0.430   6.911 -0.5156  0.7366  0.5334
  547MOL0     H72143   8.742   0.481   7.070 -3.4882 -3.3788 -1.8005
  547MOL0     H72144   8.669   0.464   6.920  2.1791 -2.0937 -2.3018
  547MOL0     H72145   8.649   0.720   6.888  2.0739  2.2042  0.6108
  547MOL0     H72146   8.746   0.743   7.034  1.2699 -1.0779 -1.8713
  547MOL0     H72147   8.451   0.668   7.005  1.4712 -0.4415 -1.8656
  547MOL0     H72148   8.535   0.583   7.138  2.2675 -2.0091 -1.4665
  547MOL0     H72149   8.490   0.873   7.110  0.9085 -0.2410 -1.2355
  547MOL0     H72150   8.621   0.804   7.214  0.2500 -2.2941  0.1075
  547MOL0     H72151   8.327   0.722   7.233  0.3122 -0.6657 -0.1919
  547MOL0     H72152   8.413   0.860   7.328  2.2845 -0.1874  0.2606
  547MOL0     H72153   8.531   0.588   7.354 -0.0910  0.6920 -0.8766
  547MOL0     H72154   8.554   0.739   7.435 -0.9596  0.6034 -1.2826
  547MOL0     H72155   8.288   0.586   7.459  1.3848 -1.1480 -2.3696
  547MOL0     H72156   8.340   0.742   7.544  4.4442  0.6646  1.3968
  547MOL0     H72157   8.632   0.570   7.570 -0.1579 -0.5970 -0.2846
  547MOL0     H72158   8.703   0.295   7.756  0.5448 -0.4153  0.0718
  547MOL0     H72159   8.602   0.327   7.888 -3.7648  4.1000  0.1004
  547MOL0     H72160   8.826   0.494   7.772  1.3572 -0.2622 -0.6857
  547MOL0     H72161   8.835   0.404   7.928 -2.4830 -0.4497  1.0170
  547MOL0     H72162   8.826   0.637   7.962 -1.9747  2.4324  0.7102
  547MOL0     H72163   8.668   0.663   7.883 -4.5616 -2.2862  0.4483
  547MOL0     H72164   8.717   0.526   8.144 -1.3156  3.5069  3.3698
  547MOL0     H72165   8.580   0.468   8.035 -0.7265  0.2760  0.5428
  547MOL0     H72166   8.435   0.831   8.266  0.6730 -0.5221 -1.0074
  547MOL0     H72167   8.281   0.796   8.423  1.2491  0.4497 -0.3295
  547MOL0     H72168   7.833   0.518   8.474  2.3156 -1.9169 -1.1908
  547MOL0     H72169   7.649   0.428   8.621  0.7608  0.7110  0.2426
  547MOL0     H72170   7.767   0.364   9.026  1.4644  1.2765 -3.4598
  547MOL0     H72171   7.754   0.189   8.999  0.9255 -0.5443 -1.7959
  547MOL0     H72172   7.512   0.365   9.053 -0.3262  0.1099 -2.3942
  547MOL0     H72173   7.599   0.281   9.166  1.2731 -3.0146 -0.6148
  547MOL0     H72174   7.566   0.055   9.089 -0.0062  2.3970  2.4936
  547MOL0     H72175   7.505   0.117   8.931 -0.4155 -2.5487  0.6467
  547MOL0     H72176   7.347   0.141   9.190 -0.4944  4.0170 -0.3853
  547MOL0     H72177   7.300   0.195   9.028 -0.6555  1.2959  1.7039
  547MOL0     H72178   7.383  -0.093   9.131 -1.0943  0.2828  1.5821
  547MOL0     H72179   7.321  -0.059   8.967  0.2904 -1.6013  0.2054
  547MOL0     H72180   7.125  -0.123   9.061 -1.2042 -0.0689  0.2893
  547MOL0     H72181   7.119   0.044   9.129  1.8750  1.8921  2.5098
  547MOL0     H72182   7.252  -0.179   9.288  1.7344  2.8281  3.0824
  547MOL0     H72183   7.214  -0.017   9.337 -0.8678 -1.5242  2.1251
  547MOL0     H72184   7.032  -0.239   9.338  1.5063 -0.4613 -0.9554
  547MOL0     H72185   6.973  -0.099   9.262  1.3262 -2.1014 -2.5423
  547MOL0     H72186   7.962   0.292   8.892 -1.8300  0.6550  1.8590
  547MOL0     H72187   8.118   0.381   8.750  1.2793  0.5979 -1.5247
  547MOL0     H72188   8.324   0.363   8.398 -2.8807 -0.3508 -2.0786
  547MOL0     H72189   8.508   0.404   8.239 -2.0744 -2.2518  0.3575
  547MOL0     H72190   9.076   0.395   6.807  2.5778  0.4101  1.0891
  547MOL0     H72191   9.215   0.322   6.631  0.8596  0.4713  0.3060
  547MOL0     H72192   9.303   0.199   6.278  1.5341 -1.4141 -0.0666
  547MOL0     H72193   9.419   0.075   6.135  1.5760 -0.8784  1.8312
  547MOL0     H72194   9.586  -0.009   6.068  0.7331 -0.3094  0.2203
  547MOL0     H72195   9.721  -0.011   5.959 -0.0565  0.6061 -1.8831
  547MOL0     H72196   9.429   0.017   5.902  0.4362  1.9866  0.0570
  547MOL0     H72197   9.549   0.060   5.782  1.1539 -1.6757 -1.5677
  547MOL0     H72198   9.628  -0.166   5.769  0.7403  2.1565  1.2914
  547MOL0     H72199   9.450  -0.170   5.755 -1.4960  1.9012  1.8723
  547MOL0     H72200   9.615  -0.235   6.013 -2.0999 -0.0176  3.0919
  547MOL0     H72201   9.444  -0.213   6.025  2.5007 -1.1122  2.9996
  547MOL0     H72202   9.471  -0.610   5.888  0.4425  0.9724 -2.5129
  547MOL0     H72203   9.619   0.400   5.967 -0.8870 -3.8559 -1.2960
  547MOL0     H72204   9.470   0.563   6.092 -2.3928  0.3541 -1.8968
  548MOL0     O72205   2.221  10.375   9.280 -0.1982 -0.4346  0.1613
  548MOL0     C72206   2.152  10.304   9.209 -0.4174  1.2498  0.3350
  548MOL0     O72207   2.057  10.350   9.115 -0.5534 -0.7049 -0.4062
  548MOL0     C72208   2.028  10.491   9.103  0.1789  0.8068  0.0920
  548MOL0     C72209   1.899  10.530   9.078  0.2170 -0.7631  0.1299
  548MOL0     C72210   1.859  10.657   9.053  0.0146 -1.4082 -0.8483
  548MOL0     C72211   1.950  10.763   9.060 -0.3781 -0.0720  0.3070
  548MOL0     O72212   1.899  10.889   9.034 -0.0617  0.1406 -0.3710
  548MOL0     C72213   1.971  11.010   9.037 -0.9003 -0.8233  0.9206
  548MOL0     C72214   2.029  11.046   8.902 -1.4872  0.0266 -0.2034
  548MOL0     C72215   1.917  11.041   8.796  1.1168  0.2887 -0.9397
  548MOL0     C72216   1.970  11.072   8.663  0.4091 -0.5302 -0.1104
  548MOL0     C72217   1.874  11.038   8.548 -0.2655  0.2125 -0.8107
  548MOL0     C72218   1.965  11.050   8.423  0.7203 -0.7785 -0.2242
  548MOL0     C72219   1.875  11.079   8.303  0.1012  0.0348  0.1879
  548MOL0     C72220   1.960  11.113   8.187  0.2643  0.2758 -0.1471
  548MOL0     N72221   1.856  11.153   8.080  0.5504  0.3789 -0.1841
  548MOL0     C72222   1.792  11.056   7.995 -0.2457 -1.3374  0.6655
  548MOL0     C72223   1.698  11.139   7.935  0.5688  0.4283 -0.4366
  548MOL0     C72224   1.600  11.087   7.837  0.3347  0.2586  0.3959
  548MOL0     C72225   1.489  11.022   7.916  0.3702 -0.2137  0.8121
  548MOL0     C72226   1.408  11.129   8.007 -0.4370  1.1219  0.6116
  548MOL0     C72227   1.427  11.102   8.154 -1.0690 -0.0217  0.3551
  548MOL0     O72228   1.345  10.987   8.187  0.2616  0.0247 -0.3539
  548MOL0     C72229   1.373  10.913   8.300  0.5714 -0.3072  0.7185
  548MOL0     C72230   1.314  10.775   8.310  0.3554  0.1511 -0.8122
  548MOL0     C72231   1.324  10.699   8.427 -0.5741  0.0155 -0.2640
  548MOL0     C72232   1.411  10.751   8.521 -0.0015 -0.0624 -0.6027
  548MOL0     C72233   1.436  10.681   8.651  1.4638 -0.1377 -0.1397
  548MOL0     O72234   1.559  10.627   8.680  0.2752  0.4663 -0.0992
  548MOL0     C72235   1.555  10.512   8.761 -0.0045 -0.5593  0.2856
  548MOL0     C72236   1.628  10.401   8.718  0.0174 -0.3678  0.1853
  548MOL0     C72237   1.625  10.282   8.790  1.3454  0.4473  0.8260
  548MOL0     C72238   1.565  10.279   8.916 -0.5728  0.6216 -0.0833
  548MOL0     O72239   1.577  10.173   9.006 -0.0865 -0.1524  0.2575
  548MOL0     C72240   1.713  10.116   9.015 -0.1731  0.0439 -0.3368
  548MOL0     C72241   1.711  10.010   9.130 -0.0220 -0.5579  0.4048
  548MOL0     C72242   1.641   9.879   9.100 -0.8288  0.8974  0.5204
  548MOL0     C72243   1.674   9.769   9.212 -0.9145 -0.4413  0.3814
  548MOL0     C72244   1.658   9.626   9.161  0.7276 -0.6881 -0.3784
  548MOL0     C72245   1.779   9.527   9.195 -0.8789  0.0611 -0.0608
  548MOL0     C72246   1.757   9.390   9.122 -0.4884 -0.2592 -0.1013
  548MOL0     C72247   1.657   9.301   9.203 -0.2982 -1.1861  0.6179
  548MOL0    Cl72248   1.613   9.153   9.118 -0.3781  0.2142 -0.3028
  548MOL0     C72249   1.500  10.389   8.965 -1.1974 -0.7095  0.2409
  548MOL0     C72250   1.487  10.507   8.884 -1.6178 -0.5372 -0.2069
  548MOL0     O72251   1.336  10.667   8.720 -0.3373  0.1928  0.5987
  548MOL0     C72252   1.485  10.874   8.506  0.3497  1.0689 -0.5867
  548MOL0     C72253   1.466  10.956   8.395  0.1051 -0.1294  0.3175
  548MOL0     N72254   1.706  11.261   7.997  0.5608  0.0031 -0.4100
  548MOL0     N72255   1.792  11.272   8.086  0.4433 -0.3570 -0.0806
  548MOL0     C72256   2.081  10.727   9.083  0.1627 -0.4844  0.8185
  548MOL0     C72257   2.128  10.590   9.103  1.0522  0.6334  0.9377
  548MOL0     C72258   2.182  10.159   9.211  0.4327 -0.6506 -0.0470
  548MOL0     C72259   2.284  10.102   9.295  0.6900  0.2315  0.0582
  548MOL0     C72260   2.300   9.966   9.286 -0.1213  0.0852  0.6440
  548MOL0     C72261   2.237   9.877   9.197  0.3095 -1.6501 -0.3031
  548MOL0     O72262   2.251   9.744   9.197 -0.0683 -0.4733 -0.6965
  548MOL0     C72263   2.350   9.678   9.281 -0.1364 -0.4965 -0.6656
  548MOL0     C72264   2.361   9.533   9.248  0.0038 -0.5872 -0.0949
  548MOL0     C72265   2.474   9.468   9.326  0.1445 -0.1176 -0.2457
  548MOL0     C72266   2.510   9.327   9.270  0.2337 -1.0086  0.7775
  548MOL0     C72267   2.425   9.233   9.347 -0.5057  0.3582  1.0088
  548MOL0     C72268   2.351   9.157   9.408  0.9332 -0.6468  0.0798
  548MOL0     C72269   2.138   9.934   9.115  0.3854 -0.4276 -0.6960
  548MOL0     C72270   2.113  10.069   9.128 -0.1061  0.0660  0.3564
  548MOL0     H72271   1.834  10.443   9.080  2.1236 -2.2496  0.8087
  548MOL0     H72272   1.758  10.686   9.028 -0.4500 -2.6280 -0.4734
  548MOL0     H72273   2.047  11.003   9.115  0.9090  0.5598 -0.6434
  548MOL0     H72274   1.903  11.092   9.063  0.2890  0.0874  1.2162
  548MOL0     H72275   2.111  10.976   8.883 -0.0380  1.2267  1.3893
  548MOL0     H72276   2.078  11.143   8.903  0.9226 -1.1040  1.2622
  548MOL0     H72277   1.844  11.117   8.826  0.1249 -1.0965  0.2742
  548MOL0     H72278   1.876  10.940   8.799  2.0589 -0.0901 -0.4917
  548MOL0     H72279   2.011  11.172   8.651  0.8580 -0.3917  2.0831
  548MOL0     H72280   2.061  11.012   8.660  1.3076  0.8467 -1.2043
  548MOL0     H72281   1.792  11.110   8.552 -1.5743 -1.2104 -1.2233
  548MOL0     H72282   1.833  10.938   8.562  0.7775 -0.2046 -0.5916
  548MOL0     H72283   2.019  10.958   8.403 -0.9171 -1.8506  0.1083
  548MOL0     H72284   2.026  11.141   8.433 -1.5326  1.0919 -2.0031
  548MOL0     H72285   1.823  10.984   8.287  0.6984  0.2134 -4.0796
  548MOL0     H72286   1.803  11.157   8.330  1.2423  0.0643  3.6737
  548MOL0     H72287   2.021  11.026   8.164 -0.2613 -0.5298  1.3220
  548MOL0     H72288   2.023  11.201   8.202 -2.8134  2.2816  2.2950
  548MOL0     H72289   1.808  10.949   7.986 -0.9706 -1.4961  1.1635
  548MOL0     H72290   1.653  11.004   7.788 -1.3745 -0.7633  0.1971
  548MOL0     H72291   1.571  11.165   7.767  1.1227  0.3887  0.2035
  548MOL0     H72292   1.515  10.939   7.983 -2.2788 -1.6461  0.1961
  548MOL0     H72293   1.431  10.963   7.845  2.0640  0.2680 -1.0650
  548MOL0     H72294   1.440  11.229   7.977  1.4562  0.2303 -0.5107
  548MOL0     H72295   1.302  11.121   7.981 -0.8488  0.6409  2.3075
  548MOL0     H72296   1.408  11.201   8.196 -1.9113  1.6274 -3.5152
  548MOL0     H72297   1.533  11.081   8.174 -1.3164 -2.5529 -0.6771
  548MOL0     H72298   1.250  10.735   8.232  1.8244 -0.8653 -1.5530
  548MOL0     H72299   1.256  10.615   8.428  0.1465 -0.5906  1.0842
  548MOL0     H72300   1.677  10.407   8.621 -1.1792 -0.5783 -0.4470
  548MOL0     H72301   1.671  10.190   8.755  4.2191  1.6382  1.1367
  548MOL0     H72302   1.792  10.186   9.041 -0.7981  0.4203  0.6198
  548MOL0     H72303   1.754  10.059   8.931  1.9040 -1.1768  1.4059
  548MOL0     H72304   1.677  10.062   9.220  2.5427  1.6968  0.2227
  548MOL0     H72305   1.817   9.983   9.140 -0.0335 -0.1720  1.7788
  548MOL0     H72306   1.677   9.855   8.999 -0.6532 -0.9287  0.9962
  548MOL0     H72307   1.532   9.883   9.091 -1.3453 -0.9792  4.2494
  548MOL0     H72308   1.778   9.774   9.246 -1.2994 -4.2220  2.6456
  548MOL0     H72309   1.614   9.793   9.299  0.5450 -0.7914  1.5254
  548MOL0     H72310   1.652   9.642   9.053  1.8138 -0.2356 -0.3868
  548MOL0     H72311   1.558   9.594   9.191 -2.7458  6.9578 -1.3649
  548MOL0     H72312   1.782   9.516   9.304 -1.0690 -1.6584 -0.1925
  548MOL0     H72313   1.873   9.577   9.171  1.2103 -2.0749  2.9314
  548MOL0     H72314   1.717   9.398   9.021 -1.5798  2.4229  0.4349
  548MOL0     H72315   1.849   9.332   9.118 -0.4725 -0.1582 -1.3722
  548MOL0     H72316   1.575   9.369   9.232 -0.1326  0.6694 -2.7550
  548MOL0     H72317   1.718   9.279   9.291  1.2797  2.1974  0.5495
  548MOL0     H72318   1.462  10.393   9.067 -2.3671 -1.7774 -0.1292
  548MOL0     H72319   1.438  10.590   8.933  0.1835 -1.0838  2.7988
  548MOL0     H72320   1.547  10.921   8.582  0.5747 -1.9553  1.2519
  548MOL0     H72321   1.512  11.054   8.390  3.9063 -1.7965 -1.1931
  548MOL0     H72322   2.154  10.806   9.069 -0.0826 -0.4548 -0.3813
  548MOL0     H72323   2.228  10.557   9.131  0.7249 -0.0014  1.3828
  548MOL0     H72324   2.336  10.155   9.374 -1.8269  1.4899  0.9951
  548MOL0     H72325   2.366   9.911   9.353 -2.1329 -1.3516  1.5702
  548MOL0     H72326   2.342   9.690   9.390  3.6423  2.7248 -0.4865
  548MOL0     H72327   2.449   9.725   9.275  0.1890 -0.4222  2.7597
  548MOL0     H72328   2.272   9.470   9.258  0.7744 -1.5337  0.9403
  548MOL0     H72329   2.401   9.530   9.146 -0.4735 -0.6547 -0.2846
  548MOL0     H72330   2.465   9.474   9.435  0.5749  3.2631 -0.3100
  548MOL0     H72331   2.566   9.524   9.309 -0.0965  0.4047  0.1617
  548MOL0     H72332   2.491   9.312   9.163  2.2330  2.5900 -0.2752
  548MOL0     H72333   2.613   9.302   9.293  0.6409  1.8975  2.7110
  548MOL0     H72334   2.276   9.116   9.472  1.9168 -0.5408  1.3427
  548MOL0     H72335   2.064   9.889   9.050 -2.5283  4.7662 -1.5278
  548MOL0     H72336   2.047  10.103   9.049  2.5727  0.8274 -1.7151
  549MOL0     O72337   1.986   5.621   6.796 -0.0201 -1.1843 -0.0071
  549MOL0     C72338   2.063   5.692   6.855 -0.2109  1.0321 -1.9460
  549MOL0     O72339   2.102   5.817   6.827  0.4008 -0.3588 -1.0071
  549MOL0     C72340   2.031   5.878   6.729  1.2175 -0.1332 -0.7812
  549MOL0     C72341   2.045   5.839   6.599 -0.3896 -0.6785  0.5448
  549MOL0     C72342   1.972   5.904   6.498 -0.3222  1.0027 -0.3428
  549MOL0     C72343   1.872   5.996   6.528 -0.4902 -0.7978 -0.2704
  549MOL0     O72344   1.806   6.060   6.420  0.2417  0.4362  0.0238
  549MOL0     C72345   1.805   6.202   6.432  0.5145  0.4310  0.7366
  549MOL0     C72346   1.687   6.265   6.363 -1.1382 -0.6090  0.8750
  549MOL0     C72347   1.689   6.419   6.333 -0.1795 -0.4951 -0.0787
  549MOL0     C72348   1.809   6.453   6.231 -0.1821  0.1768  0.3237
  549MOL0     C72349   1.930   6.518   6.291 -0.4233  0.5833 -0.7012
  549MOL0     C72350   1.915   6.649   6.356  1.0801  0.7287 -0.5852
  549MOL0     C72351   2.043   6.699   6.423 -0.2096  0.0446  0.2567
  549MOL0     C72352   2.138   6.784   6.344 -0.0492  0.2295  0.2716
  549MOL0     N72353   2.242   6.855   6.417  0.3815  0.2744  0.4741
  549MOL0     C72354   2.384   6.867   6.405 -0.4718  1.2996 -0.9296
  549MOL0     C72355   2.423   6.961   6.499  0.8076  1.0375 -0.5098
  549MOL0     C72356   2.562   7.005   6.533 -0.0705  0.9895 -0.8243
  549MOL0     C72357   2.587   7.147   6.473 -1.1831 -0.0642 -0.7506
  549MOL0     C72358   2.508   7.262   6.533  0.1244 -0.8095 -0.7047
  549MOL0     C72359   2.556   7.406   6.508  0.0463 -0.7748  0.6987
  549MOL0     O72360   2.474   7.453   6.394 -0.1672  0.1674 -0.1795
  549MOL0     C72361   2.448   7.580   6.376 -0.1267  0.3708 -0.1198
  549MOL0     C72362   2.487   7.695   6.448  0.3663 -0.3905 -0.0348
  549MOL0     C72363   2.434   7.820   6.423 -0.5617  0.1828 -0.2741
  549MOL0     C72364   2.346   7.840   6.309  0.6717  0.2535  0.1456
  549MOL0     C72365   2.291   7.968   6.275 -0.4475 -0.1183 -1.8203
  549MOL0     O72366   2.209   7.972   6.166  0.0934 -0.8427  0.1401
  549MOL0     C72367   2.151   8.095   6.108  0.0909  1.2719 -0.2114
  549MOL0     C72368   2.117   8.084   5.971 -0.1776  0.9777 -0.0442
  549MOL0     C72369   2.037   8.182   5.916 -0.1043 -0.6014  0.4040
  549MOL0     C72370   1.996   8.290   5.986 -0.9588 -0.6809 -1.1846
  549MOL0     O72371   1.919   8.394   5.925  0.6394  0.0700  0.1413
  549MOL0     C72372   1.783   8.383   5.950  0.0763 -0.0046 -1.2892
  549MOL0     C72373   1.712   8.309   5.846  0.7473  0.2680 -0.6227
  549MOL0     C72374   1.563   8.313   5.892  0.5996  0.4638  1.4131
  549MOL0     C72375   1.452   8.265   5.796 -0.6148 -0.0316 -0.0125
  549MOL0     C72376   1.316   8.337   5.827 -0.7109 -0.7982  0.3553
  549MOL0     C72377   1.235   8.263   5.935  0.1197  0.2369 -0.4902
  549MOL0     C72378   1.214   8.112   5.905 -0.5849 -0.3485  0.4035
  549MOL0     C72379   1.123   8.053   6.006  0.5984 -0.1165 -0.6135
  549MOL0    Cl72380   1.104   7.872   5.989  0.4554 -0.5801 -0.4912
  549MOL0     C72381   2.039   8.308   6.117 -0.0878 -0.7159 -0.3176
  549MOL0     C72382   2.112   8.210   6.184  0.0662 -0.7330  0.0458
  549MOL0     O72383   2.320   8.065   6.345 -0.1795 -0.3346 -0.2409
  549MOL0     C72384   2.308   7.724   6.240 -0.0608 -1.3595 -0.8289
  549MOL0     C72385   2.363   7.602   6.261 -0.4217 -0.1822  1.2069
  549MOL0     N72386   2.311   6.985   6.578  0.3366  0.6054  0.3309
  549MOL0     N72387   2.210   6.930   6.522 -0.1749 -0.1761 -0.3535
  549MOL0     C72388   1.844   6.019   6.662 -0.5544 -0.3517  1.3387
  549MOL0     C72389   1.927   5.964   6.764  0.2805 -0.7880 -0.2778
  549MOL0     C72390   2.130   5.635   6.979  0.0331  0.6304  1.2486
  549MOL0     C72391   2.151   5.497   7.002  0.3900  0.4986  0.1926
  549MOL0     C72392   2.224   5.450   7.113 -0.0899  0.2164  0.7161
  549MOL0     C72393   2.273   5.539   7.214  0.3088 -1.2608  0.1688
  549MOL0     O72394   2.338   5.487   7.320  0.4084 -0.3127 -0.0242
  549MOL0     C72395   2.482   5.516   7.321 -0.0456  0.2487 -0.6801
  549MOL0     C72396   2.558   5.380   7.283 -0.8463  0.2841 -0.7242
  549MOL0     C72397   2.512   5.259   7.364  0.6485 -0.6533  0.1698
  549MOL0     C72398   2.407   5.177   7.295  0.4936  0.3412 -0.0350
  549MOL0     C72399   2.448   5.114   7.170  0.6226 -0.0946 -0.1609
  549MOL0     C72400   2.484   5.070   7.065 -0.0759  0.5689 -0.5403
  549MOL0     C72401   2.236   5.675   7.200 -0.5138  0.7268 -0.3975
  549MOL0     C72402   2.169   5.720   7.081 -0.0943 -1.0143 -0.2507
  549MOL0     H72403   2.111   5.758   6.572 -1.7761 -2.1130  1.2827
  549MOL0     H72404   2.000   5.875   6.397  3.8383  0.8972  0.6631
  549MOL0     H72405   1.902   6.227   6.389  0.5266 -2.6364 -1.3120
  549MOL0     H72406   1.790   6.246   6.531  0.2488 -0.2411  1.0020
  549MOL0     H72407   1.607   6.235   6.431 -2.9018  0.2464 -0.6965
  549MOL0     H72408   1.661   6.214   6.269 -0.0468  0.7162 -0.1835
  549MOL0     H72409   1.697   6.473   6.428 -0.7223 -1.3034  0.4369
  549MOL0     H72410   1.596   6.449   6.284 -0.1585  1.0931  0.7879
  549MOL0     H72411   1.841   6.352   6.206 -3.0054 -0.9101  0.7201
  549MOL0     H72412   1.785   6.511   6.141  4.5228  1.3300 -0.4425
  549MOL0     H72413   1.990   6.540   6.202  0.2468  2.6564  0.2084
  549MOL0     H72414   1.982   6.451   6.361  0.7471  2.2285  0.0660
  549MOL0     H72415   1.843   6.652   6.438 -0.1095  0.6639 -1.5908
  549MOL0     H72416   1.889   6.727   6.283  3.0783  3.3369  1.2961
  549MOL0     H72417   2.004   6.760   6.505  1.1604 -1.4951  2.1509
  549MOL0     H72418   2.091   6.617   6.477  0.2185  0.8376  1.1223
  549MOL0     H72419   2.073   6.856   6.294 -2.0225 -2.1823 -0.8277
  549MOL0     H72420   2.184   6.724   6.265  1.2519 -0.9982  1.8869
  549MOL0     H72421   2.445   6.807   6.338 -0.8018  0.6737 -0.6790
  549MOL0     H72422   2.626   6.932   6.482  0.8119  1.8826 -1.0210
  549MOL0     H72423   2.587   6.997   6.639  1.4705  2.2303 -1.0393
  549MOL0     H72424   2.566   7.131   6.367  0.5072 -3.5175 -0.7260
  549MOL0     H72425   2.693   7.175   6.471 -1.5177  2.2523  3.0934
  549MOL0     H72426   2.399   7.267   6.522 -0.1006  1.5642  1.5081
  549MOL0     H72427   2.519   7.250   6.641  3.0578 -1.6669 -1.0302
  549MOL0     H72428   2.663   7.405   6.488  0.4073 -2.7119  2.4062
  549MOL0     H72429   2.543   7.468   6.597  2.3133 -1.5400  1.6248
  549MOL0     H72430   2.556   7.679   6.531  1.4749 -0.8272 -1.0100
  549MOL0     H72431   2.457   7.901   6.492  1.8143  0.8787 -1.7890
  549MOL0     H72432   2.164   7.999   5.923  4.7431  1.5210  3.1035
  549MOL0     H72433   1.997   8.153   5.820  0.3565  0.2828 -0.0663
  549MOL0     H72434   1.761   8.489   5.942  0.6915  0.1981 -0.4443
  549MOL0     H72435   1.767   8.341   6.050 -2.0619  1.5151 -0.9184
  549MOL0     H72436   1.744   8.204   5.841  2.0150  0.6854 -2.3066
  549MOL0     H72437   1.740   8.344   5.746 -0.9735 -0.9498 -1.5715
  549MOL0     H72438   1.542   8.419   5.906  0.7542  1.3661 -3.5399
  549MOL0     H72439   1.552   8.259   5.987  0.5903 -1.2584  0.4626
  549MOL0     H72440   1.486   8.286   5.694 -0.2191 -2.9671 -0.5790
  549MOL0     H72441   1.442   8.157   5.804  0.3532 -0.1029  0.3767
  549MOL0     H72442   1.253   8.349   5.738 -1.9579  1.0657  1.3998
  549MOL0     H72443   1.341   8.440   5.855  0.8243 -0.7380 -1.0515
  549MOL0     H72444   1.141   8.316   5.950  0.6938  1.4059 -0.8556
  549MOL0     H72445   1.281   8.276   6.034  1.5202  0.3348 -1.1184
  549MOL0     H72446   1.168   8.115   5.806 -0.0655 -0.7509  0.1462
  549MOL0     H72447   1.310   8.060   5.899  0.3475  1.3191  0.0477
  549MOL0     H72448   1.020   8.088   6.007  1.1142  1.5434  0.9355
  549MOL0     H72449   1.166   8.080   6.103  1.8580  3.3645 -1.9548
  549MOL0     H72450   2.006   8.391   6.179  1.0884  1.5650 -2.5965
  549MOL0     H72451   2.143   8.232   6.286 -1.0424  1.9291 -0.1186
  549MOL0     H72452   2.228   7.734   6.167  0.2212  1.8730 -0.8460
  549MOL0     H72453   2.333   7.525   6.191  0.6281  0.2468  0.2476
  549MOL0     H72454   1.761   6.084   6.689  0.2402 -0.2084  3.6403
  549MOL0     H72455   1.888   5.985   6.863  1.0876 -6.2545  1.5597
  549MOL0     H72456   2.110   5.424   6.932 -0.0189  1.2704 -0.3846
  549MOL0     H72457   2.232   5.342   7.118 -0.8652 -0.0865 -2.3558
  549MOL0     H72458   2.517   5.542   7.421 -0.2030  0.5100 -0.6927
  549MOL0     H72459   2.525   5.580   7.243 -0.5776  1.7440  0.2162
  549MOL0     H72460   2.556   5.367   7.175  1.2247  1.8735 -1.0147
  549MOL0     H72461   2.661   5.405   7.309 -1.3095 -1.0261  2.9595
  549MOL0     H72462   2.478   5.296   7.461 -0.2840 -1.8764  0.3229
  549MOL0     H72463   2.597   5.198   7.394  1.1895 -1.0526 -1.9807
  549MOL0     H72464   2.364   5.105   7.366  2.3102 -0.3178  0.4363
  549MOL0     H72465   2.324   5.245   7.272  1.5072  1.1477 -1.3932
  549MOL0     H72466   2.518   5.021   6.976  2.7278  3.4214 -1.2440
  549MOL0     H72467   2.277   5.742   7.275  1.9406 -1.0933  0.0088
  549MOL0     H72468   2.153   5.826   7.062 -1.3765 -1.4322 -1.7236
  550MOL0     O72469   4.582   5.739   4.185  0.5665  0.9175  0.4052
  550MOL0     C72470   4.703   5.710   4.176 -0.7233  0.3526 -0.4474
  550MOL0     O72471   4.764   5.662   4.067  0.2290 -0.2633 -0.1998
  550MOL0     C72472   4.692   5.659   3.948  0.1767  0.4859 -0.2443
  550MOL0     C72473   4.586   5.570   3.927  0.2529  0.4073 -0.6811
  550MOL0     C72474   4.517   5.566   3.806  0.3610 -0.2890  0.2551
  550MOL0     C72475   4.536   5.658   3.711  0.5878 -0.0077  0.8820
  550MOL0     O72476   4.462   5.652   3.592  0.4743  1.0015  0.0519
  550MOL0     C72477   4.523   5.691   3.476 -0.6161 -0.2632  0.0300
  550MOL0     C72478   4.438   5.618   3.369  1.2862 -0.1660  0.3397
  550MOL0     C72479   4.498   5.475   3.357 -0.5697  0.6934  0.2495
  550MOL0     C72480   4.443   5.407   3.234 -0.2715 -0.0089  0.0059
  550MOL0     C72481   4.515   5.273   3.223  0.1848  0.3394  0.4555
  550MOL0     C72482   4.498   5.207   3.082 -0.6824 -0.3983  0.5833
  550MOL0     C72483   4.525   5.059   3.082  0.6526 -0.4092  1.6921
  550MOL0     C72484   4.673   5.027   3.116 -0.2799  0.0083  1.1994
  550MOL0     N72485   4.714   4.888   3.090  0.2031 -0.8661  0.6350
  550MOL0     C72486   4.823   4.835   3.159 -0.5007 -0.3757  0.0343
  550MOL0     C72487   4.832   4.709   3.109 -0.1269 -0.0615 -0.8283
  550MOL0     C72488   4.918   4.599   3.148 -0.5316  0.1282  0.9527
  550MOL0     C72489   4.933   4.579   3.296  0.6867 -0.3738  0.7267
  550MOL0     C72490   5.061   4.502   3.325  0.3048 -0.1700  0.4306
  550MOL0     C72491   5.085   4.373   3.238 -0.2598 -0.8319  0.3051
  550MOL0     O72492   5.212   4.320   3.269 -0.3372 -0.0402  0.9642
  550MOL0     C72493   5.235   4.279   3.396  0.5831 -1.3216  0.1186
  550MOL0     C72494   5.354   4.333   3.453  0.4335 -0.2658 -0.4088
  550MOL0     C72495   5.394   4.301   3.587  1.4258 -0.2264  0.1297
  550MOL0     C72496   5.324   4.211   3.662 -0.1285  0.0593  1.0468
  550MOL0     C72497   5.371   4.185   3.802 -0.6908 -0.8042  0.4700
  550MOL0     O72498   5.488   4.239   3.845  0.5574 -0.7256  0.8058
  550MOL0     C72499   5.559   4.188   3.947 -0.6929  0.3730 -0.3402
  550MOL0     C72500   5.586   4.047   3.965 -0.1698 -0.8852  0.0580
  550MOL0     C72501   5.665   3.999   4.066  0.0848 -0.2149  0.2609
  550MOL0     C72502   5.723   4.090   4.163  0.1475  0.4596 -0.0088
  550MOL0     O72503   5.789   4.042   4.273  1.0662 -0.1578  0.7037
  550MOL0     C72504   5.763   4.101   4.405  0.6084  0.7844  0.5577
  550MOL0     C72505   5.789   3.995   4.513  0.1750  0.1830  0.3705
  550MOL0     C72506   5.800   4.068   4.649  0.6742  0.5387 -0.0872
  550MOL0     C72507   5.674   4.139   4.694  0.3875  1.3075 -0.3934
  550MOL0     C72508   5.570   4.038   4.749  0.4756 -1.0377 -1.5841
  550MOL0     C72509   5.468   4.107   4.840  0.4847  0.0801  0.8610
  550MOL0     C72510   5.382   4.011   4.913  1.0256  0.0682  0.1991
  550MOL0     C72511   5.293   4.091   5.002 -0.0596 -0.7222 -0.3621
  550MOL0    Cl72512   5.155   4.162   4.918  0.5426 -0.3693  0.1685
  550MOL0     C72513   5.711   4.226   4.130  0.2052  1.0203 -0.9545
  550MOL0     C72514   5.620   4.273   4.036  0.9730  0.0969 -0.0894
  550MOL0     O72515   5.294   4.123   3.865  0.4546  0.9424 -0.3264
  550MOL0     C72516   5.211   4.150   3.594  0.1123 -0.4681 -0.3984
  550MOL0     C72517   5.169   4.175   3.460  0.2944  0.3315  1.0521
  550MOL0     N72518   4.729   4.693   3.028 -0.2224  0.4825 -0.2270
  550MOL0     N72519   4.662   4.798   3.006 -0.8234 -0.1261 -0.3094
  550MOL0     C72520   4.637   5.757   3.734 -0.0029  0.9458  0.9402
  550MOL0     C72521   4.723   5.752   3.857  1.1376  0.4953  0.2853
  550MOL0     C72522   4.789   5.712   4.297  0.4985 -0.3483  0.7101
  550MOL0     C72523   4.927   5.721   4.286 -1.1105  0.2267 -1.1170
  550MOL0     C72524   4.998   5.729   4.407  0.1725 -0.4527  0.4998
  550MOL0     C72525   4.943   5.736   4.525 -0.2702 -0.2870  0.1991
  550MOL0     O72526   5.021   5.742   4.634 -0.1246 -0.2251 -0.3909
  550MOL0     C72527   5.062   5.876   4.680 -0.0368  0.6650 -0.4104
  550MOL0     C72528   5.142   5.965   4.572  0.9909 -1.1490 -1.3339
  550MOL0     C72529   5.158   6.104   4.636  0.3311 -0.5776  0.7478
  550MOL0     C72530   5.257   6.203   4.556  0.8418 -0.1212  0.7165
  550MOL0     C72531   5.314   6.299   4.645  0.3844 -0.7398 -0.4625
  550MOL0     C72532   5.368   6.395   4.713  0.1673  0.0668 -0.6406
  550MOL0     C72533   4.805   5.723   4.532 -0.0075  1.1858 -0.5325
  550MOL0     C72534   4.722   5.711   4.418  0.3196 -1.0256 -0.1121
  550MOL0     H72535   4.554   5.490   3.993  3.4279 -0.6804 -0.3300
  550MOL0     H72536   4.451   5.485   3.775 -0.8264  1.0493 -0.8303
  550MOL0     H72537   4.626   5.656   3.466 -0.7983 -1.0384  0.7903
  550MOL0     H72538   4.514   5.800   3.470 -1.8442 -0.2261  1.8997
  550MOL0     H72539   4.453   5.676   3.277 -0.4459 -4.0152 -2.6523
  550MOL0     H72540   4.329   5.610   3.375  0.9599  2.5887 -0.5161
  550MOL0     H72541   4.472   5.410   3.441  1.6998  0.4933  0.8726
  550MOL0     H72542   4.608   5.479   3.364 -0.5668 -1.2493  4.3968
  550MOL0     H72543   4.336   5.392   3.245 -0.5652  2.2577  0.8772
  550MOL0     H72544   4.455   5.473   3.148  1.8808  1.9634  1.6585
  550MOL0     H72545   4.473   5.204   3.298 -0.0219  0.8548  0.8173
  550MOL0     H72546   4.620   5.294   3.245  0.9566 -0.9443 -1.6526
  550MOL0     H72547   4.566   5.261   3.016 -3.9420  0.0417 -2.7458
  550MOL0     H72548   4.397   5.229   3.046  0.3065  2.4404 -0.7742
  550MOL0     H72549   4.471   5.012   3.165 -3.3055  1.7172  0.6097
  550MOL0     H72550   4.493   5.016   2.987  2.1932  1.3037  0.3280
  550MOL0     H72551   4.698   5.069   3.214 -0.2902  2.3726  0.2575
  550MOL0     H72552   4.740   5.085   3.052 -0.6977  2.8134  3.1382
  550MOL0     H72553   4.890   4.867   3.238  1.9325 -2.1455 -1.1939
  550MOL0     H72554   5.017   4.624   3.109 -1.5809  1.8950 -0.8179
  550MOL0     H72555   4.886   4.504   3.105 -2.6605  0.8948  0.6810
  550MOL0     H72556   4.851   4.515   3.329 -1.1609  0.4120 -2.0300
  550MOL0     H72557   4.919   4.670   3.355 -0.3663 -0.3201  0.4068
  550MOL0     H72558   5.145   4.570   3.311  0.2504 -0.0127  0.8563
  550MOL0     H72559   5.060   4.487   3.433  0.0317  2.7697  0.9124
  550MOL0     H72560   5.090   4.399   3.132  0.8761 -0.0910  0.5255
  550MOL0     H72561   5.002   4.304   3.255 -0.6152 -0.7057 -0.8566
  550MOL0     H72562   5.406   4.395   3.381 -0.6644  1.0536 -0.1173
  550MOL0     H72563   5.476   4.352   3.636  0.0243  0.3622  1.9750
  550MOL0     H72564   5.526   3.987   3.898 -0.3486 -0.4540 -0.1770
  550MOL0     H72565   5.670   3.892   4.080  1.0683 -0.0623  1.2277
  550MOL0     H72566   5.656   4.119   4.417  0.3485 -1.0327  1.4137
  550MOL0     H72567   5.839   4.179   4.410  0.8090  0.7953 -1.5108
  550MOL0     H72568   5.877   3.941   4.477  1.2613  1.5936  0.8058
  550MOL0     H72569   5.705   3.925   4.522 -2.5253  2.9138 -1.7290
  550MOL0     H72570   5.870   4.151   4.633 -0.9057  2.1239  0.8056
  550MOL0     H72571   5.841   4.001   4.724 -0.3076 -0.8219 -0.7278
  550MOL0     H72572   5.692   4.225   4.759  1.5446 -0.4193  1.6754
  550MOL0     H72573   5.623   4.176   4.605 -2.0136 -2.9230 -1.0597
  550MOL0     H72574   5.625   3.966   4.810 -0.0132 -2.5538 -2.8579
  550MOL0     H72575   5.524   3.979   4.669 -0.6114 -0.3034 -1.5135
  550MOL0     H72576   5.401   4.173   4.784 -0.6995 -1.1504  0.7679
  550MOL0     H72577   5.530   4.163   4.910  1.0460  1.5650 -0.7532
  550MOL0     H72578   5.320   3.953   4.843  1.7704 -1.5453  0.8364
  550MOL0     H72579   5.440   3.942   4.974 -2.3477  0.4472  4.3282
  550MOL0     H72580   5.354   4.150   5.071  1.0823 -2.7509  0.4657
  550MOL0     H72581   5.252   4.028   5.082 -0.7730  2.7514  2.2450
  550MOL0     H72582   5.768   4.306   4.176 -0.6866  2.3074 -2.0138
  550MOL0     H72583   5.611   4.378   4.013  0.6719  0.4171  1.3797
  550MOL0     H72584   5.145   4.081   3.645 -0.4056  1.0043  1.0057
  550MOL0     H72585   5.086   4.123   3.413  0.3899  2.2030 -1.3593
  550MOL0     H72586   4.662   5.828   3.656 -1.0917 -0.0709 -0.3722
  550MOL0     H72587   4.792   5.835   3.869 -0.5534  1.8642  0.9658
  550MOL0     H72588   4.979   5.716   4.191 -2.0270 -3.1909 -1.5441
  550MOL0     H72589   5.106   5.735   4.400 -0.0047  3.8611 -1.8514
  550MOL0     H72590   5.133   5.869   4.763  0.2075 -1.2361 -0.7336
  550MOL0     H72591   4.966   5.919   4.708 -0.7828 -2.2637  2.1724
  550MOL0     H72592   5.240   5.921   4.554  3.1886  0.6325  4.0885
  550MOL0     H72593   5.082   5.988   4.484 -0.3455 -4.5148 -1.4559
  550MOL0     H72594   5.188   6.099   4.741 -0.7063 -3.7650  1.0163
  550MOL0     H72595   5.057   6.145   4.637  0.7923  1.0265 -2.6336
  550MOL0     H72596   5.345   6.145   4.527 -0.6927 -0.3718 -4.4127
  550MOL0     H72597   5.214   6.253   4.469  0.9710  0.1871  0.8312
  550MOL0     H72598   5.409   6.477   4.767 -0.0625  0.3264 -0.8548
  550MOL0     H72599   4.759   5.713   4.630  0.7947  1.6269 -0.1078
  550MOL0     H72600   4.614   5.705   4.427 -0.2724  3.2825 -1.7373
  551MOL0     O72601   9.871   8.526   9.100  0.6735  0.1222 -0.5082
  551MOL0     C72602   9.965   8.453   9.055  1.5274  0.1369 -0.5425
  551MOL0     O72603  10.101   8.483   9.069  0.4764  0.1843  0.5487
  551MOL0     C72604  10.131   8.556   9.181 -0.5769 -1.3434  0.6667
  551MOL0     C72605  10.222   8.513   9.272 -0.5223 -0.1160  0.8195
  551MOL0     C72606  10.266   8.599   9.365 -0.0486 -0.1876 -0.5389
  551MOL0     C72607  10.221   8.732   9.381  0.0742  0.4596  0.2835
  551MOL0     O72608  10.265   8.800   9.481  0.5398  0.2634  0.0922
  551MOL0     C72609  10.158   8.870   9.557  0.3741  0.8034  0.0699
  551MOL0     C72610  10.235   8.910   9.688  0.2046 -0.8635  0.0488
  551MOL0     C72611  10.155   9.009   9.761 -0.0928  0.2450  1.0897
  551MOL0     C72612  10.260   9.092   9.842 -0.9322 -0.9761 -1.7128
  551MOL0     C72613  10.204   9.191   9.949  0.7272 -0.2053 -1.1056
  551MOL0     C72614  10.114   9.307   9.893 -0.0147  0.5114  0.1350
  551MOL0     C72615  10.039   9.404   9.976  0.1704  0.4359 -1.0170
  551MOL0     C72616   9.937   9.341  10.071 -0.8981  0.0379  0.6953
  551MOL0     N72617   9.826   9.282   9.998 -0.2971 -0.0673  0.7935
  551MOL0     C72618   9.717   9.347   9.958 -0.5312 -0.4140 -0.1117
  551MOL0     C72619   9.652   9.264   9.883  0.1170  0.6029 -0.6423
  551MOL0     C72620   9.566   9.326   9.780  0.4443  0.5619 -0.3590
  551MOL0     C72621   9.640   9.328   9.642 -0.4320 -0.4366  0.0436
  551MOL0     C72622   9.555   9.393   9.535 -0.5348  0.1594  0.2398
  551MOL0     C72623   9.601   9.384   9.394 -0.1721 -0.3089 -1.6756
  551MOL0     O72624   9.513   9.451   9.307 -0.1982 -0.6571  1.2493
  551MOL0     C72625   9.410   9.382   9.249 -0.4706  0.0882  0.0496
  551MOL0     C72626   9.433   9.303   9.132 -0.0016 -0.8729 -0.1648
  551MOL0     C72627   9.332   9.234   9.082 -0.8366  0.0596  1.3440
  551MOL0     C72628   9.198   9.238   9.129  0.1080 -0.3104 -0.2479
  551MOL0     C72629   9.081   9.157   9.079 -0.5192  0.4518 -0.4560
  551MOL0     O72630   9.116   9.076   8.974 -1.3299  0.2035  0.4047
  551MOL0     C72631   9.043   8.970   8.923 -1.2109  0.1661  0.4437
  551MOL0     C72632   9.083   8.902   8.799  0.5566  0.0154  0.5034
  551MOL0     C72633   9.018   8.785   8.752  0.0045 -0.3099 -0.4384
  551MOL0     C72634   8.906   8.735   8.819  0.2047  0.1842  0.6149
  551MOL0     O72635   8.841   8.618   8.784 -0.6656  0.0938 -0.0740
  551MOL0     C72636   8.920   8.516   8.716  0.4593 -0.3485  0.3629
  551MOL0     C72637   8.846   8.387   8.706 -0.5727  0.9926 -0.2851
  551MOL0     C72638   8.832   8.317   8.841 -0.3010 -0.5017  1.2652
  551MOL0     C72639   8.742   8.195   8.830 -0.1843  0.2021 -0.3481
  551MOL0     C72640   8.745   8.137   8.976 -1.0343  0.0365  0.4347
  551MOL0     C72641   8.649   8.014   8.994  0.1727 -0.8940  1.1051
  551MOL0     C72642   8.709   7.875   8.958 -0.0192 -0.3954 -0.2545
  551MOL0     C72643   8.604   7.768   8.981  0.1143 -0.5532 -0.5563
  551MOL0    Cl72644   8.680   7.604   8.974 -0.0917 -0.0708  0.1061
  551MOL0     C72645   8.863   8.800   8.937  1.1980 -0.1791  0.2347
  551MOL0     C72646   8.937   8.915   8.994  1.2087  0.6664 -0.9120
  551MOL0     O72647   8.971   9.175   9.130 -0.4907 -0.1210 -0.1480
  551MOL0     C72648   9.182   9.312   9.252  0.8825  0.6017  0.7143
  551MOL0     C72649   9.282   9.388   9.305 -0.1302 -0.1227  0.2093
  551MOL0     N72650   9.721   9.149   9.862 -0.0655 -0.0011  0.5242
  551MOL0     N72651   9.825   9.162   9.931 -1.0029 -0.0978  0.4638
  551MOL0     C72652  10.134   8.786   9.277 -0.3850  0.5953 -0.5670
  551MOL0     C72653  10.086   8.695   9.184  0.4516  0.6387  0.3996
  551MOL0     C72654   9.924   8.329   8.977  0.3805 -0.7304  0.4247
  551MOL0     C72655   9.793   8.277   8.987  0.6338  0.4054 -0.3205
  551MOL0     C72656   9.763   8.162   8.918  0.0247  0.2008 -0.0542
  551MOL0     C72657   9.862   8.092   8.847 -0.0284 -0.1724 -0.8201
  551MOL0     O72658   9.839   7.971   8.790 -0.2318  0.3861  0.0780
  551MOL0     C72659   9.862   7.857   8.878 -0.0303 -0.7359  0.2962
  551MOL0     C72660   9.791   7.741   8.818  0.3335 -0.6839 -0.1428
  551MOL0     C72661   9.799   7.609   8.895  0.6029 -0.4038 -1.2306
  551MOL0     C72662   9.722   7.505   8.825 -0.1424 -0.0274 -0.8097
  551MOL0     C72663   9.578   7.503   8.857 -0.1766 -1.0174 -0.2275
  551MOL0     C72664   9.465   7.506   8.884 -0.2281  0.1375 -0.0336
  551MOL0     C72665   9.986   8.149   8.825  1.1803 -1.0060  0.2394
  551MOL0     C72666  10.016   8.267   8.899  0.6059  0.3959  0.1949
  551MOL0     H72667  10.255   8.410   9.279  1.9053  0.6256  1.4465
  551MOL0     H72668  10.333   8.570   9.446 -2.6187  1.1532  2.2432
  551MOL0     H72669  10.080   8.805   9.596 -0.3313 -0.1272 -2.6834
  551MOL0     H72670  10.115   8.955   9.503 -2.0507 -0.3728  0.0344
  551MOL0     H72671  10.327   8.960   9.657 -1.0159  1.1676 -0.4352
  551MOL0     H72672  10.263   8.824   9.750 -0.9450  0.5937  2.7569
  551MOL0     H72673  10.080   8.959   9.823 -1.3574  1.8791  0.9292
  551MOL0     H72674  10.112   9.071   9.683  0.0098 -0.6668  0.2899
  551MOL0     H72675  10.329   9.028   9.899  0.6884  2.8132  1.0724
  551MOL0     H72676  10.310   9.162   9.775  3.0467 -1.9407 -0.0710
  551MOL0     H72677  10.280   9.252   9.999  1.9449 -1.3419 -1.5284
  551MOL0     H72678  10.140   9.136  10.019 -2.2136  1.2975 -2.4124
  551MOL0     H72679  10.035   9.265   9.830 -1.8555  3.2167  0.4717
  551MOL0     H72680  10.191   9.364   9.841  0.3764  2.1718  2.3723
  551MOL0     H72681  10.100   9.461  10.046 -0.6248  2.3797 -1.8414
  551MOL0     H72682   9.973   9.471   9.920  0.6429  4.0368  2.2673
  551MOL0     H72683   9.906   9.428  10.130 -2.7024  0.7901 -1.2436
  551MOL0     H72684   9.993   9.270  10.133  0.5841  0.5174 -0.0441
  551MOL0     H72685   9.702   9.454   9.968  2.0577 -0.0136  0.4366
  551MOL0     H72686   9.548   9.430   9.809  2.3441  0.0026  3.4077
  551MOL0     H72687   9.477   9.262   9.776  0.9078 -0.3927  2.6168
  551MOL0     H72688   9.653   9.223   9.615  0.1205 -0.3469 -0.0406
  551MOL0     H72689   9.738   9.376   9.645 -0.7022  0.1153  0.1607
  551MOL0     H72690   9.454   9.353   9.545  0.1045 -1.5980 -0.0047
  551MOL0     H72691   9.548   9.499   9.561  0.8433  0.2340  0.3628
  551MOL0     H72692   9.608   9.281   9.357 -0.9150 -0.3304 -1.7555
  551MOL0     H72693   9.698   9.435   9.400 -0.7207  0.6577 -0.8374
  551MOL0     H72694   9.530   9.302   9.083  0.8558 -0.7270  1.4388
  551MOL0     H72695   9.351   9.181   8.989  1.7231  4.2467 -0.8818
  551MOL0     H72696   9.162   8.947   8.740 -0.4146 -2.5811 -3.1736
  551MOL0     H72697   9.057   8.738   8.663  0.4942  1.0121 -0.9425
  551MOL0     H72698   9.016   8.518   8.768  1.8324 -0.8712 -2.0295
  551MOL0     H72699   8.944   8.541   8.612 -2.1429  0.9881 -0.0009
  551MOL0     H72700   8.897   8.323   8.634 -3.3021 -2.4358  0.5595
  551MOL0     H72701   8.756   8.414   8.650 -0.1848 -0.5667 -1.7136
  551MOL0     H72702   8.785   8.390   8.907  1.1212 -1.0443  2.9673
  551MOL0     H72703   8.930   8.285   8.878  0.3486  0.0442  0.0883
  551MOL0     H72704   8.643   8.231   8.801  0.6134  1.4329 -1.6989
  551MOL0     H72705   8.774   8.130   8.748 -2.1102  1.0974 -1.8911
  551MOL0     H72706   8.721   8.222   9.041 -1.7526  2.2191 -2.4792
  551MOL0     H72707   8.845   8.103   9.006 -0.9945  0.3313  0.6429
  551MOL0     H72708   8.557   8.012   8.936  1.6936 -0.4596 -1.4461
  551MOL0     H72709   8.627   8.019   9.101  2.7049 -3.1273  1.8437
  551MOL0     H72710   8.738   7.880   8.852 -0.8422  1.5483 -0.4272
  551MOL0     H72711   8.792   7.834   9.016 -1.4965 -0.9825  1.5415
  551MOL0     H72712   8.514   7.777   8.919 -1.2244 -0.9524  1.2458
  551MOL0     H72713   8.560   7.771   9.081  1.1575 -2.3995  0.0181
  551MOL0     H72714   8.769   8.773   8.984  1.4802  2.3017  2.4354
  551MOL0     H72715   8.888   8.953   9.083  2.9541  0.9845 -0.0349
  551MOL0     H72716   9.087   9.316   9.304 -0.8024  1.1642 -2.1569
  551MOL0     H72717   9.278   9.454   9.390 -1.3520  0.5546 -0.3588
  551MOL0     H72718  10.094   8.886   9.280 -1.2821  0.2715 -1.2912
  551MOL0     H72719  10.017   8.722   9.106 -2.4112  0.4567  2.7050
  551MOL0     H72720   9.715   8.329   9.043  1.0496  0.5195  0.1558
  551MOL0     H72721   9.661   8.126   8.916 -0.7352  2.1932  0.3004
  551MOL0     H72722   9.831   7.875   8.981  1.1474 -1.8765  0.8663
  551MOL0     H72723   9.971   7.843   8.871  0.8671  4.4435 -0.5982
  551MOL0     H72724   9.687   7.772   8.805  0.3362 -0.1708  0.9090
  551MOL0     H72725   9.827   7.713   8.719 -0.3479 -0.5375 -0.4380
  551MOL0     H72726   9.777   7.622   9.001 -0.4822 -0.2525 -1.4707
  551MOL0     H72727   9.903   7.578   8.881  0.4470 -2.9419  2.1113
  551MOL0     H72728   9.726   7.508   8.716 -4.6807  1.3405 -1.1640
  551MOL0     H72729   9.762   7.405   8.845  4.3314  1.6075 -0.2922
  551MOL0     H72730   9.361   7.493   8.904 -0.4674 -0.1365 -1.3556
  551MOL0     H72731  10.056   8.098   8.761  0.1044 -2.7982  0.4404
  551MOL0     H72732  10.115   8.304   8.877  0.9127 -1.2040 -1.3256
  552MOL0     O72733   5.200   8.375   5.534  0.1464 -0.7714 -0.7327
  552MOL0     C72734   5.273   8.409   5.440  1.0734  0.7177 -0.2564
  552MOL0     O72735   5.392   8.360   5.405  0.4681  0.0721  0.4792
  552MOL0     C72736   5.452   8.277   5.489 -1.0081  0.0485 -0.9468
  552MOL0     C72737   5.585   8.301   5.534  0.4255 -0.5960 -0.2549
  552MOL0     C72738   5.646   8.226   5.627 -0.3469  0.5707 -0.0803
  552MOL0     C72739   5.580   8.109   5.676 -0.4263 -0.7950  0.9134
  552MOL0     O72740   5.639   8.004   5.745  0.0961 -0.9461  0.1731
  552MOL0     C72741   5.755   8.019   5.828 -0.5957 -0.1032  0.1626
  552MOL0     C72742   5.866   7.924   5.781  0.4129  0.0674  0.4528
  552MOL0     C72743   5.810   7.788   5.731  0.0601  0.0569  0.1563
  552MOL0     C72744   5.937   7.710   5.681 -0.0157  0.3192  1.4994
  552MOL0     C72745   5.895   7.585   5.591  0.4055 -0.3050 -0.6832
  552MOL0     C72746   6.011   7.506   5.522 -0.4161 -0.3916 -1.5869
  552MOL0     C72747   6.097   7.412   5.597  0.8949 -0.1819  0.7586
  552MOL0     C72748   6.040   7.268   5.606 -0.3827  0.4259 -0.7104
  552MOL0     N72749   6.140   7.184   5.681  0.4430  0.2921 -0.0573
  552MOL0     C72750   6.277   7.199   5.682  0.0783  1.2697 -0.2053
  552MOL0     C72751   6.319   7.100   5.768 -0.8842 -0.3438 -0.2096
  552MOL0     C72752   6.463   7.046   5.774 -0.1667  0.8488  0.5056
  552MOL0     C72753   6.494   6.919   5.697 -0.7105  0.4503  0.0610
  552MOL0     C72754   6.471   6.928   5.541  0.4906 -0.4686 -0.3427
  552MOL0     C72755   6.561   7.016   5.443  0.2305  0.6246  0.5956
  552MOL0     O72756   6.539   7.161   5.465 -0.6735  0.5217 -0.2255
  552MOL0     C72757   6.448   7.225   5.387 -0.5322 -0.6208  0.0706
  552MOL0     C72758   6.465   7.368   5.374  0.2443  1.4367 -0.2210
  552MOL0     C72759   6.361   7.451   5.320  0.1142 -0.0225 -0.5895
  552MOL0     C72760   6.244   7.399   5.261 -0.4857 -0.6297 -0.0842
  552MOL0     C72761   6.132   7.472   5.198  0.1734  0.0356  0.1725
  552MOL0     O72762   6.107   7.613   5.215  0.1486  0.4231 -0.5212
  552MOL0     C72763   5.999   7.669   5.154  0.7018  0.6188 -1.1799
  552MOL0     C72764   5.910   7.729   5.248  0.0932  0.2500 -0.0061
  552MOL0     C72765   5.802   7.801   5.188  0.5160 -0.7196  0.2593
  552MOL0     C72766   5.792   7.827   5.051  0.3571 -0.0491 -0.4421
  552MOL0     O72767   5.697   7.907   4.991 -0.2546 -0.2290  0.2096
  552MOL0     C72768   5.564   7.867   5.018 -0.4775 -0.0222  0.2685
  552MOL0     C72769   5.473   7.891   4.894 -0.3840 -0.5247 -0.7485
  552MOL0     C72770   5.441   8.029   4.861  0.5448 -1.1509  0.3782
  552MOL0     C72771   5.356   8.045   4.735  0.9920  0.4926  0.5015
  552MOL0     C72772   5.369   8.181   4.669  1.0047 -0.8054 -0.5060
  552MOL0     C72773   5.316   8.174   4.527 -0.4195 -0.1209  0.8603
  552MOL0     C72774   5.323   8.319   4.458 -0.3631  0.8043  0.2338
  552MOL0     C72775   5.237   8.316   4.331 -0.0665  0.2232  0.1253
  552MOL0    Cl72776   5.334   8.204   4.215  0.0036  0.4145 -0.2558
  552MOL0     C72777   5.872   7.748   4.965  1.0145 -0.6382 -0.3694
  552MOL0     C72778   5.980   7.668   5.015  0.7022 -0.8873 -0.0236
  552MOL0     O72779   6.076   7.403   5.108 -1.0661  0.0221 -0.3708
  552MOL0     C72780   6.238   7.263   5.271  0.6540  0.7887  0.4651
  552MOL0     C72781   6.334   7.176   5.330  0.6873 -0.1309 -0.2910
  552MOL0     N72782   6.207   7.039   5.838  0.2134  0.2197 -0.5541
  552MOL0     N72783   6.104   7.100   5.778 -0.8481  0.3538  0.6659
  552MOL0     C72784   5.460   8.068   5.619 -0.3598 -0.5992  0.5751
  552MOL0     C72785   5.392   8.149   5.525 -0.4117 -0.5887 -0.3458
  552MOL0     C72786   5.200   8.486   5.344  0.0009 -0.1332  0.6686
  552MOL0     C72787   5.114   8.590   5.383  0.0567 -0.1101  0.5154
  552MOL0     C72788   5.046   8.670   5.289  0.3950 -0.2471  0.0956
  552MOL0     C72789   5.059   8.634   5.155 -0.6740 -0.0658  1.3267
  552MOL0     O72790   5.012   8.724   5.064  0.4041 -0.0834 -0.7797
  552MOL0     C72791   4.876   8.722   5.033 -0.7489  0.6901  0.5722
  552MOL0     C72792   4.857   8.782   4.888  0.1293  0.1642  0.2221
  552MOL0     C72793   4.937   8.711   4.782  0.6733 -0.4818 -0.1109
  552MOL0     C72794   4.878   8.572   4.734 -0.7402 -0.2236  1.0780
  552MOL0     C72795   4.830   8.571   4.592  0.0601 -0.1653 -0.1823
  552MOL0     C72796   4.776   8.551   4.488 -0.0719  0.4245  1.2109
  552MOL0     C72797   5.139   8.525   5.112 -0.2225 -0.0433  0.8067
  552MOL0     C72798   5.211   8.456   5.203 -0.9013  0.5312  0.0153
  552MOL0     H72799   5.642   8.389   5.508  0.4646  0.2126  2.3287
  552MOL0     H72800   5.744   8.246   5.669 -1.5233  1.4240  2.4845
  552MOL0     H72801   5.729   7.972   5.924 -2.2717  0.3598 -0.0401
  552MOL0     H72802   5.797   8.119   5.845  3.3613 -1.9633  3.0156
  552MOL0     H72803   5.941   7.904   5.857  1.4056  0.6464 -0.3455
  552MOL0     H72804   5.910   7.970   5.692  0.9034  0.3570  0.8490
  552MOL0     H72805   5.737   7.801   5.650  1.3313  1.8020 -0.7681
  552MOL0     H72806   5.764   7.736   5.815  0.3392  0.7152  0.7246
  552MOL0     H72807   5.976   7.766   5.595 -4.9239 -0.6932 -1.7718
  552MOL0     H72808   6.016   7.694   5.755  0.1019 -1.1210  1.0870
  552MOL0     H72809   5.825   7.618   5.513 -1.3719 -2.1125  0.0492
  552MOL0     H72810   5.847   7.503   5.645 -2.1587  2.0912  0.9456
  552MOL0     H72811   6.056   7.578   5.453 -2.4692  0.8048 -1.7624
  552MOL0     H72812   5.957   7.438   5.455 -0.7583 -0.6554 -1.0572
  552MOL0     H72813   6.181   7.395   5.530 -2.0104 -2.3065 -2.7235
  552MOL0     H72814   6.116   7.445   5.699  0.9751 -1.5332  1.1985
  552MOL0     H72815   6.040   7.232   5.502 -1.0870 -1.5559 -0.0577
  552MOL0     H72816   5.943   7.250   5.652 -1.2680  0.5138 -2.4449
  552MOL0     H72817   6.341   7.244   5.607  0.8094  0.4072 -0.1193
  552MOL0     H72818   6.486   7.013   5.876 -1.7561  0.2296  0.6841
  552MOL0     H72819   6.542   7.122   5.769  0.5862  0.0494  0.0804
  552MOL0     H72820   6.432   6.844   5.748  0.5996  0.9783  2.6197
  552MOL0     H72821   6.600   6.896   5.713 -1.4046 -1.5134  2.4541
  552MOL0     H72822   6.487   6.826   5.504 -3.8537 -2.3554  2.2630
  552MOL0     H72823   6.369   6.959   5.519  0.2493 -2.3015 -2.0884
  552MOL0     H72824   6.524   6.992   5.343  3.0234  1.1723 -0.6539
  552MOL0     H72825   6.667   6.993   5.450  0.2499  0.0369 -1.1062
  552MOL0     H72826   6.549   7.419   5.418  0.8854 -0.4906  0.8684
  552MOL0     H72827   6.370   7.559   5.308 -1.4823  0.1170 -0.6892
  552MOL0     H72828   5.936   7.735   5.354  1.8265 -3.4173 -0.0640
  552MOL0     H72829   5.726   7.851   5.248  0.3108 -0.2767 -0.3559
  552MOL0     H72830   5.533   7.929   5.103  2.2373 -0.9283  2.0639
  552MOL0     H72831   5.560   7.760   5.043 -1.7759 -0.3038 -1.0512
  552MOL0     H72832   5.385   7.844   4.938 -0.7158 -0.1874 -1.0438
  552MOL0     H72833   5.491   7.837   4.800 -2.3984  0.3079 -1.6748
  552MOL0     H72834   5.543   8.061   4.838 -0.5393  3.9974  1.4489
  552MOL0     H72835   5.407   8.079   4.952 -0.1253 -0.6570 -0.1286
  552MOL0     H72836   5.379   7.961   4.669 -3.5269 -0.4376 -0.1602
  552MOL0     H72837   5.250   8.042   4.759  1.5107  0.9548  3.1976
  552MOL0     H72838   5.471   8.219   4.662  0.2794  1.5886  0.8785
  552MOL0     H72839   5.312   8.251   4.731 -1.1720 -3.3014  0.5224
  552MOL0     H72840   5.209   8.152   4.518 -0.2083 -0.3007 -2.4954
  552MOL0     H72841   5.373   8.096   4.475  3.2087  1.4390  2.1718
  552MOL0     H72842   5.309   8.407   4.522  3.2547  2.3071 -0.7725
  552MOL0     H72843   5.424   8.329   4.419  1.0892  0.3231  3.5135
  552MOL0     H72844   5.228   8.416   4.288  0.4664 -0.7751 -2.5446
  552MOL0     H72845   5.137   8.277   4.355 -0.4006  2.5590  3.0834
  552MOL0     H72846   5.864   7.767   4.858 -0.7854 -1.7893 -0.4729
  552MOL0     H72847   6.041   7.623   4.938  0.6181 -1.5810  0.3088
  552MOL0     H72848   6.165   7.204   5.215  0.7790  1.9095 -0.9239
  552MOL0     H72849   6.313   7.070   5.335  0.5214 -0.3618 -3.6546
  552MOL0     H72850   5.432   7.965   5.638  0.3645 -0.8243  0.4491
  552MOL0     H72851   5.301   8.105   5.485 -1.0995 -1.8455  2.3594
  552MOL0     H72852   5.104   8.614   5.488  0.9854  1.9434  0.2010
  552MOL0     H72853   4.993   8.759   5.320 -0.1041 -0.4705 -0.1173
  552MOL0     H72854   4.807   8.784   5.092 -2.1335  0.5177 -0.8195
  552MOL0     H72855   4.841   8.619   5.035 -0.5369  0.5791  3.6899
  552MOL0     H72856   4.752   8.791   4.857 -0.5081 -3.4322  0.9541
  552MOL0     H72857   4.897   8.884   4.896  1.7017 -0.4265  0.0536
  552MOL0     H72858   5.036   8.707   4.828 -0.4418  1.9752  2.8972
  552MOL0     H72859   4.956   8.760   4.685  1.1328 -0.5814 -0.0733
  552MOL0     H72860   4.947   8.488   4.747 -1.2142 -1.0093 -1.1645
  552MOL0     H72861   4.794   8.548   4.800  0.5320  0.8562  3.2069
  552MOL0     H72862   4.724   8.520   4.400  0.6221  1.2889  0.4732
  552MOL0     H72863   5.153   8.502   5.007 -0.9644  2.4215  0.1006
  552MOL0     H72864   5.286   8.395   5.153  1.9349  3.1411  0.7828
  553MOL0     O72865  11.172   3.423   8.388 -0.5826 -0.0454  0.2458
  553MOL0     C72866  11.291   3.441   8.405  0.7417  0.2866 -0.8019
  553MOL0     O72867  11.382   3.332   8.412 -0.1703 -0.2359  0.0654
  553MOL0     C72868  11.328   3.208   8.400  0.1849 -0.9128 -0.7906
  553MOL0     C72869  11.288   3.159   8.277  0.2312  0.5912  0.2461
  553MOL0     C72870  11.229   3.030   8.264 -0.7133 -0.8109 -0.1957
  553MOL0     C72871  11.196   2.961   8.388  0.0781  0.2909  0.4787
  553MOL0     O72872  11.148   2.836   8.374  0.1928  0.0624  0.2829
  553MOL0     C72873  11.024   2.799   8.443 -0.2049  0.0935 -0.9313
  553MOL0     C72874  11.054   2.712   8.565  0.6575  0.0452  0.9030
  553MOL0     C72875  10.920   2.661   8.621 -0.4164 -0.3657 -0.2371
  553MOL0     C72876  10.949   2.572   8.750  0.5534 -0.7669  0.8235
  553MOL0     C72877  10.811   2.506   8.786  0.5875  0.3963 -0.5488
  553MOL0     C72878  10.821   2.354   8.798 -0.1520  0.0684 -0.0024
  553MOL0     C72879  10.805   2.285   8.654 -0.0914 -0.3938 -0.1059
  553MOL0     C72880  10.852   2.141   8.632  0.7756 -0.0606  0.8545
  553MOL0     N72881  10.783   2.036   8.712  0.2508 -0.2257 -0.3155
  553MOL0     C72882  10.732   2.033   8.837  0.3544 -0.1173 -0.1830
  553MOL0     C72883  10.681   1.913   8.860  0.6159 -0.1781 -1.0490
  553MOL0     C72884  10.633   1.850   8.989 -1.1543 -0.3510  0.2069
  553MOL0     C72885  10.748   1.776   9.060 -0.7265  0.0850 -0.5227
  553MOL0     C72886  10.697   1.718   9.189  0.6162  1.0908 -0.3001
  553MOL0     C72887  10.824   1.657   9.261  0.7042 -0.0497  0.5598
  553MOL0     O72888  10.770   1.627   9.393  0.3237 -0.3068  0.1456
  553MOL0     C72889  10.853   1.547   9.474  0.1510 -0.0174 -0.4969
  553MOL0     C72890  10.994   1.562   9.470 -0.0998 -0.8027  0.4721
  553MOL0     C72891  11.068   1.496   9.566 -0.2046 -0.4954 -0.7033
  553MOL0     C72892  11.009   1.427   9.669  0.3193 -0.5473 -0.3396
  553MOL0     C72893  11.091   1.360   9.769 -0.4815 -0.5890 -0.0990
  553MOL0     O72894  11.237   1.383   9.762  0.9380  0.1095  0.4677
  553MOL0     C72895  11.305   1.308   9.850  0.4060  0.0285  0.3659
  553MOL0     C72896  11.395   1.218   9.809 -0.1190 -0.1709  0.5217
  553MOL0     C72897  11.471   1.134   9.888 -0.6171 -0.1245 -0.8842
  553MOL0     C72898  11.467   1.152  10.026  0.2545  0.1461  1.0600
  553MOL0     O72899  11.540   1.056  10.097  0.3456 -0.0565 -0.0469
  553MOL0     C72900  11.601   1.110  10.215  0.4482 -0.9518 -0.7214
  553MOL0     C72901  11.750   1.069  10.217  0.1199  0.2727  0.2161
  553MOL0     C72902  11.816   1.149  10.337 -0.1667  0.4749  1.1331
  553MOL0     C72903  11.954   1.091  10.389 -0.6582  0.7007 -0.7489
  553MOL0     C72904  11.937   1.011  10.519 -0.4075 -0.0470 -0.0502
  553MOL0     C72905  12.020   0.888  10.523  0.6855  0.5560 -0.0628
  553MOL0     C72906  12.165   0.914  10.487  0.4273  0.0927  1.0750
  553MOL0     C72907  12.232   0.991  10.598  0.1609 -0.2249  0.1691
  553MOL0    Cl72908  12.218   0.920  10.769 -0.1964  0.2903 -0.1056
  553MOL0     C72909  11.385   1.250  10.074  0.4547  0.8516 -0.8211
  553MOL0     C72910  11.300   1.318   9.989 -0.5389  0.7378 -0.0076
  553MOL0     O72911  11.031   1.309   9.862  0.0395 -0.2889 -0.3070
  553MOL0     C72912  10.868   1.410   9.668 -0.1561  0.0082 -0.6020
  553MOL0     C72913  10.790   1.468   9.574 -0.2212 -0.6289  0.5066
  553MOL0     N72914  10.691   1.831   8.753 -0.4077 -0.5311  0.4330
  553MOL0     N72915  10.752   1.910   8.661  0.3112  0.4375 -0.9538
  553MOL0     C72916  11.227   3.013   8.513 -0.2495  0.3093  0.4583
  553MOL0     C72917  11.297   3.133   8.518  0.2356 -0.2699 -0.4389
  553MOL0     C72918  11.340   3.574   8.424  0.3148 -0.0680 -0.3303
  553MOL0     C72919  11.260   3.682   8.465  0.3771 -0.5660 -0.3292
  553MOL0     C72920  11.315   3.807   8.480 -0.4457 -0.2335 -0.6858
  553MOL0     C72921  11.453   3.834   8.464 -0.0257 -0.9279  0.6925
  553MOL0     O72922  11.514   3.960   8.475  0.1616  0.2378  0.7500
  553MOL0     C72923  11.440   4.081   8.475 -0.9403 -0.3339  0.0559
  553MOL0     C72924  11.414   4.123   8.333 -0.6595 -0.5008 -0.0263
  553MOL0     C72925  11.301   4.218   8.324 -0.0417 -0.1684 -0.1340
  553MOL0     C72926  11.169   4.191   8.397 -0.1980  0.1130  1.1163
  553MOL0     C72927  11.170   4.239   8.535 -1.2646  1.2267 -1.1091
  553MOL0     C72928  11.187   4.291   8.648 -0.9312  0.1974  0.4234
  553MOL0     C72929  11.535   3.720   8.438  0.2158 -0.0380 -0.2076
  553MOL0     C72930  11.487   3.598   8.414 -0.2521 -0.1526  0.7145
  553MOL0     H72931  11.307   3.207   8.182  2.6409 -1.6195 -0.4970
  553MOL0     H72932  11.209   2.973   8.175 -0.5118 -4.3805  1.8591
  553MOL0     H72933  10.963   2.737   8.377 -0.6656  0.2439 -0.6510
  553MOL0     H72934  10.969   2.889   8.475  0.4050 -0.4272  1.8862
  553MOL0     H72935  11.094   2.779   8.641 -0.3477 -1.6704  3.0289
  553MOL0     H72936  11.116   2.626   8.537  0.0562 -0.5391  1.3261
  553MOL0     H72937  10.869   2.602   8.544  0.9035  0.0659 -1.5002
  553MOL0     H72938  10.863   2.752   8.640  0.7959  0.0875  1.4455
  553MOL0     H72939  11.021   2.495   8.722  3.3107  1.4240  1.3595
  553MOL0     H72940  10.978   2.631   8.837  0.0037  1.9851 -0.7250
  553MOL0     H72941  10.728   2.543   8.725  0.6624 -0.4838 -1.2039
  553MOL0     H72942  10.789   2.545   8.886  0.8743  2.1179 -1.1275
  553MOL0     H72943  10.739   2.308   8.853 -2.7616  1.6633 -2.3075
  553MOL0     H72944  10.920   2.331   8.838 -0.9955 -1.2245  1.4847
  553MOL0     H72945  10.702   2.287   8.617  0.2438 -4.9477 -1.9553
  553MOL0     H72946  10.860   2.348   8.583 -0.6390 -2.0788 -2.1139
  553MOL0     H72947  10.957   2.140   8.662  1.0584  3.4827  0.4027
  553MOL0     H72948  10.841   2.131   8.523 -4.2291  3.1693  0.7247
  553MOL0     H72949  10.756   2.096   8.921 -0.2035 -1.4858  1.0407
  553MOL0     H72950  10.550   1.781   8.970 -2.0122  0.6621  0.1841
  553MOL0     H72951  10.606   1.935   9.053 -0.7277  1.9994 -2.5167
  553MOL0     H72952  10.822   1.851   9.088 -0.1690 -0.1748 -1.2850
  553MOL0     H72953  10.787   1.708   8.984 -1.2968  1.0327 -1.7058
  553MOL0     H72954  10.646   1.792   9.251  2.2834  1.3083  0.8492
  553MOL0     H72955  10.625   1.640   9.160 -0.5405  2.4261 -1.1647
  553MOL0     H72956  10.903   1.734   9.258  1.3245 -0.7143 -1.5621
  553MOL0     H72957  10.849   1.564   9.210  0.2219  0.1276 -0.0068
  553MOL0     H72958  11.032   1.627   9.392  0.4493 -0.6293  0.8734
  553MOL0     H72959  11.176   1.502   9.558 -0.0498 -1.6819  0.1793
  553MOL0     H72960  11.393   1.207   9.701 -1.7116  0.5761  0.4449
  553MOL0     H72961  11.536   1.069   9.830  0.2975  1.1049 -1.2880
  553MOL0     H72962  11.556   1.070  10.307  1.4624 -0.1573  0.1454
  553MOL0     H72963  11.597   1.219  10.219 -0.0921 -1.0059  1.3447
  553MOL0     H72964  11.793   1.097  10.120 -1.8936  0.5235 -0.6480
  553MOL0     H72965  11.743   0.961  10.227  1.4639 -0.0498 -1.8080
  553MOL0     H72966  11.744   1.150  10.420 -0.0778 -0.5996  1.2368
  553MOL0     H72967  11.839   1.250  10.302  0.8008 -0.3217 -0.6055
  553MOL0     H72968  11.991   1.024  10.310 -1.0001  0.1564 -0.4513
  553MOL0     H72969  12.022   1.174  10.412 -1.5845  1.3452 -0.3087
  553MOL0     H72970  11.832   0.983  10.530 -1.7052  3.8098 -1.0998
  553MOL0     H72971  11.963   1.075  10.604  1.3371  1.5519 -1.6724
  553MOL0     H72972  11.980   0.822  10.445 -1.7846 -0.1365  1.6689
  553MOL0     H72973  12.006   0.828  10.613  1.7838  0.6264  0.1671
  553MOL0     H72974  12.214   0.819  10.467  2.2118  1.2406 -0.3961
  553MOL0     H72975  12.175   0.980  10.400  2.1508  1.4099  2.1891
  553MOL0     H72976  12.177   1.085  10.605 -0.6042 -0.7741  2.9872
  553MOL0     H72977  12.334   1.013  10.567  1.2154 -2.6203  1.6954
  553MOL0     H72978  11.374   1.266  10.181 -0.3286  1.1397 -0.9422
  553MOL0     H72979  11.229   1.378  10.044  0.7516  1.6206  0.7430
  553MOL0     H72980  10.808   1.357   9.741 -1.1966  1.6466 -0.2077
  553MOL0     H72981  10.681   1.471   9.571 -0.1922  0.0945  0.0538
  553MOL0     H72982  11.210   2.951   8.600  0.2533 -1.1807 -0.4719
  553MOL0     H72983  11.334   3.177   8.610 -2.8587 -2.3831  1.9963
  553MOL0     H72984  11.157   3.669   8.496  0.3988  2.8852  1.7438
  553MOL0     H72985  11.235   3.874   8.510  0.4417  0.2798  0.6481
  553MOL0     H72986  11.514   4.155   8.506  0.0659  0.0539 -2.9555
  553MOL0     H72987  11.357   4.060   8.543 -0.0800  5.1824  3.4712
  553MOL0     H72988  11.494   4.174   8.278 -3.0119 -0.6586 -3.8771
  553MOL0     H72989  11.387   4.037   8.272 -1.8670  0.6745 -1.2237
  553MOL0     H72990  11.271   4.240   8.221 -1.9147  0.8208  0.5737
  553MOL0     H72991  11.337   4.311   8.367  0.3804  0.4939 -1.8356
  553MOL0     H72992  11.094   4.255   8.350 -2.0067 -0.2851  3.2850
  553MOL0     H72993  11.141   4.087   8.376 -1.5229  1.0386 -2.4281
  553MOL0     H72994  11.197   4.332   8.747 -0.6068  4.0971 -1.0461
  553MOL0     H72995  11.642   3.736   8.441  0.7539 -3.2925  1.9660
  553MOL0     H72996  11.553   3.513   8.398 -1.2616 -0.9931  0.9316
  554MOL0     O72997   0.176   3.153   5.322 -0.0984  0.0893 -0.0267
  554MOL0     C72998   0.065   3.177   5.377 -0.1352 -0.3329  0.2719
  554MOL0     O72999  -0.045   3.234   5.316  0.5420 -0.2851 -0.0643
  554MOL0     C73000  -0.072   3.237   5.175 -0.1717 -1.2353 -1.3739
  554MOL0     C73001  -0.159   3.331   5.123  0.1267  0.0669 -0.4569
  554MOL0     C73002  -0.196   3.338   4.984 -0.3493 -0.5171  0.2709
  554MOL0     C73003  -0.138   3.246   4.892  0.1507 -0.4748 -0.3333
  554MOL0     O73004  -0.154   3.243   4.754 -0.2342 -0.0349  0.0124
  554MOL0     C73005  -0.248   3.332   4.688 -0.7720 -0.0011 -0.2321
  554MOL0     C73006  -0.193   3.474   4.665  0.0490 -0.8861 -0.2679
  554MOL0     C73007  -0.297   3.558   4.582  0.2223 -0.5602  0.4411
  554MOL0     C73008  -0.232   3.680   4.504  0.6643  0.5733 -0.7253
  554MOL0     C73009  -0.327   3.710   4.389  0.1832  0.3309  0.8056
  554MOL0     C73010  -0.273   3.822   4.306 -0.5972 -0.8678 -0.2030
  554MOL0     C73011  -0.387   3.906   4.237 -0.5564 -0.1616  0.3610
  554MOL0     C73012  -0.329   4.016   4.142  0.6632 -0.0713  0.4402
  554MOL0     N73013  -0.296   3.970   4.008  1.3841 -1.3553  0.5472
  554MOL0     C73014  -0.389   3.908   3.931 -0.9284 -0.6849 -0.0715
  554MOL0     C73015  -0.321   3.874   3.825  0.6312 -0.6603  0.4550
  554MOL0     C73016  -0.384   3.804   3.713 -0.5504 -0.9752  0.5617
  554MOL0     C73017  -0.391   3.897   3.598 -1.2357 -0.1702  0.6783
  554MOL0     C73018  -0.420   3.843   3.460  0.1597 -0.4771 -0.6688
  554MOL0     C73019  -0.378   3.927   3.335  0.7586 -0.1158 -0.2181
  554MOL0     O73020  -0.425   4.060   3.332 -0.1429  0.4268 -0.0118
  554MOL0     C73021  -0.391   4.126   3.222 -0.4745 -0.3540 -0.1337
  554MOL0     C73022  -0.266   4.195   3.221 -1.0713  0.0932 -0.6239
  554MOL0     C73023  -0.204   4.235   3.105  0.5792  0.9894 -0.0683
  554MOL0     C73024  -0.273   4.217   2.981  0.0047 -0.2533 -0.1216
  554MOL0     C73025  -0.216   4.283   2.848 -0.6723  0.1399  0.2664
  554MOL0     O73026  -0.281   4.293   2.729  0.3597 -0.3306 -0.1565
  554MOL0     C73027  -0.218   4.303   2.610 -0.1345  0.0345  1.1288
  554MOL0     C73028  -0.303   4.343   2.506 -0.1750 -0.5130  0.2962
  554MOL0     C73029  -0.257   4.385   2.378 -0.8101  0.4569 -0.0378
  554MOL0     C73030  -0.129   4.377   2.339 -0.3601 -0.0235  0.3960
  554MOL0     O73031  -0.096   4.433   2.210  0.4866  0.2442  0.1988
  554MOL0     C73032   0.001   4.369   2.140 -0.8912 -0.4512 -0.0558
  554MOL0     C73033  -0.018   4.390   1.995 -0.3866 -0.4337 -0.3154
  554MOL0     C73034  -0.150   4.322   1.947 -0.3518  0.1321 -0.0620
  554MOL0     C73035  -0.168   4.345   1.799 -0.2544  0.1915  0.2521
  554MOL0     C73036  -0.102   4.231   1.713 -0.6832 -0.2096 -0.9658
  554MOL0     C73037  -0.138   4.226   1.558 -0.8955  0.6944  0.5325
  554MOL0     C73038  -0.084   4.351   1.483  0.0273  0.4153  0.0023
  554MOL0     C73039   0.030   4.334   1.384 -0.0730  0.5302 -0.6452
  554MOL0    Cl73040   0.176   4.259   1.460  0.2536  0.0307  0.0286
  554MOL0     C73041  -0.038   4.320   2.435  0.1109  0.1940 -0.2716
  554MOL0     C73042  -0.078   4.301   2.569 -1.2476  0.8384  1.1187
  554MOL0     O73043  -0.107   4.338   2.862 -0.1526 -0.2696 -0.0855
  554MOL0     C73044  -0.397   4.149   2.980  0.1226  0.2789 -0.0756
  554MOL0     C73045  -0.459   4.108   3.099  1.1031 -0.2792  0.2060
  554MOL0     N73046  -0.192   3.927   3.827  0.3253 -0.0520 -0.2085
  554MOL0     N73047  -0.179   3.979   3.943  0.5841 -0.6554 -0.8144
  554MOL0     C73048  -0.041   3.159   4.944 -0.7313  0.0108  1.0328
  554MOL0     C73049  -0.006   3.160   5.084  0.8197 -0.3058 -0.4725
  554MOL0     C73050   0.063   3.141   5.524 -0.3906 -0.7374 -0.0052
  554MOL0     C73051   0.174   3.102   5.604  0.6489 -0.5270  0.0405
  554MOL0     C73052   0.153   3.080   5.745 -0.2838  0.6620  0.4776
  554MOL0     C73053   0.032   3.089   5.809  0.7377 -0.0763  0.7588
  554MOL0     O73054   0.007   3.082   5.943 -0.4418  0.4424 -0.7547
  554MOL0     C73055   0.113   3.012   6.021 -0.1653 -0.3241  0.2583
  554MOL0     C73056   0.088   3.031   6.172 -1.5068 -0.0441 -0.3317
  554MOL0     C73057  -0.022   2.943   6.236 -0.5314  0.4759  0.3381
  554MOL0     C73058   0.024   2.803   6.269 -0.1498  1.1192 -0.2454
  554MOL0     C73059   0.124   2.820   6.371  0.0953 -0.2840 -0.3586
  554MOL0     C73060   0.211   2.830   6.454  0.0009 -0.9824 -0.0144
  554MOL0     C73061  -0.078   3.113   5.720 -0.5914  0.2438 -0.4444
  554MOL0     C73062  -0.062   3.137   5.581  0.6217 -0.0217  0.1087
  554MOL0     H73063  -0.217   3.388   5.195 -4.8207 -3.7151 -0.8437
  554MOL0     H73064  -0.265   3.412   4.945  1.8361  1.0718 -0.8240
  554MOL0     H73065  -0.338   3.335   4.750 -1.5766 -2.8627 -1.1235
  554MOL0     H73066  -0.276   3.290   4.591  3.2684 -1.5616 -0.9025
  554MOL0     H73067  -0.094   3.475   4.618  0.2127 -0.3437  0.0844
  554MOL0     H73068  -0.170   3.533   4.754  0.6603 -0.9580 -0.3684
  554MOL0     H73069  -0.387   3.571   4.641 -0.8273 -1.2731 -0.9515
  554MOL0     H73070  -0.336   3.492   4.504  0.5404  1.5291 -1.5935
  554MOL0     H73071  -0.208   3.767   4.566 -1.1019  0.1555  0.6272
  554MOL0     H73072  -0.145   3.638   4.453 -0.3543  1.5320 -3.4707
  554MOL0     H73073  -0.423   3.736   4.433  0.0618  2.3941 -0.5822
  554MOL0     H73074  -0.334   3.624   4.322  0.4386  1.0110 -0.1089
  554MOL0     H73075  -0.192   3.790   4.239  1.9710  2.2343  1.1528
  554MOL0     H73076  -0.218   3.894   4.367 -0.2037 -0.6895 -0.7550
  554MOL0     H73077  -0.456   3.842   4.182  1.2746  0.2743 -2.6988
  554MOL0     H73078  -0.444   3.952   4.317  1.7143 -2.2116  3.3801
  554MOL0     H73079  -0.244   4.069   4.186  1.4014 -0.0175 -0.9892
  554MOL0     H73080  -0.404   4.093   4.122  0.5509 -0.4982 -0.8549
  554MOL0     H73081  -0.486   3.868   3.958 -1.5223  1.5985  1.4798
  554MOL0     H73082  -0.486   3.771   3.736  0.4849 -3.6924  1.6912
  554MOL0     H73083  -0.320   3.716   3.697 -0.3043 -1.0348  1.8071
  554MOL0     H73084  -0.298   3.955   3.597 -0.4618 -1.3692  1.6214
  554MOL0     H73085  -0.469   3.974   3.602  0.0057  1.1785 -0.2555
  554MOL0     H73086  -0.373   3.745   3.445  1.3456 -0.0673  0.2078
  554MOL0     H73087  -0.527   3.816   3.462 -0.0086  0.2059  0.5646
  554MOL0     H73088  -0.427   3.875   3.252  0.7239 -2.0440  0.9365
  554MOL0     H73089  -0.274   3.919   3.303  1.0806  1.1005  0.4827
  554MOL0     H73090  -0.207   4.209   3.311 -0.6136  2.0321 -1.1655
  554MOL0     H73091  -0.103   4.274   3.114  0.9989  0.3851 -1.8209
  554MOL0     H73092  -0.407   4.368   2.525 -0.3371  0.1786 -1.3164
  554MOL0     H73093  -0.328   4.418   2.302 -0.4891  1.6855  0.1733
  554MOL0     H73094  -0.018   4.263   2.159 -1.8249 -0.0298  1.5588
  554MOL0     H73095   0.100   4.404   2.170  0.3188 -4.2205  0.8408
  554MOL0     H73096   0.074   4.355   1.947  0.7839 -1.0819  2.2109
  554MOL0     H73097  -0.014   4.498   1.978  1.1395 -1.0126 -5.2172
  554MOL0     H73098  -0.225   4.371   2.009 -2.1271 -1.7305 -0.6173
  554MOL0     H73099  -0.161   4.215   1.967 -0.8401 -0.1729 -1.8135
  554MOL0     H73100  -0.276   4.359   1.782 -0.8943 -1.0125  2.8065
  554MOL0     H73101  -0.135   4.445   1.768 -2.1599  1.1143  1.0024
  554MOL0     H73102  -0.138   4.132   1.746 -1.0241  0.5162  0.9759
  554MOL0     H73103   0.004   4.238   1.737 -0.5244 -0.0952 -1.6951
  554MOL0     H73104  -0.247   4.237   1.555 -0.7368  2.8311  0.9861
  554MOL0     H73105  -0.113   4.135   1.504 -3.2804 -0.1025  0.6539
  554MOL0     H73106  -0.164   4.404   1.429 -1.6450 -1.4633  0.5082
  554MOL0     H73107  -0.050   4.426   1.555 -0.1459 -1.4317  2.0981
  554MOL0     H73108   0.052   4.432   1.341 -2.2561  0.3254 -2.4275
  554MOL0     H73109   0.000   4.283   1.292  0.0920  1.0135 -0.9719
  554MOL0     H73110   0.065   4.332   2.404  0.3368  3.3192  1.3398
  554MOL0     H73111  -0.014   4.274   2.652 -1.1180  0.8790  1.0311
  554MOL0     H73112  -0.457   4.134   2.891 -0.2626 -0.5101  0.3045
  554MOL0     H73113  -0.551   4.053   3.116 -0.4579  2.4597  1.2099
  554MOL0     H73114   0.016   3.096   4.875 -2.0143  1.2670 -1.2977
  554MOL0     H73115   0.070   3.091   5.119 -1.1241 -1.5471  1.5790
  554MOL0     H73116   0.278   3.100   5.570  1.1932 -3.0722  1.6448
  554MOL0     H73117   0.243   3.051   5.800 -0.8452  1.8642  2.1107
  554MOL0     H73118   0.216   3.042   6.002 -1.0964  1.3210 -3.0238
  554MOL0     H73119   0.090   2.909   5.991  1.8658  0.4692 -5.0740
  554MOL0     H73120   0.185   3.013   6.219 -1.6838 -1.3473 -0.4406
  554MOL0     H73121   0.069   3.134   6.203  0.0863  0.7268 -1.7360
  554MOL0     H73122  -0.097   2.945   6.156 -0.6136  1.4524  0.4244
  554MOL0     H73123  -0.058   2.994   6.325  2.2722  0.4462  1.5905
  554MOL0     H73124  -0.062   2.744   6.301  0.1774  0.4169 -0.6318
  554MOL0     H73125   0.087   2.755   6.193  2.8602  1.4099  1.9072
  554MOL0     H73126   0.289   2.816   6.527  0.8216 -3.1361 -1.2239
  554MOL0     H73127  -0.179   3.109   5.760 -1.1612 -2.9593 -1.8375
  554MOL0     H73128  -0.151   3.168   5.528  1.1700  0.8813 -0.2999
  555MOL0     O73129   9.835   4.355   6.506 -0.7883  0.3601  0.5425
  555MOL0     C73130   9.893   4.462   6.477  0.2946 -0.5873  0.3411
  555MOL0     O73131   9.851   4.550   6.391  1.1259  0.1160  0.9212
  555MOL0     C73132   9.734   4.551   6.318 -0.4282 -0.0404  0.0864
  555MOL0     C73133   9.625   4.461   6.325 -1.1252 -0.9154  0.0507
  555MOL0     C73134   9.535   4.447   6.222  0.2141 -0.7211 -0.0457
  555MOL0     C73135   9.526   4.548   6.120  0.1245  0.4975 -0.5113
  555MOL0     O73136   9.427   4.544   6.017  0.1106 -1.0403  0.0769
  555MOL0     C73137   9.397   4.672   5.950 -0.0894 -0.2046  0.2153
  555MOL0     C73138   9.259   4.668   5.891  0.3232 -0.7127  0.1371
  555MOL0     C73139   9.158   4.703   6.000 -0.4132  0.1729  0.0690
  555MOL0     C73140   9.012   4.714   5.964  0.5851  0.2478 -0.9026
  555MOL0     C73141   8.942   4.583   5.913 -0.4861  0.0320 -0.1131
  555MOL0     C73142   8.807   4.608   5.841  0.1071 -0.4956  0.5832
  555MOL0     C73143   8.738   4.490   5.781  0.3462  0.6848  0.2472
  555MOL0     C73144   8.623   4.430   5.866 -0.4771 -0.5298 -0.3792
  555MOL0     N73145   8.553   4.332   5.781  0.1454  0.3936  0.1046
  555MOL0     C73146   8.629   4.235   5.728 -0.3899  1.1533 -0.5047
  555MOL0     C73147   8.550   4.168   5.639  0.5666 -0.3997  0.2375
  555MOL0     C73148   8.592   4.064   5.542 -0.2167  0.1732 -0.0915
  555MOL0     C73149   8.548   4.072   5.396  0.1128  0.8287  0.0631
  555MOL0     C73150   8.609   4.192   5.332 -0.6680 -0.2306  0.8303
  555MOL0     C73151   8.761   4.190   5.327 -1.1834 -1.1154 -0.0772
  555MOL0     O73152   8.819   4.259   5.438 -0.0298 -0.8255  0.1572
  555MOL0     C73153   8.953   4.300   5.419  0.4257  0.0022 -0.3305
  555MOL0     C73154   8.993   4.419   5.364 -0.3115  0.6462 -0.2108
  555MOL0     C73155   9.132   4.451   5.361 -0.7643 -1.0031 -1.2493
  555MOL0     C73156   9.231   4.355   5.407  0.3146  0.7879 -0.2393
  555MOL0     C73157   9.367   4.379   5.423 -0.7294 -0.3956  0.0761
  555MOL0     O73158   9.454   4.271   5.457  0.2415 -0.3478 -0.4667
  555MOL0     C73159   9.581   4.308   5.486 -0.4501  0.2795 -0.9230
  555MOL0     C73160   9.691   4.276   5.393  0.2804  0.3518 -0.0566
  555MOL0     C73161   9.813   4.330   5.413  0.4046  0.6766  0.0052
  555MOL0     C73162   9.843   4.402   5.535 -0.2777 -0.5232 -0.5305
  555MOL0     O73163   9.964   4.457   5.570 -0.3709  0.1892 -0.5502
  555MOL0     C73164  10.081   4.398   5.505 -0.1672  0.1546 -0.1928
  555MOL0     C73165  10.211   4.458   5.552 -0.6918  0.2124 -0.2908
  555MOL0     C73166  10.208   4.608   5.575  0.1455 -0.5974 -0.5398
  555MOL0     C73167  10.333   4.686   5.624 -0.8019 -0.1927 -1.1543
  555MOL0     C73168  10.441   4.676   5.522 -1.2531  0.1910  0.5465
  555MOL0     C73169  10.580   4.708   5.586  0.3797  0.0724  0.2647
  555MOL0     C73170  10.660   4.764   5.464  0.3139  0.0556  0.8264
  555MOL0     C73171  10.737   4.656   5.386 -0.3090 -0.0947 -0.4293
  555MOL0    Cl73172  10.814   4.728   5.245  0.3169  0.0790  0.5412
  555MOL0     C73173   9.743   4.420   5.634  0.1741 -0.1690  0.0707
  555MOL0     C73174   9.616   4.363   5.610  0.7849 -0.8943  0.1340
  555MOL0     O73175   9.407   4.495   5.397 -0.4976 -0.1151  0.1315
  555MOL0     C73176   9.180   4.235   5.470 -0.1204 -0.3382  0.7056
  555MOL0     C73177   9.045   4.208   5.470 -0.4591  0.1943  0.3441
  555MOL0     N73178   8.423   4.229   5.642 -0.1805 -0.1645  0.4686
  555MOL0     N73179   8.429   4.329   5.723 -0.3445 -0.2866 -0.4184
  555MOL0     C73180   9.624   4.645   6.110 -0.6413  0.0290  1.3069
  555MOL0     C73181   9.729   4.644   6.213  0.8965 -0.2831  0.8435
  555MOL0     C73182  10.013   4.493   6.546  0.2472 -0.3710 -0.5634
  555MOL0     C73183  10.088   4.394   6.614 -0.9353  0.8193 -0.6832
  555MOL0     C73184  10.215   4.424   6.669 -0.0704  0.8565  0.4266
  555MOL0     C73185  10.277   4.550   6.653  0.4973 -0.2247 -0.0499
  555MOL0     O73186  10.406   4.564   6.705 -0.1185 -0.1075  0.2536
  555MOL0     C73187  10.465   4.687   6.712  0.5028 -0.2758  0.3344
  555MOL0     C73188  10.595   4.671   6.783  0.1672 -0.4764  0.4700
  555MOL0     C73189  10.654   4.805   6.841  0.1674  0.2223 -1.0458
  555MOL0     C73190  10.670   4.917   6.747 -0.3282 -0.4345 -0.6774
  555MOL0     C73191  10.730   5.040   6.790 -1.4990  0.5200  0.8030
  555MOL0     C73192  10.773   5.150   6.823  0.0490 -0.1190  0.1328
  555MOL0     C73193  10.205   4.648   6.584  0.4350  0.1826 -0.5428
  555MOL0     C73194  10.074   4.618   6.530  0.1625  1.3309 -0.0690
  555MOL0     H73195   9.627   4.386   6.403  0.2936 -0.2028  0.7390
  555MOL0     H73196   9.467   4.362   6.227  0.6582 -1.0250  2.9886
  555MOL0     H73197   9.472   4.694   5.874 -1.1497 -1.2622 -1.1858
  555MOL0     H73198   9.389   4.746   6.031 -0.0147 -0.0308  0.0647
  555MOL0     H73199   9.249   4.570   5.842 -1.4135  0.2459 -1.5646
  555MOL0     H73200   9.247   4.744   5.814  2.0920  2.1199  2.4627
  555MOL0     H73201   9.177   4.806   6.031  1.0363  1.2063 -3.6268
  555MOL0     H73202   9.166   4.622   6.073 -3.7857 -1.6465 -1.3661
  555MOL0     H73203   8.966   4.745   6.058  1.1087 -0.9705 -0.2255
  555MOL0     H73204   9.000   4.789   5.885  0.1353 -0.1301 -1.1982
  555MOL0     H73205   8.936   4.511   5.995 -2.2611 -0.1380 -0.3507
  555MOL0     H73206   9.012   4.542   5.840  1.5203  0.3006  1.5679
  555MOL0     H73207   8.829   4.676   5.758 -2.4072  1.1263  1.1199
  555MOL0     H73208   8.734   4.652   5.910 -2.5099 -0.4697 -2.0373
  555MOL0     H73209   8.691   4.507   5.684 -1.8130 -1.5696  0.7989
  555MOL0     H73210   8.818   4.417   5.762  1.9131  2.1617  0.8645
  555MOL0     H73211   8.555   4.506   5.904 -0.5133 -0.8417  0.1904
  555MOL0     H73212   8.670   4.378   5.950 -0.7708 -0.8375 -0.4038
  555MOL0     H73213   8.731   4.206   5.749 -0.8685  0.7193  1.4207
  555MOL0     H73214   8.547   3.976   5.587  0.6988 -0.2957 -0.0717
  555MOL0     H73215   8.701   4.059   5.534 -0.2868 -0.9371 -0.4635
  555MOL0     H73216   8.439   4.080   5.401 -0.0244 -0.9794  4.0543
  555MOL0     H73217   8.577   3.992   5.327 -1.9548 -0.1529  0.2461
  555MOL0     H73218   8.580   4.196   5.226  3.8442  1.8606 -0.5713
  555MOL0     H73219   8.556   4.283   5.362 -1.6162  0.3388 -2.2401
  555MOL0     H73220   8.797   4.238   5.235 -1.4488  1.9983  1.3139
  555MOL0     H73221   8.801   4.089   5.319  0.1160 -0.5858 -0.6371
  555MOL0     H73222   8.915   4.489   5.334 -1.0499  0.1528  0.5038
  555MOL0     H73223   9.160   4.553   5.339 -0.0714 -1.2935 -1.7346
  555MOL0     H73224   9.669   4.213   5.307  1.0721 -1.5962  1.1002
  555MOL0     H73225   9.898   4.305   5.349  1.8332  1.2322  1.5989
  555MOL0     H73226  10.072   4.434   5.402 -1.5938 -1.9465 -0.8828
  555MOL0     H73227  10.083   4.289   5.518  2.7591  0.2216  0.5617
  555MOL0     H73228  10.291   4.453   5.477  0.0175  1.4030  0.3658
  555MOL0     H73229  10.243   4.414   5.646  0.1418  1.6257  0.1161
  555MOL0     H73230  10.129   4.639   5.644 -1.1138 -1.0626 -1.7424
  555MOL0     H73231  10.181   4.661   5.484  1.5583  0.2111 -0.5152
  555MOL0     H73232  10.302   4.790   5.640 -0.9992 -0.3503 -0.4588
  555MOL0     H73233  10.368   4.649   5.721 -0.5310 -1.3987 -1.6973
  555MOL0     H73234  10.419   4.741   5.437  0.2276 -0.6698 -0.5352
  555MOL0     H73235  10.452   4.578   5.474 -2.3441  1.0729 -1.6166
  555MOL0     H73236  10.623   4.623   5.640 -1.5182 -0.6969  0.6649
  555MOL0     H73237  10.565   4.784   5.664 -1.7651 -0.1661  0.1358
  555MOL0     H73238  10.599   4.836   5.410  1.9671 -1.1568 -3.0614
  555MOL0     H73239  10.748   4.819   5.499 -0.2094  4.1528 -3.2959
  555MOL0     H73240  10.673   4.575   5.349  0.3811 -0.7068 -0.3037
  555MOL0     H73241  10.806   4.608   5.455  0.8956 -0.6360 -1.9650
  555MOL0     H73242   9.779   4.467   5.725  1.9725  0.8570 -1.1088
  555MOL0     H73243   9.530   4.382   5.673  0.4306  1.7811 -0.9807
  555MOL0     H73244   9.241   4.156   5.511 -2.1669 -2.1422  0.4244
  555MOL0     H73245   9.002   4.119   5.515 -0.6684  1.2089  2.2661
  555MOL0     H73246   9.638   4.713   6.026 -1.5221 -1.2655  0.0626
  555MOL0     H73247   9.810   4.716   6.216  1.0636 -0.2992 -1.4777
  555MOL0     H73248  10.056   4.293   6.640  3.0257  0.0733  2.1588
  555MOL0     H73249  10.287   4.355   6.713 -1.1040  0.2471  1.2064
  555MOL0     H73250  10.413   4.761   6.773  0.7885  0.6592 -0.5219
  555MOL0     H73251  10.480   4.739   6.617  0.3214 -0.8504 -0.0132
  555MOL0     H73252  10.584   4.604   6.869  1.2949  1.5808  2.2978
  555MOL0     H73253  10.668   4.620   6.719 -0.0992 -2.3608  1.5723
  555MOL0     H73254  10.746   4.787   6.897 -0.0130 -0.0815 -0.8418
  555MOL0     H73255  10.593   4.855   6.917  1.8902 -1.6552  1.8040
  555MOL0     H73256  10.738   4.879   6.669  0.6621 -2.4658  1.0694
  555MOL0     H73257  10.577   4.947   6.699 -1.8723 -0.1491  2.2895
  555MOL0     H73258  10.807   5.246   6.855  1.5125  0.0907 -1.8759
  555MOL0     H73259  10.248   4.744   6.559 -0.0996  0.5278 -0.1539
  555MOL0     H73260  10.017   4.690   6.472 -3.2956 -1.5333 -0.6032
  556MOL0     O73261   8.257   7.939   3.486  0.1605  0.0790  0.1721
  556MOL0     C73262   8.304   8.050   3.479 -0.4707  0.0203  0.1898
  556MOL0     O73263   8.269   8.157   3.545  0.1923 -0.2975 -0.0037
  556MOL0     C73264   8.155   8.156   3.625 -0.2387  0.8411  0.2708
  556MOL0     C73265   8.171   8.148   3.761  0.6245  0.0076  0.2933
  556MOL0     C73266   8.064   8.130   3.846 -0.8898  0.4115  0.1029
  556MOL0     C73267   7.937   8.130   3.791 -0.3550 -0.0383 -0.4962
  556MOL0     O73268   7.834   8.116   3.882  0.3416 -0.5474  0.1073
  556MOL0     C73269   7.713   8.200   3.879  0.2377  0.0531 -0.5121
  556MOL0     C73270   7.619   8.186   4.001 -0.0472  0.1585  0.5833
  556MOL0     C73271   7.532   8.057   4.017  0.8036  0.0752 -0.2334
  556MOL0     C73272   7.516   8.016   4.165  1.3509  0.9525 -1.3762
  556MOL0     C73273   7.633   7.928   4.217  0.4140 -0.1561  0.3251
  556MOL0     C73274   7.766   8.004   4.243 -1.3427 -0.6068 -0.0258
  556MOL0     C73275   7.852   7.927   4.347 -0.4142  0.3810  0.4503
  556MOL0     C73276   7.899   7.799   4.290 -0.5177 -0.2393 -0.3157
  556MOL0     N73277   7.954   7.811   4.159 -0.3076 -0.4957  0.8590
  556MOL0     C73278   7.892   7.773   4.037 -0.4622  0.9399 -0.0819
  556MOL0     C73279   7.983   7.784   3.943  0.2770  0.0176  0.3426
  556MOL0     C73280   7.973   7.774   3.791 -0.7802  1.0858  0.3442
  556MOL0     C73281   8.062   7.657   3.746 -0.4280  0.2900 -0.3529
  556MOL0     C73282   8.094   7.639   3.595 -0.3484 -0.3355  0.5428
  556MOL0     C73283   8.150   7.499   3.565 -0.3449 -0.0432  0.2196
  556MOL0     O73284   8.143   7.451   3.429 -0.1316  0.3905 -1.0517
  556MOL0     C73285   8.202   7.500   3.317  0.6649 -0.0778  0.5065
  556MOL0     C73286   8.161   7.441   3.206 -0.4346  0.2006 -0.4967
  556MOL0     C73287   8.215   7.463   3.084 -0.1220  0.4883  0.2239
  556MOL0     C73288   8.330   7.551   3.075  0.5399 -0.5026 -0.5566
  556MOL0     C73289   8.390   7.579   2.944  0.1504  0.6137  0.1583
  556MOL0     O73290   8.493   7.675   2.941 -0.4381  0.0480 -1.1353
  556MOL0     C73291   8.565   7.683   2.820  0.5675 -0.6759 -0.2531
  556MOL0     C73292   8.559   7.809   2.756 -0.9199 -0.3881 -0.0196
  556MOL0     C73293   8.643   7.841   2.660 -0.0186  0.8455  0.8534
  556MOL0     C73294   8.736   7.754   2.601  0.9223  0.0491  0.1501
  556MOL0     O73295   8.836   7.802   2.516  0.5102  0.4653  0.2071
  556MOL0     C73296   8.871   7.944   2.511 -0.3218 -1.5988  0.2564
  556MOL0     C73297   8.926   8.001   2.635 -1.2964 -0.3805 -0.0823
  556MOL0     C73298   9.081   7.980   2.644  0.4740  0.0454 -1.0909
  556MOL0     C73299   9.119   8.007   2.794  0.2283 -0.5073 -0.5700
  556MOL0     C73300   9.268   7.997   2.814  0.3547  0.3133 -0.8143
  556MOL0     C73301   9.345   8.107   2.746 -0.4580  0.1396  0.6680
  556MOL0     C73302   9.492   8.086   2.770  0.4731  0.8156  1.1136
  556MOL0     C73303   9.574   8.196   2.698  0.0864 -0.1397 -0.1005
  556MOL0    Cl73304   9.623   8.149   2.536 -0.1544 -0.1443  0.3059
  556MOL0     C73305   8.725   7.627   2.642  0.1375  0.1394 -0.0255
  556MOL0     C73306   8.656   7.591   2.765  0.3228  0.3235  0.4962
  556MOL0     O73307   8.339   7.528   2.842 -0.8233  0.6850  0.0647
  556MOL0     C73308   8.377   7.611   3.195  0.0475 -1.4746 -0.0865
  556MOL0     C73309   8.309   7.591   3.315 -0.8275 -0.1583 -0.2903
  556MOL0     N73310   8.106   7.812   4.013 -0.2802 -0.4117 -0.1789
  556MOL0     N73311   8.085   7.818   4.139 -0.6438 -0.6148  0.2067
  556MOL0     C73312   7.916   8.137   3.656 -0.0733  0.0856  0.8204
  556MOL0     C73313   8.032   8.148   3.575 -0.6739  0.9333 -0.0835
  556MOL0     C73314   8.399   8.063   3.369 -0.8058  0.8253  1.1109
  556MOL0     C73315   8.465   7.954   3.308  0.3402  0.5025  0.0906
  556MOL0     C73316   8.525   7.976   3.178  0.2060  0.2493 -1.3891
  556MOL0     C73317   8.552   8.107   3.135 -0.3044 -0.2177 -0.0486
  556MOL0     O73318   8.631   8.130   3.024  0.4599 -0.3750 -1.3675
  556MOL0     C73319   8.728   8.038   2.978  0.6641 -0.0405 -0.4498
  556MOL0     C73320   8.849   8.040   3.075  0.0207  0.6142 -0.6485
  556MOL0     C73321   8.901   8.181   3.096  0.5241  0.6663  0.1672
  556MOL0     C73322   9.018   8.179   3.185 -1.2931  0.4015  0.0496
  556MOL0     C73323   9.137   8.234   3.119  0.0270  0.0713 -0.0713
  556MOL0     C73324   9.220   8.285   3.050  0.3984  0.3018  0.9427
  556MOL0     C73325   8.513   8.205   3.216 -0.1798 -0.2984 -0.0306
  556MOL0     C73326   8.422   8.190   3.319  0.1240 -0.2752 -0.3294
  556MOL0     H73327   8.270   8.123   3.799  1.5638 -2.0412 -3.1360
  556MOL0     H73328   8.071   8.122   3.954  1.4750  0.4495  0.0156
  556MOL0     H73329   7.649   8.185   3.791 -0.0483  0.0472 -0.3040
  556MOL0     H73330   7.748   8.303   3.887  1.2048 -0.4186  2.7220
  556MOL0     H73331   7.553   8.273   3.990  0.7161  0.4314 -2.9959
  556MOL0     H73332   7.674   8.211   4.093  2.6536 -4.1566  0.3932
  556MOL0     H73333   7.567   7.970   3.962 -0.6076  0.0824 -1.1809
  556MOL0     H73334   7.438   8.085   3.969  0.5469  1.4836  0.9840
  556MOL0     H73335   7.502   8.100   4.233  0.0051  0.6821 -1.2986
  556MOL0     H73336   7.428   7.951   4.163  0.1429  2.4659 -0.0822
  556MOL0     H73337   7.647   7.857   4.135 -1.0298 -0.5537  0.3944
  556MOL0     H73338   7.586   7.879   4.303  0.0314  1.0898  0.8483
  556MOL0     H73339   7.733   8.096   4.292 -0.1514  0.1926 -0.6720
  556MOL0     H73340   7.818   8.032   4.151 -0.8553 -0.6560  0.2328
  556MOL0     H73341   7.942   7.976   4.387  2.2036 -2.0822 -1.9304
  556MOL0     H73342   7.789   7.901   4.433 -0.4871  0.4755  0.4255
  556MOL0     H73343   7.811   7.735   4.274 -0.6314  0.1003 -1.0819
  556MOL0     H73344   7.968   7.752   4.361 -2.9225 -0.8789  1.7245
  556MOL0     H73345   7.789   7.742   4.020 -0.6998  1.5691  0.1978
  556MOL0     H73346   8.015   7.858   3.734 -0.7398 -0.6626 -2.4215
  556MOL0     H73347   7.871   7.772   3.750  0.1672  0.2828 -2.2034
  556MOL0     H73348   8.016   7.567   3.790  0.6937 -0.0830  0.0975
  556MOL0     H73349   8.159   7.678   3.791  0.2851  1.2458 -2.2525
  556MOL0     H73350   7.994   7.649   3.552 -1.0686 -2.0131  1.7477
  556MOL0     H73351   8.160   7.713   3.548 -0.0480  0.7992  2.6369
  556MOL0     H73352   8.085   7.435   3.625 -0.5741  0.2075  0.2430
  556MOL0     H73353   8.252   7.484   3.602 -0.3740 -2.3949 -0.5424
  556MOL0     H73354   8.084   7.365   3.214 -2.2682  2.0598  0.6032
  556MOL0     H73355   8.186   7.403   2.998  0.9081  1.2010 -0.6516
  556MOL0     H73356   8.497   7.888   2.798 -0.1680 -0.5261  1.3753
  556MOL0     H73357   8.616   7.933   2.608 -3.0410 -1.4796 -2.2545
  556MOL0     H73358   8.772   7.988   2.494 -0.2374 -1.7539 -0.7038
  556MOL0     H73359   8.922   7.990   2.426 -1.6333  1.9825  1.2347
  556MOL0     H73360   8.874   7.967   2.724  0.6681 -0.2357  1.1948
  556MOL0     H73361   8.916   8.110   2.632 -1.8095 -0.3269  2.0624
  556MOL0     H73362   9.121   8.054   2.573 -1.4438  3.4439  1.1129
  556MOL0     H73363   9.101   7.876   2.618 -2.4350 -0.7940 -0.2353
  556MOL0     H73364   9.076   8.103   2.826  0.4094 -1.0005  1.2963
  556MOL0     H73365   9.057   7.943   2.859  0.9772 -0.6032  0.0648
  556MOL0     H73366   9.310   7.898   2.798 -1.4900 -0.3672 -1.7108
  556MOL0     H73367   9.293   8.015   2.919  2.2755  1.1508 -1.3842
  556MOL0     H73368   9.311   8.205   2.780  0.1941  0.0219  1.6959
  556MOL0     H73369   9.325   8.109   2.638  2.7748  1.8786 -0.0527
  556MOL0     H73370   9.507   8.109   2.876  0.5078  1.1653  1.0351
  556MOL0     H73371   9.527   7.986   2.742  0.2716  1.0129  0.1489
  556MOL0     H73372   9.664   8.212   2.758  0.4747  1.5251 -1.0814
  556MOL0     H73373   9.530   8.294   2.713  1.7065  0.2500  2.9482
  556MOL0     H73374   8.794   7.555   2.599  0.2131  0.2613 -0.1099
  556MOL0     H73375   8.676   7.491   2.803  2.4506  1.1180  1.6859
  556MOL0     H73376   8.462   7.678   3.196 -1.9889  1.3674  2.8821
  556MOL0     H73377   8.355   7.652   3.392  1.1171 -0.3923 -1.2174
  556MOL0     H73378   7.815   8.128   3.618 -0.0302  2.1587  0.0925
  556MOL0     H73379   8.021   8.150   3.467  0.3165  2.9536 -0.1971
  556MOL0     H73380   8.457   7.852   3.343 -1.4323 -1.2528 -4.6561
  556MOL0     H73381   8.555   7.887   3.126  0.9624 -0.6339  0.4626
  556MOL0     H73382   8.765   8.084   2.886  2.3548  2.9841  1.5710
  556MOL0     H73383   8.677   7.943   2.962 -0.7949  0.7175 -0.5404
  556MOL0     H73384   8.809   7.994   3.166 -0.4041 -1.1309 -1.6776
  556MOL0     H73385   8.929   7.970   3.049 -1.1331 -2.5992  3.3456
  556MOL0     H73386   8.832   8.254   3.141  1.7680  0.7026  2.1113
  556MOL0     H73387   8.937   8.213   2.998  2.5352  3.2093  1.5944
  556MOL0     H73388   9.014   8.239   3.277  1.3163  4.9279 -2.4378
  556MOL0     H73389   9.040   8.076   3.215 -1.9091  0.7273  1.7278
  556MOL0     H73390   9.300   8.322   2.990 -1.0297  2.0693  0.0385
  556MOL0     H73391   8.546   8.307   3.198 -3.1381  1.7170  4.2696
  556MOL0     H73392   8.383   8.278   3.370 -0.5986 -0.1258 -1.1312
  557MOL0     O73393   4.202   2.524   3.593 -0.5141 -0.7931 -0.9481
  557MOL0     C73394   4.081   2.554   3.621  0.1496 -0.1749  0.0934
  557MOL0     O73395   3.988   2.463   3.648  1.0134 -0.0621  0.1643
  557MOL0     C73396   4.003   2.326   3.636  0.0643  0.1359 -0.0959
  557MOL0     C73397   3.881   2.267   3.689 -0.6371  0.4216  0.0781
  557MOL0     C73398   3.879   2.130   3.730 -0.4756  0.3881  0.4343
  557MOL0     C73399   4.006   2.065   3.718  0.5525  0.1102 -0.1153
  557MOL0     O73400   4.021   1.931   3.752  0.1002  0.0780 -0.4297
  557MOL0     C73401   4.137   1.885   3.829  0.6705  0.2078 -0.5240
  557MOL0     C73402   4.100   1.791   3.941  0.2692 -0.0755 -0.5670
  557MOL0     C73403   4.213   1.754   4.033 -0.4286  0.4025 -0.2212
  557MOL0     C73404   4.344   1.709   3.964  0.3095  0.1368  0.0238
  557MOL0     C73405   4.444   1.629   4.050  0.5211  0.2032  0.4059
  557MOL0     C73406   4.390   1.489   4.077 -0.9532  0.0022 -0.0188
  557MOL0     C73407   4.485   1.401   4.155  1.3409  0.7184  0.5049
  557MOL0     C73408   4.407   1.279   4.206 -1.2505 -0.5274 -0.5864
  557MOL0     N73409   4.497   1.178   4.273 -0.8237  0.5924  0.4096
  557MOL0     C73410   4.482   1.039   4.254 -0.0604  0.7795 -0.0467
  557MOL0     C73411   4.589   0.990   4.328  0.3910 -0.3461  0.1983
  557MOL0     C73412   4.645   0.849   4.339 -0.1476 -0.8062  0.5109
  557MOL0     C73413   4.696   0.791   4.472  0.8030  0.8623  0.3286
  557MOL0     C73414   4.850   0.798   4.477 -0.0509  0.2146 -0.0695
  557MOL0     C73415   4.899   0.792   4.623  0.5192  0.1231  1.4716
  557MOL0     O73416   4.858   0.668   4.689 -0.0272  0.1288  0.2780
  557MOL0     C73417   4.925   0.559   4.640  0.4650  0.2649  0.4601
  557MOL0     C73418   4.863   0.436   4.675 -0.3314 -0.5663 -0.1907
  557MOL0     C73419   4.939   0.318   4.667 -0.0512  1.1828 -1.4856
  557MOL0     C73420   5.072   0.316   4.619 -0.4052 -1.6009  0.4611
  557MOL0     C73421   5.157   0.196   4.633 -1.4525 -1.0195  0.0481
  557MOL0     O73422   5.106   0.076   4.686  1.1646 -0.4408  0.4141
  557MOL0     C73423   5.166  -0.041   4.662  0.0762 -0.8725 -0.3931
  557MOL0     C73424   5.222  -0.088   4.542  0.5290  0.4424 -1.1239
  557MOL0     C73425   5.274  -0.215   4.528 -0.4405 -0.4766 -0.2531
  557MOL0     C73426   5.267  -0.302   4.634 -0.3498  0.4232  0.2283
  557MOL0     O73427   5.308  -0.435   4.632  0.6621 -0.3046 -0.1814
  557MOL0     C73428   5.227  -0.527   4.558 -0.0612 -0.8932 -0.5544
  557MOL0     C73429   5.103  -0.577   4.637  0.9078 -0.4845  0.6026
  557MOL0     C73430   5.140  -0.640   4.764  0.5057  0.3835 -0.8405
  557MOL0     C73431   5.015  -0.677   4.836  0.5061 -0.5993 -0.6248
  557MOL0     C73432   5.041  -0.789   4.939 -0.0384 -0.2884  0.7994
  557MOL0     C73433   5.164  -0.757   5.040  0.0083 -0.8660  0.0623
  557MOL0     C73434   5.183  -0.849   5.167 -0.0488  0.1000 -0.2938
  557MOL0     C73435   5.221  -0.988   5.125 -0.1233  1.7214 -0.0538
  557MOL0    Cl73436   5.101  -1.081   5.038  0.0745  0.1889 -0.0872
  557MOL0     C73437   5.227  -0.249   4.762  0.1522  0.0924 -0.1580
  557MOL0     C73438   5.183  -0.120   4.780  0.8088 -0.1404  0.5562
  557MOL0     O73439   5.278   0.214   4.600  0.7156 -0.3314  0.1294
  557MOL0     C73440   5.122   0.438   4.568 -0.2315  0.8859  0.4078
  557MOL0     C73441   5.056   0.560   4.588 -0.4879  0.7083 -0.6278
  557MOL0     N73442   4.674   1.096   4.373  0.3061  0.6165 -0.0821
  557MOL0     N73443   4.615   1.202   4.343  0.0505 -0.5684  0.8448
  557MOL0     C73444   4.128   2.127   3.663  0.2901 -0.4470  0.1408
  557MOL0     C73445   4.120   2.253   3.612 -0.8877  0.8686  0.0709
  557MOL0     C73446   4.035   2.701   3.606  0.3541  0.3953  1.0171
  557MOL0     C73447   4.127   2.800   3.594  0.2135 -0.6642  0.3504
  557MOL0     C73448   4.098   2.936   3.620  0.0013  0.6880 -0.6751
  557MOL0     C73449   3.961   2.977   3.651 -0.2915 -1.2008  0.6218
  557MOL0     O73450   3.924   3.110   3.682 -0.3769 -0.2627 -0.0733
  557MOL0     C73451   4.021   3.220   3.669  0.7654  0.3644  0.5648
  557MOL0     C73452   3.991   3.300   3.543 -0.1368  0.0618 -0.5795
  557MOL0     C73453   4.079   3.432   3.530 -0.5870 -0.4798 -0.9233
  557MOL0     C73454   4.020   3.541   3.621 -0.1265 -1.1838  0.0579
  557MOL0     C73455   3.893   3.601   3.594 -0.2142  0.5061  0.3083
  557MOL0     C73456   3.782   3.648   3.561 -0.2988  0.3186 -0.5947
  557MOL0     C73457   3.864   2.880   3.661 -0.1674 -0.5226  0.1939
  557MOL0     C73458   3.911   2.746   3.648  0.1193 -0.2669 -0.5313
  557MOL0     H73459   3.789   2.321   3.707 -2.4854 -1.7858 -1.9612
  557MOL0     H73460   3.798   2.084   3.786 -0.2500  2.8252  2.9807
  557MOL0     H73461   4.185   1.974   3.869 -0.0085  0.2104  0.3078
  557MOL0     H73462   4.192   1.830   3.752 -1.8134 -0.3366 -2.0343
  557MOL0     H73463   4.072   1.696   3.896  0.3922  0.0286 -0.8607
  557MOL0     H73464   4.007   1.829   3.985 -1.8504 -0.2019 -4.5207
  557MOL0     H73465   4.185   1.666   4.092 -0.8659 -0.4654 -1.6818
  557MOL0     H73466   4.238   1.842   4.093  3.8279  0.0005 -1.1049
  557MOL0     H73467   4.318   1.651   3.874 -1.6370  1.1167 -0.0900
  557MOL0     H73468   4.395   1.797   3.924  0.1385  0.2328  0.0156
  557MOL0     H73469   4.470   1.680   4.143 -1.4041 -0.5058  1.3838
  557MOL0     H73470   4.526   1.634   3.978 -0.9419  2.2527 -1.2572
  557MOL0     H73471   4.374   1.437   3.983 -4.8594 -3.8787  2.4128
  557MOL0     H73472   4.288   1.485   4.117 -2.4863 -2.1197 -3.7089
  557MOL0     H73473   4.553   1.367   4.077  0.4807 -2.6208  1.0584
  557MOL0     H73474   4.540   1.457   4.232 -0.1061  1.5429  0.9797
  557MOL0     H73475   4.341   1.235   4.131 -2.8121  0.1944  0.3198
  557MOL0     H73476   4.344   1.309   4.290 -0.7195 -3.4917  0.9980
  557MOL0     H73477   4.399   0.988   4.206  0.9756  3.2507 -5.1633
  557MOL0     H73478   4.724   0.841   4.263 -0.7370 -2.7325  0.0390
  557MOL0     H73479   4.562   0.785   4.307  0.8185 -0.5551 -2.9419
  557MOL0     H73480   4.677   0.683   4.471 -0.4818  1.0353  2.2794
  557MOL0     H73481   4.646   0.842   4.554 -1.2193  4.4926 -2.8372
  557MOL0     H73482   4.897   0.728   4.407  2.9222  1.2411  0.7766
  557MOL0     H73483   4.880   0.898   4.443 -2.7980  0.4926 -2.1338
  557MOL0     H73484   4.854   0.877   4.675 -1.5460  0.3470 -0.5431
  557MOL0     H73485   5.007   0.804   4.630  1.1217 -0.1387 -3.7334
  557MOL0     H73486   4.764   0.440   4.719 -0.0488 -0.2783  0.4298
  557MOL0     H73487   4.898   0.229   4.714  3.2718  1.0667  1.5708
  557MOL0     H73488   5.218  -0.021   4.457  0.6448 -0.7777 -2.1282
  557MOL0     H73489   5.304  -0.257   4.433  0.6424  0.3749 -0.3019
  557MOL0     H73490   5.293  -0.612   4.538  1.0189 -0.7648  1.9842
  557MOL0     H73491   5.197  -0.474   4.467 -0.0647  1.8397  0.9413
  557MOL0     H73492   5.050  -0.646   4.570  1.8093 -1.5636  0.9715
  557MOL0     H73493   5.036  -0.492   4.654  2.0332  1.0952 -2.1542
  557MOL0     H73494   5.195  -0.578   4.836 -1.5786  2.4764 -0.9119
  557MOL0     H73495   5.195  -0.732   4.745  0.9432 -0.0836  2.1875
  557MOL0     H73496   4.989  -0.589   4.895  1.1994 -0.3848 -0.6279
  557MOL0     H73497   4.932  -0.711   4.774 -0.1386  0.9773 -0.6658
  557MOL0     H73498   5.074  -0.877   4.882 -0.0877  1.7696 -2.6989
  557MOL0     H73499   4.953  -0.816   4.999  0.1089 -2.5720  0.0947
  557MOL0     H73500   5.140  -0.656   5.072 -0.8727 -0.8843 -0.5191
  557MOL0     H73501   5.259  -0.753   4.985 -1.8679  0.6684 -3.3492
  557MOL0     H73502   5.263  -0.809   5.230  0.0580 -0.5879  0.0223
  557MOL0     H73503   5.093  -0.848   5.230 -2.0346  3.3591 -2.8473
  557MOL0     H73504   5.249  -1.041   5.217  3.0366 -0.0173 -1.8158
  557MOL0     H73505   5.314  -0.992   5.067 -0.7181 -3.0015 -1.1179
  557MOL0     H73506   5.238  -0.310   4.851 -0.7804  2.3820  1.6233
  557MOL0     H73507   5.152  -0.078   4.875  1.7071 -1.6403  1.5634
  557MOL0     H73508   5.212   0.439   4.507  0.1799  0.7672  0.9925
  557MOL0     H73509   5.105   0.650   4.552 -0.4779  0.8936 -0.1536
  557MOL0     H73510   4.220   2.070   3.655 -0.5584 -2.3982  2.9042
  557MOL0     H73511   4.217   2.288   3.577 -1.2992  0.7733 -1.2349
  557MOL0     H73512   4.226   2.762   3.572  0.3871 -1.9670  3.0174
  557MOL0     H73513   4.180   3.007   3.618 -0.9580  2.0623  2.4147
  557MOL0     H73514   4.129   3.203   3.672  0.7387  0.1906  0.5382
  557MOL0     H73515   4.006   3.287   3.755  1.4848  0.6346  0.4892
  557MOL0     H73516   3.998   3.239   3.453  1.1038  1.3585 -1.4140
  557MOL0     H73517   3.888   3.330   3.564  0.3961  3.0319 -1.7399
  557MOL0     H73518   4.075   3.471   3.428  1.2206  3.2964  0.2626
  557MOL0     H73519   4.182   3.408   3.556  0.1747  1.6362 -1.7318
  557MOL0     H73520   4.026   3.517   3.727 -3.6257 -1.4642  0.2844
  557MOL0     H73521   4.083   3.629   3.601 -2.0567  0.9075  2.5784
  557MOL0     H73522   3.685   3.689   3.540 -1.4754 -0.3950  2.8391
  557MOL0     H73523   3.761   2.899   3.691 -0.6913 -1.1947 -1.0896
  557MOL0     H73524   3.829   2.679   3.673  0.3697 -0.8065 -1.1258
  558MOL0     O73525   2.775   7.039   5.441  0.2678  0.4335  0.1995
  558MOL0     C73526   2.822   6.972   5.350  0.0610 -0.2794 -0.3984
  558MOL0     O73527   2.931   7.008   5.282  0.3218 -0.7828 -0.5095
  558MOL0     C73528   3.019   7.103   5.324 -0.2676 -0.1980 -0.3120
  558MOL0     C73529   2.987   7.226   5.365 -0.1150 -0.8523 -0.3633
  558MOL0     C73530   3.087   7.315   5.408  0.4396  0.1014 -0.0912
  558MOL0     C73531   3.219   7.269   5.419  0.6444  0.2198 -0.2971
  558MOL0     O73532   3.314   7.349   5.482  1.0074  0.4183 -0.3862
  558MOL0     C73533   3.313   7.494   5.487  0.3185  0.6791 -0.1192
  558MOL0     C73534   3.460   7.546   5.486  0.3007  0.2057  0.3644
  558MOL0     C73535   3.535   7.526   5.351 -0.1755 -0.2038 -0.1813
  558MOL0     C73536   3.684   7.532   5.373 -0.6859  0.1148  0.2777
  558MOL0     C73537   3.761   7.534   5.234  0.2961  0.0573  0.0659
  558MOL0     C73538   3.797   7.679   5.209  0.4545 -0.0408  0.3714
  558MOL0     C73539   3.841   7.699   5.072  0.7990 -0.2904  0.5815
  558MOL0     C73540   3.712   7.692   4.969 -0.7578  0.0262 -0.4047
  558MOL0     N73541   3.667   7.827   4.954  0.2596 -0.0623 -0.1862
  558MOL0     C73542   3.689   7.910   4.839 -0.0727 -0.0304  0.5927
  558MOL0     C73543   3.617   8.028   4.869  0.3321 -0.8729  0.3981
  558MOL0     C73544   3.647   8.154   4.790  0.9254  0.6152  1.0854
  558MOL0     C73545   3.511   8.209   4.730  0.3449 -0.0452 -0.0659
  558MOL0     C73546   3.400   8.232   4.836 -0.6336  0.6241  0.6154
  558MOL0     C73547   3.445   8.332   4.944 -0.7946  0.3908  0.7690
  558MOL0     O73548   3.456   8.456   4.869  0.2546 -0.2541 -0.4013
  558MOL0     C73549   3.490   8.573   4.936  0.2210 -0.1354 -0.1669
  558MOL0     C73550   3.592   8.571   5.034  0.1341  0.2453 -0.5852
  558MOL0     C73551   3.641   8.691   5.094  0.5660  0.3239 -0.3413
  558MOL0     C73552   3.590   8.817   5.047 -0.0936  1.3595 -0.5359
  558MOL0     C73553   3.628   8.944   5.108 -0.0861  0.2110 -0.7816
  558MOL0     O73554   3.710   8.943   5.211  0.1075  0.6848  0.2742
  558MOL0     C73555   3.704   9.051   5.304 -0.8302  0.3756  0.2379
  558MOL0     C73556   3.819   9.120   5.340  0.1143  0.3183  0.3293
  558MOL0     C73557   3.815   9.230   5.434  0.8309 -0.4452  0.3088
  558MOL0     C73558   3.686   9.264   5.486 -0.2558  0.7164  0.0427
  558MOL0     O73559   3.652   9.364   5.581 -0.5102 -1.0333  0.0286
  558MOL0     C73560   3.750   9.462   5.608 -0.5777 -0.1560 -0.0908
  558MOL0     C73561   3.688   9.561   5.706  0.2808  1.3276 -0.6599
  558MOL0     C73562   3.773   9.681   5.724  1.0014 -0.0471 -0.1227
  558MOL0     C73563   3.883   9.671   5.828 -0.6479 -1.0835 -0.9197
  558MOL0     C73564   3.924   9.816   5.882  0.0010 -0.5017  0.0003
  558MOL0     C73565   4.064   9.804   5.949  0.3290  0.3184 -0.8772
  558MOL0     C73566   4.063   9.730   6.087 -0.8799  0.0346  0.1416
  558MOL0     C73567   4.099   9.578   6.075  0.0992  0.7152 -0.4149
  558MOL0    Cl73568   4.157   9.537   6.244  0.0165  0.4588 -0.0346
  558MOL0     C73569   3.572   9.200   5.444 -0.2580  0.4303 -0.4530
  558MOL0     C73570   3.584   9.079   5.370  0.2969  0.1423  0.6634
  558MOL0     O73571   3.574   9.045   5.062  0.2259  0.0251 -0.3000
  558MOL0     C73572   3.498   8.817   4.943 -0.6522  0.3937  0.7969
  558MOL0     C73573   3.453   8.696   4.887 -0.1070 -1.3025 -0.2326
  558MOL0     N73574   3.564   8.021   4.994  0.4419  0.1640 -0.2012
  558MOL0     N73575   3.603   7.901   5.045 -0.3167  0.5629 -0.6383
  558MOL0     C73576   3.241   7.144   5.371 -0.5821  0.1151 -0.1149
  558MOL0     C73577   3.144   7.053   5.323  0.0314  0.4361 -0.3151
  558MOL0     C73578   2.736   6.871   5.288  0.5216 -0.0753 -0.5163
  558MOL0     C73579   2.600   6.876   5.316 -0.0591 -0.2180  0.5690
  558MOL0     C73580   2.519   6.789   5.256 -0.3636 -0.4608  0.2478
  558MOL0     C73581   2.563   6.704   5.159 -0.5694  0.1196  1.0819
  558MOL0     O73582   2.489   6.608   5.082 -0.0134  0.1975 -0.4730
  558MOL0     C73583   2.370   6.538   5.139  0.3662  0.1280  0.5860
  558MOL0     C73584   2.238   6.577   5.072  0.5789 -0.2679  0.4592
  558MOL0     C73585   2.122   6.479   5.111  0.7768  0.3796  0.6218
  558MOL0     C73586   1.989   6.510   5.038  0.4880  0.3880 -0.1973
  558MOL0     C73587   1.999   6.493   4.891  0.9047 -0.6717  0.4466
  558MOL0     C73588   1.992   6.464   4.771  0.0893  0.2799  0.6065
  558MOL0     C73589   2.693   6.694   5.126  0.7326  1.1340  0.5812
  558MOL0     C73590   2.781   6.777   5.189 -0.0509  0.1216  1.2305
  558MOL0     H73591   2.887   7.269   5.360  0.1607 -0.3479 -2.4485
  558MOL0     H73592   3.049   7.411   5.442 -0.4555 -0.0137 -0.7129
  558MOL0     H73593   3.259   7.536   5.573  0.5630 -0.7314  0.7423
  558MOL0     H73594   3.264   7.524   5.394  1.2958 -1.1809 -1.2847
  558MOL0     H73595   3.518   7.491   5.561  2.4268  2.0755  0.1942
  558MOL0     H73596   3.456   7.653   5.509 -2.4821  0.9415 -2.7444
  558MOL0     H73597   3.503   7.607   5.284  0.6577  0.7125  0.5077
  558MOL0     H73598   3.501   7.434   5.303  0.1408  0.1323 -1.0886
  558MOL0     H73599   3.713   7.621   5.430 -0.4606  1.6089 -2.0201
  558MOL0     H73600   3.715   7.438   5.419  0.8602 -0.4836 -1.8501
  558MOL0     H73601   3.702   7.493   5.152 -2.1678  1.5367  1.0089
  558MOL0     H73602   3.857   7.483   5.247  0.2372  0.2942  1.7091
  558MOL0     H73603   3.878   7.710   5.277  0.0092  1.2302  0.3427
  558MOL0     H73604   3.713   7.745   5.230  0.9826  0.1085  2.3092
  558MOL0     H73605   3.888   7.797   5.063 -0.2257  0.2383  0.8348
  558MOL0     H73606   3.913   7.622   5.046  2.7089  1.0787  1.5903
  558MOL0     H73607   3.643   7.620   5.013  1.4865 -1.0628  1.5385
  558MOL0     H73608   3.752   7.668   4.870  0.8579  1.9795 -0.2968
  558MOL0     H73609   3.752   7.888   4.753  0.6803 -0.9408  1.3500
  558MOL0     H73610   3.717   8.136   4.707  1.5786  1.9188  1.3400
  558MOL0     H73611   3.701   8.224   4.854 -1.0758 -0.3146  3.9658
  558MOL0     H73612   3.483   8.128   4.663  3.5692 -2.5810  1.4036
  558MOL0     H73613   3.530   8.299   4.672 -2.8393 -0.3362 -1.8348
  558MOL0     H73614   3.317   8.267   4.776  0.7531 -1.9881 -3.2098
  558MOL0     H73615   3.371   8.143   4.893 -1.4679  0.4514 -0.0682
  558MOL0     H73616   3.544   8.313   4.987  0.7517  2.7142 -1.4805
  558MOL0     H73617   3.364   8.335   5.018  0.3036  4.1140  2.0395
  558MOL0     H73618   3.619   8.472   5.069  0.2935 -0.7413 -3.2480
  558MOL0     H73619   3.706   8.677   5.180 -2.2827 -1.9940  1.6861
  558MOL0     H73620   3.907   9.096   5.281 -1.2440 -2.9654 -0.6215
  558MOL0     H73621   3.901   9.292   5.455 -0.3196  1.1310  0.5387
  558MOL0     H73622   3.787   9.514   5.520 -1.1607  1.2339  0.4612
  558MOL0     H73623   3.840   9.418   5.651 -0.4623 -3.4838 -3.3115
  558MOL0     H73624   3.673   9.509   5.802  0.2005  1.7690 -0.4306
  558MOL0     H73625   3.584   9.584   5.678 -0.6485  0.1389  1.5306
  558MOL0     H73626   3.707   9.763   5.755  1.6539  0.6015 -0.4166
  558MOL0     H73627   3.812   9.704   5.624 -1.7136 -4.2252 -2.4430
  558MOL0     H73628   3.849   9.622   5.920 -1.4684 -0.7091 -1.0152
  558MOL0     H73629   3.967   9.631   5.770  0.3595  2.7974 -2.5064
  558MOL0     H73630   3.842   9.836   5.952  2.4156 -1.3594  3.3666
  558MOL0     H73631   3.933   9.889   5.801  4.1612 -2.5256 -1.6445
  558MOL0     H73632   4.092   9.907   5.972 -1.3855  1.0734 -2.0341
  558MOL0     H73633   4.136   9.758   5.880  1.6896  3.7770 -1.9556
  558MOL0     H73634   4.135   9.782   6.151 -0.6855  0.1577 -0.1734
  558MOL0     H73635   3.964   9.750   6.129 -0.7050  3.0136 -0.6253
  558MOL0     H73636   4.178   9.552   6.004  0.7268 -0.0142  0.5250
  558MOL0     H73637   4.013   9.514   6.053 -1.3161  1.5548  2.1280
  558MOL0     H73638   3.482   9.234   5.495  0.1344 -0.8225  1.1308
  558MOL0     H73639   3.499   9.013   5.359  1.4208 -1.1123 -0.9850
  558MOL0     H73640   3.465   8.904   4.886  2.4202  0.1036 -1.7030
  558MOL0     H73641   3.395   8.699   4.795  1.1293  0.8715 -1.0150
  558MOL0     H73642   3.343   7.113   5.388  1.0946  4.7542 -0.1798
  558MOL0     H73643   3.163   6.960   5.269 -2.7630  1.0818 -2.6441
  558MOL0     H73644   2.561   6.945   5.390 -1.1994  0.3083 -0.4746
  558MOL0     H73645   2.412   6.786   5.275 -0.7805  2.3868 -1.1670
  558MOL0     H73646   2.368   6.558   5.246  2.1547  3.9677  0.0927
  558MOL0     H73647   2.393   6.433   5.118  0.6857  0.3533 -0.2328
  558MOL0     H73648   2.211   6.674   5.113  0.6780  0.8180 -1.8632
  558MOL0     H73649   2.248   6.581   4.963 -0.3256 -0.5254  0.3580
  558MOL0     H73650   2.105   6.476   5.219 -2.9664  1.5413  0.1968
  558MOL0     H73651   2.161   6.380   5.084  1.8914  0.7880  0.6468
  558MOL0     H73652   1.907   6.453   5.083  1.6584  0.2339  1.8991
  558MOL0     H73653   1.957   6.605   5.082  1.9813  0.9205 -0.1995
  558MOL0     H73654   2.007   6.453   4.666 -0.2949  1.8396  0.3674
  558MOL0     H73655   2.720   6.620   5.052 -0.0228  1.6958 -0.2852
  558MOL0     H73656   2.884   6.761   5.158 -0.1048  2.0735 -0.1779
  559MOL0     O73657   7.733  11.376   1.490  0.4736 -0.9733  0.0237
  559MOL0     C73658   7.724  11.427   1.595  0.1086 -0.5745  0.7526
  559MOL0     O73659   7.696  11.556   1.614  0.2077 -0.8358 -0.7570
  559MOL0     C73660   7.635  11.633   1.520  1.0444 -0.3857 -0.2577
  559MOL0     C73661   7.705  11.700   1.424 -0.4191 -0.0947 -1.1999
  559MOL0     C73662   7.643  11.775   1.325 -0.0637 -0.5431 -0.7947
  559MOL0     C73663   7.502  11.790   1.323 -1.4063  0.2463 -0.3578
  559MOL0     O73664   7.434  11.856   1.232  0.2922 -0.4711  0.4918
  559MOL0     C73665   7.473  11.862   1.096  0.6303 -0.1602  0.3121
  559MOL0     C73666   7.408  11.975   1.026  0.3016 -0.1896  0.4087
  559MOL0     C73667   7.451  11.988   0.875 -0.1781  0.1112  0.5074
  559MOL0     C73668   7.390  11.864   0.800  0.2883 -0.4948  0.6486
  559MOL0     C73669   7.394  11.879   0.652  0.0812 -0.4338  0.0682
  559MOL0     C73670   7.537  11.931   0.614  0.7292  0.4583 -0.1553
  559MOL0     C73671   7.535  11.970   0.472  0.6243  0.0424  0.1221
  559MOL0     C73672   7.552  11.851   0.374 -0.0973  0.3433  1.4208
  559MOL0     N73673   7.586  11.885   0.236  0.0431  0.4355 -1.3392
  559MOL0     C73674   7.680  11.972   0.192 -0.3981  0.4460  0.4534
  559MOL0     C73675   7.667  11.979   0.062 -0.5879  0.7723  0.3053
  559MOL0     C73676   7.758  12.054  -0.037  0.6154 -0.4311 -0.2928
  559MOL0     C73677   7.673  12.178  -0.082  0.0103 -0.1084  0.7319
  559MOL0     C73678   7.624  12.269   0.036 -0.9402 -0.4724  0.0286
  559MOL0     C73679   7.542  12.393  -0.012  1.1805  0.7948 -0.2670
  559MOL0     O73680   7.485  12.462   0.102  0.2237  0.3936 -0.7944
  559MOL0     C73681   7.387  12.409   0.178  0.5300 -0.6029  0.0120
  559MOL0     C73682   7.311  12.291   0.141  0.2032 -0.8506  0.3926
  559MOL0     C73683   7.205  12.247   0.219  0.9851  0.1593 -0.6007
  559MOL0     C73684   7.173  12.304   0.349 -1.0774 -0.4985  0.1451
  559MOL0     C73685   7.065  12.255   0.446 -0.0707  0.4979  0.5387
  559MOL0     O73686   7.074  12.294   0.576  0.0825  0.0438  0.1335
  559MOL0     C73687   6.998  12.218   0.672  0.4936 -0.6279 -0.1664
  559MOL0     C73688   7.052  12.097   0.721  1.1684  0.3274  0.2355
  559MOL0     C73689   6.973  12.002   0.780 -0.8180  1.1580 -0.3904
  559MOL0     C73690   6.831  12.027   0.796  0.0457 -0.1564 -0.2981
  559MOL0     O73691   6.738  11.953   0.862 -0.0621 -0.0299 -0.5225
  559MOL0     C73692   6.799  11.863   0.963 -0.8896 -0.3019  0.1576
  559MOL0     C73693   6.694  11.835   1.077  0.5599  0.1864  0.0673
  559MOL0     C73694   6.580  11.746   1.025 -1.2501  0.0145  1.0342
  559MOL0     C73695   6.485  11.724   1.143  0.1668  0.9374  0.4688
  559MOL0     C73696   6.376  11.618   1.117  0.4154 -0.4220  0.3967
  559MOL0     C73697   6.260  11.657   1.020  0.3793 -0.5043 -0.2615
  559MOL0     C73698   6.168  11.778   1.065 -0.1644  0.5978 -0.1314
  559MOL0     C73699   6.089  11.853   0.952  0.4853  1.1035 -0.5000
  559MOL0    Cl73700   6.009  11.727   0.847 -0.0026  0.0115  0.4414
  559MOL0     C73701   6.777  12.144   0.740  0.1992  0.5049  0.7016
  559MOL0     C73702   6.862  12.244   0.691 -0.4314 -0.6342 -0.0756
  559MOL0     O73703   6.990  12.170   0.403 -0.5397  0.2237  0.2799
  559MOL0     C73704   7.248  12.418   0.386  0.5695  0.1998 -0.5999
  559MOL0     C73705   7.356  12.473   0.298 -0.0849  0.4607  0.2244
  559MOL0     N73706   7.557  11.907   0.031  1.2440  0.0381  0.2895
  559MOL0     N73707   7.507  11.855   0.135 -0.3446 -0.1038  0.3514
  559MOL0     C73708   7.432  11.715   1.414  0.4043  0.3405  0.5076
  559MOL0     C73709   7.495  11.637   1.513  0.3448 -0.9219 -0.4097
  559MOL0     C73710   7.742  11.351   1.721  0.2799  0.5845  0.0660
  559MOL0     C73711   7.724  11.209   1.737  0.7190 -0.7903  0.3412
  559MOL0     C73712   7.728  11.143   1.860  0.4737  1.1003 -0.8316
  559MOL0     C73713   7.734  11.215   1.979  0.7449  0.2706  0.5289
  559MOL0     O73714   7.726  11.151   2.099  0.0602 -0.5673 -0.6587
  559MOL0     C73715   7.769  11.207   2.225  0.1624  0.9387  0.4692
  559MOL0     C73716   7.777  11.090   2.326  0.1397  0.3452 -0.0901
  559MOL0     C73717   7.847  11.140   2.463  0.2477 -0.1820 -0.0290
  559MOL0     C73718   7.895  11.020   2.540  0.4424 -0.0326 -0.6333
  559MOL0     C73719   7.911  11.044   2.682  0.0110  0.2073  0.9327
  559MOL0     C73720   7.926  11.039   2.802  0.2170 -0.7160 -0.9913
  559MOL0     C73721   7.759  11.353   1.971  0.2228 -0.4761  0.0542
  559MOL0     C73722   7.779  11.412   1.847 -0.4730 -0.3002 -0.2214
  559MOL0     H73723   7.812  11.684   1.427 -0.6132 -1.3389  1.5462
  559MOL0     H73724   7.704  11.826   1.251  0.2340  1.4824  0.7210
  559MOL0     H73725   7.436  11.769   1.053  0.8706 -0.2734  0.3500
  559MOL0     H73726   7.582  11.867   1.093  0.7931 -2.7075  0.1404
  559MOL0     H73727   7.433  12.072   1.070 -0.0112  0.8641 -1.6282
  559MOL0     H73728   7.301  11.959   1.037 -0.1968  2.7550  0.6282
  559MOL0     H73729   7.560  11.981   0.875 -0.2858 -2.3726  0.2993
  559MOL0     H73730   7.416  12.081   0.830  0.0743 -0.9964 -2.1920
  559MOL0     H73731   7.453  11.782   0.835  1.2328  0.3185  0.8972
  559MOL0     H73732   7.286  11.850   0.830  0.4296  0.9195  1.9490
  559MOL0     H73733   7.320  11.951   0.616  1.8683  1.4803  0.0784
  559MOL0     H73734   7.375  11.783   0.603  0.7262 -0.5403  0.0237
  559MOL0     H73735   7.611  11.852   0.629 -0.8792 -1.1082 -0.1952
  559MOL0     H73736   7.572  12.020   0.667  0.0073  0.9024 -0.4091
  559MOL0     H73737   7.448  12.028   0.440  0.4598 -1.2428 -1.9488
  559MOL0     H73738   7.611  12.047   0.460  0.0127  0.7757  0.8106
  559MOL0     H73739   7.453  11.808   0.354 -0.7824  2.3952  0.1483
  559MOL0     H73740   7.632  11.783   0.407 -0.7660  0.4273  3.3342
  559MOL0     H73741   7.755  12.025   0.250  0.8460  1.7095 -2.1598
  559MOL0     H73742   7.783  11.993  -0.125  2.9880  0.3767 -0.2532
  559MOL0     H73743   7.851  12.085   0.011  2.6248 -0.7021 -3.6199
  559MOL0     H73744   7.586  12.140  -0.136  0.9022  0.7892 -1.4636
  559MOL0     H73745   7.726  12.239  -0.156 -1.1839 -0.6373 -0.6101
  559MOL0     H73746   7.586  12.201   0.114  4.6057 -1.4618  2.3183
  559MOL0     H73747   7.712  12.311   0.085 -2.1943 -1.3731  3.4069
  559MOL0     H73748   7.469  12.364  -0.088 -0.6984  0.4950  1.5766
  559MOL0     H73749   7.614  12.458  -0.064  2.1997  0.5765  0.8135
  559MOL0     H73750   7.339  12.246   0.046  0.8798  1.1864 -0.4368
  559MOL0     H73751   7.158  12.152   0.194 -1.6387  0.3680  2.7701
  559MOL0     H73752   7.160  12.089   0.723  1.0948 -0.9672  2.5749
  559MOL0     H73753   7.032  11.919   0.819 -1.6643  0.9842  0.5503
  559MOL0     H73754   6.878  11.919   1.013  0.9468 -2.4674 -0.1627
  559MOL0     H73755   6.843  11.769   0.928  1.6908  0.9784 -0.2205
  559MOL0     H73756   6.659  11.935   1.103  1.9480  1.7622 -3.5401
  559MOL0     H73757   6.732  11.783   1.165  1.4362  0.7550  0.0390
  559MOL0     H73758   6.624  11.649   1.001  1.6860  1.1401  1.4410
  559MOL0     H73759   6.524  11.801   0.949 -1.6673  2.1128  2.7363
  559MOL0     H73760   6.536  11.688   1.233 -0.7629 -3.4427 -0.5273
  559MOL0     H73761   6.443  11.820   1.174  4.1244  2.9265  0.3336
  559MOL0     H73762   6.318  11.589   1.205 -3.8825  1.0184 -1.6861
  559MOL0     H73763   6.428  11.528   1.083  2.3707  0.9317 -0.3856
  559MOL0     H73764   6.189  11.575   1.005  0.6553 -0.6066 -1.0356
  559MOL0     H73765   6.292  11.684   0.919 -3.2129 -0.0459 -1.4154
  559MOL0     H73766   6.094  11.719   1.119 -0.9184 -1.9064 -3.5582
  559MOL0     H73767   6.224  11.851   1.125  0.0940 -0.1633  0.5639
  559MOL0     H73768   6.151  11.916   0.888  1.2437 -0.3124 -1.2185
  559MOL0     H73769   6.009  11.914   0.995  1.5585  3.1548 -1.2964
  559MOL0     H73770   6.675  12.171   0.763 -0.1309  0.0850 -0.2056
  559MOL0     H73771   6.807  12.334   0.665 -5.6763 -2.6011  2.6062
  559MOL0     H73772   7.224  12.449   0.487  0.0614 -2.8761  0.3340
  559MOL0     H73773   7.414  12.555   0.338  3.1261 -1.5466 -0.0138
  559MOL0     H73774   7.325  11.726   1.406  0.3382 -1.0058 -1.0493
  559MOL0     H73775   7.442  11.581   1.590  1.9784 -0.1498  1.3404
  559MOL0     H73776   7.693  11.159   1.645 -0.8787 -0.7620  0.8375
  559MOL0     H73777   7.710  11.037   1.847 -2.1082  1.0898  1.7226
  559MOL0     H73778   7.710  11.292   2.261 -0.1779  0.8201  0.1956
  559MOL0     H73779   7.874  11.238   2.212  0.1404  0.2083 -2.1706
  559MOL0     H73780   7.671  11.070   2.345 -0.2752  2.2604 -0.2212
  559MOL0     H73781   7.824  10.997   2.292 -0.4152  0.9171 -2.5985
  559MOL0     H73782   7.762  11.188   2.512 -0.4597 -0.8009 -0.6182
  559MOL0     H73783   7.930  11.207   2.437  0.3832 -1.4369 -3.2698
  559MOL0     H73784   7.821  10.941   2.535  1.1912 -0.7589 -0.4966
  559MOL0     H73785   7.988  10.968   2.514  0.3631 -1.0817  1.0187
  559MOL0     H73786   7.921  11.017   2.907  0.7856 -0.4078 -0.8914
  559MOL0     H73787   7.766  11.422   2.054  2.5413 -0.6203  0.0440
  559MOL0     H73788   7.805  11.517   1.842 -0.9095 -0.1810 -0.0522
  560MOL0     O73789   2.706  10.511  11.406  0.1780 -0.0014  0.4139
  560MOL0     C73790   2.620  10.529  11.483 -0.1316 -0.7736  0.2531
  560MOL0     O73791   2.595  10.642  11.555 -0.6229 -1.1090 -0.2329
  560MOL0     C73792   2.673  10.759  11.555  0.6103  1.0635  0.1872
  560MOL0     C73793   2.611  10.879  11.578  0.4441  0.7822  0.1248
  560MOL0     C73794   2.678  10.996  11.593  0.9474 -0.1309 -0.5877
  560MOL0     C73795   2.810  11.004  11.561  0.5464  0.2924 -0.6955
  560MOL0     O73796   2.872  11.124  11.545  0.1283  0.4533  1.0426
  560MOL0     C73797   2.935  11.174  11.664 -0.1065  0.3496 -0.2216
  560MOL0     C73798   2.837  11.269  11.731 -0.0608  0.9785 -0.0208
  560MOL0     C73799   2.903  11.336  11.858 -0.1281 -0.3152  1.0064
  560MOL0     C73800   2.826  11.455  11.919 -0.2382  0.6221  0.2779
  560MOL0     C73801   2.902  11.545  12.007  0.5903  0.0880 -0.0341
  560MOL0     C73802   3.029  11.612  11.943  1.1004  0.4233 -0.6638
  560MOL0     C73803   3.010  11.686  11.799 -0.2624  0.8682 -0.0170
  560MOL0     C73804   3.134  11.767  11.751 -1.2046  0.4022  0.3553
  560MOL0     N73805   3.162  11.883  11.834  0.1698 -0.3269 -0.4200
  560MOL0     C73806   3.264  11.899  11.934 -0.3648  0.1661 -0.0895
  560MOL0     C73807   3.249  12.032  11.966 -0.3101  0.7466  0.1873
  560MOL0     C73808   3.334  12.098  12.074  0.3229  0.3920 -0.6896
  560MOL0     C73809   3.477  12.092  12.026 -0.3040  0.1603 -0.2990
  560MOL0     C73810   3.578  12.188  12.096  0.4395 -0.8655  0.9551
  560MOL0     C73811   3.710  12.199  12.022 -0.7765 -0.2868 -0.6748
  560MOL0     O73812   3.760  12.313  12.087 -0.7088 -0.5352 -0.5372
  560MOL0     C73813   3.872  12.379  12.037 -0.4154  0.4137 -0.8004
  560MOL0     C73814   3.904  12.508  12.090  0.0002  0.4208 -0.1664
  560MOL0     C73815   4.011  12.575  12.048  0.9243 -0.2650  0.7471
  560MOL0     C73816   4.096  12.526  11.952 -0.4526  0.1879 -0.5223
  560MOL0     C73817   4.217  12.601  11.922  0.6009 -0.7365  0.1636
  560MOL0     O73818   4.260  12.703  12.007  0.3902 -0.7949 -0.5934
  560MOL0     C73819   4.384  12.768  11.989 -0.0868  0.0815  0.7341
  560MOL0     C73820   4.512  12.704  11.946  0.2650 -0.6782  0.4265
  560MOL0     C73821   4.627  12.777  11.918 -0.5749 -0.2344  0.1936
  560MOL0     C73822   4.644  12.911  11.963  0.0826  0.6635  0.6398
  560MOL0     O73823   4.768  12.974  11.960  0.0635  0.1372 -0.7684
  560MOL0     C73824   4.781  13.105  12.025  0.2226  0.4045 -0.0092
  560MOL0     C73825   4.770  13.111  12.181 -0.0613  0.0946 -0.5610
  560MOL0     C73826   4.882  13.031  12.242  1.1122 -0.5340 -0.1203
  560MOL0     C73827   4.920  13.093  12.385  0.1483  0.1647 -0.2073
  560MOL0     C73828   5.016  13.003  12.463 -0.3753  0.4455 -0.1322
  560MOL0     C73829   4.949  12.875  12.511  0.1862  0.3637 -0.0831
  560MOL0     C73830   5.029  12.774  12.597  0.4943  0.3081 -0.5241
  560MOL0     C73831   5.122  12.835  12.702  0.8479  0.2275 -0.2812
  560MOL0    Cl73832   5.225  12.704  12.783 -0.0606  0.1339  0.1574
  560MOL0     C73833   4.526  12.966  12.018  0.1725  0.4154  0.4080
  560MOL0     C73834   4.402  12.902  12.025 -0.2206 -0.0317  0.5058
  560MOL0     O73835   4.277  12.568  11.816 -0.1730 -0.0474 -0.7113
  560MOL0     C73836   4.074  12.389  11.906  0.1492  0.0830  1.3413
  560MOL0     C73837   3.966  12.317  11.953  0.3702  0.5545 -0.8828
  560MOL0     N73838   3.134  12.092  11.902 -1.7377 -0.4478  0.2908
  560MOL0     N73839   3.086  11.995  11.829  0.5971 -0.7200 -0.6976
  560MOL0     C73840   2.875  10.886  11.528 -0.9753 -0.1920 -0.1763
  560MOL0     C73841   2.812  10.758  11.530  0.5289  0.7911 -0.4677
  560MOL0     C73842   2.535  10.407  11.517  0.0376 -0.0946  0.3363
  560MOL0     C73843   2.564  10.271  11.479 -0.5140 -0.2195 -0.1011
  560MOL0     C73844   2.472  10.169  11.525  0.2387 -0.3834  0.2262
  560MOL0     C73845   2.372  10.202  11.614 -1.0426  0.1259 -0.6887
  560MOL0     O73846   2.273  10.107  11.645  0.6027  0.4937  0.6996
  560MOL0     C73847   2.144  10.142  11.695 -0.6844  0.8014  0.1190
  560MOL0     C73848   2.053  10.024  11.706 -0.2852 -0.0612 -1.0389
  560MOL0     C73849   1.965  10.023  11.835  0.3125 -0.5778 -0.5323
  560MOL0     C73850   1.883   9.898  11.830  0.6482 -0.0237 -0.0902
  560MOL0     C73851   1.806   9.913  11.956 -0.0591 -0.6605  0.1104
  560MOL0     C73852   1.734   9.943  12.049 -0.1461 -0.2161  0.6698
  560MOL0     C73853   2.354  10.337  11.659 -0.2798 -0.3391 -0.5668
  560MOL0     C73854   2.429  10.434  11.602  0.2791  0.6259 -0.2493
  560MOL0     H73855   2.503  10.871  11.574  0.4803  0.7385 -2.1061
  560MOL0     H73856   2.626  11.090  11.611  1.4732 -0.4010  3.1013
  560MOL0     H73857   3.024  11.237  11.655  0.4484 -0.3789  0.0947
  560MOL0     H73858   2.943  11.087  11.730 -3.1190  1.2581  1.5453
  560MOL0     H73859   2.749  11.209  11.754  2.1063 -1.8779  1.4823
  560MOL0     H73860   2.816  11.334  11.645  1.2024 -0.0846 -1.1907
  560MOL0     H73861   3.003  11.372  11.834  0.1382 -2.7808 -2.3356
  560MOL0     H73862   2.922  11.253  11.927 -0.7136 -0.6260  0.8063
  560MOL0     H73863   2.772  11.517  11.846 -1.4206  0.3700  0.8984
  560MOL0     H73864   2.750  11.408  11.982 -2.5875 -0.6950 -3.2342
  560MOL0     H73865   2.942  11.477  12.082 -0.1437 -2.6403 -1.9861
  560MOL0     H73866   2.834  11.617  12.055 -2.0647 -2.4678  0.3333
  560MOL0     H73867   3.114  11.544  11.948  0.4765 -0.2674  2.1844
  560MOL0     H73868   3.064  11.685  12.017 -1.7114  0.3366  0.8823
  560MOL0     H73869   2.985  11.601  11.734  0.6262 -1.3940  2.4307
  560MOL0     H73870   2.929  11.760  11.788 -3.0426 -1.7216  1.5419
  560MOL0     H73871   3.106  11.806  11.653 -1.6736 -0.8832 -0.0253
  560MOL0     H73872   3.228  11.711  11.745 -1.9583 -1.3616  3.1915
  560MOL0     H73873   3.336  11.823  11.961 -4.8006 -3.8039  2.2538
  560MOL0     H73874   3.328  12.059  12.176 -2.8468  0.7284 -0.6350
  560MOL0     H73875   3.304  12.200  12.099  1.7711  0.9865 -1.2466
  560MOL0     H73876   3.490  12.115  11.920  1.9194 -2.0030 -0.6153
  560MOL0     H73877   3.507  11.990  12.051 -1.4567 -0.1109  0.0280
  560MOL0     H73878   3.534  12.288  12.095  1.5401 -0.3256 -0.8240
  560MOL0     H73879   3.585  12.170  12.203  1.2542  0.0271  1.0646
  560MOL0     H73880   3.703  12.207  11.913  2.6509 -2.7494 -1.2399
  560MOL0     H73881   3.766  12.106  12.038  0.0560 -0.0526 -2.0707
  560MOL0     H73882   3.846  12.555  12.168  2.2677  0.3635  1.6573
  560MOL0     H73883   4.028  12.673  12.092 -0.3495  0.7862 -0.9416
  560MOL0     H73884   4.519  12.600  11.915  0.8065  0.0219 -2.0082
  560MOL0     H73885   4.706  12.717  11.875 -3.2142 -3.1034 -0.9714
  560MOL0     H73886   4.701  13.165  11.981  0.5762 -0.3571 -1.7800
  560MOL0     H73887   4.872  13.165  12.007  0.7018 -0.0684  0.7596
  560MOL0     H73888   4.678  13.067  12.220 -0.5321  0.9704 -0.6639
  560MOL0     H73889   4.778  13.215  12.213  1.2779 -0.3842  0.7540
  560MOL0     H73890   4.967  13.031  12.174 -0.3892 -1.5926 -2.1004
  560MOL0     H73891   4.853  12.925  12.245  2.1204 -0.8307 -0.5539
  560MOL0     H73892   4.967  13.189  12.364 -2.1109  1.2629 -0.5125
  560MOL0     H73893   4.830  13.111  12.445  0.5527 -1.8517  1.1164
  560MOL0     H73894   5.063  13.050  12.551 -1.9033 -3.2449  2.9636
  560MOL0     H73895   5.104  12.988  12.400 -2.3590  0.7746 -3.2007
  560MOL0     H73896   4.921  12.815  12.423  0.3180  1.3038 -0.7754
  560MOL0     H73897   4.866  12.913  12.571 -1.0433 -2.8379  0.4647
  560MOL0     H73898   4.963  12.697  12.639  0.0086 -0.7568 -3.0479
  560MOL0     H73899   5.090  12.714  12.529  1.2802  0.7847 -0.2596
  560MOL0     H73900   5.073  12.914  12.760  2.2705  1.9613 -1.3334
  560MOL0     H73901   5.188  12.907  12.654  1.3772 -0.5787 -0.7785
  560MOL0     H73902   4.535  13.061  12.068  3.1988 -1.2758  3.4892
  560MOL0     H73903   4.319  12.951  12.075 -0.3576  1.8213 -1.3988
  560MOL0     H73904   4.159  12.344  11.855  1.4407  0.3637  3.1371
  560MOL0     H73905   3.957  12.213  11.921 -0.3390  0.7312 -1.2824
  560MOL0     H73906   2.974  10.886  11.485 -1.0613  0.6198 -0.3813
  560MOL0     H73907   2.864  10.670  11.492  2.5891  0.8290  1.9865
  560MOL0     H73908   2.654  10.244  11.426  0.8477  3.9307 -0.2452
  560MOL0     H73909   2.473  10.064  11.495  0.7776 -1.7233  4.3447
  560MOL0     H73910   2.097  10.215  11.629  2.1882  1.9325 -0.8241
  560MOL0     H73911   2.155  10.184  11.795 -3.2092  0.9985  0.3731
  560MOL0     H73912   1.994  10.028  11.614 -0.1355  0.7876 -1.1046
  560MOL0     H73913   2.118   9.936  11.708  2.7703  1.7871  4.8350
  560MOL0     H73914   1.906  10.114  11.849 -0.1939 -1.3251  2.9952
  560MOL0     H73915   2.021  10.018  11.929 -2.2785  0.7210  1.1927
  560MOL0     H73916   1.813   9.891  11.747 -1.7769 -0.6154  1.8772
  560MOL0     H73917   1.952   9.813  11.832 -3.0934 -3.3296  0.7050
  560MOL0     H73918   1.681   9.983  12.133 -2.3778 -2.2040  0.3367
  560MOL0     H73919   2.273  10.360  11.727 -1.0814 -1.9283 -0.9259
  560MOL0     H73920   2.414  10.535  11.640 -1.5956 -0.2379  1.4960
  561MOL0     O73921   3.430   7.903   6.797 -0.8244  0.0776 -0.2676
  561MOL0     C73922   3.364   7.851   6.702 -0.3278  0.1737 -0.3288
  561MOL0     O73923   3.300   7.925   6.610 -0.4749  0.5219  0.6379
  561MOL0     C73924   3.281   8.057   6.635  0.4650 -0.6417  0.6880
  561MOL0     C73925   3.330   8.162   6.551  0.1150 -0.0398 -0.6629
  561MOL0     C73926   3.297   8.297   6.581 -0.7857  0.2696  0.6769
  561MOL0     C73927   3.224   8.326   6.687 -0.2843 -0.4543 -0.4528
  561MOL0     O73928   3.198   8.460   6.720 -0.4446  0.4641  1.2008
  561MOL0     C73929   3.314   8.531   6.772  0.4839  0.2676  0.4655
  561MOL0     C73930   3.300   8.676   6.793  0.0141  0.3557  1.0922
  561MOL0     C73931   3.180   8.719   6.874  0.1110  1.4226  0.0339
  561MOL0     C73932   3.196   8.727   7.025  0.8880  0.1109 -0.2815
  561MOL0     C73933   3.058   8.779   7.085 -1.5116 -0.5269 -0.0830
  561MOL0     C73934   2.936   8.679   7.079  0.9914  0.4538 -0.6664
  561MOL0     C73935   2.812   8.740   7.152  1.3773  0.0280  0.5628
  561MOL0     C73936   2.678   8.655   7.130 -0.0296  0.1504 -0.9369
  561MOL0     N73937   2.695   8.512   7.174 -0.8974 -0.2812 -0.2922
  561MOL0     C73938   2.668   8.403   7.098  0.7803 -0.3805 -0.9136
  561MOL0     C73939   2.699   8.294   7.172  0.2182 -0.5709 -0.3416
  561MOL0     C73940   2.679   8.151   7.120  0.2784  0.0127  0.3862
  561MOL0     C73941   2.606   8.079   7.227  0.8569  0.2062  0.8764
  561MOL0     C73942   2.562   7.944   7.170 -1.1280 -0.0134  0.2585
  561MOL0     C73943   2.675   7.835   7.142  0.9799 -0.3504 -0.1810
  561MOL0     O73944   2.718   7.780   7.272 -0.0996 -0.5352 -0.2921
  561MOL0     C73945   2.772   7.657   7.282 -0.7155 -0.2692 -0.9365
  561MOL0     C73946   2.746   7.550   7.198 -0.4848 -0.5455  0.6000
  561MOL0     C73947   2.812   7.435   7.208 -0.4431  0.3967  0.0158
  561MOL0     C73948   2.924   7.426   7.297  0.2896  0.1702  0.2774
  561MOL0     C73949   2.999   7.296   7.299 -0.0699  0.7904 -0.0183
  561MOL0     O73950   3.090   7.295   7.396 -0.5178 -0.4188  1.4585
  561MOL0     C73951   3.166   7.179   7.440 -0.3252  0.1032  0.5738
  561MOL0     C73952   3.149   7.046   7.397  0.7728  0.2188  0.0645
  561MOL0     C73953   3.236   6.939   7.428  0.3172 -0.1291 -0.6866
  561MOL0     C73954   3.342   6.953   7.523 -0.0741 -0.0083 -0.7033
  561MOL0     O73955   3.421   6.853   7.579 -0.2069 -0.0527  0.1108
  561MOL0     C73956   3.447   6.741   7.484 -0.8448 -0.6725 -0.4951
  561MOL0     C73957   3.597   6.703   7.494  0.0740  0.3837  0.4442
  561MOL0     C73958   3.666   6.742   7.628  0.3351 -0.2993  1.4908
  561MOL0     C73959   3.808   6.694   7.656  0.9151 -0.0866 -0.0706
  561MOL0     C73960   3.868   6.773   7.769 -0.0554  0.6875  1.0467
  561MOL0     C73961   4.006   6.730   7.815  0.1034  0.9639  0.0761
  561MOL0     C73962   4.037   6.803   7.939 -0.0444  0.2834 -0.1688
  561MOL0     C73963   4.092   6.933   7.886 -0.5219 -0.0136  0.2325
  561MOL0    Cl73964   4.116   7.044   8.015 -0.2007 -0.3372  1.0242
  561MOL0     C73965   3.363   7.086   7.560  0.8074  0.4613 -0.3959
  561MOL0     C73966   3.278   7.199   7.515 -0.2272  0.7046 -0.3927
  561MOL0     O73967   2.997   7.219   7.202 -0.0831  0.6282  0.3596
  561MOL0     C73968   2.943   7.535   7.380 -0.7089  0.2899 -0.3949
  561MOL0     C73969   2.872   7.651   7.379 -0.0020  0.5645 -0.3509
  561MOL0     N73970   2.727   8.344   7.298  0.4681  0.6730 -0.2432
  561MOL0     N73971   2.712   8.467   7.298 -0.8037 -0.0554 -0.6658
  561MOL0     C73972   3.160   8.226   6.759  0.1431 -0.1022 -0.1138
  561MOL0     C73973   3.184   8.090   6.735  0.1111  0.8432  0.4475
  561MOL0     C73974   3.356   7.703   6.700  0.4370 -0.5708  1.5788
  561MOL0     C73975   3.426   7.625   6.789  0.1846  0.0953  0.5106
  561MOL0     C73976   3.421   7.484   6.786  0.2277 -0.4834 -0.0689
  561MOL0     C73977   3.359   7.417   6.681 -0.2495 -0.1631 -0.7179
  561MOL0     O73978   3.393   7.286   6.674  0.7405  0.7116  0.1074
  561MOL0     C73979   3.370   7.222   6.544 -1.5244 -1.3094 -0.1166
  561MOL0     C73980   3.228   7.174   6.518 -0.4592 -0.3996  0.1583
  561MOL0     C73981   3.194   7.172   6.366 -0.0893 -0.4335 -0.2918
  561MOL0     C73982   3.288   7.076   6.285 -0.0157  0.2972 -0.3764
  561MOL0     C73983   3.287   7.101   6.138 -0.6326 -0.3201  0.3256
  561MOL0     C73984   3.300   7.099   6.019 -0.4524  0.5309 -0.7426
  561MOL0     C73985   3.286   7.500   6.589 -0.1790 -1.0409  0.1521
  561MOL0     C73986   3.283   7.641   6.600  0.6094 -0.1697  0.3098
  561MOL0     H73987   3.398   8.146   6.469  1.1313  2.6294 -0.4559
  561MOL0     H73988   3.348   8.374   6.525  0.7704 -1.2760 -0.1298
  561MOL0     H73989   3.407   8.513   6.717  0.2319  0.6016 -0.0830
  561MOL0     H73990   3.333   8.476   6.864  1.6986 -0.3023 -0.0908
  561MOL0     H73991   3.290   8.728   6.697 -3.6783 -1.1924  0.4966
  561MOL0     H73992   3.394   8.721   6.828 -0.0103  0.1199  1.4652
  561MOL0     H73993   3.091   8.659   6.853  0.8709 -0.0293  0.8064
  561MOL0     H73994   3.159   8.816   6.829 -0.5869  0.6460 -1.3882
  561MOL0     H73995   3.219   8.635   7.079  0.3157 -1.7843 -3.0543
  561MOL0     H73996   3.276   8.801   7.039  0.4382  0.5634 -0.0349
  561MOL0     H73997   3.017   8.867   7.033 -2.0479 -0.9381 -0.3638
  561MOL0     H73998   3.077   8.808   7.189 -0.0959  0.1848 -0.5094
  561MOL0     H73999   2.970   8.582   7.117 -1.4970 -0.4957 -0.7316
  561MOL0     H74000   2.902   8.658   6.978  1.5314 -2.4893 -0.3411
  561MOL0     H74001   2.817   8.754   7.260 -0.2753  0.2718  0.6245
  561MOL0     H74002   2.787   8.835   7.104  0.2698  0.2127  1.4726
  561MOL0     H74003   2.635   8.657   7.030 -1.1737 -0.1427 -0.4680
  561MOL0     H74004   2.613   8.714   7.196  0.8368  0.7435 -0.5822
  561MOL0     H74005   2.633   8.407   6.995  0.4589  1.7119 -0.7561
  561MOL0     H74006   2.775   8.106   7.095 -0.1957 -0.9753  0.2619
  561MOL0     H74007   2.617   8.163   7.030 -0.4153  4.6454  1.2742
  561MOL0     H74008   2.519   8.138   7.257  0.8360  0.2635  0.7023
  561MOL0     H74009   2.671   8.045   7.309  1.4257 -0.3141  0.2281
  561MOL0     H74010   2.486   7.892   7.229 -0.9760 -1.5350 -0.8447
  561MOL0     H74011   2.499   7.962   7.082 -2.9372 -3.1798  0.7590
  561MOL0     H74012   2.766   7.871   7.093  1.8160 -2.1916 -0.0566
  561MOL0     H74013   2.634   7.759   7.075  0.0814 -1.8966  2.0052
  561MOL0     H74014   2.682   7.559   7.111  1.4744 -2.0388 -1.0668
  561MOL0     H74015   2.791   7.360   7.132  1.4863 -2.2648  1.9117
  561MOL0     H74016   3.062   7.009   7.344  0.9592  1.0339 -0.8376
  561MOL0     H74017   3.212   6.845   7.381 -1.8309 -0.5089  1.0008
  561MOL0     H74018   3.435   6.772   7.380 -0.1874 -0.5880 -0.5514
  561MOL0     H74019   3.378   6.656   7.496 -0.1412 -1.1635  0.1979
  561MOL0     H74020   3.660   6.754   7.420  0.1178  0.4367  0.5167
  561MOL0     H74021   3.608   6.595   7.484 -0.2592  0.4911 -1.4333
  561MOL0     H74022   3.606   6.697   7.707 -1.2262  2.3766  1.9344
  561MOL0     H74023   3.663   6.850   7.645  0.1862 -0.2207  0.9987
  561MOL0     H74024   3.787   6.591   7.688 -2.5773  0.4559 -0.2025
  561MOL0     H74025   3.862   6.719   7.564 -1.8855 -2.9467 -2.7753
  561MOL0     H74026   3.795   6.753   7.848 -0.4721 -2.9088 -0.0577
  561MOL0     H74027   3.862   6.877   7.735  0.2686 -0.0126 -1.3376
  561MOL0     H74028   4.081   6.740   7.736 -1.0858  1.7911 -0.9848
  561MOL0     H74029   4.007   6.627   7.852 -0.2503  0.8981 -0.0925
  561MOL0     H74030   3.953   6.815   8.008 -0.6937  2.1775 -1.2298
  561MOL0     H74031   4.121   6.752   7.988 -2.1287 -3.2631  0.1101
  561MOL0     H74032   4.016   6.978   7.822 -3.8898 -1.6741  2.7064
  561MOL0     H74033   4.182   6.923   7.825  0.0684  3.8317  0.2673
  561MOL0     H74034   3.453   7.109   7.615  3.1577 -1.1084 -3.3136
  561MOL0     H74035   3.291   7.303   7.545 -0.9959  0.2911  1.5156
  561MOL0     H74036   3.029   7.539   7.445 -0.7622 -4.3643  0.3188
  561MOL0     H74037   2.869   7.735   7.448  0.7194  1.1498 -1.0075
  561MOL0     H74038   3.088   8.259   6.833  0.6783 -0.1183  0.4260
  561MOL0     H74039   3.133   8.015   6.795 -2.7317  3.5977  1.7565
  561MOL0     H74040   3.474   7.679   6.870 -1.3513  1.4902  0.5418
  561MOL0     H74041   3.472   7.422   6.859 -2.8200 -0.9610  1.8404
  561MOL0     H74042   3.436   7.135   6.548 -1.5476 -1.3057  0.5761
  561MOL0     H74043   3.392   7.280   6.454 -1.7408 -0.5252  0.3307
  561MOL0     H74044   3.212   7.076   6.563  3.2971 -0.6525  1.2529
  561MOL0     H74045   3.157   7.244   6.563 -3.3607 -1.5698 -2.2313
  561MOL0     H74046   3.208   7.269   6.318  0.3935 -0.6698 -0.6455
  561MOL0     H74047   3.089   7.142   6.361 -0.5723  0.8019  1.6164
  561MOL0     H74048   3.393   7.080   6.317  0.2277  3.6756 -1.2397
  561MOL0     H74049   3.244   6.977   6.297  0.7459 -0.3447 -2.5676
  561MOL0     H74050   3.300   7.080   5.913 -1.1524 -0.8929 -0.5175
  561MOL0     H74051   3.227   7.464   6.505  0.1711 -0.7990 -0.2007
  561MOL0     H74052   3.220   7.689   6.527  2.1655 -0.4060 -1.2447
  562MOL0     O74053   9.164   1.871   6.960 -0.6409 -0.7991 -0.1968
  562MOL0     C74054   9.052   1.902   6.999 -0.1153  0.0268 -0.0217
  562MOL0     O74055   8.943   1.837   6.951  0.3700  0.2091 -0.9295
  562MOL0     C74056   8.941   1.807   6.819 -1.2601  0.0044  0.1115
  562MOL0     C74057   9.025   1.853   6.713  0.8584  0.3488  0.4908
  562MOL0     C74058   9.027   1.791   6.590  0.7869 -0.6280  0.4820
  562MOL0     C74059   8.918   1.712   6.552 -0.9370  0.2410 -0.2325
  562MOL0     O74060   8.920   1.651   6.430 -0.6372 -0.6613 -0.1175
  562MOL0     C74061   8.822   1.698   6.340 -0.4247 -0.0769 -0.9956
  562MOL0     C74062   8.856   1.841   6.284 -0.5106 -0.0793 -0.1608
  562MOL0     C74063   9.004   1.836   6.216 -1.0044 -0.0106  0.0140
  562MOL0     C74064   9.057   1.971   6.146  0.9229  0.3647 -0.1588
  562MOL0     C74065   9.205   1.962   6.104  0.1166 -0.3318  0.9581
  562MOL0     C74066   9.259   2.100   6.052  0.0233 -0.4655  0.6742
  562MOL0     C74067   9.406   2.094   6.020 -0.2496 -0.6679  0.1872
  562MOL0     C74068   9.494   2.102   6.141 -0.4483 -0.4355 -0.4990
  562MOL0     N74069   9.599   1.998   6.131 -0.0282  0.3300 -0.6232
  562MOL0     C74070   9.707   1.995   6.031  0.5839  0.7299 -0.3279
  562MOL0     C74071   9.782   1.890   6.067 -0.6983  0.1835  0.9547
  562MOL0     C74072   9.899   1.835   5.990  0.6039 -0.6487 -0.1191
  562MOL0     C74073  10.033   1.843   6.063  0.4386 -0.1916 -0.4137
  562MOL0     C74074  10.146   1.803   5.969 -0.1198  0.0497  0.6160
  562MOL0     C74075  10.284   1.835   6.032 -0.1541 -0.1762 -0.4109
  562MOL0     O74076  10.383   1.847   5.927  0.4007 -0.4526  0.1801
  562MOL0     C74077  10.511   1.861   5.975  0.1620  0.2873  0.0294
  562MOL0     C74078  10.571   1.980   5.973  0.7632  0.1438  1.5691
  562MOL0     C74079  10.701   2.002   6.012 -0.6479 -0.2956 -0.5314
  562MOL0     C74080  10.780   1.894   6.066  0.6456  0.3930 -0.3159
  562MOL0     C74081  10.913   1.913   6.112  0.2539 -0.2586 -0.2057
  562MOL0     O74082  10.975   2.036   6.097  0.7380 -0.7271  0.7208
  562MOL0     C74083  11.109   2.057   6.141  0.2152 -0.5632 -0.2664
  562MOL0     C74084  11.216   2.066   6.046  0.3311 -0.4283 -0.7628
  562MOL0     C74085  11.343   2.086   6.097 -0.8992 -1.0683 -0.4640
  562MOL0     C74086  11.376   2.074   6.235  0.6896 -0.1755  0.6180
  562MOL0     O74087  11.505   2.080   6.294 -0.9509  0.1369  0.5576
  562MOL0     C74088  11.599   2.139   6.205  0.4191  0.6326 -0.3521
  562MOL0     C74089  11.735   2.153   6.275 -0.0631  0.4686  0.0716
  562MOL0     C74090  11.861   2.217   6.197  0.4222 -0.9185 -0.1633
  562MOL0     C74091  11.930   2.128   6.087 -0.5874  0.9876 -0.6692
  562MOL0     C74092  11.996   2.219   5.975  0.2564 -0.5158  0.7446
  562MOL0     C74093  12.099   2.305   6.047  0.3984  0.7773 -0.2436
  562MOL0     C74094  12.208   2.357   5.957 -1.3657  0.0552  0.3371
  562MOL0     C74095  12.167   2.485   5.889  0.4786 -0.5271  1.1262
  562MOL0    Cl74096  12.305   2.566   5.811  0.0709 -0.0257  0.0689
  562MOL0     C74097  11.270   2.080   6.328 -0.9253 -0.5242  0.2453
  562MOL0     C74098  11.141   2.078   6.276  0.1121  0.0704 -0.2071
  562MOL0     O74099  10.956   1.823   6.185 -0.4494 -0.6382 -0.6062
  562MOL0     C74100  10.717   1.766   6.046 -0.3320 -1.1668  0.1443
  562MOL0     C74101  10.591   1.752   5.993  0.0324  0.1377 -0.0660
  562MOL0     N74102   9.720   1.841   6.185  0.1964 -0.1856  0.1098
  562MOL0     N74103   9.625   1.908   6.231 -0.3195  0.5222 -0.5074
  562MOL0     C74104   8.825   1.673   6.658  0.1161  0.6084  0.1046
  562MOL0     C74105   8.835   1.721   6.787  0.0535  0.0102  0.3124
  562MOL0     C74106   9.028   2.004   7.110  0.5043  0.7101 -0.7452
  562MOL0     C74107   8.894   2.026   7.151  0.7193  0.2571  0.1172
  562MOL0     C74108   8.877   2.097   7.273 -0.3170  0.4393 -0.2662
  562MOL0     C74109   8.983   2.156   7.341 -0.9035  0.0485 -0.2947
  562MOL0     O74110   8.973   2.244   7.445  0.1615 -0.5306  0.8876
  562MOL0     C74111   8.866   2.242   7.541  0.7728  0.1423 -0.1018
  562MOL0     C74112   8.826   2.098   7.588 -0.3539  0.6561 -1.1139
  562MOL0     C74113   8.931   2.035   7.673  1.1790 -0.0450  0.2937
  562MOL0     C74114   8.898   1.891   7.714 -0.5004 -0.3384  0.0127
  562MOL0     C74115   8.800   1.891   7.813 -0.2198 -0.1746  0.6285
  562MOL0     C74116   8.722   1.886   7.901 -0.1438  1.1464 -0.6031
  562MOL0     C74117   9.117   2.123   7.305  0.9590  0.7428  0.4693
  562MOL0     C74118   9.131   2.054   7.189  0.2199  0.4230  1.6079
  562MOL0     H74119   9.103   1.926   6.730  1.6833 -0.3610 -0.2040
  562MOL0     H74120   9.108   1.806   6.519  1.0049  0.1735  0.8819
  562MOL0     H74121   8.721   1.692   6.381 -2.5642  1.6532 -5.3439
  562MOL0     H74122   8.822   1.633   6.252  0.1347 -0.3441 -0.8018
  562MOL0     H74123   8.846   1.914   6.365 -1.6459  0.7870 -1.0398
  562MOL0     H74124   8.784   1.862   6.204  0.2893  2.5944 -0.2555
  562MOL0     H74125   9.024   1.748   6.153 -0.6572  0.0837 -0.0089
  562MOL0     H74126   9.074   1.833   6.299  0.9809  1.0355 -1.5418
  562MOL0     H74127   8.996   1.991   6.057  1.6024  1.2941 -0.4268
  562MOL0     H74128   9.045   2.060   6.208  1.4387  0.2371  0.1234
  562MOL0     H74129   9.214   1.881   6.031 -5.7613 -0.1714 -0.3999
  562MOL0     H74130   9.263   1.928   6.191  0.1231  2.9656  2.4024
  562MOL0     H74131   9.237   2.183   6.120  1.0968 -1.0204  1.7484
  562MOL0     H74132   9.214   2.144   5.963  0.1152 -1.1754  0.2708
  562MOL0     H74133   9.425   2.006   5.958 -0.5530  0.1565 -1.1089
  562MOL0     H74134   9.432   2.182   5.960 -1.6637 -1.8918 -2.3638
  562MOL0     H74135   9.437   2.105   6.234 -0.8112 -0.7339 -0.7107
  562MOL0     H74136   9.540   2.201   6.139 -0.2745 -0.3600  2.5891
  562MOL0     H74137   9.726   2.048   5.939  2.8413 -0.2523 -0.4951
  562MOL0     H74138   9.909   1.885   5.893  3.5890 -0.4881  0.1887
  562MOL0     H74139   9.889   1.726   5.989  3.6786 -1.0228  0.4324
  562MOL0     H74140  10.020   1.766   6.140 -0.5570  0.7789  0.4120
  562MOL0     H74141  10.044   1.939   6.113 -1.9643 -1.1768  2.2881
  562MOL0     H74142  10.146   1.698   5.939  1.3825  0.5279 -1.3246
  562MOL0     H74143  10.132   1.857   5.874 -0.7564  0.4188  0.9181
  562MOL0     H74144  10.298   1.759   6.109 -1.3426 -0.7483 -0.7356
  562MOL0     H74145  10.297   1.929   6.086  1.0138 -0.5935  0.0721
  562MOL0     H74146  10.518   2.058   5.919  0.2031 -0.6339  0.9870
  562MOL0     H74147  10.740   2.104   6.003 -3.2047  0.6267 -2.0507
  562MOL0     H74148  11.184   2.051   5.944 -2.6647 -0.9218  0.1293
  562MOL0     H74149  11.417   2.100   6.020  0.0835 -1.0543  0.4582
  562MOL0     H74150  11.551   2.236   6.187 -2.7849 -0.8921 -0.6902
  562MOL0     H74151  11.603   2.091   6.106 -3.4496  0.4798 -0.5860
  562MOL0     H74152  11.768   2.052   6.298 -4.2988 -1.1869 -0.2202
  562MOL0     H74153  11.718   2.213   6.365 -0.8187  1.3492 -0.6417
  562MOL0     H74154  11.927   2.251   6.277 -1.3936  0.0280  1.0110
  562MOL0     H74155  11.814   2.299   6.142 -2.9382 -2.4085  0.2232
  562MOL0     H74156  12.012   2.072   6.135  0.6098  0.1559 -3.4645
  562MOL0     H74157  11.861   2.059   6.037  0.0778  1.0635 -1.7266
  562MOL0     H74158  11.914   2.278   5.932  0.4684 -1.9287 -1.7591
  562MOL0     H74159  12.033   2.152   5.897  2.5628  0.8284  0.5961
  562MOL0     H74160  12.141   2.240   6.124  0.8578 -2.4106 -2.9113
  562MOL0     H74161  12.049   2.389   6.096  1.4266  0.9596  0.5124
  562MOL0     H74162  12.300   2.369   6.017 -0.4953 -0.6811 -0.8137
  562MOL0     H74163  12.223   2.282   5.879 -0.7702 -1.4605  1.8456
  562MOL0     H74164  12.125   2.552   5.965  4.2004  3.9912 -0.3112
  562MOL0     H74165  12.092   2.473   5.811 -0.7504 -0.9725  2.3330
  562MOL0     H74166  11.272   2.090   6.436  0.3058 -1.1716  0.3044
  562MOL0     H74167  11.053   2.068   6.338 -1.2775 -1.5304 -2.2971
  562MOL0     H74168  10.764   1.672   6.072 -3.0823 -2.2124  1.8009
  562MOL0     H74169  10.535   1.662   5.970 -0.9783  0.0091  2.4838
  562MOL0     H74170   8.745   1.605   6.631  0.9928 -2.0042  3.3218
  562MOL0     H74171   8.769   1.690   6.868  0.1376 -0.1054  0.3383
  562MOL0     H74172   8.809   1.996   7.091 -0.4305 -2.3927  2.8366
  562MOL0     H74173   8.778   2.131   7.300 -0.5985 -0.5959  0.0572
  562MOL0     H74174   8.775   2.285   7.499 -0.5587 -0.6445  1.8000
  562MOL0     H74175   8.898   2.298   7.629 -1.1777  0.7430  0.2715
  562MOL0     H74176   8.740   2.098   7.656  1.4549 -3.3989  1.5705
  562MOL0     H74177   8.801   2.035   7.502  3.2456 -2.7896  0.0979
  562MOL0     H74178   8.962   2.102   7.754 -0.7718  1.9762 -0.5017
  562MOL0     H74179   9.023   2.021   7.616  0.8372  0.0822 -0.2983
  562MOL0     H74180   8.864   1.842   7.622 -1.8902 -3.3564  1.9865
  562MOL0     H74181   8.985   1.843   7.759 -1.0483  0.0086  1.4843
  562MOL0     H74182   8.658   1.872   7.985 -0.5635  4.5737 -0.2370
  562MOL0     H74183   9.212   2.158   7.344  1.8514 -1.3319  0.3117
  562MOL0     H74184   9.235   2.031   7.164 -0.3285  2.4683 -3.9241
  563MOL0     O74185   9.671   6.727  11.104  0.1220 -0.6286 -0.0222
  563MOL0     C74186   9.579   6.767  11.029  0.4081  0.0599  0.3506
  563MOL0     O74187   9.562   6.740  10.901 -0.1904  0.5789  0.4747
  563MOL0     C74188   9.665   6.669  10.834 -0.0030 -0.7534 -0.1071
  563MOL0     C74189   9.687   6.719  10.705 -0.7425  0.7921 -0.9149
  563MOL0     C74190   9.790   6.662  10.629  0.0159 -0.4522  0.4200
  563MOL0     C74191   9.859   6.551  10.682 -0.6854 -0.6605  0.5163
  563MOL0     O74192   9.952   6.494  10.592 -0.1855 -0.2097  0.0268
  563MOL0     C74193  10.051   6.399  10.639  0.1372  0.0497  0.1308
  563MOL0     C74194  10.112   6.347  10.507  1.1457  0.0939  0.1655
  563MOL0     C74195  10.208   6.236  10.526  0.3988 -0.2465  0.5515
  563MOL0     C74196  10.332   6.287  10.592 -0.1784 -0.1309  0.1950
  563MOL0     C74197  10.454   6.183  10.554 -0.0751  0.3842  0.1325
  563MOL0     C74198  10.451   6.029  10.592 -0.2881  0.8883 -0.2907
  563MOL0     C74199  10.430   5.998  10.740  0.2608 -0.3640  0.5974
  563MOL0     C74200  10.543   6.039  10.827  0.5198 -0.2401 -0.2044
  563MOL0     N74201  10.504   6.041  10.969 -0.4434  0.5341 -0.4390
  563MOL0     C74202  10.465   5.937  11.044 -0.7845  0.1473  0.2261
  563MOL0     C74203  10.462   5.984  11.166  0.3528  0.0119 -0.6097
  563MOL0     C74204  10.423   5.900  11.288  0.5509  0.4002 -0.2546
  563MOL0     C74205  10.553   5.855  11.358 -0.3689  0.9364 -0.2653
  563MOL0     C74206  10.541   5.815  11.503 -1.0502 -0.6363 -0.2864
  563MOL0     C74207  10.667   5.754  11.560 -0.5464 -0.3576  0.1709
  563MOL0     O74208  10.729   5.653  11.473 -0.0038 -0.3999 -0.4335
  563MOL0     C74209  10.855   5.633  11.508  0.8916 -0.9370  0.4544
  563MOL0     C74210  10.892   5.533  11.598 -1.0427 -0.2433 -0.4170
  563MOL0     C74211  11.027   5.494  11.609 -0.4244  0.5874 -0.3232
  563MOL0     C74212  11.130   5.569  11.544  0.2571 -0.4786  0.9575
  563MOL0     C74213  11.278   5.531  11.542  0.5995 -1.0350  0.4094
  563MOL0     O74214  11.365   5.620  11.498  0.3320 -0.0494  0.5550
  563MOL0     C74215  11.502   5.577  11.484  0.0014 -0.5268  0.0365
  563MOL0     C74216  11.547   5.502  11.371 -0.5212  0.6635 -0.2503
  563MOL0     C74217  11.688   5.470  11.366  1.2525  0.1373  0.0711
  563MOL0     C74218  11.774   5.531  11.460  0.2195  0.4126  0.2304
  563MOL0     O74219  11.901   5.535  11.425  0.9280 -0.2912 -0.7275
  563MOL0     C74220  11.975   5.663  11.430 -0.0885  0.3870 -1.0863
  563MOL0     C74221  12.084   5.650  11.320  0.1046 -0.5506 -0.8231
  563MOL0     C74222  12.184   5.763  11.331 -0.1714  1.0889 -0.9479
  563MOL0     C74223  12.285   5.777  11.215 -0.7501  0.4324 -0.1309
  563MOL0     C74224  12.423   5.835  11.272 -0.7613  0.1823  0.8452
  563MOL0     C74225  12.496   5.903  11.145 -0.3224 -0.3029  0.0105
  563MOL0     C74226  12.617   5.977  11.204 -0.6714 -0.4485  0.6160
  563MOL0     C74227  12.676   6.093  11.120  1.2809  0.1250  0.7953
  563MOL0    Cl74228  12.795   6.186  11.207 -0.1539  0.2066 -0.0084
  563MOL0     C74229  11.727   5.600  11.572  0.1161 -0.0771 -0.6910
  563MOL0     C74230  11.587   5.614  11.593  0.1275  0.0098  0.4177
  563MOL0     O74231  11.296   5.417  11.578  0.1420  0.3122 -0.2149
  563MOL0     C74232  11.091   5.675  11.461  0.6572  0.0191  0.5399
  563MOL0     C74233  10.957   5.700  11.435  0.1389  1.1685 -0.1978
  563MOL0     N74234  10.501   6.111  11.161 -0.1314 -1.8644 -0.0485
  563MOL0     N74235  10.537   6.146  11.046  0.0264  0.0161 -0.0088
  563MOL0     C74236   9.821   6.497  10.806 -0.0813  0.2568 -1.6549
  563MOL0     C74237   9.729   6.561  10.881 -1.0841  0.6361  0.2287
  563MOL0     C74238   9.480   6.847  11.113 -0.2275 -0.1159  0.5652
  563MOL0     C74239   9.397   6.927  11.042 -0.0952 -0.1837 -0.4387
  563MOL0     C74240   9.287   6.991  11.104 -0.5472  0.7053 -0.8781
  563MOL0     C74241   9.272   6.991  11.250 -1.0923  1.0436  0.3308
  563MOL0     O74242   9.186   7.067  11.322  0.7570 -0.3074 -0.0993
  563MOL0     C74243   9.105   7.161  11.255 -0.1782  0.0601  0.1544
  563MOL0     C74244   9.175   7.290  11.203  0.1874  0.6132  0.4814
  563MOL0     C74245   9.247   7.368  11.308  0.5031  0.3394  0.8961
  563MOL0     C74246   9.155   7.433  11.414 -0.5571 -0.4267  0.2376
  563MOL0     C74247   9.040   7.517  11.370  0.3107  0.3940  0.4366
  563MOL0     C74248   8.943   7.578  11.327  0.1740 -0.4524  1.1223
  563MOL0     C74249   9.365   6.916  11.315 -1.0957  0.7451 -0.1814
  563MOL0     C74250   9.469   6.846  11.252 -0.0300  0.1516 -0.5953
  563MOL0     H74251   9.625   6.800  10.669  0.4690  3.5562  2.6127
  563MOL0     H74252   9.797   6.703  10.528  1.1872  0.9380  1.0348
  563MOL0     H74253   9.989   6.325  10.691 -2.4709 -0.1787 -2.9717
  563MOL0     H74254  10.121   6.448  10.706 -0.0877  1.2832 -0.5093
  563MOL0     H74255  10.151   6.429  10.446  1.0616 -0.7899 -1.1150
  563MOL0     H74256  10.043   6.294  10.440  3.1847 -1.2747 -0.9901
  563MOL0     H74257  10.232   6.201  10.426  0.6686 -0.0858  0.5608
  563MOL0     H74258  10.159   6.165  10.593 -0.9741  2.3922  2.5583
  563MOL0     H74259  10.359   6.386  10.556 -0.7707  0.4449  1.2696
  563MOL0     H74260  10.310   6.290  10.699 -1.6111 -0.5363 -0.0740
  563MOL0     H74261  10.542   6.230  10.599 -0.1682  1.4724 -0.7781
  563MOL0     H74262  10.464   6.180  10.445 -1.4144  0.8920 -0.0263
  563MOL0     H74263  10.544   5.976  10.568  0.2695  0.8220  1.8164
  563MOL0     H74264  10.366   5.987  10.538 -4.0412  3.9396  2.7068
  563MOL0     H74265  10.355   6.065  10.783  0.0392 -1.0059  1.2280
  563MOL0     H74266  10.397   5.897  10.764 -4.1288  1.1836  2.0564
  563MOL0     H74267  10.565   6.144  10.808 -1.3140 -0.0056 -1.2307
  563MOL0     H74268  10.624   5.967  10.809  0.0235 -1.0685  0.8058
  563MOL0     H74269  10.439   5.838  11.009 -2.5953  0.2689  1.1471
  563MOL0     H74270  10.352   5.823  11.258 -0.1515  0.7509  0.4763
  563MOL0     H74271  10.364   5.963  11.355 -3.5250  0.5411 -3.5902
  563MOL0     H74272  10.616   5.944  11.352 -2.5603  2.5486 -0.7314
  563MOL0     H74273  10.596   5.774  11.299 -3.9690 -1.5559  0.1927
  563MOL0     H74274  10.515   5.906  11.557 -1.0088 -1.7652  1.7160
  563MOL0     H74275  10.452   5.752  11.512 -0.7677 -1.3656 -2.1568
  563MOL0     H74276  10.623   5.705  11.648 -3.3695 -1.2531 -1.5924
  563MOL0     H74277  10.739   5.831  11.589 -2.1087  1.0520  0.4786
  563MOL0     H74278  10.813   5.471  11.639 -1.4429  0.5160 -0.0261
  563MOL0     H74279  11.052   5.401  11.659 -0.2636  0.8793  0.1493
  563MOL0     H74280  11.479   5.460  11.297  1.8104 -3.6358 -0.3245
  563MOL0     H74281  11.723   5.408  11.284 -0.5129 -1.5344  0.4894
  563MOL0     H74282  12.026   5.674  11.526  0.3666 -5.2588 -0.3820
  563MOL0     H74283  11.919   5.753  11.401 -1.2398 -0.7964 -2.7332
  563MOL0     H74284  12.040   5.655  11.220  0.6047 -2.8206 -1.2088
  563MOL0     H74285  12.134   5.554  11.337 -0.5286 -1.1146 -1.9702
  563MOL0     H74286  12.237   5.753  11.427  3.0854  1.2016 -2.5970
  563MOL0     H74287  12.132   5.859  11.340 -5.1475 -1.3779  0.4887
  563MOL0     H74288  12.320   5.681  11.178 -0.7640  1.1092 -2.0242
  563MOL0     H74289  12.247   5.821  11.122  0.0221 -0.1105 -0.7113
  563MOL0     H74290  12.481   5.755  11.319  3.8960  1.9415 -1.2492
  563MOL0     H74291  12.386   5.915  11.336 -0.9525  0.9851 -0.2448
  563MOL0     H74292  12.432   5.971  11.087 -0.5884 -0.7767 -0.2556
  563MOL0     H74293  12.531   5.828  11.074 -2.3546 -0.0821 -1.3123
  563MOL0     H74294  12.574   6.033  11.288 -0.4808 -0.7075  0.8857
  563MOL0     H74295  12.687   5.903  11.242 -1.0752 -1.5506 -0.7355
  563MOL0     H74296  12.591   6.152  11.086 -0.9436 -2.8676  0.7493
  563MOL0     H74297  12.715   6.046  11.029  1.1769  1.2264  0.1642
  563MOL0     H74298  11.802   5.622  11.647 -1.8539 -0.4072  1.5182
  563MOL0     H74299  11.529   5.659  11.673 -0.2012  1.2839 -0.5046
  563MOL0     H74300  11.167   5.737  11.415  0.3097  0.6724  0.8451
  563MOL0     H74301  10.924   5.789  11.383 -1.5411 -0.1963 -1.5921
  563MOL0     H74302   9.861   6.402  10.841  0.9858  0.4573 -2.2799
  563MOL0     H74303   9.710   6.523  10.981  1.1467  0.1745  0.5376
  563MOL0     H74304   9.408   6.933  10.934 -0.4192  1.7716 -0.3958
  563MOL0     H74305   9.214   7.050  11.050 -2.8391 -1.1523 -0.0255
  563MOL0     H74306   9.024   7.196  11.319 -0.9298  0.1116 -0.8114
  563MOL0     H74307   9.056   7.108  11.173 -1.2484  5.6403 -3.3547
  563MOL0     H74308   9.252   7.258  11.133 -1.3398 -0.6208 -0.7145
  563MOL0     H74309   9.116   7.357  11.139  2.2777  3.9008  1.7198
  563MOL0     H74310   9.313   7.442  11.260 -0.1094 -0.3846 -1.1940
  563MOL0     H74311   9.317   7.296  11.350  0.4463 -2.0870 -2.6712
  563MOL0     H74312   9.133   7.356  11.488  1.8436 -2.7991 -1.3124
  563MOL0     H74313   9.221   7.501  11.468 -1.4233 -0.5053  1.4229
  563MOL0     H74314   8.873   7.652  11.295  1.5855  1.6765  2.6778
  563MOL0     H74315   9.364   6.898  11.422 -3.7197  1.3635 -0.0362
  563MOL0     H74316   9.539   6.783  11.307 -1.4779  0.6104  1.9650
  564MOL0     O74317   6.163   6.174   4.946  0.9333 -0.5291  0.1414
  564MOL0     C74318   6.191   6.280   4.992 -0.2629 -0.4435 -0.2561
  564MOL0     O74319   6.242   6.296   5.107  0.2800  0.5752 -0.2423
  564MOL0     C74320   6.290   6.193   5.183 -0.5647 -0.0077  0.3164
  564MOL0     C74321   6.415   6.140   5.168 -0.1947 -0.9765 -0.6467
  564MOL0     C74322   6.476   6.042   5.247  0.7474 -0.9104  0.1192
  564MOL0     C74323   6.392   5.988   5.345 -0.0708  0.5753  0.1513
  564MOL0     O74324   6.424   5.880   5.427 -0.2270  0.0750 -0.8077
  564MOL0     C74325   6.542   5.805   5.379  0.0613  0.5051  0.3782
  564MOL0     C74326   6.547   5.680   5.462 -0.1451 -0.7485  0.2323
  564MOL0     C74327   6.544   5.711   5.619 -0.0286  0.3912  1.0211
  564MOL0     C74328   6.561   5.578   5.694 -0.0120 -0.0225  0.4013
  564MOL0     C74329   6.566   5.599   5.846  0.9499  0.2062  0.6729
  564MOL0     C74330   6.650   5.488   5.913 -0.8574 -0.0989  0.1372
  564MOL0     C74331   6.643   5.482   6.061 -0.1879  0.5993 -0.1585
  564MOL0     C74332   6.755   5.390   6.124 -0.4751 -0.0471  0.4958
  564MOL0     N74333   6.882   5.469   6.113  0.3088 -0.1417  0.7840
  564MOL0     C74334   6.916   5.577   6.202  0.4764  0.4095  0.7588
  564MOL0     C74335   7.043   5.604   6.171 -0.3990  0.4825 -0.8535
  564MOL0     C74336   7.130   5.708   6.246  0.8476  0.4577 -0.4175
  564MOL0     C74337   7.226   5.626   6.333 -0.1555  0.2437 -0.3141
  564MOL0     C74338   7.292   5.714   6.450 -0.9168  0.8069 -0.7214
  564MOL0     C74339   7.386   5.816   6.405  0.9199  0.2520  0.5626
  564MOL0     O74340   7.448   5.883   6.510  0.1908  0.4187 -1.1058
  564MOL0     C74341   7.498   6.010   6.496 -0.1320  1.4278  0.9766
  564MOL0     C74342   7.472   6.086   6.378  0.5450 -0.7664 -0.0004
  564MOL0     C74343   7.544   6.207   6.354  0.4966  0.5673 -0.7510
  564MOL0     C74344   7.638   6.259   6.444  0.5862  0.3164 -0.1978
  564MOL0     C74345   7.713   6.377   6.406 -0.6088 -0.8091  0.2246
  564MOL0     O74346   7.665   6.456   6.305 -0.0564  0.4939 -0.2618
  564MOL0     C74347   7.736   6.572   6.289 -0.6532  0.0776 -0.0756
  564MOL0     C74348   7.662   6.681   6.315  0.8813  0.9344  1.1188
  564MOL0     C74349   7.727   6.800   6.313  0.2487 -0.2401 -0.4193
  564MOL0     C74350   7.863   6.813   6.261  0.0701 -0.7295  0.0292
  564MOL0     O74351   7.928   6.932   6.248 -0.8490  0.0401 -0.2848
  564MOL0     C74352   8.009   6.975   6.362 -0.3094  0.3793 -0.3126
  564MOL0     C74353   8.112   7.082   6.318 -0.6144 -0.5581 -0.0830
  564MOL0     C74354   8.201   7.042   6.201 -0.2847  0.5552  0.2141
  564MOL0     C74355   8.132   7.095   6.075 -0.4661 -0.6089 -0.6146
  564MOL0     C74356   8.221   7.082   5.950  0.0073  0.7678  0.2752
  564MOL0     C74357   8.177   7.186   5.855  0.1089  0.0515  0.0456
  564MOL0     C74358   8.266   7.208   5.746 -0.2574 -0.5244  0.1289
  564MOL0     C74359   8.221   7.325   5.667  1.4632 -0.9115 -0.0565
  564MOL0    Cl74360   8.355   7.352   5.540 -0.0004 -0.6366  0.1909
  564MOL0     C74361   7.935   6.700   6.229 -0.3363 -0.7807 -1.1382
  564MOL0     C74362   7.871   6.581   6.241 -0.2113 -0.2683 -0.7786
  564MOL0     O74363   7.826   6.383   6.461  0.1005 -0.2625 -0.2193
  564MOL0     C74364   7.661   6.192   6.565 -0.2323 -0.3153  0.4686
  564MOL0     C74365   7.579   6.071   6.590  0.4323 -0.2739 -0.1220
  564MOL0     N74366   7.090   5.529   6.063  0.1514  0.3168  0.0245
  564MOL0     N74367   6.995   5.441   6.037 -0.0252 -0.1435 -0.2409
  564MOL0     C74368   6.267   6.044   5.361 -0.1676 -0.3937  0.4348
  564MOL0     C74369   6.215   6.142   5.281  0.6273  0.6155 -0.8692
  564MOL0     C74370   6.173   6.390   4.893 -0.3898 -0.0919  0.1442
  564MOL0     C74371   6.134   6.524   4.939  0.2813 -0.0035  0.2485
  564MOL0     C74372   6.101   6.624   4.843  0.2531  0.2820  0.0235
  564MOL0     C74373   6.112   6.604   4.711  0.3599  0.0363 -0.4380
  564MOL0     O74374   6.093   6.717   4.637  0.1459 -0.0002 -0.6806
  564MOL0     C74375   6.108   6.703   4.499 -0.5572  0.1329 -0.1929
  564MOL0     C74376   6.256   6.747   4.471 -0.3110  0.7138  0.3508
  564MOL0     C74377   6.292   6.700   4.318 -0.2254  0.1391  0.3510
  564MOL0     C74378   6.325   6.547   4.325 -0.5591  0.2673  0.1422
  564MOL0     C74379   6.396   6.503   4.204 -0.3133 -0.2941  0.8053
  564MOL0     C74380   6.469   6.474   4.110  0.2892  0.5324 -0.5541
  564MOL0     C74381   6.153   6.474   4.666  0.3949 -0.3649 -1.1915
  564MOL0     C74382   6.181   6.368   4.757 -1.1328 -0.1640  0.3685
  564MOL0     H74383   6.479   6.169   5.086  0.7924  2.5308  1.1981
  564MOL0     H74384   6.577   6.014   5.219  1.5599 -0.5516  2.4991
  564MOL0     H74385   6.629   5.871   5.385  1.7768 -1.5700 -0.4052
  564MOL0     H74386   6.524   5.787   5.272 -0.1118 -2.5668  0.8430
  564MOL0     H74387   6.641   5.629   5.439  0.7827  1.3594 -0.9671
  564MOL0     H74388   6.456   5.623   5.442 -1.6515  1.2314  1.0860
  564MOL0     H74389   6.457   5.770   5.650 -2.8663 -0.2266 -4.5743
  564MOL0     H74390   6.629   5.777   5.642 -0.2620  2.0857 -2.3723
  564MOL0     H74391   6.470   5.522   5.671  0.1475  0.3832 -1.3641
  564MOL0     H74392   6.645   5.523   5.649 -0.5876  0.8604 -1.9015
  564MOL0     H74393   6.468   5.578   5.889  0.0221  0.5196 -1.1745
  564MOL0     H74394   6.598   5.700   5.872 -1.4492  1.4886 -1.0035
  564MOL0     H74395   6.756   5.507   5.896 -0.4396 -2.2898 -0.0692
  564MOL0     H74396   6.617   5.388   5.883 -4.0360  0.4403  1.4436
  564MOL0     H74397   6.659   5.587   6.087  0.2899  0.4727  0.0834
  564MOL0     H74398   6.549   5.438   6.094  0.3655 -0.2164  0.3918
  564MOL0     H74399   6.780   5.312   6.052  1.8827  0.7425  0.3704
  564MOL0     H74400   6.724   5.360   6.225 -4.7798  2.8829  0.3245
  564MOL0     H74401   6.857   5.622   6.281 -1.3323 -2.1938  1.0069
  564MOL0     H74402   7.063   5.779   6.298 -1.4183 -0.0294 -2.5065
  564MOL0     H74403   7.191   5.762   6.173  2.2627  2.4915  2.0624
  564MOL0     H74404   7.307   5.582   6.275  0.9907  0.3356  1.1470
  564MOL0     H74405   7.171   5.551   6.391 -0.5962  0.8910  0.1160
  564MOL0     H74406   7.205   5.745   6.509 -1.5556 -0.3163 -1.0457
  564MOL0     H74407   7.354   5.643   6.505  1.1577  2.3774 -0.9129
  564MOL0     H74408   7.336   5.884   6.335 -1.0989 -2.3427 -0.7408
  564MOL0     H74409   7.465   5.770   6.344  0.2707 -2.3970  1.5832
  564MOL0     H74410   7.409   6.060   6.294 -0.3142  6.3630 -2.2663
  564MOL0     H74411   7.539   6.239   6.250 -1.3573 -0.1471 -0.9117
  564MOL0     H74412   7.556   6.687   6.339  0.1798 -1.9066 -0.7562
  564MOL0     H74413   7.683   6.898   6.321 -1.8724 -1.2880  2.0722
  564MOL0     H74414   8.059   6.892   6.412 -1.6891  1.5142  3.2287
  564MOL0     H74415   7.949   7.017   6.443  0.4003 -1.9463  1.5277
  564MOL0     H74416   8.179   7.079   6.404 -0.3062 -1.5393 -0.3486
  564MOL0     H74417   8.056   7.176   6.315 -0.5702 -0.4547  1.4816
  564MOL0     H74418   8.218   6.934   6.205  4.4829  1.1350  1.6085
  564MOL0     H74419   8.298   7.090   6.214 -0.6291  1.5057 -0.5466
  564MOL0     H74420   8.034   7.049   6.057 -1.4597  1.4405 -0.7761
  564MOL0     H74421   8.095   7.197   6.090 -0.1017 -0.3829 -1.2014
  564MOL0     H74422   8.209   6.980   5.911 -0.3351  0.5270  0.9861
  564MOL0     H74423   8.324   7.100   5.979  0.2792  0.5749 -0.5382
  564MOL0     H74424   8.175   7.275   5.919 -0.0408  1.1028 -1.3709
  564MOL0     H74425   8.069   7.179   5.838 -0.7771  2.8702  3.2735
  564MOL0     H74426   8.361   7.240   5.788 -0.0838  3.2452 -2.6292
  564MOL0     H74427   8.261   7.126   5.675 -1.8297 -1.3207  1.0941
  564MOL0     H74428   8.211   7.419   5.722 -2.7865  0.6421 -2.9945
  564MOL0     H74429   8.132   7.309   5.606  1.5955 -1.7862 -0.0346
  564MOL0     H74430   8.035   6.710   6.189  0.9640  3.6413  2.4709
  564MOL0     H74431   7.920   6.488   6.215  1.4898  0.7476 -1.3459
  564MOL0     H74432   7.738   6.213   6.638 -0.0807  3.1934 -0.5218
  564MOL0     H74433   7.592   6.008   6.676  1.5975 -0.7353 -0.6149
  564MOL0     H74434   6.200   6.009   5.439  0.8345  3.2601  3.2164
  564MOL0     H74435   6.112   6.164   5.309 -0.5332 -3.0870 -1.5721
  564MOL0     H74436   6.134   6.552   5.043 -2.6440 -3.1875  1.2613
  564MOL0     H74437   6.082   6.724   4.883  1.0607  0.4361  0.0542
  564MOL0     H74438   6.046   6.786   4.466  2.9783  2.9031 -0.5405
  564MOL0     H74439   6.083   6.608   4.450 -2.8914 -0.2222  1.5348
  564MOL0     H74440   6.267   6.855   4.482  2.2053  0.4154  1.5885
  564MOL0     H74441   6.335   6.701   4.531  0.5248  0.9873 -0.5206
  564MOL0     H74442   6.374   6.756   4.271  1.1899 -0.9385  1.4540
  564MOL0     H74443   6.206   6.724   4.255 -0.3645  0.0567  0.5123
  564MOL0     H74444   6.372   6.527   4.422 -1.0347  1.6524  0.6884
  564MOL0     H74445   6.232   6.489   4.330  0.5740 -1.5111  1.6566
  564MOL0     H74446   6.537   6.439   4.035  0.2303 -0.7558 -0.0298
  564MOL0     H74447   6.164   6.454   4.560 -2.0988  0.8917 -1.7669
  564MOL0     H74448   6.211   6.280   4.701  1.2417  0.7352  0.1210
  565MOL0     O74449   9.724   2.223   1.158 -0.0884  0.6966  0.1145
  565MOL0     C74450   9.652   2.289   1.220  0.5150  0.2622 -0.0399
  565MOL0     O74451   9.664   2.424   1.236  0.2522 -0.4698 -0.5281
  565MOL0     C74452   9.743   2.503   1.159 -0.7158 -0.5197  0.7659
  565MOL0     C74453   9.797   2.469   1.029 -0.3018 -1.2256  0.1349
  565MOL0     C74454   9.863   2.570   0.959  0.1478  1.0504 -0.8622
  565MOL0     C74455   9.881   2.700   1.007  0.2835  0.2101  0.3513
  565MOL0     O74456   9.946   2.777   0.913  0.1569  0.5193  0.5463
  565MOL0     C74457   9.974   2.907   0.958 -0.3803 -0.3013  0.3589
  565MOL0     C74458  10.101   2.902   1.046  0.1659 -0.0111 -0.1775
  565MOL0     C74459  10.172   3.041   1.042  0.1246 -0.1703 -0.9818
  565MOL0     C74460  10.283   3.044   0.939 -0.6322 -0.0778  0.3863
  565MOL0     C74461  10.353   3.184   0.950 -0.2734 -0.1093  0.6231
  565MOL0     C74462  10.502   3.160   0.984 -0.0565  0.0278 -0.1783
  565MOL0     C74463  10.589   3.270   0.928  0.6575  0.2417  0.0274
  565MOL0     C74464  10.558   3.423   0.957 -0.0853 -0.0453  0.4193
  565MOL0     N74465  10.531   3.448   1.106 -0.4130 -0.5175  0.4320
  565MOL0     C74466  10.616   3.423   1.213 -0.4047 -0.2072  1.2218
  565MOL0     C74467  10.537   3.435   1.319 -0.1113  0.1239 -0.0200
  565MOL0     C74468  10.552   3.448   1.468 -0.0792  1.4342  0.4687
  565MOL0     C74469  10.546   3.312   1.550  0.8284  0.6453 -0.3718
  565MOL0     C74470  10.670   3.213   1.515 -0.0810 -0.2864 -0.1763
  565MOL0     C74471  10.629   3.067   1.529 -0.5491  0.3763  0.3657
  565MOL0     O74472  10.567   3.034   1.402 -0.4740 -0.4347  0.1839
  565MOL0     C74473  10.523   2.907   1.385 -1.6122  0.3847 -0.1960
  565MOL0     C74474  10.439   2.876   1.276 -0.5378 -0.2014  0.3579
  565MOL0     C74475  10.389   2.749   1.260  0.2479 -0.7496  0.0934
  565MOL0     C74476  10.430   2.644   1.336 -0.0025  1.3218 -1.1654
  565MOL0     C74477  10.381   2.504   1.298  0.2766  0.8385  0.1687
  565MOL0     O74478  10.330   2.489   1.177 -0.2798 -0.2900 -0.0154
  565MOL0     C74479  10.269   2.382   1.119  0.0954  1.2831 -0.3772
  565MOL0     C74480  10.345   2.274   1.089 -0.0300 -0.3626  0.8453
  565MOL0     C74481  10.286   2.164   1.025  0.2268 -0.6070  0.6416
  565MOL0     C74482  10.149   2.153   1.020  0.3993  0.0961 -1.2878
  565MOL0     O74483  10.109   2.031   0.971 -0.3303 -0.1940  0.6636
  565MOL0     C74484   9.990   1.977   1.020  0.0671 -0.7436 -0.3005
  565MOL0     C74485   9.959   1.832   0.976 -0.8274 -0.6354 -0.7467
  565MOL0     C74486   9.877   1.752   1.072 -0.9530  0.0247 -0.7639
  565MOL0     C74487   9.734   1.789   1.097  0.1952 -0.1031 -0.6602
  565MOL0     C74488   9.656   1.686   1.192 -0.8220  0.5355 -0.8012
  565MOL0     C74489   9.513   1.714   1.201  0.7585 -0.8522  0.4662
  565MOL0     C74490   9.430   1.588   1.173  0.4084 -0.6015  0.5762
  565MOL0     C74491   9.364   1.532   1.303  0.1136  1.1310 -0.2669
  565MOL0    Cl74492   9.227   1.619   1.353 -0.5853  0.4504  0.4247
  565MOL0     C74493  10.071   2.263   1.064 -0.7265  0.6897 -0.4198
  565MOL0     C74494  10.129   2.372   1.118 -0.2010  0.0100  0.2219
  565MOL0     O74495  10.391   2.411   1.377  0.5472 -0.4173 -0.0560
  565MOL0     C74496  10.519   2.667   1.442 -0.8222 -0.0806 -0.2228
  565MOL0     C74497  10.572   2.790   1.461 -0.0869 -0.4188 -0.6744
  565MOL0     N74498  10.417   3.476   1.274 -0.1175  0.3046  0.4558
  565MOL0     N74499  10.415   3.494   1.145  0.7510 -0.4039  0.1078
  565MOL0     C74500   9.829   2.733   1.135 -1.1881  0.4100  0.0888
  565MOL0     C74501   9.756   2.638   1.209 -0.7001 -0.0417  0.0648
  565MOL0     C74502   9.541   2.223   1.290  0.0045  0.1221 -0.3252
  565MOL0     C74503   9.513   2.092   1.261  0.7879  0.0790 -0.1160
  565MOL0     C74504   9.401   2.033   1.336 -0.6652 -1.7057 -1.0924
  565MOL0     C74505   9.331   2.106   1.439  0.2268 -0.0201 -1.0001
  565MOL0     O74506   9.243   2.047   1.526  0.0631  0.1491  1.1090
  565MOL0     C74507   9.110   2.101   1.526 -0.3341 -0.2394  0.9168
  565MOL0     C74508   9.033   2.076   1.395 -0.6964  0.3362 -0.0832
  565MOL0     C74509   9.035   1.928   1.335  1.1314 -0.2568 -0.3709
  565MOL0     C74510   8.963   1.816   1.417  0.2865 -0.4444 -0.9301
  565MOL0     C74511   8.819   1.860   1.463 -0.4663  0.4275 -0.4514
  565MOL0     C74512   8.714   1.912   1.474 -0.0864  0.5112 -0.8491
  565MOL0     C74513   9.377   2.238   1.470  0.4376 -0.1906 -1.0204
  565MOL0     C74514   9.487   2.293   1.395  0.2607  0.6138  0.3552
  565MOL0     H74515   9.776   2.380   0.970  0.8589 -0.0416 -2.2020
  565MOL0     H74516   9.901   2.545   0.860  0.2966  0.5459 -0.6844
  565MOL0     H74517   9.885   2.930   1.018 -0.2355 -3.8394  2.1842
  565MOL0     H74518   9.976   2.968   0.867 -1.4536  0.5324  0.8648
  565MOL0     H74519  10.171   2.822   1.018 -1.2683 -2.3412  2.3978
  565MOL0     H74520  10.071   2.871   1.147  0.7454 -0.8771 -0.2599
  565MOL0     H74521  10.215   3.048   1.142 -0.8207 -1.5475 -0.4380
  565MOL0     H74522  10.098   3.119   1.025 -0.2243  0.1548  1.5491
  565MOL0     H74523  10.356   2.965   0.961 -0.3263  0.4763  1.4334
  565MOL0     H74524  10.244   3.027   0.838 -1.2586 -0.9523  0.7627
  565MOL0     H74525  10.313   3.256   1.022  0.6041  2.2340 -1.1341
  565MOL0     H74526  10.340   3.229   0.852  0.3538  1.1203  1.0844
  565MOL0     H74527  10.548   3.066   0.953 -1.3700 -0.3222 -1.1381
  565MOL0     H74528  10.504   3.157   1.094 -0.1719  0.3243 -0.1676
  565MOL0     H74529  10.688   3.243   0.965  0.1825 -0.7345  0.6249
  565MOL0     H74530  10.599   3.246   0.822  0.6494 -0.8827  0.2687
  565MOL0     H74531  10.481   3.478   0.901  1.7030  1.2046 -0.8995
  565MOL0     H74532  10.647   3.472   0.919 -2.8169  2.7607 -3.0606
  565MOL0     H74533  10.717   3.391   1.191  0.0187  2.7322 -1.9596
  565MOL0     H74534  10.464   3.498   1.510 -1.7412 -2.0670  1.5200
  565MOL0     H74535  10.646   3.493   1.501 -0.9501  3.3119  0.4862
  565MOL0     H74536  10.454   3.256   1.530  1.4473  0.0328 -1.6151
  565MOL0     H74537  10.559   3.338   1.655 -1.4849 -0.3234  0.2209
  565MOL0     H74538  10.725   3.231   1.422 -0.2961 -0.8960 -0.4225
  565MOL0     H74539  10.746   3.254   1.583 -1.2391  0.7073  0.5423
  565MOL0     H74540  10.562   3.060   1.615  0.0495  0.9059  0.8799
  565MOL0     H74541  10.723   3.013   1.534  0.8825  2.8323  1.6524
  565MOL0     H74542  10.408   2.957   1.212  0.2862 -2.0173 -2.5177
  565MOL0     H74543  10.321   2.742   1.175 -2.3870  1.5664  1.8385
  565MOL0     H74544  10.452   2.280   1.108  0.7790  0.6441 -3.1190
  565MOL0     H74545  10.353   2.084   0.994 -0.9205 -1.3673  0.0219
  565MOL0     H74546   9.908   2.040   0.984 -0.3498 -1.2822 -0.2955
  565MOL0     H74547  10.004   1.973   1.128  2.1282  2.4229 -0.2951
  565MOL0     H74548  10.051   1.773   0.972 -0.1106  0.4570 -0.7975
  565MOL0     H74549   9.918   1.832   0.875  1.9160  1.4045 -1.9892
  565MOL0     H74550   9.920   1.746   1.172 -2.9272 -1.8064  0.0519
  565MOL0     H74551   9.887   1.647   1.042  0.9709  0.3123 -1.2984
  565MOL0     H74552   9.722   1.891   1.134  0.4805 -0.4124  0.3100
  565MOL0     H74553   9.686   1.783   0.999 -4.8663 -1.4650  1.5937
  565MOL0     H74554   9.690   1.706   1.294 -0.4448  2.3493 -1.2593
  565MOL0     H74555   9.683   1.587   1.154  0.3020  0.7394 -0.5607
  565MOL0     H74556   9.474   1.788   1.130 -0.9571  0.4566  2.6348
  565MOL0     H74557   9.494   1.762   1.298  0.4611  2.2592 -0.9818
  565MOL0     H74558   9.342   1.608   1.111  0.0729 -0.0067  1.2362
  565MOL0     H74559   9.489   1.512   1.119 -2.9367 -2.7883 -0.2933
  565MOL0     H74560   9.438   1.528   1.384 -1.5293 -1.5775  1.2399
  565MOL0     H74561   9.329   1.430   1.282  0.8608  0.9477 -0.7031
  565MOL0     H74562   9.963   2.258   1.069 -0.6137 -0.6936  1.3484
  565MOL0     H74563  10.062   2.444   1.163  0.9072  0.9168  0.4566
  565MOL0     H74564  10.576   2.587   1.489  0.0230 -1.1725 -2.9135
  565MOL0     H74565  10.656   2.794   1.531 -1.5871 -0.1303  1.2025
  565MOL0     H74566   9.863   2.824   1.181  0.5326  0.0871 -0.4877
  565MOL0     H74567   9.705   2.679   1.296  0.0131  0.3568  0.3059
  565MOL0     H74568   9.567   2.047   1.179 -0.9995  2.0854 -2.5671
  565MOL0     H74569   9.365   1.931   1.335 -0.5596 -1.8212  1.3700
  565MOL0     H74570   9.099   2.208   1.546 -1.1090 -0.2607  0.6213
  565MOL0     H74571   9.056   2.055   1.610 -2.4489 -3.1341 -1.8050
  565MOL0     H74572   8.927   2.091   1.420 -1.8642 -4.3947 -1.1896
  565MOL0     H74573   9.060   2.150   1.319  0.4424 -1.1320 -1.1728
  565MOL0     H74574   9.139   1.901   1.316  0.8439 -2.7249  1.0603
  565MOL0     H74575   8.994   1.928   1.234  3.6207 -0.5270 -1.4600
  565MOL0     H74576   8.953   1.723   1.360  1.6475 -1.2522  0.0958
  565MOL0     H74577   9.028   1.789   1.501  1.4128 -1.9045 -2.2164
  565MOL0     H74578   8.625   1.968   1.491  0.8956  2.0003 -0.4825
  565MOL0     H74579   9.330   2.300   1.546 -1.5582 -0.5391 -1.8974
  565MOL0     H74580   9.521   2.394   1.418  1.1535  0.1693  1.0434
  566MOL0     O74581   2.788   8.907   6.467 -0.3657 -0.0980 -0.3880
  566MOL0     C74582   2.904   8.899   6.419  0.5893 -0.5397  0.6263
  566MOL0     O74583   2.999   9.002   6.431 -0.6373  0.0802  0.1542
  566MOL0     C74584   2.981   9.103   6.521  0.2541  0.1883  1.4945
  566MOL0     C74585   2.932   9.234   6.489  0.5277  0.0922 -0.5477
  566MOL0     C74586   2.911   9.316   6.596 -0.5356  0.2565 -0.5387
  566MOL0     C74587   2.925   9.277   6.735  0.9942 -0.1601 -0.4848
  566MOL0     O74588   2.871   9.347   6.845 -0.7289  0.1376 -0.6672
  566MOL0     C74589   2.806   9.468   6.835 -0.9225 -0.3728  0.3736
  566MOL0     C74590   2.899   9.590   6.870 -0.2110  0.0524 -0.8280
  566MOL0     C74591   2.936   9.592   7.023  0.2581 -0.5535 -0.1027
  566MOL0     C74592   3.034   9.705   7.048 -0.5051 -0.2738  0.5323
  566MOL0     C74593   3.048   9.724   7.202 -0.4634 -1.0362 -0.6713
  566MOL0     C74594   3.113   9.855   7.251  0.0439  0.6587  0.5108
  566MOL0     C74595   3.247   9.879   7.173  1.0349  0.4259  0.0438
  566MOL0     C74596   3.347   9.970   7.243  0.1235 -0.2966  0.7173
  566MOL0     N74597   3.484   9.944   7.195  0.1772 -0.7881 -0.0919
  566MOL0     C74598   3.523   9.971   7.062 -0.8476  0.2304  0.6291
  566MOL0     C74599   3.653   9.947   7.060 -0.1522 -0.3939  0.9101
  566MOL0     C74600   3.749   9.970   6.955 -0.9804  0.3941  0.6615
  566MOL0     C74601   3.780   9.868   6.840 -0.2551 -0.8388  0.2405
  566MOL0     C74602   3.857   9.746   6.899  0.1220  0.0638  0.1378
  566MOL0     C74603   3.913   9.651   6.792  0.0388  0.7234  0.2491
  566MOL0     O74604   3.804   9.606   6.713 -0.8593  1.1187  1.0624
  566MOL0     C74605   3.819   9.480   6.647  1.1912 -0.8062  0.9485
  566MOL0     C74606   3.694   9.442   6.606 -0.0128 -0.4066 -0.3443
  566MOL0     C74607   3.688   9.318   6.535  0.3056  0.1709 -0.0977
  566MOL0     C74608   3.793   9.236   6.510 -0.1187  0.3816 -0.3799
  566MOL0     C74609   3.783   9.125   6.423 -0.1129  0.3099  0.6538
  566MOL0     O74610   3.884   9.026   6.436 -0.7214  0.0616 -0.2264
  566MOL0     C74611   3.888   8.918   6.354 -0.2257  0.5236  0.2732
  566MOL0     C74612   3.909   8.916   6.212 -0.3558 -0.1757 -0.3394
  566MOL0     C74613   3.932   8.800   6.141  0.3194  0.0462 -0.4081
  566MOL0     C74614   3.914   8.670   6.207 -0.3486  0.3631  0.6671
  566MOL0     O74615   3.922   8.545   6.151 -0.1396  0.2865 -0.0904
  566MOL0     C74616   3.836   8.520   6.045  0.3845 -0.0510  0.0701
  566MOL0     C74617   3.894   8.401   5.958  0.0457 -0.3740 -0.4357
  566MOL0     C74618   3.788   8.379   5.848  0.7358 -0.3116 -1.3045
  566MOL0     C74619   3.856   8.314   5.730  0.6726  0.1288  0.3581
  566MOL0     C74620   3.897   8.174   5.742 -0.8221 -1.5232 -0.5291
  566MOL0     C74621   3.784   8.086   5.770  0.1361  0.3643 -0.2962
  566MOL0     C74622   3.813   7.942   5.711  0.5222 -0.2740  0.9139
  566MOL0     C74623   3.699   7.841   5.746  0.1831 -0.2031 -0.2500
  566MOL0    Cl74624   3.750   7.683   5.675  0.3180  0.0162  0.0659
  566MOL0     C74625   3.887   8.672   6.347 -0.5267  0.0262  0.3462
  566MOL0     C74626   3.875   8.795   6.422 -1.4965 -0.1293 -1.1788
  566MOL0     O74627   3.700   9.120   6.338  0.4915  0.1555  0.2545
  566MOL0     C74628   3.918   9.286   6.545 -0.5195  0.7837  0.9388
  566MOL0     C74629   3.931   9.402   6.624 -0.1145  0.4722  0.6044
  566MOL0     N74630   3.692   9.910   7.179 -0.3162  0.6232 -0.0708
  566MOL0     N74631   3.596   9.910   7.261  0.3994  1.3436  0.0032
  566MOL0     C74632   2.970   9.144   6.757 -1.5032 -0.3872  0.6593
  566MOL0     C74633   3.005   9.067   6.653  0.3821  0.8638 -0.4275
  566MOL0     C74634   2.941   8.771   6.365  0.0379 -0.7438  0.9794
  566MOL0     C74635   3.071   8.757   6.305 -0.5384 -0.0742  0.1918
  566MOL0     C74636   3.120   8.633   6.256  0.5083  0.2938  0.0207
  566MOL0     C74637   3.037   8.523   6.271  0.2496 -0.6143  0.5771
  566MOL0     O74638   3.094   8.404   6.222 -0.5774 -0.8294  0.4840
  566MOL0     C74639   3.036   8.279   6.263  0.1473 -0.6463 -1.0361
  566MOL0     C74640   3.123   8.150   6.243  0.4498 -0.4100  0.5375
  566MOL0     C74641   3.071   8.027   6.323  0.2125  0.0464  0.3147
  566MOL0     C74642   2.943   7.976   6.250  0.0961 -0.5846 -0.1250
  566MOL0     C74643   2.820   8.017   6.311 -1.3327 -0.0244 -0.5139
  566MOL0     C74644   2.713   8.040   6.347 -0.0832  1.0158  0.4024
  566MOL0     C74645   2.907   8.537   6.331 -0.3191  0.1112  0.2023
  566MOL0     C74646   2.862   8.655   6.387 -0.0308  0.2026 -0.6616
  566MOL0     H74647   2.947   9.282   6.393  0.7121  0.5090 -0.3138
  566MOL0     H74648   2.870   9.415   6.575  0.3837  0.1681 -3.0277
  566MOL0     H74649   2.727   9.471   6.911 -1.7824 -2.2517 -0.4006
  566MOL0     H74650   2.760   9.480   6.737  0.0598  0.8053  0.0293
  566MOL0     H74651   2.848   9.675   6.824  1.2318  0.0519 -2.5613
  566MOL0     H74652   2.996   9.568   6.823  0.7086 -0.8439  1.3596
  566MOL0     H74653   2.982   9.495   7.045  1.4242 -0.1068 -0.5012
  566MOL0     H74654   2.844   9.602   7.081  1.5233 -2.6366  2.5120
  566MOL0     H74655   3.127   9.678   6.997 -0.7236 -0.1185  0.0446
  566MOL0     H74656   3.015   9.796   6.991  0.1971 -0.3801  0.1072
  566MOL0     H74657   3.098   9.638   7.248 -1.4411 -0.0787  2.4016
  566MOL0     H74658   2.944   9.727   7.236 -0.3703  2.1614 -0.4220
  566MOL0     H74659   3.139   9.821   7.352  1.0670 -0.8103 -0.1983
  566MOL0     H74660   3.036   9.932   7.249  0.9086  1.6123 -2.5551
  566MOL0     H74661   3.288   9.781   7.143 -3.8096 -2.1276  0.7644
  566MOL0     H74662   3.228   9.918   7.072 -0.9736 -2.3763 -0.7994
  566MOL0     H74663   3.346   9.951   7.351 -3.1238  2.1495  1.2904
  566MOL0     H74664   3.318  10.074   7.221  2.9373  0.1936 -1.0536
  566MOL0     H74665   3.461  10.014   6.983  1.2480  2.4179  0.0447
  566MOL0     H74666   3.849   9.997   6.992  0.6750 -0.3726 -2.8180
  566MOL0     H74667   3.716  10.061   6.903 -0.3187  0.8235  0.9681
  566MOL0     H74668   3.837   9.914   6.759 -2.1867  3.3771  0.9983
  566MOL0     H74669   3.684   9.839   6.795 -1.2290  1.5366  0.6365
  566MOL0     H74670   3.942   9.781   6.957  0.2363  1.5542 -0.8638
  566MOL0     H74671   3.791   9.687   6.962  0.7321 -2.8072 -1.7224
  566MOL0     H74672   3.968   9.570   6.840 -0.5417  1.5184  2.3550
  566MOL0     H74673   3.995   9.687   6.730  2.0069 -0.7437  1.8956
  566MOL0     H74674   3.609   9.508   6.621  1.3750  1.4591 -0.3131
  566MOL0     H74675   3.596   9.310   6.478 -0.9852 -0.1086  1.9124
  566MOL0     H74676   3.929   9.003   6.150  2.2999  0.3385  1.1204
  566MOL0     H74677   3.967   8.819   6.041 -2.4166  3.5359 -0.9234
  566MOL0     H74678   3.815   8.613   5.993 -1.7031  0.0855  1.0508
  566MOL0     H74679   3.748   8.481   6.096  0.5018  0.5207  0.7244
  566MOL0     H74680   3.901   8.308   6.015 -1.9279  0.8839  2.0498
  566MOL0     H74681   3.990   8.432   5.915  0.6794 -2.6248 -0.7947
  566MOL0     H74682   3.747   8.474   5.813 -2.2476 -1.1265 -0.3673
  566MOL0     H74683   3.718   8.311   5.898  2.2549 -1.5556 -0.7582
  566MOL0     H74684   3.794   8.314   5.640 -0.1888  0.2885  0.9403
  566MOL0     H74685   3.940   8.377   5.700  0.0449  0.0247 -1.7898
  566MOL0     H74686   3.965   8.154   5.826  0.3845  0.4776 -0.9771
  566MOL0     H74687   3.946   8.144   5.649 -1.0809  3.1720 -2.4424
  566MOL0     H74688   3.698   8.129   5.719  1.2342  0.3697 -2.2405
  566MOL0     H74689   3.769   8.083   5.878 -0.5807 -0.6558 -0.4020
  566MOL0     H74690   3.827   7.941   5.602  1.2685 -2.3622  0.9844
  566MOL0     H74691   3.889   7.879   5.759  0.8838 -1.8727 -1.5538
  566MOL0     H74692   3.608   7.869   5.694  1.4437 -0.7213 -2.8874
  566MOL0     H74693   3.681   7.843   5.854  3.5000 -4.1433  0.6312
  566MOL0     H74694   3.888   8.577   6.399 -0.3900 -1.4679 -2.1851
  566MOL0     H74695   3.865   8.803   6.530  1.8969  3.5648 -0.8917
  566MOL0     H74696   4.011   9.237   6.516 -2.0064 -2.3820  1.1036
  566MOL0     H74697   4.028   9.443   6.648  0.8193  0.2044 -2.2773
  566MOL0     H74698   2.974   9.121   6.863  0.9907 -0.3398  0.6401
  566MOL0     H74699   3.033   8.964   6.674  1.1577  0.6742 -2.1490
  566MOL0     H74700   3.136   8.843   6.295  0.7532 -0.9553  0.7235
  566MOL0     H74701   3.213   8.628   6.199 -0.1012 -1.3257 -0.9038
  566MOL0     H74702   2.948   8.270   6.199 -1.2198  2.8912  0.1554
  566MOL0     H74703   3.003   8.288   6.366  0.7755  1.9028 -0.9849
  566MOL0     H74704   3.132   8.136   6.135 -3.3374  1.5588 -0.1928
  566MOL0     H74705   3.225   8.169   6.279  0.3554 -0.1391  0.6639
  566MOL0     H74706   3.062   8.035   6.432 -3.2156  1.8322  0.0440
  566MOL0     H74707   3.140   7.946   6.300 -0.9442 -0.4971 -1.4014
  566MOL0     H74708   2.953   8.008   6.146  2.2149  1.4376  0.6247
  566MOL0     H74709   2.941   7.867   6.249  4.8833 -0.9220 -3.0891
  566MOL0     H74710   2.615   8.063   6.383 -2.7907 -0.0653 -5.2485
  566MOL0     H74711   2.836   8.455   6.320 -1.8865  1.5181 -0.5965
  566MOL0     H74712   2.766   8.665   6.436 -1.0538 -1.4932 -2.1917
  567MOL0     O74713   5.711   1.083   5.525 -0.3714  0.6817 -0.7642
  567MOL0     C74714   5.784   1.168   5.569  0.1629  0.3234 -0.3822
  567MOL0     O74715   5.781   1.211   5.703  0.8383  0.8709 -0.6412
  567MOL0     C74716   5.681   1.160   5.792 -0.7139  0.6921 -0.6275
  567MOL0     C74717   5.701   1.031   5.851  0.0292 -0.6290  0.0570
  567MOL0     C74718   5.618   0.991   5.953 -0.1026 -0.5649  0.1065
  567MOL0     C74719   5.506   1.073   5.992  1.0551 -0.1807 -0.0327
  567MOL0     O74720   5.446   1.042   6.112  0.5722 -0.1129 -0.4132
  567MOL0     C74721   5.306   1.023   6.112  0.2770 -0.4311 -0.0907
  567MOL0     C74722   5.248   1.012   6.259 -0.6660 -0.5373 -0.1529
  567MOL0     C74723   5.091   1.017   6.248 -0.2359  0.2485 -1.7096
  567MOL0     C74724   5.023   0.937   6.364  0.3389 -0.0219 -0.3177
  567MOL0     C74725   4.870   0.930   6.363 -0.7585  0.1026 -0.3356
  567MOL0     C74726   4.794   1.070   6.401 -0.0138 -0.4138 -0.4353
  567MOL0     C74727   4.639   1.054   6.411  0.6625 -0.8275  1.0906
  567MOL0     C74728   4.597   0.998   6.546 -1.0548  0.8857  0.5581
  567MOL0     N74729   4.452   0.989   6.564  0.0968  0.7010 -0.2286
  567MOL0     C74730   4.389   1.048   6.673 -0.2599 -0.0344 -0.3791
  567MOL0     C74731   4.256   1.039   6.638 -0.1552  0.4134 -0.1512
  567MOL0     C74732   4.133   1.080   6.717  0.5801  0.1783 -0.1202
  567MOL0     C74733   4.095   1.224   6.692 -0.4884 -0.4325  0.3973
  567MOL0     C74734   4.200   1.296   6.784 -0.0005  0.0305  0.1134
  567MOL0     C74735   4.184   1.444   6.768  0.4293  0.3050  0.5702
  567MOL0     O74736   4.227   1.486   6.899  0.2839  0.2198 -0.1161
  567MOL0     C74737   4.205   1.623   6.928 -0.8137  0.7041 -0.6006
  567MOL0     C74738   4.227   1.719   6.830  1.0364 -0.1645 -0.5733
  567MOL0     C74739   4.228   1.852   6.856 -0.2010  0.2469  0.4696
  567MOL0     C74740   4.201   1.899   6.985 -0.1558  0.9921 -0.3205
  567MOL0     C74741   4.185   2.034   7.027 -0.7444 -0.2991 -0.0651
  567MOL0     O74742   4.132   2.052   7.157  0.2659  0.4429  0.6074
  567MOL0     C74743   4.100   2.178   7.202  0.0021  0.7449  1.1121
  567MOL0     C74744   3.983   2.239   7.149  0.7701 -0.0652  0.3608
  567MOL0     C74745   3.951   2.372   7.193 -0.7953  0.5092  0.0900
  567MOL0     C74746   4.024   2.442   7.288 -0.0377 -0.2044 -0.0185
  567MOL0     O74747   3.989   2.573   7.333  0.1104  0.5123  0.2919
  567MOL0     C74748   3.924   2.656   7.228 -0.2293 -0.3717 -1.2407
  567MOL0     C74749   3.954   2.806   7.256 -0.2841  0.7027  1.1222
  567MOL0     C74750   3.928   2.887   7.125  0.5698  0.6550  0.4494
  567MOL0     C74751   3.935   3.041   7.144 -0.0837 -0.7124 -0.1473
  567MOL0     C74752   3.912   3.116   7.012 -1.2125 -0.3979 -0.4270
  567MOL0     C74753   3.782   3.092   6.933 -0.1084  0.3921  0.6050
  567MOL0     C74754   3.778   3.164   6.800  0.4366 -0.9717  0.2474
  567MOL0     C74755   3.632   3.160   6.728  0.5182 -1.0023 -0.2552
  567MOL0    Cl74756   3.618   3.303   6.613  0.0986  0.3228 -0.3609
  567MOL0     C74757   4.151   2.384   7.327  1.0929  1.1966  0.2339
  567MOL0     C74758   4.178   2.252   7.289  0.3760  0.0769 -0.5307
  567MOL0     O74759   4.213   2.132   6.954  0.5587 -0.7695  0.3782
  567MOL0     C74760   4.178   1.798   7.085  0.1899  1.3278 -1.2571
  567MOL0     C74761   4.181   1.660   7.063 -0.2434 -0.0413  0.5575
  567MOL0     N74762   4.241   0.959   6.524 -0.8771  0.0982  0.4234
  567MOL0     N74763   4.359   0.939   6.476 -0.0305 -0.1093  0.5387
  567MOL0     C74764   5.487   1.198   5.934 -1.3101 -0.7336  1.0516
  567MOL0     C74765   5.567   1.241   5.824 -0.4774  0.0556 -0.0863
  567MOL0     C74766   5.891   1.218   5.475  0.1683  0.1505  0.7960
  567MOL0     C74767   5.876   1.221   5.337  0.3943 -0.5245 -0.2224
  567MOL0     C74768   5.964   1.282   5.254  0.5864  0.5265 -0.5954
  567MOL0     C74769   6.070   1.351   5.298  0.8134  0.5437 -0.3163
  567MOL0     O74770   6.158   1.419   5.223  1.0556  0.2980 -0.4615
  567MOL0     C74771   6.146   1.441   5.081 -0.7389 -0.0149 -0.1876
  567MOL0     C74772   6.204   1.330   4.992  0.5864 -0.2064 -0.1565
  567MOL0     C74773   6.317   1.242   5.046 -0.3997 -0.2032  0.3004
  567MOL0     C74774   6.359   1.141   4.943 -0.3018  0.9319  0.2789
  567MOL0     C74775   6.299   1.005   4.951  0.3914 -0.7530 -0.3889
  567MOL0     C74776   6.245   0.895   4.960 -0.7707  0.5571  0.2996
  567MOL0     C74777   6.093   1.355   5.435  0.0869  0.6385  0.5061
  567MOL0     C74778   6.003   1.287   5.524  0.2203  0.3686 -0.7395
  567MOL0     H74779   5.787   0.969   5.828  2.2310  1.9543  0.6878
  567MOL0     H74780   5.630   0.901   6.013 -1.4737 -0.1741  0.9960
  567MOL0     H74781   5.293   0.926   6.063  0.2548 -1.1264  1.2473
  567MOL0     H74782   5.256   1.103   6.056  1.1710  0.2103  0.0127
  567MOL0     H74783   5.290   1.093   6.319 -1.1035 -2.1437  2.4925
  567MOL0     H74784   5.278   0.915   6.302 -1.5341  0.1302  2.1410
  567MOL0     H74785   5.054   0.962   6.161 -1.2935 -2.2837  0.2261
  567MOL0     H74786   5.058   1.121   6.241  3.9230  1.7656 -1.8158
  567MOL0     H74787   5.066   0.836   6.363 -3.8725 -2.0405 -0.9458
  567MOL0     H74788   5.045   0.983   6.461 -1.3920  2.4757 -1.0233
  567MOL0     H74789   4.853   0.855   6.441 -1.9238  1.1335  0.4372
  567MOL0     H74790   4.830   0.890   6.269  1.6015 -2.9988 -0.1879
  567MOL0     H74791   4.825   1.156   6.341  0.8385 -0.3389  0.1012
  567MOL0     H74792   4.820   1.104   6.501 -4.8137  0.6298  0.7306
  567MOL0     H74793   4.587   1.151   6.408  1.1056 -0.5938  1.0061
  567MOL0     H74794   4.611   0.983   6.333  0.5775  0.4468 -0.0851
  567MOL0     H74795   4.638   1.061   6.627  1.0373  2.6891 -1.7450
  567MOL0     H74796   4.629   0.895   6.564 -5.3581 -0.1860  4.0170
  567MOL0     H74797   4.418   1.109   6.758 -2.6095  2.1310 -0.9767
  567MOL0     H74798   4.133   1.052   6.823 -1.5085 -0.6138 -0.2685
  567MOL0     H74799   4.051   1.024   6.671 -0.2070  1.3553 -0.1947
  567MOL0     H74800   3.995   1.252   6.727  2.2464  3.0189  7.4931
  567MOL0     H74801   4.108   1.247   6.586 -1.2800 -0.2838  0.3213
  567MOL0     H74802   4.191   1.267   6.889  0.4083  1.1483  0.4751
  567MOL0     H74803   4.306   1.287   6.760  0.5146  1.0505  1.8460
  567MOL0     H74804   4.087   1.483   6.737 -1.3941 -4.6182 -0.7539
  567MOL0     H74805   4.252   1.479   6.690 -1.7586  2.0628 -0.6670
  567MOL0     H74806   4.249   1.683   6.730 -0.1000 -1.2567 -0.4522
  567MOL0     H74807   4.251   1.917   6.773  0.8240 -0.8042 -0.0921
  567MOL0     H74808   3.916   2.174   7.093 -0.5572  0.5687  1.1689
  567MOL0     H74809   3.862   2.425   7.162 -0.5242  1.4383  0.8490
  567MOL0     H74810   3.819   2.627   7.223 -0.6542  0.4343  1.4569
  567MOL0     H74811   3.958   2.628   7.128  0.4588 -1.4053 -0.7324
  567MOL0     H74812   4.063   2.813   7.257 -0.0817  0.2132 -2.4388
  567MOL0     H74813   3.911   2.849   7.347  0.0024  0.9630  1.1359
  567MOL0     H74814   3.836   2.854   7.076  1.8282 -0.0651 -1.5860
  567MOL0     H74815   4.000   2.853   7.050  1.3186 -2.4092  2.3691
  567MOL0     H74816   3.858   3.069   7.217  0.4090  1.0253 -0.2282
  567MOL0     H74817   4.034   3.070   7.180  0.1499 -0.5445 -0.9071
  567MOL0     H74818   3.996   3.095   6.944  0.3857  0.9065  1.0383
  567MOL0     H74819   3.922   3.224   7.029  2.5949 -0.4319 -1.4195
  567MOL0     H74820   3.697   3.118   6.997  0.3121 -2.0831  2.3410
  567MOL0     H74821   3.762   2.987   6.907 -1.6232  0.2838  2.0529
  567MOL0     H74822   3.804   3.267   6.825 -0.4570 -0.3558 -1.2474
  567MOL0     H74823   3.843   3.121   6.724 -1.3369  0.5065 -2.2604
  567MOL0     H74824   3.562   3.179   6.810 -1.0964  0.1976 -1.8584
  567MOL0     H74825   3.616   3.066   6.674  2.4202 -2.4762  1.5624
  567MOL0     H74826   4.222   2.420   7.400  2.4621  0.9485 -0.9389
  567MOL0     H74827   4.271   2.200   7.311 -0.1222 -0.7956 -0.4094
  567MOL0     H74828   4.176   1.825   7.190 -0.9915 -1.7142 -0.3702
  567MOL0     H74829   4.175   1.578   7.134 -0.8447 -1.4100 -0.9906
  567MOL0     H74830   5.419   1.272   5.974 -0.7852  0.6211 -0.4497
  567MOL0     H74831   5.555   1.336   5.774 -1.1306  1.6925  2.9098
  567MOL0     H74832   5.786   1.172   5.299 -0.2570 -1.0164  1.8071
  567MOL0     H74833   5.942   1.267   5.149  2.0387 -1.3969 -0.6712
  567MOL0     H74834   6.221   1.519   5.059 -0.1423 -0.3043  0.7648
  567MOL0     H74835   6.045   1.476   5.057 -1.7905  0.7771  4.4143
  567MOL0     H74836   6.120   1.261   4.976  0.6231 -0.5397  0.9957
  567MOL0     H74837   6.235   1.369   4.895 -0.9082 -2.2609 -1.5401
  567MOL0     H74838   6.287   1.189   5.137  1.4843 -1.0272  0.4808
  567MOL0     H74839   6.393   1.314   5.078 -1.2697  0.9278 -0.1209
  567MOL0     H74840   6.367   1.169   4.838  0.6075 -0.9727 -0.2033
  567MOL0     H74841   6.460   1.121   4.980  0.3489 -0.0257 -1.8781
  567MOL0     H74842   6.205   0.796   4.953  1.4371 -0.2819 -1.6580
  567MOL0     H74843   6.169   1.418   5.479  1.1023  0.7408 -1.2844
  567MOL0     H74844   6.024   1.301   5.629 -0.7732 -1.2490 -0.2845
  568MOL0     O74845  10.915   3.419   2.300 -0.1240 -0.0235  0.3960
  568MOL0     C74846  10.827   3.454   2.224  0.6391 -0.7251 -0.1077
  568MOL0     O74847  10.841   3.565   2.154  1.0234 -0.4951  0.3522
  568MOL0     C74848  10.958   3.637   2.145  0.1107 -0.2794 -0.6155
  568MOL0     C74849  11.076   3.563   2.110 -0.6955 -0.8823 -0.0009
  568MOL0     C74850  11.196   3.632   2.087 -0.3336 -0.6771  0.2551
  568MOL0     C74851  11.185   3.770   2.082 -0.6896 -0.0428  0.5447
  568MOL0     O74852  11.294   3.853   2.061 -0.6907 -0.5812  1.1922
  568MOL0     C74853  11.433   3.812   2.090  0.7002  0.6230 -0.1939
  568MOL0     C74854  11.520   3.933   2.114  0.2928  0.5422 -0.6023
  568MOL0     C74855  11.665   3.910   2.164  0.5074 -0.5761 -0.4560
  568MOL0     C74856  11.756   4.032   2.162 -0.2344 -0.0700  0.6036
  568MOL0     C74857  11.733   4.130   2.280  0.1620  0.7196  0.6350
  568MOL0     C74858  11.825   4.240   2.283  0.1268  0.0208  0.1906
  568MOL0     C74859  11.973   4.203   2.298 -0.0891  1.0174  1.4116
  568MOL0     C74860  12.054   4.325   2.309  0.6040 -0.1492  0.5539
  568MOL0     N74861  12.190   4.286   2.344 -0.5999 -0.0466 -0.0078
  568MOL0     C74862  12.286   4.217   2.275  0.1439 -0.2598  1.4247
  568MOL0     C74863  12.393   4.210   2.358  0.8041  0.1121  0.4182
  568MOL0     C74864  12.522   4.151   2.322 -0.5671  0.1740  0.4737
  568MOL0     C74865  12.573   4.177   2.178 -1.0983  0.0336 -0.7615
  568MOL0     C74866  12.683   4.061   2.131  0.1979 -0.2371 -1.3651
  568MOL0     C74867  12.744   4.086   1.997  0.9236 -1.0824  0.9094
  568MOL0     O74868  12.651   4.085   1.891 -0.2668  0.0512 -0.1253
  568MOL0     C74869  12.584   4.195   1.856 -0.5439 -0.5989  0.9252
  568MOL0     C74870  12.623   4.323   1.876 -0.4164  0.6065 -0.4426
  568MOL0     C74871  12.543   4.426   1.823  0.2179  0.5278  0.1370
  568MOL0     C74872  12.439   4.387   1.737 -0.1297  0.6975  0.4554
  568MOL0     C74873  12.339   4.475   1.704 -0.4956 -1.3424  0.1351
  568MOL0     O74874  12.264   4.449   1.585 -0.3215  0.7976  0.2793
  568MOL0     C74875  12.183   4.543   1.528  0.0785  0.0480  1.4949
  568MOL0     C74876  12.057   4.506   1.472 -0.4973  0.1338 -0.7763
  568MOL0     C74877  11.988   4.607   1.418  0.5265 -0.9101 -0.7344
  568MOL0     C74878  12.029   4.739   1.398 -0.2953  0.2365 -0.3742
  568MOL0     O74879  11.939   4.830   1.368  0.7132 -0.3515 -0.0237
  568MOL0     C74880  11.868   4.793   1.242 -0.0439 -0.0044 -0.9892
  568MOL0     C74881  11.811   4.912   1.172 -0.2647 -0.7351  0.2891
  568MOL0     C74882  11.734   4.871   1.048 -0.7329  0.8023 -0.4951
  568MOL0     C74883  11.810   4.803   0.944 -0.1272 -0.7704  0.5433
  568MOL0     C74884  11.721   4.792   0.822 -1.0851  0.7279 -0.2452
  568MOL0     C74885  11.779   4.715   0.709  0.1801 -0.2716 -0.2884
  568MOL0     C74886  11.675   4.672   0.599  0.2962  1.0189  0.6731
  568MOL0     C74887  11.727   4.720   0.460  0.5578  0.2945 -1.0419
  568MOL0    Cl74888  11.602   4.665   0.332  0.1341 -0.2279 -0.1913
  568MOL0     C74889  12.154   4.772   1.440  0.2016 -0.4417 -1.1332
  568MOL0     C74890  12.231   4.676   1.499  0.1282  0.4406 -0.3296
  568MOL0     O74891  12.327   4.585   1.758 -0.4952  0.0127 -0.8240
  568MOL0     C74892  12.415   4.257   1.706  0.0655 -0.2583  0.0733
  568MOL0     C74893  12.491   4.159   1.759 -0.0504  0.5751  0.2500
  568MOL0     N74894  12.354   4.270   2.477 -0.1669 -0.0834 -0.0318
  568MOL0     N74895  12.224   4.318   2.466 -0.6661  0.4615 -0.5018
  568MOL0     C74896  11.065   3.837   2.112  0.0910  0.1619  0.4705
  568MOL0     C74897  10.951   3.773   2.144  0.6430 -0.0134  0.3164
  568MOL0     C74898  10.706   3.376   2.193 -0.5988 -0.1965  0.5671
  568MOL0     C74899  10.618   3.422   2.088 -0.9933 -0.1571 -0.9123
  568MOL0     C74900  10.494   3.361   2.089  0.0625 -0.0026 -0.3551
  568MOL0     C74901  10.464   3.250   2.166 -0.1958  0.5926 -0.3800
  568MOL0     O74902  10.348   3.177   2.159  0.5478 -0.3011 -0.2463
  568MOL0     C74903  10.234   3.248   2.111  0.2012  0.2799 -0.8375
  568MOL0     C74904  10.211   3.215   1.963  0.7559 -1.4712 -0.0984
  568MOL0     C74905  10.096   3.312   1.921  0.0205 -0.2824 -0.1853
  568MOL0     C74906  10.138   3.462   1.919 -0.2770  0.4298  0.2130
  568MOL0     C74907  10.254   3.496   1.835 -0.1708 -1.2508  0.0651
  568MOL0     C74908  10.357   3.513   1.770 -0.8846 -0.0894 -0.2947
  568MOL0     C74909  10.546   3.202   2.249  0.5408 -0.0999 -0.2699
  568MOL0     C74910  10.669   3.265   2.273  0.8237  0.2433  0.0831
  568MOL0     H74911  11.071   3.455   2.123 -1.3707 -0.5955  2.5001
  568MOL0     H74912  11.287   3.575   2.075 -0.9116 -1.4318 -0.6990
  568MOL0     H74913  11.472   3.773   1.996  0.3816  1.7941 -0.8269
  568MOL0     H74914  11.440   3.740   2.172 -0.3810  1.8250  1.0188
  568MOL0     H74915  11.459   3.974   2.195  0.4563 -1.6994  0.7135
  568MOL0     H74916  11.508   4.007   2.033  0.1528  0.5394 -0.5844
  568MOL0     H74917  11.700   3.856   2.075  0.0226  1.0208 -1.6525
  568MOL0     H74918  11.683   3.854   2.257  1.1216  0.9588  0.3739
  568MOL0     H74919  11.858   3.994   2.161 -1.1603 -2.7507 -1.1370
  568MOL0     H74920  11.740   4.096   2.074  0.2141 -1.1569 -0.2989
  568MOL0     H74921  11.740   4.081   2.378 -1.8073 -1.9585 -0.4287
  568MOL0     H74922  11.633   4.172   2.269  0.7490  1.4883 -2.9908
  568MOL0     H74923  11.798   4.309   2.363  1.5869 -1.5261  2.1089
  568MOL0     H74924  11.815   4.289   2.186 -0.8244 -1.4855 -0.5172
  568MOL0     H74925  11.986   4.143   2.388 -0.0112 -1.7237 -0.2892
  568MOL0     H74926  12.012   4.150   2.211  3.5428  1.7752  2.4314
  568MOL0     H74927  12.011   4.394   2.382  1.1787 -0.5201  1.2534
  568MOL0     H74928  12.059   4.383   2.216 -0.8032 -0.5353  0.2174
  568MOL0     H74929  12.289   4.173   2.175  2.7108 -3.9880  2.8928
  568MOL0     H74930  12.518   4.043   2.332  0.8369  0.2366  2.4477
  568MOL0     H74931  12.601   4.186   2.390  0.7934 -2.1815  0.2163
  568MOL0     H74932  12.618   4.276   2.177 -3.7534  1.3908  1.4381
  568MOL0     H74933  12.496   4.184   2.100  1.0647  2.3933 -2.9028
  568MOL0     H74934  12.760   4.065   2.208 -0.6252 -1.2986 -0.4735
  568MOL0     H74935  12.637   3.962   2.123  0.5812 -0.4458 -0.9922
  568MOL0     H74936  12.816   4.008   1.972  4.3414  2.3287 -0.8917
  568MOL0     H74937  12.801   4.179   2.002 -0.0637 -0.4892  1.5224
  568MOL0     H74938  12.714   4.345   1.930  0.3908  0.2264 -1.6026
  568MOL0     H74939  12.567   4.530   1.841 -0.5251  0.8373 -0.6029
  568MOL0     H74940  12.015   4.408   1.496  4.2229 -2.3334 -1.3758
  568MOL0     H74941  11.884   4.576   1.407 -0.4846  1.4549  1.1765
  568MOL0     H74942  11.785   4.725   1.268  0.0156  0.3744  0.2561
  568MOL0     H74943  11.935   4.734   1.179 -1.8745 -3.5112  0.0782
  568MOL0     H74944  11.888   4.975   1.125 -1.2786  0.1525 -0.2146
  568MOL0     H74945  11.745   4.969   1.237 -1.3580 -1.6791  0.0379
  568MOL0     H74946  11.669   4.949   1.007  0.3789  1.2416 -1.4890
  568MOL0     H74947  11.658   4.802   1.086 -0.3265 -1.3455 -3.2625
  568MOL0     H74948  11.893   4.872   0.924 -1.9837  0.9556 -1.8197
  568MOL0     H74949  11.868   4.716   0.975  2.8911  1.0469  0.4629
  568MOL0     H74950  11.699   4.890   0.778  0.8629 -0.2620 -3.7422
  568MOL0     H74951  11.628   4.745   0.857  0.4074  0.5920  4.1312
  568MOL0     H74952  11.843   4.632   0.741  0.1553  0.0708  0.7188
  568MOL0     H74953  11.850   4.783   0.661  0.0826 -0.2996 -0.4694
  568MOL0     H74954  11.678   4.562   0.594 -1.4812  0.9966 -2.5102
  568MOL0     H74955  11.574   4.706   0.624 -0.5937  0.1000 -1.3896
  568MOL0     H74956  11.819   4.672   0.425 -0.0307  0.1994 -2.5570
  568MOL0     H74957  11.733   4.829   0.453  1.4445  0.2760 -0.6016
  568MOL0     H74958  12.172   4.879   1.440  1.3867 -0.6227 -0.3338
  568MOL0     H74959  12.330   4.715   1.519  0.7433 -1.3755  0.3495
  568MOL0     H74960  12.332   4.222   1.645  0.0326 -1.0964  0.5800
  568MOL0     H74961  12.465   4.055   1.738 -2.5169  1.4257 -1.3285
  568MOL0     H74962  11.064   3.946   2.117 -0.8256  0.3588 -2.4174
  568MOL0     H74963  10.857   3.821   2.170  0.8497  0.6168 -0.0942
  568MOL0     H74964  10.641   3.506   2.023 -0.1488 -0.3458 -0.8673
  568MOL0     H74965  10.418   3.385   2.015  1.0126 -3.9562 -2.9344
  568MOL0     H74966  10.244   3.350   2.149 -0.6235  0.4048 -0.9215
  568MOL0     H74967  10.150   3.213   2.172  1.8157  2.8446  3.3207
  568MOL0     H74968  10.300   3.236   1.902 -0.3358 -2.7216 -2.2567
  568MOL0     H74969  10.182   3.111   1.944 -1.6466 -0.7079 -0.8972
  568MOL0     H74970  10.013   3.285   1.987 -0.2667 -4.1651 -1.8335
  568MOL0     H74971  10.055   3.285   1.823  0.0020  1.1129 -0.5783
  568MOL0     H74972  10.060   3.528   1.881  1.2492  3.1031  1.4493
  568MOL0     H74973  10.155   3.515   2.013 -1.7565  2.7528 -0.7391
  568MOL0     H74974  10.440   3.533   1.705 -1.1491  0.1755 -0.5548
  568MOL0     H74975  10.520   3.112   2.303  1.4890 -2.4072 -3.3828
  568MOL0     H74976  10.729   3.228   2.355  0.8969 -0.3917 -0.2509
  569MOL0     O74977   7.456   4.715   9.703  0.1871  0.6135  0.1862
  569MOL0     C74978   7.378   4.711   9.607 -0.0710 -0.0933 -0.0765
  569MOL0     O74979   7.260   4.649   9.615 -0.4693  0.5195  0.1943
  569MOL0     C74980   7.208   4.591   9.731  0.1442 -0.7280 -0.2928
  569MOL0     C74981   7.287   4.529   9.822  1.4254  1.9921  0.1543
  569MOL0     C74982   7.235   4.477   9.944  0.4072  0.6236 -0.8172
  569MOL0     C74983   7.098   4.486   9.967  0.2715  0.9517 -0.2888
  569MOL0     O74984   7.044   4.446  10.091  0.6411 -0.2527  0.3058
  569MOL0     C74985   7.062   4.307  10.117 -0.1451 -0.9943  0.7863
  569MOL0     C74986   7.017   4.269  10.256  0.0893  1.0246  0.6723
  569MOL0     C74987   7.107   4.339  10.363  1.0215 -0.0070 -0.4964
  569MOL0     C74988   7.052   4.330  10.509 -0.2968  0.5728 -0.0475
  569MOL0     C74989   7.167   4.328  10.605 -0.0722 -0.3835 -0.4190
  569MOL0     C74990   7.099   4.316  10.745  0.7885 -0.6511 -0.1235
  569MOL0     C74991   7.204   4.328  10.853 -0.2525 -0.6900  0.6128
  569MOL0     C74992   7.146   4.356  10.992 -0.0478  0.6649  0.0449
  569MOL0     N74993   7.244   4.378  11.097 -0.0983 -0.6858 -0.1554
  569MOL0     C74994   7.242   4.329  11.228 -1.8063  0.0182 -0.5158
  569MOL0     C74995   7.362   4.368  11.285 -0.0940  0.3955  0.2678
  569MOL0     C74996   7.399   4.321  11.421 -0.2738  0.3361  0.5101
  569MOL0     C74997   7.549   4.283  11.409 -0.1468 -0.1755  0.0175
  569MOL0     C74998   7.587   4.165  11.326  0.0078  0.3552  0.0129
  569MOL0     C74999   7.542   4.038  11.387  0.6739  0.0940  0.0930
  569MOL0     O75000   7.554   3.920  11.307  0.5326 -0.0273 -0.4284
  569MOL0     C75001   7.478   3.915  11.191 -0.2793 -0.1527 -0.9037
  569MOL0     C75002   7.345   3.963  11.193 -0.3279  0.8686 -0.5594
  569MOL0     C75003   7.277   3.971  11.075 -0.3659 -0.0471 -0.5280
  569MOL0     C75004   7.325   3.896  10.962 -0.6003  1.0481 -0.7539
  569MOL0     C75005   7.245   3.882  10.838 -0.5514  0.7432 -1.0252
  569MOL0     O75006   7.159   3.985  10.805  0.7011 -0.0109 -0.4690
  569MOL0     C75007   7.094   3.962  10.686 -0.9617  1.1855  0.5718
  569MOL0     C75008   6.956   3.943  10.674 -0.5669 -0.2767 -0.4734
  569MOL0     C75009   6.892   3.908  10.555 -0.3702  0.3730  0.0367
  569MOL0     C75010   6.969   3.889  10.443  0.6885 -0.4092  0.2041
  569MOL0     O75011   6.914   3.814  10.342  0.3456 -0.6098 -0.6389
  569MOL0     C75012   6.853   3.884  10.227 -0.2267  0.1077 -0.7254
  569MOL0     C75013   6.959   3.885  10.112  0.6489 -0.1867  0.2492
  569MOL0     C75014   6.911   3.973   9.996 -0.6307 -0.1936 -0.1553
  569MOL0     C75015   6.778   3.928   9.931  0.5204 -0.2950 -0.1719
  569MOL0     C75016   6.796   3.781   9.883  0.0546  0.0224 -0.2955
  569MOL0     C75017   6.722   3.761   9.749 -0.1188  0.3718  0.5272
  569MOL0     C75018   6.706   3.617   9.694 -0.6366  0.2989  0.1578
  569MOL0     C75019   6.835   3.553   9.670 -0.0545 -0.2470 -0.6527
  569MOL0    Cl75020   6.806   3.402   9.567 -0.0979  0.0257 -0.3892
  569MOL0     C75021   7.106   3.908  10.442  0.3527  0.3107  0.4466
  569MOL0     C75022   7.173   3.947  10.562 -0.6586  0.9571  0.8496
  569MOL0     O75023   7.257   3.781  10.773  0.0192 -0.2020 -0.8491
  569MOL0     C75024   7.446   3.828  10.970  0.9586  1.6078 -0.0887
  569MOL0     C75025   7.524   3.844  11.083 -0.0651 -0.4387 -0.9492
  569MOL0     N75026   7.430   4.445  11.194  0.1368  0.4669 -0.4277
  569MOL0     N75027   7.364   4.452  11.082 -1.0189 -0.5788  1.1972
  569MOL0     C75028   7.014   4.546   9.873 -1.0572 -0.0469 -0.0781
  569MOL0     C75029   7.069   4.588   9.753  0.0084  0.3467 -0.8624
  569MOL0     C75030   7.425   4.764   9.477 -0.3727  0.2549  0.4640
  569MOL0     C75031   7.525   4.870   9.474 -1.1663  0.7691 -0.0907
  569MOL0     C75032   7.578   4.908   9.352 -0.3222  0.7308 -0.1387
  569MOL0     C75033   7.533   4.855   9.227 -0.9952 -0.3721  0.8366
  569MOL0     O75034   7.573   4.889   9.099 -0.1836  0.1765  0.5407
  569MOL0     C75035   7.678   4.981   9.077  0.2238  0.6557 -0.6341
  569MOL0     C75036   7.706   5.032   8.931  0.0538  0.6576 -1.0100
  569MOL0     C75037   7.849   5.113   8.940  0.4626  0.0073 -0.4945
  569MOL0     C75038   7.976   5.039   8.904 -0.5643  0.0338  0.9499
  569MOL0     C75039   8.087   5.132   8.936 -0.1884 -0.4595  0.3962
  569MOL0     C75040   8.163   5.222   8.969 -0.5242  0.0565  0.7623
  569MOL0     C75041   7.435   4.761   9.229 -0.3768 -0.6392 -0.2434
  569MOL0     C75042   7.378   4.716   9.357 -0.0024  0.5591  0.1254
  569MOL0     H75043   7.389   4.507   9.794  0.5419 -2.7792 -0.1747
  569MOL0     H75044   7.306   4.435  10.015 -0.6822  1.8629  1.0854
  569MOL0     H75045   7.170   4.289  10.110  0.2422  1.5600 -3.4642
  569MOL0     H75046   7.012   4.251  10.037  0.6246 -0.2269 -0.2728
  569MOL0     H75047   7.026   4.161  10.270  1.7315  0.8579 -1.2393
  569MOL0     H75048   6.914   4.307  10.267  0.0212  1.1942 -0.4314
  569MOL0     H75049   7.126   4.445  10.343 -2.5877  1.1013  1.0721
  569MOL0     H75050   7.198   4.278  10.359  1.4816  0.6005  0.5466
  569MOL0     H75051   6.989   4.417  10.523 -0.7928 -0.0457  1.8943
  569MOL0     H75052   6.989   4.241  10.513  0.0870  0.0636 -2.8122
  569MOL0     H75053   7.236   4.413  10.604  0.9052 -1.0714  1.8421
  569MOL0     H75054   7.223   4.236  10.591 -2.4244 -1.8095 -0.9758
  569MOL0     H75055   7.037   4.229  10.766  1.9223 -1.2123  1.0858
  569MOL0     H75056   7.042   4.408  10.759  2.4441  0.5686 -1.0017
  569MOL0     H75057   7.265   4.238  10.846  2.0334  0.7811  0.5804
  569MOL0     H75058   7.262   4.419  10.833 -0.4998 -1.3086 -4.0981
  569MOL0     H75059   7.082   4.269  11.009 -5.4365  3.4096 -3.0883
  569MOL0     H75060   7.074   4.439  10.990 -0.5651  0.2145 -0.3292
  569MOL0     H75061   7.166   4.260  11.265 -3.4728  3.0558  2.2510
  569MOL0     H75062   7.342   4.239  11.464 -3.0810  1.3185 -1.1200
  569MOL0     H75063   7.386   4.401  11.494 -2.0608 -1.9624  2.8654
  569MOL0     H75064   7.588   4.281  11.511  0.5326 -3.2101 -0.2250
  569MOL0     H75065   7.599   4.369  11.363 -3.0290  2.1983  0.9932
  569MOL0     H75066   7.541   4.172  11.227 -1.6973  2.2275  0.8617
  569MOL0     H75067   7.695   4.168  11.311  0.4654 -3.0260  1.5102
  569MOL0     H75068   7.448   4.056  11.440  0.3038  0.4939 -0.6819
  569MOL0     H75069   7.599   4.021  11.479 -2.4107 -1.7612  1.8511
  569MOL0     H75070   7.300   4.018  11.275  3.3234  2.3864  0.6501
  569MOL0     H75071   7.179   4.015  11.073  0.8722  2.9270 -0.5444
  569MOL0     H75072   6.891   3.950  10.761 -3.0361  0.7660 -2.2882
  569MOL0     H75073   6.788   3.876  10.559  0.4398 -2.5079  0.4865
  569MOL0     H75074   6.810   3.975  10.271 -0.5077 -1.0900  1.6804
  569MOL0     H75075   6.772   3.822  10.188 -1.5030  2.3074 -1.7660
  569MOL0     H75076   6.996   3.787  10.081 -0.0005 -0.2071 -0.4810
  569MOL0     H75077   7.042   3.941  10.155  2.0497 -1.8287 -0.1819
  569MOL0     H75078   6.998   3.977   9.930  0.2602  0.4289  1.0193
  569MOL0     H75079   6.891   4.074  10.033 -4.0980 -0.3870 -1.1068
  569MOL0     H75080   6.697   3.938  10.003  1.7535  2.7886  0.9554
  569MOL0     H75081   6.769   4.000   9.849  2.0089 -0.2379 -0.3090
  569MOL0     H75082   6.751   3.718   9.960  0.2496  2.7999  2.2831
  569MOL0     H75083   6.899   3.744   9.881 -0.2276 -0.7803 -0.1334
  569MOL0     H75084   6.764   3.826   9.673  0.8087 -0.8408 -0.0319
  569MOL0     H75085   6.618   3.795   9.760 -1.2211 -2.6838  0.7095
  569MOL0     H75086   6.650   3.552   9.762  1.0512 -1.3142  0.0930
  569MOL0     H75087   6.657   3.615   9.597  0.3527 -1.5114 -0.3542
  569MOL0     H75088   6.898   3.526   9.755 -0.5922  1.2171  0.2497
  569MOL0     H75089   6.898   3.617   9.607  0.1406 -2.0355 -2.3529
  569MOL0     H75090   7.160   3.894  10.349  2.3851 -0.1482  1.6282
  569MOL0     H75091   7.279   3.963  10.575 -0.4159  1.3118 -1.2794
  569MOL0     H75092   7.475   3.773  10.881 -1.8397 -0.8393  0.3704
  569MOL0     H75093   7.615   3.787  11.095 -0.4774 -0.9864 -0.3277
  569MOL0     H75094   6.912   4.560   9.909 -0.7286  0.0563  0.8372
  569MOL0     H75095   7.008   4.643   9.682 -0.8004  3.2513  1.8544
  569MOL0     H75096   7.544   4.915   9.571  1.4429 -0.1766 -0.0696
  569MOL0     H75097   7.656   4.984   9.355  0.0854  0.2880  2.0571
  569MOL0     H75098   7.766   4.938   9.125 -0.2836  0.0311 -0.2412
  569MOL0     H75099   7.647   5.073   9.128 -0.1305  1.1900 -1.7709
  569MOL0     H75100   7.718   4.943   8.868  1.6056 -1.6625  2.3008
  569MOL0     H75101   7.625   5.095   8.892 -0.1184  0.3867 -1.0909
  569MOL0     H75102   7.856   5.171   9.032  4.5063 -0.0076 -0.6021
  569MOL0     H75103   7.841   5.186   8.858 -1.1766 -1.5758 -1.8464
  569MOL0     H75104   7.986   4.942   8.954 -0.6347 -1.1995 -1.3210
  569MOL0     H75105   7.984   5.024   8.796 -4.9532  3.5182 -0.1780
  569MOL0     H75106   8.231   5.301   8.994  2.2843 -1.7888 -0.4748
  569MOL0     H75107   7.387   4.719   9.141 -1.7435 -1.1971  0.7311
  569MOL0     H75108   7.294   4.649   9.341 -1.1081  1.8829  0.2191
  570MOL0     O75109   1.158   8.900   3.069 -0.4005  0.4307  0.6486
  570MOL0     C75110   1.270   8.910   3.121  0.4368 -0.0303 -0.2634
  570MOL0     O75111   1.368   8.808   3.129  0.5184  0.9331  0.4918
  570MOL0     C75112   1.345   8.675   3.088 -0.4687  0.2714  0.4497
  570MOL0     C75113   1.456   8.588   3.104 -0.2861 -0.4551 -1.0412
  570MOL0     C75114   1.450   8.448   3.074  0.5131 -0.5686  0.2719
  570MOL0     C75115   1.339   8.396   3.013  0.2711 -0.8642  0.7149
  570MOL0     O75116   1.320   8.267   2.967  0.6981  0.0562 -0.0441
  570MOL0     C75117   1.409   8.158   3.001 -0.1050 -0.0840  0.4708
  570MOL0     C75118   1.345   8.032   2.944  1.0394 -0.2488 -0.0045
  570MOL0     C75119   1.381   7.900   3.004  0.2019 -0.0277 -0.1838
  570MOL0     C75120   1.328   7.786   2.925 -0.8233  0.2849  0.6057
  570MOL0     C75121   1.367   7.656   2.997  0.2098  0.9971 -0.0186
  570MOL0     C75122   1.388   7.533   2.906 -2.2344  0.1648 -0.1633
  570MOL0     C75123   1.395   7.400   2.996 -0.2428  0.3722  0.1051
  570MOL0     C75124   1.419   7.278   2.903 -0.1608  0.5286  0.1888
  570MOL0     N75125   1.365   7.153   2.951  0.0887 -0.3836 -0.5563
  570MOL0     C75126   1.422   7.069   3.043  1.3225  0.0471  0.9606
  570MOL0     C75127   1.344   6.967   3.033 -0.7489  0.6278  0.6619
  570MOL0     C75128   1.377   6.845   3.122  0.9837  0.0208  0.1726
  570MOL0     C75129   1.495   6.768   3.069  0.9264 -0.8345 -0.1744
  570MOL0     C75130   1.461   6.699   2.941 -0.2988  0.0078  0.2808
  570MOL0     C75131   1.575   6.602   2.902 -0.5554 -0.2788  0.9593
  570MOL0     O75132   1.698   6.681   2.853  0.4228 -0.2309 -0.5813
  570MOL0     C75133   1.793   6.610   2.779  0.1358  0.3664  0.4016
  570MOL0     C75134   1.893   6.675   2.717 -0.2182  0.5138 -1.4395
  570MOL0     C75135   2.001   6.608   2.653  0.4965  0.7942 -0.2470
  570MOL0     C75136   1.998   6.468   2.636 -0.3689  0.0448 -1.1037
  570MOL0     C75137   2.113   6.407   2.565  0.3537  0.3663  0.8265
  570MOL0     O75138   2.198   6.491   2.501  0.2781 -0.2320 -0.1173
  570MOL0     C75139   2.315   6.434   2.465 -0.8706  0.5459 -0.2013
  570MOL0     C75140   2.332   6.410   2.334 -0.7171  0.7755  0.1897
  570MOL0     C75141   2.453   6.348   2.284  0.2462 -1.1412 -0.0704
  570MOL0     C75142   2.559   6.319   2.375  0.6897 -0.6790 -0.3154
  570MOL0     O75143   2.682   6.289   2.332 -0.0714 -0.1716  0.2951
  570MOL0     C75144   2.787   6.262   2.429 -0.1530 -0.7758  0.5068
  570MOL0     C75145   2.919   6.211   2.374 -0.4745 -0.4106 -0.2403
  570MOL0     C75146   2.977   6.298   2.261  0.5524  0.3072 -0.7652
  570MOL0     C75147   3.015   6.443   2.296  0.1111  0.5666 -0.3409
  570MOL0     C75148   3.097   6.462   2.425 -0.5006 -0.2425  0.2321
  570MOL0     C75149   3.245   6.404   2.420  0.9002  0.4906 -1.0919
  570MOL0     C75150   3.334   6.494   2.520 -0.2426 -0.1355  0.2919
  570MOL0     C75151   3.486   6.476   2.483  0.5430 -0.4367 -0.5537
  570MOL0    Cl75152   3.513   6.610   2.381  0.0499 -0.5540  0.0753
  570MOL0     C75153   2.539   6.352   2.507 -0.7642 -0.4416 -0.8532
  570MOL0     C75154   2.420   6.400   2.551  0.1360  0.5084  0.0551
  570MOL0     O75155   2.113   6.282   2.558  1.0900  0.5625 -0.4235
  570MOL0     C75156   1.903   6.400   2.710 -0.0171  0.5080  0.8443
  570MOL0     C75157   1.794   6.470   2.770  0.0590 -0.1311 -0.2765
  570MOL0     N75158   1.252   6.982   2.938  0.0461 -0.1206 -0.1203
  570MOL0     N75159   1.256   7.100   2.890 -0.1264 -0.5951  0.0146
  570MOL0     C75160   1.232   8.489   2.989  0.6816  0.2247 -0.0474
  570MOL0     C75161   1.242   8.622   3.019  0.1044  0.4935  0.3166
  570MOL0     C75162   1.308   9.036   3.190 -0.5507 -0.0830  0.3162
  570MOL0     C75163   1.212   9.122   3.219 -0.2596  0.7991  0.3634
  570MOL0     C75164   1.231   9.219   3.307  0.2537  0.0455  0.6456
  570MOL0     C75165   1.349   9.240   3.376  0.5871  0.6166  0.0223
  570MOL0     O75166   1.351   9.340   3.466 -0.1232  0.2597 -0.4971
  570MOL0     C75167   1.445   9.325   3.581  0.4848 -0.1330 -0.3769
  570MOL0     C75168   1.448   9.459   3.657  0.7504 -0.6478  0.0330
  570MOL0     C75169   1.307   9.486   3.724 -0.3031  0.8457  0.4636
  570MOL0     C75170   1.297   9.621   3.806 -0.6850  0.4256 -0.2584
  570MOL0     C75171   1.401   9.626   3.914  0.3853 -0.9036 -0.1466
  570MOL0     C75172   1.488   9.640   3.987 -0.4758  0.1027  0.5886
  570MOL0     C75173   1.458   9.164   3.332  0.1091 -0.5346  0.5535
  570MOL0     C75174   1.434   9.072   3.229 -0.0389  0.4892 -0.0752
  570MOL0     H75175   1.542   8.625   3.159 -1.7027  1.0631  0.2844
  570MOL0     H75176   1.528   8.377   3.100 -0.0331 -1.3407 -0.1300
  570MOL0     H75177   1.418   8.156   3.110 -1.9707  0.6721  0.6656
  570MOL0     H75178   1.505   8.188   2.958 -0.4050  0.8057  0.3937
  570MOL0     H75179   1.349   8.037   2.835 -1.6983 -1.3234 -0.2378
  570MOL0     H75180   1.237   8.031   2.961  0.5482 -4.0272 -2.2123
  570MOL0     H75181   1.349   7.893   3.109  0.0776  3.5543  0.1286
  570MOL0     H75182   1.489   7.888   2.993 -0.0108 -1.5755 -0.8358
  570MOL0     H75183   1.219   7.792   2.918 -0.7645  1.6857  0.5011
  570MOL0     H75184   1.377   7.781   2.827 -0.7745 -1.0178  0.6783
  570MOL0     H75185   1.287   7.620   3.064  1.5539  0.8992  1.5962
  570MOL0     H75186   1.452   7.677   3.063  0.3917  2.1206 -0.6031
  570MOL0     H75187   1.477   7.553   2.846 -1.6290  0.4567  0.8077
  570MOL0     H75188   1.315   7.526   2.824 -0.1934  1.5476 -2.2019
  570MOL0     H75189   1.478   7.403   3.067 -1.3512  0.5845  1.4385
  570MOL0     H75190   1.308   7.389   3.061  0.0993  0.7391  0.6270
  570MOL0     H75191   1.528   7.274   2.898 -0.1892 -0.7664  0.1649
  570MOL0     H75192   1.380   7.305   2.804 -0.1665 -3.8302 -1.1977
  570MOL0     H75193   1.515   7.084   3.098  2.1207  1.2216 -0.6088
  570MOL0     H75194   1.290   6.779   3.131  1.6777 -0.9233  0.1032
  570MOL0     H75195   1.399   6.889   3.220  2.4512  2.2511 -1.0640
  570MOL0     H75196   1.521   6.695   3.147  1.5907 -1.3519 -0.8594
  570MOL0     H75197   1.587   6.826   3.058 -0.8272  1.7751 -1.9547
  570MOL0     H75198   1.368   6.643   2.933 -0.3509  0.1595 -0.2310
  570MOL0     H75199   1.468   6.771   2.859 -0.2163  0.5147  0.7201
  570MOL0     H75200   1.543   6.538   2.820  2.7291  2.2786 -2.7235
  570MOL0     H75201   1.604   6.532   2.980  2.1597  0.0507  0.3400
  570MOL0     H75202   1.895   6.783   2.728  0.4514  0.7444 -3.5199
  570MOL0     H75203   2.066   6.677   2.600  0.0125  1.2245 -0.2807
  570MOL0     H75204   2.251   6.427   2.265 -1.0261 -2.9279 -0.5571
  570MOL0     H75205   2.475   6.316   2.183  2.4776 -1.3701  0.4419
  570MOL0     H75206   2.757   6.183   2.498 -1.5407 -2.1846 -1.6078
  570MOL0     H75207   2.802   6.359   2.478  2.2173 -0.2946 -1.0023
  570MOL0     H75208   2.897   6.111   2.335  1.8248 -0.4706 -1.5490
  570MOL0     H75209   2.989   6.204   2.458 -0.4831  3.4998  0.2627
  570MOL0     H75210   2.908   6.300   2.176  0.5833 -1.1977 -0.8425
  570MOL0     H75211   3.070   6.246   2.236  1.4159  0.8622  1.0901
  570MOL0     H75212   3.074   6.474   2.209  0.3389  0.4260 -0.2361
  570MOL0     H75213   2.922   6.500   2.291  0.3121  0.8133 -1.6759
  570MOL0     H75214   3.043   6.418   2.510 -1.1152  0.8207  0.4159
  570MOL0     H75215   3.100   6.567   2.455 -2.5850 -0.2993  0.8088
  570MOL0     H75216   3.283   6.401   2.317  1.1594 -0.4285 -0.9784
  570MOL0     H75217   3.232   6.305   2.465 -2.0885  1.4369  0.3862
  570MOL0     H75218   3.307   6.600   2.515  1.4012  0.4355  2.2086
  570MOL0     H75219   3.325   6.465   2.625  3.2585  0.9273  1.0220
  570MOL0     H75220   3.495   6.381   2.430  1.1872 -1.4978  1.3389
  570MOL0     H75221   3.547   6.477   2.574  0.8769  1.8634 -0.7389
  570MOL0     H75222   2.621   6.330   2.576  1.4639  0.5977 -3.0218
  570MOL0     H75223   2.393   6.410   2.656 -3.1100  2.0312 -0.7872
  570MOL0     H75224   1.904   6.293   2.727 -0.4875  0.5303  1.0404
  570MOL0     H75225   1.728   6.405   2.827 -1.6983 -1.4327 -3.4851
  570MOL0     H75226   1.144   8.453   2.936  0.8748 -0.0001 -0.2201
  570MOL0     H75227   1.153   8.674   2.985 -2.0425 -2.5547  0.9400
  570MOL0     H75228   1.109   9.104   3.190 -0.4225  1.9707  0.1564
  570MOL0     H75229   1.152   9.284   3.346  2.0283  0.9594  2.9571
  570MOL0     H75230   1.544   9.290   3.549  1.9679  2.3785  1.1565
  570MOL0     H75231   1.418   9.242   3.647  2.0143  0.9039  1.6620
  570MOL0     H75232   1.521   9.456   3.739  0.4072 -1.1308  0.3261
  570MOL0     H75233   1.482   9.540   3.591 -0.4506 -1.3621 -1.5149
  570MOL0     H75234   1.279   9.399   3.785 -1.6402  0.1861 -1.0131
  570MOL0     H75235   1.243   9.498   3.636  1.5424  3.0878 -0.6612
  570MOL0     H75236   1.308   9.701   3.732 -0.7578 -3.1553 -4.5330
  570MOL0     H75237   1.197   9.626   3.850 -0.0135 -0.4945  1.4290
  570MOL0     H75238   1.575   9.645   4.050  0.7936  2.0178 -1.2084
  570MOL0     H75239   1.551   9.188   3.382 -1.3351  2.3401  2.1576
  570MOL0     H75240   1.512   8.999   3.209  0.8965  0.8403  2.0590
  571MOL0     O75241   7.464   0.999   1.643  0.4798  0.1983  0.0063
  571MOL0     C75242   7.589   1.007   1.667 -0.5840 -0.2046  0.5073
  571MOL0     O75243   7.691   0.968   1.587  0.6223  0.3053 -0.0691
  571MOL0     C75244   7.663   0.952   1.453  0.0030 -0.2832  0.6562
  571MOL0     C75245   7.693   0.838   1.379  0.5159  0.0955 -0.2192
  571MOL0     C75246   7.669   0.839   1.247 -0.5080 -0.3543 -0.0536
  571MOL0     C75247   7.631   0.943   1.164 -1.1569  0.4485 -0.5207
  571MOL0     O75248   7.620   0.938   1.023  0.4535  0.2913 -0.1594
  571MOL0     C75249   7.668   0.818   0.959  0.4317  0.1942 -0.7927
  571MOL0     C75250   7.658   0.836   0.806  0.2039 -0.3915  0.8613
  571MOL0     C75251   7.745   0.936   0.739  0.4462 -0.5175 -0.0845
  571MOL0     C75252   7.728   0.929   0.587 -0.3678  0.4350  0.6866
  571MOL0     C75253   7.831   1.013   0.519 -0.3451 -0.5662 -0.1694
  571MOL0     C75254   7.978   0.957   0.528  0.4917 -0.9777 -0.1299
  571MOL0     C75255   8.071   1.023   0.439  0.2414 -1.3125 -0.0162
  571MOL0     C75256   8.214   0.998   0.481  0.9903  0.3069 -0.7772
  571MOL0     N75257   8.305   1.027   0.380  0.7004 -0.6230 -0.3790
  571MOL0     C75258   8.317   1.149   0.317 -0.3860 -0.1277  0.7040
  571MOL0     C75259   8.412   1.130   0.228 -0.4345  0.2709  1.1401
  571MOL0     C75260   8.469   1.235   0.140 -0.6490 -0.4072  0.9549
  571MOL0     C75261   8.519   1.364   0.216 -1.0736  0.3224  0.6580
  571MOL0     C75262   8.433   1.486   0.183  0.1214  0.3096  0.3933
  571MOL0     C75263   8.300   1.492   0.251 -0.0501 -0.5467 -0.7599
  571MOL0     O75264   8.193   1.420   0.182  0.9009 -0.0542 -0.1459
  571MOL0     C75265   8.079   1.407   0.263 -0.2035 -1.1424  1.2985
  571MOL0     C75266   7.991   1.299   0.245  0.8443 -0.4325  0.0500
  571MOL0     C75267   7.868   1.302   0.301 -0.3336  0.5251 -0.0060
  571MOL0     C75268   7.820   1.412   0.374 -0.0533  0.7397  0.5762
  571MOL0     C75269   7.687   1.397   0.432  0.4012  0.1092 -0.4010
  571MOL0     O75270   7.661   1.507   0.510 -0.2275 -0.2031 -0.3085
  571MOL0     C75271   7.540   1.569   0.534 -0.3637 -0.6815  0.5203
  571MOL0     C75272   7.531   1.703   0.494  0.2869  0.5671  0.1334
  571MOL0     C75273   7.414   1.776   0.513  0.4586  0.2938 -0.7920
  571MOL0     C75274   7.304   1.723   0.566  1.0612 -0.2967  0.1012
  571MOL0     O75275   7.184   1.799   0.579 -0.4402  0.6389 -0.1911
  571MOL0     C75276   7.154   1.891   0.480 -0.7224  0.6380 -1.0629
  571MOL0     C75277   7.196   2.036   0.535  0.5282  0.1141  0.5864
  571MOL0     C75278   7.077   2.135   0.557 -0.4340 -0.3018  0.3122
  571MOL0     C75279   6.980   2.093   0.668  0.0410  0.4051  0.2819
  571MOL0     C75280   6.882   2.210   0.681  0.5691 -0.0128  0.1635
  571MOL0     C75281   6.768   2.196   0.584  0.1756  0.5578 -0.2617
  571MOL0     C75282   6.686   2.319   0.568  0.6720 -0.5652 -0.3094
  571MOL0     C75283   6.610   2.323   0.439  0.5432  0.5539  0.1589
  571MOL0    Cl75284   6.530   2.172   0.394 -0.6816 -0.6455  0.2035
  571MOL0     C75285   7.308   1.591   0.609 -0.1038 -0.4411  0.5110
  571MOL0     C75286   7.425   1.513   0.598 -0.1958  0.6894  0.2229
  571MOL0     O75287   7.604   1.316   0.389 -0.1465  0.7242 -0.7008
  571MOL0     C75288   7.912   1.522   0.399  0.1297  0.9046  0.3605
  571MOL0     C75289   8.038   1.521   0.345  0.7080  0.4199 -0.1874
  571MOL0     N75290   8.454   0.996   0.230 -0.1521  1.6700  0.1231
  571MOL0     N75291   8.389   0.934   0.324  0.2197  0.1897 -0.3287
  571MOL0     C75292   7.610   1.063   1.238 -0.3298 -0.7355  0.8944
  571MOL0     C75293   7.625   1.068   1.379 -0.3642 -0.1539 -0.4396
  571MOL0     C75294   7.629   1.090   1.793  0.7758  0.5306  0.9421
  571MOL0     C75295   7.536   1.167   1.860 -0.0272 -0.7366  0.7066
  571MOL0     C75296   7.566   1.233   1.980 -0.2800  0.5454 -0.8948
  571MOL0     C75297   7.703   1.234   2.017  0.0051 -0.2590 -0.7490
  571MOL0     O75298   7.756   1.297   2.134  0.1832 -0.1873  0.1762
  571MOL0     C75299   7.672   1.381   2.211 -1.1055 -0.1921 -0.3699
  571MOL0     C75300   7.751   1.505   2.255 -1.0398 -0.0695 -1.0761
  571MOL0     C75301   7.658   1.618   2.299  0.3755  0.0997  0.3622
  571MOL0     C75302   7.720   1.753   2.350 -1.2692  0.3106  0.4213
  571MOL0     C75303   7.802   1.829   2.257  0.0254 -0.7567 -0.5588
  571MOL0     C75304   7.839   1.900   2.168 -0.8692 -0.6319  0.0673
  571MOL0     C75305   7.803   1.170   1.943 -0.1859  0.6166 -0.8727
  571MOL0     C75306   7.762   1.099   1.829  0.3961 -0.5772 -1.0683
  571MOL0     H75307   7.726   0.740   1.413 -1.0364 -2.0880 -4.3957
  571MOL0     H75308   7.690   0.742   1.203 -0.2512 -0.2122 -0.2444
  571MOL0     H75309   7.614   0.727   0.987  1.5745  0.0863  1.2591
  571MOL0     H75310   7.773   0.789   0.972 -0.1077 -1.8300 -0.5302
  571MOL0     H75311   7.555   0.865   0.784  0.6318  1.1603  0.7958
  571MOL0     H75312   7.667   0.735   0.763 -4.2834 -0.2246 -1.0268
  571MOL0     H75313   7.847   0.919   0.775  0.1371 -0.1119  1.0172
  571MOL0     H75314   7.710   1.034   0.774 -0.6688 -1.5516  1.9297
  571MOL0     H75315   7.735   0.826   0.550 -0.6266  0.3832  0.7786
  571MOL0     H75316   7.630   0.966   0.557  0.5537  2.4150  0.0186
  571MOL0     H75317   7.831   1.115   0.559  1.2061 -0.9415  0.8870
  571MOL0     H75318   7.811   1.019   0.412  0.0609  0.0035 -0.2152
  571MOL0     H75319   7.980   0.850   0.507  3.2169 -1.0620  0.2198
  571MOL0     H75320   8.018   0.973   0.629  0.9104  1.8844 -0.6749
  571MOL0     H75321   8.052   0.995   0.335 -2.3546  2.8336 -0.9079
  571MOL0     H75322   8.052   1.130   0.455 -0.5198 -1.6951  1.9228
  571MOL0     H75323   8.223   0.894   0.512  0.0997  0.4715  0.1061
  571MOL0     H75324   8.234   1.072   0.559  1.9441 -0.8148  0.0595
  571MOL0     H75325   8.265   1.239   0.350  0.6238  0.5358  0.5083
  571MOL0     H75326   8.393   1.251   0.063 -0.2102 -2.4894  0.0087
  571MOL0     H75327   8.556   1.189   0.093 -2.2440 -0.1504 -2.4975
  571MOL0     H75328   8.625   1.384   0.199 -1.0202 -0.6337 -0.2801
  571MOL0     H75329   8.519   1.355   0.325 -0.0373  1.0315  0.7317
  571MOL0     H75330   8.479   1.583   0.203  1.9930 -0.6164  0.7327
  571MOL0     H75331   8.420   1.485   0.074 -0.7597  0.2884  0.4916
  571MOL0     H75332   8.274   1.598   0.267  1.9735 -0.3398  1.7850
  571MOL0     H75333   8.303   1.447   0.350 -2.4883 -2.5742 -1.4956
  571MOL0     H75334   8.013   1.207   0.192  2.8256  0.6880 -1.2139
  571MOL0     H75335   7.806   1.213   0.299 -1.6476  1.3903  0.4020
  571MOL0     H75336   7.610   1.759   0.446 -0.8742  1.6350 -0.6093
  571MOL0     H75337   7.420   1.881   0.487  4.0097 -0.0131 -1.7102
  571MOL0     H75338   7.047   1.888   0.458 -1.1529 -1.6793  0.8484
  571MOL0     H75339   7.213   1.861   0.393 -0.8491 -0.2580 -0.8483
  571MOL0     H75340   7.268   2.088   0.472 -1.0523  0.6078 -0.8885
  571MOL0     H75341   7.250   2.019   0.629  2.1056 -1.4154 -0.5272
  571MOL0     H75342   7.025   2.152   0.463 -1.1081  1.8528  1.0083
  571MOL0     H75343   7.110   2.238   0.578 -1.7338  0.2608 -0.2822
  571MOL0     H75344   6.919   2.008   0.639  2.3023 -0.4828 -2.2748
  571MOL0     H75345   7.020   2.070   0.767 -3.4332 -0.8765  1.5290
  571MOL0     H75346   6.918   2.314   0.680 -1.4113  0.7222  0.5025
  571MOL0     H75347   6.858   2.201   0.788  3.2883 -0.7665  0.7792
  571MOL0     H75348   6.707   2.106   0.600 -0.6397  1.5240  2.7413
  571MOL0     H75349   6.803   2.169   0.484 -2.3579 -3.2859 -0.3091
  571MOL0     H75350   6.611   2.322   0.648 -3.4089 -0.5399 -3.7853
  571MOL0     H75351   6.756   2.402   0.579  0.9696 -0.5990 -1.7014
  571MOL0     H75352   6.680   2.349   0.359  0.0545  0.1346 -0.4179
  571MOL0     H75353   6.527   2.394   0.441 -0.1366 -0.2353  0.0919
  571MOL0     H75354   7.218   1.543   0.646 -0.7529 -0.1966 -0.6973
  571MOL0     H75355   7.444   1.417   0.646  2.3166  0.4265 -1.1033
  571MOL0     H75356   7.873   1.604   0.459 -0.6559 -1.1087  2.7590
  571MOL0     H75357   8.094   1.612   0.363  1.7639 -0.3981  0.8836
  571MOL0     H75358   7.566   1.143   1.179 -0.8501 -0.7045  1.3222
  571MOL0     H75359   7.615   1.172   1.408 -0.7219  0.2427 -1.8889
  571MOL0     H75360   7.431   1.150   1.836  0.6962 -1.8350 -1.9972
  571MOL0     H75361   7.485   1.274   2.038  1.0936  0.2771  1.3426
  571MOL0     H75362   7.642   1.316   2.294  0.4394 -0.2109  0.2040
  571MOL0     H75363   7.594   1.430   2.151 -1.4145  0.9555  0.9302
  571MOL0     H75364   7.827   1.490   2.332 -1.5270  2.0519 -0.0896
  571MOL0     H75365   7.813   1.534   2.170 -0.0165  0.7054 -0.0887
  571MOL0     H75366   7.597   1.577   2.380 -1.7585 -1.5893 -1.9192
  571MOL0     H75367   7.589   1.634   2.215  1.4820  0.4553 -0.5053
  571MOL0     H75368   7.636   1.815   2.384 -3.6828 -2.2517 -0.4324
  571MOL0     H75369   7.782   1.735   2.438  1.2065  1.4638 -0.9722
  571MOL0     H75370   7.885   1.953   2.087 -0.7127 -0.0080  0.5568
  571MOL0     H75371   7.906   1.176   1.977 -0.5318 -1.1573  0.6503
  571MOL0     H75372   7.841   1.053   1.770  0.0563  0.0451 -2.0136
  572MOL0     O75373   6.649   9.955   1.224 -0.3477 -0.0527  0.4699
  572MOL0     C75374   6.593  10.001   1.325 -0.0597  0.2084  0.2506
  572MOL0     O75375   6.495  10.086   1.338 -0.1260 -0.3769 -0.0583
  572MOL0     C75376   6.402  10.120   1.241 -0.3425  0.9591  0.1930
  572MOL0     C75377   6.271  10.158   1.281 -0.3199  0.9640  0.0561
  572MOL0     C75378   6.177  10.210   1.195 -0.1476 -0.8557  0.8400
  572MOL0     C75379   6.208  10.216   1.057  0.2709 -0.0390  0.2199
  572MOL0     O75380   6.093  10.233   0.978 -0.1750 -0.0375  0.2888
  572MOL0     C75381   6.087  10.175   0.851  0.2999 -0.0781 -0.1744
  572MOL0     C75382   6.074  10.020   0.874  0.4336 -0.0563  0.1194
  572MOL0     C75383   6.106   9.922   0.752  0.6412  0.3546 -0.3929
  572MOL0     C75384   6.007   9.803   0.762  0.6412  0.0059 -0.0872
  572MOL0     C75385   6.029   9.698   0.650 -0.2558  0.8251  0.8297
  572MOL0     C75386   5.914   9.602   0.622  0.1008 -0.1073  0.5726
  572MOL0     C75387   5.948   9.466   0.545 -0.9901 -0.8146  0.3896
  572MOL0     C75388   6.013   9.363   0.641  0.1581 -0.0780 -0.3906
  572MOL0     N75389   6.069   9.247   0.572  0.0358 -0.4129  0.6515
  572MOL0     C75390   5.994   9.160   0.501  0.9330 -0.8226 -0.1593
  572MOL0     C75391   6.082   9.064   0.447  0.8360  0.4814 -0.1572
  572MOL0     C75392   6.061   8.946   0.360  0.6952 -0.0264 -1.3179
  572MOL0     C75393   6.032   8.816   0.442 -0.4464  1.2522 -1.2057
  572MOL0     C75394   6.112   8.767   0.565 -0.4093  0.1777 -0.2504
  572MOL0     C75395   6.116   8.851   0.690 -0.0078 -0.4946  0.9184
  572MOL0     O75396   5.980   8.881   0.724 -0.2639 -0.4077 -0.5788
  572MOL0     C75397   5.950   8.986   0.810  0.0918  0.0802 -0.2553
  572MOL0     C75398   6.036   9.050   0.894 -0.3672 -0.1787 -0.2197
  572MOL0     C75399   5.986   9.156   0.966 -0.7154 -0.4973  0.7351
  572MOL0     C75400   5.854   9.194   0.966  1.3370  0.6151  0.3012
  572MOL0     C75401   5.804   9.309   1.032 -0.3347  0.0960  0.0817
  572MOL0     O75402   5.898   9.398   1.069  0.1397  0.2070  0.0208
  572MOL0     C75403   5.859   9.506   1.140  0.3824  0.4063 -0.6444
  572MOL0     C75404   5.805   9.620   1.085  0.4848 -0.8683  0.6024
  572MOL0     C75405   5.772   9.724   1.163 -0.8151 -0.5903  0.0742
  572MOL0     C75406   5.783   9.722   1.308 -0.6478  0.1208 -1.0122
  572MOL0     O75407   5.756   9.822   1.408  0.1166  0.4193 -0.7652
  572MOL0     C75408   5.692   9.938   1.365 -0.0419 -0.1309 -0.7468
  572MOL0     C75409   5.616   9.993   1.500 -0.6309  0.0482  0.3157
  572MOL0     C75410   5.557  10.135   1.481  0.1487 -0.2873 -0.2654
  572MOL0     C75411   5.495  10.191   1.607 -0.2700  0.3469 -0.4061
  572MOL0     C75412   5.493  10.346   1.612  0.8711  1.1199 -0.1100
  572MOL0     C75413   5.403  10.418   1.518 -0.1559 -0.7766 -0.6589
  572MOL0     C75414   5.251  10.404   1.570  0.5129  0.6530 -0.6611
  572MOL0     C75415   5.164  10.501   1.503  0.8891  0.1754  0.0579
  572MOL0    Cl75416   4.986  10.483   1.555  0.2091  0.2016 -0.6208
  572MOL0     C75417   5.845   9.610   1.366  0.7945 -0.0260  1.3115
  572MOL0     C75418   5.883   9.507   1.282 -0.6507 -0.2157  0.8836
  572MOL0     O75419   5.684   9.319   1.059  0.0323 -0.3936 -0.4200
  572MOL0     C75420   5.768   9.116   0.892  0.2572  0.4046  1.0044
  572MOL0     C75421   5.816   9.016   0.806  1.4752  1.1805 -0.0597
  572MOL0     N75422   6.208   9.100   0.492 -0.1920 -0.1568 -0.1187
  572MOL0     N75423   6.200   9.209   0.555  0.5426 -0.1732  0.2689
  572MOL0     C75424   6.334  10.185   1.012  0.3069 -0.1288 -0.0568
  572MOL0     C75425   6.428  10.141   1.106  0.0459  1.2367 -0.1944
  572MOL0     C75426   6.649   9.939   1.458 -0.5243 -0.2134  0.1926
  572MOL0     C75427   6.590   9.945   1.585 -0.0496 -0.6717 -1.3334
  572MOL0     C75428   6.636   9.874   1.695 -0.9382  0.5858 -0.0953
  572MOL0     C75429   6.760   9.812   1.689 -0.0012  0.6043 -0.1058
  572MOL0     O75430   6.792   9.742   1.804 -0.2425  0.3964 -0.4099
  572MOL0     C75431   6.866   9.827   1.904  0.8052  0.0190  0.0472
  572MOL0     C75432   6.978   9.760   1.973 -0.3105 -0.8533  0.2551
  572MOL0     C75433   6.945   9.631   2.055 -0.1265 -0.6267 -0.0582
  572MOL0     C75434   7.056   9.574   2.133 -0.0630 -0.5263 -0.1773
  572MOL0     C75435   7.079   9.667   2.244 -1.1457  0.1719 -0.9458
  572MOL0     C75436   7.106   9.739   2.336 -0.1951 -0.2480 -0.6594
  572MOL0     C75437   6.830   9.822   1.568 -0.0388  1.3066 -0.2161
  572MOL0     C75438   6.782   9.891   1.459 -0.6779 -0.2526 -0.2941
  572MOL0     H75439   6.246  10.159   1.387 -3.8969  1.2725 -0.6729
  572MOL0     H75440   6.079  10.231   1.234 -1.3790 -0.7665 -2.0287
  572MOL0     H75441   6.176  10.209   0.798  0.2641  1.7173  0.8211
  572MOL0     H75442   6.002  10.212   0.793  0.6307  0.4776 -0.3125
  572MOL0     H75443   5.968  10.003   0.895 -0.4515  2.2652 -2.0177
  572MOL0     H75444   6.145   9.996   0.954 -0.4877 -3.2547  0.1290
  572MOL0     H75445   6.208   9.883   0.754  0.2296 -0.9035 -1.8791
  572MOL0     H75446   6.100   9.968   0.653 -2.0163 -0.2644 -0.6027
  572MOL0     H75447   6.004   9.756   0.861 -0.6969  1.2010  0.4722
  572MOL0     H75448   5.902   9.834   0.751  0.3709 -1.5876 -3.0939
  572MOL0     H75449   6.119   9.643   0.679 -1.0027  0.8087  3.3400
  572MOL0     H75450   6.054   9.753   0.559 -2.2513  1.5126  0.6316
  572MOL0     H75451   5.843   9.662   0.564  1.4549 -0.0340 -1.1129
  572MOL0     H75452   5.873   9.563   0.715 -2.0346  1.5754  0.4133
  572MOL0     H75453   5.851   9.433   0.507 -1.6361 -0.5893  1.7637
  572MOL0     H75454   6.013   9.495   0.463 -2.0864  0.2546 -0.1334
  572MOL0     H75455   5.933   9.327   0.707 -0.6422 -0.5416 -1.5687
  572MOL0     H75456   6.088   9.419   0.697 -0.2353  0.7134 -0.6378
  572MOL0     H75457   5.887   9.157   0.488  0.9590  1.4296 -1.5062
  572MOL0     H75458   6.147   8.917   0.298 -1.0622 -0.5784 -3.6328
  572MOL0     H75459   5.972   8.969   0.301  0.2711  1.6584 -0.0780
  572MOL0     H75460   6.034   8.729   0.375  1.6693  0.2097  0.1005
  572MOL0     H75461   5.928   8.826   0.473 -1.1082  1.7322 -3.4211
  572MOL0     H75462   6.069   8.670   0.590  1.0453 -0.3706  0.2272
  572MOL0     H75463   6.214   8.733   0.545 -0.6030 -1.5578  1.4306
  572MOL0     H75464   6.167   8.944   0.662 -1.1336 -0.1815 -0.1859
  572MOL0     H75465   6.181   8.802   0.762  3.7861  0.9131 -1.2586
  572MOL0     H75466   6.137   9.012   0.889  0.7570  2.4250  1.1289
  572MOL0     H75467   6.061   9.228   0.997  3.3834 -2.4095 -3.4899
  572MOL0     H75468   5.787   9.633   0.979 -0.2102  1.3224  0.9356
  572MOL0     H75469   5.731   9.815   1.119  3.7870  2.2602  1.0362
  572MOL0     H75470   5.615   9.929   1.288 -1.1270  1.0254  0.1675
  572MOL0     H75471   5.773  10.004   1.331  1.0508 -1.1865 -0.2734
  572MOL0     H75472   5.687   9.992   1.583  0.5077  2.9313 -0.4888
  572MOL0     H75473   5.539   9.921   1.527 -1.0286  0.8981  1.5380
  572MOL0     H75474   5.488  10.148   1.397 -0.6349  1.6140  0.6035
  572MOL0     H75475   5.636  10.205   1.453 -1.5027  1.9950  0.4392
  572MOL0     H75476   5.397  10.149   1.630 -0.8091  1.2073 -1.0776
  572MOL0     H75477   5.546  10.160   1.699  1.7753 -0.4183 -1.7217
  572MOL0     H75478   5.598  10.375   1.596  0.6736  2.7291  1.1652
  572MOL0     H75479   5.469  10.370   1.716  0.4315  1.7703 -0.3581
  572MOL0     H75480   5.412  10.377   1.417 -0.1085 -0.6613 -0.7018
  572MOL0     H75481   5.436  10.522   1.522  0.9451 -1.1530  1.9587
  572MOL0     H75482   5.213  10.307   1.537  0.6156 -0.4813  2.2399
  572MOL0     H75483   5.249  10.411   1.679  1.1603  1.4932 -0.6925
  572MOL0     H75484   5.166  10.493   1.394 -2.6525 -0.5696 -0.0746
  572MOL0     H75485   5.196  10.602   1.531 -0.0115  1.2401 -2.4633
  572MOL0     H75486   5.849   9.594   1.474 -0.0726  1.9096  1.6968
  572MOL0     H75487   5.942   9.421   1.313  0.6913 -0.3213 -1.7193
  572MOL0     H75488   5.663   9.145   0.894  0.5674  1.5899  0.7932
  572MOL0     H75489   5.763   8.956   0.732  1.2823  1.4076 -0.1094
  572MOL0     H75490   6.377  10.200   0.914 -0.0946  0.1262 -0.1970
  572MOL0     H75491   6.529  10.127   1.070 -0.2714  0.2187 -0.7215
  572MOL0     H75492   6.501  10.007   1.588 -1.6194 -2.7245 -2.3404
  572MOL0     H75493   6.568   9.878   1.779  1.8837 -2.1470  2.5269
  572MOL0     H75494   6.803   9.850   1.990 -2.1719  3.1256 -2.6446
  572MOL0     H75495   6.903   9.922   1.863  0.9134 -0.3346 -0.6988
  572MOL0     H75496   7.055   9.733   1.900  0.0004  0.9565 -0.1311
  572MOL0     H75497   7.027   9.835   2.035 -1.0679 -0.0421 -0.1045
  572MOL0     H75498   6.919   9.561   1.974  0.3650  1.7010 -2.3649
  572MOL0     H75499   6.858   9.639   2.120  0.1896 -3.1752  0.8032
  572MOL0     H75500   7.035   9.471   2.162  0.2136  0.2769  3.2767
  572MOL0     H75501   7.141   9.565   2.064 -2.7264 -3.6023 -3.4687
  572MOL0     H75502   7.136   9.801   2.418 -3.7916  0.4919  0.2684
  572MOL0     H75503   6.919   9.762   1.551 -1.0921 -0.6800  0.9536
  572MOL0     H75504   6.834   9.895   1.364  0.3627  1.6302  0.2922
  573MOL0     O75505   8.220   3.088   2.353 -0.0634 -0.1552  0.2376
  573MOL0     C75506   8.116   3.098   2.422 -0.4340  0.6125 -1.0004
  573MOL0     O75507   8.073   3.013   2.516  0.4208  0.7454  0.0185
  573MOL0     C75508   8.129   2.892   2.528  1.0239  0.1554 -0.7586
  573MOL0     C75509   8.270   2.876   2.535  0.7431 -0.3932 -0.1565
  573MOL0     C75510   8.316   2.742   2.541 -0.6980 -0.4550  0.4904
  573MOL0     C75511   8.235   2.631   2.561 -0.2433  0.2271 -0.5824
  573MOL0     O75512   8.275   2.507   2.598  0.3173  0.6106  0.6243
  573MOL0     C75513   8.424   2.495   2.620  0.6140  0.0343  0.2207
  573MOL0     C75514   8.430   2.351   2.654 -0.0178  0.5277 -0.2024
  573MOL0     C75515   8.579   2.293   2.665 -0.0497  1.0792 -0.5134
  573MOL0     C75516   8.672   2.376   2.760  0.2439 -0.9990 -0.0712
  573MOL0     C75517   8.798   2.297   2.786 -0.0331 -0.3143  0.4662
  573MOL0     C75518   8.892   2.365   2.882 -0.1266  0.6053 -0.5001
  573MOL0     C75519   9.006   2.276   2.933  0.1859 -0.7445 -0.3792
  573MOL0     C75520   9.095   2.231   2.809 -0.1526 -0.6373 -0.3047
  573MOL0     N75521   9.159   2.353   2.748 -0.0418  0.0563 -0.7891
  573MOL0     C75522   9.244   2.446   2.798 -0.1886 -0.0547 -0.1812
  573MOL0     C75523   9.231   2.550   2.710 -1.0303  0.5013 -0.8177
  573MOL0     C75524   9.285   2.681   2.705  0.0948 -0.6441  0.5222
  573MOL0     C75525   9.436   2.703   2.699  0.3411  0.1937  0.6074
  573MOL0     C75526   9.454   2.863   2.699  0.3818 -0.0013  0.0666
  573MOL0     C75527   9.601   2.883   2.680 -0.2404  0.3961  1.4315
  573MOL0     O75528   9.650   2.871   2.544 -0.1601 -0.4484 -0.2487
  573MOL0     C75529   9.705   2.990   2.500  0.0745  0.6590  0.1442
  573MOL0     C75530   9.654   3.024   2.370  0.6758 -0.4345  0.2703
  573MOL0     C75531   9.707   3.133   2.303  1.3542  0.1555 -0.4363
  573MOL0     C75532   9.792   3.223   2.360  1.3521 -0.2025 -0.1254
  573MOL0     C75533   9.819   3.348   2.292 -0.8026 -0.0210  0.2022
  573MOL0     O75534   9.766   3.377   2.173 -0.5654  0.6924  0.5471
  573MOL0     C75535   9.796   3.487   2.095  0.0607  0.4646 -0.6865
  573MOL0     C75536   9.838   3.612   2.159  0.2952  0.2981  0.6777
  573MOL0     C75537   9.883   3.711   2.084  0.7339 -0.6288  0.7083
  573MOL0     C75538   9.873   3.702   1.942 -0.0353  0.4037 -0.8502
  573MOL0     O75539   9.927   3.801   1.870 -0.5085 -0.3928  0.2070
  573MOL0     C75540   9.862   3.839   1.748 -0.0874  0.3158  0.2650
  573MOL0     C75541   9.938   3.970   1.683 -0.7235  0.5797 -0.4803
  573MOL0     C75542   9.912   4.101   1.765 -0.0668 -0.7287  0.1567
  573MOL0     C75543   9.960   4.212   1.660  0.1172  0.5070 -0.6702
  573MOL0     C75544   9.942   4.354   1.718  0.1115 -0.6545  0.8179
  573MOL0     C75545   9.999   4.457   1.622 -0.3164 -0.1356 -0.1179
  573MOL0     C75546   9.983   4.598   1.680 -0.7410  0.8061 -0.3045
  573MOL0     C75547  10.062   4.699   1.601  1.0702 -0.0817 -0.1703
  573MOL0    Cl75548   9.985   4.724   1.440 -0.3354 -0.1740  0.3665
  573MOL0     C75549   9.814   3.586   1.881 -0.0783 -0.4608  0.2111
  573MOL0     C75550   9.786   3.478   1.957  0.5201 -0.2951  1.0422
  573MOL0     O75551   9.900   3.422   2.357  0.3564  0.0459  0.4075
  573MOL0     C75552   9.834   3.183   2.490 -0.3659 -0.1043  0.5907
  573MOL0     C75553   9.799   3.062   2.559  0.3089 -0.5186  0.3294
  573MOL0     N75554   9.146   2.512   2.616  0.4732 -0.1404  0.7215
  573MOL0     N75555   9.115   2.397   2.627  0.1091 -0.2497 -0.5757
  573MOL0     C75556   8.096   2.648   2.545  0.1623  0.3294 -0.7435
  573MOL0     C75557   8.051   2.777   2.532  1.2645  0.6706  0.9977
  573MOL0     C75558   8.021   3.208   2.408  0.1955  0.7396  0.5965
  573MOL0     C75559   7.888   3.198   2.448  0.2816  0.3927  0.1407
  573MOL0     C75560   7.792   3.296   2.444 -0.6603 -0.7207 -0.4696
  573MOL0     C75561   7.841   3.424   2.404  0.5947  0.6678 -0.2196
  573MOL0     O75562   7.774   3.541   2.409 -0.7952 -0.9111 -0.1667
  573MOL0     C75563   7.638   3.552   2.454 -1.0383  0.6258 -1.0480
  573MOL0     C75564   7.588   3.691   2.487 -0.2980  0.2204  0.6295
  573MOL0     C75565   7.550   3.785   2.375 -0.8972 -0.1653 -0.4007
  573MOL0     C75566   7.666   3.862   2.296 -0.1004 -0.0542 -0.0628
  573MOL0     C75567   7.752   3.947   2.375  0.0429  0.2791 -1.8060
  573MOL0     C75568   7.836   4.008   2.444 -0.7000  0.0589  0.1438
  573MOL0     C75569   7.982   3.440   2.378  0.1821  0.9024  0.1449
  573MOL0     C75570   8.069   3.333   2.372 -0.5208 -0.9566 -0.3453
  573MOL0     H75571   8.339   2.959   2.534 -0.4516  0.6647 -2.6140
  573MOL0     H75572   8.423   2.724   2.542 -0.7154 -0.6208 -0.1443
  573MOL0     H75573   8.456   2.557   2.704 -0.2858  1.9163 -0.7643
  573MOL0     H75574   8.493   2.519   2.538  0.9148 -1.2791  0.0750
  573MOL0     H75575   8.393   2.298   2.566  0.1968 -1.7980  1.0020
  573MOL0     H75576   8.370   2.313   2.738  0.1181  1.4577  0.3264
  573MOL0     H75577   8.626   2.288   2.566  0.4641  2.7904 -0.3910
  573MOL0     H75578   8.570   2.188   2.693  0.6165  0.3725 -2.7005
  573MOL0     H75579   8.698   2.470   2.711 -3.0380  2.5249  4.2002
  573MOL0     H75580   8.637   2.393   2.862 -0.6644 -3.3174  0.0745
  573MOL0     H75581   8.854   2.285   2.692 -2.5214  0.1477 -1.1861
  573MOL0     H75582   8.769   2.205   2.836  2.2218 -0.8242  0.9551
  573MOL0     H75583   8.834   2.394   2.970 -0.8984 -0.1572 -0.7394
  573MOL0     H75584   8.931   2.455   2.833  1.5390  0.1749 -0.0260
  573MOL0     H75585   9.056   2.330   3.014 -0.6921 -2.0242  1.0701
  573MOL0     H75586   8.965   2.189   2.986  4.5755 -0.6538  3.8601
  573MOL0     H75587   9.034   2.181   2.732 -3.5194 -2.5611  3.2529
  573MOL0     H75588   9.176   2.163   2.837 -1.8907 -2.7392 -0.1419
  573MOL0     H75589   9.295   2.431   2.892  0.0211 -0.2553 -0.3254
  573MOL0     H75590   9.246   2.715   2.801  2.2194 -2.7476  2.2245
  573MOL0     H75591   9.242   2.717   2.611  0.5417 -2.9725 -0.6561
  573MOL0     H75592   9.476   2.663   2.605  0.3301 -1.0857  1.1282
  573MOL0     H75593   9.478   2.649   2.785 -1.5099 -1.0807  0.7622
  573MOL0     H75594   9.401   2.910   2.616  0.5815  1.4540  0.7359
  573MOL0     H75595   9.424   2.891   2.800  0.9212  2.1187 -0.3179
  573MOL0     H75596   9.665   2.819   2.741  1.0094 -0.9858 -1.1872
  573MOL0     H75597   9.622   2.982   2.722 -1.4973  1.3638 -0.0991
  573MOL0     H75598   9.572   2.957   2.348  1.1514 -0.7222 -0.7037
  573MOL0     H75599   9.664   3.153   2.206  1.1714  0.2216 -0.3414
  573MOL0     H75600   9.830   3.618   2.267 -0.8562  2.2321  0.5446
  573MOL0     H75601   9.921   3.796   2.138  1.9188  0.7647 -2.1311
  573MOL0     H75602   9.755   3.861   1.762  0.3360  1.0450  3.0642
  573MOL0     H75603   9.872   3.755   1.679  1.4514 -0.3929  1.2881
  573MOL0     H75604   9.914   3.972   1.577  0.6243  0.5919 -0.7946
  573MOL0     H75605  10.045   3.953   1.693 -0.2785  1.6986 -2.6479
  573MOL0     H75606   9.988   4.096   1.844  0.3899  2.2245 -0.0060
  573MOL0     H75607   9.810   4.118   1.802 -0.3903  0.3948 -1.1933
  573MOL0     H75608  10.067   4.202   1.642  0.6361  3.1384  0.5340
  573MOL0     H75609   9.897   4.204   1.571 -0.8233 -0.2845  0.0476
  573MOL0     H75610   9.981   4.375   1.818  0.1251  0.3735  0.6110
  573MOL0     H75611   9.837   4.380   1.735  0.5207  1.3566  0.5019
  573MOL0     H75612   9.956   4.459   1.521  0.4368  1.3776 -0.4379
  573MOL0     H75613  10.107   4.440   1.614  0.4014  1.0873  4.2068
  573MOL0     H75614   9.878   4.630   1.680 -1.1022 -0.2881  0.3008
  573MOL0     H75615  10.034   4.598   1.777 -3.0278  0.9818  0.9716
  573MOL0     H75616  10.165   4.673   1.575  2.0070  2.9210  0.1066
  573MOL0     H75617  10.055   4.796   1.651  0.7569  0.0274 -0.4255
  573MOL0     H75618   9.834   3.571   1.775 -0.7325  0.8456 -0.1314
  573MOL0     H75619   9.761   3.378   1.923 -1.7471  1.1559 -2.1591
  573MOL0     H75620   9.890   3.264   2.537  0.1567  1.2507 -2.2012
  573MOL0     H75621   9.851   3.039   2.652  2.2321  0.4365 -0.4381
  573MOL0     H75622   8.017   2.573   2.554 -0.7935  1.3705 -0.2852
  573MOL0     H75623   7.945   2.787   2.511  0.6063  0.3904  3.7648
  573MOL0     H75624   7.853   3.105   2.492  1.8233  0.7533  2.2795
  573MOL0     H75625   7.687   3.268   2.453 -0.2184 -1.9458  1.2768
  573MOL0     H75626   7.630   3.476   2.532  1.3952 -1.4569 -2.6925
  573MOL0     H75627   7.571   3.530   2.371 -1.9976  0.8630 -0.3610
  573MOL0     H75628   7.495   3.670   2.541 -1.3807  1.3748 -0.6935
  573MOL0     H75629   7.662   3.740   2.551  2.7691 -0.9479 -1.7778
  573MOL0     H75630   7.494   3.863   2.426  0.4484 -0.0564  0.9778
  573MOL0     H75631   7.487   3.738   2.299 -1.1037  0.1385 -0.4207
  573MOL0     H75632   7.725   3.790   2.240  0.4419  0.5693 -0.3044
  573MOL0     H75633   7.616   3.924   2.222  0.4015  0.5440  0.0852
  573MOL0     H75634   7.923   4.045   2.496  2.6282 -0.4971 -4.4342
  573MOL0     H75635   8.011   3.545   2.372  0.5993  0.8474  1.0472
  573MOL0     H75636   8.172   3.328   2.338 -0.5762 -1.4164 -0.4635
  574MOL0     O75637   3.750   8.474   0.912 -0.4732 -0.2909 -0.3062
  574MOL0     C75638   3.831   8.390   0.896 -0.2856  0.6570  0.3447
  574MOL0     O75639   3.872   8.295   0.987 -0.2622 -0.1153  0.0203
  574MOL0     C75640   3.809   8.286   1.112 -0.9856  0.0705  0.3052
  574MOL0     C75641   3.690   8.340   1.155 -1.0897 -1.0805  0.2602
  574MOL0     C75642   3.637   8.315   1.282 -0.3774 -0.7314  0.8163
  574MOL0     C75643   3.703   8.238   1.377  0.0006  0.4310 -0.0855
  574MOL0     O75644   3.636   8.221   1.501 -0.5023 -0.6426  0.2317
  574MOL0     C75645   3.698   8.144   1.608 -0.0656  0.1064 -0.3860
  574MOL0     C75646   3.593   8.100   1.716 -0.8640  0.9453  0.3939
  574MOL0     C75647   3.578   8.198   1.835  0.3497 -0.3924  0.6340
  574MOL0     C75648   3.464   8.163   1.939  0.4642 -0.3050  0.5967
  574MOL0     C75649   3.504   8.214   2.078  0.1020 -0.1935 -0.3842
  574MOL0     C75650   3.531   8.369   2.092  0.1677  0.1677  0.9190
  574MOL0     C75651   3.544   8.403   2.237  0.4981  0.6120  0.0928
  574MOL0     C75652   3.661   8.489   2.275 -0.4344  0.5085  0.0573
  574MOL0     N75653   3.791   8.418   2.289  0.1445  0.8256 -1.3183
  574MOL0     C75654   3.869   8.441   2.396  0.6413  0.0528 -0.5955
  574MOL0     C75655   3.980   8.368   2.374 -0.1919 -0.1742  0.7682
  574MOL0     C75656   4.097   8.349   2.464 -0.3165  0.3473  0.4091
  574MOL0     C75657   4.207   8.435   2.416 -0.3798 -0.0235  0.3430
  574MOL0     C75658   4.333   8.422   2.505 -0.3959  0.0251  0.4601
  574MOL0     C75659   4.406   8.290   2.495 -0.0995  0.5922  0.5820
  574MOL0     O75660   4.498   8.295   2.605 -0.5733 -0.4398 -0.6201
  574MOL0     C75661   4.582   8.186   2.626 -0.1968  0.1716  1.2057
  574MOL0     C75662   4.574   8.056   2.567  0.3940 -0.3226 -0.3673
  574MOL0     C75663   4.679   7.957   2.583 -0.5055 -1.4105 -0.6494
  574MOL0     C75664   4.786   7.997   2.666 -0.4921 -0.2990  0.3485
  574MOL0     C75665   4.899   7.902   2.665 -0.3092  0.4185 -0.1251
  574MOL0     O75666   5.023   7.961   2.675 -0.3219  0.5271  0.6646
  574MOL0     C75667   5.128   7.875   2.684 -0.0155 -0.0842  0.3564
  574MOL0     C75668   5.158   7.796   2.573  0.1862  0.6132  0.5344
  574MOL0     C75669   5.263   7.698   2.588  0.1080  0.1931  0.6255
  574MOL0     C75670   5.330   7.691   2.712  0.5012  0.6247  0.0033
  574MOL0     O75671   5.429   7.593   2.730 -0.4559 -0.2072  0.6887
  574MOL0     C75672   5.514   7.581   2.845 -0.2372  0.2760  0.0322
  574MOL0     C75673   5.580   7.448   2.846 -0.5355  0.3552 -0.7314
  574MOL0     C75674   5.685   7.428   2.738 -0.9346  0.6453  0.2041
  574MOL0     C75675   5.747   7.292   2.751  0.2596  0.2351  0.4911
  574MOL0     C75676   5.833   7.279   2.877 -0.4038  0.7067 -0.3366
  574MOL0     C75677   5.914   7.145   2.860  0.9985 -0.0540 -0.0341
  574MOL0     C75678   5.958   7.078   2.991  0.4706 -0.6458  0.3162
  574MOL0     C75679   6.019   7.170   3.097  0.6075 -0.0486 -0.5405
  574MOL0    Cl75680   6.056   7.068   3.225  0.0472 -0.0458 -0.1049
  574MOL0     C75681   5.303   7.771   2.815  0.7634 -0.3701 -0.2625
  574MOL0     C75682   5.202   7.866   2.806  0.3962 -0.5100 -0.3048
  574MOL0     O75683   4.871   7.780   2.658 -0.6194 -0.8691  0.6280
  574MOL0     C75684   4.792   8.120   2.735  0.7628 -0.1116 -0.3187
  574MOL0     C75685   4.692   8.219   2.704 -0.0233  0.2987 -1.2271
  574MOL0     N75686   3.968   8.306   2.262  0.5609  0.0233 -0.2748
  574MOL0     N75687   3.852   8.329   2.207  0.5351 -0.1544 -0.1575
  574MOL0     C75688   3.828   8.194   1.340 -0.0136  0.8252  0.4752
  574MOL0     C75689   3.882   8.223   1.211  0.0505  0.4336 -0.4188
  574MOL0     C75690   3.888   8.379   0.753 -0.0004  0.0450  1.2919
  574MOL0     C75691   4.018   8.325   0.744 -0.8061 -0.7968  0.2181
  574MOL0     C75692   4.060   8.295   0.611 -0.9185 -0.1829  1.3656
  574MOL0     C75693   3.987   8.319   0.496  0.6290 -0.3071 -0.3629
  574MOL0     O75694   4.039   8.281   0.375  0.1629  0.0436  0.5943
  574MOL0     C75695   3.958   8.290   0.255 -0.0621 -0.7881  0.0932
  574MOL0     C75696   3.983   8.416   0.186  0.7623 -0.7520  0.6494
  574MOL0     C75697   4.125   8.430   0.132  0.2060  0.3784  0.0274
  574MOL0     C75698   4.165   8.572   0.094 -0.6564  0.7289  0.0522
  574MOL0     C75699   4.280   8.588   0.010 -0.3854  0.7076  0.1431
  574MOL0     C75700   4.361   8.594  -0.074 -0.5859 -0.1194  0.4131
  574MOL0     C75701   3.855   8.369   0.515  0.9868 -0.7758 -0.3816
  574MOL0     C75702   3.807   8.394   0.641 -0.2490  0.4289 -0.7545
  574MOL0     H75703   3.628   8.401   1.090 -4.5392 -0.9309  3.3500
  574MOL0     H75704   3.537   8.354   1.302  0.0384  1.0644 -0.3910
  574MOL0     H75705   3.780   8.209   1.642  0.4612 -0.6024 -0.2605
  574MOL0     H75706   3.747   8.048   1.587 -1.7741 -0.5470 -1.5390
  574MOL0     H75707   3.642   8.009   1.753  1.0273  1.5987 -0.3886
  574MOL0     H75708   3.498   8.082   1.665 -0.6235  0.3890  0.1313
  574MOL0     H75709   3.543   8.297   1.805 -5.0897 -0.9386  3.9292
  574MOL0     H75710   3.672   8.218   1.887  2.8164 -2.1465 -2.7291
  574MOL0     H75711   3.369   8.207   1.907  0.7639  0.2708  0.4874
  574MOL0     H75712   3.463   8.054   1.950  3.5206 -0.2602  2.4920
  574MOL0     H75713   3.589   8.156   2.114 -0.0474 -0.7615 -0.9414
  574MOL0     H75714   3.423   8.182   2.144 -0.0837  0.8088 -0.1115
  574MOL0     H75715   3.455   8.435   2.050  0.5232  0.4657  0.7399
  574MOL0     H75716   3.620   8.379   2.030 -0.3303 -2.9352 -0.5264
  574MOL0     H75717   3.450   8.449   2.267 -0.5278 -1.0938 -0.3481
  574MOL0     H75718   3.549   8.312   2.298  1.4130  0.5425 -0.0691
  574MOL0     H75719   3.632   8.535   2.369 -0.9246 -1.2625  0.8208
  574MOL0     H75720   3.672   8.572   2.204  0.3882  1.5926  1.4225
  574MOL0     H75721   3.842   8.495   2.486 -3.6129 -1.3047 -0.8625
  574MOL0     H75722   4.124   8.243   2.469 -3.3737 -0.5546  0.1548
  574MOL0     H75723   4.066   8.369   2.567  2.2697  0.9624  1.1334
  574MOL0     H75724   4.170   8.537   2.425  1.1754  0.4773  1.6038
  574MOL0     H75725   4.229   8.417   2.310  2.5152  0.6485  0.7382
  574MOL0     H75726   4.400   8.508   2.498  0.8256 -0.9610 -0.3867
  574MOL0     H75727   4.314   8.434   2.612  0.3063 -0.8501  0.6978
  574MOL0     H75728   4.451   8.277   2.396 -3.3745  2.1306 -1.2637
  574MOL0     H75729   4.340   8.205   2.516  0.7947  0.1947  1.9440
  574MOL0     H75730   4.483   8.022   2.517 -0.2362  1.0850 -0.2300
  574MOL0     H75731   4.664   7.865   2.527  2.3494 -1.5354 -1.3508
  574MOL0     H75732   5.109   7.799   2.476  2.4976 -2.6240 -0.9198
  574MOL0     H75733   5.300   7.638   2.506 -2.3471  0.3182 -0.6761
  574MOL0     H75734   5.461   7.578   2.941  1.5229 -0.6358  1.0274
  574MOL0     H75735   5.591   7.659   2.842  2.6111 -2.3710 -0.1302
  574MOL0     H75736   5.503   7.371   2.832  1.1062 -1.8518  1.4412
  574MOL0     H75737   5.604   7.417   2.948 -1.2522 -0.3055 -0.7527
  574MOL0     H75738   5.762   7.506   2.738 -0.1593 -0.0223  2.7724
  574MOL0     H75739   5.638   7.444   2.641  2.2625  3.9385 -1.0500
  574MOL0     H75740   5.661   7.225   2.751 -0.1600  0.7469  1.5277
  574MOL0     H75741   5.815   7.280   2.666 -0.9116  0.6568 -0.5420
  574MOL0     H75742   5.780   7.281   2.972 -0.9774 -2.0054 -0.5390
  574MOL0     H75743   5.911   7.356   2.880  1.0406 -0.7163 -0.4513
  574MOL0     H75744   5.996   7.159   2.789 -0.2475  1.1450 -1.2896
  574MOL0     H75745   5.848   7.070   2.816 -0.9195  0.5448  1.6626
  574MOL0     H75746   5.866   7.036   3.034 -2.0396  3.7299 -0.1185
  574MOL0     H75747   6.029   7.004   2.955 -0.3222 -0.0477 -2.8753
  574MOL0     H75748   5.941   7.245   3.114  0.9185  0.3248 -0.7440
  574MOL0     H75749   6.104   7.219   3.048  2.3260 -1.6120  0.7095
  574MOL0     H75750   5.354   7.777   2.910 -0.2316  1.4236  0.2043
  574MOL0     H75751   5.174   7.920   2.896 -1.0028 -1.3710 -0.2014
  574MOL0     H75752   4.885   8.145   2.785  1.5978 -2.4679 -0.5888
  574MOL0     H75753   4.699   8.315   2.753 -2.8321  0.8394 -1.7168
  574MOL0     H75754   3.891   8.137   1.407  1.7877  1.1705 -0.8619
  574MOL0     H75755   3.975   8.186   1.169 -1.0171 -1.8454 -0.9344
  574MOL0     H75756   4.094   8.300   0.818  1.3588 -0.3663 -1.7110
  574MOL0     H75757   4.154   8.247   0.586 -2.0850 -1.8906 -0.0072
  574MOL0     H75758   3.850   8.278   0.271 -0.7550  2.8792 -1.0169
  574MOL0     H75759   3.979   8.212   0.181  2.2072  2.6580 -3.2832
  574MOL0     H75760   3.904   8.424   0.111  1.8632 -0.6958 -0.5372
  574MOL0     H75761   3.964   8.502   0.252 -1.8966 -0.6466 -0.1394
  574MOL0     H75762   4.134   8.362   0.047 -0.4183  0.5522 -0.1837
  574MOL0     H75763   4.186   8.410   0.221 -0.8067  1.9903  1.1437
  574MOL0     H75764   4.084   8.622   0.041 -2.0620  1.3548  2.6291
  574MOL0     H75765   4.175   8.633   0.184 -2.2342  2.7973 -1.0835
  574MOL0     H75766   4.443   8.589  -0.143 -0.5415  3.7947 -0.0374
  574MOL0     H75767   3.776   8.376   0.440  0.9956 -1.1564 -0.4314
  574MOL0     H75768   3.704   8.412   0.671  0.9327 -0.5657  5.0367
  575MOL0     O75769  10.539   9.691   2.273  0.4657  0.3296  0.3684
  575MOL0     C75770  10.482   9.589   2.296  0.0704  0.5563  0.0189
  575MOL0     O75771  10.374   9.543   2.221  0.5188  0.6511  0.3718
  575MOL0     C75772  10.337   9.609   2.110  0.2621  0.4899 -0.8261
  575MOL0     C75773  10.315   9.543   1.986 -0.8902  0.3221  0.1036
  575MOL0     C75774  10.273   9.600   1.874  0.3531  0.1341  1.0179
  575MOL0     C75775  10.241   9.737   1.868 -1.4242  0.7419  0.7114
  575MOL0     O75776  10.197   9.801   1.755 -0.0012  0.0550  0.3242
  575MOL0     C75777  10.158   9.938   1.750 -0.0134  0.4766 -0.1636
  575MOL0     C75778  10.097   9.967   1.616  0.8754 -0.0609 -0.0554
  575MOL0     C75779   9.954   9.930   1.580 -0.9424  0.0992 -0.5267
  575MOL0     C75780   9.849  10.035   1.607 -0.4727  0.5107  0.7781
  575MOL0     C75781   9.713   9.997   1.559 -0.0277 -0.7019 -0.3610
  575MOL0     C75782   9.631   9.923   1.662 -0.1895  0.5191 -0.2644
  575MOL0     C75783   9.506   9.871   1.607  0.6513  0.3281 -0.5114
  575MOL0     C75784   9.449   9.777   1.711  0.4389  0.6870  0.4657
  575MOL0     N75785   9.314   9.735   1.693 -0.2817  0.1334  0.4719
  575MOL0     C75786   9.271   9.630   1.613 -0.6929 -0.7382 -0.3574
  575MOL0     C75787   9.141   9.617   1.638  0.9203  0.5947 -0.0422
  575MOL0     C75788   9.059   9.515   1.572  0.4544  0.8869  0.8965
  575MOL0     C75789   8.926   9.486   1.628  0.1611  0.5649 -0.2475
  575MOL0     C75790   8.913   9.446   1.779 -0.1905 -1.2707 -0.0817
  575MOL0     C75791   8.998   9.323   1.811 -0.1313 -0.3196 -0.2642
  575MOL0     O75792   9.001   9.288   1.948 -0.9038 -0.0266 -0.4773
  575MOL0     C75793   8.903   9.196   1.988 -0.8555 -0.6078  0.4270
  575MOL0     C75794   8.927   9.113   2.093 -0.7120  0.0818  0.3382
  575MOL0     C75795   8.836   9.010   2.129  0.7559  0.8726 -0.3146
  575MOL0     C75796   8.726   8.980   2.049  0.5837 -0.4868  0.0138
  575MOL0     C75797   8.621   8.871   2.079 -0.1503 -0.5027 -0.3660
  575MOL0     O75798   8.499   8.893   2.019 -1.3525  0.2170 -0.0575
  575MOL0     C75799   8.401   8.813   2.054 -0.1404  0.0301 -0.4941
  575MOL0     C75800   8.343   8.832   2.179 -0.5803  0.0341 -0.2146
  575MOL0     C75801   8.260   8.739   2.231 -0.3818 -0.4212  0.1259
  575MOL0     C75802   8.205   8.640   2.158 -0.6244 -1.4208  0.9165
  575MOL0     O75803   8.120   8.565   2.234  0.5713  0.7439 -0.8963
  575MOL0     C75804   8.070   8.445   2.177 -0.6250  0.0651  0.0651
  575MOL0     C75805   7.953   8.397   2.255 -1.0180 -0.3267 -0.0558
  575MOL0     C75806   8.000   8.331   2.386  0.4409 -0.1438  0.3628
  575MOL0     C75807   7.895   8.246   2.457  0.2341 -0.0055  0.8648
  575MOL0     C75808   7.956   8.203   2.592 -0.1404  0.7912  0.1083
  575MOL0     C75809   7.988   8.312   2.694 -0.9005 -0.1426 -0.4043
  575MOL0     C75810   7.860   8.401   2.743 -0.6949  0.8500 -0.2190
  575MOL0     C75811   7.900   8.522   2.824 -0.9566  0.1754  0.0103
  575MOL0    Cl75812   7.976   8.637   2.715 -0.6107  0.0264 -0.0424
  575MOL0     C75813   8.267   8.609   2.035  0.4163  0.0861  0.7226
  575MOL0     C75814   8.364   8.698   1.990  0.4489  0.0573 -0.3409
  575MOL0     O75815   8.654   8.781   2.156  0.0647 -0.3148  0.4016
  575MOL0     C75816   8.709   9.065   1.944 -0.1999  0.3378 -0.8827
  575MOL0     C75817   8.787   9.166   1.913 -0.8554 -0.2256 -0.6039
  575MOL0     N75818   9.099   9.717   1.726 -0.6327  0.2218  0.0841
  575MOL0     N75819   9.206   9.780   1.767 -0.6723  0.5974 -1.2256
  575MOL0     C75820  10.264   9.809   1.989  1.0233  0.3381 -0.5247
  575MOL0     C75821  10.307   9.747   2.105  0.1235 -0.4711 -0.4827
  575MOL0     C75822  10.517   9.525   2.419  0.2258  0.3943  0.8021
  575MOL0     C75823  10.580   9.592   2.520  0.3275 -0.4547 -1.0134
  575MOL0     C75824  10.613   9.531   2.637 -0.3722 -0.2015  0.0882
  575MOL0     C75825  10.582   9.397   2.663 -1.0414 -0.3372 -1.2139
  575MOL0     O75826  10.636   9.331   2.771 -0.0950  0.7984  0.5390
  575MOL0     C75827  10.581   9.196   2.808  0.0864 -0.3740  0.8004
  575MOL0     C75828  10.641   9.173   2.936  0.2529  1.0116 -0.6835
  575MOL0     C75829  10.768   9.084   2.922 -0.7355  0.1778  0.6964
  575MOL0     C75830  10.900   9.162   2.946 -1.1769  0.7621 -0.5428
  575MOL0     C75831  10.917   9.195   3.088  0.1376  0.4945 -0.0218
  575MOL0     C75832  10.935   9.213   3.207  0.3994 -0.4236 -0.2098
  575MOL0     C75833  10.502   9.336   2.573 -0.2405  0.0127 -0.0334
  575MOL0     C75834  10.474   9.399   2.445  1.1731  0.8520 -0.6992
  575MOL0     H75835  10.347   9.442   1.962 -1.4970 -0.9390  3.9183
  575MOL0     H75836  10.259   9.530   1.793  1.5942  1.7201 -0.6487
  575MOL0     H75837  10.255   9.989   1.751 -0.8138  2.2077 -2.3885
  575MOL0     H75838  10.083   9.966   1.824  0.3298 -0.9770  0.7768
  575MOL0     H75839  10.159   9.933   1.533 -2.1583 -1.5537 -1.9280
  575MOL0     H75840  10.108  10.076   1.617  2.6275 -0.1934 -1.0184
  575MOL0     H75841   9.920   9.840   1.632 -3.2495 -0.7896 -3.2999
  575MOL0     H75842   9.956   9.889   1.478  0.5926 -2.7893  0.5387
  575MOL0     H75843   9.850  10.060   1.714 -0.4078  2.4177  0.3623
  575MOL0     H75844   9.879  10.131   1.564 -0.7728  2.1881  3.9698
  575MOL0     H75845   9.712   9.946   1.462 -3.6803  1.7644 -1.8286
  575MOL0     H75846   9.650  10.085   1.544  1.1733 -0.4325 -6.2491
  575MOL0     H75847   9.606   9.981   1.751  0.6684 -2.4613  2.0937
  575MOL0     H75848   9.690   9.843   1.706  0.6530  2.3064  2.0580
  575MOL0     H75849   9.439   9.954   1.581 -0.3408 -0.3811 -0.2345
  575MOL0     H75850   9.519   9.818   1.512 -2.6539 -0.1844 -0.7850
  575MOL0     H75851   9.453   9.825   1.809  1.4682  3.4156 -0.8019
  575MOL0     H75852   9.519   9.694   1.723  0.9435  0.9080 -0.7500
  575MOL0     H75853   9.333   9.566   1.550  0.8010 -3.2751  3.3572
  575MOL0     H75854   9.114   9.420   1.567 -2.5109 -0.8874 -2.0726
  575MOL0     H75855   9.028   9.554   1.475 -0.0460  0.5475  0.9165
  575MOL0     H75856   8.879   9.409   1.566 -0.1465  0.5211  0.0359
  575MOL0     H75857   8.862   9.573   1.611 -2.3731 -1.2985 -0.8341
  575MOL0     H75858   8.946   9.527   1.845 -0.8287 -1.6209  0.6840
  575MOL0     H75859   8.806   9.427   1.784 -0.6083  0.9354  0.6489
  575MOL0     H75860   9.102   9.335   1.780 -0.4453  0.1100 -1.2055
  575MOL0     H75861   8.965   9.242   1.745  0.7785 -0.9743  0.0797
  575MOL0     H75862   9.017   9.136   2.150 -0.2634 -1.0266  0.1132
  575MOL0     H75863   8.858   8.946   2.213 -0.8769  1.6979  0.7865
  575MOL0     H75864   8.383   8.918   2.232  0.1094  0.8596 -1.9911
  575MOL0     H75865   8.226   8.739   2.334  0.8452  0.9732  0.5642
  575MOL0     H75866   8.142   8.369   2.148 -0.8774  0.4749 -1.7051
  575MOL0     H75867   8.034   8.473   2.078 -2.1638  0.5915  0.7417
  575MOL0     H75868   7.903   8.322   2.194 -1.2260 -0.2925  0.0705
  575MOL0     H75869   7.884   8.481   2.272 -1.3121 -0.4378 -0.6648
  575MOL0     H75870   8.028   8.416   2.448  1.2585  1.0205 -1.5101
  575MOL0     H75871   8.094   8.274   2.378 -0.5145 -1.9301  1.3657
  575MOL0     H75872   7.801   8.301   2.467  0.7001  1.4674 -1.8849
  575MOL0     H75873   7.874   8.149   2.413 -0.7178 -0.5984  2.5047
  575MOL0     H75874   8.037   8.134   2.568 -1.9994 -0.2883 -4.0405
  575MOL0     H75875   7.879   8.141   2.638  1.0804 -0.5074  0.4771
  575MOL0     H75876   8.071   8.373   2.656  0.2851  3.4464  6.4777
  575MOL0     H75877   8.032   8.254   2.776  1.3574 -1.8708 -2.6566
  575MOL0     H75878   7.801   8.439   2.660 -3.3456 -0.3036  0.9909
  575MOL0     H75879   7.801   8.334   2.807 -0.0355  1.7356  1.3846
  575MOL0     H75880   7.966   8.504   2.909 -0.4205 -2.6799 -0.8938
  575MOL0     H75881   7.810   8.575   2.859 -1.8662 -0.8851 -0.6568
  575MOL0     H75882   8.247   8.523   1.972  1.6313 -0.8079  1.5016
  575MOL0     H75883   8.407   8.685   1.891  0.6842  1.2709 -0.4162
  575MOL0     H75884   8.625   9.057   1.875 -1.2885  2.1291  0.1465
  575MOL0     H75885   8.753   9.213   1.821  2.6345  0.6988 -1.5647
  575MOL0     H75886  10.237   9.914   1.987 -1.6912 -0.2489  0.8241
  575MOL0     H75887  10.337   9.821   2.179  1.2410  1.9299 -3.1532
  575MOL0     H75888  10.600   9.698   2.515 -1.4176  0.1931  2.4337
  575MOL0     H75889  10.677   9.577   2.711  0.8848 -1.6258 -0.0679
  575MOL0     H75890  10.588   9.119   2.730 -0.4981 -1.7285  2.0303
  575MOL0     H75891  10.476   9.216   2.830  0.0692  0.8600 -0.3109
  575MOL0     H75892  10.654   9.259   3.003 -1.8968  0.1066  0.9915
  575MOL0     H75893  10.578   9.103   2.991  0.7040  2.4229  1.7351
  575MOL0     H75894  10.774   9.034   2.825  0.5183  3.2684 -0.9436
  575MOL0     H75895  10.778   9.003   2.995  0.1770 -1.5148 -1.2210
  575MOL0     H75896  10.996   9.116   2.919  0.0306  2.4200  0.6628
  575MOL0     H75897  10.896   9.258   2.895  2.7376  2.0867  1.2514
  575MOL0     H75898  10.943   9.231   3.312  0.1108 -2.5208  0.2071
  575MOL0     H75899  10.458   9.237   2.574 -1.4505  0.5380  0.6375
  575MOL0     H75900  10.405   9.347   2.380  0.5901  1.0209 -0.2266
  576MOL0     O75901   8.201   5.501   8.063 -0.3571  0.3773 -0.5063
  576MOL0     C75902   8.211   5.381   8.035 -0.1152 -0.4943 -0.4479
  576MOL0     O75903   8.105   5.291   8.039 -0.1431 -0.2454 -0.8071
  576MOL0     C75904   7.983   5.330   8.085  0.1644 -0.1315  0.4982
  576MOL0     C75905   7.883   5.417   8.034 -0.9819 -0.2597  0.2415
  576MOL0     C75906   7.753   5.433   8.093  0.5695  0.0221  1.4130
  576MOL0     C75907   7.729   5.366   8.209  1.1455  0.2826  0.6040
  576MOL0     O75908   7.614   5.384   8.284  0.0447 -0.8990  0.1904
  576MOL0     C75909   7.505   5.472   8.233 -0.1864  0.3620 -0.3732
  576MOL0     C75910   7.391   5.488   8.333  0.3439  0.4857  0.1477
  576MOL0     C75911   7.453   5.493   8.475  1.0000  0.3681  0.6315
  576MOL0     C75912   7.370   5.560   8.584  0.9143 -0.1373 -0.6373
  576MOL0     C75913   7.253   5.475   8.620  0.4656  1.3403  0.1979
  576MOL0     C75914   7.179   5.532   8.735 -0.6936  0.2719  0.1177
  576MOL0     C75915   7.052   5.453   8.769 -0.6328 -0.3800  0.0697
  576MOL0     C75916   6.932   5.479   8.676  0.0240 -0.1230  0.0974
  576MOL0     N75917   6.801   5.419   8.719 -0.1456 -0.6641 -0.0797
  576MOL0     C75918   6.707   5.482   8.792  0.0412 -0.6005 -1.3031
  576MOL0     C75919   6.602   5.394   8.806  0.7427 -0.3804 -0.4499
  576MOL0     C75920   6.467   5.432   8.858 -0.0017 -0.7807  0.7606
  576MOL0     C75921   6.363   5.476   8.758  0.4294  0.0123 -0.7452
  576MOL0     C75922   6.232   5.511   8.835 -0.9805  0.7502  0.1258
  576MOL0     C75923   6.113   5.560   8.756 -0.0659 -0.6918  0.2840
  576MOL0     O75924   6.095   5.493   8.634 -0.0055  0.2720  0.2434
  576MOL0     C75925   6.073   5.569   8.524 -0.6740 -0.0585  0.4331
  576MOL0     C75926   5.980   5.673   8.514 -0.0107 -0.3885 -0.0915
  576MOL0     C75927   5.973   5.752   8.400 -0.2269  1.3721  0.5956
  576MOL0     C75928   6.044   5.716   8.277 -0.0448  0.2358 -0.3540
  576MOL0     C75929   6.039   5.794   8.148 -0.3837 -0.3467 -0.7899
  576MOL0     O75930   5.949   5.898   8.144  0.3094  0.1208 -0.1620
  576MOL0     C75931   5.978   5.984   8.047 -0.5368 -1.7990 -0.6224
  576MOL0     C75932   5.927   5.981   7.908  0.6928  1.1579 -0.2143
  576MOL0     C75933   5.981   6.041   7.797  0.0093  1.1128 -0.0274
  576MOL0     C75934   6.095   6.119   7.822  0.1038 -0.1091  1.0625
  576MOL0     O75935   6.170   6.164   7.717  0.5513 -0.4648  0.5213
  576MOL0     C75936   6.230   6.064   7.646 -0.0685  1.0172 -0.7458
  576MOL0     C75937   6.352   6.109   7.558  0.9916 -0.5234  0.6705
  576MOL0     C75938   6.311   6.205   7.449  1.0313 -0.0951  0.0645
  576MOL0     C75939   6.432   6.201   7.354 -0.8510  0.2335  0.0486
  576MOL0     C75940   6.451   6.072   7.272 -0.6007 -0.5942  0.4562
  576MOL0     C75941   6.325   6.034   7.188 -0.0501  0.5811 -0.6635
  576MOL0     C75942   6.362   5.923   7.079  0.0094  0.1104 -0.1788
  576MOL0     C75943   6.235   5.849   7.032 -0.3779 -0.8744  0.1532
  576MOL0    Cl75944   6.283   5.779   6.867 -0.4467 -0.0122  0.1337
  576MOL0     C75945   6.140   6.139   7.953 -1.3615 -0.8115  1.0955
  576MOL0     C75946   6.095   6.073   8.068  0.2196 -0.3296  0.2243
  576MOL0     O75947   6.119   5.760   8.056  0.0001 -0.3986 -0.4752
  576MOL0     C75948   6.120   5.594   8.284  0.3347  0.0185 -0.2393
  576MOL0     C75949   6.143   5.528   8.404  0.7844  0.3159  0.1396
  576MOL0     N75950   6.646   5.272   8.764  0.4888 -0.3852  0.7105
  576MOL0     N75951   6.765   5.286   8.712  0.6980  0.5161  0.2858
  576MOL0     C75952   7.818   5.274   8.257  0.4415 -0.4852 -0.1956
  576MOL0     C75953   7.945   5.253   8.197 -0.1616 -0.3405  1.3297
  576MOL0     C75954   8.343   5.341   7.987  0.4433  0.8859  0.2609
  576MOL0     C75955   8.355   5.202   7.958  0.2876  0.3944 -0.2153
  576MOL0     C75956   8.478   5.156   7.912 -0.7730  0.0193 -0.6559
  576MOL0     C75957   8.594   5.239   7.904 -0.4793 -0.2080  0.2876
  576MOL0     O75958   8.714   5.208   7.851  1.0376  0.1445 -0.1622
  576MOL0     C75959   8.716   5.084   7.773  0.1503 -0.0345 -0.2384
  576MOL0     C75960   8.850   5.086   7.697  0.3989  0.4365  0.1264
  576MOL0     C75961   8.885   4.953   7.647  0.3860 -0.0241 -0.0495
  576MOL0     C75962   9.008   4.969   7.559  0.8884 -0.2099  0.4991
  576MOL0     C75963   9.058   4.841   7.527  0.1935 -0.2655  0.0228
  576MOL0     C75964   9.089   4.735   7.486 -0.1098  0.6902  0.1240
  576MOL0     C75965   8.584   5.375   7.941 -0.9573  0.6207  0.7950
  576MOL0     C75966   8.457   5.425   7.977  0.2821  0.1564  0.2047
  576MOL0     H75967   7.913   5.479   7.950  1.9567  2.5429  3.0631
  576MOL0     H75968   7.677   5.498   8.050  0.6719 -0.8400 -0.1518
  576MOL0     H75969   7.480   5.422   8.139 -1.2904  0.7065 -0.2742
  576MOL0     H75970   7.547   5.572   8.218  2.3705 -0.8926 -2.1838
  576MOL0     H75971   7.321   5.403   8.331  0.3811  0.4510  0.3102
  576MOL0     H75972   7.351   5.585   8.301  2.4812  1.6208  0.7835
  576MOL0     H75973   7.546   5.551   8.476 -0.0821  2.1676  1.3241
  576MOL0     H75974   7.483   5.391   8.504  0.5099  0.3154  0.9703
  576MOL0     H75975   7.434   5.552   8.672  2.2138 -5.4092 -1.6973
  576MOL0     H75976   7.338   5.660   8.553 -0.4632 -1.1609 -2.8145
  576MOL0     H75977   7.284   5.378   8.660  1.8976  1.5090 -0.4095
  576MOL0     H75978   7.187   5.454   8.535  1.0464 -0.5603  0.1712
  576MOL0     H75979   7.155   5.638   8.725  1.7048  0.8168 -0.6217
  576MOL0     H75980   7.230   5.520   8.830  0.3730 -1.1268 -0.5960
  576MOL0     H75981   7.065   5.344   8.777  0.2547 -0.1579  2.3426
  576MOL0     H75982   7.006   5.481   8.864 -0.5772  0.4429 -0.1371
  576MOL0     H75983   6.959   5.438   8.578 -0.1565 -1.5063  0.6009
  576MOL0     H75984   6.924   5.588   8.680 -0.1892 -0.1681  2.7694
  576MOL0     H75985   6.709   5.589   8.812  1.8866 -0.6158 -1.2842
  576MOL0     H75986   6.478   5.520   8.922 -0.9335  1.2623 -1.6961
  576MOL0     H75987   6.435   5.347   8.917 -0.9425 -1.2335 -0.3645
  576MOL0     H75988   6.344   5.399   8.683  1.5556  0.1394 -1.1765
  576MOL0     H75989   6.397   5.563   8.701 -2.7408  2.0797  0.2566
  576MOL0     H75990   6.204   5.413   8.875 -2.3930  1.4684  0.9810
  576MOL0     H75991   6.255   5.583   8.914  3.1886  1.8959 -1.8445
  576MOL0     H75992   6.122   5.669   8.747  0.6065 -0.7491  0.2123
  576MOL0     H75993   6.028   5.562   8.825  1.7628 -1.9077  2.7250
  576MOL0     H75994   5.929   5.708   8.604  1.7282 -1.4109  1.3787
  576MOL0     H75995   5.913   5.840   8.381 -1.9913  0.4695  1.6707
  576MOL0     H75996   5.846   5.917   7.874  1.1500  1.2732 -1.5979
  576MOL0     H75997   5.943   6.039   7.695  2.2047 -0.2529 -0.8979
  576MOL0     H75998   6.154   6.011   7.588 -2.6282 -0.1758  3.3630
  576MOL0     H75999   6.268   5.996   7.722  0.8091 -2.0688 -3.6847
  576MOL0     H76000   6.393   6.010   7.536  0.3674 -1.0289  1.6852
  576MOL0     H76001   6.417   6.169   7.623 -3.6348  4.4919  1.4632
  576MOL0     H76002   6.296   6.306   7.486  1.5580  0.7484 -1.9223
  576MOL0     H76003   6.217   6.177   7.400  1.6792  0.2460 -1.4236
  576MOL0     H76004   6.426   6.282   7.282 -2.0018  0.6230  0.5590
  576MOL0     H76005   6.523   6.230   7.408  0.1822 -1.4988 -0.6770
  576MOL0     H76006   6.485   5.985   7.330  1.6349 -0.1788 -0.1246
  576MOL0     H76007   6.527   6.087   7.195 -2.6455 -0.5491 -1.6406
  576MOL0     H76008   6.295   6.131   7.150  0.4380  0.2396 -1.9739
  576MOL0     H76009   6.241   5.992   7.245 -0.0179 -0.6286 -1.4518
  576MOL0     H76010   6.422   5.963   6.997  1.3329 -1.5696 -0.1018
  576MOL0     H76011   6.431   5.855   7.131  3.4746  1.5230 -2.5394
  576MOL0     H76012   6.148   5.912   7.015 -0.4173 -0.5753  1.4090
  576MOL0     H76013   6.207   5.771   7.103 -2.9521 -2.4312 -2.3817
  576MOL0     H76014   6.232   6.189   7.980 -2.8796  3.9539 -1.4749
  576MOL0     H76015   6.134   6.070   8.169  1.2461  1.7482 -0.0676
  576MOL0     H76016   6.174   5.568   8.193  1.6557 -2.1510  1.0751
  576MOL0     H76017   6.197   5.436   8.425 -2.8453 -1.9351  0.4992
  576MOL0     H76018   7.792   5.220   8.348  1.3059  1.3774  1.2294
  576MOL0     H76019   8.012   5.178   8.239 -1.7156 -0.7586  3.1655
  576MOL0     H76020   8.274   5.133   7.979 -0.4974  1.2899 -0.1987
  576MOL0     H76021   8.475   5.053   7.878  0.6918  0.0124 -0.8449
  576MOL0     H76022   8.638   5.097   7.698  1.4864 -0.9134 -1.8419
  576MOL0     H76023   8.700   4.989   7.824 -2.4506 -0.3895 -1.5199
  576MOL0     H76024   8.859   5.161   7.618  2.9450 -1.2241 -1.2768
  576MOL0     H76025   8.928   5.114   7.769 -0.7342  1.6397  0.9466
  576MOL0     H76026   8.803   4.928   7.579  1.0262  1.7463 -1.5656
  576MOL0     H76027   8.890   4.887   7.734 -0.5000  0.1423  0.1297
  576MOL0     H76028   8.985   5.022   7.467  0.5507 -1.1453  0.0339
  576MOL0     H76029   9.081   5.023   7.621  0.3949  0.6695  0.3320
  576MOL0     H76030   9.128   4.640   7.454 -0.9047  0.2402  0.4624
  576MOL0     H76031   8.671   5.436   7.920  0.0803 -1.7194 -2.8810
  576MOL0     H76032   8.451   5.531   7.996  1.7228  0.5114 -1.1041
  577MOL0     O76033   6.194   9.915   5.386 -0.4402  0.0580  0.5768
  577MOL0     C76034   6.253  10.010   5.324 -0.4244  0.6352 -0.9296
  577MOL0     O76035   6.219  10.063   5.207 -0.2659 -0.4324 -0.3586
  577MOL0     C76036   6.103  10.032   5.135  0.3790  0.7340 -0.2013
  577MOL0     C76037   6.046  10.134   5.060 -0.0958 -0.4447  1.0356
  577MOL0     C76038   5.923  10.113   4.984  0.4506 -0.8912 -0.3552
  577MOL0     C76039   5.868   9.989   4.973 -0.7309  0.7094  1.1815
  577MOL0     O76040   5.782   9.958   4.871  0.5972  0.0836 -0.0347
  577MOL0     C76041   5.660   9.891   4.913 -0.6871 -0.0501 -0.0461
  577MOL0     C76042   5.563   9.992   4.986  0.0379 -0.9098  0.2121
  577MOL0     C76043   5.567   9.953   5.141  0.3902 -0.4575 -0.2612
  577MOL0     C76044   5.462  10.046   5.212  0.7203 -0.0349  0.5196
  577MOL0     C76045   5.456  10.021   5.368  0.0352  0.8202 -0.0008
  577MOL0     C76046   5.563  10.076   5.451  0.3080  0.4382  0.5541
  577MOL0     C76047   5.564  10.020   5.597  0.4708  0.4939  0.1624
  577MOL0     C76048   5.698  10.060   5.656  0.5627  0.2708 -0.3900
  577MOL0     N76049   5.691  10.047   5.802 -0.8197  0.7684 -1.2923
  577MOL0     C76050   5.662   9.932   5.876 -0.2234 -0.2229 -0.2078
  577MOL0     C76051   5.702   9.944   6.001 -1.1285  0.3914 -0.6296
  577MOL0     C76052   5.691   9.845   6.109 -0.4089 -0.4915 -0.1982
  577MOL0     C76053   5.707   9.702   6.046 -0.1864  0.3111 -0.4196
  577MOL0     C76054   5.843   9.669   5.964 -0.2114 -0.3769 -0.6143
  577MOL0     C76055   5.978   9.702   6.048  0.6133  0.0397  0.1458
  577MOL0     O76056   6.023   9.831   5.997  0.4903 -0.5680 -0.0766
  577MOL0     C76057   6.106   9.914   6.075  0.7101  0.3744  0.0057
  577MOL0     C76058   6.125  10.047   6.044  0.6116 -0.3828 -0.4442
  577MOL0     C76059   6.200  10.135   6.120 -0.7352 -0.1025  1.0868
  577MOL0     C76060   6.266  10.077   6.228 -0.0256  0.3987  0.1583
  577MOL0     C76061   6.339  10.170   6.323 -0.7066 -0.4098 -0.4269
  577MOL0     O76062   6.425  10.097   6.404  0.8955  0.2915  0.7027
  577MOL0     C76063   6.523  10.162   6.478  0.3882  0.4299  1.2784
  577MOL0     C76064   6.580  10.082   6.578 -0.9234 -0.2998  0.0659
  577MOL0     C76065   6.669  10.140   6.659  0.5070 -0.4946 -0.6880
  577MOL0     C76066   6.735  10.263   6.634 -0.5775 -0.1131 -0.9627
  577MOL0     O76067   6.843  10.301   6.713 -0.0254  0.1837 -0.1082
  577MOL0     C76068   6.884  10.436   6.731  0.9752  0.3162  0.0569
  577MOL0     C76069   7.033  10.458   6.767  0.0291 -0.1033  0.2942
  577MOL0     C76070   7.077  10.376   6.890  0.1590 -0.2628  0.3345
  577MOL0     C76071   7.220  10.436   6.932  0.1666  0.0375 -0.2941
  577MOL0     C76072   7.332  10.428   6.835  0.1040  0.1786  0.3359
  577MOL0     C76073   7.354  10.285   6.773 -0.3745 -0.1293 -0.4648
  577MOL0     C76074   7.485  10.289   6.706  0.0009 -0.7245  0.2684
  577MOL0     C76075   7.517  10.167   6.627  0.1132 -0.7584 -0.7027
  577MOL0    Cl76076   7.684  10.113   6.658  0.1260  0.4754  0.0518
  577MOL0     C76077   6.689  10.337   6.521 -0.1513 -0.0645  0.2149
  577MOL0     C76078   6.579  10.286   6.450 -0.7570  0.1389  0.3508
  577MOL0     O76079   6.320  10.291   6.318  0.4571  0.1604 -0.1536
  577MOL0     C76080   6.266   9.942   6.254 -0.5122 -0.2786 -0.1078
  577MOL0     C76081   6.194   9.857   6.174  0.1651  0.1399 -0.2192
  577MOL0     N76082   5.742  10.079   6.009  0.2315 -0.6550  0.4652
  577MOL0     N76083   5.743  10.133   5.895  0.6452 -0.3845 -0.4672
  577MOL0     C76084   5.927   9.884   5.047 -0.1357 -0.1550  0.0840
  577MOL0     C76085   6.052   9.903   5.120  0.8240  0.8019 -0.3117
  577MOL0     C76086   6.375  10.058   5.394 -0.3477 -0.3555  0.3357
  577MOL0     C76087   6.430  10.179   5.358 -0.0646  0.4001  1.2152
  577MOL0     C76088   6.545  10.234   5.423  0.1890  0.6199 -0.8516
  577MOL0     C76089   6.607  10.156   5.530 -0.3219  0.4961 -0.1521
  577MOL0     O76090   6.712  10.196   5.597 -0.3120  0.9460  0.2918
  577MOL0     C76091   6.826  10.258   5.529 -0.2740  0.2689 -0.6302
  577MOL0     C76092   6.923  10.313   5.642  0.4410  0.0372 -0.1166
  577MOL0     C76093   7.047  10.344   5.556 -1.0793  0.2263  0.6596
  577MOL0     C76094   7.146  10.427   5.631 -0.3911 -0.4487  0.3457
  577MOL0     C76095   7.281  10.437   5.564  0.0611  0.4827  1.3712
  577MOL0     C76096   7.393  10.440   5.515  0.1045  0.3210 -0.8177
  577MOL0     C76097   6.546  10.033   5.558  0.8295  0.7815 -0.2539
  577MOL0     C76098   6.433   9.984   5.495  0.1874  0.7479  0.1996
  577MOL0     H76099   6.083  10.236   5.057 -0.9081 -0.1530  0.6555
  577MOL0     H76100   5.867  10.198   4.949  0.5200  0.0741  1.7307
  577MOL0     H76101   5.677   9.801   4.972 -0.5320 -0.4122 -0.6369
  577MOL0     H76102   5.616   9.846   4.823 -0.4254  0.4019 -0.4049
  577MOL0     H76103   5.466   9.970   4.940  0.6846 -2.5554 -0.4466
  577MOL0     H76104   5.586  10.099   4.977 -1.8545 -0.3989  1.0444
  577MOL0     H76105   5.662   9.964   5.195  0.5852  5.8631 -1.2081
  577MOL0     H76106   5.554   9.845   5.155 -0.4597 -0.2895  0.3077
  577MOL0     H76107   5.480  10.153   5.192 -4.0168  0.5554 -2.1024
  577MOL0     H76108   5.364  10.022   5.171  0.6054 -2.6197  2.0964
  577MOL0     H76109   5.446   9.912   5.374 -3.8163  0.6411 -4.2543
  577MOL0     H76110   5.362  10.052   5.415  0.8908 -0.0886  2.4418
  577MOL0     H76111   5.569  10.185   5.449 -0.6775  0.4879 -0.1786
  577MOL0     H76112   5.656  10.047   5.401  0.3442  0.1491  0.7810
  577MOL0     H76113   5.470  10.052   5.642  0.0344  0.4773 -0.7069
  577MOL0     H76114   5.572   9.911   5.587  1.8234  0.5915  0.0220
  577MOL0     H76115   5.707  10.166   5.633 -1.5649  0.4161 -0.7596
  577MOL0     H76116   5.781   9.998   5.621  1.0063 -2.0988  4.0739
  577MOL0     H76117   5.625   9.841   5.831 -3.7244 -0.0132  1.8087
  577MOL0     H76118   5.590   9.847   6.149 -0.6912 -0.2532 -0.9026
  577MOL0     H76119   5.766   9.856   6.187  0.3410  2.7190 -1.2152
  577MOL0     H76120   5.622   9.685   5.979 -0.2407  1.0284 -0.5368
  577MOL0     H76121   5.705   9.621   6.120  0.3502  0.2314 -0.4909
  577MOL0     H76122   5.847   9.567   5.925 -0.1706 -0.9908  0.9119
  577MOL0     H76123   5.841   9.731   5.874 -0.5377  0.2427 -0.1830
  577MOL0     H76124   6.053   9.624   6.034  1.4059  1.2395 -3.3374
  577MOL0     H76125   5.946   9.722   6.151  0.9644  0.5643  0.1565
  577MOL0     H76126   6.065  10.083   5.961  1.6870  0.4706 -0.8894
  577MOL0     H76127   6.223  10.240   6.103 -0.8538  0.0780  1.9830
  577MOL0     H76128   6.533   9.986   6.595  2.0845 -2.0433 -0.7694
  577MOL0     H76129   6.693  10.094   6.755 -0.4111  3.5876  1.7579
  577MOL0     H76130   6.827  10.480   6.813 -2.3182  2.0736 -2.9241
  577MOL0     H76131   6.861  10.486   6.637  1.2949 -1.1893 -0.8625
  577MOL0     H76132   7.046  10.566   6.771 -0.3513  0.0854 -2.2545
  577MOL0     H76133   7.091  10.436   6.677 -1.2810  0.0212 -0.6157
  577MOL0     H76134   7.102  10.272   6.865  0.5312  0.4670 -2.7357
  577MOL0     H76135   7.013  10.368   6.979 -0.5559  1.1192 -0.0321
  577MOL0     H76136   7.208  10.543   6.957 -0.3764 -0.3183  1.1080
  577MOL0     H76137   7.262  10.391   7.022 -3.3170 -1.2389  0.8892
  577MOL0     H76138   7.425  10.466   6.880  0.4841  0.5154 -0.7008
  577MOL0     H76139   7.316  10.497   6.751  2.9052 -0.4685 -0.8695
  577MOL0     H76140   7.276  10.274   6.697 -0.9701  1.2840 -0.0908
  577MOL0     H76141   7.341  10.208   6.851  0.5176 -1.8481 -1.9467
  577MOL0     H76142   7.498  10.370   6.634 -1.6379 -1.3429 -0.7753
  577MOL0     H76143   7.555  10.296   6.790  2.2726 -0.0699 -1.5946
  577MOL0     H76144   7.504  10.179   6.519  2.9987 -3.5242 -1.5041
  577MOL0     H76145   7.456  10.085   6.666 -0.2637  0.1817  0.7841
  577MOL0     H76146   6.730  10.428   6.480  3.7990  0.5915  4.8442
  577MOL0     H76147   6.543  10.340   6.363 -2.3967 -1.2437  0.1329
  577MOL0     H76148   6.320   9.893   6.335 -2.6265 -0.5111  1.2467
  577MOL0     H76149   6.191   9.749   6.189 -0.8987 -0.2636 -2.7768
  577MOL0     H76150   5.883   9.786   5.034 -4.2117  1.5897 -0.9340
  577MOL0     H76151   6.091   9.819   5.176 -0.7806  2.0291  2.9196
  577MOL0     H76152   6.387  10.228   5.271 -2.1583  2.1775  3.1152
  577MOL0     H76153   6.579  10.334   5.400  0.2558  1.0741  1.0926
  577MOL0     H76154   6.799  10.340   5.462  1.4793  0.7116 -0.8282
  577MOL0     H76155   6.871  10.181   5.464  1.3062  2.1157 -1.8328
  577MOL0     H76156   6.880  10.394   5.702  2.1654 -0.4016  1.8271
  577MOL0     H76157   6.945  10.229   5.708  2.5103  1.0768  0.5835
  577MOL0     H76158   7.019  10.385   5.458 -1.2351  1.5963  1.2478
  577MOL0     H76159   7.087  10.244   5.542 -0.0019  0.8498 -0.9897
  577MOL0     H76160   7.103  10.525   5.652  3.2988  1.4623 -0.1331
  577MOL0     H76161   7.161  10.389   5.733  0.5930 -0.1465  0.3223
  577MOL0     H76162   7.493  10.446   5.477  0.2357 -0.5399 -0.6474
  577MOL0     H76163   6.604   9.984   5.635  2.7323  1.6839 -1.0574
  577MOL0     H76164   6.393   9.887   5.524  0.6052 -0.4293 -2.7888
  578MOL0     O76165   5.203   1.768   2.719 -0.4733 -0.9785 -0.8914
  578MOL0     C76166   5.234   1.817   2.610  0.2249 -1.1349 -0.5214
  578MOL0     O76167   5.136   1.873   2.519 -0.6034  0.1344 -0.7308
  578MOL0     C76168   4.997   1.878   2.549 -1.0449 -0.3103 -0.8206
  578MOL0     C76169   4.920   1.949   2.459 -0.1971 -0.1799 -0.2323
  578MOL0     C76170   4.783   1.950   2.462  0.3698 -0.0330  0.3699
  578MOL0     C76171   4.715   1.881   2.567  0.3835  0.1210  0.2380
  578MOL0     O76172   4.580   1.878   2.575  0.6368  0.6859 -0.2863
  578MOL0     C76173   4.526   1.749   2.519  0.0905 -0.2823  0.4589
  578MOL0     C76174   4.455   1.781   2.384 -0.0607  0.1863  0.2713
  578MOL0     C76175   4.347   1.671   2.350  0.0357 -0.1383 -0.2731
  578MOL0     C76176   4.294   1.676   2.211  0.2625 -0.2512  0.5747
  578MOL0     C76177   4.180   1.778   2.185 -0.2950 -0.4585  0.2813
  578MOL0     C76178   4.047   1.746   2.254 -0.8794 -0.3702  0.5326
  578MOL0     C76179   3.925   1.800   2.189  1.7571 -0.7221 -0.8885
  578MOL0     C76180   3.797   1.783   2.273 -0.4996 -0.3777  0.5946
  578MOL0     N76181   3.671   1.838   2.206 -0.7104 -0.4649  0.2167
  578MOL0     C76182   3.662   1.963   2.154  0.3263 -0.4219 -0.1594
  578MOL0     C76183   3.541   1.960   2.089 -0.0313  0.2175  0.3767
  578MOL0     C76184   3.482   2.072   2.021 -0.5712  0.2384  0.6256
  578MOL0     C76185   3.456   2.194   2.104  0.9543  0.3116 -0.2393
  578MOL0     C76186   3.352   2.166   2.218 -0.6529  0.4822 -0.1047
  578MOL0     C76187   3.219   2.107   2.177  0.2169 -1.1826  0.2082
  578MOL0     O76188   3.132   2.211   2.126 -0.9262 -0.2911  0.0175
  578MOL0     C76189   3.026   2.163   2.056  0.1386 -0.5301  0.3877
  578MOL0     C76190   2.980   2.255   1.958  0.9217 -0.0528 -0.1102
  578MOL0     C76191   2.860   2.213   1.882 -1.3266 -1.0149 -0.2815
  578MOL0     C76192   2.823   2.079   1.881 -0.8901  0.0407  0.0487
  578MOL0     C76193   2.708   2.017   1.804  0.6370 -1.4369 -0.5831
  578MOL0     O76194   2.635   2.108   1.737  0.1769  0.1318 -0.4389
  578MOL0     C76195   2.499   2.081   1.723 -0.6279 -0.1047 -0.0303
  578MOL0     C76196   2.410   2.192   1.678 -0.6090 -0.2773 -0.6644
  578MOL0     C76197   2.272   2.181   1.667  0.7779 -1.1482 -0.4026
  578MOL0     C76198   2.215   2.057   1.708  0.6351 -0.1498 -0.0393
  578MOL0     O76199   2.079   2.030   1.719 -0.4760  0.0548  0.7303
  578MOL0     C76200   1.989   2.126   1.669  1.2596  0.2262 -0.6256
  578MOL0     C76201   1.837   2.083   1.637 -1.1235  0.8477  0.4222
  578MOL0     C76202   1.851   1.941   1.557  0.0379 -0.7458  0.9293
  578MOL0     C76203   1.720   1.891   1.503  0.5448  0.3541 -0.1082
  578MOL0     C76204   1.679   1.950   1.367  0.2861  0.4294 -0.4455
  578MOL0     C76205   1.547   1.909   1.322  0.3433 -0.8580 -0.5918
  578MOL0     C76206   1.487   1.978   1.199 -0.3667 -0.9124 -0.3796
  578MOL0     C76207   1.571   1.939   1.075  0.2501 -0.2292 -1.1916
  578MOL0    Cl76208   1.514   1.799   0.980 -0.5546 -0.1885 -0.0592
  578MOL0     C76209   2.295   1.946   1.736 -0.1725  0.1801 -0.4184
  578MOL0     C76210   2.433   1.953   1.748 -0.2409 -0.0512  0.4838
  578MOL0     O76211   2.719   1.901   1.788 -0.0432 -0.3516  0.0174
  578MOL0     C76212   2.880   1.999   1.979 -0.4107  0.1892  0.8496
  578MOL0     C76213   2.971   2.038   2.067 -0.1130  0.0287 -0.5601
  578MOL0     N76214   3.483   1.832   2.112  0.1450 -0.0862  0.1553
  578MOL0     N76215   3.556   1.766   2.182  0.4360  0.2180 -0.3718
  578MOL0     C76216   4.785   1.805   2.654  0.2597 -0.5003 -0.4836
  578MOL0     C76217   4.925   1.808   2.647 -0.7465  0.2116  0.0280
  578MOL0     C76218   5.376   1.818   2.570 -0.1324  0.5914  0.0858
  578MOL0     C76219   5.467   1.737   2.638 -0.3948 -0.1723  0.0839
  578MOL0     C76220   5.599   1.724   2.591  0.0463 -0.2178 -0.0620
  578MOL0     C76221   5.637   1.784   2.474 -0.6464  0.4343  0.0822
  578MOL0     O76222   5.766   1.763   2.427 -0.0518 -0.6160  0.1427
  578MOL0     C76223   5.800   1.803   2.293 -0.2423  0.3637 -0.2620
  578MOL0     C76224   5.949   1.791   2.262 -0.6808 -0.4326  0.1339
  578MOL0     C76225   6.045   1.881   2.351  0.4725  0.1337  0.6323
  578MOL0     C76226   6.149   1.805   2.439  0.6195 -0.6396 -0.3276
  578MOL0     C76227   6.242   1.735   2.349 -0.0224  1.1936  0.7026
  578MOL0     C76228   6.321   1.678   2.272 -0.3557 -0.8428 -0.6615
  578MOL0     C76229   5.548   1.864   2.398 -0.5830  1.1368  1.0686
  578MOL0     C76230   5.417   1.870   2.444  0.2896  0.4178  0.3964
  578MOL0     H76231   4.969   2.021   2.395  1.9599  3.0269  4.4598
  578MOL0     H76232   4.717   2.001   2.392  1.6208 -0.3554 -1.1047
  578MOL0     H76233   4.443   1.717   2.583 -2.1531  0.7806 -1.7390
  578MOL0     H76234   4.595   1.665   2.502 -0.6526 -1.0968  1.3486
  578MOL0     H76235   4.526   1.792   2.302 -1.0418  1.0263 -0.5042
  578MOL0     H76236   4.395   1.869   2.409 -1.7655 -1.2189  1.3136
  578MOL0     H76237   4.272   1.656   2.428 -2.8778  0.6671 -2.7134
  578MOL0     H76238   4.405   1.578   2.354  0.3357  0.0456 -0.2461
  578MOL0     H76239   4.376   1.687   2.140  0.8977 -0.4714  1.2599
  578MOL0     H76240   4.255   1.576   2.191  1.1416 -0.3670 -0.6682
  578MOL0     H76241   4.150   1.793   2.081 -0.5831  0.7458  0.5208
  578MOL0     H76242   4.211   1.875   2.226  0.0796 -0.5275  0.1677
  578MOL0     H76243   4.057   1.793   2.353 -1.5873 -0.8296  0.8248
  578MOL0     H76244   4.053   1.637   2.259  4.5423 -0.3163  1.0073
  578MOL0     H76245   3.932   1.907   2.168  4.0481  0.1958  3.3401
  578MOL0     H76246   3.912   1.742   2.097 -1.7328  0.6346 -1.3866
  578MOL0     H76247   3.803   1.841   2.365  0.2380 -3.4058  2.6075
  578MOL0     H76248   3.778   1.682   2.311 -1.8296 -0.6433 -0.6633
  578MOL0     H76249   3.738   2.039   2.142  2.1934 -2.2082 -0.1833
  578MOL0     H76250   3.394   2.037   1.965  1.4726 -3.1867 -0.7275
  578MOL0     H76251   3.554   2.095   1.943 -0.5264 -0.3256  0.4986
  578MOL0     H76252   3.429   2.278   2.040 -0.0662 -1.6013 -2.4349
  578MOL0     H76253   3.552   2.228   2.144  2.2615  0.7406 -3.4308
  578MOL0     H76254   3.405   2.093   2.279  2.8917  2.8611 -0.0646
  578MOL0     H76255   3.333   2.248   2.288  1.2507 -1.7739  3.3259
  578MOL0     H76256   3.165   2.074   2.266 -0.3026  0.8304  0.7020
  578MOL0     H76257   3.230   2.024   2.107  0.7969 -0.5161 -0.5049
  578MOL0     H76258   3.019   2.356   1.965  1.2924 -0.2862  1.5967
  578MOL0     H76259   2.816   2.284   1.813  1.1123  1.7168  0.7481
  578MOL0     H76260   2.442   2.293   1.657  0.7993 -0.5305  0.1741
  578MOL0     H76261   2.214   2.269   1.642  2.3270  0.1665  0.4620
  578MOL0     H76262   2.022   2.170   1.574  0.4312  0.0875 -0.9838
  578MOL0     H76263   1.984   2.204   1.746  1.5534 -0.7141  0.3726
  578MOL0     H76264   1.795   2.160   1.572 -1.9637  1.4077  1.6009
  578MOL0     H76265   1.773   2.065   1.724 -0.7742  2.3166  1.0204
  578MOL0     H76266   1.906   1.880   1.629  4.7561  2.1187  0.2007
  578MOL0     H76267   1.923   1.972   1.480 -1.2987  2.9790  0.9886
  578MOL0     H76268   1.729   1.783   1.488  3.1133  0.8043 -2.6320
  578MOL0     H76269   1.645   1.900   1.583  0.8094 -2.5661  0.5700
  578MOL0     H76270   1.753   1.944   1.287  1.9909 -0.0489  1.0831
  578MOL0     H76271   1.668   2.056   1.391 -2.7511  0.7016 -2.5323
  578MOL0     H76272   1.475   1.935   1.400  0.3415 -2.0932 -0.1598
  578MOL0     H76273   1.545   1.802   1.299  0.9438 -0.8435 -0.7177
  578MOL0     H76274   1.382   1.953   1.187 -0.5806  0.3821 -1.5045
  578MOL0     H76275   1.487   2.087   1.206 -2.0015 -0.9244  0.1078
  578MOL0     H76276   1.677   1.918   1.085 -0.0645 -1.6335 -0.5341
  578MOL0     H76277   1.557   2.031   1.017 -1.0269 -0.5928 -1.4997
  578MOL0     H76278   2.244   1.862   1.782  0.8565  0.2739  0.9333
  578MOL0     H76279   2.485   1.868   1.792 -3.3860 -1.2922  2.1335
  578MOL0     H76280   2.853   1.895   1.989  1.4368 -0.3179  1.0451
  578MOL0     H76281   2.997   1.970   2.147 -0.8435  2.3050  1.7639
  578MOL0     H76282   4.744   1.735   2.726 -0.1210 -0.3326 -0.5351
  578MOL0     H76283   4.958   1.738   2.723  0.7435 -1.0080 -1.6412
  578MOL0     H76284   5.434   1.696   2.733  2.5421 -1.1928  0.7549
  578MOL0     H76285   5.675   1.660   2.635  2.2608  1.6976 -0.8341
  578MOL0     H76286   5.780   1.910   2.295 -3.1095 -0.0814  2.8046
  578MOL0     H76287   5.745   1.752   2.214  4.2791 -0.8621 -3.0299
  578MOL0     H76288   5.983   1.687   2.256  2.1840  0.4929 -1.5871
  578MOL0     H76289   5.959   1.838   2.164 -0.5063  0.1787  0.4398
  578MOL0     H76290   5.988   1.949   2.416  0.6620 -1.2710  2.3470
  578MOL0     H76291   6.097   1.959   2.294 -2.4283  2.7821  1.3211
  578MOL0     H76292   6.206   1.884   2.490 -1.2839  0.5511  0.0422
  578MOL0     H76293   6.099   1.743   2.514  0.0339  1.3533  1.0119
  578MOL0     H76294   6.393   1.637   2.204  0.3039  0.3841 -0.7309
  578MOL0     H76295   5.566   1.929   2.314 -0.4765  0.8490  0.8683
  578MOL0     H76296   5.348   1.929   2.385 -0.6456 -1.4596 -0.4784
  579MOL0     O76297   3.481   5.505   0.490  0.2909  0.4146 -0.4471
  579MOL0     C76298   3.398   5.589   0.515  0.1297 -0.0892  0.3858
  579MOL0     O76299   3.410   5.726   0.487 -0.1422 -0.8692  0.2541
  579MOL0     C76300   3.507   5.752   0.392 -1.0643 -0.8003 -0.3593
  579MOL0     C76301   3.469   5.737   0.256 -0.2337  0.2307  0.5153
  579MOL0     C76302   3.557   5.778   0.150  0.2888 -0.1475 -0.5483
  579MOL0     C76303   3.683   5.830   0.187 -0.0831  0.2103  1.0137
  579MOL0     O76304   3.769   5.879   0.085  1.0428  0.0067  0.4680
  579MOL0     C76305   3.818   6.013   0.098  0.2925  1.0294  0.1267
  579MOL0     C76306   3.871   6.075  -0.028  0.1770 -0.4930 -0.2526
  579MOL0     C76307   3.759   6.122  -0.112  0.9706 -0.5662 -0.4747
  579MOL0     C76308   3.800   6.187  -0.250 -0.0020  0.3118 -0.1291
  579MOL0     C76309   3.693   6.274  -0.313 -0.0749 -0.0682 -0.4430
  579MOL0     C76310   3.563   6.202  -0.327 -0.2742  0.3462 -0.2717
  579MOL0     C76311   3.474   6.257  -0.434  0.4333 -0.7332 -0.1555
  579MOL0     C76312   3.425   6.396  -0.404  0.2783 -0.3882 -0.1259
  579MOL0     N76313   3.344   6.443  -0.514  1.1943 -0.4897 -0.0932
  579MOL0     C76314   3.204   6.469  -0.499 -0.1743 -1.3640  0.1661
  579MOL0     C76315   3.167   6.488  -0.624  0.6348 -0.9432  0.1307
  579MOL0     C76316   3.018   6.516  -0.662 -0.7042  0.8859 -0.1445
  579MOL0     C76317   2.966   6.636  -0.584 -0.2050 -0.6172 -0.5843
  579MOL0     C76318   2.988   6.775  -0.644 -0.1025  0.5118 -0.5756
  579MOL0     C76319   3.123   6.825  -0.619  0.1405  0.1439  0.2972
  579MOL0     O76320   3.127   6.851  -0.478 -0.1145  0.3732  0.2943
  579MOL0     C76321   3.255   6.879  -0.432 -1.3372  0.3441 -0.1267
  579MOL0     C76322   3.301   7.010  -0.414 -0.8107  0.3688 -0.5672
  579MOL0     C76323   3.432   7.033  -0.369 -0.5264 -0.7753 -0.3781
  579MOL0     C76324   3.517   6.931  -0.328 -0.2504  0.0609  0.9326
  579MOL0     C76325   3.652   6.950  -0.280 -0.4505 -0.5639  0.7784
  579MOL0     O76326   3.703   6.841  -0.212 -0.1316 -0.2084 -0.0609
  579MOL0     C76327   3.811   6.866  -0.128  0.3608 -0.2484  0.1785
  579MOL0     C76328   3.796   6.901   0.006 -0.7208 -0.3506 -0.2169
  579MOL0     C76329   3.913   6.930   0.080  0.1571 -0.8654 -0.2009
  579MOL0     C76330   4.041   6.915   0.018 -0.1184 -0.3937 -1.0415
  579MOL0     O76331   4.148   6.962   0.094  0.8061  0.2929 -0.0615
  579MOL0     C76332   4.281   6.977   0.047 -0.4685  0.9915 -0.2485
  579MOL0     C76333   4.367   6.853   0.093 -0.2449  0.0338 -0.1450
  579MOL0     C76334   4.518   6.873   0.061 -0.1967  0.7219 -0.1160
  579MOL0     C76335   4.598   6.764   0.126 -0.0741  0.1778 -0.2352
  579MOL0     C76336   4.748   6.798   0.130  1.1895  0.5607 -0.2038
  579MOL0     C76337   4.836   6.706   0.209 -0.0661  0.2148 -0.7274
  579MOL0     C76338   4.974   6.749   0.237 -0.1655  0.0935 -0.2199
  579MOL0     C76339   5.065   6.738   0.124 -0.0547  0.0300  0.3105
  579MOL0    Cl76340   5.058   6.574   0.034 -0.2655  0.4340  0.0362
  579MOL0     C76341   4.052   6.860  -0.106  0.6865 -0.0841  0.0228
  579MOL0     C76342   3.937   6.840  -0.185 -0.3177 -0.2917  0.2375
  579MOL0     O76343   3.709   7.054  -0.310  1.0697  0.2646 -1.1282
  579MOL0     C76344   3.476   6.800  -0.346  0.3896 -1.4890  0.4243
  579MOL0     C76345   3.351   6.771  -0.407 -0.5861 -0.0486  0.2344
  579MOL0     N76346   3.276   6.484  -0.712 -0.2229 -0.3611 -0.4104
  579MOL0     N76347   3.384   6.458  -0.645  0.2233  0.7466 -0.8482
  579MOL0     C76348   3.728   5.824   0.318 -0.4334 -0.7368  0.5311
  579MOL0     C76349   3.646   5.774   0.416 -0.4582 -1.0358 -0.3589
  579MOL0     C76350   3.270   5.559   0.584 -0.2958 -0.6668 -0.5486
  579MOL0     C76351   3.253   5.428   0.639 -0.0580 -0.3447 -0.0729
  579MOL0     C76352   3.142   5.403   0.721 -0.4811  0.0683 -0.1027
  579MOL0     C76353   3.041   5.502   0.739  0.4891 -0.0444  0.1052
  579MOL0     O76354   2.944   5.465   0.825  1.3715  0.5763 -0.3779
  579MOL0     C76355   2.852   5.567   0.878  0.2723  0.3129 -0.5946
  579MOL0     C76356   2.762   5.520   1.001  0.2040 -0.2868  0.3468
  579MOL0     C76357   2.707   5.639   1.093  0.9536  0.0240  0.8176
  579MOL0     C76358   2.630   5.749   1.019 -0.2138  0.6195 -0.3760
  579MOL0     C76359   2.518   5.695   0.939  0.2426  1.2050 -0.3056
  579MOL0     C76360   2.422   5.643   0.895 -0.4876  0.0553 -0.5290
  579MOL0     C76361   3.055   5.623   0.679  0.3424 -0.1407  0.6456
  579MOL0     C76362   3.166   5.654   0.603 -0.6525  0.8655  0.2581
  579MOL0     H76363   3.372   5.711   0.217 -1.1790  3.9921  0.0349
  579MOL0     H76364   3.529   5.778   0.045 -0.9014  1.5501 -0.2754
  579MOL0     H76365   3.892   6.018   0.178  0.3037 -1.5405  0.3524
  579MOL0     H76366   3.740   6.082   0.133 -0.1990 -0.2515  1.6748
  579MOL0     H76367   3.940   6.003  -0.074  1.3588  1.1887 -1.2166
  579MOL0     H76368   3.937   6.159  -0.005 -0.5629 -0.7657  3.5275
  579MOL0     H76369   3.711   6.199  -0.051 -0.9601 -1.0553 -1.2699
  579MOL0     H76370   3.683   6.043  -0.125  0.6880 -1.0539  3.0356
  579MOL0     H76371   3.888   6.252  -0.238  1.2444 -1.6223  1.9299
  579MOL0     H76372   3.828   6.107  -0.320  1.7351 -1.0702  2.0112
  579MOL0     H76373   3.731   6.302  -0.412 -1.2335  0.3647 -0.7760
  579MOL0     H76374   3.674   6.362  -0.251 -0.0643  2.4883 -3.8050
  579MOL0     H76375   3.517   6.191  -0.228  0.3310 -3.3085 -0.2452
  579MOL0     H76376   3.583   6.099  -0.358 -4.9595 -1.4341  1.7596
  579MOL0     H76377   3.529   6.251  -0.528  0.7704  2.3952 -0.2773
  579MOL0     H76378   3.389   6.188  -0.438  0.5106 -0.9538  1.2428
  579MOL0     H76379   3.501   6.472  -0.385 -2.0766  2.3317 -0.8473
  579MOL0     H76380   3.359   6.382  -0.317  0.9736 -1.9197  0.1877
  579MOL0     H76381   3.154   6.483  -0.404  1.9593  0.8621  1.0540
  579MOL0     H76382   2.960   6.424  -0.653 -3.5161  2.4605 -0.8265
  579MOL0     H76383   3.014   6.548  -0.766  1.3410  2.8804  0.3202
  579MOL0     H76384   2.975   6.630  -0.475 -0.5794 -5.7013 -0.5699
  579MOL0     H76385   2.860   6.611  -0.601 -0.5948  0.9702 -0.6652
  579MOL0     H76386   2.962   6.792  -0.749  2.2557  3.3349 -0.8165
  579MOL0     H76387   2.936   6.844  -0.577  0.0103 -3.0094  3.6634
  579MOL0     H76388   3.132   6.916  -0.678  0.2934  0.2106  0.4215
  579MOL0     H76389   3.191   6.747  -0.653  4.6987  3.1432  1.7044
  579MOL0     H76390   3.233   7.093  -0.433 -5.6024 -2.9036  0.4064
  579MOL0     H76391   3.463   7.133  -0.341  0.0073 -1.3819  1.3340
  579MOL0     H76392   3.697   6.919   0.046 -0.9502 -3.5570  0.9402
  579MOL0     H76393   3.896   6.964   0.181 -0.8002  0.5723 -0.8180
  579MOL0     H76394   4.316   7.076   0.077  0.6747 -0.2843  3.0763
  579MOL0     H76395   4.275   6.975  -0.062 -4.3082 -0.2384 -0.1404
  579MOL0     H76396   4.338   6.756   0.052  0.7620 -0.2195 -0.2819
  579MOL0     H76397   4.349   6.847   0.200  0.2312  1.5452  0.0455
  579MOL0     H76398   4.549   6.971   0.097  3.1835 -0.8696  1.8213
  579MOL0     H76399   4.534   6.863  -0.047 -2.1940  2.5227 -0.6518
  579MOL0     H76400   4.565   6.747   0.229  1.2585 -0.5499  0.0876
  579MOL0     H76401   4.594   6.670   0.071  1.2901 -0.0975  0.0958
  579MOL0     H76402   4.747   6.901   0.168  2.1496  0.4940  0.0197
  579MOL0     H76403   4.779   6.800   0.025  1.3024 -0.7266 -0.2020
  579MOL0     H76404   4.836   6.609   0.157  2.6280  0.3245 -1.0336
  579MOL0     H76405   4.794   6.686   0.308  1.0044 -2.3833 -0.7136
  579MOL0     H76406   4.985   6.848   0.280  2.0637 -0.6671  1.1012
  579MOL0     H76407   5.008   6.673   0.308 -1.9196 -1.1639 -0.6556
  579MOL0     H76408   5.170   6.745   0.155  0.4462 -0.2056 -1.2482
  579MOL0     H76409   5.032   6.817   0.055  1.4681 -0.7325 -1.3948
  579MOL0     H76410   4.150   6.838  -0.147 -0.1902 -0.1237 -2.1798
  579MOL0     H76411   3.946   6.823  -0.292 -0.9625 -1.8105  0.4083
  579MOL0     H76412   3.536   6.711  -0.331  5.0211  0.8056 -2.0998
  579MOL0     H76413   3.315   6.670  -0.428 -2.0248  0.9389 -2.3484
  579MOL0     H76414   3.833   5.839   0.342 -0.4008  2.9014 -1.2458
  579MOL0     H76415   3.684   5.754   0.516  1.7405 -0.1210 -0.9419
  579MOL0     H76416   3.324   5.347   0.635 -2.9483 -3.0133 -1.4899
  579MOL0     H76417   3.140   5.319   0.789  2.6143  0.2327  0.3358
  579MOL0     H76418   2.785   5.601   0.798 -1.6062  2.4566  1.7109
  579MOL0     H76419   2.899   5.657   0.918 -3.9935  2.1694  0.7899
  579MOL0     H76420   2.677   5.460   0.965  0.2707 -1.4321  1.9940
  579MOL0     H76421   2.815   5.449   1.066 -0.5802  1.3913  2.9583
  579MOL0     H76422   2.792   5.699   1.130  0.3799  1.1750  0.3123
  579MOL0     H76423   2.655   5.587   1.174 -1.1879 -1.4802 -1.3997
  579MOL0     H76424   2.580   5.808   1.096 -0.6058 -0.4484  0.2035
  579MOL0     H76425   2.702   5.805   0.959 -1.3360 -0.3323 -2.7530
  579MOL0     H76426   2.335   5.597   0.854 -0.4082  2.5724 -4.0652
  579MOL0     H76427   2.978   5.698   0.696 -1.3405 -0.9537 -2.4795
  579MOL0     H76428   3.188   5.757   0.578  2.4369  0.7240  1.8768
  580MOL0     O76429   9.007   0.814   8.434  0.0991 -0.1580  0.4200
  580MOL0     C76430   8.999   0.806   8.558 -0.6225  0.2929  0.1578
  580MOL0     O76431   9.106   0.831   8.647 -0.2934 -0.6556  0.7429
  580MOL0     C76432   9.235   0.867   8.597  0.9071  0.6300 -0.5218
  580MOL0     C76433   9.294   0.857   8.471  0.3450 -0.9174 -0.1251
  580MOL0     C76434   9.424   0.895   8.453  0.2919 -0.6707 -0.1773
  580MOL0     C76435   9.507   0.926   8.558  0.2186 -0.1760  0.0882
  580MOL0     O76436   9.637   0.959   8.527 -0.3524  0.7558  0.2934
  580MOL0     C76437   9.688   1.082   8.586 -0.0211 -0.8122 -0.1243
  580MOL0     C76438   9.627   1.210   8.537 -0.1418  0.4363  0.0210
  580MOL0     C76439   9.652   1.236   8.391  0.2164  1.0808 -0.3316
  580MOL0     C76440   9.690   1.375   8.352  0.4158  0.0922 -0.5007
  580MOL0     C76441   9.752   1.368   8.213  0.6017  0.5058 -0.2122
  580MOL0     C76442   9.895   1.321   8.235 -0.4737  0.0614 -0.1052
  580MOL0     C76443   9.961   1.324   8.097 -0.0263  0.3522 -1.0359
  580MOL0     C76444   9.971   1.456   8.034  0.6221 -0.4798 -0.0056
  580MOL0     N76445  10.015   1.568   8.119  0.1018  0.5416  0.1918
  580MOL0     C76446  10.138   1.595   8.188  0.0337  0.3712  0.0830
  580MOL0     C76447  10.117   1.708   8.251 -0.6569 -0.2287 -0.8579
  580MOL0     C76448  10.224   1.794   8.307 -1.4671  0.2367 -0.6726
  580MOL0     C76449  10.197   1.839   8.458  0.1377 -0.2426 -0.3412
  580MOL0     C76450  10.317   1.891   8.528 -0.0048 -1.0129 -1.2314
  580MOL0     C76451  10.312   1.899   8.681 -0.9590 -0.6200  0.0680
  580MOL0     O76452  10.215   2.005   8.721 -0.6314  0.0865 -0.5328
  580MOL0     C76453  10.256   2.135   8.749  0.3974  0.2777 -0.3540
  580MOL0     C76454  10.152   2.228   8.764 -0.2480  0.1636  0.2043
  580MOL0     C76455  10.171   2.367   8.791 -1.0471 -0.2134  0.8513
  580MOL0     C76456  10.303   2.413   8.814  0.4573 -0.3750  0.0469
  580MOL0     C76457  10.328   2.554   8.842  0.1470 -0.3234 -0.3830
  580MOL0     O76458  10.224   2.630   8.879 -0.4860 -0.3872 -0.7527
  580MOL0     C76459  10.234   2.742   8.955  0.0133 -0.4776 -0.5192
  580MOL0     C76460  10.111   2.799   8.972 -0.0287  0.9842  0.4039
  580MOL0     C76461  10.107   2.914   9.048  0.8261 -0.5559  0.5723
  580MOL0     C76462  10.215   2.974   9.101  0.2038  0.2251 -0.6324
  580MOL0     O76463  10.221   3.085   9.174  0.0975 -0.7302 -0.1102
  580MOL0     C76464  10.103   3.112   9.254 -0.3752 -1.1058 -0.7463
  580MOL0     C76465  10.142   3.222   9.354  0.2959 -0.6423  1.5067
  580MOL0     C76466  10.233   3.188   9.471  1.0665 -0.1309 -0.1436
  580MOL0     C76467  10.370   3.271   9.470 -0.2595 -0.7211 -1.2758
  580MOL0     C76468  10.452   3.240   9.595 -0.3350 -0.8030 -0.6952
  580MOL0     C76469  10.610   3.208   9.576  0.2529 -0.1669  0.4595
  580MOL0     C76470  10.664   3.176   9.720  0.2622  0.4717  0.3657
  580MOL0     C76471  10.660   3.025   9.755  0.0391 -1.2633  1.1431
  580MOL0    Cl76472  10.501   2.975   9.822  0.0936 -0.6756 -0.1010
  580MOL0     C76473  10.340   2.919   9.064 -0.2069 -0.2261 -1.1419
  580MOL0     C76474  10.347   2.801   9.002 -0.4198 -0.1188  0.0570
  580MOL0     O76475  10.441   2.581   8.818 -0.0634 -0.6783 -0.1712
  580MOL0     C76476  10.406   2.316   8.792  0.2506 -0.1531  0.2188
  580MOL0     C76477  10.384   2.184   8.757 -0.0195 -1.3567  0.0206
  580MOL0     N76478   9.983   1.752   8.235  0.5272 -0.2597  0.6899
  580MOL0     N76479   9.927   1.666   8.154  1.1325 -0.3322 -0.1974
  580MOL0     C76480   9.444   0.924   8.684 -0.5829 -0.0490  0.3742
  580MOL0     C76481   9.307   0.910   8.710  0.6609 -0.0884  0.4064
  580MOL0     C76482   8.867   0.780   8.612 -0.5265  0.6438  0.6216
  580MOL0     C76483   8.810   0.847   8.718 -0.0029  0.1829 -0.6203
  580MOL0     C76484   8.685   0.826   8.760  0.4592 -0.5636  0.2018
  580MOL0     C76485   8.598   0.737   8.700  0.5403  0.1178 -0.6142
  580MOL0     O76486   8.460   0.715   8.727 -0.5038 -0.1278 -0.0276
  580MOL0     C76487   8.409   0.744   8.856 -0.2808  0.3358 -0.1322
  580MOL0     C76488   8.368   0.606   8.920 -1.0832  0.8500 -0.4398
  580MOL0     C76489   8.303   0.615   9.060  0.3463 -0.2230  0.7665
  580MOL0     C76490   8.150   0.612   9.053 -0.3719 -0.3278  0.2123
  580MOL0     C76491   8.105   0.483   9.101 -0.1686 -0.1458 -0.1272
  580MOL0     C76492   8.060   0.373   9.141  0.4782 -0.1712 -0.7487
  580MOL0     C76493   8.652   0.645   8.610 -0.6929  0.0620 -0.1675
  580MOL0     C76494   8.780   0.673   8.554  1.3399 -0.4537  0.3149
  580MOL0     H76495   9.236   0.825   8.384  0.1021  2.5784 -1.4056
  580MOL0     H76496   9.467   0.906   8.354 -0.3554  4.5173 -0.1694
  580MOL0     H76497   9.790   1.088   8.549  0.9031  1.2466  2.4561
  580MOL0     H76498   9.691   1.082   8.695 -0.1135  0.9595 -0.0960
  580MOL0     H76499   9.667   1.296   8.591  2.1296 -1.0854  0.8999
  580MOL0     H76500   9.522   1.223   8.564  0.0258  2.5064 -0.1335
  580MOL0     H76501   9.559   1.197   8.349  0.4598 -0.8895  0.8385
  580MOL0     H76502   9.723   1.168   8.343 -1.0564  0.2278 -1.0679
  580MOL0     H76503   9.597   1.432   8.341  1.9764  3.0193  0.4387
  580MOL0     H76504   9.759   1.421   8.423  1.3154 -0.2262 -1.1453
  580MOL0     H76505   9.759   1.466   8.167 -1.9458  1.8218  1.8993
  580MOL0     H76506   9.698   1.306   8.141  0.0144  2.3885 -1.4632
  580MOL0     H76507   9.903   1.220   8.276 -1.5211 -0.8318 -1.9858
  580MOL0     H76508   9.946   1.386   8.306 -1.0919 -0.5613  0.9444
  580MOL0     H76509  10.061   1.282   8.112 -1.4149 -2.0975  3.0094
  580MOL0     H76510   9.901   1.250   8.042  1.4652 -1.4953 -0.3087
  580MOL0     H76511   9.874   1.486   7.995  0.6071  0.3633  0.6499
  580MOL0     H76512  10.035   1.447   7.946 -0.8178  1.8270 -1.3950
  580MOL0     H76513  10.236   1.547   8.187  0.9006  1.8726  2.6739
  580MOL0     H76514  10.254   1.878   8.244 -2.1009  1.0282  0.0461
  580MOL0     H76515  10.310   1.728   8.317 -0.7621  1.4016  1.7948
  580MOL0     H76516  10.163   1.758   8.523 -1.7230 -0.1844 -1.1858
  580MOL0     H76517  10.117   1.914   8.458 -0.9563 -1.3656  0.5837
  580MOL0     H76518  10.395   1.820   8.498  2.1960  1.1844 -1.0464
  580MOL0     H76519  10.353   1.990   8.498 -0.1176 -0.4057  0.5436
  580MOL0     H76520  10.412   1.919   8.720 -0.4313 -0.9668 -1.0424
  580MOL0     H76521  10.266   1.805   8.714 -1.8536  0.6457  2.6874
  580MOL0     H76522  10.049   2.195   8.768 -0.0964 -0.9662 -2.6593
  580MOL0     H76523  10.094   2.440   8.814 -2.5427 -1.4352 -0.0970
  580MOL0     H76524  10.018   2.761   8.929  0.9337  0.4435 -1.3093
  580MOL0     H76525  10.014   2.966   9.068  0.9737 -0.5498  1.2854
  580MOL0     H76526  10.068   3.022   9.306  0.0941 -0.1849  1.2934
  580MOL0     H76527  10.017   3.152   9.200 -0.2749  3.2394  1.8581
  580MOL0     H76528  10.053   3.276   9.389 -0.4022 -1.0463  0.4179
  580MOL0     H76529  10.181   3.297   9.284 -0.4242 -2.0970 -0.5682
  580MOL0     H76530  10.254   3.082   9.485 -0.0492 -0.5545 -1.3659
  580MOL0     H76531  10.168   3.210   9.556  0.6325  0.1621 -0.5454
  580MOL0     H76532  10.443   3.241   9.393  2.0923 -1.5707  1.1154
  580MOL0     H76533  10.349   3.378   9.459 -1.6017 -0.6894  0.9591
  580MOL0     H76534  10.408   3.152   9.643  0.2261 -0.2680  0.8306
  580MOL0     H76535  10.446   3.318   9.670 -0.2420 -0.8551 -0.6327
  580MOL0     H76536  10.662   3.295   9.535 -0.8384  0.7033  0.8758
  580MOL0     H76537  10.621   3.121   9.510 -0.1212  1.6706 -2.1656
  580MOL0     H76538  10.768   3.212   9.726 -0.6021  3.0255  1.2919
  580MOL0     H76539  10.619   3.234   9.800 -0.7278 -2.3571  2.0102
  580MOL0     H76540  10.741   3.022   9.828  2.0184  1.2698 -0.7565
  580MOL0     H76541  10.686   2.955   9.675  0.3501 -1.0248  1.0378
  580MOL0     H76542  10.432   2.968   9.098 -1.0003  0.1217  0.6134
  580MOL0     H76543  10.444   2.752   9.000  0.7805  1.7164  3.6994
  580MOL0     H76544  10.512   2.337   8.803  1.0636 -2.4169 -2.1603
  580MOL0     H76545  10.465   2.114   8.736  1.5705  1.3084 -3.7537
  580MOL0     H76546   9.504   0.950   8.771 -0.3142 -1.7872  0.7466
  580MOL0     H76547   9.263   0.929   8.807  2.0533 -1.5538  1.3696
  580MOL0     H76548   8.858   0.916   8.786  3.4065 -0.1697 -2.4416
  580MOL0     H76549   8.644   0.894   8.834 -2.6930  0.0957 -1.9473
  580MOL0     H76550   8.318   0.798   8.828 -0.3397  0.4467  0.2712
  580MOL0     H76551   8.466   0.808   8.924 -0.5442  0.4915 -0.0563
  580MOL0     H76552   8.304   0.547   8.854  1.1762 -1.8388 -0.4003
  580MOL0     H76553   8.456   0.541   8.912 -2.8022 -1.6780  0.1977
  580MOL0     H76554   8.340   0.711   9.099 -0.1279  1.3035 -2.2049
  580MOL0     H76555   8.343   0.545   9.134  0.3747 -1.0930 -0.0541
  580MOL0     H76556   8.123   0.691   9.123  0.8318  0.5765 -0.3105
  580MOL0     H76557   8.112   0.630   8.953 -0.2255 -2.1007 -0.2027
  580MOL0     H76558   8.021   0.279   9.175 -2.2412 -0.1001 -3.2444
  580MOL0     H76559   8.580   0.571   8.578  0.3553 -2.0958  2.1343
  580MOL0     H76560   8.815   0.612   8.471  1.1423  0.2784 -0.3179
  581MOL0     O76561   5.464   4.660   9.807  0.2981  0.1173 -0.3171
  581MOL0     C76562   5.450   4.595   9.916  0.0495 -1.2357  0.1646
  581MOL0     O76563   5.531   4.498   9.959 -0.2913 -1.2084 -0.1581
  581MOL0     C76564   5.627   4.440   9.883  0.6763  0.4268 -0.4888
  581MOL0     C76565   5.726   4.372   9.960 -0.7835 -0.3709  0.6287
  581MOL0     C76566   5.817   4.285   9.904 -0.4813 -1.3909 -0.6615
  581MOL0     C76567   5.812   4.262   9.769 -0.2282  0.3494  0.2451
  581MOL0     O76568   5.899   4.160   9.730  0.4165  0.4576  0.3899
  581MOL0     C76569   5.818   4.037   9.719  0.1921 -0.5188  0.0477
  581MOL0     C76570   5.903   3.934   9.664  0.1872  0.0581  0.0316
  581MOL0     C76571   5.834   3.808   9.635 -0.4300 -0.1991 -0.1159
  581MOL0     C76572   5.923   3.690   9.595  0.0235 -0.2877  0.2898
  581MOL0     C76573   5.999   3.636   9.713 -0.3469  0.0857  0.2993
  581MOL0     C76574   6.072   3.509   9.683 -0.7108 -0.5811  0.1162
  581MOL0     C76575   6.200   3.481   9.771 -0.0675 -0.4237  0.3270
  581MOL0     C76576   6.196   3.501   9.917  1.0268 -0.7577 -0.8807
  581MOL0     N76577   6.334   3.492   9.969 -0.3768  0.3899 -0.3464
  581MOL0     C76578   6.399   3.373  10.004  0.0388 -0.6123 -0.1315
  581MOL0     C76579   6.532   3.409  10.031  0.3983  0.2570 -0.1582
  581MOL0     C76580   6.646   3.315  10.060  0.4414  0.6045 -0.2454
  581MOL0     C76581   6.723   3.368  10.185 -0.0957 -0.5612  0.3132
  581MOL0     C76582   6.857   3.427  10.155  0.2557 -0.2641  0.0339
  581MOL0     C76583   6.925   3.458  10.285 -0.4526 -0.6046 -0.3093
  581MOL0     O76584   7.027   3.356  10.298 -0.0267 -0.0787  0.1599
  581MOL0     C76585   7.093   3.361  10.419  0.5409  0.4193  0.1951
  581MOL0     C76586   7.170   3.243  10.438  0.7071 -0.1575  0.2223
  581MOL0     C76587   7.232   3.227  10.558  0.5906 -0.5188 -0.9655
  581MOL0     C76588   7.250   3.331  10.653 -0.2769 -0.1453 -0.1408
  581MOL0     C76589   7.324   3.309  10.783 -0.2117 -1.2062 -0.1447
  581MOL0     O76590   7.343   3.425  10.857 -0.0425  0.3031  0.2183
  581MOL0     C76591   7.441   3.435  10.953  0.6364 -0.4334  0.2490
  581MOL0     C76592   7.554   3.505  10.934  0.2191 -0.1200  0.0052
  581MOL0     C76593   7.647   3.524  11.042  0.1911 -0.4303  0.1869
  581MOL0     C76594   7.613   3.488  11.173  0.8914 -0.2002 -0.0918
  581MOL0     O76595   7.675   3.536  11.282 -0.3745  0.5808 -0.4969
  581MOL0     C76596   7.812   3.499  11.304  0.0227 -0.4209 -1.2611
  581MOL0     C76597   7.824   3.348  11.313 -0.4059  0.0636  0.3586
  581MOL0     C76598   7.744   3.290  11.434 -0.5400  0.2468 -0.4209
  581MOL0     C76599   7.760   3.140  11.428 -0.3353  0.6521 -0.5619
  581MOL0     C76600   7.669   3.063  11.532  0.2899  0.5721 -0.4529
  581MOL0     C76601   7.659   2.907  11.496 -0.0588 -0.4645 -0.3805
  581MOL0     C76602   7.597   2.813  11.607  0.0437 -0.5940  0.8283
  581MOL0     C76603   7.658   2.672  11.610  0.1658  0.0945  0.3693
  581MOL0    Cl76604   7.552   2.553  11.684  0.1165 -0.0564 -0.0597
  581MOL0     C76605   7.499   3.407  11.192 -0.2679 -0.6734 -0.2164
  581MOL0     C76606   7.419   3.371  11.079  0.2457  0.4509 -0.0453
  581MOL0     O76607   7.380   3.199  10.804 -0.0126  0.1591 -0.5090
  581MOL0     C76608   7.198   3.455  10.615 -0.3028 -0.7724 -0.1703
  581MOL0     C76609   7.108   3.470  10.507  0.6071 -0.4576  0.5358
  581MOL0     N76610   6.537   3.546  10.021 -0.7817  0.3911 -0.3281
  581MOL0     N76611   6.433   3.588   9.974 -0.7025  0.9020  1.1342
  581MOL0     C76612   5.735   4.346   9.679  0.9706  0.6022 -0.5609
  581MOL0     C76613   5.645   4.430   9.746  0.6931 -0.3202  1.1049
  581MOL0     C76614   5.320   4.609   9.991  0.1846  0.3420  0.0984
  581MOL0     C76615   5.206   4.659   9.921 -0.1486  0.2776  0.4420
  581MOL0     C76616   5.091   4.675   9.994 -0.0219  0.9109  0.1117
  581MOL0     C76617   5.080   4.643  10.131 -0.9439  0.0200 -0.1318
  581MOL0     O76618   4.980   4.672  10.215  0.5214  0.4816 -0.2661
  581MOL0     C76619   4.860   4.730  10.168  0.2148  0.1970 -0.2421
  581MOL0     C76620   4.893   4.868  10.117 -0.6074  0.5900 -0.8385
  581MOL0     C76621   4.758   4.928  10.115 -0.2715 -0.0404 -0.2806
  581MOL0     C76622   4.718   5.005  10.239  0.0045 -0.2137 -0.1249
  581MOL0     C76623   4.637   4.928  10.337  0.7147 -0.1897 -0.4281
  581MOL0     C76624   4.582   4.853  10.417 -0.4924  0.4096  0.0852
  581MOL0     C76625   5.195   4.585  10.192  0.5162 -0.4201  0.3539
  581MOL0     C76626   5.307   4.564  10.123 -0.4984  0.2786 -0.3829
  581MOL0     H76627   5.734   4.392  10.066 -1.7162 -1.0893  0.8487
  581MOL0     H76628   5.887   4.238   9.972 -0.7969 -1.2603 -0.2459
  581MOL0     H76629   5.723   4.052   9.667  0.6134 -1.8720 -1.1829
  581MOL0     H76630   5.808   4.017   9.826  0.5563  1.9210  0.5749
  581MOL0     H76631   5.988   3.916   9.730  2.2384  0.4035 -2.3393
  581MOL0     H76632   5.957   3.959   9.572 -2.9761  1.7905 -1.5480
  581MOL0     H76633   5.766   3.842   9.557 -1.9602  3.5751  2.5294
  581MOL0     H76634   5.773   3.788   9.724  0.2286 -0.1652  0.3547
  581MOL0     H76635   5.858   3.609   9.561 -0.4838  0.0912  0.3370
  581MOL0     H76636   5.994   3.715   9.516 -1.2281  0.1834 -0.7233
  581MOL0     H76637   5.928   3.625   9.796 -0.7845 -0.9912 -0.1994
  581MOL0     H76638   6.066   3.717   9.745 -0.0506  0.5915 -1.4774
  581MOL0     H76639   6.113   3.506   9.582  1.1296  0.5040  0.7781
  581MOL0     H76640   6.005   3.423   9.691  1.1018 -1.9974  0.8691
  581MOL0     H76641   6.224   3.377   9.748 -0.4810 -0.1616 -1.3975
  581MOL0     H76642   6.283   3.544   9.737  0.4321  0.4263  2.8374
  581MOL0     H76643   6.143   3.417   9.964  0.4356  1.3551  2.6197
  581MOL0     H76644   6.149   3.595   9.948  3.4375 -0.3803  2.0778
  581MOL0     H76645   6.349   3.278   9.988  1.1127 -0.9931 -1.2874
  581MOL0     H76646   6.707   3.317   9.969 -1.4581 -0.6631 -1.6223
  581MOL0     H76647   6.609   3.215  10.084  0.6521  1.4087  4.3055
  581MOL0     H76648   6.735   3.284  10.254  3.0254  0.2926  0.9628
  581MOL0     H76649   6.658   3.431  10.245 -3.8449 -2.7795 -1.0632
  581MOL0     H76650   6.916   3.352  10.102  1.2887  0.4407  0.1726
  581MOL0     H76651   6.840   3.515  10.093  6.1970  1.8972  0.7845
  581MOL0     H76652   6.860   3.448  10.373  0.5286  0.3655  0.5523
  581MOL0     H76653   6.962   3.561  10.279  1.9984 -0.9612  4.2663
  581MOL0     H76654   7.158   3.154  10.377  1.5287  0.2490 -0.5482
  581MOL0     H76655   7.274   3.130  10.584  3.2208  1.4024  3.0809
  581MOL0     H76656   7.570   3.548  10.836 -3.7704  1.4862 -0.1480
  581MOL0     H76657   7.737   3.575  11.012 -0.3547 -0.4577 -1.5993
  581MOL0     H76658   7.852   3.541  11.396 -3.3524 -0.2060  0.2664
  581MOL0     H76659   7.874   3.533  11.221 -0.9669 -1.6993 -2.5688
  581MOL0     H76660   7.932   3.336  11.328 -0.1853 -0.3269 -1.2754
  581MOL0     H76661   7.792   3.304  11.218  1.8114  1.4715 -1.1339
  581MOL0     H76662   7.635   3.301  11.425 -0.4626  1.3075 -0.1896
  581MOL0     H76663   7.763   3.333  11.533 -2.9399  3.1482 -1.0791
  581MOL0     H76664   7.733   3.106  11.327  1.3612  0.1163 -0.8641
  581MOL0     H76665   7.862   3.107  11.447 -0.9170 -1.1894 -0.4164
  581MOL0     H76666   7.567   3.104  11.532  0.6268  1.4506 -1.4201
  581MOL0     H76667   7.718   3.074  11.629  1.3078 -2.0193 -0.5895
  581MOL0     H76668   7.761   2.876  11.475 -1.1779 -2.6555 -3.1093
  581MOL0     H76669   7.607   2.893  11.401  1.2714 -2.1085 -0.9147
  581MOL0     H76670   7.621   2.867  11.699  3.1297  1.0053 -0.7627
  581MOL0     H76671   7.489   2.807  11.596  0.2873 -1.5669 -2.0046
  581MOL0     H76672   7.751   2.668  11.667  0.3488  0.4436  0.0951
  581MOL0     H76673   7.682   2.632  11.511  0.5455 -1.2690  0.9905
  581MOL0     H76674   7.486   3.378  11.295  1.3573  1.0944  0.5250
  581MOL0     H76675   7.347   3.291  11.090  2.0065 -1.1808  0.2848
  581MOL0     H76676   7.208   3.545  10.673 -3.7947  0.9755 -1.9379
  581MOL0     H76677   7.048   3.559  10.489  1.6187 -0.4480 -3.7084
  581MOL0     H76678   5.735   4.344   9.570  0.3485  2.5645 -0.6338
  581MOL0     H76679   5.574   4.484   9.683  1.2239  0.4156  1.1327
  581MOL0     H76680   5.209   4.701   9.821 -2.9419 -0.1632  0.1084
  581MOL0     H76681   5.013   4.717   9.931  0.5099  0.2826 -0.9876
  581MOL0     H76682   4.795   4.734  10.255  2.4943  1.0159  1.5313
  581MOL0     H76683   4.815   4.667  10.091  1.9172 -1.2950 -0.0908
  581MOL0     H76684   4.955   4.908  10.197 -4.0858  0.9723  1.8880
  581MOL0     H76685   4.927   4.873  10.013 -0.8162 -0.2241 -0.9541
  581MOL0     H76686   4.676   4.862  10.087  0.0214 -0.5992  0.1548
  581MOL0     H76687   4.759   5.005  10.038  0.5677  0.8793  0.6187
  581MOL0     H76688   4.803   5.055  10.286  0.1844 -1.0737  0.4884
  581MOL0     H76689   4.656   5.092  10.217 -0.6786 -1.1554 -2.2676
  581MOL0     H76690   4.528   4.789  10.484 -2.4665 -0.8946 -2.5720
  581MOL0     H76691   5.192   4.566  10.299  1.1019 -2.3115  0.0784
  581MOL0     H76692   5.399   4.532  10.171  0.9896  3.1819 -1.0367
  582MOL0     O76693  10.055   1.533   1.502  0.2622 -0.1436 -0.1140
  582MOL0     C76694  10.043   1.487   1.618 -0.0290 -1.0633 -0.3536
  582MOL0     O76695  10.144   1.453   1.697  0.1623  0.2288 -0.5474
  582MOL0     C76696  10.264   1.404   1.639 -0.0161 -0.1654 -0.2947
  582MOL0     C76697  10.304   1.269   1.650  0.1953 -1.0828 -0.3146
  582MOL0     C76698  10.418   1.230   1.593 -0.0999  0.9456 -0.3546
  582MOL0     C76699  10.493   1.314   1.510  0.2038 -0.5803 -0.0033
  582MOL0     O76700  10.604   1.264   1.438 -0.5036  0.2357 -0.6440
  582MOL0     C76701  10.617   1.313   1.307  0.0383  0.0706  0.3834
  582MOL0     C76702  10.740   1.242   1.242  0.1191  0.5937  0.4186
  582MOL0     C76703  10.784   1.314   1.110 -1.0251  0.1563 -0.4588
  582MOL0     C76704  10.887   1.425   1.145  0.1817  0.1825 -0.0592
  582MOL0     C76705  10.898   1.539   1.057  0.2899  0.2704 -0.7682
  582MOL0     C76706  10.776   1.641   1.089  1.1254 -0.2199  0.3263
  582MOL0     C76707  10.784   1.768   0.999 -0.7614  0.3257 -1.3474
  582MOL0     C76708  10.883   1.876   1.062 -1.3956 -0.2456  0.3576
  582MOL0     N76709  10.859   2.011   1.009 -0.1940  0.9282  0.4501
  582MOL0     C76710  10.877   2.060   0.883 -0.2350  0.0987  0.0987
  582MOL0     C76711  10.813   2.179   0.873  0.0402  0.4921 -0.3984
  582MOL0     C76712  10.831   2.278   0.766 -0.4490  0.3446  0.5680
  582MOL0     C76713  10.706   2.297   0.675 -0.0408  0.2000  0.0786
  582MOL0     C76714  10.637   2.170   0.609  0.0556  0.6318 -0.0691
  582MOL0     C76715  10.576   2.059   0.706  0.4183  0.0342 -0.0515
  582MOL0     O76716  10.468   1.989   0.642  1.0754 -0.1519 -0.0829
  582MOL0     C76717  10.412   1.886   0.721 -0.3112  0.6335  0.0572
  582MOL0     C76718  10.312   1.803   0.659 -0.1759 -0.4622  1.2299
  582MOL0     C76719  10.244   1.706   0.729 -0.4230  0.1027 -0.4749
  582MOL0     C76720  10.284   1.672   0.862 -0.1417 -0.3539  0.5562
  582MOL0     C76721  10.231   1.546   0.931  0.4124  0.0602  0.6188
  582MOL0     O76722  10.246   1.549   1.066 -0.9485 -0.3157 -0.2405
  582MOL0     C76723  10.214   1.431   1.131  0.0523 -0.4388 -0.8181
  582MOL0     C76724  10.297   1.324   1.101 -0.1625  0.5251 -0.5122
  582MOL0     C76725  10.303   1.207   1.172  0.6233 -1.3550 -0.3570
  582MOL0     C76726  10.211   1.204   1.281  0.0707 -0.1993 -0.0987
  582MOL0     O76727  10.185   1.088   1.358 -0.1728  0.1616  0.2854
  582MOL0     C76728  10.302   1.005   1.372 -0.0466 -0.1424 -0.4436
  582MOL0     C76729  10.293   0.897   1.486 -0.7296 -0.3547  0.1824
  582MOL0     C76730  10.198   0.783   1.446 -0.1461 -0.2596 -0.2872
  582MOL0     C76731  10.182   0.674   1.555 -0.1640 -0.3330 -0.4084
  582MOL0     C76732  10.111   0.555   1.492 -1.4587  0.1833  0.3814
  582MOL0     C76733  10.133   0.422   1.568  0.3423  0.8720 -0.2600
  582MOL0     C76734  10.050   0.306   1.519 -0.4154  0.0188  0.2281
  582MOL0     C76735  10.117   0.168   1.526 -0.4048  0.4983 -1.3564
  582MOL0    Cl76736  10.098   0.119   1.707 -0.2728 -0.5735  0.1355
  582MOL0     C76737  10.122   1.313   1.308  0.0584  0.8665 -0.3920
  582MOL0     C76738  10.125   1.426   1.232 -0.2322  0.4071  0.4058
  582MOL0     O76739  10.172   1.459   0.870  0.2617  0.0340 -0.4044
  582MOL0     C76740  10.381   1.758   0.925 -0.1897 -0.1286 -0.8096
  582MOL0     C76741  10.445   1.856   0.852  0.3793  0.0306 -0.2371
  582MOL0     N76742  10.751   2.197   1.001 -0.5981 -0.5663  0.0143
  582MOL0     N76743  10.781   2.102   1.077 -0.3293 -0.0693  0.1383
  582MOL0     C76744  10.461   1.454   1.501  0.2292 -0.7730 -0.1277
  582MOL0     C76745  10.345   1.493   1.572  0.3280 -0.5939  0.3357
  582MOL0     C76746   9.910   1.465   1.679 -1.2321 -0.1315 -0.3267
  582MOL0     C76747   9.895   1.441   1.815 -0.5470 -0.3136 -0.2152
  582MOL0     C76748   9.773   1.422   1.877  0.2793  0.8513  0.0866
  582MOL0     C76749   9.660   1.431   1.787 -0.2136  0.8686  1.1901
  582MOL0     O76750   9.524   1.404   1.828 -0.2599 -0.1578  1.0050
  582MOL0     C76751   9.505   1.321   1.935  0.3505  0.7409 -0.3675
  582MOL0     C76752   9.360   1.263   1.929 -0.0961 -0.7026  0.1760
  582MOL0     C76753   9.361   1.154   1.820 -0.9091 -0.1272 -0.3034
  582MOL0     C76754   9.231   1.137   1.744 -0.2779 -0.1632 -0.0885
  582MOL0     C76755   9.186   1.265   1.688  1.7737 -0.0560 -0.5543
  582MOL0     C76756   9.131   1.372   1.659  0.6014  0.0014 -0.1356
  582MOL0     C76757   9.682   1.458   1.651 -0.8879  0.2387  0.8841
  582MOL0     C76758   9.807   1.471   1.598  0.5801  0.2744 -0.0989
  582MOL0     H76759  10.257   1.210   1.728 -2.3252  1.0248 -0.0855
  582MOL0     H76760  10.451   1.126   1.601 -1.0474  0.7201  0.7677
  582MOL0     H76761  10.632   1.421   1.294  0.2512 -0.2902 -4.2566
  582MOL0     H76762  10.532   1.286   1.244 -1.3594  2.6152  1.0515
  582MOL0     H76763  10.702   1.143   1.217 -0.2686  0.9593 -0.4902
  582MOL0     H76764  10.830   1.239   1.303  0.1089  2.2528  0.5785
  582MOL0     H76765  10.696   1.365   1.070 -1.3887 -0.0716  0.0534
  582MOL0     H76766  10.823   1.240   1.039 -2.2061 -2.0535  1.0891
  582MOL0     H76767  10.867   1.464   1.245 -0.2856 -0.8914  0.2917
  582MOL0     H76768  10.990   1.390   1.149  0.3475  0.7725  1.2034
  582MOL0     H76769  10.891   1.508   0.952  0.7194 -1.4148 -0.3268
  582MOL0     H76770  10.990   1.597   1.068  1.1602 -1.3645  1.3139
  582MOL0     H76771  10.764   1.667   1.194 -0.4789  1.0782 -0.1345
  582MOL0     H76772  10.685   1.589   1.056 -0.7584  2.1985  1.4421
  582MOL0     H76773  10.817   1.760   0.895  1.3366 -0.7415 -0.6471
  582MOL0     H76774  10.683   1.810   0.994 -1.6868 -1.1570  2.1168
  582MOL0     H76775  10.983   1.838   1.041 -1.0547  0.5469  0.5062
  582MOL0     H76776  10.878   1.876   1.171 -1.9888 -0.6281  0.3374
  582MOL0     H76777  10.948   2.013   0.816  0.0591  1.6601 -0.7204
  582MOL0     H76778  10.918   2.245   0.709 -1.2166 -1.0562  0.1780
  582MOL0     H76779  10.863   2.378   0.796  0.6968  0.4257 -0.8121
  582MOL0     H76780  10.729   2.368   0.594 -3.1982  0.4515 -0.7107
  582MOL0     H76781  10.629   2.352   0.729 -0.8338 -0.0679 -0.7623
  582MOL0     H76782  10.560   2.200   0.537  1.6481  1.8938 -1.3292
  582MOL0     H76783  10.712   2.119   0.547  1.2336 -0.6118  2.2252
  582MOL0     H76784  10.554   2.103   0.803 -4.5562 -1.1931 -0.3455
  582MOL0     H76785  10.658   1.993   0.733  1.6379  2.1099  1.5743
  582MOL0     H76786  10.283   1.833   0.559  4.1036  2.7402  0.6404
  582MOL0     H76787  10.167   1.647   0.681 -2.2880  2.6522 -0.8070
  582MOL0     H76788  10.362   1.332   1.014  1.1559  1.2425  0.5008
  582MOL0     H76789  10.370   1.127   1.141  0.3193 -1.6268 -0.3151
  582MOL0     H76790  10.388   1.067   1.396 -0.2679 -0.5083  1.4703
  582MOL0     H76791  10.325   0.951   1.279 -0.1484  1.3606 -1.3867
  582MOL0     H76792  10.272   0.943   1.583 -0.3299  3.1019 -1.2366
  582MOL0     H76793  10.400   0.873   1.481 -0.3193  1.4944 -2.8337
  582MOL0     H76794  10.235   0.733   1.356 -2.5113 -3.1091  0.1710
  582MOL0     H76795  10.098   0.826   1.429 -1.5921 -2.7157  1.4413
  582MOL0     H76796  10.280   0.638   1.590 -1.7354 -0.9731  3.8768
  582MOL0     H76797  10.128   0.699   1.646 -1.8993  0.1365 -1.5285
  582MOL0     H76798  10.142   0.538   1.388 -0.9837  0.9525  0.3890
  582MOL0     H76799  10.007   0.587   1.484 -1.4725 -0.3434 -2.7395
  582MOL0     H76800  10.119   0.438   1.675 -2.0802 -3.3249  0.2379
  582MOL0     H76801  10.236   0.384   1.560  0.7271  2.2193 -2.4056
  582MOL0     H76802   9.952   0.299   1.568 -0.9957  1.2486 -0.7227
  582MOL0     H76803  10.029   0.340   1.418  2.7060  2.6642  0.3062
  582MOL0     H76804  10.220   0.160   1.489  0.4307  0.6063  0.7491
  582MOL0     H76805  10.054   0.101   1.467 -2.0395  1.6325 -0.9683
  582MOL0     H76806  10.064   1.318   1.400 -2.8138 -1.3994 -1.9018
  582MOL0     H76807  10.041   1.493   1.248 -1.6724 -1.4196  0.9762
  582MOL0     H76808  10.402   1.743   1.030 -2.6673 -2.7303 -0.5754
  582MOL0     H76809  10.523   1.913   0.902  0.3090  1.6946 -1.9137
  582MOL0     H76810  10.517   1.521   1.437 -1.7640  1.6994  0.5440
  582MOL0     H76811  10.307   1.595   1.571  0.8515 -0.3849  1.0064
  582MOL0     H76812   9.985   1.446   1.876  0.8256  0.9641 -2.2227
  582MOL0     H76813   9.760   1.405   1.984  0.0518  0.4441 -0.0077
  582MOL0     H76814   9.533   1.391   2.014  0.3647  1.1977 -0.7712
  582MOL0     H76815   9.561   1.227   1.938  0.5541  0.5576 -4.5476
  582MOL0     H76816   9.315   1.240   2.026 -2.2092  1.6625 -0.1337
  582MOL0     H76817   9.290   1.342   1.901 -1.0218 -1.8715 -0.9254
  582MOL0     H76818   9.388   1.067   1.879  1.7234  1.2546  0.6747
  582MOL0     H76819   9.442   1.185   1.753  1.3001 -1.9947  1.3782
  582MOL0     H76820   9.246   1.065   1.663 -1.1907 -0.8941  0.3638
  582MOL0     H76821   9.158   1.098   1.815  1.4233 -1.5191  1.0149
  582MOL0     H76822   9.081   1.462   1.628 -1.5113 -1.6613 -1.9506
  582MOL0     H76823   9.590   1.474   1.596 -0.8673 -1.0406  0.4492
  582MOL0     H76824   9.814   1.493   1.492  1.1199  0.2705 -0.0700
  583MOL0     O76825   9.519  10.782   2.007  0.0084  0.8496 -0.2110
  583MOL0     C76826   9.430  10.697   2.000  0.9299 -0.9014 -1.0459
  583MOL0     O76827   9.321  10.714   1.917 -0.3335  1.2518 -0.4105
  583MOL0     C76828   9.279  10.833   1.887 -0.2501 -1.2392  0.7383
  583MOL0     C76829   9.214  10.858   1.765 -0.5762  0.6652 -0.4208
  583MOL0     C76830   9.134  10.980   1.740 -0.0487  0.0445 -0.2226
  583MOL0     C76831   9.134  11.080   1.848 -0.4228 -1.2051  1.1776
  583MOL0     O76832   9.077  11.207   1.843 -0.6928  0.9925 -0.1882
  583MOL0     C76833   9.049  11.261   1.713 -0.2178  0.3242 -0.5449
  583MOL0     C76834   9.038  11.410   1.733 -0.6355 -0.7105 -0.2673
  583MOL0     C76835   8.980  11.488   1.612 -0.5654 -0.3842  1.1894
  583MOL0     C76836   9.071  11.500   1.488 -0.1993  0.1344  0.0070
  583MOL0     C76837   9.019  11.592   1.376 -0.1998 -0.3340  0.3988
  583MOL0     C76838   9.075  11.729   1.401  0.0855 -0.4201 -0.3626
  583MOL0     C76839   9.059  11.833   1.293 -0.1080  0.8529  0.7340
  583MOL0     C76840   8.914  11.864   1.262  0.3580  0.0770 -0.2231
  583MOL0     N76841   8.911  11.976   1.167  0.6939  0.1344  0.1216
  583MOL0     C76842   8.886  11.950   1.035 -0.2060 -0.0737  0.3794
  583MOL0     C76843   8.846  12.074   0.989  0.3373 -0.8233 -0.8028
  583MOL0     C76844   8.801  12.112   0.851 -0.4358 -0.5473 -0.1828
  583MOL0     C76845   8.894  12.218   0.787 -0.3939  0.5216 -1.0894
  583MOL0     C76846   9.031  12.153   0.774 -0.3843 -0.0754  1.4466
  583MOL0     C76847   9.095  12.210   0.644  0.3496 -0.1989  0.4197
  583MOL0     O76848   9.222  12.143   0.618 -0.6248 -0.2835  1.1076
  583MOL0     C76849   9.308  12.208   0.531 -0.0912  1.0864  0.2214
  583MOL0     C76850   9.274  12.327   0.469  0.0343  0.2245  0.2658
  583MOL0     C76851   9.368  12.395   0.399 -0.0372  0.2027  0.6350
  583MOL0     C76852   9.505  12.347   0.389  0.8752  0.2850  0.0993
  583MOL0     C76853   9.599  12.408   0.300 -0.2187 -1.0555 -1.5809
  583MOL0     O76854   9.579  12.540   0.252  0.1722  0.2443 -0.2868
  583MOL0     C76855   9.682  12.621   0.207 -0.5536 -0.4996 -1.3622
  583MOL0     C76856   9.656  12.682   0.088 -0.1961  0.4599  0.8212
  583MOL0     C76857   9.749  12.766   0.021 -0.1840  0.5273 -0.6390
  583MOL0     C76858   9.877  12.781   0.079  0.0437  0.3388  0.2477
  583MOL0     O76859   9.970  12.869   0.036 -0.2094  0.9169 -0.0822
  583MOL0     C76860   9.931  12.982  -0.038  0.3993 -0.3860  0.0918
  583MOL0     C76861  10.055  13.076  -0.056  0.3894  0.5913  0.1345
  583MOL0     C76862  10.099  13.132   0.084 -0.1363  0.2449  0.0670
  583MOL0     C76863  10.232  13.195   0.065 -0.9802 -0.1856 -0.2152
  583MOL0     C76864  10.308  13.226   0.201  0.6040  0.0594  0.4205
  583MOL0     C76865  10.343  13.107   0.281  1.0502  0.1138 -1.3912
  583MOL0     C76866  10.467  13.029   0.241  1.0089  0.2355  0.0794
  583MOL0     C76867  10.490  12.921   0.344 -0.5850 -0.7688 -0.3527
  583MOL0    Cl76868  10.369  12.787   0.308  0.5702 -0.2616 -0.1968
  583MOL0     C76869   9.904  12.713   0.204  0.1419  0.8230  0.3007
  583MOL0     C76870   9.811  12.635   0.257  0.1487 -0.6593 -0.8047
  583MOL0     O76871   9.691  12.334   0.266  0.3496  0.6987  0.2155
  583MOL0     C76872   9.536  12.227   0.458  0.2959 -0.2458  0.6122
  583MOL0     C76873   9.446  12.166   0.534 -0.2813  0.2894  0.8429
  583MOL0     N76874   8.856  12.171   1.080  0.7838  0.7167  0.6994
  583MOL0     N76875   8.899  12.109   1.186 -0.5927 -0.9797 -0.1101
  583MOL0     C76876   9.199  11.051   1.965 -0.2086  0.4377  0.2468
  583MOL0     C76877   9.264  10.932   1.991 -0.3625 -0.4907  0.1535
  583MOL0     C76878   9.465  10.579   2.081  0.3815  0.1934  0.4739
  583MOL0     C76879   9.573  10.564   2.162  0.6323 -0.9745  1.4486
  583MOL0     C76880   9.583  10.454   2.251  0.7233  0.4477  0.8679
  583MOL0     C76881   9.483  10.357   2.255  0.5997  0.9623 -0.2136
  583MOL0     O76882   9.499  10.238   2.328  0.3684  0.0789  0.0227
  583MOL0     C76883   9.558  10.137   2.244 -0.6703 -0.4380  1.1144
  583MOL0     C76884   9.656  10.080   2.345 -0.2980 -0.3093  0.2037
  583MOL0     C76885   9.732   9.964   2.272 -0.7587  1.2389  0.1041
  583MOL0     C76886   9.854   9.906   2.351  0.3598  0.7255  0.1690
  583MOL0     C76887   9.924   9.795   2.286 -0.9618  0.3710 -0.5715
  583MOL0     C76888   9.964   9.703   2.220 -0.7404  0.0147  1.3438
  583MOL0     C76889   9.380  10.379   2.170  0.4633  0.1562  0.1726
  583MOL0     C76890   9.367  10.482   2.081  0.3030 -0.6034 -0.0203
  583MOL0     H76891   9.217  10.778   1.691 -0.8101 -0.8903  1.1995
  583MOL0     H76892   9.085  10.998   1.644 -0.7070  4.1235  0.7216
  583MOL0     H76893   8.958  11.219   1.668  1.0011  0.4715 -3.3024
  583MOL0     H76894   9.131  11.243   1.643  0.1012  0.5811 -0.2421
  583MOL0     H76895   9.135  11.453   1.760 -0.9533 -0.2258  0.1113
  583MOL0     H76896   8.984  11.422   1.827  1.6227 -0.1570  1.0391
  583MOL0     H76897   8.964  11.587   1.656  0.1396 -1.2754  3.6475
  583MOL0     H76898   8.885  11.450   1.574  0.4388  1.2525 -3.5939
  583MOL0     H76899   9.174  11.526   1.515 -0.4591 -1.4004  2.8458
  583MOL0     H76900   9.075  11.402   1.440 -0.6706  1.3250 -2.7046
  583MOL0     H76901   8.909  11.597   1.373 -0.6523 -1.8219  5.5208
  583MOL0     H76902   9.051  11.547   1.281 -0.5164 -0.9037  0.5508
  583MOL0     H76903   9.182  11.714   1.419  0.3509 -0.2127 -1.6769
  583MOL0     H76904   9.033  11.788   1.483  0.9044  1.2348 -1.0782
  583MOL0     H76905   9.105  11.921   1.338 -0.3748  0.3165  2.0906
  583MOL0     H76906   9.119  11.792   1.211  1.9132  0.3766  2.3782
  583MOL0     H76907   8.874  11.919   1.348  0.8576  0.0100  0.0607
  583MOL0     H76908   8.854  11.780   1.228  1.8164 -0.4885 -1.5163
  583MOL0     H76909   8.891  11.853   0.987 -0.0279  0.1156  0.0174
  583MOL0     H76910   8.699  12.144   0.872 -0.8208 -2.9399  2.1417
  583MOL0     H76911   8.786  12.019   0.795  2.5970 -0.4521 -1.3476
  583MOL0     H76912   8.895  12.310   0.846  0.1516 -0.0420 -0.1853
  583MOL0     H76913   8.847  12.242   0.692  1.0588  0.0270 -1.9774
  583MOL0     H76914   9.103  12.177   0.853  3.0133  0.6286 -1.5751
  583MOL0     H76915   9.031  12.044   0.770 -1.9323 -0.0809 -1.4800
  583MOL0     H76916   9.106  12.318   0.658 -0.1019  0.0812 -1.1505
  583MOL0     H76917   9.027  12.198   0.559 -0.8610  1.2224  1.1475
  583MOL0     H76918   9.169  12.354   0.473 -1.0775 -3.6038  2.8298
  583MOL0     H76919   9.353  12.481   0.334  2.2970 -1.8308 -2.9292
  583MOL0     H76920   9.561  12.671   0.036  0.3205  1.2666 -0.3492
  583MOL0     H76921   9.699  12.803  -0.068  0.4502  2.6602 -0.1699
  583MOL0     H76922   9.842  13.027   0.007 -2.1629 -2.8804 -2.0298
  583MOL0     H76923   9.911  12.938  -0.137 -0.5869 -2.3970  1.1227
  583MOL0     H76924  10.039  13.161  -0.123  4.1565 -0.5784 -2.6045
  583MOL0     H76925  10.125  13.009  -0.107  1.2729  0.9384  0.8764
  583MOL0     H76926  10.101  13.045   0.150  1.8177 -1.6581 -2.2644
  583MOL0     H76927  10.027  13.204   0.125  1.5628  0.8990  2.0610
  583MOL0     H76928  10.299  13.125   0.015  2.8822  1.5232  2.0266
  583MOL0     H76929  10.222  13.278  -0.005  0.2694 -0.6293 -0.9596
  583MOL0     H76930  10.255  13.296   0.265  3.7409  1.1548  2.0343
  583MOL0     H76931  10.410  13.265   0.189  0.8709 -1.1230 -1.5649
  583MOL0     H76932  10.249  13.051   0.290  0.1997  1.3349 -2.3238
  583MOL0     H76933  10.348  13.148   0.382 -0.2104 -0.4848 -1.0593
  583MOL0     H76934  10.453  13.000   0.136 -2.5601  2.1276 -0.0809
  583MOL0     H76935  10.555  13.094   0.244  1.5140 -0.4317  3.2439
  583MOL0     H76936  10.467  12.957   0.445  2.1211 -0.1117  0.1136
  583MOL0     H76937  10.592  12.884   0.334 -0.8742 -2.0383  0.9673
  583MOL0     H76938   9.996  12.716   0.260 -0.2297 -1.4935  1.1544
  583MOL0     H76939   9.841  12.587   0.350 -0.9657  0.8849  0.4227
  583MOL0     H76940   9.627  12.171   0.441 -0.6975 -1.8514  0.4327
  583MOL0     H76941   9.477  12.077   0.587  2.6184  0.6075 -0.0999
  583MOL0     H76942   9.198  11.123   2.047 -2.3666  0.0558  0.6320
  583MOL0     H76943   9.310  10.915   2.087 -3.5847 -2.0864  1.5715
  583MOL0     H76944   9.655  10.635   2.168  2.1895 -2.4737 -0.5658
  583MOL0     H76945   9.662  10.437   2.323  5.3738 -0.4877 -3.8019
  583MOL0     H76946   9.610  10.175   2.156  0.1762  0.3848  1.9510
  583MOL0     H76947   9.487  10.062   2.208  1.2278 -0.3935 -3.3406
  583MOL0     H76948   9.724  10.158   2.380 -0.6658 -0.6337  1.7548
  583MOL0     H76949   9.609  10.045   2.438  1.1450  0.1985  1.1508
  583MOL0     H76950   9.763  10.009   2.177  1.0087  0.2500  0.1670
  583MOL0     H76951   9.662   9.884   2.247  1.7778 -0.3317 -2.5955
  583MOL0     H76952   9.935   9.973   2.383  2.5234 -1.3382 -0.7232
  583MOL0     H76953   9.803   9.860   2.437  2.9097 -2.7675  0.0221
  583MOL0     H76954  10.003   9.623   2.161 -0.7756  0.2688  0.9737
  583MOL0     H76955   9.297  10.310   2.179  1.5443 -1.3340 -0.8226
  583MOL0     H76956   9.285  10.483   2.010 -1.0546 -0.5135  1.5098
  584MOL0     O76957  10.731  10.174   8.393 -0.4950 -0.3126  0.1401
  584MOL0     C76958  10.690  10.124   8.494  1.1004  0.2222 -0.4516
  584MOL0     O76959  10.735  10.157   8.619 -0.1471 -0.0060 -0.5116
  584MOL0     C76960  10.846  10.243   8.622 -0.2945 -0.2554 -0.8602
  584MOL0     C76961  10.826  10.367   8.683  0.1335 -0.4907  0.9202
  584MOL0     C76962  10.924  10.466   8.684 -0.0706 -0.9155 -0.0079
  584MOL0     C76963  11.052  10.434   8.628 -0.5185 -0.7755 -0.0425
  584MOL0     O76964  11.161  10.516   8.629  0.0076  1.0646 -0.4261
  584MOL0     C76965  11.164  10.635   8.706 -0.4669 -0.6010  0.1135
  584MOL0     C76966  11.192  10.610   8.850 -0.4016  0.0872  0.6856
  584MOL0     C76967  11.222  10.743   8.931 -0.4838  0.9131  0.0560
  584MOL0     C76968  11.303  10.710   9.065  0.1317 -0.3650  0.4563
  584MOL0     C76969  11.304  10.827   9.163  0.1656  0.5965 -0.6076
  584MOL0     C76970  11.405  10.805   9.283  0.7467  0.2766 -0.4879
  584MOL0     C76971  11.428  10.929   9.356  0.5369 -0.3519  0.9316
  584MOL0     C76972  11.523  10.918   9.472  0.5213  0.7099 -0.8810
  584MOL0     N76973  11.542  11.053   9.535 -0.2229 -0.0939  0.8341
  584MOL0     C76974  11.478  11.101   9.648 -0.9076  0.1125  0.0391
  584MOL0     C76975  11.553  11.204   9.688  0.3210 -0.6155  0.5708
  584MOL0     C76976  11.540  11.289   9.808 -0.8145  0.0943 -0.0897
  584MOL0     C76977  11.417  11.388   9.812  0.2540 -0.9442 -0.5414
  584MOL0     C76978  11.406  11.485   9.690 -0.6796 -0.0144 -0.4555
  584MOL0     C76979  11.317  11.425   9.579 -0.1154 -0.3576 -1.1051
  584MOL0     O76980  11.326  11.526   9.478 -0.3302  0.3013 -0.7399
  584MOL0     C76981  11.237  11.508   9.376 -0.4281 -0.0870 -0.1455
  584MOL0     C76982  11.106  11.556   9.395 -0.2986  0.4885  0.6383
  584MOL0     C76983  11.015  11.531   9.285  0.8351 -0.6408 -0.0702
  584MOL0     C76984  11.051  11.459   9.173 -0.4737 -0.7146 -0.2962
  584MOL0     C76985  10.954  11.430   9.052 -0.9804  0.0040  0.2229
  584MOL0     O76986  10.813  11.427   9.074  0.4693 -1.1120 -0.7772
  584MOL0     C76987  10.730  11.410   8.965  0.0969  0.6981 -0.7216
  584MOL0     C76988  10.630  11.305   8.967  0.1318  0.1432 -1.1847
  584MOL0     C76989  10.535  11.283   8.871 -0.7800  0.7004 -0.5507
  584MOL0     C76990  10.546  11.361   8.752 -0.5016 -1.1060  0.0062
  584MOL0     O76991  10.448  11.335   8.658 -0.3218 -0.3047 -0.0392
  584MOL0     C76992  10.433  11.428   8.550 -0.1580  0.0073  0.6973
  584MOL0     C76993  10.326  11.397   8.445 -0.0231 -0.1011 -0.0303
  584MOL0     C76994  10.343  11.488   8.316  0.7206 -0.2785  0.7634
  584MOL0     C76995  10.249  11.445   8.200  1.5070 -0.6333  0.8039
  584MOL0     C76996  10.245  11.562   8.106 -0.1153  1.0717  0.9418
  584MOL0     C76997  10.104  11.585   8.054 -0.1983  0.9505 -0.4804
  584MOL0     C76998  10.015  11.656   8.145  0.3655  0.1270 -0.9311
  584MOL0     C76999   9.913  11.746   8.074 -0.1318  0.1419 -0.8935
  584MOL0    Cl77000   9.759  11.755   8.173 -0.5080 -0.0152  0.3283
  584MOL0     C77001  10.638  11.460   8.744  0.1334  0.3434  0.4054
  584MOL0     C77002  10.730  11.490   8.853 -0.9360  0.2940  0.4644
  584MOL0     O77003  11.006  11.412   8.941  0.6100  0.1325 -0.6290
  584MOL0     C77004  11.183  11.429   9.159  0.2395  0.5958  0.4648
  584MOL0     C77005  11.277  11.446   9.257  0.4380 -1.1337 -0.0401
  584MOL0     N77006  11.645  11.227   9.592 -0.3687  0.0088 -0.3033
  584MOL0     N77007  11.635  11.139   9.494  0.4083  0.4871  0.5112
  584MOL0     C77008  11.066  10.298   8.571  0.1171 -0.6960  0.4718
  584MOL0     C77009  10.964  10.206   8.574 -0.6232 -0.5492  1.0032
  584MOL0     C77010  10.573  10.033   8.473  0.3112 -0.1601 -0.6295
  584MOL0     C77011  10.509  10.004   8.358  0.2299  0.3199  0.7128
  584MOL0     C77012  10.403   9.918   8.335 -0.0916  0.7664  0.5893
  584MOL0     C77013  10.359   9.854   8.439  0.2462 -0.1156 -0.5607
  584MOL0     O77014  10.256   9.758   8.425 -0.8873  0.3045 -0.1579
  584MOL0     C77015  10.167   9.735   8.535  0.3473  0.3701 -0.3328
  584MOL0     C77016  10.039   9.675   8.477  0.6371  0.5125 -1.1083
  584MOL0     C77017   9.934   9.658   8.583 -0.1336 -0.4318 -0.6099
  584MOL0     C77018   9.798   9.671   8.523  0.2303 -0.2323  0.5119
  584MOL0     C77019   9.754   9.810   8.501  0.5075  0.4244  0.3107
  584MOL0     C77020   9.725   9.927   8.491  0.2266  0.2076 -0.1507
  584MOL0     C77021  10.408   9.883   8.574 -0.5275  0.8627  0.1545
  584MOL0     C77022  10.518   9.969   8.590  1.5177  0.0774  0.8803
  584MOL0     H77023  10.727  10.396   8.715  0.1721 -0.0366  0.6536
  584MOL0     H77024  10.901  10.560   8.733 -0.3059 -1.7785  1.6165
  584MOL0     H77025  11.067  10.686   8.695  1.1167  2.2811 -1.5984
  584MOL0     H77026  11.253  10.689   8.674  0.3267  0.1203  3.2103
  584MOL0     H77027  11.272  10.539   8.875  0.6641 -0.5197 -3.6548
  584MOL0     H77028  11.104  10.570   8.900 -0.1768  0.4062  1.3560
  584MOL0     H77029  11.125  10.788   8.956 -1.6605 -1.4967  0.0663
  584MOL0     H77030  11.288  10.813   8.880 -0.7947  1.9572  1.0314
  584MOL0     H77031  11.245  10.625   9.100 -1.8227  0.6245 -0.2233
  584MOL0     H77032  11.403  10.669   9.051  0.0480 -0.5994  0.5451
  584MOL0     H77033  11.205  10.859   9.195  1.0409  2.1936  0.6005
  584MOL0     H77034  11.326  10.918   9.107 -5.2153  0.9063 -2.7428
  584MOL0     H77035  11.505  10.781   9.247  0.7286 -0.7718  0.1334
  584MOL0     H77036  11.363  10.732   9.353 -2.7862  0.6031 -2.0355
  584MOL0     H77037  11.471  11.008   9.293  0.1848 -1.1249 -0.3171
  584MOL0     H77038  11.326  10.951   9.390  0.5524 -1.7645  1.9694
  584MOL0     H77039  11.616  10.890   9.423 -0.3041  0.8347 -2.6070
  584MOL0     H77040  11.506  10.848   9.555  2.6117  0.0973 -0.9327
  584MOL0     H77041  11.397  11.060   9.709  0.5178 -3.3812 -0.1773
  584MOL0     H77042  11.631  11.349   9.825 -1.1451  0.3368  0.8772
  584MOL0     H77043  11.527  11.206   9.877  1.1815 -0.2960 -0.1152
  584MOL0     H77044  11.415  11.446   9.904 -1.4344 -2.2876  0.3378
  584MOL0     H77045  11.328  11.325   9.823  0.4095 -0.8584  1.5455
  584MOL0     H77046  11.355  11.578   9.716 -0.2714  0.0894 -0.0022
  584MOL0     H77047  11.507  11.507   9.655 -0.3680 -2.0835 -1.0192
  584MOL0     H77048  11.212  11.405   9.602 -0.1357 -1.7999 -2.2801
  584MOL0     H77049  11.347  11.332   9.531 -1.3220 -1.0491 -0.5716
  584MOL0     H77050  11.082  11.599   9.491  1.6966  0.1790  1.3060
  584MOL0     H77051  10.913  11.565   9.301  0.7115 -1.0279 -0.0312
  584MOL0     H77052  10.633  11.251   9.061  1.7136  1.3780 -0.4697
  584MOL0     H77053  10.479  11.190   8.866 -2.2566  1.6127 -2.0185
  584MOL0     H77054  10.524  11.438   8.491 -0.8274  1.4480 -0.1629
  584MOL0     H77055  10.427  11.534   8.578  0.5523  0.7764 -1.7515
  584MOL0     H77056  10.226  11.411   8.486  0.1025  1.6636 -0.2189
  584MOL0     H77057  10.330  11.294   8.409  1.1269 -0.1845  0.3086
  584MOL0     H77058  10.445  11.493   8.275  1.1837 -1.2655  1.7474
  584MOL0     H77059  10.314  11.589   8.346  1.6175 -0.8173  3.7234
  584MOL0     H77060  10.281  11.351   8.154  1.7448 -0.1768  0.0158
  584MOL0     H77061  10.149  11.426   8.240  1.6623 -0.0773  1.4789
  584MOL0     H77062  10.315  11.550   8.023 -2.4396  1.5131 -1.1944
  584MOL0     H77063  10.283  11.652   8.156  4.5403 -0.9806  1.6533
  584MOL0     H77064  10.065  11.488   8.022 -0.4744 -0.0690  2.6342
  584MOL0     H77065  10.113  11.653   7.969  3.5645  4.9014  2.6529
  584MOL0     H77066   9.953  11.580   8.194 -0.2470  1.2472  0.0885
  584MOL0     H77067  10.071  11.710   8.222 -1.1130 -0.2974  0.5033
  584MOL0     H77068   9.885  11.707   7.976 -1.3434 -0.9954 -0.1284
  584MOL0     H77069   9.954  11.846   8.059 -0.8136  0.2600 -2.1439
  584MOL0     H77070  10.625  11.525   8.658 -1.5218  0.3179  0.6061
  584MOL0     H77071  10.806  11.568   8.852 -0.3980 -0.2363 -0.6303
  584MOL0     H77072  11.218  11.387   9.065  3.7746 -1.7874  2.6564
  584MOL0     H77073  11.383  11.434   9.240  0.6749  1.7879 -1.2882
  584MOL0     H77074  11.168  10.297   8.532  1.0139  1.5854  2.5085
  584MOL0     H77075  10.980  10.112   8.521  3.2801  2.0108 -3.1643
  584MOL0     H77076  10.551  10.041   8.265 -1.1218 -1.5000 -0.7048
  584MOL0     H77077  10.361   9.908   8.236  0.3303  1.3893  0.3353
  584MOL0     H77078  10.144   9.829   8.586  1.9409 -0.3872  1.8949
  584MOL0     H77079  10.194   9.655   8.604 -3.1460  0.1539  0.9428
  584MOL0     H77080  10.002   9.735   8.394  0.6349  0.5931 -1.0514
  584MOL0     H77081  10.059   9.578   8.431 -0.1473  0.1758 -0.7645
  584MOL0     H77082   9.942   9.718   8.674  2.4610 -0.8701 -0.4920
  584MOL0     H77083   9.939   9.557   8.625 -1.6808  0.7595  2.7477
  584MOL0     H77084   9.794   9.614   8.430  1.2147  0.7733 -0.1837
  584MOL0     H77085   9.728   9.622   8.591 -1.1243 -1.0436 -1.3944
  584MOL0     H77086   9.720  10.034   8.483 -1.9658  0.0176 -2.4098
  584MOL0     H77087  10.370   9.825   8.657  0.6657  1.8960  1.4760
  584MOL0     H77088  10.568   9.945   8.683  0.3763 -1.4365  1.1422
  585MOL0     O77089   2.800   2.052   2.988 -0.6671 -0.5264  0.6783
  585MOL0     C77090   2.812   2.032   3.110  0.0300  0.7994  0.1930
  585MOL0     O77091   2.726   2.084   3.207 -0.6555  0.2798  0.1520
  585MOL0     C77092   2.630   2.170   3.150 -0.7041  0.4996 -0.5760
  585MOL0     C77093   2.636   2.310   3.188 -0.3367  0.1519  0.3491
  585MOL0     C77094   2.540   2.400   3.137  0.3249  0.3922 -1.2872
  585MOL0     C77095   2.440   2.358   3.051 -0.7291  0.1677  0.1629
  585MOL0     O77096   2.350   2.437   2.986  0.2597 -0.0486 -0.1042
  585MOL0     C77097   2.316   2.563   3.046  0.1528  0.8924  0.0517
  585MOL0     C77098   2.167   2.579   3.007  0.5911  0.7288  0.7712
  585MOL0     C77099   2.086   2.450   2.968 -0.4870 -0.4986 -0.7858
  585MOL0     C77100   1.939   2.491   2.932  0.0627  0.4964  0.1174
  585MOL0     C77101   1.851   2.369   2.878 -0.1631  0.0311 -0.0974
  585MOL0     C77102   1.701   2.390   2.850  0.1335  0.1269 -0.4374
  585MOL0     C77103   1.669   2.515   2.772 -0.0896  0.1201  0.2880
  585MOL0     C77104   1.623   2.643   2.856 -1.1275  1.0728 -0.0052
  585MOL0     N77105   1.605   2.771   2.777 -0.2736  0.6834  0.3132
  585MOL0     C77106   1.516   2.783   2.675 -0.1859 -0.8317  0.4406
  585MOL0     C77107   1.531   2.904   2.614 -0.6599  0.9762 -0.0593
  585MOL0     C77108   1.452   2.955   2.498 -0.7831 -0.5647  1.1996
  585MOL0     C77109   1.303   2.942   2.496 -0.2555  0.0990 -0.6165
  585MOL0     C77110   1.239   2.973   2.365  0.0928 -1.1910  0.2655
  585MOL0     C77111   1.181   3.118   2.376 -0.8391  0.0230  0.3706
  585MOL0     O77112   1.075   3.119   2.469  0.6746  0.9792  0.4615
  585MOL0     C77113   0.961   3.113   2.405 -0.1869  0.1354  1.0885
  585MOL0     C77114   0.892   3.000   2.417 -0.5974 -0.3954  0.1150
  585MOL0     C77115   0.781   2.966   2.335 -0.7417 -0.6599  1.1847
  585MOL0     C77116   0.736   3.055   2.242 -0.2927  0.8751 -0.5267
  585MOL0     C77117   0.627   3.024   2.154 -0.1444 -0.1731  0.4873
  585MOL0     O77118   0.556   2.910   2.182  0.0131  0.2849 -0.0315
  585MOL0     C77119   0.434   2.891   2.110 -0.2401  0.2760 -0.4456
  585MOL0     C77120   0.313   2.855   2.181 -0.7331 -0.7734  0.3292
  585MOL0     C77121   0.195   2.820   2.119 -0.8476  0.7669 -0.2672
  585MOL0     C77122   0.191   2.838   1.975  0.3978 -0.1967  0.3330
  585MOL0     O77123   0.083   2.835   1.891 -0.5579 -0.0838  0.8498
  585MOL0     C77124  -0.041   2.890   1.944 -1.4499  0.4237 -0.0492
  585MOL0     C77125  -0.141   2.778   1.945  0.2439  1.2330  0.3230
  585MOL0     C77126  -0.175   2.729   1.801  0.2928 -0.7618  0.1986
  585MOL0     C77127  -0.276   2.827   1.744 -0.0796 -0.8053  0.4767
  585MOL0     C77128  -0.283   2.823   1.590  0.4497  1.2217 -0.6840
  585MOL0     C77129  -0.366   2.696   1.540 -0.4303 -0.4419  0.0857
  585MOL0     C77130  -0.425   2.699   1.396 -0.3566 -0.3512  0.9796
  585MOL0     C77131  -0.305   2.683   1.300  0.2122 -0.7071  0.4834
  585MOL0    Cl77132  -0.357   2.652   1.132 -0.1633 -0.3101 -0.1505
  585MOL0     C77133   0.313   2.867   1.907  0.0796  0.2554  0.2245
  585MOL0     C77134   0.430   2.894   1.971 -0.4844  0.5021  1.1241
  585MOL0     O77135   0.596   3.110   2.072  0.3444  0.2023 -0.5543
  585MOL0     C77136   0.793   3.183   2.235  0.0277  0.0447  1.0755
  585MOL0     C77137   0.908   3.206   2.311  0.4461 -0.2176  0.2860
  585MOL0     N77138   1.628   2.963   2.691  0.4690 -0.2564  0.6817
  585MOL0     N77139   1.676   2.885   2.776 -0.5290  0.3795  0.6706
  585MOL0     C77140   2.444   2.222   3.013  0.5841  0.2450 -0.8560
  585MOL0     C77141   2.529   2.122   3.069 -0.0663 -0.3279  0.0896
  585MOL0     C77142   2.911   1.934   3.167  0.1290 -0.1040  0.7184
  585MOL0     C77143   3.007   1.876   3.086 -0.1572 -0.5731  1.1328
  585MOL0     C77144   3.107   1.783   3.122  0.1401  0.1205  0.7056
  585MOL0     C77145   3.107   1.740   3.253  0.4345  0.2938  0.6091
  585MOL0     O77146   3.193   1.640   3.276  0.1967 -0.2782 -0.8202
  585MOL0     C77147   3.183   1.580   3.408  0.1644 -0.3849  0.3023
  585MOL0     C77148   3.088   1.453   3.421  0.1900  0.0723 -0.0883
  585MOL0     C77149   3.147   1.323   3.354 -0.7842  0.0389  1.0330
  585MOL0     C77150   3.038   1.211   3.357  0.7060  1.0903 -0.9291
  585MOL0     C77151   3.075   1.086   3.295  0.6881  1.1724 -0.6877
  585MOL0     C77152   3.108   0.979   3.249  1.2854 -0.3950  0.6537
  585MOL0     C77153   3.010   1.802   3.337  0.0620  0.0166 -1.2912
  585MOL0     C77154   2.910   1.894   3.300 -0.0317 -0.2636 -0.2813
  585MOL0     H77155   2.716   2.340   3.255 -1.1697  0.7276  1.1156
  585MOL0     H77156   2.555   2.501   3.172  1.2101  0.1839 -1.0535
  585MOL0     H77157   2.382   2.646   3.018  1.0910  0.2206  0.2414
  585MOL0     H77158   2.312   2.548   3.154  1.4028  2.3761  0.3395
  585MOL0     H77159   2.160   2.640   2.917  0.8323 -3.6848 -2.5709
  585MOL0     H77160   2.117   2.630   3.090  1.2931  0.2732  1.4820
  585MOL0     H77161   2.081   2.380   3.052 -1.5670 -0.8462 -1.1294
  585MOL0     H77162   2.144   2.422   2.880  0.2442  3.1161 -1.6032
  585MOL0     H77163   1.897   2.536   3.023  0.2870 -0.4525  0.7156
  585MOL0     H77164   1.933   2.569   2.857  1.5875  1.2041  0.6917
  585MOL0     H77165   1.856   2.286   2.949 -2.8326 -1.7037 -1.7411
  585MOL0     H77166   1.895   2.325   2.788 -1.1307 -0.7426 -0.2199
  585MOL0     H77167   1.633   2.395   2.935 -0.9270 -2.5720 -1.0196
  585MOL0     H77168   1.665   2.305   2.791  0.1982 -0.6102  0.5594
  585MOL0     H77169   1.759   2.552   2.722 -0.4873 -0.3001 -0.7724
  585MOL0     H77170   1.600   2.482   2.694  2.1102  0.8554 -2.1267
  585MOL0     H77171   1.706   2.664   2.925  0.5205 -2.0357 -0.8234
  585MOL0     H77172   1.536   2.629   2.920  0.7976  0.5662  2.6494
  585MOL0     H77173   1.435   2.715   2.651 -0.8862  0.6307 -1.5396
  585MOL0     H77174   1.493   2.900   2.413  1.9413 -1.1788  2.8102
  585MOL0     H77175   1.468   3.062   2.481 -2.4230 -0.4919 -0.2144
  585MOL0     H77176   1.256   2.995   2.579 -1.5591 -2.6933  0.5862
  585MOL0     H77177   1.292   2.834   2.513  1.1467  0.1714  1.1562
  585MOL0     H77178   1.311   2.963   2.283 -2.3067  1.3108 -2.4346
  585MOL0     H77179   1.155   2.904   2.352 -1.5583  0.6045  0.8933
  585MOL0     H77180   1.153   3.145   2.274 -1.8096  2.7166  1.2467
  585MOL0     H77181   1.265   3.183   2.401  2.5284 -3.9776  0.4695
  585MOL0     H77182   0.935   2.931   2.489  0.6764  0.5303  0.2910
  585MOL0     H77183   0.735   2.872   2.362  2.2662 -2.1792  1.4704
  585MOL0     H77184   0.319   2.866   2.289  1.6313  1.4132  0.0764
  585MOL0     H77185   0.107   2.806   2.180 -0.8880  0.9025 -0.2931
  585MOL0     H77186  -0.079   2.955   1.865 -2.3591 -0.3467 -0.2655
  585MOL0     H77187  -0.028   2.941   2.040 -1.5874  1.9857 -0.8315
  585MOL0     H77188  -0.233   2.804   1.999  0.4791  1.7399  0.4758
  585MOL0     H77189  -0.088   2.699   2.000 -3.3410 -1.9127 -0.2773
  585MOL0     H77190  -0.226   2.632   1.803 -0.9613 -0.1400 -0.4257
  585MOL0     H77191  -0.089   2.721   1.735  0.2079  1.3132 -0.2386
  585MOL0     H77192  -0.376   2.813   1.786  0.3014 -1.2062  1.2731
  585MOL0     H77193  -0.243   2.930   1.754  0.4893 -0.6969 -1.8965
  585MOL0     H77194  -0.179   2.816   1.556  1.7757  0.7294  3.0463
  585MOL0     H77195  -0.332   2.908   1.543  0.6454  2.3022  1.0115
  585MOL0     H77196  -0.452   2.690   1.607 -1.3820  0.7764 -0.9718
  585MOL0     H77197  -0.291   2.617   1.551  1.9202  1.6417  0.1033
  585MOL0     H77198  -0.488   2.610   1.383  0.4263 -1.0905  2.1473
  585MOL0     H77199  -0.488   2.785   1.372  0.5377 -0.1670 -0.9080
  585MOL0     H77200  -0.253   2.595   1.338 -2.0224 -3.0555 -1.5488
  585MOL0     H77201  -0.232   2.764   1.303  0.2274 -0.6236 -1.1848
  585MOL0     H77202   0.322   2.851   1.800  0.5388 -0.7606  0.3972
  585MOL0     H77203   0.521   2.905   1.912 -0.7441  3.3278  1.1257
  585MOL0     H77204   0.769   3.256   2.158  0.2917 -0.8010  0.1631
  585MOL0     H77205   0.965   3.298   2.306  0.7609 -0.4496 -0.6288
  585MOL0     H77206   2.362   2.186   2.950 -0.0719 -2.4987  1.3696
  585MOL0     H77207   2.519   2.015   3.052 -1.5031  0.2234 -3.0974
  585MOL0     H77208   2.993   1.897   2.980  1.2576 -1.4260  0.7420
  585MOL0     H77209   3.174   1.732   3.053 -0.3255  0.6147 -0.1234
  585MOL0     H77210   3.173   1.648   3.494  0.1808 -4.3537  3.7465
  585MOL0     H77211   3.282   1.541   3.434  0.9767 -0.0816 -2.0435
  585MOL0     H77212   3.084   1.425   3.527  2.2272  2.7456  0.8088
  585MOL0     H77213   2.993   1.490   3.382  1.2234  2.5065 -0.5408
  585MOL0     H77214   3.233   1.280   3.406  0.0992  0.8466  0.2873
  585MOL0     H77215   3.190   1.326   3.253 -1.3649  1.5993  0.8048
  585MOL0     H77216   3.022   1.196   3.464 -0.2603 -1.9223 -1.4084
  585MOL0     H77217   2.948   1.245   3.305  1.1916  1.9312 -1.2455
  585MOL0     H77218   3.132   0.880   3.216  0.1294 -0.9955  1.5219
  585MOL0     H77219   3.013   1.768   3.440  2.2935 -3.2208 -2.2805
  585MOL0     H77220   2.851   1.930   3.383  0.4048 -3.6781  1.6806
  586MOL0     O77221   6.047   7.390   7.036 -0.5020  0.1953 -0.1274
  586MOL0     C77222   5.942   7.357   6.983 -1.6779  0.3911  0.7554
  586MOL0     O77223   5.874   7.439   6.888 -0.2494 -0.4778 -0.2748
  586MOL0     C77224   5.913   7.572   6.869 -0.1813  0.3066  0.4828
  586MOL0     C77225   5.928   7.657   6.985  0.8346 -0.2607  0.0036
  586MOL0     C77226   5.968   7.788   6.965  0.2971 -0.4139  0.4200
  586MOL0     C77227   5.995   7.845   6.838  0.7470  0.3553  0.2458
  586MOL0     O77228   6.021   7.980   6.850 -0.8978  0.0078  0.8933
  586MOL0     C77229   6.098   8.039   6.735 -0.5324  0.2551 -0.2034
  586MOL0     C77230   6.005   8.104   6.625  0.2443  0.6092 -0.9897
  586MOL0     C77231   5.898   8.208   6.671  0.2783 -0.6319 -1.1466
  586MOL0     C77232   5.964   8.327   6.755  0.0949  0.1276  0.2363
  586MOL0     C77233   5.878   8.458   6.767  0.3370 -0.7075  1.0498
  586MOL0     C77234   5.764   8.415   6.859  0.0359  0.0759 -1.0378
  586MOL0     C77235   5.696   8.541   6.931 -0.2183  0.4999  0.9780
  586MOL0     C77236   5.599   8.603   6.823  0.6025 -0.0592  1.0279
  586MOL0     N77237   5.564   8.752   6.839  0.1830  0.9054 -0.4360
  586MOL0     C77238   5.503   8.834   6.744 -0.6114 -0.1688  0.4995
  586MOL0     C77239   5.495   8.954   6.809  0.2484 -0.0302 -0.9752
  586MOL0     C77240   5.456   9.086   6.741 -1.1605 -0.5171 -0.8419
  586MOL0     C77241   5.327   9.068   6.670  0.1322  0.3123  0.4685
  586MOL0     C77242   5.281   9.212   6.625  0.4177  0.7375 -0.4352
  586MOL0     C77243   5.320   9.247   6.483  0.7581 -0.0988  0.2601
  586MOL0     O77244   5.232   9.175   6.392  0.0263 -0.4668 -0.3651
  586MOL0     C77245   5.246   9.179   6.256 -0.7194  0.3598  0.5784
  586MOL0     C77246   5.344   9.249   6.190 -0.3500  0.9902  0.1586
  586MOL0     C77247   5.355   9.255   6.052 -0.7284 -0.0489 -0.3899
  586MOL0     C77248   5.272   9.178   5.964 -0.0844 -0.7337 -0.2465
  586MOL0     C77249   5.292   9.188   5.823  0.7773 -0.7523  0.1773
  586MOL0     O77250   5.190   9.144   5.748  0.5351  0.5914 -0.4611
  586MOL0     C77251   5.199   9.157   5.612 -0.0794 -0.7078 -0.5159
  586MOL0     C77252   5.132   9.265   5.548 -0.0272 -0.2013  0.0571
  586MOL0     C77253   5.114   9.257   5.405 -0.1659 -0.6164 -0.4644
  586MOL0     C77254   5.167   9.154   5.330  0.1129 -0.5648 -0.1520
  586MOL0     O77255   5.160   9.164   5.193  0.1044  0.0135 -0.3275
  586MOL0     C77256   5.208   9.053   5.111 -1.2055  0.8089 -1.1599
  586MOL0     C77257   5.192   9.067   4.957 -0.3663  0.1396  0.6139
  586MOL0     C77258   5.287   8.960   4.889 -0.9735  0.5024 -0.0465
  586MOL0     C77259   5.258   8.984   4.733  0.1771 -0.0838  0.7292
  586MOL0     C77260   5.338   8.884   4.652 -0.5412 -0.0834  0.9413
  586MOL0     C77261   5.318   8.919   4.503 -0.8804  0.3442  0.8527
  586MOL0     C77262   5.399   8.824   4.405 -0.4171 -0.4434 -0.6579
  586MOL0     C77263   5.375   8.870   4.259 -1.3855  0.1634  0.5580
  586MOL0    Cl77264   5.198   8.835   4.231 -0.3282 -0.4575 -0.2775
  586MOL0     C77265   5.239   9.054   5.403  0.4053  0.4568 -0.1630
  586MOL0     C77266   5.246   9.043   5.536  0.6444  0.5627  0.2559
  586MOL0     O77267   5.408   9.239   5.786  0.6658  0.5975 -0.4848
  586MOL0     C77268   5.166   9.118   6.031 -0.4563 -0.4988  0.9213
  586MOL0     C77269   5.159   9.109   6.169 -0.3716 -0.4034 -0.8413
  586MOL0     N77270   5.536   8.940   6.944  0.2588  1.0590 -0.3952
  586MOL0     N77271   5.580   8.816   6.955  0.9017 -0.1121 -0.1494
  586MOL0     C77272   5.983   7.759   6.727  0.1707  0.1554 -0.3170
  586MOL0     C77273   5.952   7.623   6.745  1.0327  0.3850  0.2869
  586MOL0     C77274   5.897   7.218   6.984 -0.5559 -0.1327  0.9022
  586MOL0     C77275   5.773   7.171   6.914  0.0307 -0.5080 -0.4583
  586MOL0     C77276   5.745   7.035   6.916  0.2116  0.0254  0.0588
  586MOL0     C77277   5.835   6.937   6.964  0.5167  0.2389  0.8038
  586MOL0     O77278   5.816   6.802   6.956 -0.2214  0.0839  0.4217
  586MOL0     C77279   5.700   6.769   7.036  0.3732  0.2084 -0.1433
  586MOL0     C77280   5.695   6.615   7.026  0.3677  0.0773 -0.1279
  586MOL0     C77281   5.708   6.555   6.875  0.7015 -0.5982 -0.3328
  586MOL0     C77282   5.608   6.608   6.765  0.9109  0.2298 -0.0975
  586MOL0     C77283   5.479   6.540   6.789  0.0531  0.5697  0.2228
  586MOL0     C77284   5.380   6.468   6.812 -0.4820 -0.1129  0.3812
  586MOL0     C77285   5.952   6.977   7.022  0.6267 -0.5116 -1.1189
  586MOL0     C77286   5.987   7.115   7.022  0.3541 -0.3619  0.3860
  586MOL0     H77287   5.889   7.620   7.080 -2.7191 -0.3856 -1.3306
  586MOL0     H77288   5.968   7.859   7.047  1.6566 -0.1660  0.2310
  586MOL0     H77289   6.160   7.955   6.702  1.2112  0.0721  3.1057
  586MOL0     H77290   6.157   8.123   6.772  0.2901 -0.9280  1.2910
  586MOL0     H77291   5.954   8.018   6.581  3.0962 -1.5730 -0.3567
  586MOL0     H77292   6.075   8.151   6.554  1.7169 -1.1143 -0.7494
  586MOL0     H77293   5.837   8.148   6.740  0.7964  0.8102  0.6510
  586MOL0     H77294   5.834   8.242   6.589 -1.3076  2.2964  1.1086
  586MOL0     H77295   6.012   8.301   6.850 -0.1562 -1.2578  0.0037
  586MOL0     H77296   6.052   8.354   6.695 -2.0011  0.0572 -3.1463
  586MOL0     H77297   5.842   8.493   6.670 -0.4110  1.6147  2.0968
  586MOL0     H77298   5.940   8.529   6.822  0.6791 -0.4991  0.4025
  586MOL0     H77299   5.808   8.351   6.936 -2.1756  1.4806  1.5730
  586MOL0     H77300   5.683   8.356   6.815  0.6296 -0.5236 -1.3436
  586MOL0     H77301   5.644   8.512   7.023  0.4002 -4.0051  0.1159
  586MOL0     H77302   5.766   8.618   6.965  1.0725 -0.4580  0.5735
  586MOL0     H77303   5.509   8.542   6.808  0.7743 -0.6626  2.3768
  586MOL0     H77304   5.634   8.609   6.719 -0.8534  2.2804  0.5889
  586MOL0     H77305   5.483   8.816   6.639 -0.4219  4.1606 -0.4439
  586MOL0     H77306   5.541   9.118   6.679  0.4369 -0.3940  1.3194
  586MOL0     H77307   5.446   9.157   6.823  2.1936 -1.9976  1.0665
  586MOL0     H77308   5.253   9.026   6.738 -0.4923 -2.2466 -1.6184
  586MOL0     H77309   5.331   9.003   6.582 -2.8095  0.0952  0.3891
  586MOL0     H77310   5.172   9.227   6.624  0.4866  1.5058 -3.1155
  586MOL0     H77311   5.323   9.292   6.686 -1.0465  2.2846 -1.3782
  586MOL0     H77312   5.426   9.222   6.470  2.2293  4.7332  1.0667
  586MOL0     H77313   5.297   9.352   6.466 -2.7191 -0.4229  2.0612
  586MOL0     H77314   5.400   9.305   6.264 -2.0364 -0.0094  2.3204
  586MOL0     H77315   5.440   9.304   6.008  0.9808 -4.2508 -2.3796
  586MOL0     H77316   5.084   9.339   5.611  4.5093  3.4694 -0.2356
  586MOL0     H77317   5.042   9.327   5.364 -1.3332 -1.2644  0.4596
  586MOL0     H77318   5.172   8.961   5.158  1.4547 -0.2660 -1.0414
  586MOL0     H77319   5.314   9.042   5.135 -1.2936 -0.8590 -1.4798
  586MOL0     H77320   5.225   9.169   4.936  0.5506  0.2174  2.2946
  586MOL0     H77321   5.091   9.060   4.916  0.5441  0.4654 -1.8175
  586MOL0     H77322   5.258   8.862   4.927  3.1259 -0.4819  1.0299
  586MOL0     H77323   5.392   8.973   4.918 -1.2319  0.7141  0.8358
  586MOL0     H77324   5.153   8.979   4.702  0.2784  1.2424  0.1210
  586MOL0     H77325   5.297   9.081   4.701 -1.5232  0.2761 -0.4107
  586MOL0     H77326   5.304   8.785   4.685 -0.8909  1.0798  4.4893
  586MOL0     H77327   5.441   8.907   4.679  0.0011 -2.4849  1.1836
  586MOL0     H77328   5.354   9.019   4.481  5.0870 -1.6232 -0.2591
  586MOL0     H77329   5.211   8.922   4.480 -0.4345 -2.7717 -2.7497
  586MOL0     H77330   5.503   8.830   4.436 -0.0593 -2.8154 -1.2111
  586MOL0     H77331   5.352   8.725   4.417  2.0114 -1.5526  0.2916
  586MOL0     H77332   5.433   8.806   4.192 -0.4427  0.2971  1.2398
  586MOL0     H77333   5.407   8.973   4.241 -1.3569  0.2002  0.8227
  586MOL0     H77334   5.286   8.968   5.355  1.6691  0.5079  0.8964
  586MOL0     H77335   5.294   8.960   5.586  0.3015  1.9067  2.9626
  586MOL0     H77336   5.088   9.060   5.984 -0.9306  0.9468 -0.1264
  586MOL0     H77337   5.070   9.050   6.190 -1.1901  1.2406  0.5891
  586MOL0     H77338   5.988   7.790   6.623 -3.3477  0.1910 -0.5842
  586MOL0     H77339   5.952   7.557   6.659 -1.7529  1.9515 -1.0312
  586MOL0     H77340   5.700   7.240   6.871  0.8489  0.5447 -0.2153
  586MOL0     H77341   5.656   7.015   6.857 -1.4273  1.7613  1.8448
  586MOL0     H77342   5.603   6.800   6.997 -0.5788 -3.5701 -1.1713
  586MOL0     H77343   5.694   6.795   7.142  1.3806 -2.5031  0.6722
  586MOL0     H77344   5.785   6.588   7.081  0.6725  1.2419 -0.0235
  586MOL0     H77345   5.601   6.577   7.066 -1.8206  2.5333 -2.4642
  586MOL0     H77346   5.699   6.446   6.876 -0.9713 -0.4818 -0.4283
  586MOL0     H77347   5.810   6.580   6.845  1.0698 -1.6286 -0.0012
  586MOL0     H77348   5.596   6.717   6.769  0.1543  0.1090  3.1315
  586MOL0     H77349   5.657   6.592   6.668  2.0359 -2.3617  0.8020
  586MOL0     H77350   5.295   6.404   6.819 -0.1705 -0.9708 -2.4587
  586MOL0     H77351   6.017   6.900   7.063  0.0659  0.9048  2.8750
  586MOL0     H77352   6.083   7.135   7.068  0.0977 -1.2645  1.3364
  587MOL0     O77353   0.026   1.353   4.360  0.2667 -0.3711 -0.3033
  587MOL0     C77354   0.001   1.288   4.254  0.2358  0.4918 -0.0079
  587MOL0     O77355   0.075   1.302   4.143  0.6673  0.4288 -0.0904
  587MOL0     C77356   0.194   1.376   4.146 -0.8694  0.3537 -0.8334
  587MOL0     C77357   0.183   1.492   4.071 -0.0638 -0.4304 -0.3288
  587MOL0     C77358   0.284   1.591   4.075  0.1053 -0.1856 -0.1099
  587MOL0     C77359   0.406   1.561   4.140  0.3061  0.4852 -0.7069
  587MOL0     O77360   0.501   1.661   4.145  0.0303  0.0305  0.3154
  587MOL0     C77361   0.533   1.713   4.278 -0.0986  0.0309  0.3055
  587MOL0     C77362   0.398   1.766   4.333 -0.0360 -0.2907  0.3800
  587MOL0     C77363   0.405   1.845   4.464  0.3110 -0.3210 -0.7704
  587MOL0     C77364   0.422   1.996   4.437 -0.4938  1.9232  0.9340
  587MOL0     C77365   0.473   2.043   4.567  0.3943  0.1165  1.6213
  587MOL0     C77366   0.489   2.196   4.576 -0.0358  0.4354 -0.4645
  587MOL0     C77367   0.348   2.258   4.566 -0.2610 -0.0021  0.7631
  587MOL0     C77368   0.354   2.407   4.608  0.0126 -0.6003  0.0937
  587MOL0     N77369   0.224   2.448   4.655  0.4958 -0.7695 -0.1221
  587MOL0     C77370   0.197   2.528   4.766  0.9998  0.4085 -0.1560
  587MOL0     C77371   0.068   2.513   4.793  0.7427 -0.2942 -0.1879
  587MOL0     C77372  -0.001   2.582   4.911 -0.1483  0.3509 -0.4818
  587MOL0     C77373  -0.155   2.572   4.900  0.4328 -0.9736 -0.3779
  587MOL0     C77374  -0.225   2.609   5.033  0.1578  0.3131  0.4519
  587MOL0     C77375  -0.376   2.610   5.017  0.1052  0.4162 -0.5267
  587MOL0     O77376  -0.445   2.596   5.146  0.5623 -0.6342 -0.6984
  587MOL0     C77377  -0.436   2.697   5.241  0.3429  0.8242 -0.5692
  587MOL0     C77378  -0.374   2.820   5.224  0.5926 -0.4376 -0.9289
  587MOL0     C77379  -0.379   2.920   5.323  0.0751  0.2701 -0.3181
  587MOL0     C77380  -0.450   2.893   5.447 -0.1907 -0.2772 -0.7902
  587MOL0     C77381  -0.460   3.005   5.541  0.1868  0.4584 -0.8638
  587MOL0     O77382  -0.582   3.014   5.598 -0.1328  0.2255 -0.5461
  587MOL0     C77383  -0.613   3.114   5.695 -0.8056  0.0060  0.1814
  587MOL0     C77384  -0.527   3.191   5.774 -0.1049  0.2444 -0.3706
  587MOL0     C77385  -0.569   3.242   5.898  0.4133  1.0827  0.2755
  587MOL0     C77386  -0.697   3.215   5.942  0.1238 -0.4280 -0.4577
  587MOL0     O77387  -0.754   3.273   6.054  0.4277  0.6005  0.0048
  587MOL0     C77388  -0.765   3.415   6.049  0.2047  0.9157 -0.5348
  587MOL0     C77389  -0.913   3.433   6.011 -0.4942  0.2178 -0.1935
  587MOL0     C77390  -1.015   3.372   6.114  0.1540  0.2936  0.2630
  587MOL0     C77391  -1.140   3.314   6.047  0.3875 -0.5598  0.0427
  587MOL0     C77392  -1.276   3.358   6.120 -0.3297 -0.1439 -0.3839
  587MOL0     C77393  -1.387   3.271   6.067  1.1744  1.0287  1.0966
  587MOL0     C77394  -1.420   3.164   6.162 -0.0417  0.4636  0.0299
  587MOL0     C77395  -1.541   3.083   6.133  0.2346 -1.0578 -1.1366
  587MOL0    Cl77396  -1.696   3.165   6.170  0.3252  0.0244  0.2083
  587MOL0     C77397  -0.780   3.140   5.862  0.3421 -0.4094  0.5128
  587MOL0     C77398  -0.742   3.091   5.741  0.5757  0.0117 -0.1893
  587MOL0     O77399  -0.366   3.083   5.546 -0.4360  0.8437  0.0361
  587MOL0     C77400  -0.510   2.764   5.473  0.3555 -0.9997 -0.3544
  587MOL0     C77401  -0.493   2.666   5.368  1.1792  0.2302  0.4053
  587MOL0     N77402   0.015   2.438   4.697 -0.0509 -0.2043  0.1691
  587MOL0     N77403   0.103   2.397   4.619 -0.3238 -1.7109 -1.0339
  587MOL0     C77404   0.421   1.442   4.203 -0.3117  0.5237 -0.3226
  587MOL0     C77405   0.321   1.343   4.202  0.6027  1.0097 -0.4147
  587MOL0     C77406  -0.122   1.197   4.255 -0.1522 -0.0161 -0.4320
  587MOL0     C77407  -0.168   1.159   4.135 -0.2117 -1.2177 -0.1855
  587MOL0     C77408  -0.288   1.084   4.131  0.3306  0.0093 -0.6978
  587MOL0     C77409  -0.358   1.045   4.244 -0.9236 -0.4670  0.5750
  587MOL0     O77410  -0.463   0.955   4.235 -1.0422  0.0897  0.7652
  587MOL0     C77411  -0.436   0.812   4.252 -0.2255 -0.1882 -0.2180
  587MOL0     C77412  -0.347   0.753   4.143 -0.0051 -0.0556  1.0134
  587MOL0     C77413  -0.397   0.761   3.990 -0.4714 -0.5944 -0.1129
  587MOL0     C77414  -0.505   0.654   3.966  0.1261 -1.8117 -0.5660
  587MOL0     C77415  -0.644   0.673   4.026 -0.4614  0.2911 -0.1559
  587MOL0     C77416  -0.760   0.679   4.056 -0.2756 -0.6083 -0.1552
  587MOL0     C77417  -0.316   1.090   4.358  0.4009  0.6108  0.8497
  587MOL0     C77418  -0.198   1.165   4.369 -0.2409  0.3148  1.0224
  587MOL0     H77419   0.097   1.502   4.005  0.7354 -3.0998 -1.9758
  587MOL0     H77420   0.273   1.688   4.028  1.2688  0.3557  0.6670
  587MOL0     H77421   0.594   1.799   4.252 -0.0621  0.0837  0.5671
  587MOL0     H77422   0.576   1.641   4.349 -0.3482 -0.5971 -0.1673
  587MOL0     H77423   0.341   1.675   4.354 -0.5052 -0.5907 -1.8993
  587MOL0     H77424   0.342   1.821   4.256  1.9488  2.1639  0.5641
  587MOL0     H77425   0.488   1.811   4.527  0.3625 -0.1176 -0.7277
  587MOL0     H77426   0.304   1.833   4.506 -0.1902 -2.8808 -2.5055
  587MOL0     H77427   0.496   2.027   4.362 -0.8670 -0.2667 -0.4460
  587MOL0     H77428   0.320   2.024   4.410 -0.9257 -1.5856 -1.9004
  587MOL0     H77429   0.574   2.003   4.579  0.0861 -1.5074 -0.6585
  587MOL0     H77430   0.405   2.016   4.648  0.8470 -0.4433  1.8223
  587MOL0     H77431   0.538   2.248   4.493 -1.3066 -2.4998 -3.2431
  587MOL0     H77432   0.535   2.219   4.673  0.2482 -3.0108  0.3254
  587MOL0     H77433   0.307   2.245   4.465 -0.3209 -0.1589  0.8077
  587MOL0     H77434   0.276   2.199   4.623 -2.5601 -3.7445 -5.0571
  587MOL0     H77435   0.364   2.470   4.519 -3.4120 -1.3551 -0.9802
  587MOL0     H77436   0.435   2.437   4.676  0.6822 -2.7660  0.3225
  587MOL0     H77437   0.267   2.590   4.821  1.1496  0.9801 -0.9712
  587MOL0     H77438   0.042   2.682   4.914  1.5947 -0.3433  2.6880
  587MOL0     H77439   0.038   2.542   5.006  3.6158  0.5512 -1.7633
  587MOL0     H77440  -0.184   2.472   4.864 -0.0019 -1.4223  1.1618
  587MOL0     H77441  -0.179   2.650   4.827 -0.4661  1.0647  1.9627
  587MOL0     H77442  -0.207   2.533   5.110 -0.2519  0.1665  0.4061
  587MOL0     H77443  -0.195   2.708   5.067 -4.0363  2.7480 -2.1277
  587MOL0     H77444  -0.403   2.534   4.942  2.3599 -1.4118  0.3862
  587MOL0     H77445  -0.415   2.702   4.974  0.6243  0.5088 -0.8090
  587MOL0     H77446  -0.317   2.845   5.135 -0.8424 -1.0560 -2.0641
  587MOL0     H77447  -0.332   3.015   5.302  2.6130 -0.3445  1.9426
  587MOL0     H77448  -0.425   3.211   5.741  0.4228 -0.9086  0.4628
  587MOL0     H77449  -0.502   3.311   5.948  4.1200 -1.4425 -0.8179
  587MOL0     H77450  -0.692   3.465   5.985 -0.2895  1.6553 -0.5398
  587MOL0     H77451  -0.754   3.460   6.148  2.9010 -1.2609  0.2599
  587MOL0     H77452  -0.928   3.392   5.910 -0.2469 -0.8544  0.1952
  587MOL0     H77453  -0.929   3.541   6.018 -1.8543 -0.0094  0.5012
  587MOL0     H77454  -1.062   3.452   6.172 -1.4576  0.5696 -1.2987
  587MOL0     H77455  -0.979   3.296   6.183 -2.2707 -0.2145  1.0847
  587MOL0     H77456  -1.141   3.344   5.941  0.4678 -4.3438 -1.1973
  587MOL0     H77457  -1.118   3.207   6.035  2.1970 -0.2050 -0.1223
  587MOL0     H77458  -1.303   3.460   6.092 -2.0099 -0.2758  0.6375
  587MOL0     H77459  -1.263   3.343   6.227  2.3864 -0.2460 -0.6476
  587MOL0     H77460  -1.356   3.224   5.973  1.4013  1.4738  0.9458
  587MOL0     H77461  -1.477   3.325   6.039 -2.2602 -3.7275  1.7630
  587MOL0     H77462  -1.341   3.089   6.163  0.5605  1.0828  0.2822
  587MOL0     H77463  -1.431   3.203   6.264 -1.3134 -1.0485  0.5067
  587MOL0     H77464  -1.535   2.997   6.201  3.6115  2.2974  3.5274
  587MOL0     H77465  -1.548   3.054   6.028 -0.3053 -1.1229 -1.0868
  587MOL0     H77466  -0.884   3.132   5.890  0.6524  2.1122  2.8159
  587MOL0     H77467  -0.809   3.018   5.697 -1.5469  1.4990  0.3804
  587MOL0     H77468  -0.535   2.729   5.572  0.9794  0.1895  0.2489
  587MOL0     H77469  -0.510   2.563   5.399 -2.1134  0.1280 -1.2762
  587MOL0     H77470   0.518   1.414   4.243  0.9098  1.6988 -2.3195
  587MOL0     H77471   0.355   1.250   4.246  3.3163  3.2451  2.6686
  587MOL0     H77472  -0.112   1.177   4.044  1.6041 -4.0550  0.2538
  587MOL0     H77473  -0.341   1.034   4.050  3.4168 -2.0439 -1.6361
  587MOL0     H77474  -0.532   0.761   4.243 -1.4715  1.0998  3.5839
  587MOL0     H77475  -0.385   0.805   4.348 -1.9251 -1.8660  0.6212
  587MOL0     H77476  -0.250   0.804   4.141  1.5553 -2.8465 -0.3336
  587MOL0     H77477  -0.320   0.649   4.165  2.0772 -0.0516 -1.1363
  587MOL0     H77478  -0.315   0.752   3.919  0.3296  2.4111  0.2744
  587MOL0     H77479  -0.433   0.860   3.961  2.0281  0.9773  1.7090
  587MOL0     H77480  -0.511   0.658   3.857  2.0252 -1.2675 -0.6997
  587MOL0     H77481  -0.473   0.552   3.991  2.9583 -1.3117 -1.7714
  587MOL0     H77482  -0.859   0.700   4.093  0.4121  2.5237  0.1609
  587MOL0     H77483  -0.353   1.050   4.452  3.3859 -1.1008  1.4250
  587MOL0     H77484  -0.165   1.215   4.460 -1.1200  1.6883  0.6228
  588MOL0     O77485   6.591   5.692   7.599 -0.7486  0.9859  0.0695
  588MOL0     C77486   6.503   5.757   7.648 -0.1592  0.1309 -0.0152
  588MOL0     O77487   6.525   5.864   7.727  0.3966 -0.0861  0.3363
  588MOL0     C77488   6.648   5.913   7.739  1.1808 -0.2440  0.2544
  588MOL0     C77489   6.732   5.873   7.840 -0.9285 -0.0953  0.4006
  588MOL0     C77490   6.857   5.932   7.848  0.6043  0.1614 -0.1208
  588MOL0     C77491   6.907   6.019   7.751  0.4194 -0.5336 -0.1380
  588MOL0     O77492   7.031   6.076   7.770  0.2162  0.4517  0.2439
  588MOL0     C77493   7.136   6.043   7.676 -1.0097 -0.1216  1.2692
  588MOL0     C77494   7.283   6.083   7.708 -0.5992  0.4418  0.3324
  588MOL0     C77495   7.312   6.034   7.848 -0.6300  0.0482 -0.1345
  588MOL0     C77496   7.329   5.883   7.873  0.1287  0.2277  0.7575
  588MOL0     C77497   7.418   5.870   8.001  0.4004 -0.7213 -0.7694
  588MOL0     C77498   7.357   5.921   8.136 -0.2348 -0.1374  0.1459
  588MOL0     C77499   7.227   5.838   8.171 -0.8968 -0.2749 -0.7610
  588MOL0     C77500   7.191   5.846   8.326 -0.1840  0.5211 -0.1595
  588MOL0     N77501   7.073   5.761   8.337  0.0195 -0.2962  0.2642
  588MOL0     C77502   6.952   5.810   8.316 -0.4636 -0.5252  0.2730
  588MOL0     C77503   6.862   5.715   8.372 -0.2633 -0.5429  0.2243
  588MOL0     C77504   6.716   5.730   8.348 -0.0432 -0.1729  0.5048
  588MOL0     C77505   6.638   5.622   8.415  0.3675  0.9165  0.1432
  588MOL0     C77506   6.651   5.485   8.350 -0.3475 -0.4568  0.4012
  588MOL0     C77507   6.574   5.395   8.439  0.1125  0.3653 -0.2719
  588MOL0     O77508   6.569   5.272   8.381  0.0908  0.7352  0.1853
  588MOL0     C77509   6.511   5.245   8.255 -0.4633  1.2654 -1.1283
  588MOL0     C77510   6.406   5.311   8.210  0.8677  0.3110 -0.5203
  588MOL0     C77511   6.348   5.286   8.090 -0.1359  1.2191  0.7658
  588MOL0     C77512   6.400   5.171   8.009  0.8307 -0.0635  0.0368
  588MOL0     C77513   6.338   5.140   7.884  0.0100  0.1890 -0.2118
  588MOL0     O77514   6.283   5.251   7.825 -0.0378 -0.4177  0.1040
  588MOL0     C77515   6.212   5.235   7.717  0.1131 -0.0623 -0.8911
  588MOL0     C77516   6.088   5.166   7.719  0.4506 -0.3566  0.3255
  588MOL0     C77517   6.007   5.182   7.608 -0.4007  0.8172 -0.0253
  588MOL0     C77518   6.060   5.252   7.494 -0.5985  0.3263 -0.4740
  588MOL0     O77519   5.991   5.239   7.373 -0.7448 -1.6455 -0.1577
  588MOL0     C77520   5.888   5.331   7.356  0.3185  0.4669  0.3477
  588MOL0     C77521   5.843   5.307   7.209  0.3623  0.7230 -0.0100
  588MOL0     C77522   5.779   5.434   7.167 -0.4471 -0.4225 -0.6979
  588MOL0     C77523   5.895   5.522   7.123  0.1231  0.0471  0.2848
  588MOL0     C77524   5.844   5.664   7.105 -0.3698 -0.2444 -0.0521
  588MOL0     C77525   5.836   5.729   7.244 -0.5887 -0.6391  0.4162
  588MOL0     C77526   5.795   5.878   7.230 -0.3377 -0.3441  0.6102
  588MOL0     C77527   5.803   5.963   7.351 -0.8322 -0.3930 -0.1988
  588MOL0    Cl77528   5.962   5.988   7.429 -0.0088 -0.0377  0.2215
  588MOL0     C77529   6.181   5.316   7.497 -0.0870  0.3637 -1.1313
  588MOL0     C77530   6.263   5.317   7.613 -0.2275  0.3900 -0.0866
  588MOL0     O77531   6.345   5.034   7.834 -0.8038  0.2761  0.1994
  588MOL0     C77532   6.496   5.096   8.072 -0.6242  1.0064 -0.3691
  588MOL0     C77533   6.554   5.139   8.190 -0.5065  0.2674  0.0164
  588MOL0     N77534   6.935   5.613   8.410  0.3688 -0.1962 -0.4444
  588MOL0     N77535   7.062   5.635   8.398 -0.9643  0.6931  0.2766
  588MOL0     C77536   6.823   6.058   7.650 -0.5529 -0.0650  0.1868
  588MOL0     C77537   6.691   6.007   7.645  0.3327 -0.5134  0.1373
  588MOL0     C77538   6.369   5.722   7.636  0.3713  0.3234 -0.6323
  588MOL0     C77539   6.314   5.696   7.505 -0.6864 -0.9104  0.3303
  588MOL0     C77540   6.181   5.676   7.486  0.4314 -0.4279 -0.1372
  588MOL0     C77541   6.094   5.682   7.596 -0.2736 -0.5152 -0.5283
  588MOL0     O77542   5.957   5.666   7.566 -0.1079 -0.3042 -0.0707
  588MOL0     C77543   5.868   5.665   7.684 -0.1053  1.0015  0.2355
  588MOL0     C77544   5.727   5.627   7.638  0.4551  0.9557  0.1611
  588MOL0     C77545   5.709   5.476   7.648  0.2942  1.3155 -0.3674
  588MOL0     C77546   5.580   5.412   7.588 -0.4068 -0.7039 -0.9781
  588MOL0     C77547   5.456   5.426   7.675  0.3940 -0.9326 -0.3554
  588MOL0     C77548   5.345   5.420   7.736 -0.7933 -0.1011  0.5454
  588MOL0     C77549   6.148   5.694   7.729 -1.1516  0.8216 -0.9588
  588MOL0     C77550   6.281   5.722   7.748 -0.3141 -0.2288 -0.1697
  588MOL0     H77551   6.692   5.799   7.908 -0.5544  0.8067  1.6459
  588MOL0     H77552   6.919   5.910   7.935 -0.9453  0.7542  1.1779
  588MOL0     H77553   7.114   6.087   7.578  2.5068 -0.3327  0.2593
  588MOL0     H77554   7.136   5.934   7.669 -2.5990 -0.2321  2.4282
  588MOL0     H77555   7.282   6.191   7.695 -0.7743  0.5121  0.9353
  588MOL0     H77556   7.355   6.029   7.644  0.4984  1.2041  0.8893
  588MOL0     H77557   7.246   6.075   7.925  1.1304  0.3170  1.3127
  588MOL0     H77558   7.405   6.087   7.871 -1.4483  0.6727  2.0003
  588MOL0     H77559   7.234   5.829   7.875 -0.1378  0.6810  0.6248
  588MOL0     H77560   7.381   5.836   7.789 -2.2792 -0.6555 -0.3292
  588MOL0     H77561   7.501   5.939   7.985 -0.8229  0.8886 -0.4391
  588MOL0     H77562   7.461   5.771   8.018  1.8942  0.2602  1.6951
  588MOL0     H77563   7.331   6.026   8.152  3.0834  0.7500  0.4935
  588MOL0     H77564   7.435   5.904   8.211 -2.5155  0.2920  2.8164
  588MOL0     H77565   7.143   5.872   8.109 -1.0003 -1.0146 -1.0341
  588MOL0     H77566   7.251   5.735   8.142  2.2796  0.7562 -2.2070
  588MOL0     H77567   7.186   5.949   8.362 -0.8284  0.4655 -0.0683
  588MOL0     H77568   7.279   5.817   8.385 -1.5366  1.4558  2.5005
  588MOL0     H77569   6.928   5.898   8.256 -0.4226 -0.5706  0.1893
  588MOL0     H77570   6.686   5.737   8.243  0.8887  2.2690  0.3207
  588MOL0     H77571   6.685   5.828   8.385  1.5195 -0.6536  3.3814
  588MOL0     H77572   6.531   5.644   8.411 -0.5842 -3.2212 -2.4313
  588MOL0     H77573   6.660   5.616   8.522 -0.7012 -1.4636  0.2866
  588MOL0     H77574   6.614   5.495   8.247  2.8083 -2.4284 -1.0876
  588MOL0     H77575   6.753   5.447   8.343  1.0202  2.8356  0.7025
  588MOL0     H77576   6.472   5.427   8.462 -0.1644  0.9200 -2.0856
  588MOL0     H77577   6.634   5.390   8.530 -1.7469  2.9732  1.2244
  588MOL0     H77578   6.381   5.398   8.269 -0.6462 -0.0541 -0.5745
  588MOL0     H77579   6.257   5.340   8.065 -2.2229 -1.8198  1.3104
  588MOL0     H77580   6.055   5.102   7.800  0.1770 -2.4313 -1.3581
  588MOL0     H77581   5.916   5.126   7.592 -1.2714  1.4983  2.1521
  588MOL0     H77582   5.925   5.432   7.377 -1.1732  0.9718  0.6536
  588MOL0     H77583   5.808   5.316   7.429 -1.0735 -0.5912 -1.3097
  588MOL0     H77584   5.756   5.241   7.209 -0.4591  1.4544 -4.4623
  588MOL0     H77585   5.918   5.270   7.139 -0.5914  0.0381 -0.6969
  588MOL0     H77586   5.712   5.474   7.243  1.0496  2.7880 -0.9432
  588MOL0     H77587   5.725   5.424   7.072 -1.5783  1.8467 -0.3681
  588MOL0     H77588   5.979   5.514   7.192 -0.0804 -3.8517  0.2908
  588MOL0     H77589   5.940   5.485   7.031  2.6236 -1.4722  1.9939
  588MOL0     H77590   5.746   5.672   7.057  0.8440  0.9913 -2.5089
  588MOL0     H77591   5.909   5.713   7.032 -1.0182 -2.5676 -2.3200
  588MOL0     H77592   5.933   5.718   7.292  0.9049 -2.2016 -2.6648
  588MOL0     H77593   5.769   5.667   7.306  0.2765 -1.4755  0.5269
  588MOL0     H77594   5.842   5.929   7.146 -0.2317  0.2927  1.0491
  588MOL0     H77595   5.689   5.878   7.203 -0.2794 -0.3549  0.3796
  588MOL0     H77596   5.747   5.910   7.428 -0.3377 -1.8060 -0.7806
  588MOL0     H77597   5.759   6.062   7.335 -3.4379 -1.2999  0.7672
  588MOL0     H77598   6.203   5.370   7.406 -1.9563  0.3487 -1.6370
  588MOL0     H77599   6.341   5.392   7.620 -2.4544  2.7439  2.0066
  588MOL0     H77600   6.516   4.998   8.029 -0.1041 -0.0120  1.9909
  588MOL0     H77601   6.638   5.085   8.231 -0.5420 -0.5566 -0.9420
  588MOL0     H77602   6.854   6.126   7.572  2.8842 -0.8265  0.7284
  588MOL0     H77603   6.628   6.046   7.566  0.2596  0.0708  0.4764
  588MOL0     H77604   6.386   5.713   7.425 -1.0919  1.9115  0.4524
  588MOL0     H77605   6.124   5.672   7.394 -1.0301 -2.2586  0.7889
  588MOL0     H77606   5.862   5.761   7.736 -2.9991  1.1934 -0.2855
  588MOL0     H77607   5.896   5.601   7.768 -1.3425  2.7202  2.0470
  588MOL0     H77608   5.648   5.672   7.699  0.0856  1.8930 -0.9749
  588MOL0     H77609   5.700   5.673   7.543 -4.1084  1.0813  1.2771
  588MOL0     H77610   5.713   5.443   7.753  0.9339 -0.3048 -0.8603
  588MOL0     H77611   5.801   5.429   7.611  0.1507  1.3165 -0.7293
  588MOL0     H77612   5.558   5.456   7.491 -2.4660  0.9224  0.1381
  588MOL0     H77613   5.607   5.306   7.589  1.7981 -0.1804  0.0874
  588MOL0     H77614   5.246   5.422   7.777 -1.2873 -1.1520 -0.5228
  588MOL0     H77615   6.090   5.690   7.821  0.6649 -0.7437  0.1720
  588MOL0     H77616   6.334   5.738   7.842  0.8112  0.9581 -0.9567
  589MOL0     O77617   1.343   1.973   0.127  0.4360 -0.2452 -0.1289
  589MOL0     C77618   1.283   1.973   0.016 -0.4372  0.1416  0.0017
  589MOL0     O77619   1.181   2.063  -0.029  0.0145  0.3111 -0.4175
  589MOL0     C77620   1.155   2.180   0.038  1.3667  0.4504  0.4969
  589MOL0     C77621   1.142   2.304  -0.030  0.7205  0.9410 -0.8467
  589MOL0     C77622   1.129   2.418   0.052  0.6133  0.0333  0.4026
  589MOL0     C77623   1.119   2.426   0.191  0.1620  0.4427 -0.5309
  589MOL0     O77624   1.105   2.553   0.258  0.9630 -0.2142  0.5940
  589MOL0     C77625   1.083   2.566   0.400 -0.1680  0.8174  0.3701
  589MOL0     C77626   1.039   2.709   0.430 -0.7320 -1.0713 -0.3373
  589MOL0     C77627   0.902   2.743   0.366 -0.5216 -0.0807 -0.1451
  589MOL0     C77628   0.845   2.888   0.398  0.5683  0.5367  0.7379
  589MOL0     C77629   0.819   2.906   0.550 -0.7350  0.1317  0.0132
  589MOL0     C77630   0.719   3.020   0.589 -0.2164  1.1034  0.3794
  589MOL0     C77631   0.722   3.048   0.735 -0.0172 -0.6495 -0.0670
  589MOL0     C77632   0.593   3.112   0.785 -0.2613  0.4768  0.0402
  589MOL0     N77633   0.491   3.005   0.817  0.4529 -0.3617 -1.0961
  589MOL0     C77634   0.404   2.962   0.722 -0.3944  0.0122 -0.6608
  589MOL0     C77635   0.355   2.838   0.767  0.9893 -0.2401 -0.3558
  589MOL0     C77636   0.239   2.758   0.711  1.1716 -0.2365 -0.6349
  589MOL0     C77637   0.297   2.670   0.598 -0.0688  0.2116  0.7279
  589MOL0     C77638   0.203   2.646   0.483  0.4756  0.3354 -0.2905
  589MOL0     C77639   0.185   2.781   0.396 -0.0117  0.0333 -0.0608
  589MOL0     O77640   0.287   2.806   0.302 -0.3795 -0.4602  0.9234
  589MOL0     C77641   0.297   2.920   0.234 -1.0803 -0.3035  0.1892
  589MOL0     C77642   0.231   3.037   0.279  0.0775 -0.4652 -1.5727
  589MOL0     C77643   0.254   3.158   0.205 -0.2742  0.5276  0.5408
  589MOL0     C77644   0.330   3.161   0.092 -0.4696  0.3779 -0.2053
  589MOL0     C77645   0.340   3.293   0.028 -0.9337  0.4565  0.2914
  589MOL0     O77646   0.475   3.341   0.004 -0.2347  0.2974  1.1567
  589MOL0     C77647   0.493   3.464  -0.062  0.0515 -0.0261 -0.5118
  589MOL0     C77648   0.398   3.545  -0.135  0.2329  0.1984  0.4910
  589MOL0     C77649   0.442   3.658  -0.191 -0.0788  0.6813 -0.9299
  589MOL0     C77650   0.573   3.708  -0.168 -0.0821 -0.0120  0.1894
  589MOL0     O77651   0.618   3.825  -0.231 -0.9102  0.5486 -0.1937
  589MOL0     C77652   0.548   3.942  -0.202  0.3143  0.2538  0.6473
  589MOL0     C77653   0.612   4.064  -0.282 -0.1072 -0.5219  0.3300
  589MOL0     C77654   0.538   4.106  -0.406  0.4356  0.5298 -0.3705
  589MOL0     C77655   0.618   4.221  -0.472  0.1514  0.1116 -0.2510
  589MOL0     C77656   0.554   4.237  -0.601 -0.2263  0.4563 -0.6448
  589MOL0     C77657   0.615   4.355  -0.681 -1.0329 -0.3536 -0.1504
  589MOL0     C77658   0.549   4.488  -0.636 -0.4609 -0.4847  0.0583
  589MOL0     C77659   0.645   4.605  -0.658  0.4040 -0.9956  0.3928
  589MOL0    Cl77660   0.694   4.625  -0.827  0.0488  0.1589  0.1628
  589MOL0     C77661   0.660   3.646  -0.085  0.3222  0.1164 -0.6720
  589MOL0     C77662   0.623   3.526  -0.034 -0.8211  0.4719 -0.3363
  589MOL0     O77663   0.240   3.356   0.012 -0.4580  0.0167  0.3907
  589MOL0     C77664   0.399   3.042   0.037  0.1816 -0.0988 -0.9631
  589MOL0     C77665   0.367   2.920   0.109  0.5084 -0.1166  0.2386
  589MOL0     N77666   0.421   2.810   0.882 -0.7136 -0.8357  0.4682
  589MOL0     N77667   0.497   2.911   0.915  0.3369 -1.2051 -0.4224
  589MOL0     C77668   1.121   2.302   0.254 -0.6063 -0.4998 -0.3822
  589MOL0     C77669   1.141   2.180   0.187 -0.0872  0.2197 -0.4730
  589MOL0     C77670   1.322   1.863  -0.081 -0.1510  0.8786 -0.6039
  589MOL0     C77671   1.390   1.744  -0.039 -0.0415  1.5640  0.4940
  589MOL0     C77672   1.400   1.622  -0.126  0.3174 -0.1852  0.1431
  589MOL0     C77673   1.345   1.622  -0.250 -0.3180  0.3167 -0.0020
  589MOL0     O77674   1.350   1.518  -0.334 -0.4887  0.6249  0.1507
  589MOL0     C77675   1.242   1.427  -0.323  0.2874 -0.2166 -0.0604
  589MOL0     C77676   1.308   1.301  -0.379 -1.1883  0.5234  0.4627
  589MOL0     C77677   1.347   1.312  -0.529  0.4628 -0.7844 -0.1234
  589MOL0     C77678   1.221   1.296  -0.620 -0.3732 -0.0422  0.0609
  589MOL0     C77679   1.157   1.169  -0.618 -0.2388 -0.2711  0.6048
  589MOL0     C77680   1.092   1.066  -0.625 -0.2076  0.0624  0.0600
  589MOL0     C77681   1.290   1.747  -0.289  0.3160  0.0565  0.9047
  589MOL0     C77682   1.280   1.869  -0.216 -0.2591 -0.6211 -1.0278
  589MOL0     H77683   1.144   2.308  -0.138  0.1193 -1.2386 -0.9833
  589MOL0     H77684   1.118   2.511  -0.003 -1.6925 -1.8999 -2.7508
  589MOL0     H77685   1.176   2.533   0.447 -0.8427 -1.1630  0.3937
  589MOL0     H77686   1.002   2.503   0.437  0.2001  1.4463  2.3196
  589MOL0     H77687   1.118   2.767   0.382  0.3355 -1.6408  0.6778
  589MOL0     H77688   1.047   2.729   0.537 -1.4800 -3.1939  0.1807
  589MOL0     H77689   0.833   2.668   0.407 -1.1280  0.2651 -0.5232
  589MOL0     H77690   0.905   2.715   0.260  0.7679  2.1619 -0.7528
  589MOL0     H77691   0.916   2.964   0.364  1.4089  0.3300  1.9646
  589MOL0     H77692   0.750   2.890   0.344  0.8661  0.5512  0.2059
  589MOL0     H77693   0.914   2.922   0.603 -0.8713  1.5293 -0.1155
  589MOL0     H77694   0.766   2.817   0.585 -3.0507  0.0757 -3.2087
  589MOL0     H77695   0.622   2.975   0.568 -0.3125  1.1806  0.6517
  589MOL0     H77696   0.741   3.111   0.533 -1.5806  1.8496  1.0179
  589MOL0     H77697   0.751   2.956   0.787  0.3670 -0.1208  0.6796
  589MOL0     H77698   0.796   3.126   0.754 -2.2516  2.2056 -2.1645
  589MOL0     H77699   0.548   3.172   0.706 -0.2171 -0.6202 -0.8410
  589MOL0     H77700   0.615   3.174   0.872  2.9004 -0.5816  0.1452
  589MOL0     H77701   0.359   3.016   0.640  1.4374  1.3181 -0.8365
  589MOL0     H77702   0.170   2.835   0.675 -1.0542 -1.4661  0.7745
  589MOL0     H77703   0.177   2.709   0.786  0.7583  2.6006  1.0383
  589MOL0     H77704   0.340   2.574   0.630  0.7750  0.2046 -0.3522
  589MOL0     H77705   0.380   2.727   0.555  0.1262  2.7070  4.0257
  589MOL0     H77706   0.245   2.559   0.434 -2.8119 -0.5800 -1.7844
  589MOL0     H77707   0.102   2.616   0.515 -0.2653  0.2330 -2.5415
  589MOL0     H77708   0.177   2.859   0.472  0.2550  0.8416 -0.8535
  589MOL0     H77709   0.087   2.786   0.347  0.5378  1.6396 -1.0431
  589MOL0     H77710   0.181   3.045   0.374  1.2051  0.2979 -1.0148
  589MOL0     H77711   0.214   3.248   0.250 -0.4338 -0.3073  2.1635
  589MOL0     H77712   0.296   3.512  -0.150  0.3524  0.5023 -1.1320
  589MOL0     H77713   0.378   3.727  -0.245  0.9839  0.5344 -2.4591
  589MOL0     H77714   0.559   3.961  -0.095 -1.0626 -2.2767  1.3259
  589MOL0     H77715   0.442   3.928  -0.228  0.1086  0.4490  1.3570
  589MOL0     H77716   0.715   4.039  -0.310  0.5647  3.6604 -1.6223
  589MOL0     H77717   0.624   4.141  -0.206 -0.3071 -3.3460  3.4683
  589MOL0     H77718   0.433   4.128  -0.385 -0.4429 -0.2672 -3.4408
  589MOL0     H77719   0.528   4.023  -0.476 -4.8745  3.3951 -3.6088
  589MOL0     H77720   0.630   4.311  -0.410 -0.2103  1.3353 -1.8717
  589MOL0     H77721   0.715   4.176  -0.493 -1.0791 -1.9944 -1.7284
  589MOL0     H77722   0.448   4.255  -0.583  0.0733 -0.0940  2.0316
  589MOL0     H77723   0.565   4.141  -0.652  0.9415 -0.0556  0.5267
  589MOL0     H77724   0.614   4.343  -0.790  0.6102 -2.2337 -0.0145
  589MOL0     H77725   0.722   4.367  -0.660 -0.5772 -3.6759  0.0167
  589MOL0     H77726   0.461   4.505  -0.698  2.0177 -0.1927 -3.6692
  589MOL0     H77727   0.519   4.488  -0.531 -0.5836  0.9025  0.0452
  589MOL0     H77728   0.744   4.597  -0.612  0.9165  2.6330  0.1793
  589MOL0     H77729   0.592   4.695  -0.626 -0.8925 -1.8912  0.8384
  589MOL0     H77730   0.759   3.685  -0.064  0.5006 -1.0684  0.8362
  589MOL0     H77731   0.700   3.477   0.024  0.2236  1.0868 -1.1759
  589MOL0     H77732   0.464   3.038  -0.050  3.9574 -1.9226  1.6905
  589MOL0     H77733   0.422   2.835   0.068  1.9068 -0.2044  2.1920
  589MOL0     H77734   1.115   2.298   0.362 -0.1636 -0.0178 -0.3370
  589MOL0     H77735   1.148   2.085   0.240  2.1238  1.4665  1.6702
  589MOL0     H77736   1.428   1.740   0.063  2.8776  2.0444 -0.4579
  589MOL0     H77737   1.451   1.538  -0.080 -2.5402 -2.7444 -0.9960
  589MOL0     H77738   1.150   1.453  -0.377  0.0567 -2.1018 -0.6656
  589MOL0     H77739   1.223   1.424  -0.215  1.5812  0.2564  0.1956
  589MOL0     H77740   1.398   1.279  -0.321 -0.7114 -0.2549 -0.5419
  589MOL0     H77741   1.254   1.206  -0.373  2.8508 -2.2013 -1.3345
  589MOL0     H77742   1.408   1.228  -0.563 -1.2567 -1.9917 -0.4033
  589MOL0     H77743   1.383   1.407  -0.570 -2.7108 -0.0320 -1.5467
  589MOL0     H77744   1.142   1.365  -0.588 -0.2022  0.3090 -0.2730
  589MOL0     H77745   1.244   1.328  -0.721 -2.2134  1.8698  0.1773
  589MOL0     H77746   1.034   0.978  -0.643  0.5153 -1.0777  2.7964
  589MOL0     H77747   1.252   1.754  -0.391  1.5552  0.7071  0.4709
  589MOL0     H77748   1.224   1.952  -0.258  2.0558  1.8761  0.4742
  590MOL0     O77749   1.379   0.920   4.653  0.2845 -0.4640 -0.7281
  590MOL0     C77750   1.390   1.042   4.658  0.0718  0.6165  0.0155
  590MOL0     O77751   1.458   1.110   4.763 -0.9235 -0.3894  0.3159
  590MOL0     C77752   1.519   1.042   4.875 -0.3064 -0.0464  0.4736
  590MOL0     C77753   1.469   0.918   4.940 -0.1630 -1.4436  0.4945
  590MOL0     C77754   1.540   0.859   5.050 -0.4127  0.3889 -0.8443
  590MOL0     C77755   1.659   0.922   5.095  0.1470 -0.3643  0.9749
  590MOL0     O77756   1.720   0.868   5.205  0.3558  1.0882 -0.0976
  590MOL0     C77757   1.831   0.942   5.256 -0.4400 -0.1632 -0.4463
  590MOL0     C77758   1.877   0.867   5.377  0.5169 -0.6076  0.2516
  590MOL0     C77759   1.990   0.921   5.466 -0.6728  0.3205  0.2727
  590MOL0     C77760   2.105   0.995   5.387 -1.1202  0.4964 -0.1019
  590MOL0     C77761   2.231   1.036   5.467 -0.5558  0.2763 -0.1374
  590MOL0     C77762   2.249   1.174   5.425  0.4044 -0.3586  0.3152
  590MOL0     C77763   2.372   1.252   5.476 -0.2153 -0.4024  0.8373
  590MOL0     C77764   2.452   1.324   5.363  0.3559 -0.3780 -0.1508
  590MOL0     N77765   2.378   1.420   5.291 -0.1093 -0.2282 -0.1977
  590MOL0     C77766   2.344   1.546   5.332 -1.0579  0.0921  0.6125
  590MOL0     C77767   2.277   1.604   5.230  0.1261 -0.5574 -0.2201
  590MOL0     C77768   2.225   1.746   5.218 -0.3992 -0.6900 -0.5764
  590MOL0     C77769   2.249   1.842   5.338 -0.6902  0.4326  0.1084
  590MOL0     C77770   2.400   1.883   5.347  0.3012  0.8082 -0.2323
  590MOL0     C77771   2.416   1.997   5.440  0.2725 -0.2237  0.3665
  590MOL0     O77772   2.560   2.010   5.441 -0.0589  0.3310 -0.1732
  590MOL0     C77773   2.615   2.126   5.470 -0.1757  0.2565 -0.6435
  590MOL0     C77774   2.687   2.194   5.374  0.3458 -0.0557  0.1111
  590MOL0     C77775   2.784   2.283   5.415 -0.4404 -0.6217 -0.3427
  590MOL0     C77776   2.806   2.305   5.550 -0.5339  0.3618 -1.8044
  590MOL0     C77777   2.921   2.396   5.591  0.2783 -0.8538 -0.6085
  590MOL0     O77778   2.995   2.438   5.497 -0.4100 -0.5482  0.2307
  590MOL0     C77779   3.132   2.486   5.518  0.2518  0.1178  0.2602
  590MOL0     C77780   3.190   2.551   5.409 -0.6183 -0.2328  0.1820
  590MOL0     C77781   3.322   2.611   5.400 -0.5325 -0.1669 -0.0114
  590MOL0     C77782   3.397   2.607   5.519 -0.3633  0.3655  0.2849
  590MOL0     O77783   3.531   2.616   5.538  0.1347 -0.3965 -0.7624
  590MOL0     C77784   3.599   2.727   5.484  0.5370  0.6017 -0.9720
  590MOL0     C77785   3.598   2.840   5.587  0.1104  0.4952  0.2303
  590MOL0     C77786   3.681   2.811   5.715  0.2274 -0.0910  0.6868
  590MOL0     C77787   3.831   2.842   5.701  0.0277  0.1390  1.4797
  590MOL0     C77788   3.928   2.829   5.818 -1.0436 -0.2567  0.2442
  590MOL0     C77789   3.905   2.696   5.886  0.2153  0.5720 -0.0079
  590MOL0     C77790   3.974   2.679   6.016 -0.8858  0.3793 -0.6158
  590MOL0     C77791   3.937   2.782   6.122 -0.5326  0.2664  0.0187
  590MOL0    Cl77792   3.753   2.794   6.124  0.2814  0.3491  0.5241
  590MOL0     C77793   3.342   2.556   5.628  0.7802  0.1677 -0.6599
  590MOL0     C77794   3.209   2.498   5.634 -0.3230  1.1101  0.4155
  590MOL0     O77795   2.924   2.435   5.713  0.8342  0.2189 -0.4194
  590MOL0     C77796   2.721   2.244   5.646 -0.2457 -0.5419 -0.2133
  590MOL0     C77797   2.635   2.147   5.604  0.5047 -0.0934 -0.1383
  590MOL0     N77798   2.259   1.516   5.135 -0.3025  0.0780  1.3774
  590MOL0     N77799   2.329   1.409   5.166  0.0690 -0.1739 -0.2469
  590MOL0     C77800   1.700   1.046   5.037  0.2537 -0.0643  0.0531
  590MOL0     C77801   1.632   1.103   4.927  1.0654 -1.2667 -0.3661
  590MOL0     C77802   1.366   1.102   4.526 -0.6899 -0.1136 -0.4712
  590MOL0     C77803   1.253   1.059   4.452 -0.9109 -1.1559 -0.0344
  590MOL0     C77804   1.232   1.123   4.323 -0.0078  0.3293 -0.1281
  590MOL0     C77805   1.318   1.218   4.267 -0.0769  0.8709  0.0974
  590MOL0     O77806   1.276   1.278   4.149 -0.1608 -0.2603  0.5601
  590MOL0     C77807   1.380   1.349   4.065 -0.0272 -0.0541 -0.5696
  590MOL0     C77808   1.307   1.413   3.943 -0.2630  0.4834 -0.1707
  590MOL0     C77809   1.159   1.462   3.954  0.5398 -0.3764 -0.1042
  590MOL0     C77810   1.139   1.549   4.084  0.2325 -0.7119  1.0526
  590MOL0     C77811   1.036   1.646   4.055  0.0686 -0.6440  0.0434
  590MOL0     C77812   0.928   1.710   4.031  0.1288  0.5644 -0.0460
  590MOL0     C77813   1.429   1.253   4.342 -0.7072  0.4404  0.0488
  590MOL0     C77814   1.445   1.206   4.478 -0.2603 -0.3801  0.2638
  590MOL0     H77815   1.377   0.874   4.902 -0.3880 -0.5211 -0.0632
  590MOL0     H77816   1.503   0.774   5.106  3.3044 -2.5867 -2.4378
  590MOL0     H77817   1.790   1.040   5.283 -1.0506 -0.1540 -1.3687
  590MOL0     H77818   1.914   0.943   5.185  0.0098  0.6963  0.0697
  590MOL0     H77819   1.920   0.772   5.345  4.4229  1.6334 -1.8527
  590MOL0     H77820   1.789   0.862   5.442 -1.1810  2.5656 -1.5476
  590MOL0     H77821   2.030   0.833   5.516 -1.5447 -0.3216 -0.1288
  590MOL0     H77822   1.960   0.984   5.550  1.4457  0.8447  0.6847
  590MOL0     H77823   2.139   0.944   5.297  0.0047  0.5193  0.3026
  590MOL0     H77824   2.051   1.083   5.350 -0.9418 -0.5043 -2.9629
  590MOL0     H77825   2.319   0.974   5.448  0.8761  2.0658  0.3219
  590MOL0     H77826   2.211   1.050   5.573 -1.0901 -1.0036 -0.0518
  590MOL0     H77827   2.164   1.238   5.450 -2.1816 -3.1584 -0.7594
  590MOL0     H77828   2.253   1.172   5.315  0.5164  0.0749  0.3093
  590MOL0     H77829   2.348   1.321   5.558 -3.3700 -0.1589 -0.1512
  590MOL0     H77830   2.447   1.182   5.513  1.8656  0.3013 -1.6940
  590MOL0     H77831   2.470   1.249   5.286 -2.9535 -1.4025 -0.0793
  590MOL0     H77832   2.550   1.360   5.398  0.3306  0.0774 -0.5443
  590MOL0     H77833   2.358   1.601   5.425  3.0139 -0.2997  0.4298
  590MOL0     H77834   2.117   1.745   5.203 -0.1068  1.3703 -3.8537
  590MOL0     H77835   2.276   1.796   5.135  0.8292  1.1499  1.1895
  590MOL0     H77836   2.211   1.810   5.435 -1.7173 -1.4801 -0.8857
  590MOL0     H77837   2.191   1.934   5.327  1.3841  2.2879  3.0342
  590MOL0     H77838   2.461   1.794   5.368  1.1855  0.9469 -1.9559
  590MOL0     H77839   2.442   1.918   5.252  0.5806  2.8718  0.5954
  590MOL0     H77840   2.381   1.980   5.542 -1.2188  2.1425  0.3196
  590MOL0     H77841   2.366   2.087   5.402 -1.6146 -1.4412 -0.2053
  590MOL0     H77842   2.693   2.180   5.267  0.0822  0.5546  0.0159
  590MOL0     H77843   2.841   2.326   5.333 -0.9270  0.0743 -0.3280
  590MOL0     H77844   3.125   2.544   5.323 -0.1836  0.2259 -0.1879
  590MOL0     H77845   3.356   2.653   5.306 -2.0982 -0.7065 -0.8573
  590MOL0     H77846   3.543   2.768   5.399  2.0659  2.7681 -1.0188
  590MOL0     H77847   3.703   2.708   5.455  0.6318 -1.1870  0.3768
  590MOL0     H77848   3.497   2.861   5.622  0.1216 -1.4466  1.5977
  590MOL0     H77849   3.644   2.930   5.543  1.4306  0.0035  0.5493
  590MOL0     H77850   3.677   2.703   5.732  1.3935 -0.9270 -3.3755
  590MOL0     H77851   3.640   2.871   5.798  0.8049 -0.7132  1.4394
  590MOL0     H77852   3.876   2.775   5.627 -1.4121  0.5042  0.2171
  590MOL0     H77853   3.831   2.945   5.666  0.8198 -0.6766 -1.1700
  590MOL0     H77854   3.903   2.914   5.882 -2.5490  0.5959 -1.3633
  590MOL0     H77855   4.029   2.827   5.774 -1.7372 -1.0862 -1.4070
  590MOL0     H77856   3.938   2.617   5.817  1.7780 -0.0172  1.3590
  590MOL0     H77857   3.801   2.672   5.913  0.7621 -2.4443 -0.1699
  590MOL0     H77858   3.948   2.580   6.055  1.9298 -0.5792 -0.9568
  590MOL0     H77859   4.081   2.694   6.002 -0.7255  2.3403  1.9423
  590MOL0     H77860   3.973   2.881   6.093 -3.6723  1.2516 -0.9241
  590MOL0     H77861   3.988   2.751   6.213  2.1840  0.1826 -1.4368
  590MOL0     H77862   3.399   2.551   5.720  0.5247  2.3113 -0.3230
  590MOL0     H77863   3.180   2.463   5.733  0.0232  1.5212  0.6705
  590MOL0     H77864   2.738   2.269   5.751 -1.7376  2.8382 -0.6564
  590MOL0     H77865   2.567   2.093   5.668  0.8441  3.3728  3.5022
  590MOL0     H77866   1.795   1.090   5.066  0.6461 -1.8367  1.7006
  590MOL0     H77867   1.660   1.199   4.886  1.6293 -0.5525  1.6184
  590MOL0     H77868   1.185   0.982   4.487 -0.9019  0.0357  2.8271
  590MOL0     H77869   1.145   1.082   4.273 -0.5031  0.6888  0.4207
  590MOL0     H77870   1.449   1.270   4.035  1.5457  0.9545  0.2328
  590MOL0     H77871   1.432   1.422   4.128  1.6422 -0.7185 -1.1311
  590MOL0     H77872   1.363   1.494   3.895 -0.7506 -0.4970 -2.4977
  590MOL0     H77873   1.311   1.328   3.874  3.2592  0.6432 -0.3473
  590MOL0     H77874   1.079   1.387   3.953  0.3806 -0.2276 -1.8311
  590MOL0     H77875   1.134   1.521   3.865  1.4583 -3.3425 -2.5072
  590MOL0     H77876   1.109   1.482   4.165 -0.8229 -1.3222  0.1938
  590MOL0     H77877   1.226   1.606   4.117 -0.0821  1.4331 -1.4437
  590MOL0     H77878   0.850   1.782   4.015 -1.1317 -0.1909  2.2708
  590MOL0     H77879   1.507   1.313   4.297  0.0238 -1.0828 -0.8157
  590MOL0     H77880   1.530   1.247   4.531 -0.6255  0.5436  0.1617
  591MOL0     O77881   3.757   1.075   2.750 -0.2212 -0.4695 -0.1635
  591MOL0     C77882   3.805   0.960   2.740 -0.2638  0.7897  0.4993
  591MOL0     O77883   3.815   0.883   2.624 -0.4223 -0.1626  0.3397
  591MOL0     C77884   3.736   0.933   2.526 -0.0018  0.3723  0.1388
  591MOL0     C77885   3.607   0.899   2.510  0.3317  0.8347  0.0081
  591MOL0     C77886   3.544   0.951   2.400  0.3355 -0.5479  0.3061
  591MOL0     C77887   3.615   1.018   2.301 -0.6798 -0.7724 -0.6865
  591MOL0     O77888   3.553   1.080   2.198  0.6282 -0.1799 -0.0600
  591MOL0     C77889   3.454   1.011   2.129 -1.3456  0.7338 -0.1646
  591MOL0     C77890   3.427   1.071   1.991  0.4371  0.2286 -0.4676
  591MOL0     C77891   3.375   1.217   1.981  0.1549  0.1126  0.5277
  591MOL0     C77892   3.368   1.265   1.834 -0.4396 -1.0244  0.6002
  591MOL0     C77893   3.271   1.387   1.814 -0.5192  0.7758 -0.0335
  591MOL0     C77894   3.279   1.505   1.912  0.3972  0.6043 -0.1989
  591MOL0     C77895   3.157   1.598   1.905 -0.6291 -1.0207 -0.0862
  591MOL0     C77896   3.159   1.726   1.997  0.8812 -0.2003 -0.1570
  591MOL0     N77897   3.140   1.692   2.146 -0.2961  0.2341 -0.3823
  591MOL0     C77898   3.223   1.631   2.234  0.4065 -0.8127  0.2329
  591MOL0     C77899   3.146   1.607   2.347 -0.3673 -0.1837 -0.1357
  591MOL0     C77900   3.203   1.549   2.475 -0.2479  0.6190 -0.3458
  591MOL0     C77901   3.239   1.402   2.473 -0.4826  0.0135  0.7121
  591MOL0     C77902   3.131   1.289   2.429  0.5706  0.5394 -0.9352
  591MOL0     C77903   3.208   1.159   2.410  0.5223  0.1379  0.0394
  591MOL0     O77904   3.131   1.071   2.321 -0.8055 -0.2391 -0.2155
  591MOL0     C77905   3.057   0.971   2.378 -0.4878  0.7512  0.6927
  591MOL0     C77906   3.016   0.866   2.291 -1.2288  0.1298 -0.0892
  591MOL0     C77907   2.951   0.747   2.342  0.0550  0.2808 -0.4267
  591MOL0     C77908   2.906   0.746   2.475  0.5924  0.4334 -0.4446
  591MOL0     C77909   2.830   0.620   2.524 -0.2053 -0.7596  0.5806
  591MOL0     O77910   2.838   0.591   2.657 -0.0427  0.8807  0.0982
  591MOL0     C77911   2.793   0.461   2.696  0.7778  0.3823 -0.8185
  591MOL0     C77912   2.676   0.459   2.766  0.3134 -0.5718 -0.2351
  591MOL0     C77913   2.624   0.337   2.810  0.3769 -0.2167 -0.5439
  591MOL0     C77914   2.694   0.216   2.792  1.7756 -0.2143  0.5430
  591MOL0     O77915   2.626   0.106   2.826 -0.2856 -0.1950 -0.8474
  591MOL0     C77916   2.683  -0.029   2.824 -0.5640  0.5949  0.3519
  591MOL0     C77917   2.649  -0.090   2.687  0.2972  0.0526  0.3786
  591MOL0     C77918   2.669  -0.235   2.675  0.1179 -0.4060 -1.1755
  591MOL0     C77919   2.567  -0.299   2.593  0.0721  0.2818  0.4880
  591MOL0     C77920   2.603  -0.448   2.570 -0.7555 -0.4377  0.8632
  591MOL0     C77921   2.562  -0.548   2.674 -0.7386 -0.7460 -0.1451
  591MOL0     C77922   2.418  -0.558   2.714  0.7311  0.1137  0.3429
  591MOL0     C77923   2.390  -0.678   2.802  0.8004 -0.2139  0.4410
  591MOL0    Cl77924   2.211  -0.690   2.829 -0.3260 -0.4295 -0.3692
  591MOL0     C77925   2.817   0.225   2.718 -0.1238  1.2774  0.0497
  591MOL0     C77926   2.865   0.346   2.672 -0.3810  0.8999 -0.2993
  591MOL0     O77927   2.777   0.551   2.431  0.5048 -0.5198 -0.4356
  591MOL0     C77928   2.948   0.853   2.555 -0.2956  0.0530 -0.1980
  591MOL0     C77929   3.022   0.963   2.509 -0.5420 -0.3865 -0.0335
  591MOL0     N77930   3.039   1.690   2.344 -0.2918  0.4840 -0.1845
  591MOL0     N77931   3.036   1.735   2.226  0.2914 -0.6118 -0.2114
  591MOL0     C77932   3.751   1.029   2.317  0.0556 -0.7740  0.5589
  591MOL0     C77933   3.813   1.002   2.436  0.9685 -0.7902  0.6117
  591MOL0     C77934   3.856   0.896   2.862  0.8972  0.3803  0.7910
  591MOL0     C77935   3.917   0.772   2.863  0.0105 -0.0548  0.3276
  591MOL0     C77936   3.956   0.710   2.984  0.0617  0.3021  0.2780
  591MOL0     C77937   3.937   0.771   3.109 -0.2722  0.2714 -0.7450
  591MOL0     O77938   3.983   0.699   3.219  0.3099 -0.7957 -0.0108
  591MOL0     C77939   3.903   0.717   3.340  0.1490 -0.8891  0.3494
  591MOL0     C77940   3.969   0.811   3.443  0.1342  0.0282 -1.0935
  591MOL0     C77941   3.868   0.842   3.557  0.9069 -0.1222  0.3029
  591MOL0     C77942   3.940   0.933   3.655  0.2535 -1.1119 -0.3795
  591MOL0     C77943   3.829   0.974   3.750 -0.1796  0.2594  0.6286
  591MOL0     C77944   3.765   1.022   3.839  0.8567  0.9003  0.3005
  591MOL0     C77945   3.861   0.893   3.109  0.9083  0.8829  0.3160
  591MOL0     C77946   3.823   0.951   2.987  0.5744 -0.9840  0.4471
  591MOL0     H77947   3.553   0.842   2.586  2.2903  3.0476  3.3160
  591MOL0     H77948   3.437   0.936   2.383  0.9341 -1.0286 -4.3576
  591MOL0     H77949   3.367   0.995   2.193 -0.1725  0.3013  1.4005
  591MOL0     H77950   3.490   0.910   2.106 -0.8852  0.9914 -0.5993
  591MOL0     H77951   3.363   1.005   1.931  0.4327  1.1945 -1.5490
  591MOL0     H77952   3.526   1.064   1.945  2.4526 -0.4419  3.5048
  591MOL0     H77953   3.425   1.291   2.045 -1.4092  1.1828  0.5685
  591MOL0     H77954   3.277   1.208   2.029  0.4838 -0.7008  1.0570
  591MOL0     H77955   3.461   1.321   1.816 -2.2133  2.8683  2.2716
  591MOL0     H77956   3.357   1.179   1.768 -0.2282  2.2120 -4.1710
  591MOL0     H77957   3.166   1.355   1.817 -1.4946  3.3635 -2.0908
  591MOL0     H77958   3.283   1.420   1.711 -0.0555 -3.7909 -1.6607
  591MOL0     H77959   3.367   1.567   1.894  0.1226  0.8790 -0.6000
  591MOL0     H77960   3.281   1.463   2.013 -2.4278  1.3763  0.2554
  591MOL0     H77961   3.161   1.648   1.808  2.7715  1.8454  1.2842
  591MOL0     H77962   3.062   1.546   1.916 -1.4716  0.9743  3.7961
  591MOL0     H77963   3.078   1.792   1.965  1.3651  0.2279 -0.5279
  591MOL0     H77964   3.255   1.779   1.989  0.2663  0.8479 -0.6842
  591MOL0     H77965   3.320   1.586   2.217  0.1855 -0.8559 -0.9313
  591MOL0     H77966   3.130   1.562   2.555  2.1794 -1.5038  2.4456
  591MOL0     H77967   3.292   1.608   2.500 -0.2223  1.5210 -2.3415
  591MOL0     H77968   3.274   1.388   2.576 -1.5814 -1.4606  0.9307
  591MOL0     H77969   3.314   1.381   2.397 -2.3566 -0.5277 -1.0786
  591MOL0     H77970   3.051   1.277   2.503  1.5231 -1.5695 -0.1776
  591MOL0     H77971   3.090   1.311   2.330 -0.5700 -2.5161 -1.2594
  591MOL0     H77972   3.235   1.120   2.509 -3.5488 -0.2467  1.1785
  591MOL0     H77973   3.302   1.186   2.361 -0.2145  3.6840  0.3201
  591MOL0     H77974   3.051   0.880   2.189  2.0553  0.8020  1.0068
  591MOL0     H77975   2.923   0.671   2.271  1.9149 -0.3877 -0.5086
  591MOL0     H77976   2.606   0.541   2.782  1.9080  1.4621 -2.8191
  591MOL0     H77977   2.535   0.342   2.872  1.1148  3.6470  0.4954
  591MOL0     H77978   2.636  -0.087   2.904 -0.0231  1.5095  1.3555
  591MOL0     H77979   2.790  -0.024   2.843 -0.5779  0.6134  0.4268
  591MOL0     H77980   2.724  -0.049   2.618 -1.5925 -0.3139 -2.0111
  591MOL0     H77981   2.553  -0.055   2.649  1.4836  0.9838 -1.9796
  591MOL0     H77982   2.654  -0.272   2.777  0.2707  0.4761 -0.8306
  591MOL0     H77983   2.771  -0.264   2.646 -0.4090 -0.4887 -3.0700
  591MOL0     H77984   2.475  -0.293   2.652 -1.1333 -2.0043 -1.0130
  591MOL0     H77985   2.539  -0.249   2.500 -1.2604  0.0362  0.7449
  591MOL0     H77986   2.712  -0.454   2.559 -0.9302 -1.8950 -0.4222
  591MOL0     H77987   2.554  -0.472   2.475 -0.4473  2.8402 -0.2482
  591MOL0     H77988   2.624  -0.529   2.762 -1.1557 -0.7899  0.1559
  591MOL0     H77989   2.603  -0.643   2.637  0.4539  0.1318 -1.2072
  591MOL0     H77990   2.383  -0.470   2.770 -2.0385 -2.0946  2.4163
  591MOL0     H77991   2.363  -0.566   2.620  0.0849 -2.2074  0.8510
  591MOL0     H77992   2.447  -0.653   2.892  1.3425 -0.3749  0.1485
  591MOL0     H77993   2.416  -0.775   2.758 -0.3007 -1.1058  1.6896
  591MOL0     H77994   2.866   0.134   2.685  1.4090  2.4842 -1.1022
  591MOL0     H77995   2.951   0.358   2.607 -1.5793 -0.8203 -2.3196
  591MOL0     H77996   2.919   0.839   2.658  2.0186 -0.7238  0.4017
  591MOL0     H77997   3.066   1.033   2.579 -2.5566  0.6669  0.2670
  591MOL0     H77998   3.809   1.073   2.235 -0.5418  1.3999  1.2397
  591MOL0     H77999   3.920   1.011   2.445  1.2336  1.1681 -2.9580
  591MOL0     H78000   3.940   0.738   2.763  2.6739  4.0221 -0.6927
  591MOL0     H78001   4.015   0.620   2.971  0.6851  0.9478 -1.9148
  591MOL0     H78002   3.899   0.619   3.389 -0.7908 -2.7934 -3.2275
  591MOL0     H78003   3.802   0.758   3.331  0.0223 -0.3022  3.3633
  591MOL0     H78004   4.052   0.757   3.489 -3.1730 -2.0189  3.2323
  591MOL0     H78005   4.000   0.903   3.393 -2.1994  0.9625 -0.9568
  591MOL0     H78006   3.823   0.750   3.595  2.5775 -0.8346  0.6363
  591MOL0     H78007   3.791   0.900   3.505  1.3974 -1.1098 -1.6314
  591MOL0     H78008   4.016   0.872   3.705 -0.2663  1.2798  3.7349
  591MOL0     H78009   3.990   1.016   3.602 -2.2190  0.6064 -0.1695
  591MOL0     H78010   3.728   1.087   3.915  4.7069  3.0764  0.5892
  591MOL0     H78011   3.819   0.947   3.193 -0.3759  1.8845 -0.9283
  591MOL0     H78012   3.774   1.048   2.991  0.7185 -0.9042  0.2911
  592MOL0     O78013   9.233   7.266   6.519 -1.1418  1.0155 -0.1508
  592MOL0     C78014   9.201   7.295   6.401 -0.1058  0.5745 -0.8050
  592MOL0     O78015   9.255   7.390   6.328 -0.8038  0.3461 -0.3483
  592MOL0     C78016   9.307   7.512   6.389 -0.0642  0.2297  0.4593
  592MOL0     C78017   9.408   7.571   6.311 -0.3984  0.6474 -0.2430
  592MOL0     C78018   9.467   7.700   6.352  0.0267  1.5573  1.1719
  592MOL0     C78019   9.418   7.763   6.471 -0.0791  0.1868  0.0355
  592MOL0     O78020   9.476   7.869   6.521  0.0875 -0.7945 -0.6632
  592MOL0     C78021   9.464   7.986   6.449  0.1213 -0.4119  0.1048
  592MOL0     C78022   9.591   8.059   6.505 -0.1864 -0.4893  0.0773
  592MOL0     C78023   9.581   8.202   6.471  0.9668 -1.0867 -0.0594
  592MOL0     C78024   9.716   8.270   6.465  0.1003  0.7117 -0.3320
  592MOL0     C78025   9.718   8.402   6.390 -0.1738 -0.7128 -1.1274
  592MOL0     C78026   9.624   8.510   6.445 -0.0993  0.0963  0.0100
  592MOL0     C78027   9.701   8.581   6.557  0.1340  0.8071  0.1073
  592MOL0     C78028   9.675   8.734   6.575 -0.6293  0.6507  0.4609
  592MOL0     N78029   9.742   8.795   6.690 -0.6419  0.1596 -0.1241
  592MOL0     C78030   9.871   8.798   6.719 -0.6234 -0.7964 -0.0528
  592MOL0     C78031   9.886   8.877   6.834  0.2974 -0.1770  0.1340
  592MOL0     C78032  10.015   8.930   6.882  0.0502  0.6144 -0.0881
  592MOL0     C78033  10.005   9.058   6.965 -0.2688  1.1321  0.7590
  592MOL0     C78034  10.134   9.082   7.042 -0.6757  0.4464  0.7552
  592MOL0     C78035  10.138   9.199   7.150  0.2409 -0.0875  0.1243
  592MOL0     O78036  10.095   9.318   7.067 -0.0612  0.6183  0.6489
  592MOL0     C78037  10.069   9.423   7.152 -0.2526 -0.1961  0.9063
  592MOL0     C78038   9.961   9.415   7.240  0.4634  0.7010 -0.1192
  592MOL0     C78039   9.937   9.524   7.331 -0.2093 -0.0969 -0.0413
  592MOL0     C78040  10.011   9.637   7.345 -0.6003 -0.1991 -0.1219
  592MOL0     C78041   9.974   9.754   7.426  0.3603  0.2162 -0.3387
  592MOL0     O78042  10.070   9.844   7.464  0.0168 -0.4745  0.0697
  592MOL0     C78043  10.030   9.964   7.524  0.5115  0.4704 -0.1674
  592MOL0     C78044  10.028   9.979   7.666  0.2099 -0.7292 -0.4200
  592MOL0     C78045   9.977  10.100   7.727  0.7740 -0.5352  0.1252
  592MOL0     C78046   9.902  10.186   7.647  0.6574 -0.2296  0.2917
  592MOL0     O78047   9.837  10.299   7.693 -0.5626 -0.2075 -0.0951
  592MOL0     C78048   9.765  10.306   7.820  0.7054  0.4867 -0.0849
  592MOL0     C78049   9.613  10.299   7.806 -0.3177  1.1860 -0.8499
  592MOL0     C78050   9.544  10.247   7.932  0.2955 -0.4104 -0.1411
  592MOL0     C78051   9.543  10.357   8.041 -0.1851 -0.3489 -1.0830
  592MOL0     C78052   9.522  10.283   8.179 -1.1084  0.7570  0.4446
  592MOL0     C78053   9.368  10.254   8.203  0.0840 -0.5893 -0.3837
  592MOL0     C78054   9.338  10.156   8.315  0.2971 -0.3492 -0.6692
  592MOL0     C78055   9.415  10.181   8.451 -1.6196 -0.1529  0.3696
  592MOL0    Cl78056   9.342  10.071   8.579 -0.1460  0.4768  0.3759
  592MOL0     C78057   9.907  10.168   7.510 -0.7030 -0.7807  0.3778
  592MOL0     C78058   9.972  10.063   7.446  0.4448  0.7385  0.3627
  592MOL0     O78059   9.858   9.762   7.463 -0.8207  0.2562 -0.5249
  592MOL0     C78060  10.120   9.641   7.257  0.5220 -0.5284 -0.1599
  592MOL0     C78061  10.143   9.544   7.159 -0.4203 -0.2049 -0.5730
  592MOL0     N78062   9.761   8.920   6.874  0.1105 -0.0709  0.0019
  592MOL0     N78063   9.670   8.860   6.793  0.3980 -0.6357 -0.0330
  592MOL0     C78064   9.316   7.699   6.538  0.9084 -0.8881 -0.2621
  592MOL0     C78065   9.262   7.575   6.500  0.1106  0.2281  0.1070
  592MOL0     C78066   9.108   7.216   6.315 -0.5154  0.5261 -1.1168
  592MOL0     C78067   9.028   7.113   6.376  0.2708  0.2717  0.9925
  592MOL0     C78068   8.935   7.031   6.300 -0.3177 -0.7214 -0.3263
  592MOL0     C78069   8.922   7.067   6.165  1.1456 -0.2130  0.4337
  592MOL0     O78070   8.837   7.016   6.071 -0.5090  0.6458 -0.5092
  592MOL0     C78071   8.766   6.895   6.110 -0.1174  0.9173 -0.2823
  592MOL0     C78072   8.610   6.903   6.146  0.0147  0.4499 -0.1815
  592MOL0     C78073   8.561   6.803   6.248  0.4538 -0.6932 -0.1810
  592MOL0     C78074   8.619   6.827   6.372  0.5456 -0.3864 -0.4843
  592MOL0     C78075   8.536   6.743   6.455  1.2450  0.5716 -0.6199
  592MOL0     C78076   8.491   6.663   6.540  0.8671 -0.7001 -0.5582
  592MOL0     C78077   8.984   7.175   6.109 -0.6374  0.2410 -0.4336
  592MOL0     C78078   9.083   7.236   6.182 -0.3839  0.4661  1.7580
  592MOL0     H78079   9.445   7.524   6.220 -0.9188 -1.6370  0.6409
  592MOL0     H78080   9.550   7.743   6.297 -1.9799  2.0662 -1.6808
  592MOL0     H78081   9.373   8.042   6.471 -0.3473 -0.2584 -1.9904
  592MOL0     H78082   9.458   7.965   6.341  0.0871 -4.1145  0.6901
  592MOL0     H78083   9.680   8.012   6.464  0.9894  0.5623  1.3339
  592MOL0     H78084   9.604   8.056   6.614 -3.6907 -0.5994  0.6057
  592MOL0     H78085   9.516   8.256   6.540  1.0042  2.7776 -2.7523
  592MOL0     H78086   9.534   8.213   6.372  0.3651 -4.5567 -0.2900
  592MOL0     H78087   9.745   8.274   6.571  0.0429  1.0195 -0.3290
  592MOL0     H78088   9.787   8.199   6.422 -0.0259  0.1259  0.3894
  592MOL0     H78089   9.686   8.369   6.291  1.6669 -0.7700 -1.7403
  592MOL0     H78090   9.820   8.440   6.391 -1.4582  3.2338 -0.5295
  592MOL0     H78091   9.534   8.463   6.487  1.4580 -1.8772  1.3088
  592MOL0     H78092   9.603   8.574   6.359  1.4755  1.1136  0.3390
  592MOL0     H78093   9.682   8.537   6.655  1.8640  2.7876  1.4049
  592MOL0     H78094   9.810   8.577   6.542  0.3571  1.9533  1.2413
  592MOL0     H78095   9.568   8.757   6.575 -0.6320  0.6412  0.2120
  592MOL0     H78096   9.711   8.792   6.490 -1.0298  2.5666  1.5418
  592MOL0     H78097   9.955   8.769   6.656  0.8460  1.9438  0.4509
  592MOL0     H78098  10.075   8.940   6.792  0.6444 -0.9934  0.0902
  592MOL0     H78099  10.076   8.848   6.923  1.4649 -0.6610 -4.2321
  592MOL0     H78100   9.918   9.052   7.031 -1.0585 -0.9081 -0.3681
  592MOL0     H78101   9.979   9.149   6.910 -2.3438  0.1365 -0.0073
  592MOL0     H78102  10.165   8.988   7.090  0.0899  0.2148 -0.1514
  592MOL0     H78103  10.219   9.103   6.977 -1.4700 -1.0990 -0.8883
  592MOL0     H78104  10.235   9.222   7.196 -0.9134  3.8433  0.9898
  592MOL0     H78105  10.063   9.188   7.229 -2.0118  1.5397 -1.6763
  592MOL0     H78106   9.912   9.320   7.260  0.7385  0.5561 -0.1158
  592MOL0     H78107   9.851   9.521   7.397  0.5770  5.0703  1.7059
  592MOL0     H78108  10.079   9.900   7.720  1.3398 -0.6951 -1.3984
  592MOL0     H78109   9.989  10.122   7.833 -0.7696 -1.4349  0.5087
  592MOL0     H78110   9.807  10.392   7.873  3.3943  2.7072 -5.1498
  592MOL0     H78111   9.792  10.213   7.872 -1.2221 -0.5171 -0.7724
  592MOL0     H78112   9.584  10.228   7.728  2.0084 -1.3959  0.4639
  592MOL0     H78113   9.588  10.404   7.785 -0.1241  1.2423 -0.8079
  592MOL0     H78114   9.592  10.156   7.968  1.3091  1.0426  2.4779
  592MOL0     H78115   9.437  10.237   7.911 -0.4829  1.1417  2.5441
  592MOL0     H78116   9.636  10.414   8.047 -1.0651  1.0712 -0.3671
  592MOL0     H78117   9.469  10.435   8.020  1.7898  2.3900  1.3751
  592MOL0     H78118   9.550  10.344   8.265 -2.1219  2.4037 -0.3412
  592MOL0     H78119   9.579  10.189   8.188 -1.9248  0.3445  1.5841
  592MOL0     H78120   9.321  10.214   8.113 -1.7159 -1.0635  0.7258
  592MOL0     H78121   9.313  10.347   8.219 -0.0240 -0.5674 -0.8591
  592MOL0     H78122   9.230  10.150   8.333  0.0910  0.8698 -1.3673
  592MOL0     H78123   9.356  10.053   8.282 -1.5530 -0.9199 -0.0447
  592MOL0     H78124   9.428  10.282   8.488  1.7364 -0.7329  1.0414
  592MOL0     H78125   9.517  10.148   8.430 -1.3336  0.9325 -0.0065
  592MOL0     H78126   9.862  10.247   7.451  2.1355 -0.0107 -0.9470
  592MOL0     H78127   9.961  10.055   7.338 -0.2631  2.6211  0.2539
  592MOL0     H78128  10.173   9.736   7.260 -0.2990 -0.0638 -0.0546
  592MOL0     H78129  10.222   9.555   7.086  2.4126 -1.0496  2.1343
  592MOL0     H78130   9.282   7.756   6.624 -0.3575 -0.2757 -1.1369
  592MOL0     H78131   9.189   7.511   6.549  0.0577 -1.7346 -2.3531
  592MOL0     H78132   9.040   7.091   6.482 -0.4293  3.5987  1.8938
  592MOL0     H78133   8.881   6.951   6.350 -0.7350  0.0669  0.5366
  592MOL0     H78134   8.810   6.829   6.185 -0.4774 -0.0347 -0.8838
  592MOL0     H78135   8.771   6.824   6.027  2.1489 -0.6206  1.0543
  592MOL0     H78136   8.576   7.002   6.179 -0.5315  0.5990 -1.1495
  592MOL0     H78137   8.549   6.892   6.056 -0.8227  3.3771 -0.0950
  592MOL0     H78138   8.559   6.698   6.217  0.9295 -0.4727 -0.9880
  592MOL0     H78139   8.457   6.829   6.269  1.4066  2.1419  1.6368
  592MOL0     H78140   8.724   6.796   6.381  1.0290  1.5696  1.3247
  592MOL0     H78141   8.610   6.933   6.397  1.2468 -0.5200  0.3976
  592MOL0     H78142   8.435   6.596   6.601 -0.8286  0.2457 -1.0088
  592MOL0     H78143   8.964   7.203   6.006 -1.1715 -3.1344 -1.3416
  592MOL0     H78144   9.143   7.314   6.135  3.1095 -1.6544  2.3867
  593MOL0     O78145   2.114   5.752   2.767 -0.0867  0.2820  0.0283
  593MOL0     C78146   2.128   5.844   2.684  0.4180 -0.2417 -0.6065
  593MOL0     O78147   2.022   5.916   2.638 -0.9493  1.0001 -0.0446
  593MOL0     C78148   1.892   5.876   2.664 -0.0870  0.3282 -0.1493
  593MOL0     C78149   1.832   5.749   2.693  1.2485 -0.6466  0.7145
  593MOL0     C78150   1.698   5.744   2.711  0.1926  0.0524  0.2970
  593MOL0     C78151   1.621   5.859   2.718  0.1944  0.7403 -0.4153
  593MOL0     O78152   1.496   5.824   2.763 -0.7923 -0.4102 -0.4239
  593MOL0     C78153   1.406   5.931   2.769 -0.2387  0.5520 -0.4884
  593MOL0     C78154   1.256   5.901   2.786  0.3354 -0.0915  0.6972
  593MOL0     C78155   1.168   5.961   2.679  0.7092 -0.9803 -0.1662
  593MOL0     C78156   1.025   5.901   2.689 -1.3017 -0.3658 -0.4048
  593MOL0     C78157   0.928   5.989   2.604 -0.5394  0.7173 -0.0364
  593MOL0     C78158   0.930   5.959   2.449 -1.0764 -0.3230  0.4627
  593MOL0     C78159   0.894   5.819   2.404 -0.8193  0.7730  0.0177
  593MOL0     C78160   0.746   5.784   2.406  0.2117  0.3585  0.3156
  593MOL0     N78161   0.668   5.894   2.346  0.6996 -1.0827  1.1448
  593MOL0     C78162   0.579   5.989   2.405  0.2863  0.4302 -0.6676
  593MOL0     C78163   0.533   6.070   2.303 -1.1379 -0.3979  0.5043
  593MOL0     C78164   0.437   6.180   2.319 -0.0848  0.3033 -0.2108
  593MOL0     C78165   0.354   6.196   2.452  0.1110  0.4950 -0.0676
  593MOL0     C78166   0.232   6.278   2.411  0.4013 -0.5281 -1.0611
  593MOL0     C78167   0.252   6.425   2.371 -0.2690 -0.1743  0.5105
  593MOL0     O78168   0.370   6.485   2.430 -0.2596  0.3655 -0.0718
  593MOL0     C78169   0.400   6.615   2.399 -0.2567 -0.2103 -0.0711
  593MOL0     C78170   0.499   6.679   2.471  1.0196 -0.2670  0.3989
  593MOL0     C78171   0.546   6.805   2.451  0.2339 -0.6414 -0.5416
  593MOL0     C78172   0.479   6.888   2.350  0.2734  1.0023 -0.2274
  593MOL0     C78173   0.516   7.020   2.334  0.1387  0.2654 -0.0653
  593MOL0     O78174   0.561   7.080   2.449  0.3456 -0.6453 -0.8225
  593MOL0     C78175   0.589   7.211   2.449 -0.2765  0.3595 -0.4122
  593MOL0     C78176   0.553   7.276   2.564  0.4374 -0.1221  0.2520
  593MOL0     C78177   0.588   7.406   2.586  0.3547  0.4158  0.3836
  593MOL0     C78178   0.658   7.477   2.480 -0.8137  0.3604 -0.2912
  593MOL0     O78179   0.672   7.612   2.509  0.1736 -0.1997  0.8857
  593MOL0     C78180   0.779   7.678   2.440  0.1773  0.1422 -0.1599
  593MOL0     C78181   0.721   7.823   2.428  0.5438 -0.0338  0.5830
  593MOL0     C78182   0.715   7.893   2.570 -0.2637  0.2509 -0.0780
  593MOL0     C78183   0.647   8.034   2.566  0.3771  0.7675  0.3903
  593MOL0     C78184   0.632   8.113   2.705 -0.3760  0.8625  0.0223
  593MOL0     C78185   0.522   8.064   2.797  0.4863  0.5193  1.3110
  593MOL0     C78186   0.573   7.953   2.892  0.9411  0.2747 -0.1756
  593MOL0     C78187   0.468   7.927   2.994  0.2715  0.6300 -0.2201
  593MOL0    Cl78188   0.513   7.769   3.080 -0.1291 -0.2543  0.7056
  593MOL0     C78189   0.710   7.404   2.371 -0.5339 -0.9253 -0.4287
  593MOL0     C78190   0.680   7.273   2.353  0.0924  0.3636 -0.0967
  593MOL0     O78191   0.480   7.083   2.236 -0.4504 -0.1930  0.7107
  593MOL0     C78192   0.386   6.829   2.267  0.4255 -0.9691  1.0945
  593MOL0     C78193   0.347   6.693   2.291 -0.4442 -0.1735 -0.1475
  593MOL0     N78194   0.608   6.037   2.191  0.1059  0.0859  0.8136
  593MOL0     N78195   0.691   5.942   2.220  0.1805 -0.1991 -0.2664
  593MOL0     C78196   1.676   5.985   2.688  0.5517 -0.1477  0.8269
  593MOL0     C78197   1.807   5.987   2.649  0.5893 -0.7692  0.2740
  593MOL0     C78198   2.261   5.859   2.636 -0.3039 -0.3845  0.5590
  593MOL0     C78199   2.368   5.773   2.650  0.3179 -0.0326 -0.0969
  593MOL0     C78200   2.490   5.803   2.591  1.2432  0.1290 -1.3126
  593MOL0     C78201   2.507   5.910   2.511 -0.0445 -0.2246  0.0449
  593MOL0     O78202   2.628   5.923   2.448  0.0890 -0.1265  0.2294
  593MOL0     C78203   2.610   5.909   2.303 -0.5276 -1.6367 -0.5131
  593MOL0     C78204   2.702   5.786   2.277 -0.2308 -0.4970  0.8501
  593MOL0     C78205   2.854   5.816   2.312  0.7530  1.0545 -0.7522
  593MOL0     C78206   2.925   5.672   2.304  0.2451 -0.2313 -0.9591
  593MOL0     C78207   3.073   5.670   2.319  0.2270  0.2996  0.1922
  593MOL0     C78208   3.192   5.641   2.323  0.3788  0.2996 -0.3189
  593MOL0     C78209   2.403   5.997   2.494 -0.1698  1.0703  0.1315
  593MOL0     C78210   2.274   5.968   2.553  0.1907 -0.3381 -0.4885
  593MOL0     H78211   1.890   5.661   2.719  0.8329 -1.7425 -1.7468
  593MOL0     H78212   1.651   5.647   2.728 -2.8317  1.4151  0.2666
  593MOL0     H78213   1.409   5.980   2.671 -3.4365 -0.1308 -1.0394
  593MOL0     H78214   1.429   5.992   2.857 -0.5620 -1.5109  1.0926
  593MOL0     H78215   1.222   5.926   2.887 -2.0569 -1.3169  0.2734
  593MOL0     H78216   1.239   5.794   2.773 -1.9540  0.3606 -0.4150
  593MOL0     H78217   1.214   5.946   2.581  2.2850 -1.2088  0.5848
  593MOL0     H78218   1.177   6.068   2.701 -1.8438 -1.0280  1.5640
  593MOL0     H78219   1.026   5.795   2.663  0.8206  0.3085 -3.5727
  593MOL0     H78220   0.984   5.914   2.790  0.7445 -2.2114  0.7649
  593MOL0     H78221   0.943   6.097   2.614 -0.5870  0.8660 -1.3472
  593MOL0     H78222   0.825   5.967   2.634 -0.4395  0.1607 -0.0938
  593MOL0     H78223   1.033   5.982   2.417 -1.7955 -0.3726 -2.1638
  593MOL0     H78224   0.873   6.026   2.385  1.1910  2.1136  0.7996
  593MOL0     H78225   0.925   5.811   2.299 -1.6170  0.8522 -0.2311
  593MOL0     H78226   0.948   5.749   2.468  1.7962  2.0294 -0.6880
  593MOL0     H78227   0.717   5.751   2.506  1.3849  0.3306  0.6595
  593MOL0     H78228   0.710   5.698   2.348 -0.6099 -0.5116  2.0549
  593MOL0     H78229   0.532   5.988   2.503 -1.1402  4.6031 -1.1211
  593MOL0     H78230   0.379   6.183   2.226 -0.1378 -2.7863 -0.3822
  593MOL0     H78231   0.505   6.266   2.316  0.6972  0.0446  4.0249
  593MOL0     H78232   0.415   6.256   2.521  0.1420 -0.3663  0.6711
  593MOL0     H78233   0.335   6.095   2.490  2.1021  0.7695  1.8722
  593MOL0     H78234   0.181   6.239   2.322  2.2726  4.0340 -4.5011
  593MOL0     H78235   0.170   6.280   2.501 -0.1191 -0.8525 -1.4004
  593MOL0     H78236   0.163   6.487   2.383  1.0722  2.1203 -0.7241
  593MOL0     H78237   0.271   6.438   2.264 -4.5460  3.8633 -0.0959
  593MOL0     H78238   0.531   6.627   2.561 -1.1533 -1.0668  0.7677
  593MOL0     H78239   0.615   6.847   2.524 -0.0262 -0.8766 -0.1591
  593MOL0     H78240   0.502   7.217   2.640  0.2766 -3.5483 -2.2492
  593MOL0     H78241   0.552   7.467   2.669 -1.4712 -2.0946  1.5589
  593MOL0     H78242   0.795   7.653   2.335  0.2112  0.0268 -0.1271
  593MOL0     H78243   0.866   7.669   2.506  0.2671 -0.0108 -0.2988
  593MOL0     H78244   0.623   7.825   2.380  2.1936  1.5224 -3.0960
  593MOL0     H78245   0.777   7.890   2.363 -3.0851  2.2921 -0.4296
  593MOL0     H78246   0.820   7.901   2.599  0.5714  1.6637 -3.0641
  593MOL0     H78247   0.666   7.831   2.645 -0.5536  1.3586  0.6658
  593MOL0     H78248   0.720   8.091   2.508 -0.3437  0.0863 -1.2132
  593MOL0     H78249   0.551   8.032   2.515  0.0236 -0.7243  1.0423
  593MOL0     H78250   0.625   8.218   2.676  1.4095  1.5867  2.0103
  593MOL0     H78251   0.726   8.119   2.760  0.0417  1.0831 -0.7183
  593MOL0     H78252   0.431   8.042   2.741  1.1065  0.5117  0.2925
  593MOL0     H78253   0.500   8.152   2.859  0.4798 -0.4401  2.7257
  593MOL0     H78254   0.587   7.862   2.833  1.6964 -0.5830  1.2969
  593MOL0     H78255   0.669   7.975   2.939  4.1775 -4.7310 -3.4591
  593MOL0     H78256   0.370   7.932   2.945  0.8294  0.5283 -1.3726
  593MOL0     H78257   0.472   8.014   3.061  0.3339 -1.3666  2.5610
  593MOL0     H78258   0.775   7.450   2.298 -0.3979 -0.3272  0.0585
  593MOL0     H78259   0.705   7.215   2.264  0.6527 -2.4966  1.7926
  593MOL0     H78260   0.335   6.902   2.204  0.0522  0.4029  2.8823
  593MOL0     H78261   0.278   6.646   2.222  0.8836 -4.4301  1.1561
  593MOL0     H78262   1.637   6.085   2.705  3.8322  1.0444  2.2955
  593MOL0     H78263   1.850   6.083   2.622 -1.2108 -0.4425 -1.6740
  593MOL0     H78264   2.357   5.681   2.706  0.6783 -1.8832 -2.8728
  593MOL0     H78265   2.573   5.733   2.590  2.8795  1.9788 -1.7458
  593MOL0     H78266   2.652   5.990   2.242 -2.3569 -0.7255 -0.6112
  593MOL0     H78267   2.512   5.895   2.258 -1.9888 -0.8364  2.1822
  593MOL0     H78268   2.662   5.705   2.338 -2.2820 -0.6018 -0.5371
  593MOL0     H78269   2.709   5.751   2.174  1.0144 -0.7410  0.9982
  593MOL0     H78270   2.868   5.847   2.416 -1.5106 -2.4633  0.8068
  593MOL0     H78271   2.905   5.876   2.237  1.1049  0.3451 -1.0879
  593MOL0     H78272   2.875   5.599   2.368  1.2392 -0.8656 -0.8850
  593MOL0     H78273   2.918   5.644   2.198  0.5603 -0.7039 -0.8583
  593MOL0     H78274   3.295   5.614   2.326  0.7791  1.7962  1.4485
  593MOL0     H78275   2.392   6.086   2.433  0.0606  0.4305 -0.8848
  593MOL0     H78276   2.194   6.039   2.532 -1.9846 -2.5897 -0.2221
  594MOL0     O78277   6.252   0.097   9.489  0.3946  0.0872 -0.3565
  594MOL0     C78278   6.336   0.182   9.453 -0.0382 -0.4657  1.3407
  594MOL0     O78279   6.410   0.268   9.528 -0.7993 -0.4016 -0.1171
  594MOL0     C78280   6.383   0.278   9.658 -0.8429 -0.8774  0.1295
  594MOL0     C78281   6.268   0.352   9.698  0.2022  0.6628  0.1427
  594MOL0     C78282   6.252   0.384   9.836 -0.1548  0.2284 -0.0963
  594MOL0     C78283   6.338   0.327   9.932  0.6754  0.9204 -0.0552
  594MOL0     O78284   6.338   0.356  10.061  0.5371  0.8377  0.2815
  594MOL0     C78285   6.235   0.290  10.132 -0.1769  0.1566 -0.3385
  594MOL0     C78286   6.233   0.348  10.273  0.2804 -0.4703  0.1743
  594MOL0     C78287   6.175   0.495  10.273 -0.3913  0.9376  0.3346
  594MOL0     C78288   6.204   0.561  10.408  0.6995  0.4437 -0.1691
  594MOL0     C78289   6.140   0.704  10.433 -1.1869  0.0812  0.2471
  594MOL0     C78290   6.253   0.808  10.409  0.4629  0.4393  0.5004
  594MOL0     C78291   6.213   0.944  10.446  0.1538  0.6190  0.0318
  594MOL0     C78292   6.332   1.042  10.413 -0.0099 -0.2713 -0.9606
  594MOL0     N78293   6.318   1.183  10.459 -0.4822 -0.0680  0.3644
  594MOL0     C78294   6.380   1.224  10.575 -0.0910 -0.1264  1.1476
  594MOL0     C78295   6.346   1.354  10.585  1.2781  0.5644 -0.3455
  594MOL0     C78296   6.406   1.471  10.668  0.2059 -0.2449 -0.4581
  594MOL0     C78297   6.432   1.432  10.812  0.3993  0.2656 -0.0768
  594MOL0     C78298   6.478   1.567  10.879 -0.3434  1.2305 -0.5192
  594MOL0     C78299   6.499   1.522  11.022  0.5939  0.2333  0.0171
  594MOL0     O78300   6.622   1.444  11.038  0.1364 -0.0116 -0.2917
  594MOL0     C78301   6.749   1.498  11.004  0.4392 -0.0019 -0.9723
  594MOL0     C78302   6.833   1.544  11.110  0.1517 -0.2310  0.7297
  594MOL0     C78303   6.971   1.572  11.091 -0.3777  0.0258  0.0436
  594MOL0     C78304   7.023   1.578  10.953 -0.6248  0.3821 -0.0716
  594MOL0     C78305   7.163   1.626  10.929 -0.2176 -0.8024  0.1874
  594MOL0     O78306   7.216   1.635  10.804  0.0818  0.0146  0.3189
  594MOL0     C78307   7.344   1.688  10.791 -0.5933 -0.3407  1.0655
  594MOL0     C78308   7.354   1.821  10.790  0.3020  0.1239  0.5246
  594MOL0     C78309   7.479   1.883  10.789 -0.3835  0.9749  0.1819
  594MOL0     C78310   7.591   1.811  10.802 -0.6602  0.2418 -0.3549
  594MOL0     O78311   7.715   1.877  10.828  0.1526 -0.2928  0.4775
  594MOL0     C78312   7.834   1.802  10.799  0.1541 -0.0950 -0.4567
  594MOL0     C78313   7.949   1.911  10.822  0.0462  0.2250  0.3894
  594MOL0     C78314   8.088   1.841  10.806 -0.4389 -0.1236 -0.5544
  594MOL0     C78315   8.114   1.794  10.671  0.5670  0.4040 -0.1320
  594MOL0     C78316   8.246   1.720  10.659 -0.3022  0.3617  0.1551
  594MOL0     C78317   8.365   1.824  10.668 -0.1317 -0.8833  0.1854
  594MOL0     C78318   8.495   1.749  10.712  0.0219  1.0655  0.2571
  594MOL0     C78319   8.610   1.832  10.655 -0.8746 -0.3980 -0.2158
  594MOL0    Cl78320   8.748   1.780  10.745  0.2293 -0.0438  0.2712
  594MOL0     C78321   7.586   1.668  10.813 -0.5892  0.5322  0.5923
  594MOL0     C78322   7.457   1.612  10.808  0.1752  0.7084  1.1936
  594MOL0     O78323   7.224   1.651  11.033 -0.3086  0.5982  0.3722
  594MOL0     C78324   6.941   1.539  10.848 -0.2941 -0.0945 -0.5056
  594MOL0     C78325   6.808   1.500  10.878 -0.3865  0.0096  0.1634
  594MOL0     N78326   6.267   1.389  10.465 -1.0385 -1.0337 -0.1936
  594MOL0     N78327   6.256   1.283  10.396  0.2955 -0.1160  0.1003
  594MOL0     C78328   6.437   0.252   9.893  0.0525 -0.4132  0.9234
  594MOL0     C78329   6.461   0.220   9.754  0.2432  0.2745 -0.1677
  594MOL0     C78330   6.352   0.200   9.303  0.1804  0.8621 -0.7933
  594MOL0     C78331   6.254   0.140   9.219 -0.6449  0.0236 -0.4669
  594MOL0     C78332   6.241   0.162   9.089  0.5367 -0.2301  0.0589
  594MOL0     C78333   6.335   0.247   9.022  0.6343 -1.0724  0.6613
  594MOL0     O78334   6.328   0.282   8.889 -0.2057 -0.0674  0.5655
  594MOL0     C78335   6.241   0.201   8.806  0.5693 -0.1706 -0.0137
  594MOL0     C78336   6.267   0.263   8.659  0.2192  0.2817 -0.5932
  594MOL0     C78337   6.209   0.174   8.539 -0.8497  0.6200  0.4405
  594MOL0     C78338   6.246   0.247   8.400  0.0721 -0.8552 -0.9755
  594MOL0     C78339   6.241   0.149   8.288 -0.6334  0.4062  0.4912
  594MOL0     C78340   6.233   0.058   8.206  0.9797  0.4161 -0.4332
  594MOL0     C78341   6.450   0.294   9.100 -0.1060  0.3373 -0.5573
  594MOL0     C78342   6.454   0.270   9.239  0.3112  0.1171  0.0679
  594MOL0     H78343   6.195   0.387   9.626 -0.2927  1.6315  1.0870
  594MOL0     H78344   6.168   0.446   9.867  0.1628  0.7738 -0.3163
  594MOL0     H78345   6.238   0.182  10.147  1.2275  0.0444 -1.2018
  594MOL0     H78346   6.138   0.297  10.082 -0.7173 -0.2068  0.6134
  594MOL0     H78347   6.339   0.357  10.299  0.4342 -1.2681 -0.1574
  594MOL0     H78348   6.174   0.278  10.333 -0.8702  1.7035  1.6908
  594MOL0     H78349   6.071   0.502  10.238  1.1861  0.9843 -5.4922
  594MOL0     H78350   6.229   0.555  10.200 -2.2525  2.8631  0.4524
  594MOL0     H78351   6.134   0.506  10.473  0.6655  0.1588 -0.4433
  594MOL0     H78352   6.311   0.548  10.426  0.8625 -0.8192 -1.8470
  594MOL0     H78353   6.097   0.719  10.532  0.2240  0.8445  0.7825
  594MOL0     H78354   6.052   0.720  10.370  0.2822  1.5763 -1.5856
  594MOL0     H78355   6.297   0.812  10.309 -0.6460 -1.9561 -0.1660
  594MOL0     H78356   6.332   0.775  10.478 -1.4386 -1.7209  1.7634
  594MOL0     H78357   6.124   0.976  10.392 -1.3709  0.7057  2.4506
  594MOL0     H78358   6.196   0.958  10.553  1.9569  5.3690 -0.0782
  594MOL0     H78359   6.343   1.049  10.304  1.1444  0.1228 -0.8381
  594MOL0     H78360   6.423   1.004  10.461  0.5794 -0.1696 -1.9507
  594MOL0     H78361   6.444   1.161  10.636 -0.0247 -1.7839 -0.5388
  594MOL0     H78362   6.339   1.557  10.670  0.1278 -0.3000  2.1471
  594MOL0     H78363   6.495   1.505  10.614 -0.6772 -0.0200 -1.8135
  594MOL0     H78364   6.512   1.360  10.832 -0.9692 -0.7771  1.9649
  594MOL0     H78365   6.342   1.384  10.852 -0.0210  2.2479  1.5215
  594MOL0     H78366   6.569   1.599  10.828  0.0796 -3.1999 -2.9979
  594MOL0     H78367   6.404   1.647  10.876  0.0146  1.7476  1.9946
  594MOL0     H78368   6.415   1.457  11.049 -0.1345  1.3831  0.6176
  594MOL0     H78369   6.495   1.605  11.094  2.0327  3.0003 -2.8149
  594MOL0     H78370   6.781   1.551  11.205 -3.6106 -1.7841 -1.0174
  594MOL0     H78371   7.035   1.590  11.178  1.5875  2.2742 -1.7265
  594MOL0     H78372   7.270   1.889  10.789 -0.2439 -0.2565  4.5060
  594MOL0     H78373   7.483   1.991  10.776 -3.5179  1.4507  2.0131
  594MOL0     H78374   7.838   1.766  10.696 -0.7350  0.2521 -0.6199
  594MOL0     H78375   7.845   1.725  10.875 -2.8701  0.8597  1.0854
  594MOL0     H78376   7.939   1.962  10.919 -2.2386  0.9730 -0.1897
  594MOL0     H78377   7.945   1.989  10.745  1.7990 -2.0508 -2.1919
  594MOL0     H78378   8.100   1.754  10.871  1.5808 -0.6375 -1.5266
  594MOL0     H78379   8.160   1.918  10.837  2.2498 -3.2207  1.5481
  594MOL0     H78380   8.038   1.730  10.625 -1.8535  4.4370 -2.4539
  594MOL0     H78381   8.106   1.878  10.600 -2.5357 -0.6001 -1.1518
  594MOL0     H78382   8.247   1.666  10.564 -0.4564 -1.8238  1.3505
  594MOL0     H78383   8.248   1.644  10.737 -0.1416  2.3040  2.1661
  594MOL0     H78384   8.348   1.910  10.734 -0.1115  0.9992 -2.0991
  594MOL0     H78385   8.383   1.870  10.570 -2.6990  0.5331  0.2929
  594MOL0     H78386   8.501   1.731  10.819  2.1576 -3.1756 -0.3661
  594MOL0     H78387   8.500   1.647  10.674  3.0273  0.7827  1.1780
  594MOL0     H78388   8.594   1.939  10.669  2.8781  0.4908 -1.4213
  594MOL0     H78389   8.630   1.821  10.548  2.3416 -1.9408  0.4371
  594MOL0     H78390   7.672   1.603  10.827 -0.4029  0.2373 -1.5072
  594MOL0     H78391   7.439   1.507  10.828 -3.3658  1.7141  4.4375
  594MOL0     H78392   6.974   1.540  10.744 -1.1329  0.6455 -0.7779
  594MOL0     H78393   6.753   1.465  10.792 -3.4854 -3.1535  3.0952
  594MOL0     H78394   6.499   0.201   9.965  0.4964  0.2585  1.0294
  594MOL0     H78395   6.544   0.155   9.730  0.0896  0.5965 -1.6812
  594MOL0     H78396   6.167   0.092   9.263 -1.1027  0.7345 -0.5799
  594MOL0     H78397   6.151   0.137   9.035 -0.9282 -1.4022  2.8311
  594MOL0     H78398   6.133   0.206   8.817  0.6427  0.8546  0.4326
  594MOL0     H78399   6.275   0.098   8.816 -0.1480 -0.6490 -2.0864
  594MOL0     H78400   6.215   0.358   8.643 -1.7045 -0.4979  0.7223
  594MOL0     H78401   6.376   0.274   8.654  0.1909  0.5275 -0.6773
  594MOL0     H78402   6.101   0.163   8.553 -0.5706  0.3436  2.9748
  594MOL0     H78403   6.254   0.074   8.548 -3.9486 -0.9243  0.0436
  594MOL0     H78404   6.183   0.334   8.380  0.4783 -0.6429 -1.3455
  594MOL0     H78405   6.343   0.297   8.403 -0.9517  1.1938 -0.0847
  594MOL0     H78406   6.233  -0.010   8.124 -1.1600 -1.1566  0.7654
  594MOL0     H78407   6.535   0.352   9.065 -0.1034  0.9415  0.4185
  594MOL0     H78408   6.534   0.294   9.308 -1.7126 -0.9158  2.9936
  595MOL0     O78409   0.884   4.552  10.315  0.0665 -0.4616 -0.3591
  595MOL0     C78410   0.923   4.613  10.219  0.3398 -0.0450 -0.2166
  595MOL0     O78411   1.013   4.567  10.130  0.4887 -0.0815  0.4012
  595MOL0     C78412   1.065   4.442  10.156 -0.0790 -0.6757  0.0833
  595MOL0     C78413   1.181   4.436  10.229 -0.8916  0.6854  0.2486
  595MOL0     C78414   1.237   4.307  10.263  0.1480  0.3420  0.4981
  595MOL0     C78415   1.170   4.185  10.220  0.1041 -0.2941 -0.9093
  595MOL0     O78416   1.211   4.056  10.240  0.2412  0.0800 -0.4033
  595MOL0     C78417   1.309   4.036  10.332  0.2166  0.0626  0.4086
  595MOL0     C78418   1.266   4.043  10.483 -0.5575 -0.2469  0.1490
  595MOL0     C78419   1.378   4.006  10.582  0.0835  0.2691 -0.2316
  595MOL0     C78420   1.309   3.972  10.715  1.1624 -0.2229 -0.4416
  595MOL0     C78421   1.398   3.945  10.834 -1.0521 -0.3088 -0.3095
  595MOL0     C78422   1.455   4.082  10.884  0.0755 -0.0660 -0.3926
  595MOL0     C78423   1.362   4.191  10.952 -0.1029  0.1425  0.9286
  595MOL0     C78424   1.445   4.308  11.016  0.0730  0.1698 -0.9125
  595MOL0     N78425   1.541   4.373  10.933 -1.2502  0.5340 -0.0630
  595MOL0     C78426   1.519   4.462  10.832  0.2872  0.6769 -0.0789
  595MOL0     C78427   1.641   4.499  10.797 -0.0568  1.2129  0.2366
  595MOL0     C78428   1.667   4.583  10.680  0.2011 -0.0139 -0.1581
  595MOL0     C78429   1.801   4.654  10.677 -0.4049  0.1376  0.2416
  595MOL0     C78430   1.826   4.760  10.782 -0.4598  0.6071  0.0899
  595MOL0     C78431   1.937   4.867  10.768 -0.6402 -0.2743  0.9547
  595MOL0     O78432   1.912   4.949  10.655  0.9467  0.7077 -0.2431
  595MOL0     C78433   1.988   5.060  10.636  0.9925  0.8059 -0.0573
  595MOL0     C78434   1.926   5.177  10.597  0.3711 -0.2298 -0.4325
  595MOL0     C78435   2.000   5.297  10.588 -0.4126 -0.3283  0.5738
  595MOL0     C78436   2.136   5.284  10.570 -0.3541 -0.4954 -0.5443
  595MOL0     C78437   2.203   5.408  10.544  0.7445  0.3261 -0.0053
  595MOL0     O78438   2.126   5.526  10.542  0.1921 -0.3088 -0.4608
  595MOL0     C78439   2.201   5.644  10.513  0.6174 -0.1946 -0.1148
  595MOL0     C78440   2.192   5.700  10.387 -0.0764 -1.0656  0.1402
  595MOL0     C78441   2.240   5.825  10.345 -0.1137 -0.2772  0.1532
  595MOL0     C78442   2.294   5.910  10.438  0.8357  1.1594  0.5068
  595MOL0     O78443   2.354   6.022  10.384  0.3096 -0.0239  0.2723
  595MOL0     C78444   2.372   6.140  10.466  0.6595  0.3449 -0.7343
  595MOL0     C78445   2.246   6.198  10.502  0.8488  0.3307 -0.0230
  595MOL0     C78446   2.262   6.309  10.603 -0.2058  0.7829 -0.2031
  595MOL0     C78447   2.327   6.444  10.561  0.3071  0.9083  0.1709
  595MOL0     C78448   2.246   6.538  10.464 -0.6409 -0.5468  0.2205
  595MOL0     C78449   2.097   6.541  10.501  1.3058  0.1162  0.5594
  595MOL0     C78450   2.023   6.649  10.425  0.4101 -0.2308  0.4802
  595MOL0     C78451   2.042   6.653  10.270 -0.2415  0.0471  0.2919
  595MOL0    Cl78452   2.008   6.489  10.198  0.0796 -0.3559 -0.4447
  595MOL0     C78453   2.320   5.853  10.567 -0.1500  0.7812  0.3556
  595MOL0     C78454   2.270   5.722  10.605 -0.0484  0.6703  0.5258
  595MOL0     O78455   2.324   5.398  10.516  0.2484 -0.6276  0.0434
  595MOL0     C78456   2.202   5.163  10.607 -0.3658  0.7884  0.0124
  595MOL0     C78457   2.124   5.053  10.639  0.2838 -0.1710 -0.1450
  595MOL0     N78458   1.741   4.449  10.880  0.2142  0.3738 -0.7129
  595MOL0     N78459   1.682   4.368  10.957  0.7228  0.2277 -0.9706
  595MOL0     C78460   1.051   4.209  10.145  1.1625  0.1537  0.5361
  595MOL0     C78461   1.002   4.330  10.106 -0.0777  0.4755  1.0419
  595MOL0     C78462   0.875   4.749  10.196  0.0504 -0.8118 -0.9031
  595MOL0     C78463   0.893   4.824  10.080  0.2895  0.6494  0.2239
  595MOL0     C78464   0.855   4.958  10.061 -0.2111 -0.3090 -0.1987
  595MOL0     C78465   0.760   5.015  10.141 -0.1462  0.1813 -0.2923
  595MOL0     O78466   0.719   5.142  10.110  0.2111 -0.5166  0.3336
  595MOL0     C78467   0.590   5.183  10.155  0.3714  0.0780  0.4143
  595MOL0     C78468   0.533   5.311  10.082 -0.6126 -0.6942  1.1730
  595MOL0     C78469   0.641   5.427  10.049  0.0222 -0.3193 -0.6808
  595MOL0     C78470   0.645   5.516  10.175 -1.2051 -0.0270  0.4873
  595MOL0     C78471   0.782   5.569  10.175  0.6861  0.4338 -0.1324
  595MOL0     C78472   0.890   5.605  10.176  0.5094  0.5278  0.7627
  595MOL0     C78473   0.721   4.941  10.252 -0.3169 -0.6583  0.0542
  595MOL0     C78474   0.775   4.815  10.279 -0.0539  0.0674 -0.3777
  595MOL0     H78475   1.242   4.525  10.242 -0.3819  0.1346  1.8293
  595MOL0     H78476   1.327   4.301  10.324  0.7999  3.6016  0.0425
  595MOL0     H78477   1.397   4.099  10.318  0.1514  0.0107 -0.2334
  595MOL0     H78478   1.360   3.942  10.309 -1.4145 -0.3742 -1.6794
  595MOL0     H78479   1.175   3.985  10.505 -0.0997 -1.2494 -0.5042
  595MOL0     H78480   1.237   4.147  10.497  3.2623  1.4180 -2.5751
  595MOL0     H78481   1.456   4.083  10.587  1.5831 -1.2321  0.8116
  595MOL0     H78482   1.425   3.909  10.562 -1.0670 -0.4232  0.3095
  595MOL0     H78483   1.233   4.048  10.735 -0.0733 -0.2549 -4.1642
  595MOL0     H78484   1.242   3.886  10.701 -1.7863  1.5974  1.3874
  595MOL0     H78485   1.472   3.866  10.814 -0.4499  0.1769 -0.0571
  595MOL0     H78486   1.336   3.906  10.915 -0.8527  2.1880  1.1552
  595MOL0     H78487   1.510   4.130  10.802 -1.6890  1.3305 -0.8339
  595MOL0     H78488   1.542   4.067  10.949  0.8722  4.5181 -0.0182
  595MOL0     H78489   1.284   4.228  10.885 -0.1658 -1.9022 -0.2232
  595MOL0     H78490   1.311   4.146  11.037  2.1040 -0.4500  2.0072
  595MOL0     H78491   1.480   4.250  11.102 -0.3099 -0.4884 -1.1865
  595MOL0     H78492   1.376   4.380  11.060 -1.7385 -2.4549  0.8923
  595MOL0     H78493   1.419   4.485  10.797 -0.9940 -1.1102  2.1186
  595MOL0     H78494   1.593   4.663  10.692 -1.6509 -1.8679  1.4155
  595MOL0     H78495   1.661   4.526  10.587  0.4941 -0.0539 -0.1521
  595MOL0     H78496   1.826   4.704  10.582 -2.0893  0.0518 -0.2895
  595MOL0     H78497   1.859   4.562  10.683 -5.5462 -3.7031 -1.7640
  595MOL0     H78498   1.736   4.822  10.773 -2.8831 -2.8343 -2.1354
  595MOL0     H78499   1.841   4.719  10.882 -0.9748  1.0134  0.3436
  595MOL0     H78500   2.031   4.810  10.768 -1.7834 -2.3429 -1.4455
  595MOL0     H78501   1.938   4.927  10.859 -0.5007 -0.4945  1.0997
  595MOL0     H78502   1.819   5.183  10.577 -0.0860 -1.4231  1.4158
  595MOL0     H78503   1.946   5.391  10.577  1.8165  0.7182 -2.7755
  595MOL0     H78504   2.140   5.638  10.315  1.7205 -0.6142 -1.6430
  595MOL0     H78505   2.219   5.842  10.240  2.6676  1.4601 -0.2206
  595MOL0     H78506   2.443   6.212  10.426 -1.2796  2.3520 -0.7624
  595MOL0     H78507   2.423   6.106  10.556 -1.6658 -1.2637  0.0951
  595MOL0     H78508   2.192   6.112  10.542 -1.6259  0.1171 -3.3370
  595MOL0     H78509   2.191   6.232  10.413  1.1893 -2.1887 -1.2878
  595MOL0     H78510   2.329   6.271  10.680  0.8342 -1.6856 -2.1804
  595MOL0     H78511   2.167   6.332  10.652 -1.2156  1.8670 -2.5041
  595MOL0     H78512   2.344   6.484  10.661  1.8141 -1.5596  0.9827
  595MOL0     H78513   2.425   6.418  10.521  0.9081  1.2619  1.3609
  595MOL0     H78514   2.253   6.503  10.361 -0.1175 -0.0601  0.0835
  595MOL0     H78515   2.278   6.643  10.463 -2.5125  0.1363 -3.6185
  595MOL0     H78516   2.087   6.578  10.603  0.2946  2.0962 -0.2009
  595MOL0     H78517   2.059   6.440  10.482  3.1247  0.1100 -4.7714
  595MOL0     H78518   1.923   6.656  10.468  0.7704 -2.4581  1.8570
  595MOL0     H78519   2.067   6.742  10.463  1.3253 -0.4146 -0.1024
  595MOL0     H78520   2.143   6.679  10.235  0.2544 -2.4824 -0.3013
  595MOL0     H78521   1.975   6.727  10.226  1.2250  1.0433 -0.3582
  595MOL0     H78522   2.359   5.919  10.644 -1.1355  0.1571  1.4262
  595MOL0     H78523   2.278   5.688  10.707 -0.1455  0.3093  0.4120
  595MOL0     H78524   2.309   5.151  10.612 -0.6271 -1.5784  1.0935
  595MOL0     H78525   2.177   4.962  10.665  1.1915  0.3884  0.0177
  595MOL0     H78526   0.999   4.119  10.115 -1.2566  1.2653  1.1466
  595MOL0     H78527   0.913   4.346  10.045 -0.5219 -0.3567  1.4597
  595MOL0     H78528   0.952   4.779  10.001  0.3847  2.0297 -0.5078
  595MOL0     H78529   0.883   5.021   9.977 -2.2206  0.3741 -0.3973
  595MOL0     H78530   0.590   5.206  10.262 -0.5229  1.4706  0.1478
  595MOL0     H78531   0.526   5.095  10.140  2.3643 -0.9444 -3.8177
  595MOL0     H78532   0.527   5.265   9.984  1.4626 -2.7311  1.9182
  595MOL0     H78533   0.437   5.356  10.110 -0.2948  0.4953  0.4374
  595MOL0     H78534   0.613   5.495   9.968 -0.0687 -0.3892 -0.7071
  595MOL0     H78535   0.737   5.378  10.030 -0.1632 -0.0509 -2.4877
  595MOL0     H78536   0.569   5.592  10.194 -0.8805 -0.4315  4.2839
  595MOL0     H78537   0.611   5.462  10.265 -3.1510  0.5459  0.1550
  595MOL0     H78538   0.985   5.654  10.175  0.9792 -0.3523 -0.5121
  595MOL0     H78539   0.645   4.990  10.312 -0.1606 -0.7862  0.3644
  595MOL0     H78540   0.749   4.773  10.375 -2.3855  1.2760 -0.4110
  596MOL0     O78541   0.730   0.148   9.925 -0.1983 -0.9800 -0.1275
  596MOL0     C78542   0.695   0.090   9.827 -0.0640  0.2055  0.9156
  596MOL0     O78543   0.764  -0.023   9.778  0.6652  1.2323  0.5856
  596MOL0     C78544   0.888  -0.061   9.820 -0.2116 -0.0316  1.1909
  596MOL0     C78545   1.001  -0.011   9.744  0.5341  0.2121  0.5074
  596MOL0     C78546   1.125  -0.062   9.781 -0.2869  0.0911  0.3967
  596MOL0     C78547   1.148  -0.140   9.890  0.6808 -0.8675  0.4296
  596MOL0     O78548   1.272  -0.188   9.901 -0.7705 -0.1241 -0.6086
  596MOL0     C78549   1.322  -0.279  10.005 -0.1397  1.1437  0.2207
  596MOL0     C78550   1.480  -0.287  10.012  0.5085 -0.2240 -0.1986
  596MOL0     C78551   1.544  -0.345   9.879  0.0255 -0.2991 -0.7941
  596MOL0     C78552   1.508  -0.486   9.845  0.7893  0.4063  0.9902
  596MOL0     C78553   1.606  -0.543   9.735 -0.6823 -0.1184 -0.2795
  596MOL0     C78554   1.561  -0.486   9.597 -0.4198 -0.1431  0.2551
  596MOL0     C78555   1.648  -0.550   9.492 -0.6062 -0.6979 -0.2139
  596MOL0     C78556   1.609  -0.527   9.346  0.2830  0.8030  0.5944
  596MOL0     N78557   1.642  -0.395   9.293  0.6341  0.5786 -0.5256
  596MOL0     C78558   1.622  -0.373   9.157 -0.5282  0.1441  0.3716
  596MOL0     C78559   1.662  -0.248   9.134 -0.7892  0.0265  0.0480
  596MOL0     C78560   1.671  -0.171   9.008 -0.5995 -0.3276 -0.1963
  596MOL0     C78561   1.561  -0.076   8.970  0.1944  0.0159  0.4358
  596MOL0     C78562   1.573   0.054   9.049 -1.4859  0.7099  0.8514
  596MOL0     C78563   1.449   0.144   9.022 -0.2880  0.7856  0.3674
  596MOL0     O78564   1.429   0.159   8.877 -0.1243 -0.6396 -0.5263
  596MOL0     C78565   1.349   0.259   8.829 -0.5018 -1.0851 -0.0914
  596MOL0     C78566   1.263   0.347   8.897 -0.3332  0.4523 -0.8509
  596MOL0     C78567   1.160   0.406   8.831 -0.5639  1.0406  0.0219
  596MOL0     C78568   1.149   0.399   8.690  0.0703 -0.0650  0.5728
  596MOL0     C78569   1.044   0.464   8.616  0.3188 -0.2570  0.0578
  596MOL0     O78570   0.938   0.511   8.685 -0.0096 -0.4789  0.4325
  596MOL0     C78571   0.827   0.587   8.625  0.0556 -0.3750  0.6243
  596MOL0     C78572   0.700   0.549   8.666  0.5321 -0.2136 -0.9123
  596MOL0     C78573   0.586   0.623   8.634  0.4634 -0.3947 -0.5846
  596MOL0     C78574   0.595   0.733   8.550 -0.7362 -0.2246  0.1597
  596MOL0     O78575   0.503   0.817   8.509  0.2364 -0.5636  0.1469
  596MOL0     C78576   0.364   0.777   8.519  0.0946  0.2028 -0.8182
  596MOL0     C78577   0.280   0.870   8.442  1.0385 -0.1515  0.2565
  596MOL0     C78578   0.257   1.012   8.503 -0.5193 -0.4157  0.0680
  596MOL0     C78579   0.375   1.094   8.445  0.0350  0.2229 -0.4890
  596MOL0     C78580   0.404   1.224   8.524 -1.1718  1.0843 -0.7837
  596MOL0     C78581   0.273   1.306   8.539 -0.0521 -0.3148  0.4206
  596MOL0     C78582   0.305   1.460   8.557  0.3939  0.2556 -0.1966
  596MOL0     C78583   0.424   1.507   8.642 -0.3121  0.8183  0.5478
  596MOL0    Cl78584   0.426   1.693   8.654 -0.2934 -0.0399 -0.1672
  596MOL0     C78585   0.717   0.763   8.497 -0.2750 -0.4778 -0.0391
  596MOL0     C78586   0.836   0.694   8.531  0.2498  0.0958 -0.0105
  596MOL0     O78587   1.051   0.482   8.490  1.0132  0.1472 -0.2765
  596MOL0     C78588   1.254   0.334   8.618  0.3187 -1.1719  0.7493
  596MOL0     C78589   1.350   0.267   8.689  0.6892  0.5749 -0.1152
  596MOL0     N78590   1.711  -0.201   9.257 -0.0092  0.3236  0.2957
  596MOL0     N78591   1.683  -0.284   9.355  0.7550  0.2327  0.4235
  596MOL0     C78592   1.041  -0.182   9.966  1.4610  0.6113 -0.4112
  596MOL0     C78593   0.911  -0.155   9.919 -0.2014  0.8287  0.3163
  596MOL0     C78594   0.562   0.136   9.757 -0.0548  0.8773  0.5648
  596MOL0     C78595   0.508   0.069   9.653  0.0424 -0.2246 -0.2916
  596MOL0     C78596   0.399   0.121   9.589  0.8353  0.0240  0.0950
  596MOL0     C78597   0.345   0.244   9.615 -0.7258 -0.3007 -0.6319
  596MOL0     O78598   0.255   0.328   9.552  0.1684  1.8820 -0.2188
  596MOL0     C78599   0.166   0.270   9.449 -0.1955 -0.7214  1.1006
  596MOL0     C78600   0.171   0.360   9.331 -0.4100  0.5375 -0.1011
  596MOL0     C78601   0.119   0.290   9.198  0.8629 -1.0837 -0.6220
  596MOL0     C78602   0.210   0.184   9.148  0.2369 -0.4933 -0.4793
  596MOL0     C78603   0.156   0.135   9.015  0.0054  0.2816  0.2630
  596MOL0     C78604   0.115   0.075   8.906 -0.4039 -0.1635 -0.6989
  596MOL0     C78605   0.394   0.309   9.729 -0.7682  0.2131 -0.8968
  596MOL0     C78606   0.500   0.258   9.795  0.9321 -0.3280 -0.3709
  596MOL0     H78607   0.992   0.061   9.664 -0.7178  1.6375  1.8655
  596MOL0     H78608   1.209  -0.041   9.716 -1.4950 -1.9582 -2.0337
  596MOL0     H78609   1.285  -0.381   9.995  1.6821  0.5704 -1.3728
  596MOL0     H78610   1.281  -0.241  10.099  1.8751  0.8683  1.2732
  596MOL0     H78611   1.517  -0.345  10.097 -3.1876 -1.6294  0.6289
  596MOL0     H78612   1.518  -0.186  10.029 -3.0823  1.2373  0.0196
  596MOL0     H78613   1.649  -0.326   9.900 -0.0211  0.4341 -1.2124
  596MOL0     H78614   1.502  -0.277   9.805 -1.7830 -2.2348 -1.6556
  596MOL0     H78615   1.508  -0.548   9.936 -1.7559 -1.1003  0.0580
  596MOL0     H78616   1.404  -0.489   9.813  1.4442 -0.4418 -1.1781
  596MOL0     H78617   1.590  -0.651   9.742 -2.7470  0.1989  0.6904
  596MOL0     H78618   1.708  -0.507   9.748 -1.1814  1.6248 -0.9167
  596MOL0     H78619   1.576  -0.378   9.604 -0.4179 -0.1857  1.0135
  596MOL0     H78620   1.458  -0.524   9.592 -0.2170 -1.3753  3.2892
  596MOL0     H78621   1.752  -0.518   9.499 -0.5170  0.2710 -3.7285
  596MOL0     H78622   1.643  -0.659   9.498  0.6747 -0.6804  1.7875
  596MOL0     H78623   1.500  -0.528   9.356  0.4339  2.0530  3.2593
  596MOL0     H78624   1.650  -0.604   9.281 -1.5728 -1.4308  1.9178
  596MOL0     H78625   1.587  -0.445   9.084  2.7470  1.5075 -2.8756
  596MOL0     H78626   1.687  -0.240   8.925 -0.7245  1.8830 -2.1832
  596MOL0     H78627   1.761  -0.110   9.011 -1.2858  0.8496 -1.8073
  596MOL0     H78628   1.468  -0.118   9.011 -2.3125  1.6959 -2.9656
  596MOL0     H78629   1.549  -0.064   8.862 -1.0109 -0.2136  0.5271
  596MOL0     H78630   1.557   0.041   9.156 -3.3372  4.9254  1.2784
  596MOL0     H78631   1.672   0.093   9.025  0.0712 -3.1279  0.3507
  596MOL0     H78632   1.471   0.234   9.081  2.5490 -1.3984  2.9609
  596MOL0     H78633   1.362   0.091   9.061  1.7550 -3.2296  0.0121
  596MOL0     H78634   1.267   0.363   9.004 -2.6829 -2.0078 -0.2773
  596MOL0     H78635   1.091   0.477   8.876  1.5132  3.6009 -0.6125
  596MOL0     H78636   0.693   0.461   8.731 -0.2704  1.4130  1.3293
  596MOL0     H78637   0.506   0.567   8.681  2.7797 -2.6939  0.8694
  596MOL0     H78638   0.337   0.771   8.625  0.7055 -4.4380 -0.7320
  596MOL0     H78639   0.352   0.676   8.477 -2.9639 -0.3806  1.1139
  596MOL0     H78640   0.181   0.822   8.443  0.4124  1.1024  0.4024
  596MOL0     H78641   0.324   0.881   8.342  1.5431  0.9301  0.5836
  596MOL0     H78642   0.255   1.012   8.612  2.7956  2.5291  0.3317
  596MOL0     H78643   0.165   1.053   8.462  0.7767  3.2521  0.4370
  596MOL0     H78644   0.471   1.040   8.453  1.4364  2.7664  1.9555
  596MOL0     H78645   0.351   1.112   8.340  2.6773 -0.7153 -1.3541
  596MOL0     H78646   0.482   1.277   8.469 -2.1453  2.2057 -1.1357
  596MOL0     H78647   0.427   1.202   8.629 -1.6596  2.7979 -0.2783
  596MOL0     H78648   0.216   1.262   8.621 -0.9827 -2.2504 -1.2073
  596MOL0     H78649   0.223   1.304   8.442  0.6361  4.4412 -0.3002
  596MOL0     H78650   0.300   1.509   8.460 -0.8466  3.6578  1.4189
  596MOL0     H78651   0.223   1.507   8.613  0.7922  0.9493 -0.1740
  596MOL0     H78652   0.518   1.469   8.600  0.1860  1.8276  0.7314
  596MOL0     H78653   0.406   1.472   8.743 -0.2947 -0.1204  0.2359
  596MOL0     H78654   0.721   0.846   8.426  1.3885 -0.7380 -0.2891
  596MOL0     H78655   0.926   0.732   8.484 -0.6298 -1.0846 -2.8820
  596MOL0     H78656   1.245   0.331   8.510  0.5222 -0.6586  0.7131
  596MOL0     H78657   1.424   0.203   8.643  0.5839  0.2099  0.2202
  596MOL0     H78658   1.054  -0.242  10.056 -2.2558  1.9957  1.2478
  596MOL0     H78659   0.823  -0.200   9.965  0.5896 -4.5855 -2.6499
  596MOL0     H78660   0.545  -0.029   9.628  0.1936  0.2685 -2.1477
  596MOL0     H78661   0.365   0.062   9.506 -3.3520 -0.1844  1.7192
  596MOL0     H78662   0.065   0.273   9.489 -0.5460  1.9455  0.1856
  596MOL0     H78663   0.196   0.166   9.431 -0.7130 -0.1900 -5.5042
  596MOL0     H78664   0.122   0.457   9.344 -0.2243  0.9991 -2.3742
  596MOL0     H78665   0.275   0.390   9.318 -0.3068  0.1834 -0.0988
  596MOL0     H78666   0.120   0.372   9.125 -1.5323  1.1536  1.6428
  596MOL0     H78667   0.016   0.254   9.208  0.2956  0.6412  0.0136
  596MOL0     H78668   0.310   0.223   9.124 -0.2569 -0.6074 -3.0448
  596MOL0     H78669   0.216   0.101   9.218  1.9087  0.3938  0.5043
  596MOL0     H78670   0.101   0.015   8.818  1.0212  1.8456 -2.4149
  596MOL0     H78671   0.345   0.402   9.757 -2.0595  0.0395 -2.4667
  596MOL0     H78672   0.528   0.302   9.890  0.7276  0.0697 -0.4919
  597MOL0     O78673   3.834   6.278  10.054  0.7852 -0.6803 -0.2939
  597MOL0     C78674   3.938   6.216  10.043 -0.1127  0.3645 -0.3244
  597MOL0     O78675   4.037   6.243   9.953 -0.6114  0.0151 -0.5696
  597MOL0     C78676   4.005   6.337   9.856 -0.9546  0.1854 -0.0162
  597MOL0     C78677   4.004   6.295   9.729  0.6462  0.8548  0.4147
  597MOL0     C78678   3.972   6.375   9.623  0.0010 -0.3164 -1.0329
  597MOL0     C78679   3.928   6.513   9.650  0.9317  0.2963  0.5848
  597MOL0     O78680   3.893   6.590   9.543 -0.5209  0.1691  0.4728
  597MOL0     C78681   3.801   6.543   9.452 -0.3452 -0.3873 -1.0092
  597MOL0     C78682   3.678   6.641   9.442 -0.3796  0.4567  1.0394
  597MOL0     C78683   3.717   6.772   9.368  0.7900 -1.4104  1.2423
  597MOL0     C78684   3.595   6.873   9.360  0.3621 -0.2305  0.3224
  597MOL0     C78685   3.488   6.844   9.249  0.2928 -0.2875 -0.1788
  597MOL0     C78686   3.550   6.846   9.106 -0.0049 -0.6697 -0.0971
  597MOL0     C78687   3.530   6.991   9.041 -0.5366  0.7729  0.0453
  597MOL0     C78688   3.569   6.990   8.895 -0.3673  0.8158  0.4489
  597MOL0     N78689   3.716   6.978   8.873 -0.4908  0.1140  0.0567
  597MOL0     C78690   3.824   6.977   8.959  0.0215 -0.2421  0.1189
  597MOL0     C78691   3.939   6.974   8.883 -0.4292 -0.3422  0.4616
  597MOL0     C78692   4.072   6.951   8.948  0.0997 -0.9911 -0.7444
  597MOL0     C78693   4.109   6.805   8.932 -0.5956 -0.2846 -0.0625
  597MOL0     C78694   4.263   6.816   8.942 -0.4141  0.3475 -0.8239
  597MOL0     C78695   4.348   6.686   8.939  0.2929 -0.9406 -0.3204
  597MOL0     O78696   4.340   6.637   8.801 -0.0178 -0.4596 -0.2914
  597MOL0     C78697   4.264   6.525   8.774 -1.0569 -0.0027 -0.3245
  597MOL0     C78698   4.285   6.401   8.832  0.0936 -0.0433 -0.2032
  597MOL0     C78699   4.215   6.289   8.794 -0.3866 -0.2308 -0.0441
  597MOL0     C78700   4.106   6.298   8.704  0.7097  0.3351  0.0571
  597MOL0     C78701   4.027   6.182   8.649  0.0281 -0.5467 -0.3400
  597MOL0     O78702   3.934   6.207   8.559 -0.5267  0.5434  0.6051
  597MOL0     C78703   3.819   6.130   8.548  0.2309  0.4635  0.3500
  597MOL0     C78704   3.760   6.154   8.420 -0.2853 -0.0541 -0.5175
  597MOL0     C78705   3.646   6.079   8.381 -0.9443  0.2835  0.3726
  597MOL0     C78706   3.589   5.981   8.465 -0.9424 -0.2076 -0.3324
  597MOL0     O78707   3.465   5.930   8.412 -0.5653 -0.5875  0.3879
  597MOL0     C78708   3.424   5.810   8.471  0.1983 -0.8473 -0.3753
  597MOL0     C78709   3.297   5.793   8.396  1.1498  0.8952 -0.1806
  597MOL0     C78710   3.204   5.696   8.456  0.0490 -0.2189 -0.6242
  597MOL0     C78711   3.065   5.699   8.385 -0.7770  1.9776  0.9627
  597MOL0     C78712   2.948   5.639   8.473 -0.7783 -0.3007  0.3684
  597MOL0     C78713   2.836   5.608   8.386  0.3336 -0.1531 -0.1466
  597MOL0     C78714   2.725   5.552   8.477  0.4762  1.0441  0.2426
  597MOL0     C78715   2.642   5.652   8.565 -0.0991  0.3486  0.3714
  597MOL0    Cl78716   2.516   5.564   8.666 -0.4025  0.0847  0.1982
  597MOL0     C78717   3.651   5.954   8.587 -0.7328  0.6256  0.1348
  597MOL0     C78718   3.767   6.024   8.629  0.0191  0.5295 -0.4312
  597MOL0     O78719   4.049   6.074   8.704 -0.1790  0.4300  0.3895
  597MOL0     C78720   4.076   6.431   8.651 -0.0168  0.1277 -0.1358
  597MOL0     C78721   4.157   6.539   8.685 -0.6975 -0.1891  0.8421
  597MOL0     N78722   3.903   6.972   8.748  0.0862 -1.3678 -1.2766
  597MOL0     N78723   3.767   6.980   8.743  0.5406  0.9807  1.0938
  597MOL0     C78724   3.914   6.557   9.783 -1.1262 -0.4941  0.4595
  597MOL0     C78725   3.964   6.472   9.880 -0.2713  0.4004 -0.0787
  597MOL0     C78726   3.963   6.107  10.133  0.1451 -0.2647 -0.9621
  597MOL0     C78727   3.897   6.094  10.258 -0.7203 -1.3213 -0.0212
  597MOL0     C78728   3.924   5.991  10.346  0.3711  0.5988 -0.1103
  597MOL0     C78729   4.027   5.897  10.318 -0.8431  0.1253  1.1160
  597MOL0     O78730   4.074   5.802  10.403  0.5842 -0.4510  0.0846
  597MOL0     C78731   3.983   5.769  10.498 -0.1777 -0.0434 -0.4531
  597MOL0     C78732   4.052   5.641  10.564  0.1002 -0.2157 -0.0498
  597MOL0     C78733   4.052   5.519  10.470 -0.0693 -0.2981  0.7095
  597MOL0     C78734   4.108   5.389  10.527 -0.1536  0.8058  0.0393
  597MOL0     C78735   4.251   5.395  10.547 -0.0201  1.6219 -0.0863
  597MOL0     C78736   4.375   5.382  10.552 -0.1512  0.0275 -0.0458
  597MOL0     C78737   4.101   5.915  10.197  0.2211  0.1434 -0.2860
  597MOL0     C78738   4.064   6.021  10.108 -0.5377 -0.9169  0.6304
  597MOL0     H78739   4.042   6.194   9.720 -0.3079  0.4385  0.9859
  597MOL0     H78740   3.983   6.335   9.522  2.4121  0.7432 -1.2641
  597MOL0     H78741   3.762   6.444   9.474  1.1811 -1.1558 -1.5989
  597MOL0     H78742   3.848   6.540   9.353  2.2775 -1.9424  0.1756
  597MOL0     H78743   3.634   6.661   9.540  2.0606 -0.9308  2.5151
  597MOL0     H78744   3.596   6.593   9.389 -1.6848  3.2399  0.3460
  597MOL0     H78745   3.750   6.744   9.268  0.9560 -0.8972  1.1540
  597MOL0     H78746   3.803   6.818   9.419  3.4093 -1.2968 -2.8498
  597MOL0     H78747   3.541   6.874   9.456  0.3765 -0.2244  0.3310
  597MOL0     H78748   3.630   6.974   9.337  0.1063  0.3369  2.2363
  597MOL0     H78749   3.397   6.903   9.263 -1.4625 -3.0137  0.9441
  597MOL0     H78750   3.453   6.742   9.268  1.6327 -0.7553 -0.1262
  597MOL0     H78751   3.501   6.772   9.043 -4.1879 -0.0794  2.0589
  597MOL0     H78752   3.657   6.826   9.107  0.1346 -0.0686  1.8670
  597MOL0     H78753   3.426   7.010   9.069  0.2914  0.3821  3.8756
  597MOL0     H78754   3.583   7.066   9.101 -2.1259 -0.6679  3.5182
  597MOL0     H78755   3.528   7.078   8.843 -2.8532 -1.4405 -1.6963
  597MOL0     H78756   3.519   6.905   8.848 -0.3892  0.3532  1.3004
  597MOL0     H78757   3.811   6.972   9.067 -5.0726 -0.6258 -0.3004
  597MOL0     H78758   4.056   6.966   9.055  0.3113  0.3432 -0.8877
  597MOL0     H78759   4.145   7.019   8.903  0.4960 -1.0174 -0.1530
  597MOL0     H78760   4.074   6.758   8.840  1.8273 -1.5252 -0.4334
  597MOL0     H78761   4.085   6.735   9.012 -4.5788 -1.6030 -2.1134
  597MOL0     H78762   4.317   6.873   8.866 -0.0175 -0.5727 -1.2405
  597MOL0     H78763   4.288   6.855   9.041 -2.4123  0.6365 -0.3857
  597MOL0     H78764   4.301   6.613   9.006 -0.1471 -1.3887 -1.1074
  597MOL0     H78765   4.448   6.720   8.968  0.6075 -1.3759 -0.8925
  597MOL0     H78766   4.372   6.377   8.892  1.9844 -2.0311 -3.4600
  597MOL0     H78767   4.243   6.194   8.836  0.8203  1.2026  2.6411
  597MOL0     H78768   3.817   6.214   8.349  1.0233  0.0729  0.6058
  597MOL0     H78769   3.603   6.090   8.282  1.7802 -2.1886 -1.2561
  597MOL0     H78770   3.406   5.824   8.578 -0.6907  0.6826 -0.6991
  597MOL0     H78771   3.492   5.727   8.450 -2.7849 -2.4334 -5.7538
  597MOL0     H78772   3.307   5.754   8.295 -0.8804 -0.5479  0.1119
  597MOL0     H78773   3.252   5.891   8.381  1.9206  0.8896 -3.0298
  597MOL0     H78774   3.198   5.711   8.564 -0.0982  1.3364 -0.8225
  597MOL0     H78775   3.243   5.594   8.449 -0.9155 -0.5065 -2.5451
  597MOL0     H78776   3.037   5.798   8.347 -1.9603  0.1624 -3.4907
  597MOL0     H78777   3.078   5.641   8.293  1.0590  0.6094  2.0186
  597MOL0     H78778   2.937   5.715   8.551  4.0482 -1.1617  2.2157
  597MOL0     H78779   2.977   5.542   8.515  1.0083 -0.6120 -1.4196
  597MOL0     H78780   2.869   5.536   8.311  2.3082  1.1426 -0.5862
  597MOL0     H78781   2.808   5.698   8.330  1.1970  1.1994  1.4859
  597MOL0     H78782   2.649   5.510   8.409  3.3616 -2.7245 -1.0001
  597MOL0     H78783   2.764   5.464   8.528  1.9888  0.8960 -1.0705
  597MOL0     H78784   2.595   5.720   8.494 -1.2273 -1.0376 -0.2505
  597MOL0     H78785   2.721   5.701   8.623  0.2980  0.7864 -0.5329
  597MOL0     H78786   3.614   5.887   8.664  0.2152 -2.8903 -2.2625
  597MOL0     H78787   3.804   5.992   8.726  0.0505 -0.8781 -0.8742
  597MOL0     H78788   3.992   6.448   8.584  0.5130  1.7385 -0.4513
  597MOL0     H78789   4.145   6.633   8.632 -0.0337 -1.4514 -1.7091
  597MOL0     H78790   3.882   6.659   9.801 -3.3043 -1.4466  2.7156
  597MOL0     H78791   3.972   6.500   9.984 -0.0039 -0.6436  0.1856
  597MOL0     H78792   3.819   6.170  10.265  0.2205  0.0624 -2.8170
  597MOL0     H78793   3.847   5.966  10.419 -0.6399  1.7217 -0.7690
  597MOL0     H78794   3.889   5.741  10.449 -0.4876  0.2052 -0.0026
  597MOL0     H78795   3.979   5.844  10.577 -1.5016 -0.3063 -0.2329
  597MOL0     H78796   4.148   5.656  10.614  1.1030 -1.1307 -1.5914
  597MOL0     H78797   3.986   5.615  10.647 -0.4641 -0.0233 -0.4284
  597MOL0     H78798   4.102   5.538  10.375 -2.5658  1.6490 -0.3457
  597MOL0     H78799   3.947   5.508  10.439 -0.5086 -2.0141  2.6108
  597MOL0     H78800   4.064   5.376  10.626 -2.3771 -0.6809 -1.0537
  597MOL0     H78801   4.081   5.309  10.457 -1.4657  0.3467  1.0239
  597MOL0     H78802   4.481   5.394  10.546  0.2312 -0.5002  3.5308
  597MOL0     H78803   4.188   5.853  10.175 -2.6612 -4.9806  1.0690
  597MOL0     H78804   4.122   6.035  10.017 -0.6204  4.0397  1.0663
  598MOL0     O78805   0.695   3.667   7.226  0.2743  0.4296  0.3137
  598MOL0     C78806   0.719   3.754   7.312  0.1959 -0.9671 -0.2050
  598MOL0     O78807   0.779   3.731   7.422 -0.1673 -0.5690  0.1862
  598MOL0     C78808   0.851   3.611   7.420 -0.3257 -0.7587 -0.8273
  598MOL0     C78809   0.983   3.609   7.381 -0.8487  0.3997  0.2466
  598MOL0     C78810   1.059   3.488   7.389 -0.9454 -1.5273  0.4496
  598MOL0     C78811   0.999   3.369   7.430 -0.8523  0.2823 -0.2806
  598MOL0     O78812   1.080   3.267   7.415 -0.0993  0.2702 -0.4593
  598MOL0     C78813   1.024   3.136   7.406 -0.1353  0.1735  0.0466
  598MOL0     C78814   1.129   3.023   7.398  0.1371 -0.2618  0.4570
  598MOL0     C78815   1.223   3.024   7.520 -0.7679 -0.6017  0.5372
  598MOL0     C78816   1.310   2.892   7.505  0.8816 -0.7287 -0.6578
  598MOL0     C78817   1.413   2.854   7.615 -0.4349 -0.3512  0.3584
  598MOL0     C78818   1.451   2.704   7.607  0.2858 -0.3176 -0.5680
  598MOL0     C78819   1.336   2.601   7.616 -0.1452 -0.4689  0.0090
  598MOL0     C78820   1.376   2.461   7.672  0.0465  0.7498 -0.1288
  598MOL0     N78821   1.405   2.355   7.575  0.3346 -0.4866  0.3456
  598MOL0     C78822   1.429   2.366   7.439  0.1684 -0.2328 -0.6579
  598MOL0     C78823   1.419   2.234   7.396  0.6566 -1.1709 -0.3586
  598MOL0     C78824   1.418   2.200   7.248 -1.0388 -0.0873  0.4381
  598MOL0     C78825   1.278   2.168   7.202  0.3707  0.1621  0.6947
  598MOL0     C78826   1.281   2.083   7.069 -0.3108  0.3212 -0.7290
  598MOL0     C78827   1.245   2.156   6.947  0.3635  0.2239  0.7434
  598MOL0     O78828   1.325   2.269   6.927 -0.5373 -0.1689  0.4019
  598MOL0     C78829   1.432   2.235   6.840 -0.6579  1.1935 -0.0711
  598MOL0     C78830   1.430   2.266   6.705  0.0911  0.2450  0.0620
  598MOL0     C78831   1.544   2.235   6.620 -0.1704 -0.3955 -0.5835
  598MOL0     C78832   1.665   2.173   6.666 -0.3722 -0.8026  1.0550
  598MOL0     C78833   1.792   2.149   6.589  0.5700  1.2032 -0.2264
  598MOL0     O78834   1.898   2.091   6.646 -0.9055 -1.0503  0.1165
  598MOL0     C78835   2.018   2.074   6.572  0.8263 -0.6160 -0.3565
  598MOL0     C78836   2.081   2.162   6.480  0.1417 -0.5884  0.9431
  598MOL0     C78837   2.202   2.133   6.421 -0.2324  0.0115 -0.9431
  598MOL0     C78838   2.268   2.008   6.453 -0.2630 -0.8402 -0.1910
  598MOL0     O78839   2.386   1.991   6.408 -0.2802  1.0632 -0.0132
  598MOL0     C78840   2.489   1.917   6.475  0.7050  0.3164  1.3936
  598MOL0     C78841   2.621   1.958   6.427 -0.0108 -0.1536 -0.0111
  598MOL0     C78842   2.659   2.113   6.461  0.1617 -0.1896  0.1185
  598MOL0     C78843   2.661   2.144   6.609  0.3639 -1.4107 -0.0275
  598MOL0     C78844   2.683   2.292   6.619 -0.0093  0.1465 -0.1604
  598MOL0     C78845   2.686   2.327   6.763 -0.3910  0.5091 -0.3985
  598MOL0     C78846   2.752   2.462   6.767  0.6001  0.2894 -0.9249
  598MOL0     C78847   2.756   2.516   6.907  0.6992  0.2339  0.3206
  598MOL0    Cl78848   2.803   2.691   6.907 -0.6076  0.6162 -0.5869
  598MOL0     C78849   2.203   1.930   6.551 -0.9000 -0.1741  0.1362
  598MOL0     C78850   2.084   1.957   6.612  0.1762  0.4482 -0.1147
  598MOL0     O78851   1.774   2.188   6.473 -0.2077 -0.0012 -0.5641
  598MOL0     C78852   1.668   2.153   6.804 -0.0079  0.2927 -0.3578
  598MOL0     C78853   1.552   2.172   6.889  0.2367 -0.4617  0.1125
  598MOL0     N78854   1.411   2.155   7.502 -0.1004  0.1560  0.5794
  598MOL0     N78855   1.412   2.227   7.606  0.2217 -0.3202 -0.2917
  598MOL0     C78856   0.863   3.365   7.475  0.3507  0.0197 -0.7135
  598MOL0     C78857   0.791   3.491   7.464 -0.0570  0.2314 -0.7989
  598MOL0     C78858   0.657   3.893   7.287  0.7204  0.7637  0.1571
  598MOL0     C78859   0.644   3.985   7.387 -0.5777 -1.0147 -0.1944
  598MOL0     C78860   0.571   4.105   7.374 -0.1981 -0.4651  0.0679
  598MOL0     C78861   0.520   4.139   7.248 -0.5130 -0.0814 -0.2762
  598MOL0     O78862   0.454   4.257   7.230 -0.4334 -0.6617  0.8550
  598MOL0     C78863   0.319   4.278   7.274 -0.5379  0.3500 -0.6485
  598MOL0     C78864   0.217   4.257   7.170 -0.0196  0.1475  0.6435
  598MOL0     C78865   0.066   4.265   7.226 -1.1333  0.4788  0.4640
  598MOL0     C78866  -0.056   4.237   7.127 -0.8423 -0.5120  1.4572
  598MOL0     C78867  -0.039   4.317   7.006  0.2448 -0.9677 -0.2508
  598MOL0     C78868  -0.050   4.371   6.903  0.3237  0.1552  0.6170
  598MOL0     C78869   0.531   4.039   7.148  1.1189 -0.6899 -0.2378
  598MOL0     C78870   0.598   3.919   7.160  0.4357  0.2300  0.5001
  598MOL0     H78871   1.029   3.700   7.346  0.4544 -0.5443 -0.5988
  598MOL0     H78872   1.161   3.492   7.353 -0.9788  1.2882  0.4128
  598MOL0     H78873   0.951   3.125   7.326  0.3436  2.8259 -0.8613
  598MOL0     H78874   0.978   3.128   7.505  0.7716  1.6514  0.6392
  598MOL0     H78875   1.186   3.034   7.305 -0.0711 -0.4067  0.3105
  598MOL0     H78876   1.070   2.931   7.391 -2.4931  1.2220  1.7055
  598MOL0     H78877   1.155   3.029   7.605  2.2791  0.8108  3.0825
  598MOL0     H78878   1.281   3.116   7.535 -2.0849  0.8357 -2.2849
  598MOL0     H78879   1.251   2.803   7.481  1.0250 -1.4600  1.5122
  598MOL0     H78880   1.373   2.915   7.418  2.0081  0.9195  0.5456
  598MOL0     H78881   1.380   2.868   7.718  0.9819 -2.3208  1.1407
  598MOL0     H78882   1.503   2.914   7.600  0.2185 -1.3187  0.3217
  598MOL0     H78883   1.516   2.675   7.690  2.4521 -2.9480 -2.9477
  598MOL0     H78884   1.501   2.684   7.512 -1.9330 -2.0015 -1.4672
  598MOL0     H78885   1.250   2.635   7.675 -1.8467 -4.2805  0.0209
  598MOL0     H78886   1.292   2.595   7.516 -0.7639 -0.2111  0.2541
  598MOL0     H78887   1.305   2.421   7.745 -0.1896  2.1637  0.4459
  598MOL0     H78888   1.460   2.481   7.739  0.9953 -0.5468 -0.8855
  598MOL0     H78889   1.443   2.451   7.373 -1.8493 -0.0442 -0.9299
  598MOL0     H78890   1.483   2.114   7.231 -1.8412 -0.4013 -1.2633
  598MOL0     H78891   1.462   2.274   7.180  3.5589 -1.9491  1.0050
  598MOL0     H78892   1.221   2.262   7.196  1.8408  1.0753 -4.7232
  598MOL0     H78893   1.238   2.099   7.277 -0.3079 -0.6461 -0.3802
  598MOL0     H78894   1.372   2.023   7.062  0.9152  1.8475  1.1271
  598MOL0     H78895   1.200   2.010   7.067 -0.0574  0.0049  0.1382
  598MOL0     H78896   1.144   2.197   6.959  0.6024  1.8873 -2.0610
  598MOL0     H78897   1.236   2.102   6.852  0.6856  1.2245  0.1355
  598MOL0     H78898   1.351   2.332   6.670 -0.8166 -0.3242  0.9964
  598MOL0     H78899   1.527   2.272   6.519  0.9904 -4.5460 -2.4977
  598MOL0     H78900   2.030   2.252   6.448  1.2651 -1.5849 -4.6692
  598MOL0     H78901   2.243   2.215   6.363  2.3703 -1.8932 -2.0235
  598MOL0     H78902   2.472   1.810   6.455  1.1626  0.3293  0.9198
  598MOL0     H78903   2.480   1.936   6.582 -0.6068 -0.6182  1.4865
  598MOL0     H78904   2.626   1.945   6.319 -2.8660 -0.2855 -0.2021
  598MOL0     H78905   2.693   1.889   6.471 -1.2486 -1.0248  0.7356
  598MOL0     H78906   2.597   2.186   6.408 -1.8424 -0.9801  1.2540
  598MOL0     H78907   2.756   2.132   6.415 -0.1543  0.7202 -0.2075
  598MOL0     H78908   2.562   2.125   6.651 -0.1448  2.9871  1.2322
  598MOL0     H78909   2.728   2.083   6.671  1.9581 -0.5397 -0.8300
  598MOL0     H78910   2.607   2.348   6.564  2.4826  2.4996 -1.4043
  598MOL0     H78911   2.783   2.308   6.578  1.0108 -2.5712  1.0438
  598MOL0     H78912   2.762   2.265   6.812  2.0630  2.6501 -1.2975
  598MOL0     H78913   2.581   2.328   6.791 -0.7853  1.3830 -1.8309
  598MOL0     H78914   2.849   2.481   6.720 -0.6268  3.0107 -2.6078
  598MOL0     H78915   2.693   2.540   6.718 -0.8527  0.6707  1.2964
  598MOL0     H78916   2.841   2.462   6.949 -0.4500 -2.2189 -0.3126
  598MOL0     H78917   2.668   2.502   6.970 -1.2288  0.5727 -2.1234
  598MOL0     H78918   2.253   1.846   6.597 -0.5232 -0.3367 -0.5523
  598MOL0     H78919   2.044   1.896   6.692 -2.4030  1.6109 -0.4176
  598MOL0     H78920   1.764   2.126   6.847  1.6714  2.9820 -2.1304
  598MOL0     H78921   1.566   2.137   6.991  3.4689  0.5679  0.1371
  598MOL0     H78922   0.804   3.280   7.509  2.8006 -1.0058  1.2647
  598MOL0     H78923   0.684   3.489   7.476 -0.3938 -0.7200 -3.4039
  598MOL0     H78924   0.675   3.949   7.484  1.5730  0.3568 -0.3175
  598MOL0     H78925   0.566   4.170   7.461 -1.9784  0.2843 -0.5488
  598MOL0     H78926   0.302   4.382   7.299 -5.0964 -0.0220 -1.3402
  598MOL0     H78927   0.294   4.219   7.363 -1.3476  0.9341 -0.4858
  598MOL0     H78928   0.226   4.328   7.087 -3.0271 -0.7225 -0.5565
  598MOL0     H78929   0.229   4.154   7.135 -2.0657  0.7277 -2.1298
  598MOL0     H78930   0.062   4.368   7.262  0.3526  0.5762  0.4294
  598MOL0     H78931   0.058   4.197   7.311 -0.6959  0.7073  0.6925
  598MOL0     H78932  -0.065   4.132   7.097 -0.3651  0.7915 -4.3706
  598MOL0     H78933  -0.151   4.255   7.179 -0.7946 -3.2273  2.6436
  598MOL0     H78934  -0.050   4.409   6.803  2.9071 -0.6424  0.2195
  598MOL0     H78935   0.495   4.071   7.051 -0.7147 -0.7292  0.3804
  598MOL0     H78936   0.597   3.862   7.067  1.1050  1.8676 -0.5532
  599MOL0     O78937   7.091   8.928   1.535 -0.3704 -0.1351 -0.6861
  599MOL0     C78938   7.191   8.979   1.492  0.0130 -0.5402 -1.1219
  599MOL0     O78939   7.298   8.914   1.447 -0.5385 -0.3576 -0.0998
  599MOL0     C78940   7.320   8.781   1.448 -0.0209 -0.7763  0.1432
  599MOL0     C78941   7.257   8.686   1.543  0.2207 -0.2259 -0.4741
  599MOL0     C78942   7.288   8.543   1.539  0.0700 -0.6468  0.5312
  599MOL0     C78943   7.368   8.498   1.435  0.3676  0.1981  0.3748
  599MOL0     O78944   7.404   8.362   1.414  0.1448 -0.8847  0.3840
  599MOL0     C78945   7.311   8.272   1.470  0.8932  1.0718  1.1824
  599MOL0     C78946   7.339   8.126   1.432 -0.0818  0.6111 -0.1586
  599MOL0     C78947   7.367   8.042   1.554  0.0540 -0.2754  0.3068
  599MOL0     C78948   7.392   7.903   1.501  0.6762  0.5997  0.7239
  599MOL0     C78949   7.412   7.815   1.624 -0.2457  0.0126 -0.5420
  599MOL0     C78950   7.418   7.661   1.584  0.4612  0.1799 -1.2478
  599MOL0     C78951   7.282   7.590   1.565 -0.6552 -0.4757  0.0577
  599MOL0     C78952   7.293   7.484   1.457  0.5485  0.5168  0.0884
  599MOL0     N78953   7.357   7.361   1.513 -0.7970 -0.3732  0.0977
  599MOL0     C78954   7.360   7.312   1.646  0.3974  0.5260 -0.7896
  599MOL0     C78955   7.434   7.196   1.640  0.3237 -0.3351  0.2704
  599MOL0     C78956   7.461   7.119   1.758  0.3933  0.7085  0.0833
  599MOL0     C78957   7.605   7.143   1.787  0.1381 -0.3247  0.6215
  599MOL0     C78958   7.708   7.062   1.703  0.0605  0.3643 -0.1756
  599MOL0     C78959   7.836   7.145   1.653  0.2746 -0.1159 -0.0222
  599MOL0     O78960   7.807   7.235   1.546  0.8247 -0.2140  0.4164
  599MOL0     C78961   7.820   7.372   1.562  0.2360 -0.4731 -0.9433
  599MOL0     C78962   7.923   7.424   1.646 -0.0573  0.4852  0.7080
  599MOL0     C78963   7.935   7.564   1.654  0.2739  0.8228  0.9625
  599MOL0     C78964   7.844   7.648   1.590 -0.4760  0.0744  0.4627
  599MOL0     C78965   7.885   7.789   1.575  0.3889 -0.2260  0.4858
  599MOL0     O78966   7.774   7.869   1.531 -0.0757  0.4868  0.0321
  599MOL0     C78967   7.794   7.995   1.487 -0.4982  0.5926  0.8316
  599MOL0     C78968   7.712   8.029   1.375 -0.2789 -0.1581 -0.7120
  599MOL0     C78969   7.717   8.159   1.321 -0.0749  0.7198  0.3380
  599MOL0     C78970   7.793   8.254   1.384 -0.6476 -0.0018 -0.5700
  599MOL0     O78971   7.812   8.376   1.327 -0.5971 -0.3682 -0.0351
  599MOL0     C78972   7.815   8.491   1.413 -0.6844 -1.0991  0.3449
  599MOL0     C78973   7.813   8.624   1.331 -0.3820  0.5925 -0.3039
  599MOL0     C78974   7.944   8.677   1.270  0.0805  0.7880  0.4607
  599MOL0     C78975   7.995   8.582   1.161  0.2150  0.5741 -0.3948
  599MOL0     C78976   8.066   8.652   1.040  0.7348 -0.6072  0.1305
  599MOL0     C78977   8.196   8.730   1.087 -0.0948 -0.1110  0.4933
  599MOL0     C78978   8.264   8.809   0.975  0.1062  0.4485  0.5526
  599MOL0     C78979   8.380   8.889   1.029  0.0084 -0.0678 -0.3622
  599MOL0    Cl78980   8.510   8.781   1.101 -0.3992 -0.2748 -0.4159
  599MOL0     C78981   7.862   8.221   1.504 -0.1908 -0.3367 -0.0726
  599MOL0     C78982   7.869   8.088   1.547 -0.1760  0.0300 -0.1365
  599MOL0     O78983   8.001   7.821   1.611  0.8895  0.3915 -0.5853
  599MOL0     C78984   7.738   7.592   1.522 -0.0396  1.4255  0.1430
  599MOL0     C78985   7.729   7.451   1.500 -0.5840 -0.5103  0.0189
  599MOL0     N78986   7.470   7.183   1.507 -0.2529  0.1888 -0.5601
  599MOL0     N78987   7.421   7.273   1.429 -0.3771 -0.6193 -0.5366
  599MOL0     C78988   7.421   8.592   1.344 -0.8547 -0.8069 -0.4766
  599MOL0     C78989   7.398   8.731   1.348 -0.7730 -0.0225  0.1774
  599MOL0     C78990   7.194   9.124   1.484 -0.7579 -0.5206 -0.7827
  599MOL0     C78991   7.219   9.189   1.361 -1.0405 -0.3674 -0.0924
  599MOL0     C78992   7.214   9.329   1.355  0.3661 -0.4666  0.7596
  599MOL0     C78993   7.198   9.405   1.468 -0.1275 -0.6423 -0.1709
  599MOL0     O78994   7.206   9.550   1.449  0.1093 -0.0062 -0.7869
  599MOL0     C78995   7.233   9.625   1.572 -1.2889 -0.2286  0.0465
  599MOL0     C78996   7.380   9.605   1.630 -0.0893  0.8033  0.2180
  599MOL0     C78997   7.381   9.608   1.786 -0.3230  0.1517 -0.7916
  599MOL0     C78998   7.491   9.515   1.846 -0.4723 -0.0623  0.4682
  599MOL0     C78999   7.451   9.371   1.862  1.1131  0.5998 -1.2875
  599MOL0     C79000   7.424   9.252   1.879  0.2717  0.2303 -0.1899
  599MOL0     C79001   7.184   9.342   1.597  0.8104 -0.5106  0.0885
  599MOL0     C79002   7.172   9.202   1.604  0.7193  0.1706 -0.2091
  599MOL0     H79003   7.211   8.716   1.636  2.5672  0.2128  0.6077
  599MOL0     H79004   7.252   8.483   1.622  2.6086 -1.4366  1.1600
  599MOL0     H79005   7.211   8.288   1.429  0.6765 -1.2878  0.6843
  599MOL0     H79006   7.305   8.285   1.579 -1.7937  2.1583  0.9859
  599MOL0     H79007   7.422   8.111   1.363  1.4790 -1.3099  1.9635
  599MOL0     H79008   7.253   8.076   1.387  0.7513 -3.6089  2.3536
  599MOL0     H79009   7.280   8.033   1.619  0.1713 -3.1991  0.1565
  599MOL0     H79010   7.453   8.083   1.609  1.1853  0.6452 -1.9783
  599MOL0     H79011   7.304   7.870   1.444  1.8066 -1.1257 -0.0890
  599MOL0     H79012   7.480   7.879   1.441 -0.1040 -3.8399  1.0473
  599MOL0     H79013   7.326   7.820   1.691  0.7816  2.3951  0.7669
  599MOL0     H79014   7.508   7.842   1.669 -1.1351  0.6465  1.0645
  599MOL0     H79015   7.475   7.607   1.660 -1.8706  0.7501  1.0539
  599MOL0     H79016   7.481   7.652   1.495  1.4995 -1.1643 -0.4131
  599MOL0     H79017   7.245   7.555   1.662 -3.1854  0.6034 -0.4425
  599MOL0     H79018   7.226   7.675   1.524  2.3008  0.6358 -2.0480
  599MOL0     H79019   7.352   7.521   1.373 -1.6373  2.2630 -0.7595
  599MOL0     H79020   7.191   7.467   1.423  1.3451  1.3859 -2.9783
  599MOL0     H79021   7.312   7.342   1.738 -0.9400 -2.8815 -0.2219
  599MOL0     H79022   7.455   7.011   1.742 -0.4929  0.6904  0.4752
  599MOL0     H79023   7.395   7.145   1.842 -0.8883 -0.9343 -0.3479
  599MOL0     H79024   7.607   7.113   1.892 -4.1121 -2.3007  0.3748
  599MOL0     H79025   7.630   7.249   1.786 -0.7067 -0.1045  1.6342
  599MOL0     H79026   7.738   6.969   1.752 -2.0186  0.7078  1.9169
  599MOL0     H79027   7.678   7.022   1.605  0.3911  0.3559 -0.2766
  599MOL0     H79028   7.907   7.077   1.605 -0.7884  0.5484 -2.7096
  599MOL0     H79029   7.886   7.187   1.742  3.5004  1.7966 -2.4846
  599MOL0     H79030   7.999   7.366   1.697 -0.1935 -0.8004 -0.5119
  599MOL0     H79031   8.023   7.608   1.701  0.8439  0.2301  0.4651
  599MOL0     H79032   7.631   7.963   1.344  0.4493 -0.6724 -1.5565
  599MOL0     H79033   7.645   8.177   1.242 -0.6045  0.0951  0.6682
  599MOL0     H79034   7.902   8.493   1.480 -0.5480  0.4856  0.1724
  599MOL0     H79035   7.720   8.493   1.466 -1.2349 -2.9045 -0.5108
  599MOL0     H79036   7.776   8.704   1.396  1.6294  2.4062 -1.2891
  599MOL0     H79037   7.741   8.628   1.248 -1.3734 -0.5608  0.4535
  599MOL0     H79038   8.017   8.698   1.349 -0.1387  0.0585  0.8727
  599MOL0     H79039   7.930   8.769   1.213 -1.1453  0.0242 -0.5121
  599MOL0     H79040   8.068   8.511   1.201 -0.0659  0.1153 -0.6907
  599MOL0     H79041   7.924   8.512   1.117  1.8622 -1.5291  0.0986
  599MOL0     H79042   7.996   8.720   0.992  2.4872  1.7983  0.8031
  599MOL0     H79043   8.093   8.579   0.963 -0.7939 -0.1502 -0.8743
  599MOL0     H79044   8.268   8.660   1.130 -2.4401 -1.6880  2.0993
  599MOL0     H79045   8.160   8.799   1.164  0.2063  1.7057 -0.9120
  599MOL0     H79046   8.309   8.735   0.908  3.2721  0.2584  2.6559
  599MOL0     H79047   8.187   8.865   0.921 -2.6572 -3.2230  0.2849
  599MOL0     H79048   8.343   8.957   1.106 -0.0694 -0.3813 -0.1201
  599MOL0     H79049   8.410   8.946   0.941 -3.0434 -0.7392 -1.9808
  599MOL0     H79050   7.922   8.296   1.555  0.7785 -0.7593 -0.5605
  599MOL0     H79051   7.937   8.076   1.631 -0.7899  0.6747  0.4655
  599MOL0     H79052   7.676   7.658   1.462 -0.0120  2.5512  1.3030
  599MOL0     H79053   7.647   7.421   1.434  0.0873 -1.1954 -0.5244
  599MOL0     H79054   7.477   8.546   1.263  2.0344  2.2797 -0.4362
  599MOL0     H79055   7.442   8.797   1.274  3.8517 -2.3057  0.5844
  599MOL0     H79056   7.235   9.136   1.268  0.6226  0.0068 -0.0464
  599MOL0     H79057   7.216   9.384   1.261 -2.4641  1.1568  1.5245
  599MOL0     H79058   7.164   9.605   1.654  1.0211  2.1381  2.8320
  599MOL0     H79059   7.223   9.733   1.555 -3.8035 -0.5429 -0.7856
  599MOL0     H79060   7.413   9.510   1.587  2.1853  1.7100 -0.1529
  599MOL0     H79061   7.447   9.677   1.583  1.0701 -0.2784  0.1814
  599MOL0     H79062   7.280   9.580   1.818  0.0842 -1.3798 -0.7570
  599MOL0     H79063   7.406   9.708   1.823 -0.7427 -0.1075  0.2402
  599MOL0     H79064   7.570   9.505   1.772 -2.7659 -3.3319 -1.8302
  599MOL0     H79065   7.522   9.542   1.947 -0.5420  0.2492  0.4053
  599MOL0     H79066   7.396   9.149   1.886  0.8321  0.1027  0.2486
  599MOL0     H79067   7.179   9.394   1.693  0.4397  1.7516 -1.0998
  599MOL0     H79068   7.157   9.158   1.702  4.7384  0.0770  0.5429
  600MOL0     O79069   8.719   4.307   7.613 -1.2225  0.1530  0.7518
  600MOL0     C79070   8.795   4.361   7.532  0.1427 -0.9352  0.1813
  600MOL0     O79071   8.855   4.480   7.554  0.1075 -1.2009 -0.2964
  600MOL0     C79072   8.791   4.560   7.649 -0.0582 -0.1891  0.2493
  600MOL0     C79073   8.872   4.593   7.753  0.2611  0.0494 -0.9324
  600MOL0     C79074   8.813   4.673   7.856  0.1314 -0.6563 -0.0188
  600MOL0     C79075   8.679   4.712   7.856 -0.3556 -0.2690 -0.1456
  600MOL0     O79076   8.618   4.774   7.963 -0.4622 -0.0476 -0.2479
  600MOL0     C79077   8.487   4.734   8.013 -0.2127  0.1942  0.7908
  600MOL0     C79078   8.453   4.815   8.124  0.2139 -0.4892  0.3230
  600MOL0     C79079   8.341   4.773   8.224 -0.5671 -1.0677  0.8142
  600MOL0     C79080   8.201   4.816   8.185 -0.2745 -0.4577 -0.6210
  600MOL0     C79081   8.095   4.744   8.266  0.7825 -0.3292 -0.2523
  600MOL0     C79082   7.968   4.822   8.282  0.0583  0.6199  0.6161
  600MOL0     C79083   7.909   4.863   8.143  0.8768 -0.5513 -0.0486
  600MOL0     C79084   7.760   4.903   8.162  0.3898  0.3152 -1.1055
  600MOL0     N79085   7.691   4.943   8.041  0.6213  0.0680  0.6052
  600MOL0     C79086   7.717   5.055   7.965  0.5912 -0.3408  0.3166
  600MOL0     C79087   7.683   5.015   7.835 -0.5651 -0.2013  0.3938
  600MOL0     C79088   7.717   5.080   7.705 -0.0713  0.2930  0.4081
  600MOL0     C79089   7.804   5.210   7.712  0.4738 -0.1371 -0.6445
  600MOL0     C79090   7.819   5.299   7.587 -0.9037 -0.0497  0.0719
  600MOL0     C79091   7.902   5.419   7.627  0.5613 -0.0686  0.0027
  600MOL0     O79092   7.826   5.501   7.715  0.1949  0.1138 -0.6252
  600MOL0     C79093   7.848   5.641   7.713 -0.7257 -0.1515 -0.3655
  600MOL0     C79094   7.978   5.706   7.712 -0.3690 -0.2199 -0.7950
  600MOL0     C79095   7.992   5.842   7.697  0.7084 -1.3424  0.9124
  600MOL0     C79096   7.876   5.924   7.680 -0.4675 -0.6066 -0.5461
  600MOL0     C79097   7.893   6.069   7.659 -0.7716 -0.5243 -0.1620
  600MOL0     O79098   7.772   6.129   7.655 -0.4926  0.0215  0.3915
  600MOL0     C79099   7.766   6.262   7.675  0.0625 -0.5386  0.3750
  600MOL0     C79100   7.667   6.345   7.611 -0.5576 -0.1550  0.3980
  600MOL0     C79101   7.639   6.473   7.643  0.1097 -0.3678 -0.4077
  600MOL0     C79102   7.725   6.538   7.734  0.4722 -0.2279 -1.1949
  600MOL0     O79103   7.683   6.670   7.762  0.7639 -0.3214 -0.6579
  600MOL0     C79104   7.790   6.748   7.811 -0.0473 -0.2277  0.9239
  600MOL0     C79105   7.768   6.891   7.788  0.5469 -0.6811  0.3871
  600MOL0     C79106   7.745   6.925   7.638 -0.0109 -0.1064 -0.6404
  600MOL0     C79107   7.767   7.074   7.592  1.1378 -0.4037  0.3067
  600MOL0     C79108   7.705   7.107   7.456 -0.8952  0.0384 -0.6540
  600MOL0     C79109   7.563   7.057   7.416 -1.0656  1.1646 -0.1919
  600MOL0     C79110   7.512   7.134   7.295  0.3440  0.7959 -0.7949
  600MOL0     C79111   7.372   7.087   7.247 -0.2101  0.3947  0.0723
  600MOL0    Cl79112   7.259   7.132   7.381  0.2358  0.0264  0.0357
  600MOL0     C79113   7.831   6.471   7.788  0.3027  0.5658 -0.7711
  600MOL0     C79114   7.838   6.333   7.769 -0.6655  0.7884  0.7106
  600MOL0     O79115   8.006   6.117   7.639  0.4696 -0.1456 -0.7101
  600MOL0     C79116   7.745   5.862   7.693 -0.3584 -0.4537  0.0271
  600MOL0     C79117   7.731   5.725   7.694  0.6224 -0.2358 -0.1204
  600MOL0     N79118   7.632   4.886   7.849  0.6763 -0.3607  0.4519
  600MOL0     N79119   7.636   4.852   7.956 -1.9931 -0.1182 -0.4177
  600MOL0     C79120   8.606   4.687   7.745  0.0274  0.3780  0.3557
  600MOL0     C79121   8.655   4.607   7.643  0.0219  0.2656  0.0997
  600MOL0     C79122   8.841   4.291   7.414 -0.4835 -0.3464  0.2072
  600MOL0     C79123   8.941   4.351   7.330  0.0123  0.4006  0.5693
  600MOL0     C79124   8.986   4.286   7.207  0.0306  0.2855 -0.4412
  600MOL0     C79125   8.938   4.158   7.174  0.7991  0.2438 -0.4814
  600MOL0     O79126   8.961   4.093   7.057 -0.3014  0.1427 -0.3455
  600MOL0     C79127   9.056   3.993   7.067 -0.3253  0.4449 -0.0597
  600MOL0     C79128   8.994   3.847   7.106 -0.5317 -0.0889 -0.3620
  600MOL0     C79129   8.921   3.788   6.986 -0.0482  0.2048  0.9019
  600MOL0     C79130   8.766   3.794   7.015  0.5366  0.1427  1.3086
  600MOL0     C79131   8.680   3.780   6.897  0.2985 -0.7542  0.3629
  600MOL0     C79132   8.594   3.759   6.810  0.1876 -0.0966 -0.4249
  600MOL0     C79133   8.838   4.106   7.255 -1.3149  0.4860 -0.6456
  600MOL0     C79134   8.796   4.162   7.377  0.4425  0.2729 -0.6731
  600MOL0     H79135   8.978   4.574   7.748  0.1456 -0.9938  0.1246
  600MOL0     H79136   8.868   4.712   7.942  0.1357 -0.8438  0.0652
  600MOL0     H79137   8.479   4.628   8.036  2.7403 -1.3652 -3.9066
  600MOL0     H79138   8.407   4.755   7.942  0.0802 -1.4812 -0.0751
  600MOL0     H79139   8.439   4.918   8.093  0.0807 -0.5492  0.1817
  600MOL0     H79140   8.545   4.820   8.184 -0.7171  0.7515  1.7316
  600MOL0     H79141   8.347   4.815   8.325 -0.8553  3.1695 -0.7169
  600MOL0     H79142   8.359   4.665   8.224  0.1812 -0.9795 -1.2610
  600MOL0     H79143   8.189   4.922   8.209 -3.5288 -1.1304  1.4028
  600MOL0     H79144   8.180   4.780   8.084  0.6329  0.6636 -1.2407
  600MOL0     H79145   8.123   4.711   8.367  3.7897  2.2754 -0.0644
  600MOL0     H79146   8.076   4.653   8.209  2.4063  0.7836 -2.7053
  600MOL0     H79147   7.977   4.914   8.341 -2.6197  0.5021  1.3352
  600MOL0     H79148   7.902   4.759   8.342 -0.7389 -0.2213 -1.0605
  600MOL0     H79149   7.952   4.959   8.114 -0.8065  0.1470 -0.3161
  600MOL0     H79150   7.919   4.785   8.066  0.4847  2.2231 -3.1225
  600MOL0     H79151   7.741   4.984   8.234  1.6376 -2.2527  2.3782
  600MOL0     H79152   7.710   4.818   8.209  2.5686 -1.9585 -2.6480
  600MOL0     H79153   7.773   5.145   7.991 -1.3832  0.4498  2.1116
  600MOL0     H79154   7.631   5.098   7.640 -1.0108  1.3383  1.8798
  600MOL0     H79155   7.795   5.016   7.663  2.5249  3.0073  0.7170
  600MOL0     H79156   7.905   5.183   7.743  1.4277  0.8839 -2.6740
  600MOL0     H79157   7.758   5.273   7.788  2.2401  0.8101 -0.3090
  600MOL0     H79158   7.866   5.246   7.504 -1.1581 -1.1103  0.5844
  600MOL0     H79159   7.726   5.338   7.546 -0.5656 -0.7956 -1.4840
  600MOL0     H79160   7.932   5.477   7.539  3.1962 -0.8094  0.3062
  600MOL0     H79161   7.991   5.392   7.684  0.0565  0.5473  1.0975
  600MOL0     H79162   8.063   5.639   7.719 -1.9516 -2.2175  4.5738
  600MOL0     H79163   8.083   5.899   7.710  1.9619 -3.4212  1.6965
  600MOL0     H79164   7.605   6.293   7.539 -0.4284  0.0039  0.1733
  600MOL0     H79165   7.555   6.528   7.602  0.2495  1.0778  1.1474
  600MOL0     H79166   7.883   6.728   7.756  0.0225  1.0968  0.5104
  600MOL0     H79167   7.806   6.734   7.918 -0.3351 -1.2515  0.8431
  600MOL0     H79168   7.858   6.943   7.821  1.4816 -1.9939 -0.0008
  600MOL0     H79169   7.685   6.929   7.848  0.6974  1.6433 -0.7617
  600MOL0     H79170   7.641   6.896   7.618 -0.4298  0.2466  0.8695
  600MOL0     H79171   7.814   6.866   7.578 -0.1624  1.3306 -2.3091
  600MOL0     H79172   7.725   7.146   7.662  1.7311  1.5405 -1.2288
  600MOL0     H79173   7.873   7.101   7.585  0.3756  3.1163  0.3561
  600MOL0     H79174   7.781   7.077   7.383  1.1203  0.8528  0.9990
  600MOL0     H79175   7.703   7.216   7.446  0.1658  0.3254  1.5811
  600MOL0     H79176   7.496   7.084   7.499  1.6842  3.2206  1.5460
  600MOL0     H79177   7.574   6.950   7.396 -0.9026  1.0763  0.3490
  600MOL0     H79178   7.501   7.240   7.318  0.7047  0.6091  0.2742
  600MOL0     H79179   7.585   7.117   7.215 -0.0159 -2.0015 -0.6244
  600MOL0     H79180   7.380   6.979   7.234  1.9758  0.9127 -4.8475
  600MOL0     H79181   7.343   7.132   7.152 -1.9078  0.5438  0.6149
  600MOL0     H79182   7.910   6.501   7.857  1.6243 -0.3775 -1.8235
  600MOL0     H79183   7.914   6.283   7.828  1.5924  0.9261 -1.8911
  600MOL0     H79184   7.661   5.928   7.676 -0.4368 -0.7236 -0.6741
  600MOL0     H79185   7.629   5.687   7.701  0.1945  0.9714  0.5282
  600MOL0     H79186   8.504   4.724   7.743 -0.2454  0.0246  3.0839
  600MOL0     H79187   8.587   4.574   7.566 -0.8892 -2.3844  1.9115
  600MOL0     H79188   8.987   4.444   7.362 -0.2269  1.2400 -1.3814
  600MOL0     H79189   9.066   4.328   7.148 -0.3551  0.7918 -0.6112
  600MOL0     H79190   9.138   4.022   7.133 -0.2747 -1.7144  0.9231
  600MOL0     H79191   9.109   3.987   6.972 -0.5440 -0.9577 -0.1257
  600MOL0     H79192   9.074   3.785   7.147  1.1915  2.0664 -0.3357
  600MOL0     H79193   8.921   3.848   7.187 -0.0447  1.5054  0.0869
  600MOL0     H79194   8.952   3.684   6.971 -0.7305 -0.5586  4.0066
  600MOL0     H79195   8.944   3.851   6.900 -1.3442  0.4047  0.6761
  600MOL0     H79196   8.747   3.714   7.086  1.0902 -1.0457  0.1460
  600MOL0     H79197   8.731   3.886   7.064 -5.1300 -1.2908  0.6569
  600MOL0     H79198   8.512   3.729   6.747 -0.1376 -5.6731  2.0065
  600MOL0     H79199   8.783   4.017   7.226  0.6091 -1.0351  0.2159
  600MOL0     H79200   8.719   4.109   7.432 -0.7362 -1.2371 -3.5644
  601MOL0     O79201   7.911   9.353   9.592  0.6955  0.7930  0.4318
  601MOL0     C79202   8.002   9.374   9.512 -0.6696  0.6188  1.0806
  601MOL0     O79203   8.024   9.499   9.436  0.4597  0.6640  0.1171
  601MOL0     C79204   7.958   9.605   9.489 -0.7609  1.0914  0.2110
  601MOL0     C79205   7.830   9.614   9.500 -0.3390 -0.2623 -0.4878
  601MOL0     C79206   7.771   9.735   9.538  0.2858 -0.9482  0.8713
  601MOL0     C79207   7.855   9.844   9.568 -0.8157 -0.7005  0.0010
  601MOL0     O79208   7.794   9.968   9.584  0.5423 -0.4592  0.5117
  601MOL0     C79209   7.868  10.083   9.542  0.7556 -0.1833 -0.2273
  601MOL0     C79210   7.768  10.193   9.553  0.3872 -0.3176  1.4965
  601MOL0     C79211   7.675  10.193   9.427 -0.8334  0.7127 -0.1224
  601MOL0     C79212   7.612  10.334   9.399 -0.5032 -0.7936 -0.0678
  601MOL0     C79213   7.513  10.358   9.285  0.7925  0.5582 -1.7465
  601MOL0     C79214   7.475  10.507   9.284 -0.2660  0.5685 -1.0490
  601MOL0     C79215   7.403  10.550   9.151 -0.7215 -0.3972 -0.1149
  601MOL0     C79216   7.257  10.494   9.134  0.1808 -0.2249 -0.1195
  601MOL0     N79217   7.174  10.535   9.250  0.1905  0.1217  0.5991
  601MOL0     C79218   7.151  10.478   9.373 -0.1286  0.4663  0.0604
  601MOL0     C79219   7.059  10.550   9.439 -0.2659  0.0738  0.6269
  601MOL0     C79220   7.018  10.523   9.582 -0.4050  0.5413  0.8785
  601MOL0     C79221   6.944  10.391   9.621 -0.9197  0.8843 -0.6073
  601MOL0     C79222   6.818  10.389   9.545  0.7790 -0.4920 -0.6216
  601MOL0     C79223   6.697  10.302   9.591  0.8553 -0.0676  1.0302
  601MOL0     O79224   6.700  10.158   9.546 -0.3544 -0.0902 -0.9872
  601MOL0     C79225   6.738  10.076   9.649  1.1028  0.2048  0.1208
  601MOL0     C79226   6.863  10.015   9.643 -0.2819  0.3589 -0.7683
  601MOL0     C79227   6.900   9.906   9.721 -0.0364 -0.0892 -0.5400
  601MOL0     C79228   6.808   9.850   9.810  0.4114 -0.3135 -0.4262
  601MOL0     C79229   6.818   9.717   9.885  0.0411 -0.5720 -0.0233
  601MOL0     O79230   6.720   9.695   9.985  0.1368  1.0206  0.6055
  601MOL0     C79231   6.662   9.572  10.001  0.7614 -0.3162  0.1970
  601MOL0     C79232   6.701   9.450   9.949 -0.1123 -0.0102 -0.1360
  601MOL0     C79233   6.633   9.332   9.969 -0.1136 -0.3821 -1.0659
  601MOL0     C79234   6.522   9.320  10.054 -0.2578  0.7117  0.1369
  601MOL0     O79235   6.461   9.202  10.080  0.2001 -0.7881  0.8219
  601MOL0     C79236   6.505   9.081  10.023 -0.1361 -0.4187  0.2396
  601MOL0     C79237   6.446   8.966  10.097  0.3153 -0.0829 -0.7351
  601MOL0     C79238   6.524   8.929  10.229 -0.0583  0.2990 -0.4256
  601MOL0     C79239   6.455   8.815  10.296  0.0801  0.1240 -0.2226
  601MOL0     C79240   6.540   8.754  10.408 -0.1380  0.1456 -0.2920
  601MOL0     C79241   6.452   8.648  10.472 -0.4252 -0.2365 -0.6248
  601MOL0     C79242   6.500   8.604  10.613  0.8580  0.2318  1.0928
  601MOL0     C79243   6.416   8.484  10.656 -0.3645  0.8707 -0.8035
  601MOL0    Cl79244   6.239   8.508  10.630  0.2543 -0.1264  0.2810
  601MOL0     C79245   6.479   9.442  10.104  0.2480 -0.4683  0.3781
  601MOL0     C79246   6.538   9.568  10.079  0.6252 -0.3239  1.0791
  601MOL0     O79247   6.923   9.648   9.876  0.9582 -0.7823 -0.1224
  601MOL0     C79248   6.681   9.913   9.815 -0.6416  0.2609 -0.3157
  601MOL0     C79249   6.646  10.027   9.746  0.7962  0.0329 -0.4810
  601MOL0     N79250   7.008  10.648   9.366  0.6456 -0.2370  0.0535
  601MOL0     N79251   7.077  10.639   9.251  0.3498  0.0731 -0.9282
  601MOL0     C79252   7.990   9.822   9.585  0.1895  0.5185  0.9369
  601MOL0     C79253   8.043   9.702   9.542 -0.7773  0.9069  0.8282
  601MOL0     C79254   8.103   9.269   9.496 -0.0213 -0.2686 -0.7372
  601MOL0     C79255   8.128   9.190   9.605 -0.4790  1.0466 -0.2454
  601MOL0     C79256   8.233   9.100   9.612  1.2930 -0.8862  0.7758
  601MOL0     C79257   8.315   9.083   9.491 -0.2467 -0.5814 -0.4815
  601MOL0     O79258   8.413   8.987   9.510  0.3538 -0.4310 -0.4734
  601MOL0     C79259   8.472   8.939   9.386  0.2872  0.3525 -1.0139
  601MOL0     C79260   8.416   8.808   9.359  0.3027 -0.0994  0.3509
  601MOL0     C79261   8.275   8.805   9.302 -0.3148  0.6992  0.0553
  601MOL0     C79262   8.239   8.662   9.247 -0.5514  0.7587  0.0683
  601MOL0     C79263   8.104   8.666   9.185 -0.9087  0.2367  0.4288
  601MOL0     C79264   8.001   8.679   9.137  0.7213 -0.1253  0.3449
  601MOL0     C79265   8.290   9.161   9.375 -0.0388  0.3646  0.0508
  601MOL0     C79266   8.188   9.256   9.384  1.2493  0.8470  0.7619
  601MOL0     H79267   7.764   9.536   9.462  2.7830 -3.1972 -0.3571
  601MOL0     H79268   7.664   9.748   9.549 -0.2970 -1.8835 -2.3596
  601MOL0     H79269   7.907  10.073   9.441 -2.0314  0.7102 -1.4997
  601MOL0     H79270   7.943  10.115   9.615  0.0574 -1.3084  1.0439
  601MOL0     H79271   7.809  10.293   9.570 -1.0563  1.0408 -1.8879
  601MOL0     H79272   7.701  10.171   9.637 -0.1753  0.7324  1.3484
  601MOL0     H79273   7.595  10.120   9.441  0.3839 -0.1633  3.2065
  601MOL0     H79274   7.720  10.153   9.337 -2.8533 -2.9690  0.3247
  601MOL0     H79275   7.565  10.371   9.490 -0.7825 -0.6282 -0.2757
  601MOL0     H79276   7.693  10.403   9.373  0.0847 -0.4173  2.5487
  601MOL0     H79277   7.431  10.289   9.302  2.2987 -0.6748  1.3088
  601MOL0     H79278   7.559  10.341   9.187  0.5152  0.5972 -1.8822
  601MOL0     H79279   7.568  10.563   9.296 -0.1803  0.0286  1.3894
  601MOL0     H79280   7.417  10.526   9.374  2.1734 -2.2933  1.3811
  601MOL0     H79281   7.392  10.658   9.141  0.3000 -0.5465 -5.2337
  601MOL0     H79282   7.461  10.513   9.066 -1.8515 -0.0526 -1.0529
  601MOL0     H79283   7.270  10.387   9.116  2.9769  0.1103 -0.4846
  601MOL0     H79284   7.219  10.538   9.042  0.3386  1.4452  0.5817
  601MOL0     H79285   7.190  10.388   9.419  0.6778 -0.5215 -2.3708
  601MOL0     H79286   6.966  10.605   9.634 -0.3223  0.1012  1.6752
  601MOL0     H79287   7.117  10.505   9.624 -0.7186 -1.5687  0.8133
  601MOL0     H79288   6.931  10.391   9.730 -1.5684  2.3221 -0.6608
  601MOL0     H79289   7.002  10.305   9.585 -2.4313 -0.0903 -0.8463
  601MOL0     H79290   6.778  10.489   9.530  0.8547 -0.4250 -0.3832
  601MOL0     H79291   6.844  10.355   9.445  0.7565  1.3179 -1.2721
  601MOL0     H79292   6.601  10.346   9.561 -0.6133 -2.9686  1.1667
  601MOL0     H79293   6.709  10.314   9.699  1.9276 -0.1069  0.9189
  601MOL0     H79294   6.929  10.048   9.563  1.6363  0.4027  0.7630
  601MOL0     H79295   6.993   9.854   9.703 -1.2262 -3.0328  1.1367
  601MOL0     H79296   6.785   9.449   9.879 -0.8065 -1.2687 -0.9862
  601MOL0     H79297   6.663   9.244   9.912  0.1321  1.1553 -3.4697
  601MOL0     H79298   6.613   9.079  10.039  0.4752  3.3523 -2.1658
  601MOL0     H79299   6.479   9.078   9.917 -2.8424 -2.1009  0.8621
  601MOL0     H79300   6.447   8.875  10.035  0.9903 -1.4459  1.1740
  601MOL0     H79301   6.348   8.999  10.132  1.4510 -1.0274  3.9626
  601MOL0     H79302   6.529   9.021  10.287  0.4177  1.0102 -1.5540
  601MOL0     H79303   6.623   8.897  10.197  0.0097  0.8446 -0.7818
  601MOL0     H79304   6.367   8.861  10.342 -1.4221 -0.6273 -2.2639
  601MOL0     H79305   6.437   8.729  10.232  0.4381 -1.4207  1.6643
  601MOL0     H79306   6.574   8.839  10.468 -5.1657  4.5084 -2.7680
  601MOL0     H79307   6.627   8.705  10.364 -1.0293 -1.1559 -0.6744
  601MOL0     H79308   6.445   8.566  10.400 -2.9099  0.1127 -0.8625
  601MOL0     H79309   6.351   8.686  10.489  0.3051  0.9203  1.5547
  601MOL0     H79310   6.605   8.576  10.605  0.3183 -1.9742  0.9802
  601MOL0     H79311   6.490   8.682  10.689  3.1288  1.5207  0.1667
  601MOL0     H79312   6.440   8.446  10.756  0.3922 -0.0264 -1.3098
  601MOL0     H79313   6.449   8.403  10.590  0.9041 -1.7010  2.6690
  601MOL0     H79314   6.387   9.444  10.163  0.1768 -2.0318  0.3491
  601MOL0     H79315   6.501   9.655  10.131 -2.2436 -1.1002  0.5294
  601MOL0     H79316   6.599   9.871   9.874 -0.2081  1.9771  1.6249
  601MOL0     H79317   6.548  10.075   9.749  1.1527  0.7343  1.4137
  601MOL0     H79318   8.059   9.897   9.622  0.2776 -0.3910  2.7447
  601MOL0     H79319   8.149   9.678   9.543 -0.7924 -0.1124 -3.4381
  601MOL0     H79320   8.060   9.215   9.687  3.8578  5.9832  2.4532
  601MOL0     H79321   8.245   9.046   9.705 -4.0126 -1.5219  1.3945
  601MOL0     H79322   8.574   8.907   9.411 -0.6227  0.3280  3.5987
  601MOL0     H79323   8.490   9.006   9.301 -0.6804  1.3233 -0.4803
  601MOL0     H79324   8.480   8.761   9.284 -0.0999  1.8669 -1.3038
  601MOL0     H79325   8.417   8.752   9.453  0.6870 -2.7806 -1.1325
  601MOL0     H79326   8.267   8.883   9.226 -1.2887  2.0279  1.4374
  601MOL0     H79327   8.201   8.831   9.379 -0.9690 -0.9872  0.0479
  601MOL0     H79328   8.315   8.623   9.178 -0.0919 -0.0110  0.9780
  601MOL0     H79329   8.245   8.595   9.333  2.7669 -0.2841 -0.8147
  601MOL0     H79330   7.906   8.712   9.101  0.7729 -0.6534 -0.2840
  601MOL0     H79331   8.355   9.149   9.289 -0.4861 -1.1121 -0.1195
  601MOL0     H79332   8.189   9.337   9.312  0.8032 -0.4699 -0.7868
  602MOL0     O79333   7.863   1.447  10.731  0.3603  0.9965 -0.5605
  602MOL0     C79334   7.930   1.409  10.633 -0.5417 -1.0797  0.8099
  602MOL0     O79335   7.895   1.411  10.501  0.5251 -0.2758 -0.1076
  602MOL0     C79336   7.774   1.448  10.463 -0.1112 -0.5267  0.2303
  602MOL0     C79337   7.773   1.551  10.374  0.5885  0.3017  0.6671
  602MOL0     C79338   7.645   1.608  10.332  0.3680 -0.2179 -0.1233
  602MOL0     C79339   7.525   1.566  10.387 -0.9660  0.7043  0.5882
  602MOL0     O79340   7.416   1.644  10.376  0.8889 -0.1572 -0.5943
  602MOL0     C79341   7.287   1.580  10.370  0.0484 -0.1083  0.0779
  602MOL0     C79342   7.193   1.688  10.307  0.7277 -0.8253 -0.3472
  602MOL0     C79343   7.053   1.629  10.292  0.1935 -0.2707 -0.7613
  602MOL0     C79344   6.952   1.729  10.232 -0.6089 -0.0534 -0.6884
  602MOL0     C79345   6.911   1.846  10.315 -0.6558 -0.3146  0.3624
  602MOL0     C79346   6.836   1.937  10.222  0.3370 -0.6595  0.7955
  602MOL0     C79347   6.774   2.046  10.305  0.5098  0.8061 -0.1050
  602MOL0     C79348   6.713   2.166  10.228  0.5155  0.2962 -0.2194
  602MOL0     N79349   6.628   2.255  10.311  0.6601  0.1854  0.3843
  602MOL0     C79350   6.674   2.333  10.415 -0.1727  1.1457 -1.5249
  602MOL0     C79351   6.565   2.342  10.497 -0.4080  0.0478  1.0408
  602MOL0     C79352   6.546   2.408  10.629  0.6608 -0.0465  0.1811
  602MOL0     C79353   6.648   2.508  10.678 -0.0580  0.3510  0.2070
  602MOL0     C79354   6.629   2.654  10.638  0.9499 -0.5770 -0.6647
  602MOL0     C79355   6.594   2.675  10.489 -0.2618 -0.5480 -0.1134
  602MOL0     O79356   6.693   2.627  10.408 -0.2505  0.3675  0.6561
  602MOL0     C79357   6.667   2.616  10.266  0.4151 -0.3753  1.2500
  602MOL0     C79358   6.557   2.671  10.192  0.1157 -1.0316  0.7354
  602MOL0     C79359   6.531   2.654  10.055 -1.0689  0.4376 -0.1304
  602MOL0     C79360   6.616   2.574   9.985 -0.6829 -0.2886  0.3672
  602MOL0     C79361   6.580   2.544   9.838  0.8354  0.5914  0.2300
  602MOL0     O79362   6.449   2.552   9.799  1.0922 -0.7267  0.8796
  602MOL0     C79363   6.415   2.533   9.663  0.5041 -0.0231  0.9142
  602MOL0     C79364   6.386   2.412   9.607 -0.6666  0.5151 -1.2772
  602MOL0     C79365   6.359   2.398   9.471 -0.4135 -0.6583 -0.3784
  602MOL0     C79366   6.354   2.516   9.387  0.7416 -0.0269 -0.8686
  602MOL0     O79367   6.305   2.510   9.266 -1.2128 -0.2917  1.1742
  602MOL0     C79368   6.221   2.399   9.233  0.6110  0.8069  0.1634
  602MOL0     C79369   6.134   2.425   9.116 -0.9838  0.0231 -1.0946
  602MOL0     C79370   6.057   2.304   9.051  0.5025 -0.3528 -0.1984
  602MOL0     C79371   6.122   2.219   8.946  0.7401 -0.1073 -0.1398
  602MOL0     C79372   6.032   2.132   8.864  0.7047  0.5467  0.7455
  602MOL0     C79373   5.958   2.032   8.946  0.3552 -0.0294 -0.0360
  602MOL0     C79374   5.904   1.913   8.856 -0.9611 -0.1289 -0.8504
  602MOL0     C79375   5.791   1.818   8.905 -0.6264 -0.4091 -0.2587
  602MOL0    Cl79376   5.635   1.903   8.903 -0.6962  0.1897 -0.1405
  602MOL0     C79377   6.364   2.648   9.450 -0.2655 -0.5952  0.6869
  602MOL0     C79378   6.405   2.652   9.590  0.5037 -0.5006  0.1487
  602MOL0     O79379   6.673   2.499   9.768 -0.0159  0.3862  0.3368
  602MOL0     C79380   6.734   2.524  10.052 -0.2536  0.8515  1.1429
  602MOL0     C79381   6.749   2.535  10.185  1.5146  0.1664 -0.2049
  602MOL0     N79382   6.454   2.280  10.445 -0.3288  1.5366  0.1015
  602MOL0     N79383   6.495   2.227  10.331  1.6014 -0.3176 -0.1432
  602MOL0     C79384   7.532   1.456  10.470  0.1974  0.2310  0.1621
  602MOL0     C79385   7.653   1.400  10.517 -0.0377 -0.1063 -0.1657
  602MOL0     C79386   8.065   1.347  10.659  0.6555 -0.2906 -0.6702
  602MOL0     C79387   8.133   1.389  10.777  0.3024 -0.1428  0.1838
  602MOL0     C79388   8.265   1.350  10.796  0.1079 -0.2953 -0.4548
  602MOL0     C79389   8.338   1.264  10.700 -0.1153  0.6422  0.0593
  602MOL0     O79390   8.472   1.239  10.717  0.4784  0.7813  0.7403
  602MOL0     C79391   8.576   1.329  10.676  0.4412 -0.7149 -0.4772
  602MOL0     C79392   8.708   1.297  10.748 -0.1961 -0.2720  0.8405
  602MOL0     C79393   8.760   1.172  10.693 -0.1285  0.6435  0.4130
  602MOL0     C79394   8.901   1.147  10.757 -0.0488 -0.2733  1.0601
  602MOL0     C79395   8.969   1.044  10.678  0.7568 -0.2690  0.1921
  602MOL0     C79396   9.004   0.951  10.613  0.4398  0.3495  0.2173
  602MOL0     C79397   8.264   1.225  10.583  1.1190 -0.3576  0.1484
  602MOL0     C79398   8.133   1.268  10.565  0.1797 -0.6477 -0.4970
  602MOL0     H79399   7.859   1.597  10.325 -1.3704  0.2385 -3.1893
  602MOL0     H79400   7.646   1.690  10.262  0.7946  0.9559  1.2123
  602MOL0     H79401   7.253   1.556  10.471 -0.9513 -3.7853 -0.9603
  602MOL0     H79402   7.288   1.487  10.313 -1.5151 -0.1586  0.0877
  602MOL0     H79403   7.215   1.716  10.204 -5.2429  2.3347 -1.1561
  602MOL0     H79404   7.196   1.783  10.360 -2.5204 -0.2027 -1.0782
  602MOL0     H79405   7.021   1.586  10.388 -0.0886 -1.9743 -1.5773
  602MOL0     H79406   7.060   1.549  10.218  1.5594 -0.2516 -0.6649
  602MOL0     H79407   6.986   1.770  10.137  0.8106 -1.2754 -0.7508
  602MOL0     H79408   6.856   1.677  10.222 -1.6516  1.5463  0.5069
  602MOL0     H79409   6.995   1.902  10.357 -1.6009 -0.2608  2.2477
  602MOL0     H79410   6.860   1.826  10.409 -1.2393 -1.8926 -0.2483
  602MOL0     H79411   6.751   1.887  10.176  2.0867 -0.2310 -3.4445
  602MOL0     H79412   6.893   1.984  10.141 -1.1168  3.3734  1.8627
  602MOL0     H79413   6.695   2.005  10.368  2.9883  0.7970  3.2384
  602MOL0     H79414   6.847   2.098  10.367  0.9271  1.3067 -0.9919
  602MOL0     H79415   6.659   2.124  10.142 -0.9305  3.4205 -0.9834
  602MOL0     H79416   6.795   2.230  10.195  0.3782  3.1420  4.2362
  602MOL0     H79417   6.775   2.355  10.450  1.0499 -2.3433 -2.4930
  602MOL0     H79418   6.538   2.326  10.701  0.2153  0.1861  0.3910
  602MOL0     H79419   6.447   2.453  10.629  0.8473  0.3827  1.2634
  602MOL0     H79420   6.742   2.482  10.627 -1.1447 -1.8442 -0.7958
  602MOL0     H79421   6.660   2.500  10.787  1.0858 -2.3956 -0.0339
  602MOL0     H79422   6.554   2.707  10.697  1.6598  1.2075 -1.2924
  602MOL0     H79423   6.721   2.710  10.657 -0.7070  2.5561 -1.1749
  602MOL0     H79424   6.575   2.779  10.461 -2.4598  0.1380  3.2549
  602MOL0     H79425   6.497   2.627  10.472 -0.9607  1.7043 -3.3364
  602MOL0     H79426   6.494   2.739  10.247 -0.0042 -1.0916  0.6742
  602MOL0     H79427   6.443   2.704  10.017 -0.7108  0.1179 -1.4081
  602MOL0     H79428   6.398   2.319   9.662  1.8626  0.9516 -0.9732
  602MOL0     H79429   6.355   2.293   9.442 -0.4682 -0.9462  0.6562
  602MOL0     H79430   6.152   2.380   9.315 -0.8502 -2.0271 -1.5439
  602MOL0     H79431   6.287   2.314   9.208 -1.5701 -0.8445 -0.3424
  602MOL0     H79432   6.200   2.458   9.036  2.0071 -2.0403  0.3286
  602MOL0     H79433   6.065   2.504   9.148  0.3083  0.2381  1.3829
  602MOL0     H79434   5.962   2.343   9.011  1.0425  0.4923 -0.6845
  602MOL0     H79435   6.047   2.246   9.143  0.9406  0.9278  0.6904
  602MOL0     H79436   6.169   2.285   8.873  2.9781 -1.7933 -0.3268
  602MOL0     H79437   6.194   2.157   9.000 -1.3879 -1.6877  1.0810
  602MOL0     H79438   6.093   2.079   8.790 -2.5423  0.7546 -2.3532
  602MOL0     H79439   5.963   2.193   8.804  0.4995 -2.1120 -1.9474
  602MOL0     H79440   5.875   2.080   8.999  0.0886  0.5835 -0.9776
  602MOL0     H79441   6.018   1.994   9.029 -0.6535 -2.6843 -0.4385
  602MOL0     H79442   5.867   1.968   8.770 -0.9664 -0.7901 -1.2788
  602MOL0     H79443   5.995   1.855   8.834  1.0643  1.9248  1.3826
  602MOL0     H79444   5.815   1.777   9.004 -1.1816 -2.7183 -1.0013
  602MOL0     H79445   5.780   1.726   8.847 -1.0587 -0.4529 -0.1158
  602MOL0     H79446   6.339   2.739   9.396 -0.9796 -1.9447 -1.3600
  602MOL0     H79447   6.435   2.744   9.640 -1.2986 -1.2054  2.7215
  602MOL0     H79448   6.793   2.466   9.982 -0.9776 -0.3144  1.4650
  602MOL0     H79449   6.836   2.498  10.239  0.2388 -1.6193  0.7261
  602MOL0     H79450   7.444   1.414  10.517 -1.4955 -0.0316 -3.0067
  602MOL0     H79451   7.650   1.328  10.598 -3.3974  1.6949  1.5187
  602MOL0     H79452   8.083   1.460  10.843  0.1059  0.1827 -0.3043
  602MOL0     H79453   8.310   1.395  10.883 -2.6828 -0.7817  1.3871
  602MOL0     H79454   8.553   1.430  10.711  0.9564 -0.8165  0.1833
  602MOL0     H79455   8.589   1.311  10.569 -3.1633 -1.2061 -0.9854
  602MOL0     H79456   8.783   1.375  10.731  1.4970 -2.4418 -2.9025
  602MOL0     H79457   8.675   1.285  10.852 -0.9785 -1.1954  0.5040
  602MOL0     H79458   8.780   1.184  10.586 -2.0738 -3.5320 -0.6085
  602MOL0     H79459   8.689   1.089  10.702 -2.2385  2.5539  3.7989
  602MOL0     H79460   8.961   1.239  10.757 -0.3743  0.0045 -1.1059
  602MOL0     H79461   8.892   1.117  10.861 -1.7242  2.7337  1.8892
  602MOL0     H79462   9.030   0.871  10.547  1.2528  0.1204  0.8091
  602MOL0     H79463   8.306   1.167  10.502 -0.8556 -1.4723 -0.1428
  602MOL0     H79464   8.080   1.253  10.471 -0.1908  1.1578 -0.6105
  603MOL0     O79465   0.755   0.098  11.194  0.3420  0.0024  0.5567
  603MOL0     C79466   0.861   0.052  11.237  0.3990 -1.1438  0.5348
  603MOL0     O79467   0.876  -0.070  11.286 -0.4422 -0.9027  0.3461
  603MOL0     C79468   0.777  -0.163  11.264  0.5167 -0.1148  0.3979
  603MOL0     C79469   0.689  -0.197  11.375 -0.2241  0.6893  0.2162
  603MOL0     C79470   0.569  -0.280  11.348 -0.0353  0.0527 -0.5770
  603MOL0     C79471   0.547  -0.343  11.224  0.1869  0.4787 -0.5918
  603MOL0     O79472   0.431  -0.422  11.207 -1.0038  0.3809 -0.7258
  603MOL0     C79473   0.422  -0.493  11.080 -0.7384 -0.2521  1.6102
  603MOL0     C79474   0.320  -0.597  11.083 -0.6063  0.2733 -1.1311
  603MOL0     C79475   0.170  -0.556  11.083 -0.4439  0.3046 -0.7975
  603MOL0     C79476   0.096  -0.677  11.152  0.5323 -0.0257 -0.0404
  603MOL0     C79477  -0.049  -0.676  11.161  0.3235 -0.0643 -0.1656
  603MOL0     C79478  -0.094  -0.800  11.236  0.0558 -0.0843  0.2282
  603MOL0     C79479  -0.246  -0.786  11.262  0.2101  0.4144  0.5701
  603MOL0     C79480  -0.283  -0.828  11.404 -0.3917 -0.2006 -1.1106
  603MOL0     N79481  -0.250  -0.971  11.440  0.4734 -0.6100  0.1044
  603MOL0     C79482  -0.259  -1.078  11.349 -0.1781 -0.3165 -0.5739
  603MOL0     C79483  -0.250  -1.181  11.435  0.6719  0.4423  0.6357
  603MOL0     C79484  -0.250  -1.316  11.392  0.6519 -0.0831 -0.3026
  603MOL0     C79485  -0.105  -1.352  11.351 -0.3847  0.3377  0.5460
  603MOL0     C79486  -0.040  -1.442  11.457 -0.0009  0.6658  0.3409
  603MOL0     C79487  -0.104  -1.576  11.481  0.9135  0.3663  0.2493
  603MOL0     O79488  -0.118  -1.641  11.356 -0.0503  0.5193  0.9972
  603MOL0     C79489  -0.152  -1.774  11.377  0.3782 -0.3927 -0.2222
  603MOL0     C79490  -0.213  -1.825  11.496 -0.0413  0.0583  0.5850
  603MOL0     C79491  -0.258  -1.954  11.511 -0.1379  0.3948  0.3237
  603MOL0     C79492  -0.220  -2.047  11.408 -0.0762 -0.5655  0.3380
  603MOL0     C79493  -0.252  -2.190  11.420 -0.4249  0.4374 -0.2393
  603MOL0     O79494  -0.165  -2.260  11.342 -0.3942  0.0621 -0.6011
  603MOL0     C79495  -0.171  -2.395  11.326  0.7211  1.0787  0.6915
  603MOL0     C79496  -0.067  -2.460  11.254  0.1490 -0.8137 -0.6067
  603MOL0     C79497  -0.070  -2.595  11.231 -0.7050  0.6014  0.6101
  603MOL0     C79498  -0.168  -2.688  11.292 -0.0358 -0.4909 -0.2834
  603MOL0     O79499  -0.153  -2.825  11.281 -0.5875  1.0602 -0.6704
  603MOL0     C79500  -0.260  -2.912  11.318 -0.1335 -0.8339 -0.4419
  603MOL0     C79501  -0.207  -3.056  11.304 -0.3605  0.4886 -0.8239
  603MOL0     C79502  -0.180  -3.086  11.156 -0.1414  0.2514 -0.8877
  603MOL0     C79503  -0.147  -3.241  11.140 -0.4666  0.3527  0.0887
  603MOL0     C79504   0.001  -3.273  11.158  0.9492  0.4162  0.3249
  603MOL0     C79505   0.020  -3.428  11.149 -0.5765 -0.8610  0.4208
  603MOL0     C79506   0.169  -3.450  11.110  1.1794  0.9407 -0.0390
  603MOL0     C79507   0.201  -3.604  11.117  0.3620  0.2802 -0.2132
  603MOL0    Cl79508   0.366  -3.622  11.068  0.1599 -0.6010 -0.0704
  603MOL0     C79509  -0.273  -2.628  11.352  1.1161 -0.0898 -0.5231
  603MOL0     C79510  -0.283  -2.488  11.361 -0.2754 -0.5909  0.0035
  603MOL0     O79511  -0.351  -2.237  11.468 -0.2965  0.8857  0.6221
  603MOL0     C79512  -0.145  -1.997  11.296 -1.0681  0.4099  0.1709
  603MOL0     C79513  -0.116  -1.866  11.282  0.0048  0.1795 -0.3811
  603MOL0     N79514  -0.239  -1.143  11.561  0.1043 -0.7729 -0.1984
  603MOL0     N79515  -0.230  -1.015  11.566 -1.4634 -0.3128  0.6121
  603MOL0     C79516   0.640  -0.307  11.119 -0.1890  0.1442 -0.1108
  603MOL0     C79517   0.752  -0.222  11.136 -0.6375 -0.6240  0.8107
  603MOL0     C79518   0.982   0.141  11.251  1.4545 -0.4917 -0.0604
  603MOL0     C79519   0.984   0.261  11.170 -0.2425  0.9175 -0.1438
  603MOL0     C79520   1.094   0.345  11.177  0.5606 -0.1554  0.7605
  603MOL0     C79521   1.202   0.322  11.264 -1.0156 -0.9835 -1.1080
  603MOL0     O79522   1.314   0.408  11.261 -0.0497  0.2350 -0.7004
  603MOL0     C79523   1.423   0.369  11.341 -0.0410  0.8358  0.1303
  603MOL0     C79524   1.554   0.449  11.299 -0.2356  0.2065 -0.3506
  603MOL0     C79525   1.524   0.602  11.304  0.2412  0.1355 -0.2403
  603MOL0     C79526   1.649   0.690  11.287  0.6387 -0.1896  0.7958
  603MOL0     C79527   1.623   0.807  11.195 -0.7464  0.5917  0.9642
  603MOL0     C79528   1.607   0.886  11.106  0.9319  0.1809  0.3441
  603MOL0     C79529   1.195   0.200  11.341 -0.0060  0.1034 -0.0545
  603MOL0     C79530   1.092   0.112  11.328  0.3812 -0.4123 -0.1743
  603MOL0     H79531   0.709  -0.149  11.470 -0.7617  1.9466 -0.2777
  603MOL0     H79532   0.496  -0.299  11.426  2.5891 -0.2779  2.0241
  603MOL0     H79533   0.516  -0.536  11.043  0.0377  0.9183  2.1748
  603MOL0     H79534   0.391  -0.429  10.998 -0.7699  0.4424  2.1591
  603MOL0     H79535   0.335  -0.659  11.172 -0.0153  0.4330 -1.1135
  603MOL0     H79536   0.321  -0.670  11.001 -2.0115 -3.3985  1.7852
  603MOL0     H79537   0.138  -0.558  10.979 -2.6162 -3.2918 -0.2387
  603MOL0     H79538   0.150  -0.456  11.123  3.2839  0.8896  0.0488
  603MOL0     H79539   0.119  -0.762  11.087 -2.5021 -2.0993  1.3905
  603MOL0     H79540   0.131  -0.696  11.254 -1.9298  0.2369  0.9228
  603MOL0     H79541  -0.097  -0.686  11.063  0.7265  0.2042 -0.3895
  603MOL0     H79542  -0.073  -0.581  11.209  0.6099 -0.3444  0.5487
  603MOL0     H79543  -0.044  -0.821  11.331 -0.4472 -2.1080  0.0971
  603MOL0     H79544  -0.074  -0.887  11.173  2.0599  0.2028  0.4065
  603MOL0     H79545  -0.277  -0.685  11.235  1.0628  0.9464  1.4897
  603MOL0     H79546  -0.299  -0.852  11.193  0.0367 -0.5433  1.5991
  603MOL0     H79547  -0.392  -0.834  11.403 -0.4170 -1.0882  1.2200
  603MOL0     H79548  -0.251  -0.765  11.488  1.0887 -2.6378  0.2624
  603MOL0     H79549  -0.268  -1.068  11.242  1.2073 -1.4908 -0.8227
  603MOL0     H79550  -0.322  -1.313  11.309  0.8799 -0.6550 -0.5237
  603MOL0     H79551  -0.305  -1.362  11.474 -0.1079  0.3595 -0.5506
  603MOL0     H79552  -0.042  -1.263  11.342 -3.1769  2.4298  0.5418
  603MOL0     H79553  -0.124  -1.387  11.249 -0.9923 -0.0727  0.7915
  603MOL0     H79554   0.059  -1.468  11.417 -0.7114 -2.6412  0.4616
  603MOL0     H79555  -0.043  -1.386  11.551 -0.5834  2.0369 -0.4735
  603MOL0     H79556  -0.196  -1.566  11.540  2.0525  0.9965  1.9808
  603MOL0     H79557  -0.023  -1.611  11.546  0.9268  0.1569  0.1193
  603MOL0     H79558  -0.247  -1.752  11.569 -2.4828 -0.5677  0.1708
  603MOL0     H79559  -0.292  -1.997  11.604  1.2799 -1.9093 -0.1564
  603MOL0     H79560   0.011  -2.391  11.221 -2.6134  2.1029 -1.6012
  603MOL0     H79561   0.013  -2.628  11.171 -0.1205  0.0704  1.6786
  603MOL0     H79562  -0.349  -2.881  11.263 -1.0636 -0.3492  1.2628
  603MOL0     H79563  -0.300  -2.897  11.419 -2.3632  1.6393 -1.5997
  603MOL0     H79564  -0.284  -3.120  11.349  1.7643 -0.0506  2.3916
  603MOL0     H79565  -0.122  -3.066  11.372 -0.4913  0.1072 -0.7120
  603MOL0     H79566  -0.109  -3.018  11.108 -0.6338  0.1136 -1.8513
  603MOL0     H79567  -0.275  -3.068  11.104 -0.0543 -0.1608 -1.1986
  603MOL0     H79568  -0.216  -3.285  11.212  0.7697 -0.6996  0.6820
  603MOL0     H79569  -0.170  -3.249  11.033 -2.0052  0.9073  0.3652
  603MOL0     H79570   0.033  -3.230  11.253  0.9060  1.7999 -0.2613
  603MOL0     H79571   0.047  -3.214  11.078 -1.7556  3.0258  0.4741
  603MOL0     H79572  -0.039  -3.473  11.069  0.9542 -0.3368 -1.0836
  603MOL0     H79573  -0.001  -3.467  11.249  0.3338  1.6297  1.6849
  603MOL0     H79574   0.179  -3.422  11.005 -0.8545 -3.6970 -1.7436
  603MOL0     H79575   0.236  -3.389  11.171  2.0111  0.0575 -0.0459
  603MOL0     H79576   0.134  -3.651  11.045 -1.4847  2.9579 -0.3959
  603MOL0     H79577   0.180  -3.645  11.216  2.3614 -1.2429 -0.3565
  603MOL0     H79578  -0.360  -2.681  11.390 -0.4084  3.8366  2.2974
  603MOL0     H79579  -0.373  -2.444  11.404 -0.6556 -1.5447  0.2160
  603MOL0     H79580  -0.128  -2.075  11.222  2.2871 -1.8474  3.0040
  603MOL0     H79581  -0.067  -1.820  11.196 -1.5275  0.3958 -1.1815
  603MOL0     H79582   0.616  -0.347  11.021 -2.8159  3.2931 -0.9335
  603MOL0     H79583   0.823  -0.197  11.058  0.8089 -2.0884  1.5800
  603MOL0     H79584   0.906   0.296  11.103  2.1422  1.8629 -2.5875
  603MOL0     H79585   1.081   0.420  11.100  0.3733 -2.6068 -1.7372
  603MOL0     H79586   1.451   0.263  11.337 -2.1482  0.1613  1.5305
  603MOL0     H79587   1.394   0.381  11.446 -2.1569 -2.3143  0.0363
  603MOL0     H79588   1.628   0.429  11.377 -1.9322 -1.6121  0.9067
  603MOL0     H79589   1.595   0.416  11.203  0.8561 -0.3940  0.3018
  603MOL0     H79590   1.483   0.616  11.404  0.6090 -0.2964 -0.0275
  603MOL0     H79591   1.445   0.629  11.234  0.3656  0.3295 -0.3068
  603MOL0     H79592   1.670   0.729  11.386 -0.5508  1.0763  0.5715
  603MOL0     H79593   1.731   0.633  11.243  0.1176  1.4493 -2.6852
  603MOL0     H79594   1.570   0.952  11.030  0.6279 -0.1849  0.1696
  603MOL0     H79595   1.260   0.173  11.423  1.0938  0.9339 -0.6174
  603MOL0     H79596   1.102   0.013  11.373 -0.8643 -0.2877  0.4348
  604MOL0     O79597   1.731   3.957   6.313  0.5030  0.7918  0.6619
  604MOL0     C79598   1.758   4.065   6.367  0.7785 -0.5938 -1.0759
  604MOL0     O79599   1.719   4.179   6.319  0.9101  0.6060 -0.3304
  604MOL0     C79600   1.705   4.191   6.187  0.1593 -0.0350 -0.4950
  604MOL0     C79601   1.814   4.173   6.098 -0.0152  0.6451  0.5136
  604MOL0     C79602   1.807   4.189   5.964 -0.4431  0.1616 -0.3281
  604MOL0     C79603   1.680   4.208   5.907  0.0129  0.7658  0.3198
  604MOL0     O79604   1.679   4.223   5.770 -0.1490  0.4887 -1.1872
  604MOL0     C79605   1.547   4.252   5.712 -0.1554 -0.1360 -0.4380
  604MOL0     C79606   1.578   4.260   5.563 -0.2036  0.0306 -0.6405
  604MOL0     C79607   1.609   4.121   5.500 -0.1923 -0.4401  0.2843
  604MOL0     C79608   1.478   4.075   5.438  0.1644  0.8084  0.8052
  604MOL0     C79609   1.498   3.958   5.343  0.1939 -0.4481  0.5327
  604MOL0     C79610   1.362   3.896   5.297 -0.1226  0.6352 -0.7143
  604MOL0     C79611   1.299   3.948   5.177  0.4396  0.5258  0.9208
  604MOL0     C79612   1.387   3.965   5.049  0.4335 -0.2543 -0.9618
  604MOL0     N79613   1.394   3.833   4.998  0.0147  0.4566 -0.3598
  604MOL0     C79614   1.489   3.741   5.041  0.2873 -0.1699  0.5123
  604MOL0     C79615   1.505   3.649   4.943  0.8156  0.1981 -1.0862
  604MOL0     C79616   1.591   3.530   4.957  0.5618  0.7379  0.1532
  604MOL0     C79617   1.728   3.548   4.887  0.2787 -0.6113  0.4095
  604MOL0     C79618   1.811   3.418   4.926  1.0783 -0.3050  0.0058
  604MOL0     C79619   1.933   3.389   4.843 -0.4284 -0.0128  0.8308
  604MOL0     O79620   2.031   3.476   4.899  0.2420 -0.1265 -0.8552
  604MOL0     C79621   2.167   3.445   4.890 -0.6915 -0.5469  0.5039
  604MOL0     C79622   2.222   3.320   4.850 -0.1539 -0.2611 -0.7863
  604MOL0     C79623   2.364   3.302   4.845  0.6268  1.3530  0.3263
  604MOL0     C79624   2.452   3.409   4.886  0.0418 -0.3462  0.4254
  604MOL0     C79625   2.599   3.397   4.882  1.4213  0.8436  0.2350
  604MOL0     O79626   2.632   3.272   4.847  0.4265  1.0476  0.2967
  604MOL0     C79627   2.758   3.218   4.849 -0.5004 -0.0902  0.4911
  604MOL0     C79628   2.861   3.271   4.769 -0.5968 -0.3936 -0.6859
  604MOL0     C79629   2.994   3.225   4.781 -1.2361 -0.3185 -0.6916
  604MOL0     C79630   3.018   3.111   4.858  0.4545  0.0405  0.4485
  604MOL0     O79631   3.144   3.052   4.878  0.5805  0.4247  0.8364
  604MOL0     C79632   3.258   3.113   4.817 -0.4478  0.7643 -0.3613
  604MOL0     C79633   3.383   3.011   4.841  1.0206 -0.4223 -0.3708
  604MOL0     C79634   3.510   3.051   4.766  0.7780 -0.0125 -0.7844
  604MOL0     C79635   3.611   2.931   4.781  0.8414 -0.3813  0.3377
  604MOL0     C79636   3.724   2.972   4.875  0.0899 -0.2738  0.7999
  604MOL0     C79637   3.839   2.871   4.873 -0.6661  0.7173  0.0689
  604MOL0     C79638   3.955   2.919   4.972 -0.3172 -0.1736  0.4885
  604MOL0     C79639   4.089   2.838   4.950  0.8885 -0.6827 -0.8255
  604MOL0    Cl79640   4.140   2.843   4.769 -0.3752 -0.2010 -0.3351
  604MOL0     C79641   2.909   3.052   4.924 -1.0997  0.1219  1.1518
  604MOL0     C79642   2.786   3.106   4.928 -0.2494  0.4111 -0.6357
  604MOL0     O79643   2.671   3.487   4.921  0.3845 -0.8784  0.5982
  604MOL0     C79644   2.392   3.520   4.945 -0.2716 -1.4751 -0.1382
  604MOL0     C79645   2.256   3.537   4.937  0.8582  0.1715 -0.0299
  604MOL0     N79646   1.414   3.679   4.847 -0.1208  0.1068  1.0572
  604MOL0     N79647   1.337   3.786   4.878 -0.0363  0.0839  0.3169
  604MOL0     C79648   1.571   4.223   5.995  0.8195  0.1603 -0.0668
  604MOL0     C79649   1.585   4.226   6.133 -0.3496 -0.2694  0.9276
  604MOL0     C79650   1.814   4.061   6.504 -0.4221 -0.4129  0.2467
  604MOL0     C79651   1.841   3.942   6.571 -0.3824 -0.0444  0.4562
  604MOL0     C79652   1.901   3.935   6.691  0.3636  0.0652  0.3852
  604MOL0     C79653   1.963   4.051   6.732 -0.0380 -0.2274 -0.5484
  604MOL0     O79654   2.038   4.034   6.845  0.8122  0.3069  0.6336
  604MOL0     C79655   1.960   4.023   6.967 -0.0670  0.7615 -0.3486
  604MOL0     C79656   1.957   4.151   7.045 -0.1429 -1.0928 -0.5943
  604MOL0     C79657   1.833   4.240   7.024 -0.1353  0.5061 -0.1704
  604MOL0     C79658   1.698   4.170   7.053 -0.9977 -0.0717  0.1240
  604MOL0     C79659   1.587   4.266   7.076  0.8715 -0.3218 -0.2670
  604MOL0     C79660   1.501   4.355   7.085 -0.3142  0.6436  0.9664
  604MOL0     C79661   1.941   4.179   6.675  0.4444 -0.0056 -0.3891
  604MOL0     C79662   1.871   4.188   6.553  1.0307  0.3894  0.1130
  604MOL0     H79663   1.908   4.135   6.138 -1.0501 -2.1793  0.4911
  604MOL0     H79664   1.898   4.168   5.908  1.5599  1.9127  2.0464
  604MOL0     H79665   1.514   4.353   5.739  0.7350  0.1748 -0.4847
  604MOL0     H79666   1.470   4.176   5.725 -1.5588  1.0014 -1.7334
  604MOL0     H79667   1.666   4.323   5.547  2.1366 -2.2783  2.0059
  604MOL0     H79668   1.493   4.305   5.510 -2.8258 -2.3180  1.2332
  604MOL0     H79669   1.640   4.046   5.573 -2.1468 -1.7042 -0.1129
  604MOL0     H79670   1.678   4.137   5.417  1.7512  1.6538  2.1563
  604MOL0     H79671   1.405   4.047   5.515 -2.3538  1.4997 -1.2276
  604MOL0     H79672   1.442   4.158   5.376 -0.0926 -0.6875 -1.1211
  604MOL0     H79673   1.547   3.877   5.396 -0.3787 -1.2945 -0.2069
  604MOL0     H79674   1.567   3.973   5.259 -3.7954  2.2100 -2.7350
  604MOL0     H79675   1.297   3.901   5.385  0.1875  0.8808 -0.4923
  604MOL0     H79676   1.378   3.789   5.286 -0.7565  0.5443 -0.7739
  604MOL0     H79677   1.212   3.888   5.149  2.0321 -0.8855 -1.3985
  604MOL0     H79678   1.275   4.052   5.199  1.3706  1.1057 -0.6501
  604MOL0     H79679   1.489   3.996   5.071  0.4554 -1.9300  1.7605
  604MOL0     H79680   1.330   4.027   4.978 -3.0436 -1.2661  0.7376
  604MOL0     H79681   1.545   3.745   5.134 -1.1328 -1.0301  1.4579
  604MOL0     H79682   1.546   3.446   4.902 -0.2070  1.0377  0.3186
  604MOL0     H79683   1.603   3.507   5.063  1.9942  2.3539  0.3871
  604MOL0     H79684   1.771   3.640   4.929  2.1503 -2.1707  2.1801
  604MOL0     H79685   1.716   3.542   4.779  0.9816  0.6771  0.2336
  604MOL0     H79686   1.827   3.415   5.034  1.5581  1.2292 -0.0061
  604MOL0     H79687   1.740   3.336   4.908 -0.9880  1.9910 -3.3039
  604MOL0     H79688   1.903   3.415   4.741  1.0187  0.7154  0.5732
  604MOL0     H79689   1.969   3.286   4.846 -1.4144 -0.3470  1.6123
  604MOL0     H79690   2.166   3.232   4.820  2.1155 -1.3138 -2.1799
  604MOL0     H79691   2.395   3.202   4.816  0.1975  1.5124 -0.7503
  604MOL0     H79692   2.860   3.362   4.709  3.0862 -0.1294 -0.5117
  604MOL0     H79693   3.082   3.275   4.741 -2.4605  1.3639 -1.4425
  604MOL0     H79694   3.281   3.210   4.864 -0.3835 -0.0087  1.2486
  604MOL0     H79695   3.246   3.129   4.709 -0.3576 -1.6792 -0.7797
  604MOL0     H79696   3.343   2.922   4.790 -3.6116  0.7843  0.6876
  604MOL0     H79697   3.388   3.000   4.949  2.7264 -2.2478 -0.5738
  604MOL0     H79698   3.549   3.144   4.807 -0.2113 -1.1369  3.0722
  604MOL0     H79699   3.484   3.079   4.663  1.6180 -0.0132 -1.0054
  604MOL0     H79700   3.565   2.847   4.833  3.2029  0.3508  3.9941
  604MOL0     H79701   3.646   2.907   4.681 -0.1592  1.8149 -0.6142
  604MOL0     H79702   3.675   2.975   4.973  3.4310 -1.6361  2.6719
  604MOL0     H79703   3.760   3.071   4.846  1.8884 -1.5030 -1.4159
  604MOL0     H79704   3.876   2.870   4.770 -0.0647  2.3696  0.2300
  604MOL0     H79705   3.798   2.779   4.916  2.3878  0.7302  3.5203
  604MOL0     H79706   3.980   3.025   4.956  2.5176 -1.0525 -1.8627
  604MOL0     H79707   3.925   2.914   5.077  2.5011  0.5614  1.4173
  604MOL0     H79708   4.062   2.737   4.981  0.6958  0.4912  3.3689
  604MOL0     H79709   4.168   2.876   5.014  0.9888 -2.0684 -0.1065
  604MOL0     H79710   2.936   2.966   4.984 -0.2671 -0.9061 -0.5973
  604MOL0     H79711   2.713   3.053   4.988 -0.1640  0.4258 -0.5198
  604MOL0     H79712   2.444   3.608   4.983 -1.3106 -0.8575 -0.1076
  604MOL0     H79713   2.222   3.634   4.972 -0.3770  0.8811 -2.9225
  604MOL0     H79714   1.478   4.248   5.946  0.1446  0.2324  1.2182
  604MOL0     H79715   1.506   4.261   6.199  0.0526 -0.9824  1.8142
  604MOL0     H79716   1.805   3.851   6.524  0.8910  0.1554 -0.9812
  604MOL0     H79717   1.928   3.838   6.732  0.9002  0.2184  0.4092
  604MOL0     H79718   1.998   3.942   7.031  1.2777  1.9624  0.4353
  604MOL0     H79719   1.862   3.981   6.944  0.3405  0.1397 -0.9934
  604MOL0     H79720   1.969   4.133   7.152  0.4464 -0.1330 -0.4877
  604MOL0     H79721   2.045   4.210   7.015 -1.2721  1.1438  0.2694
  604MOL0     H79722   1.834   4.257   6.916  0.0031 -0.0002 -0.2491
  604MOL0     H79723   1.841   4.323   7.096 -2.6485  1.2307 -0.6214
  604MOL0     H79724   1.661   4.117   6.965 -1.5185 -1.1083  0.9363
  604MOL0     H79725   1.714   4.107   7.141  0.0485 -1.4620 -1.0210
  604MOL0     H79726   1.423   4.428   7.092 -0.9619  0.0762 -0.0133
  604MOL0     H79727   1.996   4.258   6.725 -2.7253  4.9408 -3.7625
  604MOL0     H79728   1.843   4.284   6.511 -1.1627  0.6477  1.9705
  605MOL0     O79729   0.314   4.477   1.943 -0.0661 -0.5601 -0.3532
  605MOL0     C79730   0.309   4.480   1.819 -0.9052  0.0945 -0.4386
  605MOL0     O79731   0.375   4.395   1.731  0.5945 -0.9136 -0.0401
  605MOL0     C79732   0.445   4.292   1.789 -0.3835 -0.9654  0.2600
  605MOL0     C79733   0.380   4.169   1.805 -0.8891  0.7510 -1.2301
  605MOL0     C79734   0.457   4.058   1.864  0.5975 -0.6089 -0.1194
  605MOL0     C79735   0.591   4.069   1.889 -0.2360 -0.1831 -0.8212
  605MOL0     O79736   0.657   3.952   1.924  0.0711  0.2847 -0.1199
  605MOL0     C79737   0.800   3.924   1.934 -1.0378  0.0849  0.0776
  605MOL0     C79738   0.834   3.836   1.811  0.2058  0.1558  0.7603
  605MOL0     C79739   0.945   3.739   1.824 -0.0022  0.3352  0.9320
  605MOL0     C79740   0.941   3.627   1.723 -0.2638  0.7883  0.4623
  605MOL0     C79741   0.950   3.659   1.574  0.7879 -0.3647  0.0318
  605MOL0     C79742   0.951   3.535   1.478 -1.4118  0.6152  0.1831
  605MOL0     C79743   0.810   3.466   1.451 -0.1058  0.1503 -0.0953
  605MOL0     C79744   0.807   3.366   1.328  0.1180  0.0778 -0.1948
  605MOL0     N79745   0.750   3.421   1.208  0.2249  0.2212 -0.4665
  605MOL0     C79746   0.799   3.530   1.148 -1.0914  0.4983  0.2605
  605MOL0     C79747   0.806   3.511   1.018  0.3217  0.5397 -0.3370
  605MOL0     C79748   0.859   3.615   0.912 -1.0825  0.2813 -0.7959
  605MOL0     C79749   0.842   3.568   0.768 -0.0981  0.2951 -0.5017
  605MOL0     C79750   0.938   3.636   0.680  0.5760  0.5780  0.0261
  605MOL0     C79751   0.914   3.600   0.541 -0.2325 -0.0204 -0.4026
  605MOL0     O79752   0.943   3.469   0.502 -0.1049  0.1984  0.4398
  605MOL0     C79753   1.061   3.412   0.532 -0.1512 -0.6086  0.3032
  605MOL0     C79754   1.183   3.479   0.554  0.3113  0.0703 -0.3763
  605MOL0     C79755   1.292   3.401   0.597  0.9844 -0.4833  0.1054
  605MOL0     C79756   1.291   3.256   0.616  1.1678 -0.4182 -0.3127
  605MOL0     C79757   1.400   3.173   0.659  0.6387 -0.9147  0.3252
  605MOL0     O79758   1.372   3.059   0.714  0.6507 -0.5620 -0.3871
  605MOL0     C79759   1.460   2.960   0.736 -0.0047 -1.1895 -0.3349
  605MOL0     C79760   1.455   2.854   0.644 -0.5455 -0.7567 -0.0059
  605MOL0     C79761   1.548   2.748   0.665  0.2765 -0.3644  0.2028
  605MOL0     C79762   1.655   2.763   0.764  0.0270  0.2628  0.1925
  605MOL0     O79763   1.757   2.674   0.770 -0.7024  0.2548  0.7727
  605MOL0     C79764   1.840   2.682   0.644  0.6300  0.3990  0.0766
  605MOL0     C79765   1.811   2.561   0.553 -0.4625  0.6748  0.1667
  605MOL0     C79766   1.848   2.425   0.620  0.3486  0.5103 -0.5273
  605MOL0     C79767   1.994   2.413   0.640  0.4744 -0.4690 -0.1031
  605MOL0     C79768   2.025   2.257   0.637  0.2557  0.6591 -0.1291
  605MOL0     C79769   2.172   2.246   0.672 -0.7195 -0.6180 -0.5089
  605MOL0     C79770   2.219   2.102   0.703  0.0055  0.2493 -0.5011
  605MOL0     C79771   2.379   2.066   0.717 -0.6183 -0.5417  0.0869
  605MOL0    Cl79772   2.406   1.889   0.687  0.5717 -0.0433  0.3925
  605MOL0     C79773   1.656   2.866   0.847  0.1095 -0.1509 -0.3443
  605MOL0     C79774   1.551   2.957   0.844  0.0671  0.6217 -0.0118
  605MOL0     O79775   1.519   3.214   0.643  0.5384 -0.1623  0.3188
  605MOL0     C79776   1.168   3.200   0.586 -0.1162  0.5287 -0.4601
  605MOL0     C79777   1.065   3.275   0.531  0.2350 -0.1791  0.3141
  605MOL0     N79778   0.730   3.395   0.994 -0.4997 -0.3481 -0.7326
  605MOL0     N79779   0.712   3.337   1.108  0.2682  0.2733 -0.2895
  605MOL0     C79780   0.650   4.198   1.864 -0.3476  0.0893 -0.0390
  605MOL0     C79781   0.574   4.313   1.837  0.0031 -0.2526  0.2956
  605MOL0     C79782   0.241   4.598   1.762 -0.8149  0.4970  0.0594
  605MOL0     C79783   0.209   4.611   1.626 -0.4242  0.3072 -0.2492
  605MOL0     C79784   0.153   4.728   1.575  0.7220  0.5142 -0.8672
  605MOL0     C79785   0.117   4.831   1.662 -0.2511 -0.9388 -0.7761
  605MOL0     O79786   0.080   4.962   1.624 -0.2316  0.4705  1.2857
  605MOL0     C79787   0.162   5.020   1.526 -1.0055 -0.4659 -0.1336
  605MOL0     C79788   0.096   5.122   1.432  0.1101 -0.1817  0.6351
  605MOL0     C79789  -0.007   5.039   1.350 -0.2240  0.1642  0.8073
  605MOL0     C79790  -0.107   5.132   1.277 -0.4339  0.0723 -0.0081
  605MOL0     C79791  -0.037   5.233   1.191 -0.0269 -0.6986  0.0350
  605MOL0     C79792   0.036   5.299   1.111 -0.0712 -0.0756  0.3728
  605MOL0     C79793   0.126   4.809   1.796 -0.0976 -0.0413 -0.4995
  605MOL0     C79794   0.191   4.694   1.853  0.1611 -0.5812  0.2821
  605MOL0     H79795   0.279   4.162   1.767 -1.4123  2.7609 -0.3576
  605MOL0     H79796   0.418   3.957   1.875  0.4294 -0.6365 -0.8751
  605MOL0     H79797   0.791   3.856   2.019 -1.6257 -0.4045 -0.3612
  605MOL0     H79798   0.880   3.998   1.938  1.3517 -1.9153 -4.1285
  605MOL0     H79799   0.851   3.905   1.728  2.4972 -0.3918  0.7207
  605MOL0     H79800   0.742   3.778   1.796  1.1289 -0.6381 -2.4227
  605MOL0     H79801   0.932   3.692   1.922  0.3644  0.2191  0.9254
  605MOL0     H79802   1.043   3.786   1.811 -1.4931  3.2760 -0.6114
  605MOL0     H79803   1.026   3.566   1.757 -1.3637 -0.3512  1.2498
  605MOL0     H79804   0.855   3.561   1.734  1.1566 -1.2905 -0.1302
  605MOL0     H79805   1.033   3.725   1.547 -2.4435  3.2027 -2.2890
  605MOL0     H79806   0.869   3.729   1.551  2.2126  1.6103  0.7523
  605MOL0     H79807   1.028   3.474   1.527  0.2604  0.9538 -1.8938
  605MOL0     H79808   0.992   3.565   1.381 -1.1903 -0.1141  0.0458
  605MOL0     H79809   0.782   3.409   1.540  2.9056 -1.3097  0.0226
  605MOL0     H79810   0.746   3.555   1.442  0.9177  0.9324  0.2007
  605MOL0     H79811   0.747   3.277   1.349  3.5746 -2.8086 -1.5372
  605MOL0     H79812   0.904   3.321   1.303 -0.7901 -1.4995 -1.0184
  605MOL0     H79813   0.848   3.618   1.189  4.9421 -2.7478  1.2402
  605MOL0     H79814   0.966   3.632   0.922 -0.9977 -1.4665  2.6755
  605MOL0     H79815   0.817   3.711   0.943  0.4385  0.4942  0.7081
  605MOL0     H79816   0.737   3.572   0.739 -0.5906  3.6843  1.3110
  605MOL0     H79817   0.858   3.459   0.766  2.7489  0.6212  0.3547
  605MOL0     H79818   0.924   3.745   0.682  1.6353  0.7182  0.4219
  605MOL0     H79819   1.038   3.603   0.711 -0.0526 -0.5252  0.9366
  605MOL0     H79820   0.977   3.667   0.481  2.7737 -1.9086  0.4469
  605MOL0     H79821   0.812   3.632   0.517  0.8004  2.8304 -1.5171
  605MOL0     H79822   1.196   3.587   0.549 -0.6651  0.5034  3.5203
  605MOL0     H79823   1.380   3.463   0.613 -0.2811  1.2226  0.8050
  605MOL0     H79824   1.385   2.847   0.561  2.1125  0.4237 -2.5338
  605MOL0     H79825   1.559   2.662   0.599 -0.8162 -0.9503  0.7563
  605MOL0     H79826   1.945   2.700   0.669  0.0339  4.6506  0.2307
  605MOL0     H79827   1.831   2.778   0.593 -0.6373 -0.0221 -0.5213
  605MOL0     H79828   1.864   2.576   0.458 -0.4158 -0.5831 -0.0337
  605MOL0     H79829   1.712   2.555   0.508  0.1125 -4.1482 -1.0819
  605MOL0     H79830   1.807   2.347   0.555  1.9390 -1.8214  1.1211
  605MOL0     H79831   1.799   2.411   0.716 -4.8262 -0.1477 -2.9520
  605MOL0     H79832   2.047   2.460   0.557  0.3358  0.0876  0.1170
  605MOL0     H79833   2.036   2.447   0.735  2.3141 -1.5832 -0.4577
  605MOL0     H79834   2.008   2.218   0.537 -1.0984 -1.0336  0.7056
  605MOL0     H79835   1.974   2.192   0.709  0.0588 -0.5389 -1.3274
  605MOL0     H79836   2.193   2.304   0.763  2.5136 -0.8595 -0.9789
  605MOL0     H79837   2.238   2.277   0.590 -0.0145  0.2592  0.3622
  605MOL0     H79838   2.184   2.066   0.800 -0.3924  0.1081 -0.6963
  605MOL0     H79839   2.166   2.035   0.635  0.1478 -1.3637  0.9038
  605MOL0     H79840   2.430   2.091   0.810  0.0485 -1.4101 -0.0292
  605MOL0     H79841   2.434   2.118   0.638  0.3238  1.1910  1.7881
  605MOL0     H79842   1.734   2.865   0.923  1.9872  0.2915 -2.1775
  605MOL0     H79843   1.540   3.037   0.916 -1.6071  0.6334 -0.2288
  605MOL0     H79844   1.163   3.093   0.601 -2.0928  0.9588  2.9885
  605MOL0     H79845   0.977   3.217   0.505 -1.7697  0.4815  4.6267
  605MOL0     H79846   0.757   4.208   1.876 -0.5322  1.2644  0.7052
  605MOL0     H79847   0.618   4.411   1.830 -0.8364  0.0765 -0.6391
  605MOL0     H79848   0.249   4.536   1.559 -2.3796 -1.4925  0.4694
  605MOL0     H79849   0.138   4.724   1.467  1.3242  0.6761 -0.9618
  605MOL0     H79850   0.212   4.945   1.464 -0.7444 -0.8672  0.5475
  605MOL0     H79851   0.250   5.063   1.573  0.1098 -0.9201 -1.7333
  605MOL0     H79852   0.036   5.196   1.484 -0.5308 -0.4864  0.3402
  605MOL0     H79853   0.169   5.166   1.363 -0.5846  0.8007  0.5160
  605MOL0     H79854  -0.074   4.991   1.422  0.6319  0.3072  1.7253
  605MOL0     H79855   0.037   4.969   1.279  1.1721  1.9568 -0.1940
  605MOL0     H79856  -0.175   5.074   1.215  1.2239 -0.0664 -1.8138
  605MOL0     H79857  -0.166   5.184   1.352 -0.2619  0.1337  0.0862
  605MOL0     H79858   0.102   5.343   1.038 -0.3470 -0.7970 -0.3246
  605MOL0     H79859   0.081   4.877   1.868 -1.1641 -2.3361  1.1470
  605MOL0     H79860   0.201   4.686   1.961  3.9696  0.6956  0.1756
  606MOL0     O79861   2.867   9.407   3.434  0.0793 -0.6120 -0.8168
  606MOL0     C79862   2.798   9.314   3.443  0.3741  0.4509  1.1637
  606MOL0     O79863   2.745   9.251   3.332  0.3633 -0.1709 -0.1693
  606MOL0     C79864   2.725   9.333   3.218  0.4507  0.0953 -0.0347
  606MOL0     C79865   2.624   9.428   3.214  1.3197  0.1656 -0.4169
  606MOL0     C79866   2.589   9.492   3.100  1.0199  0.2274  0.4421
  606MOL0     C79867   2.650   9.463   2.982 -0.2351  1.1109  0.4576
  606MOL0     O79868   2.621   9.544   2.873 -0.1982 -0.9547  0.5863
  606MOL0     C79869   2.730   9.617   2.802 -1.1775  1.3094 -1.1581
  606MOL0     C79870   2.683   9.734   2.715 -0.1971 -0.6543 -0.3772
  606MOL0     C79871   2.593   9.706   2.591  0.1746 -0.5318 -0.1861
  606MOL0     C79872   2.678   9.658   2.468  0.8193  0.0618 -0.1813
  606MOL0     C79873   2.599   9.661   2.344  0.6941  0.5329 -0.1833
  606MOL0     C79874   2.689   9.641   2.231 -0.9901  0.7452  0.9250
  606MOL0     C79875   2.617   9.660   2.097 -0.4724 -0.7771 -0.3184
  606MOL0     C79876   2.486   9.575   2.083 -0.0580 -0.2147 -0.6968
  606MOL0     N79877   2.455   9.575   1.941  0.0334  0.6283  0.4213
  606MOL0     C79878   2.447   9.466   1.864 -0.0763  0.1849 -0.0108
  606MOL0     C79879   2.426   9.510   1.734 -1.1245  0.9264  0.1107
  606MOL0     C79880   2.433   9.430   1.611  1.0046 -0.2165 -0.9330
  606MOL0     C79881   2.522   9.492   1.501 -0.0300 -0.1916  0.2265
  606MOL0     C79882   2.667   9.497   1.551 -0.4376 -0.0387 -0.7171
  606MOL0     C79883   2.763   9.555   1.445  0.1042  0.3939  0.7172
  606MOL0     O79884   2.736   9.681   1.386  0.1857 -0.6891  0.0694
  606MOL0     C79885   2.833   9.741   1.317 -0.9562 -0.3157 -0.2833
  606MOL0     C79886   2.960   9.682   1.300 -0.4416 -0.4631 -0.3057
  606MOL0     C79887   3.075   9.759   1.264  0.0602  0.4655 -0.1922
  606MOL0     C79888   3.065   9.891   1.227  0.2914 -0.7192  0.5053
  606MOL0     C79889   3.181   9.973   1.193  0.5342 -0.2875 -0.0501
  606MOL0     O79890   3.290   9.912   1.152  0.3340 -0.4579 -0.6266
  606MOL0     C79891   3.396   9.974   1.091 -0.6483 -0.0880 -0.0982
  606MOL0     C79892   3.376  10.068   0.984  0.2097 -0.7047  0.4151
  606MOL0     C79893   3.497  10.137   0.937 -0.1631 -0.1705 -1.0823
  606MOL0     C79894   3.625  10.099   0.972 -0.0592  1.0161 -0.9717
  606MOL0     O79895   3.741  10.153   0.920 -0.3866 -0.2191  0.7877
  606MOL0     C79896   3.727  10.212   0.786  0.3250  0.1027  1.1152
  606MOL0     C79897   3.861  10.287   0.741  0.3880  0.6171  0.0571
  606MOL0     C79898   3.861  10.431   0.806  0.1573  0.1137 -0.1371
  606MOL0     C79899   3.988  10.514   0.785 -1.0328 -0.1652  0.4690
  606MOL0     C79900   3.969  10.666   0.806  0.0770  0.4880 -0.0847
  606MOL0     C79901   4.100  10.750   0.797  0.5023 -0.2277  0.5229
  606MOL0     C79902   4.088  10.903   0.781 -1.1128  0.2477  0.6456
  606MOL0     C79903   4.024  10.966   0.900  0.1343  0.0883  1.1758
  606MOL0    Cl79904   4.130  10.977   1.034  0.1005 -0.0696  0.1390
  606MOL0     C79905   3.635  10.002   1.085  0.1538 -0.8950  0.3327
  606MOL0     C79906   3.527   9.938   1.136  0.1064 -0.4371  0.5802
  606MOL0     O79907   3.183  10.092   1.225  0.2696  0.9270 -0.0354
  606MOL0     C79908   2.941   9.954   1.235 -0.4758 -0.7382 -1.0080
  606MOL0     C79909   2.831   9.875   1.288 -0.6094  0.0808  0.7912
  606MOL0     N79910   2.409   9.642   1.744  1.7288 -0.2218 -0.2346
  606MOL0     N79911   2.424   9.679   1.863 -0.2091  0.0287 -0.7299
  606MOL0     C79912   2.759   9.368   2.980  0.2852 -0.3589 -0.9300
  606MOL0     C79913   2.803   9.316   3.100 -0.7660 -0.3498  0.8318
  606MOL0     C79914   2.777   9.259   3.581 -0.2883  0.5983 -0.2133
  606MOL0     C79915   2.888   9.268   3.667  0.4091  0.4692  0.8941
  606MOL0     C79916   2.871   9.245   3.805 -0.9561  0.3236  0.4211
  606MOL0     C79917   2.748   9.206   3.854  0.3633  0.1271 -0.7701
  606MOL0     O79918   2.733   9.183   3.990  0.1772 -0.0705  0.1109
  606MOL0     C79919   2.664   9.297   4.044 -0.0380  0.6918 -0.1556
  606MOL0     C79920   2.708   9.290   4.193  0.4406  0.8508  0.6760
  606MOL0     C79921   2.859   9.332   4.210  0.5461 -0.6601 -0.1537
  606MOL0     C79922   2.890   9.324   4.353 -0.8807  0.0253 -0.3336
  606MOL0     C79923   3.007   9.402   4.391 -0.4191 -0.2877  1.7096
  606MOL0     C79924   3.113   9.454   4.412  0.0274  0.0662  0.1704
  606MOL0     C79925   2.632   9.202   3.769 -1.1050 -0.1110  0.1203
  606MOL0     C79926   2.646   9.216   3.636  0.2844 -0.1745  0.4232
  606MOL0     H79927   2.563   9.442   3.302  1.8560  4.1966 -0.5131
  606MOL0     H79928   2.507   9.563   3.098  1.3099  0.5594  0.2429
  606MOL0     H79929   2.784   9.551   2.733 -2.1303 -2.0797  1.0877
  606MOL0     H79930   2.803   9.644   2.879 -1.4195 -1.4669  0.1844
  606MOL0     H79931   2.773   9.776   2.670 -1.0146 -1.5156 -2.9834
  606MOL0     H79932   2.630   9.804   2.781 -2.6221 -2.3061 -0.4325
  606MOL0     H79933   2.547   9.801   2.562 -1.1000 -1.0041  0.2251
  606MOL0     H79934   2.521   9.628   2.618  0.3813 -1.3520 -1.8685
  606MOL0     H79935   2.768   9.718   2.454  0.7150 -0.3760 -3.2701
  606MOL0     H79936   2.717   9.564   2.509  1.6549  0.7622  0.6942
  606MOL0     H79937   2.549   9.758   2.336  0.8563  0.9068  2.3893
  606MOL0     H79938   2.536   9.572   2.334 -0.8947  1.7291 -1.3924
  606MOL0     H79939   2.730   9.539   2.233  2.4261  1.9858  0.1798
  606MOL0     H79940   2.773   9.710   2.237 -2.5570  3.1764 -2.1935
  606MOL0     H79941   2.591   9.762   2.067 -2.7117 -1.7532 -1.9960
  606MOL0     H79942   2.690   9.628   2.022 -0.3753 -0.0683 -0.5353
  606MOL0     H79943   2.395   9.616   2.126 -1.2253 -3.6199  0.4153
  606MOL0     H79944   2.510   9.476   2.122  2.4190  1.4938  2.6162
  606MOL0     H79945   2.478   9.363   1.881 -2.3647 -0.7975 -1.2780
  606MOL0     H79946   2.331   9.442   1.574 -0.1017  1.2943  2.2513
  606MOL0     H79947   2.442   9.322   1.627 -0.3842  0.0010  1.6638
  606MOL0     H79948   2.492   9.595   1.477 -0.1935 -0.2112  0.3514
  606MOL0     H79949   2.510   9.437   1.407  0.4504  1.0447 -0.6005
  606MOL0     H79950   2.674   9.560   1.641 -2.6594 -0.2093 -0.3658
  606MOL0     H79951   2.690   9.395   1.581 -0.9321  0.0373 -0.0362
  606MOL0     H79952   2.782   9.480   1.367  1.1588  1.6685 -0.2799
  606MOL0     H79953   2.851   9.565   1.508 -0.1237  3.0767  0.7342
  606MOL0     H79954   2.971   9.582   1.341  0.6613 -0.1918  0.1154
  606MOL0     H79955   3.170   9.705   1.263 -0.4024 -0.9523  4.6683
  606MOL0     H79956   3.282  10.091   0.935 -0.3497 -1.0696  1.2935
  606MOL0     H79957   3.472  10.201   0.853  1.0803  0.8198 -0.7279
  606MOL0     H79958   3.638  10.274   0.778  1.4376  1.5189 -1.6410
  606MOL0     H79959   3.715  10.139   0.706 -0.4296  0.1910  1.1461
  606MOL0     H79960   3.871  10.292   0.633  1.7822 -1.0431  0.0566
  606MOL0     H79961   3.932  10.222   0.794 -3.6279 -1.3380  3.7432
  606MOL0     H79962   3.831  10.408   0.908  1.5624 -1.2811  0.0033
  606MOL0     H79963   3.778  10.490   0.766 -0.6497  1.8254  3.6095
  606MOL0     H79964   4.069  10.474   0.848  0.9360 -0.5537 -2.1451
  606MOL0     H79965   4.027  10.491   0.686 -0.3465 -0.9441  0.8973
  606MOL0     H79966   3.925  10.677   0.906 -2.6833  0.6278 -1.2115
  606MOL0     H79967   3.893  10.703   0.736 -0.3210 -1.6390 -0.8584
  606MOL0     H79968   4.165  10.711   0.718  0.4236 -0.0371  0.3651
  606MOL0     H79969   4.139  10.731   0.898  0.3602  2.2255  1.0883
  606MOL0     H79970   4.191  10.941   0.779 -0.3327 -1.7290 -1.2028
  606MOL0     H79971   4.027  10.923   0.693  1.0117 -1.7883 -1.4093
  606MOL0     H79972   3.937  10.908   0.931  0.9108 -1.1853  1.0235
  606MOL0     H79973   3.986  11.065   0.872 -0.1005 -0.7689 -1.8897
  606MOL0     H79974   3.729   9.986   1.137  1.6824 -0.4252 -2.1488
  606MOL0     H79975   3.547   9.850   1.195 -1.0098  0.7551  2.8532
  606MOL0     H79976   2.927  10.060   1.217  1.7595  0.1400  1.7464
  606MOL0     H79977   2.747   9.937   1.318  0.1545  1.0666  0.9525
  606MOL0     H79978   2.803   9.342   2.884  0.1117 -3.0384 -0.3634
  606MOL0     H79979   2.876   9.239   3.123 -1.1755 -0.3554  2.2439
  606MOL0     H79980   2.989   9.284   3.632  0.5974  0.3363  1.3697
  606MOL0     H79981   2.952   9.270   3.874 -1.2422  4.3325 -0.4126
  606MOL0     H79982   2.557   9.279   4.027  0.6724 -4.4089 -0.7137
  606MOL0     H79983   2.693   9.390   3.994 -1.3029  0.8417 -0.6646
  606MOL0     H79984   2.633   9.352   4.243 -0.0580  0.5753  0.2739
  606MOL0     H79985   2.688   9.188   4.226 -3.4778  1.5523  0.8904
  606MOL0     H79986   2.866   9.435   4.174  3.2721 -0.6616  0.2153
  606MOL0     H79987   2.916   9.273   4.138 -2.1288  0.9270 -3.8790
  606MOL0     H79988   2.810   9.366   4.414  0.5839  0.1931  1.5927
  606MOL0     H79989   2.903   9.221   4.387 -1.5613  0.1009  0.1612
  606MOL0     H79990   3.197   9.507   4.451  0.6233 -0.3249 -0.5469
  606MOL0     H79991   2.536   9.182   3.817 -1.1149  1.2431  0.7096
  606MOL0     H79992   2.558   9.213   3.573 -2.3316  1.6301  3.6382
  607MOL0     O79993  11.379   8.041   2.812 -0.1040 -0.2802 -0.9565
  607MOL0     C79994  11.439   7.981   2.719  0.0385  0.4286  0.3208
  607MOL0     O79995  11.446   8.030   2.587  0.3936 -0.1338 -0.2171
  607MOL0     C79996  11.360   8.131   2.543  0.6667  0.0039 -0.3252
  607MOL0     C79997  11.229   8.167   2.588  0.2312  0.1264 -0.0938
  607MOL0     C79998  11.138   8.244   2.518 -0.2659 -0.1381  1.3350
  607MOL0     C79999  11.187   8.284   2.389  0.2905 -0.0835 -0.0212
  607MOL0     O80000  11.119   8.360   2.307  0.0504 -0.5283 -0.1759
  607MOL0     C80001  11.076   8.489   2.373 -0.4126 -0.0219  0.1043
  607MOL0     C80002  11.072   8.601   2.273  0.4411  0.2016  0.6898
  607MOL0     C80003  11.204   8.644   2.226  0.8094 -0.1537 -0.3302
  607MOL0     C80004  11.185   8.772   2.152  0.1359 -1.3282 -0.6236
  607MOL0     C80005  11.122   8.891   2.223 -0.2695  0.0779 -0.0036
  607MOL0     C80006  11.150   9.013   2.138  0.6853  0.5862  0.7777
  607MOL0     C80007  11.084   9.135   2.193 -1.2810 -0.1274 -0.3722
  607MOL0     C80008  11.121   9.260   2.112 -0.2901  0.4231  1.0938
  607MOL0     N80009  11.257   9.307   2.145 -0.3237  0.5706  0.3956
  607MOL0     C80010  11.292   9.374   2.260  0.6213  0.1933  0.8809
  607MOL0     C80011  11.411   9.437   2.238  0.6727  0.4382 -0.0891
  607MOL0     C80012  11.495   9.516   2.336 -0.7841 -0.0513  0.0614
  607MOL0     C80013  11.430   9.646   2.387  0.1423 -0.3841  0.1073
  607MOL0     C80014  11.516   9.770   2.349 -0.0434  0.3435  0.4428
  607MOL0     C80015  11.528   9.781   2.201 -0.6993 -0.9287  0.3481
  607MOL0     O80016  11.406   9.850   2.143  0.9773 -0.9171  0.0764
  607MOL0     C80017  11.309   9.765   2.081  0.0967  0.0798 -0.0253
  607MOL0     C80018  11.176   9.769   2.133 -1.0690  0.6257 -0.5377
  607MOL0     C80019  11.077   9.684   2.087 -1.0098  0.4676 -0.4363
  607MOL0     C80020  11.096   9.613   1.977 -0.2144 -1.5600  0.1833
  607MOL0     C80021  10.990   9.534   1.922  1.5620  0.1424  0.4132
  607MOL0     O80022  10.875   9.522   1.995  0.6027  0.6732 -0.5776
  607MOL0     C80023  10.765   9.454   1.939 -1.5171 -0.3459 -0.4280
  607MOL0     C80024  10.733   9.322   1.974 -0.4805 -0.7091  0.6050
  607MOL0     C80025  10.644   9.257   1.896 -0.4138  0.3947  0.4233
  607MOL0     C80026  10.572   9.318   1.807  0.2664  0.4066  0.2650
  607MOL0     O80027  10.460   9.261   1.758 -0.2535  0.7233  0.3355
  607MOL0     C80028  10.479   9.118   1.711  0.4540 -0.1086  0.2128
  607MOL0     C80029  10.451   9.101   1.562  0.1228 -1.8375  0.1018
  607MOL0     C80030  10.422   8.968   1.509 -0.6940  0.8347  0.4294
  607MOL0     C80031  10.531   8.866   1.540 -0.0125  0.5186 -0.2808
  607MOL0     C80032  10.501   8.734   1.482  0.5669  0.5816  0.9106
  607MOL0     C80033  10.482   8.727   1.324 -1.0004 -0.9045 -0.3016
  607MOL0     C80034  10.614   8.772   1.252 -0.3509 -0.2418  0.7336
  607MOL0     C80035  10.612   8.724   1.109 -0.3118  0.9788  0.2482
  607MOL0    Cl80036  10.707   8.565   1.108  0.1021  0.3289 -0.3853
  607MOL0     C80037  10.586   9.454   1.784 -0.0596  0.6079 -0.2660
  607MOL0     C80038  10.688   9.519   1.845  0.1448 -0.0167  0.8438
  607MOL0     O80039  11.018   9.474   1.815  0.1592  0.0971  0.1717
  607MOL0     C80040  11.226   9.622   1.914 -0.6443  0.1957  0.4397
  607MOL0     C80041  11.333   9.691   1.973  1.3209 -0.4404  0.2236
  607MOL0     N80042  11.441   9.401   2.114  0.4151 -0.5991 -0.4713
  607MOL0     N80043  11.354   9.320   2.053  0.5459 -0.4413 -0.5402
  607MOL0     C80044  11.319   8.256   2.338  0.1063  0.3027 -0.6956
  607MOL0     C80045  11.397   8.168   2.412  0.1450  1.1706  0.0764
  607MOL0     C80046  11.513   7.864   2.758  0.1614 -0.4021  0.1948
  607MOL0     C80047  11.625   7.831   2.687 -0.4431  0.0483  0.6329
  607MOL0     C80048  11.708   7.729   2.731  0.4025  1.1371 -0.5202
  607MOL0     C80049  11.673   7.645   2.836  0.3193 -0.2259  0.0127
  607MOL0     O80050  11.752   7.548   2.870 -0.9975  0.4448  0.5428
  607MOL0     C80051  11.763   7.510   3.006  0.7279  0.9852 -0.4420
  607MOL0     C80052  11.866   7.397   3.024 -0.3160 -0.3730  0.1027
  607MOL0     C80053  11.870   7.324   3.153  0.2851  0.3832  0.9187
  607MOL0     C80054  11.961   7.395   3.253 -0.4216  0.7619 -0.4024
  607MOL0     C80055  12.031   7.288   3.326 -0.6186  0.3967 -0.6819
  607MOL0     C80056  12.101   7.207   3.385 -1.0982 -0.0359  0.0144
  607MOL0     C80057  11.559   7.666   2.899 -0.0969 -0.4796 -0.4637
  607MOL0     C80058  11.480   7.778   2.862 -0.0505 -0.6191  0.1121
  607MOL0     H80059  11.196   8.126   2.683 -2.6838 -2.7072 -2.1069
  607MOL0     H80060  11.043   8.281   2.557  1.1584  2.2205  2.8193
  607MOL0     H80061  11.144   8.515   2.454  1.8178 -2.5307 -0.8412
  607MOL0     H80062  10.974   8.474   2.411  0.1885 -0.3772  1.6500
  607MOL0     H80063  11.017   8.677   2.329  0.5005 -0.0844  1.1412
  607MOL0     H80064  11.014   8.570   2.185  0.4095  1.6831  0.1501
  607MOL0     H80065  11.265   8.578   2.163  2.3806  1.4773 -0.6006
  607MOL0     H80066  11.258   8.656   2.321 -0.6566 -2.7347  0.9397
  607MOL0     H80067  11.285   8.810   2.129 -1.0028  1.0688 -2.1132
  607MOL0     H80068  11.137   8.753   2.056  1.9584  2.2210 -2.4350
  607MOL0     H80069  11.152   8.910   2.327 -1.6049 -3.2915  1.1444
  607MOL0     H80070  11.017   8.868   2.239  0.0607 -1.1819  0.5322
  607MOL0     H80071  11.123   9.006   2.033  4.5246  0.8890 -0.3829
  607MOL0     H80072  11.257   9.034   2.143  0.7404  0.8967 -1.0195
  607MOL0     H80073  10.975   9.125   2.194 -1.1664 -1.4903 -0.2535
  607MOL0     H80074  11.114   9.158   2.295  0.6707  0.8770 -1.1032
  607MOL0     H80075  11.046   9.335   2.139 -1.6191 -0.2952 -0.4487
  607MOL0     H80076  11.110   9.261   2.003  3.2685  1.3725  0.5991
  607MOL0     H80077  11.223   9.388   2.342 -2.7801 -0.4630 -1.6654
  607MOL0     H80078  11.600   9.526   2.306 -1.0022  0.6460 -0.4851
  607MOL0     H80079  11.501   9.455   2.426 -2.9031  1.7668  1.5460
  607MOL0     H80080  11.423   9.634   2.495  0.7748 -1.4772  0.0435
  607MOL0     H80081  11.325   9.647   2.357  0.3317 -3.1150 -1.0368
  607MOL0     H80082  11.486   9.863   2.399 -0.6595  0.8346 -0.7894
  607MOL0     H80083  11.617   9.741   2.377  1.2936  2.3651 -1.8801
  607MOL0     H80084  11.558   9.683   2.164 -1.5053 -1.0764  0.0561
  607MOL0     H80085  11.616   9.843   2.179 -1.7330  0.3372 -0.4098
  607MOL0     H80086  11.162   9.829   2.223  1.0952 -1.1330  1.0700
  607MOL0     H80087  10.989   9.682   2.151 -1.3393 -0.1707 -0.8949
  607MOL0     H80088  10.797   9.276   2.049  0.5431 -0.2477  0.0252
  607MOL0     H80089  10.624   9.152   1.918  1.9963 -0.2814 -0.2194
  607MOL0     H80090  10.398   9.066   1.762 -2.6915  1.2128 -3.0557
  607MOL0     H80091  10.580   9.083   1.734 -0.7606 -1.9859  3.3957
  607MOL0     H80092  10.535   9.150   1.511 -0.0325 -1.2333  0.4109
  607MOL0     H80093  10.369   9.173   1.552  1.3133 -0.6364 -1.9191
  607MOL0     H80094  10.407   8.977   1.401  1.5176 -2.5022 -0.2762
  607MOL0     H80095  10.331   8.925   1.553 -0.7118  0.5364  0.1014
  607MOL0     H80096  10.631   8.897   1.509  0.5316  1.2825  2.0065
  607MOL0     H80097  10.533   8.853   1.649  1.7474  0.0045 -0.3430
  607MOL0     H80098  10.416   8.685   1.532 -2.2114  4.9090  0.9338
  607MOL0     H80099  10.579   8.660   1.502 -2.9628 -3.6174  0.7251
  607MOL0     H80100  10.411   8.806   1.298  2.5667  2.6453 -0.2575
  607MOL0     H80101  10.444   8.626   1.309  1.5078 -2.0922  0.7364
  607MOL0     H80102  10.607   8.881   1.260 -0.2400 -0.2024  0.3063
  607MOL0     H80103  10.690   8.725   1.316  1.0043  0.7483 -0.1028
  607MOL0     H80104  10.658   8.802   1.049  4.2934 -0.6282  1.3212
  607MOL0     H80105  10.515   8.691   1.071  0.6504 -1.5580 -0.2160
  607MOL0     H80106  10.531   9.518   1.716  0.7655  2.2925  0.5895
  607MOL0     H80107  10.714   9.621   1.816  3.4035 -1.0681 -0.3541
  607MOL0     H80108  11.244   9.559   1.828  1.1851 -1.7860  2.1488
  607MOL0     H80109  11.430   9.684   1.924  0.9244 -3.2185 -0.3175
  607MOL0     H80110  11.341   8.311   2.247 -0.6500  2.6404  0.4512
  607MOL0     H80111  11.482   8.117   2.366 -3.1379 -2.2369 -2.9608
  607MOL0     H80112  11.668   7.887   2.605  2.2661  2.9783  3.7319
  607MOL0     H80113  11.807   7.719   2.690  0.4576  1.9615 -0.6073
  607MOL0     H80114  11.677   7.459   3.050  3.3721 -1.1828  2.7158
  607MOL0     H80115  11.793   7.598   3.065  3.3749  2.1321 -3.2511
  607MOL0     H80116  11.871   7.322   2.944 -3.1118  0.0240 -0.5691
  607MOL0     H80117  11.954   7.461   3.016  0.0302 -0.6098  1.7797
  607MOL0     H80118  11.910   7.225   3.128 -1.6869 -0.2220 -0.0586
  607MOL0     H80119  11.769   7.304   3.191  0.6731 -1.8297  0.9424
  607MOL0     H80120  12.028   7.465   3.203 -1.1521  0.9834 -1.1021
  607MOL0     H80121  11.903   7.463   3.317  0.5802  2.0678 -0.8540
  607MOL0     H80122  12.177   7.140   3.423  0.8602  0.7723 -2.2295
  607MOL0     H80123  11.533   7.598   2.980  1.2897 -0.3959  0.0814
  607MOL0     H80124  11.383   7.795   2.909 -0.9286  1.3727 -2.1877
  608MOL0     O80125   7.853   3.090   8.250 -0.5878 -0.1284 -0.1494
  608MOL0     C80126   7.945   3.099   8.168  1.1772 -0.1045  0.8890
  608MOL0     O80127   8.037   3.001   8.146 -0.8767  0.1669  0.0629
  608MOL0     C80128   8.054   2.896   8.236 -0.3735  0.6757  0.8241
  608MOL0     C80129   8.179   2.894   8.304  0.9102 -0.3679 -0.4797
  608MOL0     C80130   8.206   2.793   8.394  0.6718 -0.7557  0.5342
  608MOL0     C80131   8.111   2.698   8.416  0.1949  0.7840 -0.3770
  608MOL0     O80132   8.136   2.603   8.506  0.5012  0.2100 -1.2875
  608MOL0     C80133   8.068   2.473   8.493 -0.4703 -0.4739  0.7727
  608MOL0     C80134   8.177   2.359   8.486 -0.3753  0.0404 -0.4438
  608MOL0     C80135   8.251   2.352   8.622 -0.0384 -0.1978  0.6673
  608MOL0     C80136   8.354   2.244   8.618  0.9004 -0.6455  0.8428
  608MOL0     C80137   8.457   2.255   8.738  0.2376 -0.6462  0.0797
  608MOL0     C80138   8.575   2.153   8.734 -0.1365  0.3138  0.4915
  608MOL0     C80139   8.696   2.205   8.819  0.1848  0.1843  0.2912
  608MOL0     C80140   8.833   2.154   8.771  0.1324 -0.6843  1.2221
  608MOL0     N80141   8.939   2.168   8.866  0.3050 -0.5290 -0.0433
  608MOL0     C80142   8.989   2.290   8.929 -0.1714 -0.6899 -0.2422
  608MOL0     C80143   9.065   2.249   9.034 -0.5079  0.7020 -0.6238
  608MOL0     C80144   9.127   2.332   9.143 -0.8627 -0.1875 -0.1266
  608MOL0     C80145   9.252   2.410   9.097 -0.4598  0.2743 -0.0272
  608MOL0     C80146   9.239   2.554   9.028 -0.0990 -0.2289  0.4453
  608MOL0     C80147   9.382   2.598   8.980 -0.5487  0.5838  0.0047
  608MOL0     O80148   9.487   2.498   8.981 -0.2728 -0.2825  0.4540
  608MOL0     C80149   9.544   2.468   8.860 -1.1562 -0.9048  0.4770
  608MOL0     C80150   9.684   2.479   8.854  0.3239 -0.7523 -0.3679
  608MOL0     C80151   9.760   2.444   8.740 -0.3859 -1.5181  0.1601
  608MOL0     C80152   9.692   2.424   8.625  0.3133  0.2176  1.0529
  608MOL0     C80153   9.758   2.386   8.505  0.8488  0.7749  0.5505
  608MOL0     O80154   9.893   2.357   8.518  0.3822 -0.4073  0.1910
  608MOL0     C80155   9.957   2.334   8.398 -0.1701 -0.5729 -0.3556
  608MOL0     C80156   9.970   2.208   8.343  0.7711  0.0771  1.2630
  608MOL0     C80157  10.046   2.182   8.231 -0.0518  0.6519  0.9173
  608MOL0     C80158  10.113   2.284   8.164 -1.0573 -1.0288 -0.1323
  608MOL0     O80159  10.165   2.259   8.038  0.1730  0.1549  0.0011
  608MOL0     C80160  10.289   2.328   8.007 -0.9610  0.1042  0.8193
  608MOL0     C80161  10.297   2.363   7.858 -0.3368 -0.0662  0.9104
  608MOL0     C80162  10.300   2.240   7.762 -1.2140 -0.0893  0.3683
  608MOL0     C80163  10.270   2.274   7.618 -0.9024 -0.8194  0.1373
  608MOL0     C80164  10.254   2.147   7.541 -0.0293 -0.8134  0.2663
  608MOL0     C80165  10.248   2.176   7.389 -0.6314  0.3546 -0.3194
  608MOL0     C80166  10.228   2.048   7.299 -0.3802 -0.0984  0.8736
  608MOL0     C80167  10.192   2.104   7.157  0.2769  0.9782 -1.0770
  608MOL0    Cl80168  10.156   1.971   7.044 -0.1411 -0.0548  0.3839
  608MOL0     C80169  10.116   2.415   8.226 -0.0788  1.4116 -0.4229
  608MOL0     C80170  10.035   2.440   8.343 -0.2285  0.7516 -0.2424
  608MOL0     O80171   9.699   2.381   8.392 -0.2127  0.4593 -0.7125
  608MOL0     C80172   9.546   2.430   8.621 -0.6428 -1.4824 -0.4486
  608MOL0     C80173   9.473   2.441   8.740 -0.0986 -1.0008 -1.0501
  608MOL0     N80174   9.043   2.115   9.060 -0.5898 -0.4355 -0.4572
  608MOL0     N80175   8.972   2.071   8.957 -0.5663 -0.6207  0.4499
  608MOL0     C80176   7.984   2.707   8.355 -0.9562  0.0343 -1.1816
  608MOL0     C80177   7.956   2.802   8.259 -0.0162 -0.6028  0.2144
  608MOL0     C80178   7.974   3.226   8.097 -0.2999 -0.0393 -0.4461
  608MOL0     C80179   7.873   3.326   8.088  0.5225  1.1369 -0.4132
  608MOL0     C80180   7.887   3.431   8.000 -1.0729 -0.3082 -0.6719
  608MOL0     C80181   8.002   3.447   7.926 -0.6427 -0.3962  0.3350
  608MOL0     O80182   8.028   3.559   7.851  0.2134  0.5163  1.4485
  608MOL0     C80183   8.027   3.682   7.924 -0.5337  0.1502  0.6717
  608MOL0     C80184   8.108   3.789   7.839  0.2667  0.2854  1.3338
  608MOL0     C80185   8.033   3.813   7.708  1.4229 -0.0406 -0.0001
  608MOL0     C80186   8.090   3.936   7.613 -0.0200  0.3827 -0.5795
  608MOL0     C80187   8.198   3.881   7.529 -0.1120 -0.0935  0.8047
  608MOL0     C80188   8.258   3.836   7.440 -0.3095  0.3723  0.2839
  608MOL0     C80189   8.112   3.355   7.943  0.1899  0.3306  0.7774
  608MOL0     C80190   8.096   3.245   8.026 -0.6155  0.1883 -0.1844
  608MOL0     H80191   8.244   2.981   8.295  0.0388  0.2178 -1.3930
  608MOL0     H80192   8.299   2.764   8.443  0.0599 -2.6220  0.6804
  608MOL0     H80193   8.027   2.462   8.392  2.1541 -3.7858 -0.1092
  608MOL0     H80194   7.986   2.461   8.564 -3.0888 -0.5771 -2.0129
  608MOL0     H80195   8.249   2.367   8.404 -1.2209  2.4337 -1.0336
  608MOL0     H80196   8.119   2.267   8.474 -1.4997  0.5397  0.8371
  608MOL0     H80197   8.172   2.333   8.695 -1.3881 -2.3740 -1.2199
  608MOL0     H80198   8.296   2.444   8.659 -0.8369  0.2727  0.4934
  608MOL0     H80199   8.294   2.153   8.614 -1.8478  1.0930 -1.1833
  608MOL0     H80200   8.406   2.244   8.521 -2.9538 -2.4761 -1.4522
  608MOL0     H80201   8.404   2.236   8.832  0.2048 -0.7443  0.0415
  608MOL0     H80202   8.501   2.355   8.736  0.7157 -0.7620  2.5983
  608MOL0     H80203   8.604   2.149   8.628  0.2630  0.5225  0.5912
  608MOL0     H80204   8.539   2.053   8.760  0.3210 -1.2116 -3.8523
  608MOL0     H80205   8.693   2.314   8.820  1.4820  0.2440  1.2902
  608MOL0     H80206   8.670   2.160   8.916  1.8014 -0.6232  0.3819
  608MOL0     H80207   8.854   2.209   8.678 -1.2936  0.5793  1.6138
  608MOL0     H80208   8.823   2.051   8.735  0.4814 -0.3776  0.2189
  608MOL0     H80209   8.976   2.393   8.898  0.4238  0.4120  2.8424
  608MOL0     H80210   9.142   2.276   9.235 -0.5343  0.2819  0.1094
  608MOL0     H80211   9.047   2.403   9.166 -1.0679 -0.5621  0.3176
  608MOL0     H80212   9.297   2.355   9.014 -1.1105  3.4029 -2.6574
  608MOL0     H80213   9.332   2.411   9.171  0.6193 -1.2211 -1.1114
  608MOL0     H80214   9.181   2.549   8.935 -0.5808 -0.1983  0.7437
  608MOL0     H80215   9.191   2.629   9.090 -2.2164 -3.5217  3.1423
  608MOL0     H80216   9.410   2.668   9.060  0.6372  0.4827 -0.3109
  608MOL0     H80217   9.375   2.659   8.890  2.3724  1.2745  0.1471
  608MOL0     H80218   9.732   2.524   8.940 -0.2313  0.5776 -0.7322
  608MOL0     H80219   9.867   2.455   8.753 -0.5827 -0.3708  0.9575
  608MOL0     H80220   9.907   2.127   8.379 -0.7462  0.4722 -0.4025
  608MOL0     H80221  10.053   2.084   8.185  0.0363  1.4047 -0.7426
  608MOL0     H80222  10.378   2.271   8.036  0.5458  1.2359 -1.2833
  608MOL0     H80223  10.300   2.428   8.050  2.2361  0.0163  0.4656
  608MOL0     H80224  10.388   2.418   7.832 -1.2441  1.0347 -0.0486
  608MOL0     H80225  10.205   2.419   7.839  0.4169  0.9620  0.1859
  608MOL0     H80226  10.225   2.170   7.800 -0.6385 -0.0628  1.5989
  608MOL0     H80227  10.390   2.178   7.762 -1.9942 -1.2654 -0.4985
  608MOL0     H80228  10.177   2.330   7.612 -1.9636 -2.6017 -1.2721
  608MOL0     H80229  10.345   2.336   7.567 -1.1679 -1.7876 -1.5093
  608MOL0     H80230  10.164   2.091   7.567 -2.0019  0.6377 -2.8726
  608MOL0     H80231  10.338   2.078   7.558  0.4357 -0.8014 -1.7317
  608MOL0     H80232  10.344   2.222   7.365 -1.3347  0.7908 -2.5381
  608MOL0     H80233  10.171   2.250   7.367  1.3729  2.7801  0.4399
  608MOL0     H80234  10.321   1.990   7.293 -0.2810  0.1086  0.2969
  608MOL0     H80235  10.148   1.982   7.333 -0.2633  0.4634  2.3272
  608MOL0     H80236  10.289   2.135   7.118  3.0386 -3.5118  1.4478
  608MOL0     H80237  10.111   2.177   7.161 -2.0578 -1.4128 -1.7983
  608MOL0     H80238  10.172   2.498   8.182  1.3176 -1.1093 -3.8237
  608MOL0     H80239  10.029   2.536   8.394 -5.1725  0.6701 -0.1706
  608MOL0     H80240   9.487   2.409   8.533  1.0565 -2.1566 -1.4794
  608MOL0     H80241   9.368   2.466   8.730  0.2619  1.5611  0.6392
  608MOL0     H80242   7.899   2.646   8.383 -2.2082  1.2891 -2.1038
  608MOL0     H80243   7.853   2.805   8.225 -0.5674 -0.3542  1.8080
  608MOL0     H80244   7.780   3.308   8.140  0.1454  1.6346 -0.8966
  608MOL0     H80245   7.808   3.505   8.005  0.3617  1.3169 -0.8795
  608MOL0     H80246   8.074   3.677   8.022  0.0116  1.9573  0.5421
  608MOL0     H80247   7.923   3.713   7.932 -1.3718 -2.3601  0.2748
  608MOL0     H80248   8.132   3.880   7.895  2.3430 -0.2659  1.4172
  608MOL0     H80249   8.205   3.751   7.807 -0.0427  1.3272 -1.1060
  608MOL0     H80250   7.925   3.826   7.719  1.5230  1.4047 -0.4407
  608MOL0     H80251   8.038   3.723   7.647 -1.2457  1.2656 -2.3692
  608MOL0     H80252   8.010   3.983   7.555 -3.5997 -1.6193  2.3176
  608MOL0     H80253   8.131   4.015   7.677  2.1455 -0.0137 -1.3930
  608MOL0     H80254   8.308   3.779   7.364 -1.0940  0.8683 -0.6176
  608MOL0     H80255   8.191   3.361   7.870 -0.9509 -1.4189 -0.6804
  608MOL0     H80256   8.167   3.162   8.023 -0.6023 -0.2111  4.3310
  609MOL0     O80257   9.184   9.299  10.621 -0.2327 -0.6062 -0.8489
  609MOL0     C80258   9.087   9.308  10.705 -0.1915 -0.7294 -0.1280
  609MOL0     O80259   9.032   9.209  10.769 -0.1991 -0.6765 -0.7826
  609MOL0     C80260   9.084   9.086  10.752 -0.0139  0.4094  0.3298
  609MOL0     C80261   9.197   9.042  10.814 -0.2061  0.1007 -0.4370
  609MOL0     C80262   9.257   8.917  10.792  0.2081 -0.5081  0.1060
  609MOL0     C80263   9.200   8.837  10.696 -0.5482  0.5659  0.7003
  609MOL0     O80264   9.249   8.718  10.667  1.0162  0.0040  0.7064
  609MOL0     C80265   9.390   8.696  10.650  0.8475 -0.9611 -0.0402
  609MOL0     C80266   9.451   8.788  10.549 -0.3949  1.0199  0.1510
  609MOL0     C80267   9.397   8.745  10.409  0.3698  0.2486  0.5074
  609MOL0     C80268   9.448   8.857  10.310  0.2247  0.5209  0.1868
  609MOL0     C80269   9.324   8.956  10.266  0.0498 -0.9942 -0.6769
  609MOL0     C80270   9.372   9.092  10.215  0.4818 -0.6950  0.0703
  609MOL0     C80271   9.428   9.202  10.303  0.8619 -0.2154  0.9681
  609MOL0     C80272   9.427   9.328  10.224  0.0363 -0.8641  0.9101
  609MOL0     N80273   9.306   9.406  10.201 -0.6894  0.5786 -0.1802
  609MOL0     C80274   9.194   9.416  10.286  0.1450  0.0732  0.6321
  609MOL0     C80275   9.108   9.493  10.209 -0.1441  0.8445 -0.0220
  609MOL0     C80276   8.965   9.542  10.229  0.3908  0.9738 -0.2794
  609MOL0     C80277   8.863   9.425  10.233 -0.1604 -0.0625 -0.3901
  609MOL0     C80278   8.858   9.350  10.099 -0.2739 -0.1819  0.5457
  609MOL0     C80279   8.731   9.264  10.086 -0.1156  0.2262  0.4571
  609MOL0     O80280   8.747   9.172   9.987  0.0707  0.2920 -0.4410
  609MOL0     C80281   8.805   9.051  10.025 -0.0677 -0.0838  0.1059
  609MOL0     C80282   8.904   9.030  10.119 -0.0868 -0.3101 -0.4938
  609MOL0     C80283   8.969   8.904  10.143 -0.6593 -0.4582  0.5902
  609MOL0     C80284   8.932   8.796  10.075  0.2474  0.4452 -0.0120
  609MOL0     C80285   8.994   8.661  10.089  0.0924  1.4715  0.0071
  609MOL0     O80286   9.131   8.655  10.106 -0.2158 -0.1778  0.0968
  609MOL0     C80287   9.198   8.537  10.126  0.5564  0.1465 -0.2550
  609MOL0     C80288   9.161   8.451  10.229 -0.4376 -0.0991  0.0961
  609MOL0     C80289   9.224   8.325  10.229 -0.0445  0.1690 -0.2102
  609MOL0     C80290   9.328   8.282  10.142  1.0802  0.9529 -0.9101
  609MOL0     O80291   9.366   8.152  10.141 -0.0933  0.2457  1.0676
  609MOL0     C80292   9.404   8.103  10.005  0.0085  0.0929  0.4419
  609MOL0     C80293   9.401   7.948  10.013  0.4707  0.4097 -0.0578
  609MOL0     C80294   9.518   7.889   9.934  0.5078 -0.5729 -0.5605
  609MOL0     C80295   9.495   7.881   9.782 -0.3805 -0.4095  1.0204
  609MOL0     C80296   9.632   7.846   9.703  0.0214 -0.8658  0.0014
  609MOL0     C80297   9.683   7.716   9.748  0.0173  0.8601  1.1077
  609MOL0     C80298   9.584   7.593   9.694 -0.9267 -0.2772 -0.3306
  609MOL0     C80299   9.579   7.585   9.537 -0.2637 -0.0529  0.7228
  609MOL0    Cl80300   9.558   7.421   9.466  0.3862 -0.0687 -0.3048
  609MOL0     C80301   9.363   8.382  10.047 -0.1182  0.2029 -0.3019
  609MOL0     C80302   9.305   8.505  10.037 -0.0763 -0.3911 -1.0363
  609MOL0     O80303   8.921   8.563  10.090  0.4990  0.3986 -0.2271
  609MOL0     C80304   8.832   8.809   9.974  0.1502  0.6073 -0.0422
  609MOL0     C80305   8.765   8.937   9.956 -0.2534 -1.4472 -0.1283
  609MOL0     N80306   9.165   9.519  10.085  0.0523  0.7924  0.7101
  609MOL0     N80307   9.285   9.479  10.086 -0.2790 -0.5308  0.3274
  609MOL0     C80308   9.084   8.878  10.623  0.2331 -0.0247 -0.3790
  609MOL0     C80309   9.026   9.005  10.653 -0.1546  0.5707  1.1492
  609MOL0     C80310   9.035   9.449  10.723  0.1836 -0.3546  0.3699
  609MOL0     C80311   8.933   9.480  10.815  0.8690 -0.9247 -0.4869
  609MOL0     C80312   8.868   9.603  10.813  0.3830 -0.2794 -0.6603
  609MOL0     C80313   8.902   9.705  10.728 -0.2715 -0.2159  0.7942
  609MOL0     O80314   8.823   9.813  10.739 -0.7323 -0.3429 -0.4724
  609MOL0     C80315   8.843   9.920  10.645  0.8522  0.0611  0.3326
  609MOL0     C80316   8.793   9.875  10.505  0.5177  0.7968 -0.3987
  609MOL0     C80317   8.684   9.771  10.488  0.4642 -0.2411 -0.1042
  609MOL0     C80318   8.636   9.742  10.345  0.5322  0.0648  0.8975
  609MOL0     C80319   8.518   9.830  10.316 -0.7586  0.0051 -0.2491
  609MOL0     C80320   8.408   9.878  10.288  1.2254 -0.5389  0.0670
  609MOL0     C80321   9.016   9.679  10.641 -0.0478  0.5999 -0.3865
  609MOL0     C80322   9.072   9.548  10.633  0.9115  0.0386  0.8811
  609MOL0     H80323   9.228   9.102  10.899 -3.5331  3.8430 -1.5584
  609MOL0     H80324   9.333   8.883  10.861  1.2005  0.8841 -0.2613
  609MOL0     H80325   9.409   8.588  10.639 -2.2228 -1.9696  2.7337
  609MOL0     H80326   9.428   8.722  10.749  0.7913  0.4966 -0.3915
  609MOL0     H80327   9.558   8.765  10.545 -0.6472 -0.6996  1.7581
  609MOL0     H80328   9.429   8.894  10.566 -1.2809  0.7951  0.4814
  609MOL0     H80329   9.289   8.757  10.414  0.4039  0.1642  1.5854
  609MOL0     H80330   9.432   8.646  10.380 -2.6817 -0.8696  0.2959
  609MOL0     H80331   9.533   8.910  10.355  1.3343 -0.5206 -0.6339
  609MOL0     H80332   9.486   8.805  10.222 -2.5469  1.7030 -1.8808
  609MOL0     H80333   9.261   8.974  10.354 -1.3534 -2.9921 -1.2039
  609MOL0     H80334   9.261   8.907  10.192  0.0563  2.2480 -3.0521
  609MOL0     H80335   9.287   9.127  10.154  1.7047  1.8531 -0.3255
  609MOL0     H80336   9.444   9.075  10.135 -1.5700 -0.9356 -1.8262
  609MOL0     H80337   9.359   9.197  10.388  2.8909 -3.8590  2.6356
  609MOL0     H80338   9.527   9.184  10.345  0.6205  2.0253  2.6838
  609MOL0     H80339   9.465   9.308  10.123  0.8023  2.1340  0.5307
  609MOL0     H80340   9.506   9.384  10.275  0.5383 -1.8575  1.2539
  609MOL0     H80341   9.174   9.375  10.385  2.9364 -0.9811  0.8368
  609MOL0     H80342   8.942   9.619  10.154 -0.5534  0.8212 -0.1681
  609MOL0     H80343   8.958   9.593  10.326  0.1390  1.6255 -0.6320
  609MOL0     H80344   8.770   9.466  10.272  1.6712  2.0377  2.0931
  609MOL0     H80345   8.904   9.351  10.302 -1.5296 -0.7207 -0.2448
  609MOL0     H80346   8.863   9.432  10.027  0.1967  0.1097  0.9004
  609MOL0     H80347   8.950   9.291  10.087  0.7684  1.7043 -1.6759
  609MOL0     H80348   8.644   9.324  10.059 -0.8249 -1.6249 -1.6722
  609MOL0     H80349   8.698   9.218  10.180 -2.5189  1.9217  0.5182
  609MOL0     H80350   8.936   9.111  10.183  1.3663  0.7617 -2.5004
  609MOL0     H80351   9.044   8.901  10.221 -0.2021 -0.7181  0.1448
  609MOL0     H80352   9.086   8.479  10.303  0.4372  1.1936  0.5481
  609MOL0     H80353   9.187   8.253  10.300  1.7544 -0.1571  0.4529
  609MOL0     H80354   9.498   8.137   9.962  0.2673 -3.9749 -2.9172
  609MOL0     H80355   9.326   8.124   9.930  0.1482 -5.2158 -1.6411
  609MOL0     H80356   9.304   7.903   9.987 -0.6167  1.3983  2.0616
  609MOL0     H80357   9.414   7.929  10.120  1.5554  1.3982  0.0001
  609MOL0     H80358   9.526   7.783   9.959  0.9459 -0.4443 -0.1457
  609MOL0     H80359   9.608   7.939   9.970 -0.6253  0.7334  0.5950
  609MOL0     H80360   9.415   7.812   9.752 -0.9896  0.2544  1.0953
  609MOL0     H80361   9.464   7.980   9.750  1.7805  0.6395  1.9622
  609MOL0     H80362   9.713   7.916   9.724  2.2994 -3.3476  0.1000
  609MOL0     H80363   9.602   7.848   9.598 -2.7810 -0.6982  0.7249
  609MOL0     H80364   9.710   7.705   9.853  1.6524 -2.7357  0.4845
  609MOL0     H80365   9.777   7.703   9.693 -0.8635 -0.2296 -0.2267
  609MOL0     H80366   9.632   7.504   9.735  0.5845  0.3243 -0.7228
  609MOL0     H80367   9.491   7.609   9.750 -0.0158  1.2063  0.8503
  609MOL0     H80368   9.673   7.623   9.496 -0.6187  0.0163 -0.0567
  609MOL0     H80369   9.511   7.656   9.487  1.3291  0.9158 -0.1728
  609MOL0     H80370   9.444   8.359   9.979 -0.8103 -4.8693  0.1386
  609MOL0     H80371   9.319   8.577   9.957 -3.6602 -0.8825 -2.3231
  609MOL0     H80372   8.798   8.721   9.923 -0.1897 -0.0904  1.3336
  609MOL0     H80373   8.685   8.954   9.884 -1.3856 -2.7260  0.7801
  609MOL0     H80374   9.042   8.822  10.540  0.4209 -0.6834 -0.0321
  609MOL0     H80375   8.940   9.046  10.602 -0.9068 -1.2026  0.9282
  609MOL0     H80376   8.917   9.416  10.901  0.4449  0.8153  0.7771
  609MOL0     H80377   8.787   9.616  10.883  0.5444 -0.2167 -0.4828
  609MOL0     H80378   8.943   9.964  10.639  0.5588  0.5856 -3.7543
  609MOL0     H80379   8.785  10.007  10.679  0.0407  0.2601 -1.4539
  609MOL0     H80380   8.731   9.960  10.474 -2.0729  0.4703  3.2523
  609MOL0     H80381   8.872   9.864  10.431 -0.2743 -0.8881 -1.0427
  609MOL0     H80382   8.597   9.785  10.552  0.0738 -0.4886 -0.5758
  609MOL0     H80383   8.727   9.676  10.522  1.8074  0.0570 -0.8709
  609MOL0     H80384   8.708   9.762  10.265 -0.6692  1.2470  0.0787
  609MOL0     H80385   8.603   9.638  10.337 -0.8966  0.5684 -0.0266
  609MOL0     H80386   8.325   9.944  10.271  1.9634  0.1548 -0.9848
  609MOL0     H80387   9.045   9.761  10.575  0.9657 -0.7270 -1.6478
  609MOL0     H80388   9.146   9.521  10.558 -2.3883  3.2580 -4.1682
  610MOL0     O80389   4.763   7.242   5.759  0.2695  0.9487 -1.3141
  610MOL0     C80390   4.858   7.298   5.808 -0.2650  0.1510 -0.1769
  610MOL0     O80391   4.992   7.255   5.795 -0.1189 -0.3275 -0.3586
  610MOL0     C80392   5.035   7.144   5.728 -0.6103 -0.2535 -0.0990
  610MOL0     C80393   4.970   7.077   5.629 -0.7345 -0.1647 -0.0265
  610MOL0     C80394   5.042   6.979   5.549 -0.5322  0.7107 -0.5072
  610MOL0     C80395   5.181   6.947   5.571  0.1784  0.2249  0.3637
  610MOL0     O80396   5.244   6.856   5.486 -0.1858 -0.1549 -0.5371
  610MOL0     C80397   5.390   6.851   5.499  0.5904  0.4462 -0.2436
  610MOL0     C80398   5.433   6.731   5.433  0.2030  0.5429  0.3117
  610MOL0     C80399   5.404   6.598   5.503 -0.0315  1.0142 -0.5838
  610MOL0     C80400   5.470   6.480   5.430 -0.7326 -0.6998 -0.5624
  610MOL0     C80401   5.478   6.350   5.529  0.7131  0.8349  0.4038
  610MOL0     C80402   5.330   6.319   5.578 -0.3438  0.1152 -0.1493
  610MOL0     C80403   5.329   6.202   5.684 -0.5445  0.3360  0.0570
  610MOL0     C80404   5.330   6.249   5.832 -0.4790  0.1554  0.6771
  610MOL0     N80405   5.449   6.332   5.860 -0.3707  0.3839  0.2612
  610MOL0     C80406   5.460   6.461   5.856  0.7609 -0.8822 -0.9446
  610MOL0     C80407   5.587   6.488   5.906  0.5399  0.3800  0.3186
  610MOL0     C80408   5.653   6.630   5.919  0.5750 -1.1630  0.3981
  610MOL0     C80409   5.759   6.658   5.814 -0.0719 -0.4359  0.5325
  610MOL0     C80410   5.858   6.770   5.866 -0.9202  0.4690 -0.4698
  610MOL0     C80411   5.817   6.914   5.855 -1.0313  0.4374 -0.2043
  610MOL0     O80412   5.754   6.943   5.731 -0.4533 -0.4736  1.2579
  610MOL0     C80413   5.694   7.068   5.711 -0.1706  0.4819  0.6908
  610MOL0     C80414   5.660   7.155   5.813  0.0233 -1.1124  0.6283
  610MOL0     C80415   5.589   7.275   5.784  0.6537  0.3977 -0.9979
  610MOL0     C80416   5.544   7.310   5.652  0.0281  0.2219  0.4154
  610MOL0     C80417   5.465   7.429   5.629  0.5160 -0.0281 -0.8309
  610MOL0     O80418   5.454   7.530   5.722 -0.4218 -0.2806 -0.5348
  610MOL0     C80419   5.362   7.621   5.725  0.3705  0.6124  0.2105
  610MOL0     C80420   5.240   7.630   5.651 -0.6769  0.4371 -0.0974
  610MOL0     C80421   5.158   7.741   5.664 -0.2637  0.2460 -1.2124
  610MOL0     C80422   5.179   7.831   5.777 -0.6909 -0.3153 -0.5175
  610MOL0     O80423   5.095   7.929   5.819 -0.4754  0.3446 -0.1999
  610MOL0     C80424   5.039   8.013   5.711  0.3268  0.4715  0.1207
  610MOL0     C80425   4.946   8.115   5.766 -0.4730  0.0806 -0.0668
  610MOL0     C80426   4.882   8.200   5.653  0.0702 -0.2492 -0.3704
  610MOL0     C80427   4.799   8.318   5.720  1.0888  0.5371  0.9304
  610MOL0     C80428   4.714   8.399   5.619  0.0274 -0.3016 -0.5299
  610MOL0     C80429   4.782   8.474   5.505 -0.0505 -0.8520  0.1068
  610MOL0     C80430   4.675   8.527   5.398  0.0579  0.3492 -0.6269
  610MOL0     C80431   4.585   8.616   5.459 -0.0661  0.4272 -0.9602
  610MOL0    Cl80432   4.490   8.706   5.334  0.1938  0.1873  0.0280
  610MOL0     C80433   5.300   7.818   5.849 -0.7059 -0.3709  0.7020
  610MOL0     C80434   5.383   7.717   5.820 -0.2568 -0.2202 -0.6131
  610MOL0     O80435   5.411   7.439   5.515 -0.5291  0.4704 -0.2801
  610MOL0     C80436   5.579   7.218   5.556  0.0536  0.9921 -0.6517
  610MOL0     C80437   5.643   7.093   5.584  0.3748 -0.5701 -0.2981
  610MOL0     N80438   5.649   6.360   5.917  0.0340  1.2270  0.5163
  610MOL0     N80439   5.567   6.272   5.887 -0.0890  0.1251  0.3995
  610MOL0     C80440   5.240   7.028   5.672 -0.4791 -0.0526  0.6800
  610MOL0     C80441   5.169   7.111   5.755  0.3982 -0.1072 -0.3306
  610MOL0     C80442   4.840   7.429   5.862 -0.9717 -0.4649 -0.1498
  610MOL0     C80443   4.941   7.520   5.888 -0.2374 -1.2478  0.3627
  610MOL0     C80444   4.920   7.651   5.942 -0.7730  0.1926  0.0754
  610MOL0     C80445   4.795   7.689   5.982  0.0259 -0.8789 -0.1801
  610MOL0     O80446   4.785   7.809   6.052  0.1513  0.7785 -0.4141
  610MOL0     C80447   4.650   7.837   6.104  1.0092 -0.5652 -0.8887
  610MOL0     C80448   4.659   7.970   6.198 -0.4320 -0.1957  0.6741
  610MOL0     C80449   4.672   8.090   6.108 -0.2825  0.7762 -0.1191
  610MOL0     C80450   4.706   8.210   6.194 -0.9215 -0.5278  0.7276
  610MOL0     C80451   4.751   8.329   6.113  0.3297  0.3634  0.5919
  610MOL0     C80452   4.798   8.426   6.073  0.5929  0.3958 -0.3207
  610MOL0     C80453   4.685   7.606   5.949 -0.6408  0.4017 -0.9690
  610MOL0     C80454   4.708   7.480   5.889 -0.0410 -0.8233  0.6139
  610MOL0     H80455   4.864   7.086   5.607 -1.6695 -3.9669  2.0318
  610MOL0     H80456   4.981   6.920   5.482  1.3794 -0.5842 -1.1554
  610MOL0     H80457   5.430   6.852   5.601  0.7440 -0.9485 -0.2687
  610MOL0     H80458   5.434   6.940   5.453  0.4214  0.7846  0.2416
  610MOL0     H80459   5.542   6.740   5.427  0.4725 -1.3098  1.6369
  610MOL0     H80460   5.393   6.718   5.332 -0.1525  2.3925  0.1743
  610MOL0     H80461   5.296   6.591   5.514 -0.0063  1.1212 -0.2782
  610MOL0     H80462   5.449   6.598   5.602  1.2920  4.5374 -1.0442
  610MOL0     H80463   5.414   6.457   5.339 -0.2673 -2.1581 -0.5071
  610MOL0     H80464   5.568   6.516   5.398 -1.7263  1.7032 -1.1095
  610MOL0     H80465   5.550   6.372   5.608  1.0464  0.7315  0.1309
  610MOL0     H80466   5.499   6.254   5.481 -0.9131  1.1898 -1.1398
  610MOL0     H80467   5.273   6.280   5.493 -2.3240 -1.0619  1.6289
  610MOL0     H80468   5.269   6.401   5.617 -0.3756  1.0711 -2.1159
  610MOL0     H80469   5.243   6.136   5.669  0.8856 -1.6886  0.3723
  610MOL0     H80470   5.412   6.135   5.658 -1.3826 -0.4241 -0.7306
  610MOL0     H80471   5.326   6.160   5.896  2.1188 -1.1371 -0.8130
  610MOL0     H80472   5.249   6.320   5.849  0.3361  1.0976  0.6940
  610MOL0     H80473   5.370   6.515   5.826  0.7075 -0.7126 -0.5039
  610MOL0     H80474   5.690   6.639   6.022 -0.6983 -0.6604  0.8319
  610MOL0     H80475   5.584   6.712   5.900  0.4810 -1.4431 -0.5240
  610MOL0     H80476   5.704   6.679   5.721 -5.1320  0.4874  3.3451
  610MOL0     H80477   5.810   6.562   5.804 -0.6854 -0.5533 -2.1665
  610MOL0     H80478   5.875   6.740   5.970  2.5833  2.2549 -0.3628
  610MOL0     H80479   5.956   6.761   5.818 -2.2353 -0.0750 -3.2241
  610MOL0     H80480   5.912   6.969   5.854 -1.4070  1.1128 -1.8735
  610MOL0     H80481   5.760   6.940   5.945  3.0608 -0.6317  3.0185
  610MOL0     H80482   5.689   7.137   5.917  0.9919 -0.4056  0.4982
  610MOL0     H80483   5.560   7.342   5.865  0.7452 -0.7211 -0.0182
  610MOL0     H80484   5.210   7.558   5.576  1.3730  0.0364 -0.5813
  610MOL0     H80485   5.075   7.746   5.595 -0.6988 -1.2605 -0.8361
  610MOL0     H80486   4.987   7.956   5.634 -0.6156  2.0301 -0.4490
  610MOL0     H80487   5.124   8.055   5.655  1.3293 -4.5346 -2.7021
  610MOL0     H80488   5.002   8.184   5.830  4.1862 -1.5038 -2.0249
  610MOL0     H80489   4.876   8.057   5.827  0.2663 -1.4226 -0.6207
  610MOL0     H80490   4.822   8.142   5.582  1.8554 -0.1202 -2.0832
  610MOL0     H80491   4.962   8.260   5.609  2.4121 -0.4262  3.3212
  610MOL0     H80492   4.719   8.269   5.776 -0.2741 -2.4737 -3.1497
  610MOL0     H80493   4.858   8.389   5.778 -0.5966  4.9703 -2.2032
  610MOL0     H80494   4.669   8.472   5.687 -0.8357  0.0298 -1.4164
  610MOL0     H80495   4.641   8.330   5.575  0.0864 -1.4965  1.1599
  610MOL0     H80496   4.859   8.416   5.454 -2.7347 -2.4379 -2.4661
  610MOL0     H80497   4.835   8.557   5.552  1.0340 -0.8947 -0.9721
  610MOL0     H80498   4.735   8.580   5.323  0.7630 -1.4818 -1.4058
  610MOL0     H80499   4.622   8.447   5.346 -1.2766  0.6030  0.2956
  610MOL0     H80500   4.640   8.675   5.533 -0.2747  3.3817 -2.9768
  610MOL0     H80501   4.510   8.551   5.504  0.1705 -0.0327 -1.2199
  610MOL0     H80502   5.308   7.905   5.913 -0.9429 -0.5133  0.9307
  610MOL0     H80503   5.476   7.704   5.874 -0.5220 -0.6163 -0.2440
  610MOL0     H80504   5.567   7.252   5.454  1.3691  3.7411  0.0221
  610MOL0     H80505   5.669   7.026   5.503  1.1992 -0.9723  0.2856
  610MOL0     H80506   5.346   7.028   5.693 -0.4316  0.7027  0.4822
  610MOL0     H80507   5.230   7.156   5.833 -1.1954  1.8385 -0.1104
  610MOL0     H80508   5.044   7.486   5.878  0.6484  0.8852  1.5101
  610MOL0     H80509   5.005   7.707   5.979  1.6903 -2.7221 -0.7061
  610MOL0     H80510   4.613   7.747   6.155 -1.4112  0.5851 -0.4746
  610MOL0     H80511   4.576   7.857   6.026 -1.6079  2.1623  1.9507
  610MOL0     H80512   4.567   7.984   6.256 -1.4200 -1.0535 -0.6221
  610MOL0     H80513   4.747   7.962   6.263 -1.4737 -1.6703  1.9701
  610MOL0     H80514   4.576   8.119   6.063 -1.2896  6.0193  4.3416
  610MOL0     H80515   4.737   8.077   6.022 -0.0421  2.2060 -0.1813
  610MOL0     H80516   4.615   8.231   6.250 -1.9555  1.9638 -1.6374
  610MOL0     H80517   4.787   8.199   6.267  0.0627 -1.7102 -0.4747
  610MOL0     H80518   4.845   8.522   6.070  1.2822  0.1366  1.0341
  610MOL0     H80519   4.582   7.634   5.966 -1.0270  0.5006 -3.1707
  610MOL0     H80520   4.617   7.432   5.856  0.3939 -0.0393 -1.9520
  611MOL0     O80521   8.073   3.460   7.469  0.2445  0.3110 -0.5696
  611MOL0     C80522   8.019   3.384   7.554 -0.0940  0.2935  0.5524
  611MOL0     O80523   8.082   3.290   7.617  0.1048  0.3840 -0.0919
  611MOL0     C80524   8.214   3.274   7.599  0.1193 -0.1496 -0.0682
  611MOL0     C80525   8.305   3.388   7.613 -0.0984 -0.1414 -0.1957
  611MOL0     C80526   8.437   3.359   7.630  0.3144 -1.0465  0.2309
  611MOL0     C80527   8.491   3.235   7.641 -0.3021  0.4404  0.4319
  611MOL0     O80528   8.618   3.217   7.681  0.2666  0.0858 -0.1643
  611MOL0     C80529   8.623   3.229   7.824 -0.0886  0.4923 -0.8113
  611MOL0     C80530   8.545   3.127   7.912 -0.6373  1.4103  0.3786
  611MOL0     C80531   8.611   2.990   7.895 -0.1629 -0.8594  0.2991
  611MOL0     C80532   8.580   2.904   8.019 -0.4273  1.1868 -0.1913
  611MOL0     C80533   8.621   2.752   7.996  0.0777  0.6867  0.6245
  611MOL0     C80534   8.547   2.646   8.084  0.5203 -0.2967  0.4533
  611MOL0     C80535   8.535   2.682   8.235 -0.4128  0.8693  0.3824
  611MOL0     C80536   8.456   2.578   8.316  0.5674  0.2004 -1.0480
  611MOL0     N80537   8.554   2.478   8.341 -0.2140 -0.5572 -0.1798
  611MOL0     C80538   8.557   2.352   8.289 -0.0225 -0.3941  0.2693
  611MOL0     C80539   8.656   2.288   8.353 -0.0585  1.5258 -0.6178
  611MOL0     C80540   8.701   2.137   8.328  0.6361  0.5146  0.3407
  611MOL0     C80541   8.730   2.089   8.189 -0.4292 -0.7849  0.5902
  611MOL0     C80542   8.878   2.126   8.144  0.2056 -1.0435 -0.9836
  611MOL0     C80543   8.897   2.273   8.120 -0.4236  0.0468 -0.3737
  611MOL0     O80544   8.999   2.293   8.024  0.4909 -0.3201 -0.3591
  611MOL0     C80545   9.036   2.413   7.973 -0.0857 -0.4386  0.1110
  611MOL0     C80546   8.986   2.538   8.021 -0.4213  0.1734  0.4278
  611MOL0     C80547   9.057   2.655   7.988  0.6173 -0.4453 -0.4414
  611MOL0     C80548   9.158   2.657   7.894 -0.7478  0.8828  0.1779
  611MOL0     C80549   9.227   2.782   7.860 -0.3810  0.0683 -0.4552
  611MOL0     O80550   9.321   2.778   7.768 -0.1881  0.8410  0.4803
  611MOL0     C80551   9.435   2.865   7.768  1.0521  1.2242 -0.3704
  611MOL0     C80552   9.508   2.900   7.886  0.5591  1.2279 -1.2565
  611MOL0     C80553   9.631   2.974   7.879  0.1826  0.3788 -0.0210
  611MOL0     C80554   9.704   2.978   7.762 -0.4734  1.1169  0.1336
  611MOL0     O80555   9.841   2.999   7.777  0.9553 -0.0100  0.4342
  611MOL0     C80556   9.926   2.973   7.663  0.0674 -0.2676 -0.5597
  611MOL0     C80557   9.949   3.103   7.589 -0.9873 -0.3290 -0.8645
  611MOL0     C80558  10.051   3.102   7.475  0.0918  0.6868 -0.7373
  611MOL0     C80559   9.995   3.009   7.362 -0.4150  0.1751 -0.3930
  611MOL0     C80560  10.074   3.019   7.228 -0.7562  1.2875  0.2776
  611MOL0     C80561   9.999   2.969   7.098  0.3155 -0.8671  0.6204
  611MOL0     C80562  10.105   2.985   6.984 -1.2741 -0.1412 -1.1686
  611MOL0     C80563  10.041   2.992   6.851 -0.6911 -0.3379 -0.1284
  611MOL0    Cl80564  10.147   3.021   6.710 -0.4177 -0.1998 -0.0976
  611MOL0     C80565   9.645   2.936   7.647 -0.5499 -0.6125  0.4083
  611MOL0     C80566   9.510   2.883   7.650  1.0156  0.7505 -0.3243
  611MOL0     O80567   9.220   2.871   7.939 -0.3168  0.1135 -0.2476
  611MOL0     C80568   9.196   2.538   7.836  0.1543 -0.2294  0.5667
  611MOL0     C80569   9.141   2.417   7.873 -0.6893 -0.1414 -0.0448
  611MOL0     N80570   8.712   2.363   8.454  0.0213 -0.7596 -0.0807
  611MOL0     N80571   8.648   2.477   8.444 -0.1839 -0.1023 -0.0631
  611MOL0     C80572   8.405   3.121   7.621 -0.5547 -1.0266 -1.0165
  611MOL0     C80573   8.271   3.148   7.595 -0.3819  1.1221 -0.8129
  611MOL0     C80574   7.873   3.395   7.575 -0.1211 -0.1361 -0.3518
  611MOL0     C80575   7.796   3.325   7.669  0.7909  0.4310 -0.6441
  611MOL0     C80576   7.655   3.347   7.683 -0.3725  1.1021  0.5144
  611MOL0     C80577   7.587   3.435   7.603  0.0440  0.5108  0.5059
  611MOL0     O80578   7.460   3.481   7.616  0.1098  0.4092 -0.0881
  611MOL0     C80579   7.396   3.445   7.737  0.2065 -0.3399  0.4257
  611MOL0     C80580   7.262   3.534   7.753 -0.7626  0.9953  0.5768
  611MOL0     C80581   7.199   3.514   7.885 -0.7171 -0.1272 -0.7649
  611MOL0     C80582   7.072   3.591   7.912 -0.1167 -0.0764 -0.2895
  611MOL0     C80583   7.020   3.583   8.049 -0.0531 -1.0310 -0.3647
  611MOL0     C80584   6.975   3.584   8.166  0.3415 -0.1355  0.8401
  611MOL0     C80585   7.655   3.492   7.501 -0.5095 -0.4854 -0.0419
  611MOL0     C80586   7.800   3.476   7.482  0.1139 -0.2384  0.2205
  611MOL0     H80587   8.265   3.489   7.616 -2.0355 -0.8972  1.8071
  611MOL0     H80588   8.495   3.450   7.632 -3.7831  1.9048 -1.5583
  611MOL0     H80589   8.588   3.330   7.846 -1.2061 -0.2928  1.3225
  611MOL0     H80590   8.730   3.222   7.848 -0.5300 -0.1479  1.1681
  611MOL0     H80591   8.441   3.135   7.880  0.0230  2.6923 -1.7007
  611MOL0     H80592   8.545   3.155   8.018  1.0053 -0.0815  0.8215
  611MOL0     H80593   8.718   2.997   7.878 -0.4153 -0.5738 -1.3640
  611MOL0     H80594   8.571   2.948   7.803 -1.3945 -3.3637  1.8499
  611MOL0     H80595   8.630   2.948   8.105  1.5670  1.0469 -1.2200
  611MOL0     H80596   8.472   2.905   8.034 -1.1277 -2.2311 -3.4556
  611MOL0     H80597   8.729   2.744   8.010  0.4710  1.9446 -1.3438
  611MOL0     H80598   8.621   2.719   7.891  3.2477 -1.6140  1.2130
  611MOL0     H80599   8.601   2.553   8.060 -0.7176 -1.0417  0.4756
  611MOL0     H80600   8.446   2.640   8.043  0.3628  2.0693  0.3872
  611MOL0     H80601   8.638   2.693   8.268 -0.6965 -1.0299  2.1247
  611MOL0     H80602   8.492   2.781   8.249  0.0866  1.6195 -2.6682
  611MOL0     H80603   8.367   2.542   8.264 -0.6270  1.4502  0.0417
  611MOL0     H80604   8.426   2.630   8.407 -1.7826 -1.0029 -1.0725
  611MOL0     H80605   8.496   2.312   8.208 -0.5088  1.0914 -0.1344
  611MOL0     H80606   8.617   2.079   8.368  0.9477  0.2486  0.6189
  611MOL0     H80607   8.788   2.117   8.392  1.9422 -0.7301 -1.7185
  611MOL0     H80608   8.665   2.121   8.107 -0.9513 -1.2395  0.8228
  611MOL0     H80609   8.720   1.982   8.209 -1.8439 -0.3570  2.5160
  611MOL0     H80610   8.955   2.092   8.213 -2.9792 -4.7606  1.1464
  611MOL0     H80611   8.887   2.067   8.053 -1.3244 -2.4805 -0.2536
  611MOL0     H80612   8.923   2.324   8.213 -3.3408 -3.5394  2.6943
  611MOL0     H80613   8.804   2.310   8.076  1.6163  1.2318 -4.2136
  611MOL0     H80614   8.895   2.541   8.081 -0.0681  0.4818  0.9505
  611MOL0     H80615   9.014   2.752   8.011  2.9750  0.7590 -0.8194
  611MOL0     H80616   9.485   2.876   7.989  2.2694  2.9444 -0.4008
  611MOL0     H80617   9.673   3.000   7.976  0.5110  0.7820 -0.2685
  611MOL0     H80618   9.895   2.886   7.605  0.3234 -2.7555  2.7036
  611MOL0     H80619  10.025   2.945   7.699 -0.8293 -0.2671  2.1314
  611MOL0     H80620   9.986   3.175   7.662 -1.4793 -1.3132  0.3825
  611MOL0     H80621   9.850   3.140   7.557  0.0359  0.8740 -2.8361
  611MOL0     H80622  10.153   3.072   7.501 -1.1696 -1.2824  2.4345
  611MOL0     H80623  10.051   3.204   7.434 -2.3083  1.8350  1.8061
  611MOL0     H80624  10.002   2.906   7.399  1.8742  0.7434  0.9746
  611MOL0     H80625   9.891   3.032   7.338 -0.6686 -1.5041 -1.0708
  611MOL0     H80626  10.165   2.958   7.238 -0.9261  1.3904  2.9831
  611MOL0     H80627  10.094   3.126   7.214 -2.0669  2.1203  3.7909
  611MOL0     H80628   9.914   3.035   7.078  0.8529 -1.1176 -3.2293
  611MOL0     H80629   9.958   2.871   7.124 -0.1316 -1.0065 -0.5483
  611MOL0     H80630  10.159   3.079   6.995  1.1342 -1.2864 -2.2905
  611MOL0     H80631  10.183   2.909   6.992  0.3966  1.4631 -1.5173
  611MOL0     H80632   9.966   3.071   6.862  1.2243  1.4832  0.3479
  611MOL0     H80633   9.983   2.900   6.837 -0.2095 -0.4218 -1.6916
  611MOL0     H80634   9.700   2.955   7.556  1.0498  0.2597  1.4995
  611MOL0     H80635   9.463   2.846   7.559 -1.4522  1.3815  0.6030
  611MOL0     H80636   9.282   2.538   7.770  1.6713 -1.9008  2.4108
  611MOL0     H80637   9.208   2.336   7.848  3.1317  1.9004  2.4203
  611MOL0     H80638   8.443   3.020   7.627 -0.0891 -0.7758  1.4269
  611MOL0     H80639   8.209   3.062   7.573 -0.5251  0.0901  3.0120
  611MOL0     H80640   7.841   3.261   7.745 -1.1530 -1.4565 -0.9902
  611MOL0     H80641   7.595   3.299   7.759 -1.6014 -0.3432 -1.2632
  611MOL0     H80642   7.463   3.458   7.822 -1.0640  0.9473  1.2664
  611MOL0     H80643   7.370   3.339   7.735  0.9807 -0.5366  0.5150
  611MOL0     H80644   7.290   3.638   7.737 -1.7962  1.0280 -1.2997
  611MOL0     H80645   7.196   3.498   7.673  1.4914 -2.0748 -0.1035
  611MOL0     H80646   7.274   3.544   7.958 -1.9021 -1.3112  1.0246
  611MOL0     H80647   7.178   3.410   7.912 -1.9390 -0.2789 -2.1790
  611MOL0     H80648   7.085   3.694   7.877 -1.3543  0.3447  0.4117
  611MOL0     H80649   7.003   3.538   7.846 -0.4250  0.6842 -0.5945
  611MOL0     H80650   6.928   3.573   8.261  3.2971 -2.5196  2.1858
  611MOL0     H80651   7.608   3.571   7.442 -0.0998 -2.4175 -3.2218
  611MOL0     H80652   7.863   3.534   7.416  2.0167  0.4318  2.5090
  612MOL0     O80653   3.099   6.387   1.606 -0.2928 -0.4303  0.3721
  612MOL0     C80654   3.121   6.492   1.668  0.1774  0.8728  0.0680
  612MOL0     O80655   3.050   6.534   1.778  0.2150  0.6120  0.0359
  612MOL0     C80656   2.918   6.485   1.809 -0.0497  0.1877  0.0990
  612MOL0     C80657   2.832   6.420   1.713  0.1573  0.4698 -0.8225
  612MOL0     C80658   2.713   6.357   1.750  0.0552  0.6711  0.3225
  612MOL0     C80659   2.679   6.366   1.886 -0.0861 -0.9735  0.4576
  612MOL0     O80660   2.571   6.297   1.921 -1.0801 -0.2106 -0.1001
  612MOL0     C80661   2.606   6.161   1.961 -0.4230 -0.6664  0.1624
  612MOL0     C80662   2.473   6.077   1.966 -0.2916  0.2836  0.5309
  612MOL0     C80663   2.505   5.921   1.950 -0.1803 -0.1175 -0.2699
  612MOL0     C80664   2.538   5.890   1.803 -0.1736 -0.5733  0.6175
  612MOL0     C80665   2.591   5.749   1.772 -0.8935  0.4410 -0.6146
  612MOL0     C80666   2.633   5.751   1.625  0.1547  0.0422 -0.4210
  612MOL0     C80667   2.701   5.613   1.595  0.3281  0.1071  0.5048
  612MOL0     C80668   2.763   5.601   1.455 -0.9231 -0.0346 -0.7375
  612MOL0     N80669   2.908   5.637   1.454 -0.1530 -0.2644  0.3416
  612MOL0     C80670   3.007   5.589   1.523  0.1010 -0.6116  0.0782
  612MOL0     C80671   3.117   5.643   1.458  0.7248 -0.0372  0.5720
  612MOL0     C80672   3.253   5.590   1.499  1.0702 -0.0557 -0.8667
  612MOL0     C80673   3.316   5.521   1.377  0.6195  1.1597 -0.0187
  612MOL0     C80674   3.446   5.448   1.400  0.3523 -1.8747 -0.7547
  612MOL0     C80675   3.555   5.546   1.450 -0.5516  0.9110  0.7481
  612MOL0     O80676   3.680   5.513   1.382  0.8313  0.2205 -0.8159
  612MOL0     C80677   3.771   5.612   1.381 -0.6545  0.2264  0.4083
  612MOL0     C80678   3.885   5.596   1.297  0.0636  0.6099 -0.4511
  612MOL0     C80679   3.999   5.679   1.298  0.1786  0.3105 -0.0566
  612MOL0     C80680   3.999   5.787   1.394  0.3108 -0.3583 -0.0581
  612MOL0     C80681   4.110   5.879   1.400  0.7895 -0.4280 -0.0890
  612MOL0     O80682   4.079   6.002   1.453 -0.6399 -0.1100 -0.3546
  612MOL0     C80683   4.176   6.099   1.456 -0.5425 -0.4556  0.8571
  612MOL0     C80684   4.236   6.118   1.575 -0.6538 -0.8977  0.2435
  612MOL0     C80685   4.326   6.224   1.585  0.1676 -0.8463  0.0814
  612MOL0     C80686   4.356   6.311   1.480 -0.4931 -0.1312  0.9740
  612MOL0     O80687   4.456   6.412   1.480 -0.5295 -0.1540 -0.3510
  612MOL0     C80688   4.588   6.369   1.531  0.0444  0.3225  0.6044
  612MOL0     C80689   4.704   6.452   1.464  0.0256  0.1672  1.2588
  612MOL0     C80690   4.711   6.586   1.522  0.1980 -1.2002 -0.3943
  612MOL0     C80691   4.857   6.648   1.510 -1.3148  0.3482  0.0943
  612MOL0     C80692   4.858   6.774   1.592  0.7836 -0.7815  0.6249
  612MOL0     C80693   4.773   6.891   1.524  0.5174 -0.3000 -0.1209
  612MOL0     C80694   4.750   7.021   1.611  1.0577  1.0761  0.0284
  612MOL0     C80695   4.697   7.129   1.540  0.2209 -0.6088  0.7431
  612MOL0    Cl80696   4.523   7.107   1.515  0.3631 -0.4109  0.2767
  612MOL0     C80697   4.272   6.295   1.366  0.4890 -0.5568  0.3991
  612MOL0     C80698   4.189   6.191   1.350  0.5521  0.0378  0.5498
  612MOL0     O80699   4.219   5.839   1.365 -1.2232 -0.2324  0.8175
  612MOL0     C80700   3.890   5.803   1.474  0.4472 -0.6379 -0.5566
  612MOL0     C80701   3.771   5.723   1.465 -0.3073  0.0985  0.1422
  612MOL0     N80702   3.077   5.706   1.344  0.5572 -0.2910 -0.2536
  612MOL0     N80703   2.948   5.693   1.339  0.7336 -0.4449 -0.6579
  612MOL0     C80704   2.747   6.453   1.979 -0.1982 -0.9350  0.5429
  612MOL0     C80705   2.871   6.511   1.947  0.9880 -1.4461  0.1253
  612MOL0     C80706   3.236   6.556   1.620 -0.4386  0.0935  0.1844
  612MOL0     C80707   3.311   6.513   1.509 -0.3085  0.0926  0.1106
  612MOL0     C80708   3.433   6.577   1.469 -1.1301 -0.3292 -0.6084
  612MOL0     C80709   3.477   6.688   1.537 -0.3922  0.6553 -0.4611
  612MOL0     O80710   3.585   6.765   1.516  0.1633 -0.8133  0.5451
  612MOL0     C80711   3.668   6.724   1.408  0.6241  0.3077 -0.8146
  612MOL0     C80712   3.614   6.768   1.274 -0.4094 -0.1644  0.0586
  612MOL0     C80713   3.709   6.732   1.163  0.2779 -0.1661  0.9001
  612MOL0     C80714   3.673   6.824   1.039  0.0849  0.9920 -0.2342
  612MOL0     C80715   3.756   6.772   0.927 -0.5107  0.2645 -0.3888
  612MOL0     C80716   3.840   6.757   0.839  0.5422  0.5265 -0.5416
  612MOL0     C80717   3.393   6.742   1.635 -0.2227 -0.5587 -0.1927
  612MOL0     C80718   3.278   6.676   1.674 -0.6090  0.1236 -1.1376
  612MOL0     H80719   2.858   6.402   1.610  0.3622 -1.9038 -0.3984
  612MOL0     H80720   2.645   6.319   1.674 -1.3789  1.7352  1.0494
  612MOL0     H80721   2.660   6.157   2.056  1.1124 -0.9682 -0.6899
  612MOL0     H80722   2.668   6.122   1.879 -0.5589  0.2614 -0.3893
  612MOL0     H80723   2.409   6.113   1.885  2.2593 -0.5401 -2.0191
  612MOL0     H80724   2.428   6.102   2.063 -1.1383  1.0038 -0.0367
  612MOL0     H80725   2.413   5.868   1.977  1.6384 -4.7804 -2.0887
  612MOL0     H80726   2.582   5.881   2.017  1.8866  0.6279 -2.0655
  612MOL0     H80727   2.446   5.908   1.747 -1.8769  1.5183  3.7403
  612MOL0     H80728   2.620   5.952   1.767 -1.0841 -0.6842 -1.8452
  612MOL0     H80729   2.511   5.676   1.790 -0.2527  0.4018  2.7515
  612MOL0     H80730   2.669   5.712   1.839  1.9730  0.4138 -3.7094
  612MOL0     H80731   2.682   5.841   1.586  2.1454 -0.1723  1.4229
  612MOL0     H80732   2.543   5.760   1.562  2.4421  0.0749 -3.9761
  612MOL0     H80733   2.771   5.584   1.673 -0.2273 -4.2104 -0.3767
  612MOL0     H80734   2.619   5.541   1.606 -2.7594  3.2095 -0.2815
  612MOL0     H80735   2.717   5.683   1.398  0.4090  0.1681 -1.5777
  612MOL0     H80736   2.746   5.496   1.429  2.1366 -0.4096 -1.6729
  612MOL0     H80737   3.013   5.526   1.611 -0.2896  0.6091  1.0157
  612MOL0     H80738   3.241   5.522   1.585  0.6182 -0.0385 -0.9107
  612MOL0     H80739   3.318   5.670   1.533 -1.2063  1.8205 -0.6982
  612MOL0     H80740   3.331   5.591   1.294 -0.4710  2.5450  0.9121
  612MOL0     H80741   3.253   5.444   1.333  1.7314  0.1332  0.1350
  612MOL0     H80742   3.436   5.371   1.477 -0.4778  0.9131  2.1521
  612MOL0     H80743   3.477   5.394   1.310  0.4557 -1.3289 -1.0471
  612MOL0     H80744   3.563   5.533   1.559 -1.5787  5.3532  1.5518
  612MOL0     H80745   3.526   5.650   1.434 -0.5725  0.8139  0.1512
  612MOL0     H80746   3.866   5.512   1.230 -2.0821 -0.4189  1.3088
  612MOL0     H80747   4.086   5.674   1.234  0.4715 -3.1915  0.3814
  612MOL0     H80748   4.233   6.035   1.644  2.6730 -0.1780  1.4009
  612MOL0     H80749   4.381   6.231   1.679  0.5989  2.1124 -0.2992
  612MOL0     H80750   4.610   6.267   1.498 -2.2031 -0.2441  0.7551
  612MOL0     H80751   4.572   6.379   1.639 -0.6529 -2.4501  0.8191
  612MOL0     H80752   4.676   6.458   1.358  0.4379 -2.1611  0.9677
  612MOL0     H80753   4.801   6.403   1.480 -0.6341 -1.2381  1.0726
  612MOL0     H80754   4.684   6.580   1.628  1.2326  3.2323  0.3609
  612MOL0     H80755   4.625   6.647   1.491 -1.8709 -2.6768  1.9767
  612MOL0     H80756   4.930   6.579   1.555  0.1013  1.3548 -0.5944
  612MOL0     H80757   4.896   6.657   1.408  3.4222 -3.2896  1.2100
  612MOL0     H80758   4.962   6.801   1.612  1.0201 -3.0664  2.9615
  612MOL0     H80759   4.817   6.769   1.693  0.6052  2.0340  0.7729
  612MOL0     H80760   4.672   6.856   1.504 -0.1926  2.2011 -1.3252
  612MOL0     H80761   4.813   6.916   1.425 -2.4133 -1.1978 -1.6341
  612MOL0     H80762   4.673   6.994   1.684  2.2998  3.0387  2.1642
  612MOL0     H80763   4.839   7.048   1.667 -0.5501 -0.8593  3.9223
  612MOL0     H80764   4.765   7.156   1.459  2.0467 -2.1613  1.6707
  612MOL0     H80765   4.699   7.205   1.619 -1.1849 -2.0672  2.2814
  612MOL0     H80766   4.275   6.365   1.283  0.9153 -1.4940 -0.3998
  612MOL0     H80767   4.120   6.185   1.267  0.3540 -0.7130  0.7657
  612MOL0     H80768   3.889   5.879   1.551  1.3144 -3.4032  2.4380
  612MOL0     H80769   3.694   5.741   1.540 -0.1936  4.9157 -0.5531
  612MOL0     H80770   2.725   6.450   2.085  1.2036 -0.3931  0.8762
  612MOL0     H80771   2.924   6.587   2.002 -2.7457 -0.2349  2.4496
  612MOL0     H80772   3.276   6.437   1.440 -1.9977  1.1795 -0.2810
  612MOL0     H80773   3.486   6.545   1.380  0.0181 -2.0194  0.6163
  612MOL0     H80774   3.688   6.617   1.419  1.1917  0.5736  1.0723
  612MOL0     H80775   3.769   6.763   1.422  0.6711  0.0576 -0.4263
  612MOL0     H80776   3.520   6.720   1.246 -0.4650  0.7790 -1.5269
  612MOL0     H80777   3.597   6.876   1.267  2.6863  0.5632  1.7600
  612MOL0     H80778   3.684   6.628   1.139  1.7310 -0.8507  2.1527
  612MOL0     H80779   3.814   6.740   1.193  0.3186  2.8683  0.2904
  612MOL0     H80780   3.566   6.818   1.018  0.3566 -0.9794 -1.3767
  612MOL0     H80781   3.695   6.926   1.068  1.2129 -0.0068  2.7761
  612MOL0     H80782   3.902   6.736   0.754  0.8461 -1.7831  0.1852
  612MOL0     H80783   3.424   6.836   1.680  1.5470 -0.6004 -1.2453
  612MOL0     H80784   3.210   6.716   1.748 -0.8978 -0.1585 -1.2482
  613MOL0     O80785   1.257   1.230   1.822  0.1059  0.7108 -0.6758
  613MOL0     C80786   1.273   1.277   1.709 -0.4307  0.7640  0.3028
  613MOL0     O80787   1.240   1.214   1.589  0.3776 -0.3547 -0.2689
  613MOL0     C80788   1.212   1.082   1.588  0.1931 -0.1464  0.5051
  613MOL0     C80789   1.154   1.022   1.472 -0.0670 -0.3548  0.4715
  613MOL0     C80790   1.136   0.887   1.457 -1.3735 -0.2143 -0.0699
  613MOL0     C80791   1.202   0.796   1.541  0.7685  0.1882 -0.1869
  613MOL0     O80792   1.181   0.660   1.508 -0.2031 -0.7248  0.2759
  613MOL0     C80793   1.281   0.563   1.534 -0.6194  0.5497  0.5695
  613MOL0     C80794   1.250   0.484   1.655  0.7432  0.5952 -0.6265
  613MOL0     C80795   1.114   0.424   1.650  0.3852 -0.2933 -0.0612
  613MOL0     C80796   1.076   0.343   1.765 -0.9595 -0.1594 -0.4080
  613MOL0     C80797   0.947   0.260   1.737 -0.3671 -0.2695  1.2070
  613MOL0     C80798   0.956   0.176   1.609  0.6280 -0.1073  0.1607
  613MOL0     C80799   0.844   0.078   1.635 -0.0739 -0.2924 -0.0854
  613MOL0     C80800   0.813  -0.009   1.523 -0.2202 -0.2384  0.5585
  613MOL0     N80801   0.713  -0.113   1.563 -0.6749  0.8332  0.0254
  613MOL0     C80802   0.754  -0.229   1.629 -0.7986 -0.2032 -0.6374
  613MOL0     C80803   0.676  -0.337   1.592  0.2682 -0.1751 -0.2952
  613MOL0     C80804   0.699  -0.481   1.624  0.3776 -0.0478 -0.6958
  613MOL0     C80805   0.563  -0.551   1.640  0.1005 -0.0087  0.4231
  613MOL0     C80806   0.585  -0.688   1.692 -0.8038 -0.3920  0.4465
  613MOL0     C80807   0.451  -0.758   1.725 -0.5026  0.1553  0.4903
  613MOL0     O80808   0.395  -0.704   1.838  0.7023  0.3251  0.2153
  613MOL0     C80809   0.274  -0.778   1.856  0.0019 -0.2792 -0.5415
  613MOL0     C80810   0.160  -0.712   1.824 -0.3530 -0.3369  0.7212
  613MOL0     C80811   0.035  -0.781   1.852  0.8144 -1.1348  0.2114
  613MOL0     C80812   0.025  -0.901   1.910 -0.7380  0.5579 -1.3334
  613MOL0     C80813  -0.112  -0.964   1.929 -1.0513 -0.2820 -0.5979
  613MOL0     O80814  -0.124  -1.099   1.960 -0.0606  0.6634 -0.0188
  613MOL0     C80815  -0.245  -1.173   1.954 -0.2177 -0.0243 -0.3802
  613MOL0     C80816  -0.249  -1.309   1.994  0.2295 -0.2383  0.1792
  613MOL0     C80817  -0.360  -1.382   1.974  0.6276  0.0857 -0.7761
  613MOL0     C80818  -0.481  -1.322   1.955  0.3938 -0.4912  0.6861
  613MOL0     O80819  -0.602  -1.383   1.978  0.4637  0.5324 -0.2928
  613MOL0     C80820  -0.719  -1.345   1.905  0.3869 -0.0062  0.8087
  613MOL0     C80821  -0.815  -1.454   1.901 -0.6840 -0.2027  0.5973
  613MOL0     C80822  -0.780  -1.575   1.823  0.1812  0.5730  0.0219
  613MOL0     C80823  -0.762  -1.559   1.673  0.2190 -0.6609  0.5670
  613MOL0     C80824  -0.866  -1.476   1.602  0.0814  0.7287 -0.4437
  613MOL0     C80825  -0.832  -1.464   1.454  0.2556  0.4706 -0.5074
  613MOL0     C80826  -0.734  -1.354   1.414  0.5090 -0.7681 -0.2841
  613MOL0     C80827  -0.689  -1.365   1.265  0.3814  0.5905  1.1498
  613MOL0    Cl80828  -0.833  -1.352   1.157  0.6169  0.0952 -0.6458
  613MOL0     C80829  -0.482  -1.186   1.920 -0.0884  1.3466 -0.2959
  613MOL0     C80830  -0.364  -1.119   1.909 -0.3153  0.5390 -0.2540
  613MOL0     O80831  -0.201  -0.885   1.902 -1.0789 -0.1843  0.3522
  613MOL0     C80832   0.144  -0.963   1.939 -0.2601  0.7718  0.8626
  613MOL0     C80833   0.268  -0.910   1.904  0.1913 -0.3071  0.1201
  613MOL0     N80834   0.579  -0.278   1.505  0.9821 -0.1460  0.0233
  613MOL0     N80835   0.603  -0.149   1.498 -0.5292  0.1091  0.6803
  613MOL0     C80836   1.259   0.841   1.661  0.8772  0.4939 -0.3511
  613MOL0     C80837   1.267   0.984   1.674  0.2309 -0.2643  0.9717
  613MOL0     C80838   1.318   1.419   1.695  0.0672  0.5941 -0.1473
  613MOL0     C80839   1.333   1.481   1.571  0.0736  0.4022  0.0898
  613MOL0     C80840   1.357   1.617   1.557  0.8361  0.0669  0.0465
  613MOL0     C80841   1.347   1.697   1.659  1.0109  0.6423 -0.2808
  613MOL0     O80842   1.363   1.838   1.634  0.6099  1.0864  0.6260
  613MOL0     C80843   1.345   1.940   1.735 -0.5343 -0.3340  0.6641
  613MOL0     C80844   1.194   1.980   1.747  0.7468 -0.6178 -0.1636
  613MOL0     C80845   1.181   2.100   1.844 -0.0995 -0.6244  1.0946
  613MOL0     C80846   1.032   2.140   1.864  0.3204 -0.7799 -0.5851
  613MOL0     C80847   1.011   2.263   1.937  0.0141  0.9372 -0.0687
  613MOL0     C80848   1.005   2.357   2.022 -0.0177 -0.5354 -0.2440
  613MOL0     C80849   1.333   1.641   1.788 -0.3055  0.1257  0.1497
  613MOL0     C80850   1.329   1.503   1.812  0.5258 -0.2469  0.3977
  613MOL0     H80851   1.114   1.102   1.410  1.0660  0.7920  1.1766
  613MOL0     H80852   1.098   0.849   1.362  0.4890  0.6080 -1.1923
  613MOL0     H80853   1.384   0.598   1.548  0.3346 -1.6406 -0.5114
  613MOL0     H80854   1.283   0.490   1.452  2.5737  0.3432  0.7151
  613MOL0     H80855   1.261   0.548   1.743  4.6676  2.0749 -1.9546
  613MOL0     H80856   1.329   0.408   1.660 -0.0676 -0.2061  1.7689
  613MOL0     H80857   1.104   0.372   1.554 -0.5049 -0.4387  0.0993
  613MOL0     H80858   1.034   0.499   1.648  1.9601  1.4310 -1.7198
  613MOL0     H80859   1.163   0.279   1.782  0.5434  1.6763 -0.8316
  613MOL0     H80860   1.051   0.404   1.853 -1.5529 -0.3074 -0.4723
  613MOL0     H80861   0.863   0.328   1.720  3.1432  3.8440 -1.3758
  613MOL0     H80862   0.935   0.201   1.829 -1.7780 -0.9524  0.6135
  613MOL0     H80863   1.053   0.128   1.592  1.2299  1.9571 -3.0094
  613MOL0     H80864   0.939   0.242   1.523 -0.3681 -0.1650  0.3057
  613MOL0     H80865   0.886   0.021   1.719 -1.3773 -3.4384 -1.4328
  613MOL0     H80866   0.758   0.127   1.682 -0.2312 -2.0084  1.5254
  613MOL0     H80867   0.899  -0.060   1.477 -1.1350 -2.7040  1.4339
  613MOL0     H80868   0.765   0.053   1.447  1.2521 -1.9317 -1.9074
  613MOL0     H80869   0.837  -0.237   1.698 -0.8956 -1.3088 -0.6379
  613MOL0     H80870   0.755  -0.488   1.718  3.3731 -1.3126 -2.4311
  613MOL0     H80871   0.757  -0.524   1.542  1.9730  0.4982  0.1128
  613MOL0     H80872   0.505  -0.549   1.548  0.0351 -0.2177  0.4603
  613MOL0     H80873   0.503  -0.503   1.717  3.7482 -0.3345  3.8122
  613MOL0     H80874   0.634  -0.741   1.610  0.0002 -0.0419  0.6848
  613MOL0     H80875   0.653  -0.675   1.777  2.5384  2.0914 -2.3188
  613MOL0     H80876   0.485  -0.860   1.742  3.1689  1.3494  1.1807
  613MOL0     H80877   0.394  -0.736   1.634  0.8418 -0.5004 -0.5574
  613MOL0     H80878   0.170  -0.609   1.792 -4.1501  1.1544  3.5029
  613MOL0     H80879  -0.049  -0.720   1.820  0.3230 -0.7650  2.1010
  613MOL0     H80880  -0.159  -1.347   2.043 -1.7968 -3.6078  1.6071
  613MOL0     H80881  -0.369  -1.485   2.008 -0.8628  1.0185  1.9223
  613MOL0     H80882  -0.692  -1.324   1.801 -0.2320  0.2801  0.6981
  613MOL0     H80883  -0.769  -1.266   1.962 -0.2964 -0.6977  1.1934
  613MOL0     H80884  -0.914  -1.412   1.879 -0.1000  2.6700  2.8409
  613MOL0     H80885  -0.836  -1.501   1.997 -3.7171 -2.1071 -0.8450
  613MOL0     H80886  -0.863  -1.646   1.826  2.1620 -1.9298 -0.4586
  613MOL0     H80887  -0.689  -1.627   1.856 -0.8982 -0.8999  0.8073
  613MOL0     H80888  -0.666  -1.514   1.647  0.2291 -0.0255  1.6181
  613MOL0     H80889  -0.780  -1.658   1.630 -3.2678 -0.3411  0.9793
  613MOL0     H80890  -0.868  -1.374   1.643  1.3100 -0.5031  3.0359
  613MOL0     H80891  -0.959  -1.528   1.626  0.8736 -0.0829  1.0180
  613MOL0     H80892  -0.929  -1.453   1.405 -2.0484 -1.4598  3.1120
  613MOL0     H80893  -0.797  -1.562   1.421 -1.0172  0.2207 -1.1763
  613MOL0     H80894  -0.783  -1.258   1.427  0.0010 -0.6532 -2.5443
  613MOL0     H80895  -0.638  -1.354   1.467  0.2836  0.2940  0.1355
  613MOL0     H80896  -0.643  -1.463   1.250 -0.4221  0.6368 -2.7122
  613MOL0     H80897  -0.607  -1.294   1.251 -0.0336  1.0709  1.1277
  613MOL0     H80898  -0.573  -1.130   1.902 -0.1657  1.0823 -0.7531
  613MOL0     H80899  -0.377  -1.019   1.868 -0.3958 -0.8950 -4.1411
  613MOL0     H80900   0.138  -1.060   1.988 -1.0281  1.3726  1.9888
  613MOL0     H80901   0.362  -0.960   1.923 -0.8757 -2.3989  0.1507
  613MOL0     H80902   1.319   0.782   1.729  0.6561  1.8717  1.0987
  613MOL0     H80903   1.343   1.010   1.746  2.1265 -5.3469  1.2606
  613MOL0     H80904   1.329   1.429   1.475 -1.3480  1.5260 -0.4799
  613MOL0     H80905   1.371   1.661   1.459  1.8610  0.0878  0.1925
  613MOL0     H80906   1.403   2.025   1.698 -1.0418 -0.9126 -1.6208
  613MOL0     H80907   1.379   1.906   1.834  0.3408  2.6245  1.4742
  613MOL0     H80908   1.150   2.003   1.649  0.1411 -0.1625  0.2081
  613MOL0     H80909   1.137   1.898   1.789 -1.3539 -0.0518 -1.7384
  613MOL0     H80910   1.239   2.182   1.800  2.4612 -2.0474  1.6565
  613MOL0     H80911   1.223   2.088   1.944 -0.6325 -1.1477  1.2609
  613MOL0     H80912   0.986   2.161   1.767  0.2334  3.0034  0.1319
  613MOL0     H80913   0.989   2.048   1.906 -0.2105  0.4430  1.7510
  613MOL0     H80914   1.016   2.440   2.090  1.5309 -2.6025  2.1946
  613MOL0     H80915   1.327   1.711   1.871  1.9618  0.3837  0.1402
  613MOL0     H80916   1.304   1.492   1.917  1.3699 -0.2752  0.6022
  614MOL0     O80917   8.847  10.581   7.574 -0.7241 -0.4969 -0.3305
  614MOL0     C80918   8.787  10.480   7.542 -0.2156 -0.2730 -0.7616
  614MOL0     O80919   8.813  10.405   7.434 -0.1733 -0.6843  0.3605
  614MOL0     C80920   8.921  10.436   7.349  0.9630 -0.3493 -0.2892
  614MOL0     C80921   8.999  10.325   7.305  0.7213 -0.1112  0.4923
  614MOL0     C80922   9.104  10.348   7.218  0.0925 -0.3315  0.9863
  614MOL0     C80923   9.131  10.474   7.165 -0.6088 -0.2694  1.0621
  614MOL0     O80924   9.243  10.477   7.081  0.4846  0.4179 -0.2163
  614MOL0     C80925   9.262  10.594   7.005 -0.4061 -0.0164 -0.6782
  614MOL0     C80926   9.393  10.578   6.940  0.0816 -0.1396  0.1572
  614MOL0     C80927   9.421  10.681   6.831 -0.4098 -0.9474 -0.2645
  614MOL0     C80928   9.446  10.826   6.882 -0.1416  0.0400 -1.3456
  614MOL0     C80929   9.475  10.927   6.772 -0.9855  0.2388 -0.8232
  614MOL0     C80930   9.520  11.047   6.854 -0.6418  0.2777  0.8877
  614MOL0     C80931   9.531  11.172   6.765  0.0216 -0.4464 -0.5345
  614MOL0     C80932   9.608  11.148   6.641  0.5097  0.6149  0.6056
  614MOL0     N80933   9.747  11.097   6.664  0.6423  1.0351 -0.2179
  614MOL0     C80934   9.848  11.127   6.753 -0.0650  0.3830  0.0309
  614MOL0     C80935   9.948  11.040   6.722  0.7408 -0.5669  0.3049
  614MOL0     C80936  10.078  11.033   6.796 -0.2378 -1.1182  0.5141
  614MOL0     C80937  10.166  10.912   6.763  1.0682 -0.3520 -0.2117
  614MOL0     C80938  10.139  10.805   6.864 -0.5738  0.8769 -1.1377
  614MOL0     C80939  10.004  10.735   6.832  0.4932 -0.6293 -0.1922
  614MOL0     O80940   9.967  10.662   6.954  0.4971 -0.5396 -0.0491
  614MOL0     C80941  10.022  10.537   6.970 -0.8948 -0.4071 -0.3439
  614MOL0     C80942   9.978  10.463   7.083 -0.5475 -0.0064  0.3651
  614MOL0     C80943  10.017  10.329   7.096 -0.5563  0.5641 -0.1605
  614MOL0     C80944  10.104  10.263   6.995  0.2888 -0.8396  0.7953
  614MOL0     C80945  10.122  10.120   7.000  0.0608  0.2553  0.0509
  614MOL0     O80946  10.126  10.050   6.880  0.0357 -0.0989 -0.0572
  614MOL0     C80947  10.130   9.919   6.888 -0.5172  0.9005  0.2896
  614MOL0     C80948  10.247   9.876   6.834 -0.9620  0.3886  0.1090
  614MOL0     C80949  10.262   9.740   6.813  0.0470 -0.1240 -0.8110
  614MOL0     C80950  10.151   9.652   6.825 -0.1456 -0.2890 -0.8215
  614MOL0     O80951  10.172   9.521   6.799  0.7207  0.0653 -0.2141
  614MOL0     C80952  10.128   9.470   6.674  0.2031  0.0323 -0.3824
  614MOL0     C80953  10.036   9.342   6.684 -0.3073 -0.7236 -0.3674
  614MOL0     C80954   9.962   9.304   6.557  0.0018  1.0339  0.9717
  614MOL0     C80955   9.844   9.200   6.578  0.1702 -0.2828  0.2208
  614MOL0     C80956   9.701   9.279   6.567 -1.4070 -0.9974  0.2355
  614MOL0     C80957   9.576   9.187   6.561 -0.0472 -0.9141 -0.3649
  614MOL0     C80958   9.440   9.265   6.553 -0.1756 -0.4966  0.7471
  614MOL0     C80959   9.310   9.170   6.580  0.0448 -0.2191 -0.0595
  614MOL0    Cl80960   9.317   9.024   6.466 -0.1189 -0.2210  0.1114
  614MOL0     C80961  10.026   9.696   6.867  1.2440 -0.9403  0.0171
  614MOL0     C80962  10.014   9.833   6.900  0.7757 -0.1498  0.1085
  614MOL0     O80963  10.135  10.069   7.114 -0.7976 -0.2245 -0.0535
  614MOL0     C80964  10.153  10.340   6.892 -0.4033 -0.7134 -0.0953
  614MOL0     C80965  10.112  10.477   6.878  0.0899  0.3374 -0.2943
  614MOL0     N80966   9.918  10.970   6.611  0.4392  0.7746 -0.3772
  614MOL0     N80967   9.795  10.999   6.586  0.9772  0.3859  0.8122
  614MOL0     C80968   9.057  10.588   7.214  0.0683  0.7577 -0.3299
  614MOL0     C80969   8.955  10.568   7.294  0.0930 -0.2477  0.2290
  614MOL0     C80970   8.678  10.433   7.615  1.0473 -0.2460  0.2108
  614MOL0     C80971   8.607  10.310   7.586  1.1967 -0.5216 -0.0295
  614MOL0     C80972   8.508  10.261   7.666  0.3256  0.7352 -0.2046
  614MOL0     C80973   8.463  10.330   7.772  0.3023  0.9104  0.0023
  614MOL0     O80974   8.352  10.298   7.850  0.5337 -0.1213  0.1670
  614MOL0     C80975   8.325  10.160   7.881 -0.3121  0.0057  0.3029
  614MOL0     C80976   8.218  10.162   7.999 -0.4470 -0.1609 -0.4064
  614MOL0     C80977   8.196  10.009   8.034  0.1191  0.4240  0.6467
  614MOL0     C80978   8.103   9.990   8.161 -0.6559  1.3772  0.6885
  614MOL0     C80979   8.012   9.870   8.134 -0.3431  0.0598 -0.4277
  614MOL0     C80980   7.927   9.795   8.098  0.4951 -0.6289 -1.1086
  614MOL0     C80981   8.519  10.447   7.802 -0.3714  1.1715  0.1764
  614MOL0     C80982   8.634  10.495   7.726  1.4849  0.7174 -0.4598
  614MOL0     H80983   8.973  10.223   7.331  0.3181 -0.0433  0.3551
  614MOL0     H80984   9.167  10.265   7.189  0.2406 -0.4323  1.5960
  614MOL0     H80985   9.265  10.690   7.058 -2.9662  0.9903 -2.1512
  614MOL0     H80986   9.179  10.608   6.935  1.2782  0.1132 -2.7599
  614MOL0     H80987   9.393  10.480   6.892  0.3539 -0.0496 -0.0371
  614MOL0     H80988   9.474  10.575   7.014  0.8349  0.9415 -0.5852
  614MOL0     H80989   9.331  10.681   6.769 -1.4037 -1.4482  1.1122
  614MOL0     H80990   9.507  10.660   6.767  1.6298 -0.5209  2.1822
  614MOL0     H80991   9.356  10.857   6.935  0.1317  0.6582 -1.2413
  614MOL0     H80992   9.535  10.829   6.946 -1.6765  0.1057  0.8772
  614MOL0     H80993   9.391  10.954   6.708 -1.6435  0.8759  0.2697
  614MOL0     H80994   9.553  10.886   6.707 -0.6160 -1.3376  0.5667
  614MOL0     H80995   9.621  11.025   6.892 -0.2632 -1.9877 -1.1910
  614MOL0     H80996   9.454  11.069   6.939 -1.7076 -1.3950  0.5381
  614MOL0     H80997   9.432  11.211   6.739  1.1795  2.0234 -1.4824
  614MOL0     H80998   9.574  11.255   6.822 -1.3318 -1.0472  1.4958
  614MOL0     H80999   9.620  11.242   6.588  0.0863 -0.6020 -1.7704
  614MOL0     H81000   9.544  11.088   6.575  0.2299 -0.8262  2.1129
  614MOL0     H81001   9.837  11.202   6.830 -0.9302  0.2765  0.0178
  614MOL0     H81002  10.055  11.030   6.903 -0.1248  1.0112  0.6401
  614MOL0     H81003  10.142  11.121   6.787 -1.8019 -0.0874 -1.0627
  614MOL0     H81004  10.273  10.929   6.781  1.3708 -2.6260  0.4295
  614MOL0     H81005  10.151  10.877   6.661 -0.9567  1.1645 -0.5098
  614MOL0     H81006  10.219  10.731   6.853  0.2992  1.5938  0.1316
  614MOL0     H81007  10.146  10.843   6.966  4.8454  1.8720 -1.6131
  614MOL0     H81008  10.011  10.672   6.744  0.7621 -2.0329  0.8055
  614MOL0     H81009   9.930  10.816   6.829  1.3333  0.1318 -1.3031
  614MOL0     H81010   9.907  10.509   7.151 -1.3669 -0.9500  0.1804
  614MOL0     H81011   9.967  10.274   7.175  1.6715 -2.2332 -0.5559
  614MOL0     H81012  10.329   9.945   6.815 -0.1559 -1.0036 -1.7823
  614MOL0     H81013  10.366   9.714   6.799 -0.1769 -1.1119 -0.6983
  614MOL0     H81014  10.220   9.436   6.625 -0.1826  0.2643 -1.2938
  614MOL0     H81015  10.075   9.547   6.616 -0.2982  1.3825  1.7664
  614MOL0     H81016   9.965   9.369   6.762 -3.1318  2.4840 -3.6831
  614MOL0     H81017  10.099   9.260   6.720  2.5570  0.9611 -1.1991
  614MOL0     H81018  10.031   9.265   6.482 -2.4325 -0.5601 -0.5976
  614MOL0     H81019   9.933   9.395   6.504 -0.7077 -0.4642 -1.3708
  614MOL0     H81020   9.852   9.122   6.501  1.2033 -1.9857  1.9406
  614MOL0     H81021   9.856   9.146   6.673  2.1556  3.4786  2.3337
  614MOL0     H81022   9.714   9.340   6.477 -0.5889 -0.5776  0.6253
  614MOL0     H81023   9.684   9.348   6.650 -0.5035 -1.6150  0.9599
  614MOL0     H81024   9.570   9.126   6.652  0.2742  0.0845  0.3495
  614MOL0     H81025   9.576   9.133   6.466 -0.9526  1.7004 -1.9224
  614MOL0     H81026   9.432   9.358   6.609 -0.1584  3.6510 -5.2433
  614MOL0     H81027   9.433   9.299   6.450 -1.3480 -1.4092  0.5062
  614MOL0     H81028   9.220   9.231   6.572  1.0314  1.8339  2.9432
  614MOL0     H81029   9.320   9.114   6.674  0.3890  0.8840  0.5742
  614MOL0     H81030   9.951   9.618   6.878 -0.3950  0.5686 -0.0166
  614MOL0     H81031   9.913   9.861   6.930  1.3730  0.1722  1.8926
  614MOL0     H81032  10.213  10.284   6.821  0.4467 -0.2043  0.2164
  614MOL0     H81033  10.142  10.525   6.786 -4.8078 -0.1921 -2.4737
  614MOL0     H81034   9.082  10.693   7.203  1.1330  0.5646  0.1632
  614MOL0     H81035   8.891  10.654   7.313 -0.0561 -0.6752  1.8471
  614MOL0     H81036   8.632  10.248   7.500  0.7051 -1.0463  0.2064
  614MOL0     H81037   8.444  10.179   7.633 -1.7403  2.8331 -1.7111
  614MOL0     H81038   8.420  10.117   7.913 -0.2844  0.9350  1.5321
  614MOL0     H81039   8.284  10.107   7.794 -1.7624 -2.4662  2.3628
  614MOL0     H81040   8.252  10.225   8.082  1.0601 -0.7775 -0.5087
  614MOL0     H81041   8.126  10.199   7.955 -0.1520 -2.0194 -2.7862
  614MOL0     H81042   8.292   9.960   8.052  0.6707 -0.2791 -3.3709
  614MOL0     H81043   8.163   9.957   7.944  4.5874 -0.5538 -0.6582
  614MOL0     H81044   8.165   9.969   8.248  0.5675 -2.2401 -0.8539
  614MOL0     H81045   8.041  10.078   8.181 -3.9159 -0.9840  1.8462
  614MOL0     H81046   7.866   9.711   8.069 -0.5575  0.5260 -2.3561
  614MOL0     H81047   8.483  10.503   7.888 -1.1985  1.2179 -0.1949
  614MOL0     H81048   8.676  10.585   7.768 -2.9813  1.9202  2.0554
  615MOL0     O81049   2.070   7.078   2.662 -0.4065 -0.0198  0.2884
  615MOL0     C81050   2.102   7.184   2.715  0.2100 -0.9321 -0.2049
  615MOL0     O81051   2.076   7.215   2.843 -0.4828 -0.3748 -0.1714
  615MOL0     C81052   2.021   7.128   2.937  0.7855  0.1429 -0.0740
  615MOL0     C81053   1.900   7.159   3.002  0.2520 -0.0580  0.2020
  615MOL0     C81054   1.849   7.080   3.100 -0.4478 -0.6186 -0.0639
  615MOL0     C81055   1.905   6.955   3.123  0.9337  0.3929  0.0738
  615MOL0     O81056   1.835   6.878   3.219  0.7589  0.0113  0.1724
  615MOL0     C81057   1.893   6.757   3.268  0.5853 -0.0409  0.8919
  615MOL0     C81058   1.818   6.711   3.387 -0.8020 -0.2466  0.2643
  615MOL0     C81059   1.877   6.563   3.426  0.6730  0.0166  0.4056
  615MOL0     C81060   1.783   6.492   3.527 -0.0284 -0.5076  0.3087
  615MOL0     C81061   1.768   6.569   3.666 -0.1004 -0.1126 -0.1153
  615MOL0     C81062   1.906   6.623   3.720 -0.0593  0.0683 -0.0187
  615MOL0     C81063   1.899   6.640   3.873 -0.3767 -0.2454  0.5299
  615MOL0     C81064   1.992   6.745   3.941  0.2652 -0.1221 -0.1681
  615MOL0     N81065   1.946   6.888   3.917 -0.0320  0.7438 -0.9356
  615MOL0     C81066   1.940   6.952   3.797  0.6406  0.4920  0.8022
  615MOL0     C81067   1.879   7.060   3.834 -0.2849  0.0502  0.2099
  615MOL0     C81068   1.830   7.158   3.744  0.6099  0.1670  0.6578
  615MOL0     C81069   1.909   7.288   3.762  0.3738  0.5200 -0.2827
  615MOL0     C81070   1.873   7.408   3.678 -0.7361  0.3650 -0.1331
  615MOL0     C81071   1.719   7.435   3.689  0.5167 -0.6838 -0.8786
  615MOL0     O81072   1.692   7.502   3.819 -0.5163  0.3975 -0.1388
  615MOL0     C81073   1.593   7.597   3.823 -0.6305  0.1239  0.0670
  615MOL0     C81074   1.607   7.685   3.928  0.4230  0.2151 -0.2037
  615MOL0     C81075   1.522   7.797   3.931  0.2259 -0.5793 -0.0437
  615MOL0     C81076   1.430   7.826   3.827  0.2439  0.2080 -0.0512
  615MOL0     C81077   1.347   7.948   3.821  0.1710 -0.2921  0.4665
  615MOL0     O81078   1.371   8.027   3.930 -0.0869  0.5173 -1.0432
  615MOL0     C81079   1.270   8.106   3.976 -0.3623  0.1056 -1.1916
  615MOL0     C81080   1.252   8.114   4.113  0.2918 -0.2852  0.1290
  615MOL0     C81081   1.149   8.200   4.165 -0.8204  0.2955 -0.5921
  615MOL0     C81082   1.079   8.285   4.083 -0.1361  1.6914 -0.0917
  615MOL0     O81083   0.989   8.371   4.137  0.4748  1.1075  0.6232
  615MOL0     C81084   0.932   8.474   4.050  0.3229 -0.9593 -0.1269
  615MOL0     C81085   0.847   8.570   4.144 -0.3697  0.4400  1.1693
  615MOL0     C81086   0.941   8.668   4.218 -0.1259 -0.4196  0.4665
  615MOL0     C81087   0.876   8.789   4.281 -0.7149  0.4943  0.0238
  615MOL0     C81088   0.860   8.900   4.183 -0.4380 -0.0252 -0.2151
  615MOL0     C81089   0.789   9.023   4.238  0.2537 -0.4721  0.4447
  615MOL0     C81090   0.864   9.147   4.187  0.3746  0.0030 -0.1823
  615MOL0     C81091   0.801   9.290   4.220  0.0808  0.0092 -0.4548
  615MOL0    Cl81092   0.629   9.286   4.192 -0.1150 -0.0488  0.1990
  615MOL0     C81093   1.108   8.284   3.947  0.3442 -0.3506 -0.4280
  615MOL0     C81094   1.197   8.195   3.891  0.4045 -0.1595  0.5981
  615MOL0     O81095   1.269   7.968   3.728 -0.3894 -1.1291  0.2480
  615MOL0     C81096   1.408   7.716   3.734 -0.1242 -0.9894  0.7181
  615MOL0     C81097   1.492   7.606   3.732 -0.0764 -0.3147  0.0881
  615MOL0     N81098   1.852   7.067   3.967 -0.0222  0.7671  0.2435
  615MOL0     N81099   1.887   6.955   4.020 -0.6617  0.0159 -0.5135
  615MOL0     C81100   2.015   6.915   3.042  0.2033 -0.6125  0.0317
  615MOL0     C81101   2.067   6.996   2.945 -0.2704  0.2807 -0.3358
  615MOL0     C81102   2.172   7.292   2.634  0.7436  0.7651  0.4624
  615MOL0     C81103   2.226   7.406   2.697  0.4713  0.6445  0.6168
  615MOL0     C81104   2.297   7.504   2.627  0.1046 -0.0512  0.4394
  615MOL0     C81105   2.318   7.502   2.484 -0.3769  0.0928  0.7185
  615MOL0     O81106   2.402   7.597   2.434 -0.7369 -0.2217  0.1787
  615MOL0     C81107   2.426   7.584   2.302 -0.4932 -0.3070 -0.8458
  615MOL0     C81108   2.319   7.665   2.232 -0.2305  0.0741 -0.1611
  615MOL0     C81109   2.328   7.661   2.079 -0.2131  0.3547  0.3289
  615MOL0     C81110   2.231   7.753   2.016  0.6592 -0.2156  0.5496
  615MOL0     C81111   2.280   7.892   2.025  0.0269  0.0895  0.8195
  615MOL0     C81112   2.346   7.990   2.033  0.5732 -0.2316  0.2977
  615MOL0     C81113   2.243   7.401   2.420  0.6309  0.1544 -0.8480
  615MOL0     C81114   2.177   7.295   2.494  0.0848 -1.5681  0.6812
  615MOL0     H81115   1.856   7.257   2.984  1.0224 -0.0059 -1.6424
  615MOL0     H81116   1.763   7.113   3.158 -0.0287 -0.7646  0.6596
  615MOL0     H81117   1.999   6.768   3.293  1.1778  1.1810 -1.8279
  615MOL0     H81118   1.873   6.678   3.195 -0.8114  1.1759 -0.0931
  615MOL0     H81119   1.711   6.703   3.368 -1.0751 -0.8635  1.9404
  615MOL0     H81120   1.837   6.771   3.477  1.0443 -0.9751  0.4152
  615MOL0     H81121   1.980   6.576   3.459  0.3482  1.5352  0.9211
  615MOL0     H81122   1.866   6.503   3.336  0.0770  1.6589 -0.6669
  615MOL0     H81123   1.682   6.486   3.486  0.3406 -1.3216 -0.5149
  615MOL0     H81124   1.815   6.389   3.548  0.9898 -0.5297 -1.2155
  615MOL0     H81125   1.722   6.494   3.730  3.7684 -0.4960  2.5570
  615MOL0     H81126   1.693   6.648   3.659  0.0976  0.1833  1.0195
  615MOL0     H81127   1.935   6.717   3.671  1.7548 -0.2516  0.3633
  615MOL0     H81128   1.985   6.552   3.693 -1.4033 -1.4039 -0.2184
  615MOL0     H81129   1.797   6.667   3.905  0.2110 -1.6414  3.9936
  615MOL0     H81130   1.914   6.548   3.929 -0.0134 -0.8875 -0.5939
  615MOL0     H81131   2.097   6.732   3.914  1.5226  3.7325  2.1317
  615MOL0     H81132   1.998   6.724   4.048  3.6075  2.8562  0.4053
  615MOL0     H81133   1.973   6.921   3.699  3.4598 -0.7580  2.0476
  615MOL0     H81134   1.723   7.177   3.754  0.6339  1.5615 -1.1007
  615MOL0     H81135   1.844   7.129   3.639 -2.2247 -0.2385  0.3208
  615MOL0     H81136   2.008   7.252   3.731 -0.4405 -0.5735 -1.7080
  615MOL0     H81137   1.908   7.319   3.867 -1.9445 -0.2399 -0.0360
  615MOL0     H81138   1.923   7.491   3.728 -3.2383  2.5047 -0.9775
  615MOL0     H81139   1.914   7.391   3.578 -0.4838 -1.1134  0.1890
  615MOL0     H81140   1.646   7.356   3.668 -0.2324 -0.4021  0.5448
  615MOL0     H81141   1.701   7.510   3.611  0.5305  1.9084  1.4623
  615MOL0     H81142   1.690   7.676   3.998  2.3924 -2.9608 -2.6097
  615MOL0     H81143   1.535   7.864   4.015 -0.4906 -1.5903  0.9047
  615MOL0     H81144   1.322   8.052   4.169  5.2078  3.3685 -1.2237
  615MOL0     H81145   1.126   8.204   4.271 -0.3930  1.4871 -0.5226
  615MOL0     H81146   0.873   8.422   3.974 -1.0513  1.0278 -0.4751
  615MOL0     H81147   1.023   8.515   4.004 -0.5653  2.4307  0.9256
  615MOL0     H81148   0.788   8.516   4.219  1.0280 -0.5228  1.6305
  615MOL0     H81149   0.768   8.619   4.087  0.0095 -1.4576 -1.1363
  615MOL0     H81150   1.025   8.692   4.153  0.8303 -1.1139  1.4104
  615MOL0     H81151   0.998   8.605   4.287  0.4759 -0.1068  0.2674
  615MOL0     H81152   0.776   8.766   4.321 -1.6062 -2.5798 -3.4530
  615MOL0     H81153   0.951   8.817   4.356  1.1253  1.8118 -2.1866
  615MOL0     H81154   0.797   8.851   4.108  1.7330 -0.2855 -1.9632
  615MOL0     H81155   0.957   8.930   4.143 -1.7091  0.8745 -2.8604
  615MOL0     H81156   0.803   9.030   4.347  0.3450 -0.7586  0.4521
  615MOL0     H81157   0.687   9.023   4.198  1.0586 -1.2945 -1.7761
  615MOL0     H81158   0.962   9.123   4.229 -0.3694 -2.6078  0.2196
  615MOL0     H81159   0.874   9.140   4.078  2.7117  1.4717 -0.1154
  615MOL0     H81160   0.843   9.366   4.153  3.2414 -0.5449  0.7298
  615MOL0     H81161   0.819   9.316   4.325 -4.3787  0.5887  0.3962
  615MOL0     H81162   1.065   8.352   3.873 -1.5072 -1.8007 -0.7643
  615MOL0     H81163   1.206   8.207   3.783  0.1837  2.2486  0.7924
  615MOL0     H81164   1.336   7.734   3.655 -1.1403  0.1587  1.8635
  615MOL0     H81165   1.477   7.544   3.644  2.9147 -2.1223  0.6952
  615MOL0     H81166   2.053   6.816   3.064  0.6350 -0.0267  2.0862
  615MOL0     H81167   2.143   6.949   2.883 -0.1572 -1.9782  1.3807
  615MOL0     H81168   2.233   7.415   2.805 -1.4726 -0.6501  0.8953
  615MOL0     H81169   2.326   7.590   2.687  2.4148  2.9329 -4.2758
  615MOL0     H81170   2.437   7.480   2.270 -1.8949 -1.3489  1.8025
  615MOL0     H81171   2.517   7.635   2.269  0.5159  0.8068  3.1290
  615MOL0     H81172   2.216   7.650   2.266 -0.3734 -0.7049 -0.9126
  615MOL0     H81173   2.343   7.768   2.261 -2.2363  0.0486  1.8502
  615MOL0     H81174   2.298   7.557   2.062 -2.0071  0.4880  2.2514
  615MOL0     H81175   2.434   7.663   2.051  0.8598 -1.3968  3.7582
  615MOL0     H81176   2.211   7.740   1.909  0.0812  0.3299  0.5842
  615MOL0     H81177   2.133   7.736   2.062 -0.2970  1.2771 -0.8392
  615MOL0     H81178   2.410   8.076   2.029  2.5390 -1.5946  0.6416
  615MOL0     H81179   2.250   7.391   2.312  0.1310  2.4973 -1.1552
  615MOL0     H81180   2.129   7.209   2.448 -1.2932  0.0741 -1.0983
  616MOL0     O81181   9.917   7.225   2.818  0.3953 -0.5411 -1.0420
  616MOL0     C81182   9.853   7.131   2.853 -0.2798  0.3175 -1.0593
  616MOL0     O81183   9.739   7.088   2.792 -0.7094  0.1255  0.1084
  616MOL0     C81184   9.702   7.130   2.668  0.3960  0.1677  0.1759
  616MOL0     C81185   9.567   7.159   2.637  0.1593  0.1671 -0.2943
  616MOL0     C81186   9.540   7.207   2.506  0.8039  0.2028 -0.4739
  616MOL0     C81187   9.637   7.234   2.410 -0.1184  0.7689 -0.3841
  616MOL0     O81188   9.603   7.294   2.295  0.2549  0.8997 -1.1063
  616MOL0     C81189   9.704   7.370   2.221 -0.7117  0.7802 -0.7488
  616MOL0     C81190   9.722   7.509   2.294  0.0481  0.0388  0.0857
  616MOL0     C81191   9.623   7.625   2.252  0.5331  0.3012 -0.6113
  616MOL0     C81192   9.652   7.751   2.330 -0.7551  0.0230 -0.3411
  616MOL0     C81193   9.577   7.873   2.278 -0.1570  0.1588  0.7370
  616MOL0     C81194   9.424   7.856   2.275 -0.6715  0.4413 -0.1877
  616MOL0     C81195   9.349   7.961   2.197  0.3891  0.1391  0.3427
  616MOL0     C81196   9.232   8.007   2.263  0.8798 -0.1975 -0.5701
  616MOL0     N81197   9.168   8.118   2.198  0.2675  0.2719  0.7810
  616MOL0     C81198   9.083   8.211   2.251 -0.8051 -0.7473 -0.3062
  616MOL0     C81199   9.038   8.276   2.145 -0.7368  0.4403  0.4891
  616MOL0     C81200   8.953   8.397   2.123  0.2496 -0.3474  0.1636
  616MOL0     C81201   8.828   8.377   2.217  1.3507 -0.2278 -0.3326
  616MOL0     C81202   8.716   8.484   2.206  1.4484  1.4414 -0.3036
  616MOL0     C81203   8.596   8.445   2.116 -0.1038 -1.1508 -0.1427
  616MOL0     O81204   8.546   8.307   2.107 -1.0387  0.2648 -0.2904
  616MOL0     C81205   8.506   8.244   2.223  0.2632  0.7472  0.2169
  616MOL0     C81206   8.453   8.306   2.340  0.1449  0.3521  0.7634
  616MOL0     C81207   8.413   8.224   2.438  1.1883  1.7505 -0.3213
  616MOL0     C81208   8.412   8.086   2.438 -0.2845  0.0238 -0.1072
  616MOL0     C81209   8.342   8.018   2.549 -0.3610  0.1882  1.1457
  616MOL0     O81210   8.299   8.088   2.661  0.5483  0.1166  0.6731
  616MOL0     C81211   8.223   8.021   2.757  0.4120 -0.5868  0.6369
  616MOL0     C81212   8.255   8.050   2.887 -0.8588 -0.5643  0.6445
  616MOL0     C81213   8.195   7.982   2.991 -0.4406 -0.8264 -1.0035
  616MOL0     C81214   8.084   7.901   2.964 -1.2417  1.1942  0.1927
  616MOL0     O81215   7.986   7.875   3.063 -1.2431 -0.4099 -0.2983
  616MOL0     C81216   8.026   7.861   3.197 -0.2559  0.5113 -1.1395
  616MOL0     C81217   7.912   7.832   3.301  0.8408  1.2659 -0.1361
  616MOL0     C81218   7.804   7.736   3.248  1.0063 -1.0713 -1.2688
  616MOL0     C81219   7.864   7.595   3.222 -0.1736 -0.2240  0.6489
  616MOL0     C81220   7.764   7.495   3.154 -0.3989 -0.0986  0.4284
  616MOL0     C81221   7.667   7.433   3.255  1.2425 -0.1412  0.0800
  616MOL0     C81222   7.561   7.352   3.180  0.4756 -0.2920  0.0328
  616MOL0     C81223   7.620   7.240   3.090  0.8131  0.1094  0.9236
  616MOL0    Cl81224   7.469   7.157   3.025 -0.0017  0.4021 -0.0485
  616MOL0     C81225   8.065   7.855   2.836  0.1261  0.1435 -0.0732
  616MOL0     C81226   8.126   7.921   2.730  0.1914  0.3792  0.4775
  616MOL0     O81227   8.334   7.896   2.526  0.2917 -0.4275  0.3998
  616MOL0     C81228   8.463   8.022   2.323 -0.3186  0.0179  0.1761
  616MOL0     C81229   8.510   8.106   2.220  0.7044 -0.4646  0.0193
  616MOL0     N81230   9.105   8.233   2.031 -0.2855  0.3845 -0.4699
  616MOL0     N81231   9.178   8.131   2.069  0.0729 -0.1694  0.1030
  616MOL0     C81232   9.770   7.197   2.439  1.0157  0.7093  0.0081
  616MOL0     C81233   9.799   7.140   2.567  0.5016  0.1372 -0.1662
  616MOL0     C81234   9.884   7.071   2.982 -0.0622 -0.8673 -0.3291
  616MOL0     C81235   9.824   6.961   3.031 -0.1330 -0.5459 -0.5781
  616MOL0     C81236   9.864   6.901   3.154  0.6327  1.0805  0.1020
  616MOL0     C81237   9.973   6.954   3.226  0.4584 -0.5005 -0.5762
  616MOL0     O81238  10.004   6.880   3.336 -0.7777  0.3501  0.1291
  616MOL0     C81239  10.139   6.843   3.364  0.2013  0.5099 -0.7030
  616MOL0     C81240  10.139   6.734   3.477 -0.4341 -1.6308 -0.0129
  616MOL0     C81241  10.099   6.604   3.420 -1.3462  1.0922  0.0529
  616MOL0     C81242  10.119   6.497   3.520  0.1880 -0.0168  0.0081
  616MOL0     C81243  10.068   6.359   3.478 -0.1013 -1.0596 -0.1171
  616MOL0     C81244  10.014   6.246   3.478  0.7075 -0.3338 -0.2606
  616MOL0     C81245  10.029   7.069   3.180 -0.4611  0.0163  0.0594
  616MOL0     C81246   9.989   7.119   3.066 -0.0194 -1.4837  0.0481
  616MOL0     H81247   9.489   7.138   2.710  2.1517 -1.9619  1.3523
  616MOL0     H81248   9.436   7.229   2.482  0.2557  1.2274  2.4438
  616MOL0     H81249   9.677   7.385   2.117  1.5141  0.0274 -1.4979
  616MOL0     H81250   9.801   7.320   2.213  0.0219  1.8994  0.5728
  616MOL0     H81251   9.821   7.545   2.266 -0.0631 -0.3089 -0.7846
  616MOL0     H81252   9.712   7.496   2.402  2.4306  0.5703  0.4272
  616MOL0     H81253   9.522   7.599   2.286  1.1711  0.8439  1.9056
  616MOL0     H81254   9.611   7.642   2.144 -1.3584 -2.3226 -0.8959
  616MOL0     H81255   9.624   7.737   2.435  3.4246  0.2623  0.9865
  616MOL0     H81256   9.761   7.763   2.331 -0.6290 -1.0003 -0.4066
  616MOL0     H81257   9.606   7.903   2.177 -1.7698  0.7096  0.4086
  616MOL0     H81258   9.610   7.956   2.342  3.1190  1.7558 -2.6430
  616MOL0     H81259   9.388   7.857   2.378 -1.5374 -0.0968 -0.4713
  616MOL0     H81260   9.407   7.759   2.228  2.1129 -0.6123  0.7855
  616MOL0     H81261   9.410   8.046   2.165  1.9639 -1.5588 -1.4549
  616MOL0     H81262   9.321   7.906   2.106  1.9895  0.2792 -0.2649
  616MOL0     H81263   9.261   8.034   2.365 -0.6109  1.2772 -0.5031
  616MOL0     H81264   9.159   7.925   2.261 -1.0812  1.4874 -0.8178
  616MOL0     H81265   9.056   8.217   2.356 -1.1226  1.1229 -0.4626
  616MOL0     H81266   8.918   8.396   2.020  2.5299 -2.5553 -0.6761
  616MOL0     H81267   9.007   8.491   2.140  0.4798  0.0935 -2.6259
  616MOL0     H81268   8.857   8.392   2.321 -0.2268  1.6624 -0.0960
  616MOL0     H81269   8.790   8.274   2.217 -0.8937  0.5448 -0.4141
  616MOL0     H81270   8.667   8.499   2.303 -3.5030  0.7805 -2.3918
  616MOL0     H81271   8.773   8.570   2.168  1.2090  1.1452 -1.3671
  616MOL0     H81272   8.616   8.479   2.014  2.9559 -1.4058  0.2715
  616MOL0     H81273   8.513   8.506   2.153  1.7563  0.6957  1.2085
  616MOL0     H81274   8.437   8.413   2.353 -4.2097  0.0436 -0.4449
  616MOL0     H81275   8.358   8.272   2.519  0.7363  0.5233  0.1396
  616MOL0     H81276   8.327   8.130   2.902  0.0675 -1.1820 -0.3138
  616MOL0     H81277   8.223   8.001   3.094  5.6962 -1.4940 -2.2074
  616MOL0     H81278   8.059   7.954   3.243 -1.5631  0.9078 -0.9452
  616MOL0     H81279   8.101   7.782   3.208 -0.9648 -0.2432 -1.5671
  616MOL0     H81280   7.859   7.923   3.332 -0.9822 -0.1793  1.1851
  616MOL0     H81281   7.951   7.792   3.394  0.8153  0.5348 -0.4362
  616MOL0     H81282   7.744   7.762   3.160 -2.9470 -1.0221  1.1820
  616MOL0     H81283   7.721   7.738   3.319 -0.7940  5.1530 -2.9364
  616MOL0     H81284   7.939   7.611   3.144 -1.0142 -1.1231 -0.3838
  616MOL0     H81285   7.917   7.552   3.308  3.4671  3.0501  0.3339
  616MOL0     H81286   7.820   7.411   3.113 -3.5195 -1.5772 -1.1247
  616MOL0     H81287   7.720   7.546   3.068 -2.3600  1.6910  2.3703
  616MOL0     H81288   7.617   7.517   3.305 -0.4271 -1.1100  0.0862
  616MOL0     H81289   7.718   7.370   3.328 -1.0779 -1.7708  0.3840
  616MOL0     H81290   7.496   7.298   3.250 -0.1987 -0.5471 -0.7837
  616MOL0     H81291   7.497   7.421   3.125 -0.6402 -1.8269 -0.6601
  616MOL0     H81292   7.680   7.176   3.155  1.2276  2.3873  2.9195
  616MOL0     H81293   7.673   7.285   3.005 -0.1838  1.8867  1.1971
  616MOL0     H81294   7.983   7.792   2.804  0.1034  0.4444 -0.6269
  616MOL0     H81295   8.108   7.892   2.627 -0.5574  0.0174  0.7112
  616MOL0     H81296   8.462   7.914   2.313 -0.6086 -0.0643  1.0021
  616MOL0     H81297   8.548   8.073   2.124  0.9189  0.7925 -0.3554
  616MOL0     H81298   9.853   7.202   2.369  0.7771  0.3078 -0.3109
  616MOL0     H81299   9.899   7.101   2.587 -0.3735 -1.2294  1.9151
  616MOL0     H81300   9.747   6.905   2.979 -2.1990 -0.5185  2.2519
  616MOL0     H81301   9.825   6.803   3.178 -0.1410  1.5753  0.9189
  616MOL0     H81302  10.193   6.929   3.404  6.5002 -3.5087  0.8049
  616MOL0     H81303  10.198   6.808   3.279 -0.3801  0.5319 -1.1259
  616MOL0     H81304  10.245   6.733   3.504 -0.1167 -2.2192 -1.2093
  616MOL0     H81305  10.080   6.763   3.565  2.3113 -3.4490  2.6443
  616MOL0     H81306  10.147   6.588   3.323 -0.7254  1.0577  0.3582
  616MOL0     H81307   9.993   6.605   3.392 -1.1397 -2.5707 -1.3934
  616MOL0     H81308  10.228   6.493   3.523  0.1331 -1.7774  1.4524
  616MOL0     H81309  10.079   6.526   3.617 -0.1502 -2.1078  0.5463
  616MOL0     H81310   9.966   6.151   3.468 -0.4421  0.3100 -1.1521
  616MOL0     H81311  10.108   7.116   3.238 -3.2071  2.0705  2.3956
  616MOL0     H81312  10.041   7.210   3.041 -0.7322 -0.6849  1.3683
  617MOL0     O81313   1.542   5.884   0.415 -0.4428 -0.1538 -0.0770
  617MOL0     C81314   1.424   5.940   0.416 -0.1507  0.5791  0.1153
  617MOL0     O81315   1.347   5.962   0.300 -0.1768  0.2229 -0.1157
  617MOL0     C81316   1.387   5.916   0.179  0.6080 -0.0686  0.9404
  617MOL0     C81317   1.421   5.996   0.070 -0.3703 -0.0139 -0.9942
  617MOL0     C81318   1.459   5.932  -0.043  0.4284 -0.0397  0.3432
  617MOL0     C81319   1.464   5.798  -0.058 -0.6140  0.3497  0.4383
  617MOL0     O81320   1.525   5.764  -0.175 -0.1237 -0.1372  0.5408
  617MOL0     C81321   1.540   5.624  -0.203  0.1957  0.9983 -0.3667
  617MOL0     C81322   1.586   5.606  -0.350  0.2358  0.5866  0.1724
  617MOL0     C81323   1.498   5.681  -0.453 -0.4040  0.6885  0.2196
  617MOL0     C81324   1.539   5.656  -0.600 -0.0566 -0.5325 -0.0431
  617MOL0     C81325   1.659   5.741  -0.634  0.3254  0.1071  0.1578
  617MOL0     C81326   1.703   5.729  -0.784 -0.1135 -0.5202  0.6080
  617MOL0     C81327   1.782   5.856  -0.830  0.0782  0.3531 -0.8314
  617MOL0     C81328   1.881   5.832  -0.932  0.2027 -0.2035  0.0054
  617MOL0     N81329   1.826   5.744  -1.035 -0.3555 -0.9765  0.1707
  617MOL0     C81330   1.736   5.788  -1.128  0.3582 -0.6998 -0.5455
  617MOL0     C81331   1.706   5.679  -1.197 -0.7408  0.6532  1.4494
  617MOL0     C81332   1.601   5.654  -1.313 -0.4281  0.3347  0.0217
  617MOL0     C81333   1.468   5.614  -1.266 -0.0293  0.4429  0.6945
  617MOL0     C81334   1.405   5.725  -1.184 -0.2255  0.5428 -0.3008
  617MOL0     C81335   1.251   5.695  -1.170  0.0649 -0.0233  0.3787
  617MOL0     O81336   1.216   5.741  -1.038  0.5279 -0.4488  0.3760
  617MOL0     C81337   1.200   5.650  -0.934 -0.2319  0.0579  0.4652
  617MOL0     C81338   1.265   5.524  -0.925 -0.1531 -1.2104 -0.2855
  617MOL0     C81339   1.249   5.439  -0.816 -0.9896  0.0295  0.1835
  617MOL0     C81340   1.159   5.478  -0.720 -0.9977  1.5614 -0.2054
  617MOL0     C81341   1.133   5.392  -0.600  0.4712 -0.3206 -0.7072
  617MOL0     O81342   1.229   5.303  -0.564 -0.3209  0.1683  0.6872
  617MOL0     C81343   1.232   5.220  -0.457  0.9595 -0.1255 -0.0047
  617MOL0     C81344   1.116   5.176  -0.399  0.7746 -0.7885 -0.7322
  617MOL0     C81345   1.128   5.081  -0.302  0.3486  0.2002  0.2580
  617MOL0     C81346   1.251   5.032  -0.254 -0.8478 -0.0537 -0.7348
  617MOL0     O81347   1.271   4.958  -0.141 -0.1295 -0.8855 -0.5304
  617MOL0     C81348   1.160   4.934  -0.050  0.1651 -0.1697 -0.3373
  617MOL0     C81349   1.227   4.865   0.073 -0.2993  0.7826 -0.8954
  617MOL0     C81350   1.123   4.772   0.144  0.6130 -0.2734 -0.5470
  617MOL0     C81351   1.180   4.706   0.267 -0.0056 -0.3029 -0.5227
  617MOL0     C81352   1.060   4.659   0.357  0.1113  0.1538 -0.0402
  617MOL0     C81353   1.113   4.534   0.446  0.6355 -0.6966  0.3881
  617MOL0     C81354   1.008   4.490   0.540  0.5840 -0.1648 -0.3156
  617MOL0     C81355   1.000   4.574   0.667  0.0836  0.3881 -0.2106
  617MOL0    Cl81356   1.134   4.563   0.774 -0.0346  0.3305 -0.2619
  617MOL0     C81357   1.368   5.067  -0.321 -0.3501  0.3049 -0.4747
  617MOL0     C81358   1.361   5.165  -0.422  0.8173 -0.4559 -1.4365
  617MOL0     O81359   1.036   5.426  -0.532  0.4879 -0.2489  0.3074
  617MOL0     C81360   1.094   5.601  -0.733  0.5554  0.6454 -1.0028
  617MOL0     C81361   1.097   5.678  -0.843  0.1599 -0.1656 -0.8149
  617MOL0     N81362   1.799   5.577  -1.161 -0.4272 -0.3792  0.0281
  617MOL0     N81363   1.870   5.620  -1.059  0.4857 -0.3224 -0.4972
  617MOL0     C81364   1.421   5.712   0.043  1.4418 -0.9095  0.5120
  617MOL0     C81365   1.378   5.776   0.160  1.3705 -0.2381  0.4993
  617MOL0     C81366   1.366   5.961   0.548  0.4916 -0.4069 -0.5643
  617MOL0     C81367   1.241   6.017   0.560 -0.0754 -1.0159  0.4853
  617MOL0     C81368   1.188   6.048   0.687  0.3506  0.0180  0.2074
  617MOL0     C81369   1.247   6.030   0.808 -0.3880  0.9695  0.8305
  617MOL0     O81370   1.207   6.058   0.934 -0.1699  0.6830  0.4313
  617MOL0     C81371   1.066   6.087   0.932 -0.1773 -0.4809 -0.8524
  617MOL0     C81372   1.020   6.112   1.080  0.3395  0.3059  0.9336
  617MOL0     C81373   1.109   6.199   1.167 -0.6500 -0.5311  0.3097
  617MOL0     C81374   1.109   6.349   1.114  0.1843 -0.2669 -0.7911
  617MOL0     C81375   0.972   6.405   1.096  0.3112  0.1455 -0.7313
  617MOL0     C81376   0.860   6.450   1.083 -0.4096  0.0137  0.0297
  617MOL0     C81377   1.371   5.951   0.798 -0.0455  0.0492  0.0010
  617MOL0     C81378   1.427   5.922   0.666  0.4752 -0.0410 -1.3495
  617MOL0     H81379   1.406   6.103   0.081 -2.1738  0.0179 -3.1357
  617MOL0     H81380   1.492   5.993  -0.127 -3.3760  0.4570 -0.9803
  617MOL0     H81381   1.444   5.574  -0.189  1.1554 -0.4134  1.5124
  617MOL0     H81382   1.610   5.591  -0.127  1.5866  2.2269 -1.0615
  617MOL0     H81383   1.580   5.500  -0.377  0.5912  1.1578 -2.4515
  617MOL0     H81384   1.694   5.622  -0.361  0.2574  1.2828  1.2451
  617MOL0     H81385   1.489   5.788  -0.431 -1.4983  0.3750  1.4438
  617MOL0     H81386   1.400   5.631  -0.453  0.5805 -1.3914 -0.9957
  617MOL0     H81387   1.572   5.553  -0.619  2.1709  0.3708 -1.5646
  617MOL0     H81388   1.459   5.686  -0.669  1.2180  1.3688 -0.7646
  617MOL0     H81389   1.739   5.710  -0.567 -0.0185  0.6602  0.8424
  617MOL0     H81390   1.635   5.844  -0.607 -0.6731 -0.8591  3.4014
  617MOL0     H81391   1.614   5.722  -0.847  1.9795 -0.5547 -2.5869
  617MOL0     H81392   1.765   5.639  -0.791  1.6311  0.7819 -2.3516
  617MOL0     H81393   1.717   5.932  -0.875 -1.2215  0.2174  0.7107
  617MOL0     H81394   1.824   5.905  -0.742 -1.4903  0.3577 -0.0400
  617MOL0     H81395   1.970   5.790  -0.883 -1.5372 -0.0876  3.5768
  617MOL0     H81396   1.903   5.928  -0.980 -5.0760  0.5643 -1.4595
  617MOL0     H81397   1.688   5.885  -1.119  1.3177 -0.3396  1.0514
  617MOL0     H81398   1.644   5.580  -1.381 -2.5845  1.5309 -2.8522
  617MOL0     H81399   1.588   5.750  -1.364 -0.3067  0.5342  0.3627
  617MOL0     H81400   1.474   5.530  -1.196  0.8916 -0.3875 -0.3339
  617MOL0     H81401   1.403   5.595  -1.352  0.5597 -1.7636  0.6542
  617MOL0     H81402   1.454   5.744  -1.088 -0.0089  1.5822 -0.6047
  617MOL0     H81403   1.409   5.823  -1.233  0.0594 -1.1205 -3.9446
  617MOL0     H81404   1.233   5.589  -1.187 -1.0755 -0.4866  3.7244
  617MOL0     H81405   1.198   5.756  -1.244  1.3750  1.0446  0.2648
  617MOL0     H81406   1.343   5.493  -0.994  1.6400 -0.2279  1.2293
  617MOL0     H81407   1.313   5.352  -0.804  1.0667  1.4169 -0.2157
  617MOL0     H81408   1.024   5.206  -0.449  0.6528 -2.5222 -1.6442
  617MOL0     H81409   1.029   5.047  -0.273 -0.0612 -0.0479 -1.3142
  617MOL0     H81410   1.088   4.866  -0.096 -2.6858  1.5406  1.2597
  617MOL0     H81411   1.096   5.019  -0.024  0.0096  0.0241 -1.2908
  617MOL0     H81412   1.269   4.941   0.139  1.3656  0.4242 -1.5155
  617MOL0     H81413   1.317   4.810   0.046  0.1064  1.3198 -0.6509
  617MOL0     H81414   1.097   4.699   0.067  3.0060 -1.5323 -0.2628
  617MOL0     H81415   1.038   4.831   0.180  0.4468 -0.0950 -1.2342
  617MOL0     H81416   1.238   4.621   0.229 -0.9635 -1.7977  1.2194
  617MOL0     H81417   1.254   4.766   0.321  0.1726  0.4196 -1.5387
  617MOL0     H81418   0.969   4.626   0.307 -0.6186  0.7504  0.8571
  617MOL0     H81419   1.011   4.736   0.417  0.4054  1.6852 -1.6769
  617MOL0     H81420   1.204   4.562   0.499  1.5441 -3.0113  0.1451
  617MOL0     H81421   1.127   4.447   0.381 -1.3774 -0.2604 -0.7092
  617MOL0     H81422   0.912   4.498   0.488  1.1588 -1.5322 -1.6467
  617MOL0     H81423   1.032   4.388   0.570  0.1790 -0.0977  0.2731
  617MOL0     H81424   0.914   4.538   0.724  1.4907 -2.2677  0.3835
  617MOL0     H81425   0.988   4.682   0.649 -3.3912  0.3112  0.9161
  617MOL0     H81426   1.464   5.028  -0.291 -0.2099  0.8899 -0.1566
  617MOL0     H81427   1.454   5.202  -0.462  0.5452  0.8426 -0.9028
  617MOL0     H81428   1.035   5.644  -0.653 -1.9633  0.1929 -2.5016
  617MOL0     H81429   1.042   5.770  -0.858 -1.6354 -1.3475 -1.7817
  617MOL0     H81430   1.433   5.605   0.035 -0.3433 -0.9953 -2.1757
  617MOL0     H81431   1.347   5.726   0.251 -3.3574  0.4285 -0.4942
  617MOL0     H81432   1.199   6.072   0.476  0.6075  3.0542  2.5707
  617MOL0     H81433   1.085   6.080   0.687  0.5474  0.7054  1.4060
  617MOL0     H81434   1.011   6.000   0.895  1.4841 -2.1537  0.4133
  617MOL0     H81435   1.037   6.177   0.877 -2.0469 -0.4767  0.0704
  617MOL0     H81436   0.920   6.152   1.093  0.1796  1.1686 -2.2140
  617MOL0     H81437   1.025   6.013   1.128  1.2307 -0.0357  0.1687
  617MOL0     H81438   1.213   6.169   1.153 -1.3864 -2.0570 -3.0054
  617MOL0     H81439   1.084   6.205   1.273  1.0737 -0.3122  0.7258
  617MOL0     H81440   1.166   6.415   1.180 -0.4524  0.1866 -0.6843
  617MOL0     H81441   1.148   6.351   1.012  3.0827  4.7570  0.0985
  617MOL0     H81442   0.763   6.493   1.071  0.2216  1.4839  0.0439
  617MOL0     H81443   1.420   5.906   0.884 -0.2119 -0.0396  0.0498
  617MOL0     H81444   1.520   5.865   0.662  2.1205  2.5540 -2.9778
  618MOL0     O81445   4.074   1.580   7.824 -0.8347 -0.6394  0.3754
  618MOL0     C81446   4.144   1.685   7.835 -0.4219  0.1306 -0.4543
  618MOL0     O81447   4.153   1.757   7.944  0.6269  0.2658 -1.0529
  618MOL0     C81448   4.116   1.708   8.068 -0.3242 -0.7784  0.4994
  618MOL0     C81449   4.078   1.585   8.107 -0.6723  0.3758 -0.3229
  618MOL0     C81450   4.043   1.573   8.241  0.7050  0.4229  0.7861
  618MOL0     C81451   4.033   1.678   8.326  0.4145  0.4929  0.5211
  618MOL0     O81452   4.003   1.654   8.455  0.0685  0.7727 -0.2804
  618MOL0     C81453   4.110   1.647   8.552 -0.6293  0.6968 -0.4310
  618MOL0     C81454   4.055   1.666   8.702  0.0046  0.1030 -0.5749
  618MOL0     C81455   4.155   1.652   8.806  0.6851 -1.0338 -0.8843
  618MOL0     C81456   4.221   1.523   8.822 -0.1517 -0.1767 -0.3226
  618MOL0     C81457   4.338   1.533   8.921  1.5943 -0.6002  0.6054
  618MOL0     C81458   4.424   1.407   8.901 -0.9142 -0.0948  0.6276
  618MOL0     C81459   4.550   1.434   8.982 -0.3021  0.3995 -0.7854
  618MOL0     C81460   4.645   1.507   8.896  0.4020  0.1865  0.3190
  618MOL0     N81461   4.764   1.530   8.979 -0.9204 -0.4649  0.0656
  618MOL0     C81462   4.801   1.641   9.043 -0.3533 -0.8596 -0.7155
  618MOL0     C81463   4.913   1.610   9.113  0.2699  0.1506  0.2490
  618MOL0     C81464   4.989   1.709   9.208  0.4389 -0.1877  0.2735
  618MOL0     C81465   5.125   1.762   9.149  1.1148  0.0839  0.5770
  618MOL0     C81466   5.181   1.865   9.240  0.2879  0.2939  0.1095
  618MOL0     C81467   5.225   1.803   9.378  0.1936  0.5568 -0.2318
  618MOL0     O81468   5.320   1.893   9.441  0.2185 -0.0419 -0.2143
  618MOL0     C81469   5.456   1.894   9.406  0.2202 -0.2802  0.4803
  618MOL0     C81470   5.510   1.795   9.326  0.1482  0.5234  1.0316
  618MOL0     C81471   5.643   1.799   9.281 -0.2074  1.1591  1.0746
  618MOL0     C81472   5.727   1.898   9.327  0.3810 -0.3390  0.0630
  618MOL0     C81473   5.870   1.902   9.282  0.6496 -0.5295  0.7980
  618MOL0     O81474   5.925   1.789   9.218 -0.0595 -0.5907 -0.9884
  618MOL0     C81475   6.060   1.772   9.188  0.2853 -0.0997 -0.0349
  618MOL0     C81476   6.161   1.857   9.230 -1.6807 -0.5441 -0.1428
  618MOL0     C81477   6.305   1.827   9.188  1.2863  0.4480 -0.3243
  618MOL0     C81478   6.330   1.719   9.107  1.1826  0.5772  0.5473
  618MOL0     O81479   6.456   1.708   9.039  0.7331 -1.0404  0.3158
  618MOL0     C81480   6.459   1.683   8.899  0.4185  0.7951  0.2994
  618MOL0     C81481   6.588   1.710   8.832 -0.0040  0.1295  0.0781
  618MOL0     C81482   6.621   1.866   8.859  0.1362  0.5704  0.4967
  618MOL0     C81483   6.725   1.920   8.764 -0.3213 -0.0401 -0.6101
  618MOL0     C81484   6.797   2.043   8.821 -0.0297 -0.6639 -0.2326
  618MOL0     C81485   6.908   2.082   8.725 -0.9855  0.2238  0.1803
  618MOL0     C81486   7.006   2.187   8.773 -0.0060  0.3812 -1.0949
  618MOL0     C81487   6.944   2.311   8.825 -0.2147  0.4426  0.9798
  618MOL0    Cl81488   7.076   2.373   8.931 -0.0433  0.2290 -0.1410
  618MOL0     C81489   6.228   1.638   9.059  0.1978 -0.3464 -0.2855
  618MOL0     C81490   6.089   1.660   9.099 -0.5506 -0.5315 -0.1883
  618MOL0     O81491   5.936   2.005   9.309  0.4189  1.5971  0.0816
  618MOL0     C81492   5.675   1.992   9.411 -0.6028 -0.5377  0.3601
  618MOL0     C81493   5.543   1.992   9.445 -0.2424 -1.1774  0.4558
  618MOL0     N81494   4.950   1.475   9.083  0.3236  0.0386 -0.3873
  618MOL0     N81495   4.858   1.425   8.999 -0.7505 -0.7679  0.0554
  618MOL0     C81496   4.068   1.802   8.298  0.2504  0.2771  0.8125
  618MOL0     C81497   4.117   1.815   8.161 -0.5747 -0.1831 -0.4586
  618MOL0     C81498   4.206   1.745   7.708 -0.6520  0.6079 -0.3378
  618MOL0     C81499   4.291   1.669   7.626  0.6715 -0.1135  0.8150
  618MOL0     C81500   4.352   1.725   7.510  0.9563 -0.0984  0.5778
  618MOL0     C81501   4.343   1.867   7.489 -1.2772  1.5496 -0.3887
  618MOL0     O81502   4.411   1.933   7.390 -0.2064 -1.4311 -0.7201
  618MOL0     C81503   4.503   1.867   7.307 -0.5301  0.0791 -0.0980
  618MOL0     C81504   4.563   1.972   7.217 -0.1859  0.2125  0.4860
  618MOL0     C81505   4.629   1.902   7.099 -0.4698  0.0289  0.5717
  618MOL0     C81506   4.772   1.931   7.053 -0.2812  0.5421 -0.1922
  618MOL0     C81507   4.790   2.070   7.028  0.1534 -0.4499  0.5112
  618MOL0     C81508   4.801   2.191   7.007 -0.1711 -1.2579  0.0055
  618MOL0     C81509   4.274   1.939   7.581  0.1966 -0.5570  1.7898
  618MOL0     C81510   4.194   1.881   7.685  0.3674 -0.7172  0.4527
  618MOL0     H81511   4.061   1.495   8.050 -2.3884  1.7933 -2.2252
  618MOL0     H81512   4.021   1.470   8.268  0.5856 -0.1538 -1.2937
  618MOL0     H81513   4.194   1.712   8.527 -1.4467  0.9928 -2.5867
  618MOL0     H81514   4.144   1.543   8.551 -0.7961  0.6479 -1.3497
  618MOL0     H81515   3.965   1.605   8.706  0.6322 -0.7777  0.4657
  618MOL0     H81516   4.033   1.774   8.696  1.8306  0.4678 -1.2491
  618MOL0     H81517   4.109   1.674   8.902  1.4828 -1.4633 -0.3924
  618MOL0     H81518   4.229   1.733   8.799  0.9061 -0.5821  3.8099
  618MOL0     H81519   4.155   1.440   8.850 -0.6744 -0.5950 -2.6165
  618MOL0     H81520   4.272   1.494   8.730 -0.6339  3.8696 -2.0500
  618MOL0     H81521   4.295   1.543   9.021  2.7286  2.3199  0.9109
  618MOL0     H81522   4.386   1.627   8.893  1.6983 -1.3333 -1.9544
  618MOL0     H81523   4.441   1.377   8.798  2.6865 -3.8217  2.0401
  618MOL0     H81524   4.374   1.324   8.953 -1.1464  1.0509  2.3179
  618MOL0     H81525   4.534   1.489   9.076  0.9207 -2.5303  1.2862
  618MOL0     H81526   4.595   1.338   9.009 -0.6473  0.9299  1.9467
  618MOL0     H81527   4.607   1.604   8.864  0.4753 -0.0271 -0.4354
  618MOL0     H81528   4.665   1.449   8.806 -0.2160  1.1110 -0.4277
  618MOL0     H81529   4.764   1.742   9.029 -0.0522 -0.9824 -2.7274
  618MOL0     H81530   5.012   1.650   9.297  2.2547 -0.5110 -0.3827
  618MOL0     H81531   4.917   1.785   9.242 -1.4378 -1.8729  0.2497
  618MOL0     H81532   5.095   1.802   9.052  1.7207  0.4784  0.5485
  618MOL0     H81533   5.190   1.676   9.127 -1.2607 -1.9316  0.9362
  618MOL0     H81534   5.271   1.904   9.191  2.4828  0.2618  3.7561
  618MOL0     H81535   5.103   1.940   9.259 -0.2369 -0.2972  0.3233
  618MOL0     H81536   5.259   1.699   9.372 -0.0032  0.5605 -1.7230
  618MOL0     H81537   5.132   1.798   9.435  0.0496 -0.4404 -0.5398
  618MOL0     H81538   5.448   1.718   9.281 -0.8128  2.0201 -0.3011
  618MOL0     H81539   5.678   1.736   9.199  1.6513  1.9516  1.2045
  618MOL0     H81540   6.150   1.946   9.291 -1.1448 -2.2296  2.5699
  618MOL0     H81541   6.392   1.886   9.213  0.4549  1.6724 -0.2357
  618MOL0     H81542   6.367   1.730   8.862 -0.4756 -1.0293  0.0472
  618MOL0     H81543   6.437   1.576   8.901  0.4942  0.7404 -1.1536
  618MOL0     H81544   6.580   1.690   8.724  0.2013  2.7488 -0.4916
  618MOL0     H81545   6.658   1.640   8.879 -0.3627 -2.4031 -2.8076
  618MOL0     H81546   6.655   1.871   8.963  1.0055 -1.5379  0.3695
  618MOL0     H81547   6.536   1.935   8.849  1.0696  1.5924 -0.7433
  618MOL0     H81548   6.800   1.842   8.749  1.1735  0.8680  1.5865
  618MOL0     H81549   6.679   1.939   8.667 -1.9294 -0.2967  0.0725
  618MOL0     H81550   6.844   2.022   8.917  0.1964  2.6892  0.5252
  618MOL0     H81551   6.726   2.120   8.852  0.6947 -0.0690 -0.0050
  618MOL0     H81552   6.868   2.116   8.629  1.1369 -0.1727 -0.9160
  618MOL0     H81553   6.962   1.987   8.719 -1.6121 -0.2798  1.8782
  618MOL0     H81554   7.069   2.139   8.849 -0.6577  1.9784  0.5159
  618MOL0     H81555   7.075   2.215   8.692  3.0895  0.0310  1.2225
  618MOL0     H81556   6.849   2.287   8.874 -0.6075 -0.6369 -0.2387
  618MOL0     H81557   6.912   2.371   8.739 -0.0663  0.0284  0.6325
  618MOL0     H81558   6.246   1.562   8.984 -0.3155  1.6076 -2.5023
  618MOL0     H81559   6.010   1.593   9.067  0.8588 -3.0911  1.3493
  618MOL0     H81560   5.736   2.068   9.458 -2.5957 -0.4943  3.1506
  618MOL0     H81561   5.505   2.076   9.502 -0.3298  0.3316 -1.7293
  618MOL0     H81562   4.059   1.866   8.385 -0.7735  0.5672  0.5096
  618MOL0     H81563   4.156   1.905   8.115  2.3766 -1.8367 -1.4912
  618MOL0     H81564   4.297   1.563   7.646 -2.6339 -0.2600  1.6607
  618MOL0     H81565   4.415   1.669   7.442 -0.1669  0.2351 -0.7857
  618MOL0     H81566   4.453   1.791   7.246 -2.9989  2.2066 -0.8645
  618MOL0     H81567   4.583   1.815   7.362  0.6771  4.5536  2.9147
  618MOL0     H81568   4.483   2.039   7.182  1.6092  0.6454 -3.3386
  618MOL0     H81569   4.647   2.015   7.272  0.3800 -1.3306  0.8806
  618MOL0     H81570   4.563   1.937   7.019  3.9662  0.8927 -3.0605
  618MOL0     H81571   4.620   1.793   7.101  2.1351 -0.2727 -1.1084
  618MOL0     H81572   4.845   1.882   7.118 -2.5305 -2.6630  0.1302
  618MOL0     H81573   4.791   1.874   6.962  3.3237 -0.8807  1.2470
  618MOL0     H81574   4.797   2.297   6.993  2.3705 -0.9844  0.7972
  618MOL0     H81575   4.280   2.045   7.561  0.8317 -1.1073 -1.5584
  618MOL0     H81576   4.133   1.950   7.742  0.1503 -1.6446  1.3667
  619MOL0     O81577   9.020   8.801   3.570  0.1244  0.2333  0.2281
  619MOL0     C81578   9.055   8.741   3.467  0.2143  0.6554 -0.1188
  619MOL0     O81579   8.990   8.639   3.408 -0.1652 -0.2171  0.7135
  619MOL0     C81580   8.864   8.611   3.445 -0.0256 -0.0743  0.1612
  619MOL0     C81581   8.770   8.705   3.486  0.3090 -0.4925 -0.5126
  619MOL0     C81582   8.635   8.663   3.517  0.1996 -0.1180 -0.5592
  619MOL0     C81583   8.589   8.532   3.509 -0.6788 -0.8958  0.2793
  619MOL0     O81584   8.468   8.484   3.532 -0.1059 -0.3891 -1.0788
  619MOL0     C81585   8.367   8.578   3.556  0.1267 -0.0194  0.2330
  619MOL0     C81586   8.237   8.497   3.552 -0.1046  0.3825  0.5857
  619MOL0     C81587   8.118   8.587   3.527  1.0117  0.3257 -0.5300
  619MOL0     C81588   7.987   8.533   3.589  1.4154 -0.1690  0.1426
  619MOL0     C81589   7.866   8.610   3.518 -0.7284  0.2793 -0.5312
  619MOL0     C81590   7.717   8.566   3.547  0.5406  0.0544  0.3151
  619MOL0     C81591   7.679   8.591   3.690 -1.2822  0.3737  0.7157
  619MOL0     C81592   7.526   8.606   3.730  0.3902  0.3783 -0.4164
  619MOL0     N81593   7.460   8.718   3.655  0.2129 -0.4913 -0.4587
  619MOL0     C81594   7.513   8.828   3.590 -1.1341  0.3923 -0.0378
  619MOL0     C81595   7.412   8.891   3.536  0.1452 -0.6657 -0.2696
  619MOL0     C81596   7.413   9.010   3.448 -0.9904 -0.2781 -0.0034
  619MOL0     C81597   7.340   9.132   3.506  0.3706 -0.3168  0.1541
  619MOL0     C81598   7.330   9.250   3.410  0.4269 -0.6499  0.4569
  619MOL0     C81599   7.446   9.344   3.408 -0.5342  0.4355 -0.2892
  619MOL0     O81600   7.408   9.467   3.330 -0.6646 -0.1549 -0.3275
  619MOL0     C81601   7.509   9.568   3.326  0.4296 -0.1542 -0.5015
  619MOL0     C81602   7.647   9.538   3.343 -0.1670  0.2933 -0.5397
  619MOL0     C81603   7.742   9.633   3.299  0.4566  0.6070 -0.5471
  619MOL0     C81604   7.708   9.766   3.288  0.4848  0.6928  0.0322
  619MOL0     C81605   7.814   9.872   3.283 -0.6345 -0.0125  0.1541
  619MOL0     O81606   7.787  10.002   3.231  0.0564  0.8968  0.1769
  619MOL0     C81607   7.886  10.092   3.193 -0.2358  0.0951  1.5080
  619MOL0     C81608   7.994  10.065   3.097 -0.1724 -0.4972  0.3007
  619MOL0     C81609   8.083  10.170   3.077 -1.4619 -0.4327  0.6623
  619MOL0     C81610   8.088  10.290   3.155  0.3237 -0.2241 -0.4879
  619MOL0     O81611   8.179  10.384   3.125  0.0210  0.5962 -0.1697
  619MOL0     C81612   8.128  10.515   3.120 -0.1160 -0.2006 -0.3802
  619MOL0     C81613   8.237  10.594   3.051 -0.7688  0.4714 -0.8626
  619MOL0     C81614   8.197  10.736   3.024 -0.4673  0.6137 -1.0801
  619MOL0     C81615   8.093  10.766   2.921  0.0627  0.2417 -0.2668
  619MOL0     C81616   8.110  10.708   2.783 -0.2180  0.0735  0.0393
  619MOL0     C81617   8.239  10.753   2.713 -0.2877  0.2398 -0.3664
  619MOL0     C81618   8.253  10.694   2.580 -0.0543  0.3636  0.0671
  619MOL0     C81619   8.380  10.739   2.513 -0.1272  0.1620 -0.1488
  619MOL0    Cl81620   8.408  10.687   2.348  0.2367 -0.1836 -0.1431
  619MOL0     C81621   7.975  10.309   3.236  0.3265  0.0162  0.6457
  619MOL0     C81622   7.867  10.218   3.251  0.6466 -0.4106 -0.0862
  619MOL0     O81623   7.924   9.819   3.304 -1.1340  0.0596  0.6851
  619MOL0     C81624   7.573   9.803   3.293  0.2906  0.2769 -0.2655
  619MOL0     C81625   7.474   9.703   3.300  0.9019 -0.1072  1.1489
  619MOL0     N81626   7.299   8.817   3.556 -0.4331 -0.1010  0.2120
  619MOL0     N81627   7.326   8.711   3.625  0.4182 -0.2928 -1.0092
  619MOL0     C81628   8.688   8.440   3.470 -0.7982  0.3860  0.1607
  619MOL0     C81629   8.822   8.480   3.434 -0.8293  0.2134 -0.5300
  619MOL0     C81630   9.196   8.769   3.439  0.6864 -0.1178  0.4320
  619MOL0     C81631   9.251   8.897   3.459  0.1928  0.4493 -0.0351
  619MOL0     C81632   9.388   8.923   3.439 -0.2447  0.3278 -1.0664
  619MOL0     C81633   9.470   8.817   3.408  0.1062 -0.4960 -0.3442
  619MOL0     O81634   9.599   8.833   3.399 -0.1879 -0.2104 -0.5348
  619MOL0     C81635   9.653   8.948   3.323 -0.1685 -0.6994 -0.5130
  619MOL0     C81636   9.781   8.895   3.251 -0.7533 -0.3197 -0.5694
  619MOL0     C81637   9.747   8.790   3.145  0.5814  0.3305 -0.2384
  619MOL0     C81638   9.858   8.740   3.047  0.6031 -0.1622 -0.9760
  619MOL0     C81639   9.950   8.840   3.018 -0.6657 -0.8957  0.5103
  619MOL0     C81640  10.023   8.934   2.983  0.3190 -0.0142  0.0697
  619MOL0     C81641   9.415   8.691   3.384  0.8335 -0.0468 -0.1386
  619MOL0     C81642   9.276   8.668   3.398  0.3942  0.4594  0.9001
  619MOL0     H81643   8.792   8.810   3.496 -1.3594 -0.0017 -1.4975
  619MOL0     H81644   8.561   8.740   3.539  0.0876 -0.7575  1.5209
  619MOL0     H81645   8.360   8.655   3.479  1.2400  0.0645  0.1971
  619MOL0     H81646   8.385   8.629   3.652  0.2926  0.4387 -0.0354
  619MOL0     H81647   8.230   8.424   3.634  1.3997  1.0812  1.3760
  619MOL0     H81648   8.242   8.431   3.465 -2.7435  0.7936  0.0277
  619MOL0     H81649   8.102   8.606   3.420 -0.3235 -1.7276 -0.7497
  619MOL0     H81650   8.130   8.678   3.586 -1.4364  1.3324 -1.4363
  619MOL0     H81651   7.980   8.425   3.577  0.5866 -0.1912  0.7478
  619MOL0     H81652   7.973   8.537   3.697 -3.0176  0.7519 -0.2811
  619MOL0     H81653   7.887   8.602   3.411 -0.6211  1.5315 -0.6110
  619MOL0     H81654   7.873   8.716   3.541 -2.7693  0.4653 -0.5816
  619MOL0     H81655   7.701   8.463   3.513 -1.5039 -0.0842  1.5670
  619MOL0     H81656   7.651   8.621   3.479  0.4081 -3.0302 -2.3241
  619MOL0     H81657   7.729   8.511   3.746 -0.5820 -0.0812 -0.5178
  619MOL0     H81658   7.723   8.688   3.715  2.0126 -1.1216  1.2085
  619MOL0     H81659   7.534   8.635   3.835 -0.2341  1.7221 -0.7231
  619MOL0     H81660   7.478   8.513   3.697  2.3250  0.3578 -3.6049
  619MOL0     H81661   7.617   8.855   3.581 -1.3989  2.5247  2.1521
  619MOL0     H81662   7.381   8.982   3.347 -0.9127  1.9771 -0.6976
  619MOL0     H81663   7.520   9.032   3.450 -0.9109 -0.5148 -1.0703
  619MOL0     H81664   7.386   9.157   3.602 -0.5174  0.0205  0.5104
  619MOL0     H81665   7.237   9.106   3.532  0.0921  0.4712 -0.1468
  619MOL0     H81666   7.322   9.213   3.307  1.6445 -2.2467  0.9017
  619MOL0     H81667   7.249   9.313   3.450 -0.1879  0.2170 -1.9333
  619MOL0     H81668   7.534   9.294   3.366  0.0499  0.2834  1.0857
  619MOL0     H81669   7.471   9.363   3.513 -1.6494  1.4682 -0.1843
  619MOL0     H81670   7.687   9.442   3.371  1.4057  1.5627  1.8588
  619MOL0     H81671   7.846   9.601   3.293  0.4915  0.7531 -0.7147
  619MOL0     H81672   7.991   9.969   3.047 -2.4943 -0.5838  0.5027
  619MOL0     H81673   8.162  10.167   3.003  0.9514  0.9814  2.9828
  619MOL0     H81674   8.095  10.566   3.211 -1.5714 -1.9631  0.1400
  619MOL0     H81675   8.042  10.523   3.053 -1.2223  4.3327  1.2427
  619MOL0     H81676   8.273  10.560   2.954 -3.4650  1.1933 -2.1898
  619MOL0     H81677   8.328  10.593   3.112  0.2555 -0.5227 -2.3517
  619MOL0     H81678   8.286  10.790   2.992  0.3002 -1.3174 -2.4098
  619MOL0     H81679   8.170  10.777   3.122 -1.4814 -3.9450  0.8470
  619MOL0     H81680   7.988  10.746   2.945 -0.9274  2.6817 -2.1381
  619MOL0     H81681   8.097  10.876   2.918 -1.5721  0.4027  1.3247
  619MOL0     H81682   8.032  10.730   2.710 -2.1064 -2.0810  1.2712
  619MOL0     H81683   8.104  10.599   2.788  1.8040 -0.1118 -0.6316
  619MOL0     H81684   8.325  10.711   2.766  2.2037  3.3945 -1.5630
  619MOL0     H81685   8.256  10.861   2.705 -1.3524  0.2955 -2.6813
  619MOL0     H81686   8.239  10.587   2.599  1.6461 -0.2713 -1.8757
  619MOL0     H81687   8.164  10.728   2.525 -1.4020 -0.5541  1.5803
  619MOL0     H81688   8.452  10.693   2.581 -1.8822 -4.2103 -0.9103
  619MOL0     H81689   8.378  10.848   2.522 -1.8933  0.0263  2.9014
  619MOL0     H81690   7.972  10.407   3.282  2.9284  0.2087  0.5533
  619MOL0     H81691   7.788  10.250   3.319  0.3214  1.3853 -1.2257
  619MOL0     H81692   7.536   9.903   3.277 -1.6073 -0.2268  0.6722
  619MOL0     H81693   7.373   9.721   3.262  0.2361  0.9250  3.2852
  619MOL0     H81694   8.662   8.334   3.468 -0.4939  0.3132 -0.9516
  619MOL0     H81695   8.899   8.408   3.406 -1.9460 -2.6468  3.0083
  619MOL0     H81696   9.182   8.974   3.492  1.4050  1.7997 -0.5687
  619MOL0     H81697   9.426   9.024   3.446 -1.5728  0.8338 -0.9345
  619MOL0     H81698   9.679   9.033   3.387 -0.5484 -2.6474  2.4101
  619MOL0     H81699   9.578   8.982   3.252 -0.0964  0.4182 -0.0789
  619MOL0     H81700   9.824   8.978   3.194 -0.2514 -0.8775 -1.0199
  619MOL0     H81701   9.855   8.848   3.317 -0.6041 -0.7559 -1.0350
  619MOL0     H81702   9.672   8.841   3.084 -2.7152  0.1672  3.3159
  619MOL0     H81703   9.699   8.703   3.189 -3.7051  1.5431 -2.0413
  619MOL0     H81704   9.906   8.655   3.096 -0.0346  1.4629  2.8762
  619MOL0     H81705   9.813   8.712   2.951  1.8497 -0.3147 -1.5362
  619MOL0     H81706  10.099   9.009   2.971 -1.0917  1.2597 -1.2569
  619MOL0     H81707   9.467   8.598   3.361 -0.9473 -1.1161 -0.0697
  619MOL0     H81708   9.246   8.564   3.392  1.7573  0.0724  0.3737
  620MOL0     O81709   4.157   6.385   5.991 -0.0924 -0.5834 -0.2329
  620MOL0     C81710   4.181   6.274   5.950  0.2260  1.1050 -0.0900
  620MOL0     O81711   4.093   6.176   5.908  0.6766  0.3079 -0.2258
  620MOL0     C81712   3.954   6.169   5.954 -0.7047 -0.5990  0.1224
  620MOL0     C81713   3.889   6.260   6.043 -0.4264  0.7187  0.0205
  620MOL0     C81714   3.755   6.249   6.084 -0.3560 -0.0921  0.4115
  620MOL0     C81715   3.680   6.141   6.034 -0.8446  0.5119 -0.6347
  620MOL0     O81716   3.562   6.110   6.090 -0.2508 -0.2412 -0.1591
  620MOL0     C81717   3.446   6.157   6.025 -1.0297 -0.0062 -0.4236
  620MOL0     C81718   3.349   6.181   6.123  0.0604 -0.5011  0.0662
  620MOL0     C81719   3.291   6.057   6.193 -0.9133 -0.1780 -0.4928
  620MOL0     C81720   3.146   6.050   6.168  0.3055 -0.1648  1.0263
  620MOL0     C81721   3.081   5.903   6.188  0.2521 -0.2239  0.0640
  620MOL0     C81722   3.099   5.807   6.074  0.7853 -0.0341 -0.5173
  620MOL0     C81723   3.022   5.672   6.076 -0.2572  0.2479 -0.1712
  620MOL0     C81724   3.095   5.556   6.016  0.1047 -1.0517 -0.7687
  620MOL0     N81725   3.145   5.568   5.884  0.4618  0.2252  0.1143
  620MOL0     C81726   3.274   5.595   5.857 -0.1326 -0.5508  0.1530
  620MOL0     C81727   3.305   5.556   5.728 -0.2176 -0.2981 -0.2817
  620MOL0     C81728   3.443   5.543   5.674  0.0631 -0.6223  0.0870
  620MOL0     C81729   3.481   5.663   5.604 -0.3395 -0.8801  0.4148
  620MOL0     C81730   3.390   5.725   5.500  0.3785 -0.2638 -0.3378
  620MOL0     C81731   3.378   5.632   5.378  0.7421  0.1004 -0.2598
  620MOL0     O81732   3.515   5.615   5.329 -0.2050  0.2029 -0.5234
  620MOL0     C81733   3.542   5.601   5.193  0.5811  0.3917  0.0208
  620MOL0     C81734   3.678   5.599   5.155 -0.8863  0.0990  0.5133
  620MOL0     C81735   3.711   5.572   5.013 -0.7151 -0.3836 -0.6650
  620MOL0     C81736   3.613   5.561   4.913 -0.1313  0.1370  0.5326
  620MOL0     C81737   3.641   5.535   4.769  1.3686 -0.8751  0.8168
  620MOL0     O81738   3.532   5.529   4.682 -0.2000  0.0155 -0.6905
  620MOL0     C81739   3.548   5.450   4.576 -0.5094  0.3917 -0.3843
  620MOL0     C81740   3.558   5.310   4.588  1.1550 -1.0947 -0.5093
  620MOL0     C81741   3.571   5.232   4.475  0.6419 -0.5852  0.0723
  620MOL0     C81742   3.567   5.288   4.343  0.0188 -0.2092 -0.7226
  620MOL0     O81743   3.596   5.203   4.241 -0.1293  0.1046 -0.4856
  620MOL0     C81744   3.486   5.193   4.137 -0.3871 -0.2633 -0.1242
  620MOL0     C81745   3.498   5.053   4.079 -0.2431  0.8991 -0.0415
  620MOL0     C81746   3.516   4.945   4.186 -0.0658  0.5151 -1.2581
  620MOL0     C81747   3.385   4.871   4.228 -0.0015  0.1875 -0.2849
  620MOL0     C81748   3.410   4.772   4.344  0.0944 -0.3763  0.2778
  620MOL0     C81749   3.441   4.844   4.473  0.1855  0.2215 -0.6660
  620MOL0     C81750   3.342   4.956   4.514 -0.1003 -0.0127  0.6511
  620MOL0     C81751   3.345   4.992   4.660 -0.2298 -1.0722 -0.2118
  620MOL0    Cl81752   3.510   4.994   4.745  0.1739 -0.3137 -0.1643
  620MOL0     C81753   3.559   5.431   4.329  0.1294  0.5053  0.5352
  620MOL0     C81754   3.548   5.505   4.452  0.2688  0.3037  0.4579
  620MOL0     O81755   3.754   5.517   4.735  0.2536  0.2567  0.3663
  620MOL0     C81756   3.476   5.553   4.965 -0.6556  0.2401 -0.5068
  620MOL0     C81757   3.445   5.567   5.100 -0.1801 -0.0118  0.0529
  620MOL0     N81758   3.184   5.510   5.679 -0.1815 -0.5340 -0.1876
  620MOL0     N81759   3.094   5.507   5.771 -0.1940 -1.0236  0.9046
  620MOL0     C81760   3.728   6.046   5.942 -0.3340  0.5719  0.1453
  620MOL0     C81761   3.865   6.064   5.907  0.0339  0.6054 -0.3861
  620MOL0     C81762   4.321   6.240   5.923  0.0700 -0.8860 -0.4299
  620MOL0     C81763   4.426   6.326   5.955 -0.1180  0.5805  0.1970
  620MOL0     C81764   4.556   6.296   5.909 -0.0463 -0.7646  0.3379
  620MOL0     C81765   4.595   6.176   5.846  0.0792 -0.1392  0.0016
  620MOL0     O81766   4.722   6.164   5.795  0.1735 -0.6637  0.2317
  620MOL0     C81767   4.740   6.087   5.672  0.5333  0.2195 -1.7751
  620MOL0     C81768   4.675   6.164   5.551  1.1705 -0.4566  0.0261
  620MOL0     C81769   4.705   6.316   5.556 -0.1712  0.1287 -0.1552
  620MOL0     C81770   4.862   6.338   5.567  0.2355  0.1607 -0.3865
  620MOL0     C81771   4.907   6.474   5.567 -0.6781 -0.8354 -0.3858
  620MOL0     C81772   4.956   6.587   5.548 -0.5253  0.3460  0.0640
  620MOL0     C81773   4.487   6.089   5.825 -0.0420  1.0368  0.0996
  620MOL0     C81774   4.360   6.128   5.856  1.2067 -0.1796 -0.4133
  620MOL0     H81775   3.951   6.334   6.094  0.7447  0.7592 -1.4146
  620MOL0     H81776   3.707   6.324   6.147 -1.0787  0.3232 -0.6122
  620MOL0     H81777   3.424   6.093   5.939  2.3706 -2.4048  0.2882
  620MOL0     H81778   3.474   6.250   5.976 -1.5372  0.4791  0.1921
  620MOL0     H81779   3.268   6.227   6.066 -0.9169 -1.6472  0.4914
  620MOL0     H81780   3.376   6.252   6.202 -2.2761 -0.0121  0.5112
  620MOL0     H81781   3.314   6.048   6.299  1.0156 -1.2799 -0.9640
  620MOL0     H81782   3.343   5.971   6.149  1.8396 -0.6844  3.2727
  620MOL0     H81783   3.098   6.120   6.237  1.9737  4.4193 -1.9985
  620MOL0     H81784   3.105   6.093   6.076  0.9534 -4.1915 -1.3913
  620MOL0     H81785   2.971   5.908   6.191  0.2813  0.3914  2.5889
  620MOL0     H81786   3.132   5.850   6.269  1.8738  0.6045 -0.3860
  620MOL0     H81787   3.203   5.775   6.085  0.6250 -0.5179 -0.3828
  620MOL0     H81788   3.081   5.867   5.984 -0.9339  0.9645  0.4312
  620MOL0     H81789   2.991   5.639   6.175 -1.2195  2.7458  0.4388
  620MOL0     H81790   2.927   5.688   6.024 -0.2393 -0.7380 -0.5113
  620MOL0     H81791   3.010   5.487   6.012 -2.3560  1.5076  1.9633
  620MOL0     H81792   3.170   5.512   6.081  0.3992  1.2822  0.5957
  620MOL0     H81793   3.343   5.633   5.932 -0.5661 -0.2693  0.4126
  620MOL0     H81794   3.459   5.459   5.606  1.0836  0.4081 -1.0111
  620MOL0     H81795   3.515   5.534   5.756 -0.0717  1.8595  0.5446
  620MOL0     H81796   3.579   5.641   5.561 -0.7675  0.1777 -1.2156
  620MOL0     H81797   3.512   5.739   5.676  1.9597 -0.0116 -1.3614
  620MOL0     H81798   3.287   5.749   5.530 -0.8209 -2.7324 -2.0928
  620MOL0     H81799   3.430   5.822   5.470 -2.8693  0.4725 -2.8563
  620MOL0     H81800   3.316   5.683   5.303  2.7532  5.3519  1.2075
  620MOL0     H81801   3.333   5.535   5.399 -1.9654  1.4746  0.8299
  620MOL0     H81802   3.763   5.626   5.217  0.5422  0.3837 -1.4588
  620MOL0     H81803   3.814   5.580   4.979  0.0545 -1.7468  1.1846
  620MOL0     H81804   3.546   5.263   4.685  2.8953 -3.5417 -1.3697
  620MOL0     H81805   3.563   5.125   4.489 -0.6313 -0.8175 -2.0483
  620MOL0     H81806   3.495   5.265   4.055 -2.6660  0.4121  0.1446
  620MOL0     H81807   3.392   5.199   4.193  0.2563  1.5334  0.8286
  620MOL0     H81808   3.587   5.056   4.015  0.9011  1.3053  1.5112
  620MOL0     H81809   3.404   5.029   4.028  0.9460 -3.0199 -0.7426
  620MOL0     H81810   3.568   4.978   4.276 -3.8593  0.5068  1.2047
  620MOL0     H81811   3.575   4.862   4.147 -1.7519 -1.1342 -0.4624
  620MOL0     H81812   3.308   4.946   4.249  2.2364  2.6690 -0.4231
  620MOL0     H81813   3.365   4.810   4.140  1.9310 -2.5123  1.0074
  620MOL0     H81814   3.500   4.713   4.323  1.1252 -0.1536  3.5969
  620MOL0     H81815   3.322   4.706   4.352 -1.8095  1.5297 -2.6862
  620MOL0     H81816   3.544   4.878   4.457 -0.2202  1.3269 -0.9942
  620MOL0     H81817   3.438   4.766   4.550 -3.3025  2.3336  1.6622
  620MOL0     H81818   3.365   5.038   4.445  2.1995 -0.4713  0.7784
  620MOL0     H81819   3.242   4.917   4.495  1.0248 -2.2188 -1.1860
  620MOL0     H81820   3.288   4.908   4.699 -1.8748  0.1921  0.2111
  620MOL0     H81821   3.281   5.079   4.677 -0.0734 -1.1689  0.9438
  620MOL0     H81822   3.564   5.479   4.232 -1.0585 -0.4663 -0.0319
  620MOL0     H81823   3.540   5.613   4.444 -1.2445  0.4061  2.5704
  620MOL0     H81824   3.399   5.535   4.891  0.1743  0.1928 -1.3873
  620MOL0     H81825   3.351   5.530   5.140  0.0142 -3.3359 -2.0891
  620MOL0     H81826   3.674   5.957   5.912  1.0798  1.0282 -4.6272
  620MOL0     H81827   3.914   5.986   5.851  0.6241  0.5506  0.1910
  620MOL0     H81828   4.422   6.425   5.999  0.4841  0.5849  0.2395
  620MOL0     H81829   4.633   6.372   5.913 -1.7370  1.1230 -1.0087
  620MOL0     H81830   4.695   5.987   5.677 -1.2183  1.0461  0.3978
  620MOL0     H81831   4.848   6.073   5.659  0.8865  0.1268  0.7338
  620MOL0     H81832   4.703   6.128   5.451 -2.0757  0.4296 -1.3340
  620MOL0     H81833   4.566   6.166   5.563  0.8639 -0.2582 -2.1972
  620MOL0     H81834   4.645   6.355   5.638  1.6407 -1.7063  2.1604
  620MOL0     H81835   4.681   6.344   5.453  0.3635 -4.1665 -1.6398
  620MOL0     H81836   4.895   6.300   5.664  1.4695 -3.3529 -2.0052
  620MOL0     H81837   4.902   6.279   5.484  1.0439 -1.1553  0.8904
  620MOL0     H81838   4.991   6.686   5.532 -2.2827  1.1136  0.6924
  620MOL0     H81839   4.510   5.998   5.772  0.9276  1.2859  0.0813
  620MOL0     H81840   4.279   6.073   5.809  0.8248 -0.0240  0.0541
  621MOL0     O81841  10.606   0.453   0.733 -0.0726  0.7789 -0.1926
  621MOL0     C81842  10.643   0.473   0.851  0.3333  1.2377  0.4296
  621MOL0     O81843  10.591   0.417   0.953 -0.4043  0.0357  0.4648
  621MOL0     C81844  10.484   0.335   0.940  0.8716 -0.3736  0.0282
  621MOL0     C81845  10.474   0.228   0.857 -0.7915 -0.4132  0.6502
  621MOL0     C81846  10.347   0.164   0.833 -0.2412  0.0585 -0.0480
  621MOL0     C81847  10.239   0.190   0.921 -1.0128 -0.3369 -0.1428
  621MOL0     O81848  10.113   0.148   0.901 -0.1759  0.8776  0.5162
  621MOL0     C81849  10.072   0.097   0.773 -0.8258 -0.0715 -0.2023
  621MOL0     C81850   9.933   0.134   0.737  0.1790 -0.5197 -0.9184
  621MOL0     C81851   9.882   0.106   0.593 -0.4706  0.1635 -0.0807
  621MOL0     C81852   9.945   0.195   0.474  0.0635  0.6318 -0.7748
  621MOL0     C81853   9.865   0.177   0.340 -0.1705  0.1762  0.4973
  621MOL0     C81854   9.809   0.304   0.277 -0.6627 -0.7697 -0.4831
  621MOL0     C81855   9.922   0.393   0.211  0.2426  1.1404  0.0268
  621MOL0     C81856   9.865   0.527   0.162  0.0746  0.2730 -0.6027
  621MOL0     N81857   9.972   0.617   0.134  0.1238 -0.3482  0.9485
  621MOL0     C81858   9.955   0.746   0.080 -0.9320 -0.6359  0.7594
  621MOL0     C81859  10.080   0.800   0.069  0.4037 -0.4790 -1.1594
  621MOL0     C81860  10.092   0.950   0.024 -0.3393  0.2879  0.1453
  621MOL0     C81861   9.996   1.007  -0.082 -0.5136 -0.1192  0.2451
  621MOL0     C81862  10.035   0.955  -0.226  0.9173 -0.6852 -0.2069
  621MOL0     C81863  10.003   0.804  -0.247 -0.5978  0.3054  0.1024
  621MOL0     O81864   9.867   0.765  -0.228 -0.3659  0.2173 -0.1193
  621MOL0     C81865   9.839   0.631  -0.209  0.3818  0.1989 -0.7543
  621MOL0     C81866   9.706   0.603  -0.210 -0.1732  0.4974  0.2484
  621MOL0     C81867   9.661   0.476  -0.171  0.1479 -0.2453 -0.4146
  621MOL0     C81868   9.754   0.372  -0.147 -0.3174  0.7433 -0.0502
  621MOL0     C81869   9.721   0.234  -0.109 -1.0229 -0.6529  0.7361
  621MOL0     O81870   9.828   0.154  -0.077  0.3854  0.4686 -0.1861
  621MOL0     C81871   9.785   0.019  -0.067 -0.5024  0.3285 -0.0707
  621MOL0     C81872   9.820  -0.066  -0.176  0.1300 -0.1880 -1.0813
  621MOL0     C81873   9.794  -0.202  -0.163 -0.3735 -0.6558 -0.6424
  621MOL0     C81874   9.745  -0.258  -0.041  0.3150  1.6383 -0.6128
  621MOL0     O81875   9.749  -0.401  -0.024  0.4881 -0.6330 -0.2355
  621MOL0     C81876   9.621  -0.468  -0.062  0.5642 -0.3604  0.1333
  621MOL0     C81877   9.555  -0.521   0.067  0.1337 -1.0681 -0.3977
  621MOL0     C81878   9.444  -0.625   0.047 -0.9936  0.2986  0.3636
  621MOL0     C81879   9.362  -0.659   0.175 -0.5835 -0.2784 -0.9205
  621MOL0     C81880   9.429  -0.744   0.289 -0.5741 -0.2831  0.7508
  621MOL0     C81881   9.516  -0.854   0.241 -0.3729  0.0003 -0.7259
  621MOL0     C81882   9.596  -0.925   0.356  0.4178  0.0801 -0.1849
  621MOL0     C81883   9.709  -1.013   0.295  0.1975  0.0003  0.4970
  621MOL0    Cl81884   9.628  -1.127   0.177 -0.0580  0.0006  0.4779
  621MOL0     C81885   9.705  -0.170   0.064  0.3304  0.1922 -0.2067
  621MOL0     C81886   9.720  -0.027   0.050  0.1828  0.4142 -0.3523
  621MOL0     O81887   9.605   0.192  -0.116  0.5314 -0.3153  0.0601
  621MOL0     C81888   9.888   0.401  -0.173 -0.6297  0.8902 -0.6716
  621MOL0     C81889   9.929   0.528  -0.199  0.4716 -1.6055  0.1837
  621MOL0     N81890  10.175   0.708   0.109 -0.2439 -0.3216 -0.6285
  621MOL0     N81891  10.110   0.600   0.132  0.2523 -0.1626 -0.3339
  621MOL0     C81892  10.259   0.272   1.027  0.1060 -0.3133  0.2813
  621MOL0     C81893  10.377   0.343   1.037  0.8207  0.1581 -0.0108
  621MOL0     C81894  10.736   0.582   0.883 -0.9195  0.2637  0.8758
  621MOL0     C81895  10.789   0.603   1.008  0.1183 -0.9631 -0.8510
  621MOL0     C81896  10.867   0.715   1.036 -0.8848  0.0103  0.1504
  621MOL0     C81897  10.909   0.808   0.932 -0.1574  0.2149 -0.5136
  621MOL0     O81898  10.990   0.927   0.946 -0.1212  0.3043  0.5667
  621MOL0     C81899  11.071   0.941   1.059  0.0800 -0.6214  0.0889
  621MOL0     C81900  11.188   0.843   1.074  0.7239 -0.2469  1.1356
  621MOL0     C81901  11.302   0.850   0.969 -0.0607 -0.2256 -0.2618
  621MOL0     C81902  11.382   0.720   0.949 -0.4865 -0.7985  0.0044
  621MOL0     C81903  11.472   0.699   1.056  0.4316 -0.5780 -0.3514
  621MOL0     C81904  11.553   0.677   1.150 -0.8967 -0.4611 -0.7312
  621MOL0     C81905  10.852   0.793   0.809  0.0171 -0.5499  0.4258
  621MOL0     C81906  10.773   0.683   0.781 -0.4553 -0.1679  0.2120
  621MOL0     H81907  10.549   0.177   0.798  0.3753  1.0407  0.8203
  621MOL0     H81908  10.341   0.083   0.761 -0.1673 -1.5273  1.6719
  621MOL0     H81909  10.074  -0.012   0.765  0.6059 -0.3120  2.3746
  621MOL0     H81910  10.134   0.141   0.694  1.7481 -3.8241 -0.5299
  621MOL0     H81911   9.935   0.243   0.743  1.3530 -0.5830  3.1733
  621MOL0     H81912   9.865   0.112   0.821 -1.4514  3.1404 -1.1176
  621MOL0     H81913   9.777   0.133   0.582 -0.5580 -1.0230 -3.0819
  621MOL0     H81914   9.884   0.001   0.563  1.4001  0.0683  0.2833
  621MOL0     H81915   9.950   0.290   0.529 -2.9281 -0.8747  2.5155
  621MOL0     H81916  10.045   0.164   0.445 -0.0165  0.5725 -0.9880
  621MOL0     H81917   9.779   0.110   0.352  0.8345 -0.7814  2.9192
  621MOL0     H81918   9.938   0.137   0.270 -0.6383  0.4561 -0.1619
  621MOL0     H81919   9.757   0.366   0.351 -0.1204  2.0645 -2.3156
  621MOL0     H81920   9.730   0.280   0.205 -1.1571  1.2481 -0.6544
  621MOL0     H81921  10.004   0.406   0.283 -0.7485  2.5598  0.9754
  621MOL0     H81922   9.950   0.330   0.126 -1.9746  0.8631 -0.5478
  621MOL0     H81923   9.798   0.573   0.235 -0.3507 -0.3143 -0.6157
  621MOL0     H81924   9.805   0.505   0.074  1.7937  2.9895 -2.6271
  621MOL0     H81925   9.860   0.796   0.064 -1.7920 -2.3653  0.2609
  621MOL0     H81926  10.194   0.970  -0.010  0.3440 -1.1535  1.2410
  621MOL0     H81927  10.072   1.001   0.119 -0.6483 -0.7367  0.6480
  621MOL0     H81928  10.011   1.115  -0.078  3.1900 -0.4975  0.4409
  621MOL0     H81929   9.893   0.974  -0.067 -0.5242  0.9936  3.2443
  621MOL0     H81930   9.994   1.017  -0.306  2.3864  0.0068 -0.4586
  621MOL0     H81931  10.144   0.962  -0.232  1.1194 -0.0465  2.7078
  621MOL0     H81932  10.072   0.746  -0.186 -1.8535 -2.6906 -1.1239
  621MOL0     H81933  10.028   0.787  -0.352 -0.9062  0.0182  0.0734
  621MOL0     H81934   9.644   0.690  -0.227  0.4002  0.8308 -0.1721
  621MOL0     H81935   9.553   0.470  -0.164  0.0184  2.7454  1.7536
  621MOL0     H81936   9.868  -0.018  -0.260 -1.0793 -1.4253 -2.5322
  621MOL0     H81937   9.829  -0.265  -0.244  2.5157  0.5291 -0.4356
  621MOL0     H81938   9.653  -0.553  -0.123  1.0140 -0.4671  0.5111
  621MOL0     H81939   9.554  -0.400  -0.115  1.7705  1.7170  1.1698
  621MOL0     H81940   9.515  -0.439   0.127  1.0555 -2.2049  1.8803
  621MOL0     H81941   9.636  -0.567   0.124 -0.7024 -2.4444 -0.2549
  621MOL0     H81942   9.502  -0.709   0.007  2.3224  2.3230  0.5611
  621MOL0     H81943   9.368  -0.595  -0.026 -0.3429  1.6794  0.2384
  621MOL0     H81944   9.318  -0.573   0.227  0.4303 -0.8658  0.9924
  621MOL0     H81945   9.278  -0.714   0.133 -2.0355  0.5463  0.7805
  621MOL0     H81946   9.345  -0.794   0.339  0.3699 -1.4073  1.2443
  621MOL0     H81947   9.479  -0.674   0.357 -1.1874  2.1529 -1.1512
  621MOL0     H81948   9.596  -0.812   0.179 -1.5025  2.1688 -0.7932
  621MOL0     H81949   9.461  -0.933   0.190  0.2484 -1.1808  0.3845
  621MOL0     H81950   9.661  -0.857   0.413 -0.6897  2.0167 -1.1132
  621MOL0     H81951   9.537  -0.977   0.431 -0.3736  3.8650  2.0703
  621MOL0     H81952   9.746  -1.071   0.380 -4.1618 -5.3360 -0.6743
  621MOL0     H81953   9.790  -0.963   0.241 -1.1424  0.3911 -1.2451
  621MOL0     H81954   9.648  -0.212   0.146  0.3350  0.3051 -0.1448
  621MOL0     H81955   9.683   0.057   0.108 -1.7624 -0.4374 -0.2829
  621MOL0     H81956   9.972   0.335  -0.153 -0.0764  2.7658  4.5981
  621MOL0     H81957  10.034   0.542  -0.220  0.2722  3.5778  1.3924
  621MOL0     H81958  10.181   0.276   1.102  0.0200 -2.2866  0.3614
  621MOL0     H81959  10.383   0.417   1.116  2.1366  1.4626 -1.2897
  621MOL0     H81960  10.781   0.535   1.093 -0.0993  2.0729  1.7418
  621MOL0     H81961  10.909   0.719   1.136  0.3199 -2.2920 -0.1947
  621MOL0     H81962  11.006   0.947   1.147 -0.6086  1.3189 -0.4914
  621MOL0     H81963  11.113   1.042   1.052 -0.8737 -0.1552  0.9128
  621MOL0     H81964  11.245   0.863   1.166  1.1300  1.7537  0.4995
  621MOL0     H81965  11.140   0.745   1.079 -2.1247  1.0747  1.5631
  621MOL0     H81966  11.367   0.931   1.004  0.2082 -1.0792  1.3123
  621MOL0     H81967  11.257   0.888   0.876 -3.7317 -2.9375  0.1778
  621MOL0     H81968  11.318   0.633   0.935 -0.2544 -0.7031 -1.8346
  621MOL0     H81969  11.437   0.730   0.856 -1.9596  0.6605 -0.7699
  621MOL0     H81970  11.615   0.655   1.234 -1.8213 -2.3164 -0.4914
  621MOL0     H81971  10.863   0.869   0.732  3.2084 -0.3930  0.8694
  621MOL0     H81972  10.723   0.668   0.686  2.2267  0.4977 -1.4403
  622MOL0     O81973   6.846   0.062   9.718  0.8148  0.5690  0.6800
  622MOL0     C81974   6.849   0.168   9.779 -0.5600 -0.1838  0.2794
  622MOL0     O81975   6.867   0.292   9.736  0.1603 -0.0285 -0.1325
  622MOL0     C81976   6.899   0.324   9.608 -0.0483 -0.5374 -0.3833
  622MOL0     C81977   6.842   0.257   9.495  0.2685 -1.0739 -0.2003
  622MOL0     C81978   6.867   0.310   9.365 -0.4245 -0.4103 -0.0886
  622MOL0     C81979   6.937   0.429   9.342  0.1072  1.0261 -0.6659
  622MOL0     O81980   6.969   0.466   9.217 -0.2358  0.7653  0.3268
  622MOL0     C81981   7.097   0.418   9.164 -0.1349  0.6451  0.2868
  622MOL0     C81982   7.218   0.498   9.199 -0.3621  0.6990  0.1490
  622MOL0     C81983   7.268   0.606   9.092 -0.6925  0.1972 -0.5855
  622MOL0     C81984   7.161   0.719   9.096  0.5481 -0.1541 -0.3968
  622MOL0     C81985   7.200   0.836   8.998  1.9428 -0.1194 -0.4411
  622MOL0     C81986   7.320   0.912   9.058  0.5820 -0.2584 -0.2663
  622MOL0     C81987   7.351   1.049   8.989 -0.1068 -0.4646 -0.4073
  622MOL0     C81988   7.494   1.088   9.022 -0.0705 -0.8105  0.2773
  622MOL0     N81989   7.501   1.141   9.160 -0.2595  0.9981 -0.3690
  622MOL0     C81990   7.426   1.258   9.182 -0.0778  0.0722  0.2840
  622MOL0     C81991   7.502   1.332   9.272  0.2057  0.1660  0.4826
  622MOL0     C81992   7.468   1.470   9.329  1.0799 -0.0422 -0.7455
  622MOL0     C81993   7.486   1.492   9.482 -0.1758  0.0438 -0.0215
  622MOL0     C81994   7.366   1.448   9.572  1.5503  1.2478 -0.1601
  622MOL0     C81995   7.320   1.304   9.573  0.0120 -0.1187 -0.5017
  622MOL0     O81996   7.323   1.245   9.699  0.7444  0.4461 -0.3999
  622MOL0     C81997   7.423   1.144   9.709  0.0267 -0.2328  0.2976
  622MOL0     C81998   7.409   1.039   9.799  0.5680 -0.1886 -0.8381
  622MOL0     C81999   7.510   0.941   9.825 -0.0195 -0.0828 -0.2533
  622MOL0     C82000   7.625   0.931   9.745  0.3095  0.6116 -0.5805
  622MOL0     C82001   7.721   0.821   9.765  0.7137 -0.9475  0.7782
  622MOL0     O82002   7.714   0.748   9.870 -0.3790 -0.0336 -0.1753
  622MOL0     C82003   7.775   0.622   9.884  0.1249  0.0989  0.1949
  622MOL0     C82004   7.898   0.579   9.829 -0.7785 -0.7263  0.1041
  622MOL0     C82005   7.943   0.446   9.832 -0.0355 -0.0969 -0.1167
  622MOL0     C82006   7.872   0.339   9.907 -0.4286  0.5340 -0.1844
  622MOL0     O82007   7.902   0.209   9.927 -0.3171 -0.0454  0.3858
  622MOL0     C82008   8.003   0.157   9.844  0.3743 -0.8362 -0.3049
  622MOL0     C82009   8.137   0.146   9.908  0.7361 -0.6111 -0.7759
  622MOL0     C82010   8.254   0.086   9.831  0.2570  0.0909  0.2675
  622MOL0     C82011   8.258   0.074   9.673  0.2464  0.6098 -0.3742
  622MOL0     C82012   8.401   0.024   9.626 -0.2491 -0.0940  0.2888
  622MOL0     C82013   8.420  -0.013   9.473 -0.6652  0.2746 -0.4870
  622MOL0     C82014   8.562  -0.070   9.463  0.8828  0.0555  0.7019
  622MOL0     C82015   8.623  -0.097   9.316  1.2358  0.0580 -0.6273
  622MOL0    Cl82016   8.481  -0.146   9.209 -0.2615  0.1351 -0.4650
  622MOL0     C82017   7.763   0.385   9.975 -1.0327 -0.0070  0.8959
  622MOL0     C82018   7.712   0.518   9.961  0.2827  0.0919  0.4015
  622MOL0     O82019   7.805   0.830   9.681  0.0186 -0.0624 -0.0361
  622MOL0     C82020   7.648   1.037   9.660 -0.3002 -0.3112  0.3464
  622MOL0     C82021   7.557   1.148   9.653  0.3254 -0.3382 -0.2411
  622MOL0     N82022   7.624   1.269   9.295 -0.2713  0.4421 -0.2721
  622MOL0     N82023   7.625   1.157   9.227  0.1061  0.0269  0.5023
  622MOL0     C82024   6.987   0.490   9.449 -0.4006  1.0456 -0.6487
  622MOL0     C82025   6.977   0.431   9.576  0.4380 -0.3477 -0.6391
  622MOL0     C82026   6.824   0.156   9.924 -0.2378  0.0520 -0.6178
  622MOL0     C82027   6.800   0.036   9.991 -0.8944 -1.1383  0.3409
  622MOL0     C82028   6.806   0.029  10.132 -0.0372 -0.2666 -0.5081
  622MOL0     C82029   6.809   0.147  10.212  0.4843  0.2011 -0.3282
  622MOL0     O82030   6.796   0.142  10.346 -0.8819  0.4175 -0.1725
  622MOL0     C82031   6.668   0.162  10.399  0.4633  0.0750 -0.6720
  622MOL0     C82032   6.579   0.037  10.389 -0.1808  0.0151 -0.1748
  622MOL0     C82033   6.463   0.051  10.487 -0.3324 -0.1765  0.6389
  622MOL0     C82034   6.380  -0.083  10.478  0.3845  0.4226  0.7746
  622MOL0     C82035   6.424  -0.189  10.568  0.2983  0.3379  0.1058
  622MOL0     C82036   6.450  -0.294  10.623 -0.4545  0.4090 -0.5660
  622MOL0     C82037   6.826   0.269  10.155 -0.2058  0.0096 -0.3058
  622MOL0     C82038   6.847   0.272  10.006  0.6954 -1.0826  0.6216
  622MOL0     H82039   6.779   0.171   9.513 -0.0178 -0.5890  1.2696
  622MOL0     H82040   6.838   0.253   9.277 -0.5599 -0.9902  0.3279
  622MOL0     H82041   7.083   0.421   9.055  1.0276  0.7707  0.1279
  622MOL0     H82042   7.118   0.316   9.195 -0.0339  1.3016  2.5769
  622MOL0     H82043   7.300   0.427   9.215 -2.0829 -1.4802 -0.2134
  622MOL0     H82044   7.208   0.555   9.292 -1.6160 -0.4201  0.7350
  622MOL0     H82045   7.273   0.544   9.001  0.4850 -1.4386  0.5430
  622MOL0     H82046   7.366   0.645   9.120 -1.3518  0.8221  0.9957
  622MOL0     H82047   7.060   0.680   9.088  0.1594  0.6188  0.5534
  622MOL0     H82048   7.156   0.759   9.198  1.1870  2.2829 -1.2428
  622MOL0     H82049   7.114   0.904   8.990  1.6589 -0.6080 -1.8913
  622MOL0     H82050   7.230   0.796   8.901  0.3647 -3.7209  0.4107
  622MOL0     H82051   7.412   0.852   9.060 -0.4243 -1.9242  3.5920
  622MOL0     H82052   7.303   0.935   9.163  2.5744  4.1184 -0.6681
  622MOL0     H82053   7.337   1.031   8.882 -2.7382  1.3441 -0.4659
  622MOL0     H82054   7.272   1.115   9.024  1.4658 -0.4458  3.6838
  622MOL0     H82055   7.508   1.178   8.960 -3.0479  0.2249  0.9041
  622MOL0     H82056   7.570   1.013   8.999 -0.1749 -1.2623  1.3862
  622MOL0     H82057   7.334   1.294   9.136  0.8953  2.8777  0.3087
  622MOL0     H82058   7.366   1.499   9.302  0.7369 -1.8812 -1.6543
  622MOL0     H82059   7.548   1.525   9.280  3.2260 -3.0996 -0.9837
  622MOL0     H82060   7.504   1.597   9.508  0.8561  0.4842 -2.3109
  622MOL0     H82061   7.575   1.440   9.519  0.7435  1.5644 -0.0186
  622MOL0     H82062   7.395   1.483   9.672  0.8721  1.6183 -0.0876
  622MOL0     H82063   7.277   1.512   9.566 -0.0431 -0.6645  1.4607
  622MOL0     H82064   7.383   1.250   9.501  0.2808  0.7871 -0.9556
  622MOL0     H82065   7.215   1.310   9.543  0.6189 -0.8995 -3.0515
  622MOL0     H82066   7.318   1.038   9.859  0.8432  0.2345 -0.4080
  622MOL0     H82067   7.482   0.870   9.902 -0.1335  1.4001  1.1086
  622MOL0     H82068   7.954   0.658   9.780 -2.2193  0.6593  0.6192
  622MOL0     H82069   8.038   0.421   9.786  0.8375  2.7201 -0.0632
  622MOL0     H82070   8.010   0.210   9.748 -1.6234  1.1309  0.5610
  622MOL0     H82071   7.971   0.058   9.811 -1.9390 -0.3051  0.2194
  622MOL0     H82072   8.115   0.097  10.003 -2.6517  0.9060 -0.6399
  622MOL0     H82073   8.160   0.247   9.942 -1.7988  0.7869 -2.7702
  622MOL0     H82074   8.265  -0.014   9.874 -1.5743 -0.1562  0.2408
  622MOL0     H82075   8.344   0.144   9.851  3.3384 -3.5358 -1.8358
  622MOL0     H82076   8.183   0.001   9.642  0.6821  0.1515 -0.3608
  622MOL0     H82077   8.241   0.164   9.614  0.2630  1.6623  1.1599
  622MOL0     H82078   8.428  -0.060   9.692 -0.8850  0.8772  1.8605
  622MOL0     H82079   8.458   0.114   9.650 -0.3909 -0.6903  3.2585
  622MOL0     H82080   8.413   0.072   9.405 -2.7695 -0.5009 -1.3224
  622MOL0     H82081   8.353  -0.096   9.450  1.2354 -1.1009 -1.3598
  622MOL0     H82082   8.632  -0.001   9.511  0.8553  1.5212 -1.2486
  622MOL0     H82083   8.580  -0.167   9.511 -0.3081 -1.2866 -1.4283
  622MOL0     H82084   8.700  -0.174   9.313  0.8556 -0.2998 -1.7211
  622MOL0     H82085   8.667  -0.003   9.281 -0.6009  2.6340  3.2703
  622MOL0     H82086   7.727   0.310  10.045  3.1823 -2.4951  0.7256
  622MOL0     H82087   7.620   0.542  10.012 -0.5893  2.5514 -2.0989
  622MOL0     H82088   7.738   1.049   9.601 -1.2673 -0.9367 -1.3256
  622MOL0     H82089   7.569   1.216   9.569 -2.2308 -2.3446 -2.4289
  622MOL0     H82090   7.052   0.578   9.444  2.4929 -0.9268 -0.4319
  622MOL0     H82091   7.024   0.496   9.649  2.1185  0.8907 -2.6696
  622MOL0     H82092   6.785  -0.053   9.930 -0.5514 -2.8027  2.5324
  622MOL0     H82093   6.803  -0.067  10.183  1.3547 -0.4167 -0.6562
  622MOL0     H82094   6.615   0.244  10.351  2.3838  1.8989  0.2027
  622MOL0     H82095   6.677   0.173  10.508 -1.3483 -1.6621 -0.2631
  622MOL0     H82096   6.555   0.018  10.284 -0.8679  0.1568 -0.0526
  622MOL0     H82097   6.635  -0.050  10.426  0.6087  1.1373  1.3752
  622MOL0     H82098   6.414   0.145  10.459  3.1635  2.1849  1.7681
  622MOL0     H82099   6.511   0.060  10.585  2.8399  1.5300 -0.9447
  622MOL0     H82100   6.274  -0.065  10.495 -0.5778 -1.2627 -2.5808
  622MOL0     H82101   6.377  -0.123  10.376  2.6867  1.3518  0.2645
  622MOL0     H82102   6.454  -0.385  10.680  0.8455 -0.4363 -1.9521
  622MOL0     H82103   6.822   0.357  10.219 -0.8611  0.9446 -1.6000
  622MOL0     H82104   6.869   0.370   9.965  1.7371 -2.1568 -1.5315
  623MOL0     O82105   7.246   3.420   2.770 -0.6442  0.6195 -0.3461
  623MOL0     C82106   7.233   3.301   2.791 -0.1313  0.3304  0.1060
  623MOL0     O82107   7.163   3.260   2.900  0.9623 -0.0967  0.1574
  623MOL0     C82108   7.028   3.272   2.884  0.2136  0.4163  0.2560
  623MOL0     C82109   6.949   3.159   2.886  0.5175 -0.6343  0.9285
  623MOL0     C82110   6.810   3.173   2.852 -1.6650 -0.5815  0.2961
  623MOL0     C82111   6.754   3.305   2.852 -0.7180  0.3817  0.2999
  623MOL0     O82112   6.624   3.337   2.823  0.2718  0.2263 -0.3139
  623MOL0     C82113   6.535   3.229   2.804  0.5695  0.0293 -0.8023
  623MOL0     C82114   6.383   3.282   2.796 -0.1041  0.4100 -0.6240
  623MOL0     C82115   6.358   3.371   2.677  0.5906  0.0800  0.5315
  623MOL0     C82116   6.218   3.413   2.686  1.4425  0.0138  0.3518
  623MOL0     C82117   6.172   3.418   2.548  0.0643 -0.2957  0.2968
  623MOL0     C82118   6.022   3.458   2.539 -0.3384 -0.8958 -0.4559
  623MOL0     C82119   5.957   3.412   2.413 -0.2423  0.3171  0.9423
  623MOL0     C82120   5.970   3.494   2.293 -0.5235  0.3262 -0.3074
  623MOL0     N82121   5.912   3.426   2.176  0.7729 -0.5280 -0.5507
  623MOL0     C82122   5.980   3.393   2.064  0.0194  0.0939  0.5779
  623MOL0     C82123   5.885   3.352   1.974 -0.5974  0.1383 -0.3844
  623MOL0     C82124   5.923   3.315   1.837 -0.3766  1.0554  0.0989
  623MOL0     C82125   5.812   3.354   1.733 -1.1805 -0.6151  0.0317
  623MOL0     C82126   5.803   3.502   1.710 -0.6974 -0.0395  0.5943
  623MOL0     C82127   5.695   3.545   1.614 -0.4910  0.3185 -1.1699
  623MOL0     O82128   5.584   3.465   1.646 -0.0156  0.4646 -0.0070
  623MOL0     C82129   5.455   3.490   1.608 -0.7726 -0.8720  0.1995
  623MOL0     C82130   5.354   3.459   1.696 -0.4022  0.4117 -0.8094
  623MOL0     C82131   5.217   3.483   1.675 -0.8487 -0.2942 -1.2953
  623MOL0     C82132   5.184   3.556   1.552 -0.5253  0.0636 -0.3134
  623MOL0     C82133   5.036   3.583   1.543 -0.1145  0.8870  0.5496
  623MOL0     O82134   4.982   3.623   1.656  0.5363 -0.0028 -0.1206
  623MOL0     C82135   4.851   3.655   1.682 -0.4006  0.0971 -0.4986
  623MOL0     C82136   4.740   3.642   1.594  0.0218  1.3505  0.7206
  623MOL0     C82137   4.606   3.688   1.632  0.5106 -0.2516  0.0733
  623MOL0     C82138   4.585   3.744   1.760  0.5865  0.5956  0.5142
  623MOL0     O82139   4.467   3.799   1.794  0.6045  0.0378  0.2578
  623MOL0     C82140   4.465   3.944   1.761 -0.0527 -0.1365  0.0356
  623MOL0     C82141   4.321   3.985   1.806 -0.1320  0.5132 -0.3023
  623MOL0     C82142   4.311   4.133   1.825 -0.0498 -0.0588 -0.6805
  623MOL0     C82143   4.323   4.215   1.696 -0.4984 -0.7629 -0.5792
  623MOL0     C82144   4.250   4.357   1.690 -0.4856 -0.9803 -0.3132
  623MOL0     C82145   4.193   4.386   1.546 -0.4789 -0.3739 -0.2963
  623MOL0     C82146   4.106   4.521   1.544 -0.1789  0.1378  0.7300
  623MOL0     C82147   3.980   4.522   1.641  0.1238 -1.4240  0.1086
  623MOL0    Cl82148   3.888   4.671   1.618 -0.0560 -0.5908 -0.3326
  623MOL0     C82149   4.698   3.755   1.848  0.2967 -0.3775  0.2352
  623MOL0     C82150   4.828   3.721   1.803 -1.0053  0.3789  0.1097
  623MOL0     O82151   4.991   3.591   1.433  0.5316  0.6345 -0.3240
  623MOL0     C82152   5.278   3.580   1.460 -0.5562 -0.8234  1.8722
  623MOL0     C82153   5.421   3.555   1.484 -0.4766 -0.4879 -0.4240
  623MOL0     N82154   5.763   3.370   2.027  0.0450 -0.0240  0.0413
  623MOL0     N82155   5.778   3.419   2.150 -0.6778  0.9760  0.2295
  623MOL0     C82156   6.840   3.414   2.861  0.2434 -0.3919 -0.0286
  623MOL0     C82157   6.977   3.398   2.877 -0.1206  0.5620 -0.3455
  623MOL0     C82158   7.249   3.213   2.675  0.5509 -0.3263  0.3885
  623MOL0     C82159   7.269   3.268   2.541 -1.0297 -0.9327 -1.1086
  623MOL0     C82160   7.273   3.184   2.429  0.0753  0.0023 -0.1672
  623MOL0     C82161   7.261   3.043   2.447 -0.0872 -0.2038 -1.5168
  623MOL0     O82162   7.260   2.949   2.344 -0.3890 -1.1518 -0.5189
  623MOL0     C82163   7.326   2.976   2.215  0.1365 -0.8707 -0.6384
  623MOL0     C82164   7.480   2.999   2.244 -0.2436  0.1428  0.2767
  623MOL0     C82165   7.528   2.856   2.264  0.1922  0.4157 -0.5702
  623MOL0     C82166   7.681   2.868   2.278 -0.7940  0.9112 -0.1365
  623MOL0     C82167   7.748   2.738   2.317  0.2487  0.4326  0.2801
  623MOL0     C82168   7.799   2.625   2.340 -0.0453  0.6363 -0.1660
  623MOL0     C82169   7.233   2.997   2.572 -0.0817 -0.0006  0.1873
  623MOL0     C82170   7.236   3.076   2.685 -0.4669  0.3312  0.5761
  623MOL0     H82171   7.001   3.063   2.883 -0.0143 -0.9168  0.1611
  623MOL0     H82172   6.756   3.082   2.827 -0.1260 -1.3292 -0.4840
  623MOL0     H82173   6.542   3.151   2.881  1.9340  0.1637 -0.7598
  623MOL0     H82174   6.558   3.181   2.708  1.6784  1.7264 -1.4244
  623MOL0     H82175   6.358   3.335   2.888  2.2631  2.2423 -0.9280
  623MOL0     H82176   6.323   3.191   2.783  3.0815 -2.5013  2.8111
  623MOL0     H82177   6.382   3.308   2.591  1.3932  1.8284 -0.5622
  623MOL0     H82178   6.428   3.454   2.690  3.2552 -2.4164  4.6068
  623MOL0     H82179   6.153   3.339   2.733 -1.6007  0.8010 -2.2525
  623MOL0     H82180   6.202   3.513   2.727 -2.3056 -1.0998  2.0460
  623MOL0     H82181   6.171   3.317   2.506  0.5598 -0.7960  1.4428
  623MOL0     H82182   6.233   3.483   2.485  0.0467 -1.0243 -0.4879
  623MOL0     H82183   6.016   3.567   2.536  0.3241 -0.8738 -2.5899
  623MOL0     H82184   5.970   3.418   2.626  1.2600 -3.4771 -0.5511
  623MOL0     H82185   5.995   3.314   2.382 -0.3455 -0.1597  2.2685
  623MOL0     H82186   5.851   3.403   2.436  0.3183 -1.8490  3.1491
  623MOL0     H82187   6.073   3.525   2.276 -0.0439 -1.7021 -1.2790
  623MOL0     H82188   5.912   3.584   2.318  2.8566  1.9651  2.5942
  623MOL0     H82189   6.086   3.409   2.052 -0.2749 -0.0796 -4.0006
  623MOL0     H82190   5.949   3.209   1.831  2.7045  1.6370  1.3390
  623MOL0     H82191   6.013   3.358   1.790 -1.0191  0.5787 -1.6720
  623MOL0     H82192   5.718   3.312   1.769 -2.1124 -0.3767 -2.0188
  623MOL0     H82193   5.833   3.317   1.632  0.6535 -0.6570  0.3848
  623MOL0     H82194   5.790   3.548   1.808 -1.3530 -0.6235  0.7845
  623MOL0     H82195   5.900   3.541   1.678 -0.1776 -1.7520 -0.0635
  623MOL0     H82196   5.729   3.515   1.515  0.8936 -0.2910 -0.5462
  623MOL0     H82197   5.671   3.650   1.630 -2.5211 -0.2744  0.1888
  623MOL0     H82198   5.387   3.412   1.788  2.1441  0.6139 -1.5458
  623MOL0     H82199   5.143   3.462   1.752 -3.0756  2.3116 -2.5890
  623MOL0     H82200   4.753   3.600   1.495 -2.9786 -0.5136  1.0039
  623MOL0     H82201   4.523   3.675   1.564  0.4562  1.1589 -0.1564
  623MOL0     H82202   4.481   3.954   1.653  0.8369  0.7663  0.2361
  623MOL0     H82203   4.535   4.006   1.818  1.4313  0.0875 -1.9008
  623MOL0     H82204   4.292   3.938   1.900  3.9125  1.3220  1.5651
  623MOL0     H82205   4.259   3.953   1.721 -0.0916  0.5649 -0.3504
  623MOL0     H82206   4.382   4.165   1.901  0.9693 -0.3587 -1.4743
  623MOL0     H82207   4.209   4.152   1.859  0.9583  2.6435  1.1362
  623MOL0     H82208   4.424   4.222   1.655 -0.0714  0.8380  0.6208
  623MOL0     H82209   4.270   4.165   1.615  0.2960 -0.6840 -1.1653
  623MOL0     H82210   4.322   4.438   1.704  0.8752 -2.1346 -0.2787
  623MOL0     H82211   4.177   4.366   1.771  2.1944 -0.5189  2.2577
  623MOL0     H82212   4.122   4.308   1.520 -1.6611  1.7109 -4.0466
  623MOL0     H82213   4.281   4.388   1.480  0.3827 -1.6448  0.7579
  623MOL0     H82214   4.164   4.614   1.553  1.0171 -0.6861  1.8556
  623MOL0     H82215   4.067   4.518   1.442  0.0500  2.9163  0.4639
  623MOL0     H82216   4.000   4.531   1.748 -0.2606  3.8294  0.0081
  623MOL0     H82217   3.919   4.436   1.613 -0.7062  0.1128 -3.2629
  623MOL0     H82218   4.710   3.797   1.948 -0.2475  1.2052 -0.3291
  623MOL0     H82219   4.911   3.733   1.873  1.4833  2.5813 -2.9347
  623MOL0     H82220   5.254   3.637   1.370 -0.5036 -1.1935  1.6196
  623MOL0     H82221   5.493   3.587   1.409 -1.8290 -1.9456 -2.4615
  623MOL0     H82222   6.797   3.512   2.844 -0.7269 -0.9540 -0.9347
  623MOL0     H82223   7.041   3.486   2.881 -1.4401  1.5739  3.8996
  623MOL0     H82224   7.292   3.373   2.525  3.1317 -1.3258  0.8381
  623MOL0     H82225   7.300   3.216   2.329  2.3163 -1.2423 -0.0282
  623MOL0     H82226   7.289   3.064   2.161  1.4319 -0.2992 -0.6417
  623MOL0     H82227   7.301   2.892   2.150 -0.1475 -1.5457  0.3309
  623MOL0     H82228   7.529   3.055   2.164  2.4857  1.8449  2.9009
  623MOL0     H82229   7.503   3.056   2.335  1.2620  1.1749 -0.6978
  623MOL0     H82230   7.502   2.786   2.184  0.0556  0.5528 -0.6462
  623MOL0     H82231   7.488   2.808   2.354 -0.3285  2.8613  0.5886
  623MOL0     H82232   7.728   2.884   2.181 -1.0482  4.5345  0.2143
  623MOL0     H82233   7.704   2.942   2.355 -2.1805  0.8775  0.3445
  623MOL0     H82234   7.833   2.527   2.367 -0.2804  0.0490 -1.8970
  623MOL0     H82235   7.225   2.890   2.586  3.0909 -0.2800  0.5617
  623MOL0     H82236   7.208   3.042   2.785 -0.0516  1.6774  1.1646
  624MOL0     O82237   1.301   0.020   2.427 -0.7277 -0.3745  0.9045
  624MOL0     C82238   1.296  -0.106   2.431 -0.4010  0.1736 -0.9706
  624MOL0     O82239   1.236  -0.193   2.340 -0.1444  0.6098  0.0534
  624MOL0     C82240   1.157  -0.151   2.230 -0.1811 -0.6888 -0.2351
  624MOL0     C82241   1.113  -0.019   2.199 -0.3811 -0.1863  0.0259
  624MOL0     C82242   1.007   0.013   2.114 -0.6457 -0.5561 -0.0269
  624MOL0     C82243   0.937  -0.097   2.056  0.1914  0.2761 -0.0368
  624MOL0     O82244   0.834  -0.068   1.979 -0.0914 -0.7648  0.3739
  624MOL0     C82245   0.714  -0.147   2.008  0.5960 -0.4455 -0.1270
  624MOL0     C82246   0.593  -0.052   1.990 -0.1621  0.2977  1.3694
  624MOL0     C82247   0.454  -0.118   1.949  0.2430  0.0160 -0.0942
  624MOL0     C82248   0.365  -0.017   1.877 -0.5275 -0.0867 -0.1111
  624MOL0     C82249   0.215  -0.053   1.875  0.3318 -0.9444  0.2321
  624MOL0     C82250   0.135   0.043   1.791  0.3083 -0.6319  0.1413
  624MOL0     C82251   0.162   0.042   1.633 -0.0706 -0.5710 -0.9412
  624MOL0     C82252   0.132  -0.105   1.577  0.4650 -0.1682 -0.1868
  624MOL0     N82253   0.166  -0.110   1.430 -0.1080  0.2030 -0.7581
  624MOL0     C82254   0.272  -0.186   1.382  0.1931 -0.1885 -0.3756
  624MOL0     C82255   0.272  -0.150   1.247  0.1157  1.1113  0.1152
  624MOL0     C82256   0.363  -0.195   1.135 -0.2761 -0.2061 -0.5127
  624MOL0     C82257   0.451  -0.076   1.071 -0.0452  0.1386  0.7250
  624MOL0     C82258   0.567  -0.034   1.170  0.9430 -0.0833  0.4455
  624MOL0     C82259   0.642   0.088   1.120  0.4980 -0.3546 -0.2596
  624MOL0     O82260   0.702   0.065   0.995 -0.0442  0.1304 -0.1904
  624MOL0     C82261   0.775   0.155   0.920 -0.5572  0.2248  0.0086
  624MOL0     C82262   0.816   0.280   0.955  0.6560  0.8372 -0.4730
  624MOL0     C82263   0.890   0.361   0.868 -0.3619 -0.5687  0.1980
  624MOL0     C82264   0.933   0.314   0.746 -0.7535 -1.7588  0.3000
  624MOL0     C82265   0.977   0.412   0.650  0.6173  0.1927 -0.5340
  624MOL0     O82266   0.953   0.541   0.699 -1.1785 -0.4638  0.1509
  624MOL0     C82267   0.978   0.654   0.627 -0.4592  0.1279  0.3185
  624MOL0     C82268   1.053   0.742   0.702 -0.8171  0.1815 -0.3025
  624MOL0     C82269   1.096   0.864   0.650  0.6221  0.6910 -0.6894
  624MOL0     C82270   1.035   0.909   0.527 -0.0937  0.4389 -0.1107
  624MOL0     O82271   1.061   1.026   0.473 -0.7612 -0.4828 -0.3187
  624MOL0     C82272   1.002   1.141   0.539 -0.7704 -0.8153 -0.4544
  624MOL0     C82273   1.101   1.206   0.636  0.1695  0.4162  0.5244
  624MOL0     C82274   1.024   1.334   0.692  0.7047  0.0312  0.0318
  624MOL0     C82275   1.120   1.400   0.796  0.8258 -0.2247  0.3171
  624MOL0     C82276   1.061   1.535   0.839  0.1017  1.5948  0.4411
  624MOL0     C82277   1.158   1.613   0.927  0.3518  0.3374  0.3770
  624MOL0     C82278   1.109   1.763   0.931 -0.4766 -0.1761 -0.1239
  624MOL0     C82279   1.159   1.837   1.050 -0.8816 -0.4987 -0.1209
  624MOL0    Cl82280   1.068   1.988   1.042 -0.3541  0.0624 -0.3531
  624MOL0     C82281   0.950   0.816   0.452 -1.0063  0.9954  0.6769
  624MOL0     C82282   0.929   0.690   0.499 -0.0607  0.8173 -0.2824
  624MOL0     O82283   1.034   0.374   0.541  0.1253 -0.2197 -0.3633
  624MOL0     C82284   0.894   0.189   0.709 -0.1579  0.4702  1.4154
  624MOL0     C82285   0.810   0.117   0.793 -0.3374  0.4752  1.1856
  624MOL0     N82286   0.160  -0.064   1.223 -0.1735  0.2749 -0.5182
  624MOL0     N82287   0.083  -0.058   1.328 -0.4484  1.4879 -0.5434
  624MOL0     C82288   0.979  -0.228   2.083 -1.2363 -0.1568  0.6847
  624MOL0     C82289   1.092  -0.250   2.167  0.3546  1.0099  0.4649
  624MOL0     C82290   1.383  -0.177   2.529  0.4718  1.2412  1.0031
  624MOL0     C82291   1.392  -0.327   2.538  0.1674  0.4611 -0.0294
  624MOL0     C82292   1.473  -0.391   2.632 -0.7481  0.5509  0.3898
  624MOL0     C82293   1.574  -0.317   2.704  0.4723  0.1974 -0.2095
  624MOL0     O82294   1.688  -0.389   2.754  0.8197  0.7329 -0.3850
  624MOL0     C82295   1.774  -0.306   2.822  0.1481  0.0607  0.2603
  624MOL0     C82296   1.911  -0.379   2.857 -1.1487  0.2465 -1.2144
  624MOL0     C82297   1.989  -0.268   2.930 -0.5204  0.2246  0.9181
  624MOL0     C82298   2.127  -0.324   2.961 -0.0012 -0.7531 -0.1611
  624MOL0     C82299   2.247  -0.241   2.942  1.3203  0.3885 -0.8853
  624MOL0     C82300   2.321  -0.151   2.925 -0.5358  0.5891  0.1108
  624MOL0     C82301   1.556  -0.172   2.715  1.3675 -0.4584  0.4840
  624MOL0     C82302   1.460  -0.109   2.629 -0.2093 -0.3669  0.0995
  624MOL0     H82303   1.152   0.068   2.251  4.3727 -1.4713 -0.9064
  624MOL0     H82304   0.971   0.115   2.105  0.3995 -0.3237 -2.3173
  624MOL0     H82305   0.717  -0.192   2.108 -0.2374  0.3780  0.2778
  624MOL0     H82306   0.697  -0.231   1.940 -0.7284 -0.0489 -0.3065
  624MOL0     H82307   0.628   0.017   1.913  0.3151 -2.1051 -0.7258
  624MOL0     H82308   0.580   0.005   2.083  0.1372 -0.5671  1.9613
  624MOL0     H82309   0.402  -0.141   2.043 -1.6172 -0.6891 -1.2501
  624MOL0     H82310   0.465  -0.217   1.904 -1.7492 -0.6015  0.6816
  624MOL0     H82311   0.383   0.074   1.934 -0.0495 -0.6448  0.6520
  624MOL0     H82312   0.399   0.002   1.775  1.3291  1.8234  0.8088
  624MOL0     H82313   0.159  -0.053   1.969  0.1709 -0.5758  0.1348
  624MOL0     H82314   0.195  -0.154   1.837 -2.8553 -0.3273  0.0146
  624MOL0     H82315   0.147   0.150   1.811 -2.5024 -0.3683  0.8302
  624MOL0     H82316   0.027   0.027   1.795 -0.0302  0.3293 -2.9037
  624MOL0     H82317   0.099   0.111   1.576 -0.0895  1.6440  1.5779
  624MOL0     H82318   0.264   0.078   1.621 -0.4288  0.3276 -1.3618
  624MOL0     H82319   0.028  -0.130   1.600  0.9750 -0.8984  1.4485
  624MOL0     H82320   0.200  -0.175   1.626 -1.9018 -3.6696 -1.4720
  624MOL0     H82321   0.344  -0.257   1.422  0.0523 -1.5398 -2.3480
  624MOL0     H82322   0.299  -0.245   1.062  1.2267 -1.1047 -1.2636
  624MOL0     H82323   0.432  -0.268   1.177  0.6989  1.1015  0.2587
  624MOL0     H82324   0.380   0.005   1.047 -1.0639 -0.2074  2.3804
  624MOL0     H82325   0.489  -0.116   0.977  4.7474  3.1119  1.1022
  624MOL0     H82326   0.507  -0.019   1.260 -3.9607  0.8630 -2.6342
  624MOL0     H82327   0.638  -0.112   1.199 -1.3914 -2.5246 -0.0149
  624MOL0     H82328   0.707   0.119   1.202  2.9383  0.4749 -2.3427
  624MOL0     H82329   0.577   0.174   1.101  2.8161  1.3158 -1.2721
  624MOL0     H82330   0.779   0.323   1.048  0.8409 -2.3414  1.2036
  624MOL0     H82331   0.895   0.466   0.895  0.9420 -0.3405 -0.8667
  624MOL0     H82332   1.082   0.701   0.798 -0.9905 -0.9609 -0.7191
  624MOL0     H82333   1.170   0.917   0.710 -0.0575 -1.2665  2.0470
  624MOL0     H82334   0.912   1.114   0.595 -0.3857 -0.2605  0.4534
  624MOL0     H82335   0.972   1.217   0.466 -2.6880  2.3304  3.2082
  624MOL0     H82336   1.189   1.233   0.579  0.9836 -3.1451 -0.1407
  624MOL0     H82337   1.114   1.132   0.716  0.8094 -0.8698 -0.7243
  624MOL0     H82338   0.924   1.321   0.734 -0.0311  2.2922 -0.8769
  624MOL0     H82339   1.001   1.402   0.610 -0.5434 -1.7162 -1.1425
  624MOL0     H82340   1.105   1.342   0.887 -1.5107 -1.2785 -0.6614
  624MOL0     H82341   1.227   1.406   0.772  1.0596 -4.3531 -0.5793
  624MOL0     H82342   0.966   1.520   0.892 -1.2504  2.0837 -1.7214
  624MOL0     H82343   1.031   1.588   0.748  1.5933 -0.5030 -1.3940
  624MOL0     H82344   1.259   1.606   0.883  0.1568  0.0610 -0.0381
  624MOL0     H82345   1.162   1.563   1.024  0.0305 -3.1045 -1.1970
  624MOL0     H82346   1.143   1.805   0.836 -2.3456  2.8656  0.4249
  624MOL0     H82347   1.000   1.758   0.936 -0.6033  0.1932 -2.0548
  624MOL0     H82348   1.266   1.857   1.040 -0.0081 -3.9534  0.7766
  624MOL0     H82349   1.148   1.795   1.151  0.6948  0.0500  0.3017
  624MOL0     H82350   0.901   0.839   0.358 -2.0047 -2.8173  0.1144
  624MOL0     H82351   0.874   0.624   0.433  0.1729 -1.6383  1.8267
  624MOL0     H82352   0.915   0.149   0.610 -4.3513  1.2753  0.0118
  624MOL0     H82353   0.783   0.019   0.755  0.1018  0.9399 -0.3594
  624MOL0     H82354   0.912  -0.305   2.045 -0.7530 -0.7128  0.9502
  624MOL0     H82355   1.120  -0.355   2.180 -0.9417  0.5888  0.0342
  624MOL0     H82356   1.329  -0.392   2.477 -0.1509  0.3664  0.3894
  624MOL0     H82357   1.479  -0.500   2.632  1.9588  0.6324 -0.6758
  624MOL0     H82358   1.724  -0.287   2.918 -0.2547 -1.0518  0.2762
  624MOL0     H82359   1.802  -0.224   2.756 -0.6261 -1.0196 -1.4619
  624MOL0     H82360   1.903  -0.471   2.915  0.5437  0.4135 -0.6669
  624MOL0     H82361   1.963  -0.394   2.762  4.0295  1.8298  1.0143
  624MOL0     H82362   1.950  -0.246   3.029  3.9030  0.7064  2.7896
  624MOL0     H82363   2.004  -0.179   2.868  0.4642 -1.2583 -1.0871
  624MOL0     H82364   2.122  -0.341   3.069 -0.7188  1.9708  0.2963
  624MOL0     H82365   2.151  -0.417   2.909  3.6351  1.4053 -2.8970
  624MOL0     H82366   2.388  -0.069   2.912 -1.5409  1.4756  0.4325
  624MOL0     H82367   1.620  -0.098   2.761 -1.9312  2.0761  1.4009
  624MOL0     H82368   1.451  -0.002   2.640 -3.2016 -0.1498 -2.9523
  625MOL0     O82369   2.084   7.872   2.567 -0.2500 -0.3015 -0.2552
  625MOL0     C82370   1.994   7.877   2.491  1.3137 -0.9122 -0.3865
  625MOL0     O82371   1.953   7.982   2.419 -1.4005 -0.6332  0.0575
  625MOL0     C82372   2.039   8.089   2.403 -1.3571 -0.3029  0.0331
  625MOL0     C82373   2.114   8.107   2.280  1.0946  0.2157  0.0908
  625MOL0     C82374   2.203   8.220   2.261 -0.3655  0.8800 -0.1045
  625MOL0     C82375   2.213   8.325   2.354  0.6859  0.1215  0.8266
  625MOL0     O82376   2.295   8.435   2.329  0.5919 -0.7473 -1.2850
  625MOL0     C82377   2.232   8.565   2.367 -0.0734  0.2708  0.0492
  625MOL0     C82378   2.349   8.665   2.377 -0.4044  0.1158 -0.0451
  625MOL0     C82379   2.296   8.803   2.344  0.4731  0.0687  0.4083
  625MOL0     C82380   2.415   8.900   2.318 -0.4205  0.7363  0.0572
  625MOL0     C82381   2.471   8.970   2.447 -0.1613  0.8051  0.1527
  625MOL0     C82382   2.555   9.085   2.397 -0.1743  1.1093  0.6215
  625MOL0     C82383   2.693   9.039   2.331  0.8301 -0.5054 -0.3112
  625MOL0     C82384   2.747   9.154   2.253 -0.1236 -0.9550 -0.9006
  625MOL0     N82385   2.719   9.132   2.112 -0.0542 -0.4390 -0.5173
  625MOL0     C82386   2.752   9.020   2.036  0.2221 -1.1665 -0.2645
  625MOL0     C82387   2.714   9.060   1.918 -1.2165  0.3150 -0.8204
  625MOL0     C82388   2.733   8.976   1.802 -0.5200 -0.1398 -0.3880
  625MOL0     C82389   2.793   9.060   1.687  0.5623  0.1435 -1.0095
  625MOL0     C82390   2.788   8.969   1.564  0.0384  0.6813  0.2801
  625MOL0     C82391   2.837   9.038   1.433  0.0974 -0.5665  0.1833
  625MOL0     O82392   2.980   9.022   1.415  0.3249 -0.2045 -0.4226
  625MOL0     C82393   3.019   8.898   1.373 -0.7832  0.0296 -0.4010
  625MOL0     C82394   3.134   8.843   1.432  0.8246  0.6245 -0.6757
  625MOL0     C82395   3.197   8.742   1.373  0.0037  0.6000 -0.8882
  625MOL0     C82396   3.142   8.685   1.253  0.2047  0.8472  0.6144
  625MOL0     C82397   3.208   8.569   1.190 -0.4331 -0.1691  0.7250
  625MOL0     O82398   3.155   8.516   1.075  0.3640  0.5657 -0.5867
  625MOL0     C82399   3.218   8.402   1.030  0.3018  0.2811  0.1311
  625MOL0     C82400   3.157   8.279   1.059 -0.6179 -0.4895  0.2371
  625MOL0     C82401   3.225   8.161   1.025 -0.0417  0.1456 -0.5463
  625MOL0     C82402   3.346   8.172   0.963  0.8845 -0.4799 -0.4030
  625MOL0     O82403   3.428   8.064   0.931 -1.1461  0.8097 -0.7955
  625MOL0     C82404   3.439   7.961   1.040  0.7823  0.0231  0.5163
  625MOL0     C82405   3.491   7.999   1.175  0.6362  0.6499  0.0471
  625MOL0     C82406   3.503   7.870   1.258 -0.0756  0.2581  0.0935
  625MOL0     C82407   3.591   7.896   1.387 -0.6294 -0.1421  0.6592
  625MOL0     C82408   3.635   7.764   1.441  0.0195 -0.2597 -1.2751
  625MOL0     C82409   3.764   7.776   1.520 -0.4914  0.0622  0.4983
  625MOL0     C82410   3.812   7.631   1.562  0.1592  0.1157 -0.5407
  625MOL0     C82411   3.709   7.574   1.658  0.4048 -0.3119 -0.5184
  625MOL0    Cl82412   3.650   7.688   1.785 -0.1629 -0.2592 -0.2856
  625MOL0     C82413   3.399   8.288   0.923  0.1209 -0.4474 -0.7661
  625MOL0     C82414   3.344   8.406   0.976  0.5099 -0.1134  0.5687
  625MOL0     O82415   3.313   8.526   1.253  0.3021 -0.0960  0.3331
  625MOL0     C82416   3.031   8.747   1.189 -0.3656  0.6577  0.1726
  625MOL0     C82417   2.967   8.851   1.251 -0.2790 -0.9669 -0.1819
  625MOL0     N82418   2.668   9.190   1.914 -0.3478  0.1017 -0.6053
  625MOL0     N82419   2.678   9.242   2.035  0.6689  0.4697 -0.5370
  625MOL0     C82420   2.147   8.296   2.478 -0.4977 -0.1960  0.8462
  625MOL0     C82421   2.072   8.181   2.505 -0.0446 -0.4832 -0.7461
  625MOL0     C82422   1.910   7.749   2.490 -0.2206  0.5459 -0.1222
  625MOL0     C82423   1.792   7.735   2.422  0.6121 -0.3397  0.4604
  625MOL0     C82424   1.715   7.616   2.426  0.3683 -0.5807  0.4071
  625MOL0     C82425   1.755   7.505   2.499 -0.3184  0.0823  0.5258
  625MOL0     O82426   1.671   7.393   2.500  0.9368 -0.1200  0.2038
  625MOL0     C82427   1.696   7.266   2.561  0.0022 -0.5919  0.5613
  625MOL0     C82428   1.597   7.169   2.490  0.0358 -0.3602 -0.8803
  625MOL0     C82429   1.612   7.017   2.513 -0.3554  0.3303 -0.2756
  625MOL0     C82430   1.482   6.940   2.470 -0.4448  0.1577  0.1203
  625MOL0     C82431   1.445   6.945   2.324  0.3888  0.1008  0.0503
  625MOL0     C82432   1.420   6.986   2.209 -0.4517 -0.2089 -0.1698
  625MOL0     C82433   1.879   7.514   2.565  0.2762  0.2406 -0.0151
  625MOL0     C82434   1.952   7.633   2.566  0.7053 -1.1670  0.1106
  625MOL0     H82435   2.099   8.033   2.203  1.1535 -0.2823  0.5527
  625MOL0     H82436   2.253   8.218   2.165 -0.2513 -0.1909 -0.0344
  625MOL0     H82437   2.182   8.556   2.464  0.0904  0.1647  0.1236
  625MOL0     H82438   2.159   8.584   2.288  0.6133 -1.4344 -1.0462
  625MOL0     H82439   2.417   8.624   2.302 -1.2420  3.0844 -2.6298
  625MOL0     H82440   2.398   8.678   2.474  0.8124  1.2091 -0.7705
  625MOL0     H82441   2.235   8.845   2.425  0.6684  0.1253  0.5270
  625MOL0     H82442   2.237   8.808   2.252 -0.9233  3.5126  1.3164
  625MOL0     H82443   2.493   8.839   2.271 -0.3699  0.5269  0.4095
  625MOL0     H82444   2.388   8.981   2.249 -2.6305  1.5069  1.7154
  625MOL0     H82445   2.525   8.912   2.522  0.3946  1.2418  0.0965
  625MOL0     H82446   2.377   9.005   2.491 -2.3031 -2.0848 -1.7004
  625MOL0     H82447   2.577   9.145   2.486  1.6690  3.2683 -1.1686
  625MOL0     H82448   2.500   9.144   2.323  0.6872 -1.9438 -2.7578
  625MOL0     H82449   2.762   9.024   2.414 -0.9196 -2.8400  0.8298
  625MOL0     H82450   2.691   8.949   2.269 -0.3637 -1.2505  0.7635
  625MOL0     H82451   2.854   9.169   2.265 -0.3829  2.3035 -1.7188
  625MOL0     H82452   2.713   9.254   2.281  2.4120  0.4905 -2.6108
  625MOL0     H82453   2.788   8.928   2.082  4.3247 -0.1185 -0.9940
  625MOL0     H82454   2.632   8.961   1.764 -1.4154  1.5601  1.1433
  625MOL0     H82455   2.787   8.882   1.816  1.1048  0.2488 -3.2843
  625MOL0     H82456   2.892   9.100   1.714 -0.8566  1.0434  3.8878
  625MOL0     H82457   2.725   9.143   1.666  2.0463  1.1734 -1.9887
  625MOL0     H82458   2.838   8.873   1.583 -1.5249 -0.1720  0.2926
  625MOL0     H82459   2.685   8.935   1.547 -0.3290  0.1679  3.1531
  625MOL0     H82460   2.807   9.143   1.446  2.3275  0.1388  0.1249
  625MOL0     H82461   2.774   9.009   1.349 -2.6275  1.8498  1.2143
  625MOL0     H82462   3.169   8.881   1.527 -0.8116 -1.2871  0.7634
  625MOL0     H82463   3.282   8.707   1.431  0.7074 -0.3129 -2.3957
  625MOL0     H82464   3.057   8.296   1.097  0.6806  4.7528  2.0550
  625MOL0     H82465   3.172   8.070   1.051 -0.9612  1.5890  3.4214
  625MOL0     H82466   3.494   7.874   1.004 -0.3283  0.3665 -2.2813
  625MOL0     H82467   3.342   7.912   1.050 -2.4450  4.3157 -4.2480
  625MOL0     H82468   3.418   8.060   1.229  0.0718 -2.6095  3.3895
  625MOL0     H82469   3.581   8.057   1.155  0.8268 -0.6973 -3.7027
  625MOL0     H82470   3.536   7.785   1.198  1.7213 -0.0191  1.3696
  625MOL0     H82471   3.404   7.842   1.297 -0.1143 -0.9032 -0.7928
  625MOL0     H82472   3.677   7.957   1.357 -2.7976  1.2146 -3.6045
  625MOL0     H82473   3.548   7.965   1.461  3.6409  3.8118 -0.0472
  625MOL0     H82474   3.651   7.691   1.361  0.8177 -1.9397  0.3355
  625MOL0     H82475   3.555   7.729   1.506 -0.2133  0.1133 -1.3616
  625MOL0     H82476   3.769   7.837   1.610 -1.7086 -0.1478  0.7148
  625MOL0     H82477   3.835   7.819   1.447 -2.2466  0.7329 -0.8847
  625MOL0     H82478   3.836   7.562   1.481  1.0063 -2.3102  1.6554
  625MOL0     H82479   3.906   7.657   1.612 -0.8910  1.0484  1.0274
  625MOL0     H82480   3.757   7.492   1.712 -0.0071 -1.1839 -1.4578
  625MOL0     H82481   3.628   7.523   1.607  1.7362 -3.3414  0.1465
  625MOL0     H82482   3.498   8.281   0.877  0.6439  1.4257 -0.0214
  625MOL0     H82483   3.396   8.500   0.964  2.2254 -1.0848 -0.0123
  625MOL0     H82484   3.004   8.700   1.095  0.4914  1.2113 -0.3653
  625MOL0     H82485   2.883   8.904   1.207 -1.9453 -0.8625  2.8483
  625MOL0     H82486   2.166   8.360   2.563 -0.6665 -2.0615  2.3713
  625MOL0     H82487   2.037   8.160   2.605  0.9822  0.1683 -0.2291
  625MOL0     H82488   1.753   7.826   2.376  4.1755  1.4310  0.5486
  625MOL0     H82489   1.625   7.605   2.366 -2.0573 -0.5350  3.7652
  625MOL0     H82490   1.688   7.265   2.670  0.8495 -1.0949  0.6336
  625MOL0     H82491   1.791   7.217   2.534 -0.1211  0.0617 -1.2329
  625MOL0     H82492   1.499   7.189   2.534  0.4331 -2.8138  1.3172
  625MOL0     H82493   1.590   7.184   2.381  0.9733 -5.2360 -1.8466
  625MOL0     H82494   1.646   7.001   2.616  3.7536  1.1364 -1.3219
  625MOL0     H82495   1.692   6.975   2.451 -0.4083  1.8839 -1.4469
  625MOL0     H82496   1.478   6.835   2.500  0.3270  0.3830  1.0608
  625MOL0     H82497   1.399   6.971   2.535  1.0170  0.5478  1.8715
  625MOL0     H82498   1.404   7.010   2.106  0.4887  6.0282  0.7445
  625MOL0     H82499   1.912   7.433   2.630 -0.0073 -0.1775 -0.3831
  625MOL0     H82500   2.037   7.637   2.633 -0.0498  2.0101  1.0862
  626MOL0     O82501   3.031   4.045   9.846  0.6688  0.6361  0.4970
  626MOL0     C82502   2.977   3.951   9.919  0.6578  0.3743  0.7516
  626MOL0     O82503   2.853   3.953   9.976 -0.2309  0.2361  0.5109
  626MOL0     C82504   2.812   4.073  10.005 -0.2207  1.0225  0.1188
  626MOL0     C82505   2.880   4.168  10.097  0.2018  0.6650  0.6393
  626MOL0     C82506   2.824   4.287  10.125  1.0543 -1.3776 -0.2003
  626MOL0     C82507   2.697   4.332  10.078  0.4157  0.2046  0.0481
  626MOL0     O82508   2.647   4.450  10.128 -0.7098  0.4763  0.1270
  626MOL0     C82509   2.513   4.479  10.112  0.8700 -0.3332 -0.1782
  626MOL0     C82510   2.421   4.396  10.198  0.4687 -0.2072 -0.0955
  626MOL0     C82511   2.271   4.446  10.170 -0.5080  0.3277  0.7151
  626MOL0     C82512   2.192   4.318  10.152  1.0634  0.1316 -0.1531
  626MOL0     C82513   2.040   4.334  10.181  0.7512 -0.0287  0.2774
  626MOL0     C82514   1.958   4.209  10.167  0.5382 -0.2296 -0.0733
  626MOL0     C82515   1.804   4.236  10.196  0.1676 -0.1264  0.1295
  626MOL0     C82516   1.732   4.104  10.184  0.3140 -0.0071 -0.2455
  626MOL0     N82517   1.732   4.024  10.313 -0.0689  0.0372  0.1498
  626MOL0     C82518   1.726   4.070  10.440  0.3647 -0.8880  0.5074
  626MOL0     C82519   1.760   3.959  10.516 -0.2510 -0.6823  0.1974
  626MOL0     C82520   1.751   3.950  10.668  0.1623  0.2977  0.8614
  626MOL0     C82521   1.821   4.068  10.738 -1.3357  0.2942 -0.2677
  626MOL0     C82522   1.963   4.096  10.696 -0.9003 -0.9977  0.2778
  626MOL0     C82523   2.024   4.227  10.760 -0.2250  0.5555  0.3567
  626MOL0     O82524   2.079   4.306  10.669 -0.0701  0.1551 -0.0599
  626MOL0     C82525   2.124   4.430  10.698  0.2179 -0.2159  0.5710
  626MOL0     C82526   2.217   4.479  10.608  0.4328 -0.4179  0.1269
  626MOL0     C82527   2.285   4.594  10.632 -0.2725 -1.0061  0.0912
  626MOL0     C82528   2.264   4.673  10.750 -0.0014 -0.4144  0.8541
  626MOL0     C82529   2.330   4.801  10.766 -0.9452  0.9467 -0.8538
  626MOL0     O82530   2.428   4.821  10.679 -0.3569  0.3815  0.6417
  626MOL0     C82531   2.523   4.919  10.678 -0.4047 -0.0415 -0.0366
  626MOL0     C82532   2.581   4.975  10.562 -0.0491  0.1735  0.0851
  626MOL0     C82533   2.668   5.082  10.572  0.0757  0.6959  0.3978
  626MOL0     C82534   2.705   5.133  10.699 -0.3053 -0.3591 -0.2964
  626MOL0     O82535   2.799   5.231  10.701  0.6456  0.3814  0.4386
  626MOL0     C82536   2.858   5.258  10.829  0.3171 -0.3579 -0.7889
  626MOL0     C82537   2.997   5.321  10.806 -0.1654 -0.4492  0.6751
  626MOL0     C82538   3.014   5.471  10.816  0.8550  0.1575 -0.7781
  626MOL0     C82539   3.155   5.509  10.769  0.1829  0.9131  0.2231
  626MOL0     C82540   3.199   5.655  10.797 -0.0923  1.0084  0.0634
  626MOL0     C82541   3.232   5.669  10.947 -0.5290 -1.2976 -0.0527
  626MOL0     C82542   3.255   5.825  10.978 -0.2763  0.4136 -0.0544
  626MOL0     C82543   3.335   5.843  11.102  0.6458 -0.2855 -0.9271
  626MOL0    Cl82544   3.254   5.758  11.242  0.0762  0.1493 -0.2493
  626MOL0     C82545   2.652   5.074  10.808  1.1501  0.7847 -0.8016
  626MOL0     C82546   2.555   4.979  10.803  0.1371 -0.4358 -0.1043
  626MOL0     O82547   2.306   4.868  10.865 -0.3602  0.3291 -0.2384
  626MOL0     C82548   2.170   4.624  10.843  0.2973 -0.3854 -0.6975
  626MOL0     C82549   2.098   4.505  10.812 -0.4414  0.7873 -0.6616
  626MOL0     N82550   1.754   3.851  10.442  0.0445  0.1146 -0.0893
  626MOL0     N82551   1.737   3.886  10.320 -0.0343 -0.0915  0.1087
  626MOL0     C82552   2.627   4.244   9.991 -0.5414 -0.3909  0.3954
  626MOL0     C82553   2.687   4.117   9.961  0.4702  0.3301 -0.2751
  626MOL0     C82554   3.063   3.842   9.952 -0.3834  0.4283 -0.3309
  626MOL0     C82555   3.185   3.824   9.888 -0.1729  0.7793  0.3299
  626MOL0     C82556   3.275   3.725   9.931 -0.3630 -0.0119  0.4582
  626MOL0     C82557   3.244   3.638  10.041 -0.4703  0.6842 -0.2155
  626MOL0     O82558   3.347   3.565  10.100  0.0726  0.0833  0.0792
  626MOL0     C82559   3.329   3.492  10.220  0.6394  0.2196  0.2533
  626MOL0     C82560   3.448   3.410  10.258  0.5734  0.0409  0.3290
  626MOL0     C82561   3.405   3.284  10.338 -0.0270  0.5435  0.6156
  626MOL0     C82562   3.511   3.175  10.361 -0.9973 -0.0201  0.4431
  626MOL0     C82563   3.593   3.220  10.477 -0.1334  0.5554  0.8072
  626MOL0     C82564   3.663   3.271  10.567  0.0877  0.9130  0.7125
  626MOL0     C82565   3.123   3.651  10.103 -0.0945 -0.5081 -0.8410
  626MOL0     C82566   3.025   3.749  10.056 -0.8343  0.5351 -0.3728
  626MOL0     H82567   2.979   4.143  10.131 -0.3186 -1.1786  0.8789
  626MOL0     H82568   2.895   4.338  10.189  2.4505 -3.7488  0.2397
  626MOL0     H82569   2.487   4.489  10.006 -1.3400 -0.5922  0.2817
  626MOL0     H82570   2.506   4.583  10.147 -0.5096 -0.2779 -0.5633
  626MOL0     H82571   2.452   4.406  10.302  3.3042 -2.6563 -0.5599
  626MOL0     H82572   2.422   4.288  10.178 -1.1877 -0.1433 -0.6727
  626MOL0     H82573   2.261   4.502  10.076 -1.0613 -1.8843 -0.6072
  626MOL0     H82574   2.242   4.500  10.261 -3.1741 -1.4468  1.0439
  626MOL0     H82575   2.205   4.269  10.055  0.4005 -0.4412  0.0433
  626MOL0     H82576   2.222   4.240  10.221 -0.3032 -1.8281 -1.6667
  626MOL0     H82577   2.000   4.413  10.116  0.2655 -1.4532 -1.2436
  626MOL0     H82578   2.035   4.375  10.282  1.3453 -0.7905  0.6310
  626MOL0     H82579   1.990   4.126  10.230  1.8700 -2.8933 -3.8839
  626MOL0     H82580   1.973   4.170  10.066 -2.6073 -1.5005 -0.1436
  626MOL0     H82581   1.785   4.282  10.294 -1.4098 -0.0512 -0.1881
  626MOL0     H82582   1.759   4.299  10.119 -1.1872 -2.2425 -0.9157
  626MOL0     H82583   1.760   4.043  10.097  0.1718 -0.9110  0.3280
  626MOL0     H82584   1.626   4.127  10.171 -0.3435 -3.3998 -2.3943
  626MOL0     H82585   1.697   4.166  10.483 -3.5743 -1.5242 -0.3344
  626MOL0     H82586   1.805   3.859  10.696  0.5205 -0.2206 -1.3399
  626MOL0     H82587   1.648   3.933  10.699 -0.0765  0.3800  0.1309
  626MOL0     H82588   1.835   4.030  10.839 -0.1398  0.6296 -0.2883
  626MOL0     H82589   1.767   4.163  10.740  0.7729  1.5451  0.8216
  626MOL0     H82590   2.037   4.016  10.699 -0.5915 -0.6991  0.7204
  626MOL0     H82591   1.966   4.127  10.591  1.7949 -0.0901  0.5593
  626MOL0     H82592   2.099   4.196  10.833  2.1423 -1.3871 -2.6621
  626MOL0     H82593   1.940   4.279  10.807 -0.1635  1.2739 -0.2928
  626MOL0     H82594   2.256   4.413  10.532  6.5226  0.3461  2.0877
  626MOL0     H82595   2.360   4.626  10.560  0.0025 -1.0418  0.3567
  626MOL0     H82596   2.538   4.937  10.470 -2.5445  0.3323  1.1161
  626MOL0     H82597   2.713   5.128  10.484  2.6358 -1.5493  0.4225
  626MOL0     H82598   2.869   5.173  10.897  0.0916 -1.1319 -1.7087
  626MOL0     H82599   2.795   5.332  10.879  0.2189 -0.9598 -0.0083
  626MOL0     H82600   3.049   5.293  10.714  1.9779  0.6488  1.4791
  626MOL0     H82601   3.061   5.273  10.880 -3.8803 -2.4337  2.9485
  626MOL0     H82602   2.997   5.505  10.918 -2.7737  1.2607 -1.5879
  626MOL0     H82603   2.934   5.521  10.760 -1.3713 -2.2678  0.0388
  626MOL0     H82604   3.218   5.436  10.822  1.1856  0.7834 -1.1036
  626MOL0     H82605   3.168   5.490  10.662 -0.5303 -0.4059  0.3460
  626MOL0     H82606   3.124   5.730  10.767  0.6467  0.4894 -3.4515
  626MOL0     H82607   3.292   5.665  10.742 -1.2435 -0.0353 -2.2049
  626MOL0     H82608   3.322   5.612  10.973 -0.5940 -3.2428 -3.4903
  626MOL0     H82609   3.150   5.626  11.006 -0.2895 -1.6586  0.0212
  626MOL0     H82610   3.294   5.884  10.895  0.0756  2.3770  1.4294
  626MOL0     H82611   3.154   5.863  10.995 -0.1091  0.0103  2.2415
  626MOL0     H82612   3.340   5.950  11.120 -0.5133  0.0835 -2.5875
  626MOL0     H82613   3.436   5.811  11.075  1.3569  2.1263 -1.3182
  626MOL0     H82614   2.671   5.103  10.911  2.5879  1.4272 -1.2196
  626MOL0     H82615   2.501   4.977  10.897  2.2576  2.3722  1.3381
  626MOL0     H82616   2.150   4.692  10.925  4.7277  2.1754 -1.4267
  626MOL0     H82617   2.019   4.476  10.880 -2.1018  1.6084 -2.1574
  626MOL0     H82618   2.527   4.258   9.950 -0.5045 -0.9186  0.1136
  626MOL0     H82619   2.634   4.053   9.890 -0.7456  2.1099 -1.0487
  626MOL0     H82620   3.213   3.894   9.810  4.4331  0.0618  1.0207
  626MOL0     H82621   3.367   3.710   9.876  0.3654  2.4097  0.9106
  626MOL0     H82622   3.234   3.438  10.217 -1.3252  3.4295  0.1184
  626MOL0     H82623   3.314   3.566  10.299  2.1848 -2.9411  3.7923
  626MOL0     H82624   3.507   3.368  10.176  1.0363 -3.3478  2.1943
  626MOL0     H82625   3.517   3.469  10.320  1.0698 -3.2236  3.1997
  626MOL0     H82626   3.329   3.234  10.277  4.5356 -3.1613 -2.7529
  626MOL0     H82627   3.371   3.324  10.434  1.5772  5.1167 -0.4549
  626MOL0     H82628   3.473   3.075  10.383 -1.3679 -0.5675 -2.3774
  626MOL0     H82629   3.581   3.161  10.279  1.1418 -0.8853  2.3129
  626MOL0     H82630   3.728   3.323  10.635 -0.3119  2.7141 -0.2018
  626MOL0     H82631   3.094   3.575  10.175  2.6274  0.3939  1.4098
  626MOL0     H82632   2.935   3.742  10.116  0.4928  1.8850  1.9254
  627MOL0     O82633   5.919   0.166   7.414 -0.2215  0.4226  0.5942
  627MOL0     C82634   5.963   0.063   7.461 -0.4211  0.7331  1.0368
  627MOL0     O82635   5.982   0.030   7.595 -1.1022  0.4571  0.1624
  627MOL0     C82636   5.925   0.112   7.689 -1.0586 -0.3972 -1.1630
  627MOL0     C82637   5.793   0.079   7.731 -0.4323  0.3387  0.3860
  627MOL0     C82638   5.737   0.152   7.839 -0.1227  0.2441  0.1004
  627MOL0     C82639   5.806   0.267   7.891  0.8788  0.5233  0.7274
  627MOL0     O82640   5.741   0.336   7.988 -0.4027 -0.7235  0.5519
  627MOL0     C82641   5.816   0.432   8.072  0.4741  0.2640 -0.3242
  627MOL0     C82642   5.791   0.579   8.044 -0.1638 -0.1865 -0.2675
  627MOL0     C82643   5.640   0.602   8.006  0.6494  0.1953 -0.6170
  627MOL0     C82644   5.621   0.737   7.921  0.0157 -0.6932 -0.6837
  627MOL0     C82645   5.678   0.736   7.787  0.2505  0.1324  0.2841
  627MOL0     C82646   5.633   0.638   7.678 -0.0693  0.1429  0.0749
  627MOL0     C82647   5.747   0.545   7.641  0.5277  0.2324  0.0447
  627MOL0     C82648   5.722   0.419   7.566 -0.0045  0.5323  0.5989
  627MOL0     N82649   5.652   0.441   7.432 -0.6974  0.1404  0.1460
  627MOL0     C82650   5.687   0.369   7.319 -0.6996  0.5879 -1.3325
  627MOL0     C82651   5.614   0.423   7.221 -1.5338  0.3482 -0.9790
  627MOL0     C82652   5.623   0.382   7.080  0.8072 -0.2253  2.2989
  627MOL0     C82653   5.496   0.305   7.034  0.3995 -0.5464 -0.2393
  627MOL0     C82654   5.437   0.361   6.912 -0.1798  0.0491 -0.0755
  627MOL0     C82655   5.310   0.287   6.878 -0.7787 -0.3912  0.2023
  627MOL0     O82656   5.348   0.153   6.842 -0.5943 -0.2135  0.0271
  627MOL0     C82657   5.253   0.059   6.828  0.0404  0.2348 -0.6772
  627MOL0     C82658   5.121   0.074   6.787  0.3612  0.5625 -0.6784
  627MOL0     C82659   5.036  -0.038   6.792 -1.4533  0.6853  0.4980
  627MOL0     C82660   5.079  -0.154   6.838  0.1410  1.0321  0.2108
  627MOL0     C82661   4.984  -0.269   6.824  0.2289 -0.0773 -0.2972
  627MOL0     O82662   4.855  -0.233   6.808  0.2356 -0.0198 -0.3018
  627MOL0     C82663   4.763  -0.324   6.802  0.1433  0.0272  0.5146
  627MOL0     C82664   4.754  -0.435   6.717 -0.2767  0.9550 -0.1238
  627MOL0     C82665   4.644  -0.516   6.734 -0.2146  0.9010 -0.2191
  627MOL0     C82666   4.542  -0.491   6.825  0.8924  0.4970  0.1244
  627MOL0     O82667   4.450  -0.603   6.823 -0.6027  0.3428 -0.2375
  627MOL0     C82668   4.323  -0.582   6.877 -0.8585  0.0418  0.0020
  627MOL0     C82669   4.238  -0.700   6.835 -0.1137  0.7572 -0.0976
  627MOL0     C82670   4.165  -0.688   6.699 -0.2687  0.2937  0.7340
  627MOL0     C82671   4.083  -0.819   6.680  0.6096  0.5658  0.4154
  627MOL0     C82672   3.998  -0.806   6.553  0.7146  0.6151 -0.2198
  627MOL0     C82673   3.956  -0.945   6.503 -0.0521 -0.4645 -0.5540
  627MOL0     C82674   3.904  -0.937   6.365 -0.1564  0.7957 -0.0237
  627MOL0     C82675   3.769  -1.009   6.330 -0.6310 -0.1757  0.4608
  627MOL0    Cl82676   3.752  -1.181   6.348  0.0576 -0.1163 -0.5847
  627MOL0     C82677   4.554  -0.392   6.915 -1.1175 -0.3931 -0.1014
  627MOL0     C82678   4.666  -0.303   6.903 -0.3672  0.4973 -0.3312
  627MOL0     O82679   5.033  -0.381   6.810  0.0637  0.5197  0.6916
  627MOL0     C82680   5.222  -0.174   6.863 -0.0410  0.3332 -0.2960
  627MOL0     C82681   5.304  -0.068   6.874  0.5353 -1.8886  0.0729
  627MOL0     N82682   5.541   0.521   7.276 -0.2233 -0.3706  0.5235
  627MOL0     N82683   5.559   0.531   7.402  0.7364  0.7212  0.2419
  627MOL0     C82684   5.950   0.285   7.855  0.2262 -0.5321 -0.0478
  627MOL0     C82685   5.999   0.225   7.743 -0.5557 -0.1416  0.5864
  627MOL0     C82686   6.010  -0.031   7.352  0.6929  0.0304  0.1130
  627MOL0     C82687   5.971  -0.019   7.218 -0.5456 -0.0001  0.6687
  627MOL0     C82688   6.032  -0.096   7.119 -0.3989 -0.7610  0.7107
  627MOL0     C82689   6.126  -0.201   7.145 -0.5587 -0.0231 -0.5457
  627MOL0     O82690   6.167  -0.288   7.049  0.2318 -0.8529  0.3268
  627MOL0     C82691   6.263  -0.391   7.071 -0.5411 -0.0899  0.0690
  627MOL0     C82692   6.200  -0.517   7.140  0.1849 -0.6987 -0.0842
  627MOL0     C82693   6.315  -0.623   7.132  0.6741 -1.0538  0.6341
  627MOL0     C82694   6.285  -0.735   7.237 -0.3689 -0.0545  0.7236
  627MOL0     C82695   6.267  -0.682   7.377  0.3540 -0.5520  0.2569
  627MOL0     C82696   6.251  -0.637   7.492 -0.2396 -0.4138 -0.7225
  627MOL0     C82697   6.161  -0.208   7.280 -0.3024 -0.8432  0.5566
  627MOL0     C82698   6.108  -0.125   7.372 -0.7442 -0.7330  0.2422
  627MOL0     H82699   5.738  -0.002   7.683 -3.2033  2.0880  0.3854
  627MOL0     H82700   5.641   0.122   7.881  0.2643  0.2665  1.0330
  627MOL0     H82701   5.924   0.419   8.082  0.2022 -1.6295  0.6676
  627MOL0     H82702   5.772   0.423   8.172 -0.1071  1.6435 -0.4269
  627MOL0     H82703   5.852   0.605   7.957  1.3811  0.5706  0.9791
  627MOL0     H82704   5.818   0.642   8.129  1.3984 -1.3682  0.1625
  627MOL0     H82705   5.586   0.594   8.100  2.4246 -0.8694  0.3715
  627MOL0     H82706   5.614   0.516   7.943 -0.6161 -0.0603  0.2165
  627MOL0     H82707   5.515   0.766   7.917 -0.4209 -2.0594  0.4499
  627MOL0     H82708   5.664   0.814   7.985 -1.4624  1.0038 -1.6091
  627MOL0     H82709   5.786   0.717   7.799  0.1031 -1.9134 -1.1011
  627MOL0     H82710   5.665   0.837   7.747  0.8023  0.4802  0.9638
  627MOL0     H82711   5.612   0.696   7.588  2.7426 -1.7500 -1.9834
  627MOL0     H82712   5.544   0.582   7.706 -1.9005  0.9815 -3.4565
  627MOL0     H82713   5.824   0.588   7.576  2.8668 -1.0870  1.7931
  627MOL0     H82714   5.819   0.532   7.722  1.9004  0.2390 -1.1290
  627MOL0     H82715   5.669   0.354   7.636  0.2465 -0.0893  0.2207
  627MOL0     H82716   5.810   0.364   7.533 -1.1202 -0.0714 -1.5266
  627MOL0     H82717   5.752   0.282   7.312  0.6350  0.8201  3.9330
  627MOL0     H82718   5.710   0.320   7.058 -0.3721 -0.8855 -1.0185
  627MOL0     H82719   5.632   0.470   7.016 -5.3746 -0.9903 -0.3528
  627MOL0     H82720   5.423   0.307   7.115  0.7246 -0.7389  0.0616
  627MOL0     H82721   5.518   0.198   7.021 -2.2090 -1.0259 -1.1099
  627MOL0     H82722   5.414   0.468   6.912 -0.4468  0.0536  2.2468
  627MOL0     H82723   5.511   0.348   6.832  0.7063  2.1050  0.3452
  627MOL0     H82724   5.249   0.319   6.793  1.7910  1.4498 -1.0691
  627MOL0     H82725   5.240   0.288   6.963 -1.5311  0.9358 -0.3916
  627MOL0     H82726   5.091   0.170   6.745  1.6016  1.7540  1.0296
  627MOL0     H82727   4.942  -0.009   6.746 -0.2325  0.9439 -1.9883
  627MOL0     H82728   4.832  -0.461   6.647 -1.0371 -1.6256 -0.0999
  627MOL0     H82729   4.643  -0.612   6.682 -2.8897  1.0628 -0.6508
  627MOL0     H82730   4.279  -0.490   6.835  1.6311  0.5554 -1.7326
  627MOL0     H82731   4.323  -0.573   6.986 -1.1908 -3.3336  0.3784
  627MOL0     H82732   4.159  -0.722   6.907 -1.0316 -3.9273 -2.1817
  627MOL0     H82733   4.308  -0.784   6.837  0.2050  0.8862 -2.3912
  627MOL0     H82734   4.228  -0.672   6.612 -2.0549  1.7801 -0.3631
  627MOL0     H82735   4.104  -0.599   6.719 -0.9362 -0.5586  2.7384
  627MOL0     H82736   4.151  -0.902   6.663 -0.8117 -0.7670  1.0129
  627MOL0     H82737   4.010  -0.835   6.760 -0.5815 -1.6472 -1.0112
  627MOL0     H82738   4.060  -0.775   6.468 -0.3037 -0.3243 -1.3436
  627MOL0     H82739   3.913  -0.737   6.565 -0.4906 -0.6767 -0.9529
  627MOL0     H82740   3.879  -0.985   6.570 -1.7160 -0.1228 -2.1969
  627MOL0     H82741   4.038  -1.018   6.498  0.8695  0.1275  2.9725
  627MOL0     H82742   3.896  -0.829   6.347  2.0948  1.0849  0.4006
  627MOL0     H82743   3.981  -0.967   6.293  0.0521  2.8762 -0.7410
  627MOL0     H82744   3.752  -0.975   6.228  2.1174  2.9770  0.8789
  627MOL0     H82745   3.684  -0.961   6.380  0.6212  1.2376  1.3379
  627MOL0     H82746   4.497  -0.379   7.007  1.3359  3.8059  1.1070
  627MOL0     H82747   4.682  -0.222   6.974  1.0785 -0.9102  1.0208
  627MOL0     H82748   5.254  -0.277   6.879 -1.0246 -0.5828 -3.3271
  627MOL0     H82749   5.410  -0.077   6.895  0.3301 -0.0879  2.1838
  627MOL0     H82750   6.009   0.370   7.887 -1.6404  0.9770 -0.4210
  627MOL0     H82751   6.096   0.259   7.708 -0.4798 -1.5596 -0.7174
  627MOL0     H82752   5.892   0.044   7.180 -2.3509 -2.7016 -0.3516
  627MOL0     H82753   6.013  -0.072   7.015  0.7280 -0.7486  0.4920
  627MOL0     H82754   6.340  -0.346   7.134 -0.6067 -0.4596  0.4110
  627MOL0     H82755   6.320  -0.424   6.983  0.6812 -2.6623  1.7348
  627MOL0     H82756   6.164  -0.487   7.239 -0.1028 -0.9599 -0.1093
  627MOL0     H82757   6.107  -0.551   7.094 -0.4138  2.4227 -1.3869
  627MOL0     H82758   6.407  -0.573   7.164  1.1915 -1.4918 -0.1363
  627MOL0     H82759   6.345  -0.665   7.035 -0.2228 -2.0172  0.7518
  627MOL0     H82760   6.195  -0.788   7.202  0.8613 -0.6346 -1.7633
  627MOL0     H82761   6.372  -0.801   7.235  0.2112  0.6907  0.9513
  627MOL0     H82762   6.246  -0.610   7.595 -1.2114 -1.0597 -0.5923
  627MOL0     H82763   6.237  -0.281   7.308 -0.5894 -1.5045 -0.3656
  627MOL0     H82764   6.149  -0.125   7.473  1.6949  0.5719 -0.6786
  628MOL0     O82765  10.633  10.367   4.160 -0.2094  0.2531 -0.1702
  628MOL0     C82766  10.733  10.402   4.089  0.5949  0.6085 -0.1884
  628MOL0     O82767  10.804  10.523   4.107  0.7841 -0.0057  0.0214
  628MOL0     C82768  10.752  10.607   4.194 -0.0431 -0.2001 -0.6957
  628MOL0     C82769  10.821  10.634   4.316  0.2059  0.2955 -0.1920
  628MOL0     C82770  10.772  10.729   4.409  0.6376 -0.2360  0.3578
  628MOL0     C82771  10.643  10.795   4.383 -0.3073  0.9436  0.6266
  628MOL0     O82772  10.573  10.870   4.474 -0.3086  0.0529  0.8172
  628MOL0     C82773  10.642  10.890   4.592 -1.2005  0.3587 -0.1807
  628MOL0     C82774  10.561  10.982   4.694 -0.4406  0.0159 -0.3050
  628MOL0     C82775  10.543  11.128   4.657  0.7083 -0.8907 -0.1107
  628MOL0     C82776  10.510  11.210   4.778 -0.1932 -0.3465 -0.3914
  628MOL0     C82777  10.562  11.358   4.757 -0.9809  0.1553  0.0028
  628MOL0     C82778  10.466  11.432   4.667  0.1275  0.2236  1.4074
  628MOL0     C82779  10.519  11.572   4.636 -0.7310  0.0666  0.0820
  628MOL0     C82780  10.590  11.654   4.743  0.1779 -0.4857 -0.1182
  628MOL0     N82781  10.489  11.698   4.847 -0.3565 -0.0615  0.6271
  628MOL0     C82782  10.426  11.823   4.849  0.8078  0.6348 -0.7384
  628MOL0     C82783  10.353  11.822   4.962  0.1733 -0.0269 -0.7975
  628MOL0     C82784  10.254  11.933   5.003  0.2593  0.4412 -0.1810
  628MOL0     C82785  10.256  11.969   5.148  0.1557  0.2580 -0.0060
  628MOL0     C82786  10.157  11.890   5.235  0.5130 -1.0124 -0.1594
  628MOL0     C82787  10.024  11.964   5.233  1.0358 -0.2620 -0.4251
  628MOL0     O82788   9.939  11.934   5.121 -0.2521  0.0828 -0.1297
  628MOL0     C82789   9.815  11.874   5.141  0.1034  1.3165  0.0346
  628MOL0     C82790   9.730  11.913   5.236  1.1617 -0.7293  0.1562
  628MOL0     C82791   9.604  11.856   5.249 -0.8371 -0.6185 -0.9007
  628MOL0     C82792   9.549  11.749   5.163  0.4311 -0.4862  0.4545
  628MOL0     C82793   9.403  11.706   5.168  0.0077  0.6203  0.3390
  628MOL0     O82794   9.352  11.615   5.075  0.5402 -0.0081 -0.3238
  628MOL0     C82795   9.227  11.562   5.082 -0.1043  0.3014  0.4474
  628MOL0     C82796   9.156  11.518   5.199  0.5843  0.4267  0.4244
  628MOL0     C82797   9.029  11.460   5.180 -0.1798 -0.0188  0.1799
  628MOL0     C82798   8.965  11.456   5.058 -0.1053  0.6539  0.2892
  628MOL0     O82799   8.838  11.397   5.022 -1.1148  0.4856  0.1894
  628MOL0     C82800   8.758  11.362   5.130 -0.2793  0.1210 -0.0297
  628MOL0     C82801   8.623  11.326   5.075 -0.1489  0.0220  0.1941
  628MOL0     C82802   8.551  11.210   5.139  0.5522 -0.3158  0.5846
  628MOL0     C82803   8.420  11.164   5.074  1.0916  0.3500 -0.5301
  628MOL0     C82804   8.371  11.024   5.130 -0.2015  1.5351  0.0385
  628MOL0     C82805   8.319  11.026   5.273  0.0210  0.9713  0.0714
  628MOL0     C82806   8.193  11.124   5.286  0.0703  0.4193 -0.0556
  628MOL0     C82807   8.067  11.045   5.306  0.3130  1.1598  0.0126
  628MOL0    Cl82808   8.008  10.955   5.163 -0.5818  0.1337  0.1382
  628MOL0     C82809   9.038  11.497   4.951 -0.5611  1.0553 -0.6579
  628MOL0     C82810   9.165  11.544   4.957  0.3958  0.0656  0.2329
  628MOL0     O82811   9.340  11.742   5.259  0.1486 -0.5390 -0.7458
  628MOL0     C82812   9.638  11.717   5.057  0.3789  0.5135  0.0466
  628MOL0     C82813   9.764  11.787   5.044 -0.2212  1.0952  0.4029
  628MOL0     N82814  10.366  11.698   5.026  0.0812 -0.5412  0.8280
  628MOL0     N82815  10.452  11.630   4.957 -0.0280 -0.4392 -0.4428
  628MOL0     C82816  10.580  10.780   4.258 -0.0721  0.1329 -0.8726
  628MOL0     C82817  10.633  10.683   4.169  0.7589 -0.0551 -0.0694
  628MOL0     C82818  10.794  10.299   3.996  0.4657  0.0419 -0.0285
  628MOL0     C82819  10.713  10.201   3.944  0.0838 -0.1292  0.5953
  628MOL0     C82820  10.754  10.092   3.859 -0.9519  0.7446  1.6601
  628MOL0     C82821  10.887  10.083   3.835 -0.1558  0.5693  0.9075
  628MOL0     O82822  10.923   9.980   3.752 -0.6485 -0.0512 -0.1641
  628MOL0     C82823  11.029  10.003   3.665 -0.3950 -0.0006 -0.2321
  628MOL0     C82824  11.016   9.904   3.549  0.0147  0.4389 -0.0953
  628MOL0     C82825  10.877   9.895   3.490 -0.1829  0.5120  0.5038
  628MOL0     C82826  10.891   9.779   3.383 -0.4482 -0.5352  0.8216
  628MOL0     C82827  10.878   9.647   3.447  0.2066 -0.3771  0.4102
  628MOL0     C82828  10.856   9.540   3.500  0.4156  1.4049  0.4468
  628MOL0     C82829  10.972  10.177   3.892 -0.5269 -0.9676  0.0815
  628MOL0     C82830  10.927  10.288   3.969  0.3860  0.6853 -0.0904
  628MOL0     H82831  10.915  10.585   4.336  1.1535  2.0943 -0.0622
  628MOL0     H82832  10.823  10.736   4.505  0.9009 -1.5589  0.3345
  628MOL0     H82833  10.742  10.933   4.584 -0.7052 -0.6802  0.2349
  628MOL0     H82834  10.663  10.796   4.643 -0.8341 -0.3979 -1.6751
  628MOL0     H82835  10.621  10.978   4.785  1.0386  0.1567 -1.2200
  628MOL0     H82836  10.460  10.948   4.718 -1.8786  3.5264 -0.6708
  628MOL0     H82837  10.478  11.130   4.569  2.2499  0.9650 -1.2978
  628MOL0     H82838  10.644  11.157   4.626 -0.5858  5.4842  0.1244
  628MOL0     H82839  10.401  11.196   4.777 -0.4011  1.1391 -1.4919
  628MOL0     H82840  10.554  11.161   4.865 -1.8617 -0.6030  0.3563
  628MOL0     H82841  10.660  11.350   4.711 -0.9586 -1.1977  0.2273
  628MOL0     H82842  10.567  11.410   4.853 -3.6445  0.0108  0.2952
  628MOL0     H82843  10.368  11.452   4.711 -0.6200  0.1098 -0.1342
  628MOL0     H82844  10.452  11.375   4.574 -4.8909  0.1634  1.9364
  628MOL0     H82845  10.597  11.567   4.559  0.4035  0.5909  1.1634
  628MOL0     H82846  10.436  11.634   4.601 -1.7616  0.5946  3.1385
  628MOL0     H82847  10.628  11.749   4.703 -2.8313  1.7808  1.9368
  628MOL0     H82848  10.669  11.601   4.796 -0.4306  0.0505  1.3862
  628MOL0     H82849  10.423  11.905   4.779  0.0540  1.1577 -0.1118
  628MOL0     H82850  10.151  11.917   4.970 -0.4552 -2.0885  2.8194
  628MOL0     H82851  10.299  12.019   4.953  0.7686  0.2681 -0.0254
  628MOL0     H82852  10.232  12.076   5.154  4.7427  1.4388  0.7724
  628MOL0     H82853  10.358  11.967   5.186  0.1051  0.0871  0.1247
  628MOL0     H82854  10.141  11.790   5.194  0.4952 -0.9886 -0.2099
  628MOL0     H82855  10.184  11.897   5.340 -2.6501  0.0219  0.7185
  628MOL0     H82856  10.046  12.071   5.234 -3.9159  1.1016  3.8479
  628MOL0     H82857   9.972  11.970   5.329  0.1938  1.6079 -0.9640
  628MOL0     H82858   9.750  11.994   5.305  0.9617  1.0082 -1.7376
  628MOL0     H82859   9.548  11.901   5.331  2.8654  3.2462 -0.1233
  628MOL0     H82860   9.191  11.530   5.302  2.2654  1.9206 -0.2660
  628MOL0     H82861   8.960  11.436   5.260 -1.9066  1.0238 -0.9142
  628MOL0     H82862   8.743  11.452   5.190 -1.5606  1.0560 -1.6810
  628MOL0     H82863   8.813  11.303   5.204  2.6902  2.4341 -0.2231
  628MOL0     H82864   8.644  11.290   4.973 -0.6120  1.6555 -0.5123
  628MOL0     H82865   8.563  11.417   5.070 -0.9127 -0.1388  3.9239
  628MOL0     H82866   8.530  11.231   5.244 -0.3523 -3.0151  1.0275
  628MOL0     H82867   8.615  11.122   5.153  0.7985  0.0848  2.2100
  628MOL0     H82868   8.339  11.236   5.086 -0.3042 -1.0450 -1.1296
  628MOL0     H82869   8.431  11.148   4.966 -1.5800  0.8283 -0.9449
  628MOL0     H82870   8.449  10.949   5.114 -0.9502  1.1188 -1.9069
  628MOL0     H82871   8.288  10.986   5.069  1.6043  0.6096 -1.9494
  628MOL0     H82872   8.395  11.055   5.346 -1.0636  3.1242  0.4500
  628MOL0     H82873   8.294  10.924   5.302  3.6923 -0.0054  0.2745
  628MOL0     H82874   8.208  11.169   5.384  1.1177  0.5157 -0.2427
  628MOL0     H82875   8.176  11.199   5.209  0.3977 -0.2632 -0.8084
  628MOL0     H82876   7.990  11.117   5.335  0.9493  1.6152  0.6137
  628MOL0     H82877   8.076  10.987   5.398 -0.7613 -2.8112 -2.1598
  628MOL0     H82878   8.988  11.489   4.855  1.0437  0.6486 -1.4842
  628MOL0     H82879   9.222  11.582   4.873  1.6316 -0.3247  0.8667
  628MOL0     H82880   9.603  11.647   4.982  1.1787 -1.3389  1.3249
  628MOL0     H82881   9.807  11.771   4.945 -2.4048 -1.5960 -0.2402
  628MOL0     H82882  10.480  10.821   4.246 -0.1992 -0.3569 -1.5268
  628MOL0     H82883  10.586  10.667   4.073  1.3314 -1.2585 -0.1668
  628MOL0     H82884  10.606  10.203   3.961  0.1117 -0.2490  0.7774
  628MOL0     H82885  10.693  10.013   3.816 -3.7484  2.5278  2.0823
  628MOL0     H82886  11.126   9.981   3.711  0.6209  5.7355  1.1472
  628MOL0     H82887  11.033  10.110   3.642 -1.8740  0.0686 -0.2755
  628MOL0     H82888  11.084   9.934   3.469  0.6219 -0.0312  0.2338
  628MOL0     H82889  11.066   9.811   3.580 -1.2700 -0.9805 -2.0359
  628MOL0     H82890  10.843   9.988   3.445  1.4400  1.1778  0.5934
  628MOL0     H82891  10.809   9.866   3.571 -0.6870  0.2407 -0.0073
  628MOL0     H82892  10.812   9.784   3.307 -0.2284 -0.0723  0.6185
  628MOL0     H82893  10.983   9.776   3.325 -1.8953 -0.3315 -1.6340
  628MOL0     H82894  10.821   9.451   3.548  0.6726  1.2764  0.3970
  628MOL0     H82895  11.078  10.166   3.873  0.0700  0.4008  2.2516
  628MOL0     H82896  10.998  10.361   4.006  1.7504 -1.0520  0.8882
  629MOL0     O82897   4.558   0.681  10.778  0.5420 -0.4414 -0.0314
  629MOL0     C82898   4.571   0.788  10.720  0.5758  0.6158  1.2528
  629MOL0     O82899   4.629   0.799  10.599  0.1075  0.7173 -0.1580
  629MOL0     C82900   4.697   0.683  10.561  0.1400 -1.4098 -0.4109
  629MOL0     C82901   4.834   0.698  10.551  0.3217 -0.1757 -0.5720
  629MOL0     C82902   4.906   0.578  10.507  0.6486  0.0550 -1.1680
  629MOL0     C82903   4.840   0.459  10.479  0.1634 -0.2047  0.6928
  629MOL0     O82904   4.908   0.354  10.426  0.1905 -0.4836 -0.5123
  629MOL0     C82905   5.029   0.308  10.496 -0.0354 -0.2028 -0.2733
  629MOL0     C82906   5.127   0.284  10.392 -0.2687 -1.4542  1.3108
  629MOL0     C82907   5.235   0.194  10.440 -0.2658  0.0067 -0.0004
  629MOL0     C82908   5.339   0.164  10.324 -0.2225 -0.6855  0.3563
  629MOL0     C82909   5.458   0.078  10.374  0.2705 -0.3415  0.5344
  629MOL0     C82910   5.536   0.138  10.493  0.1458  0.5881  0.2989
  629MOL0     C82911   5.659   0.061  10.526 -0.2402  0.3363 -0.2562
  629MOL0     C82912   5.624  -0.027  10.649 -1.4657  0.2105  0.2265
  629MOL0     N82913   5.739  -0.115  10.685  0.7154 -0.5302  0.1837
  629MOL0     C82914   5.860  -0.075  10.739 -0.6981  0.2801  0.8677
  629MOL0     C82915   5.932  -0.188  10.754  0.0793 -0.0736  0.0704
  629MOL0     C82916   6.069  -0.196  10.818 -0.0486 -0.3970  0.0832
  629MOL0     C82917   6.050  -0.232  10.963 -0.2586 -0.4638  0.6734
  629MOL0     C82918   5.937  -0.338  11.001 -0.2104 -0.2424  0.3816
  629MOL0     C82919   5.938  -0.377  11.151  0.4620 -0.7690 -0.2160
  629MOL0     O82920   5.870  -0.273  11.227  0.6899 -0.5890  0.4394
  629MOL0     C82921   5.902  -0.280  11.366 -0.6384 -0.9536  1.3096
  629MOL0     C82922   5.927  -0.160  11.434  0.2720  0.0372 -0.5952
  629MOL0     C82923   5.953  -0.159  11.571  0.3773  0.0317 -0.6226
  629MOL0     C82924   5.959  -0.284  11.642 -0.6223 -0.0409  0.0689
  629MOL0     C82925   6.012  -0.293  11.781  0.4280 -1.2378  0.4441
  629MOL0     O82926   6.030  -0.169  11.840 -1.4398  0.1238  0.5441
  629MOL0     C82927   6.041  -0.159  11.975  0.7479  0.9581 -0.9574
  629MOL0     C82928   5.950  -0.221  12.070  0.1415  0.0199  0.6549
  629MOL0     C82929   5.944  -0.208  12.203 -0.6548 -0.1380  0.1806
  629MOL0     C82930   6.053  -0.129  12.259  0.1246  0.2314 -0.3362
  629MOL0     O82931   6.074  -0.123  12.402  0.0163 -0.1323 -0.1849
  629MOL0     C82932   5.960  -0.056  12.465 -0.4614  0.2762  0.5251
  629MOL0     C82933   5.945  -0.085  12.608  1.0843  0.1537  0.4592
  629MOL0     C82934   5.951  -0.243  12.637 -0.3546  0.6156  0.1645
  629MOL0     C82935   5.903  -0.278  12.778  0.4040  0.3998  0.1567
  629MOL0     C82936   5.914  -0.431  12.782 -0.4848  0.3438 -0.4098
  629MOL0     C82937   5.820  -0.513  12.874  0.3526  0.1038 -0.5405
  629MOL0     C82938   5.852  -0.670  12.861  0.7920 -0.5633 -0.4914
  629MOL0     C82939   5.728  -0.754  12.887  1.1165  0.9951  0.3516
  629MOL0    Cl82940   5.745  -0.922  12.833  0.3487 -0.0656 -0.1492
  629MOL0     C82941   6.154  -0.072  12.173 -0.0795  0.6304 -0.2010
  629MOL0     C82942   6.146  -0.082  12.032  0.2335  0.0439  0.1696
  629MOL0     O82943   6.006  -0.396  11.837 -0.1730 -0.2936  0.7360
  629MOL0     C82944   5.913  -0.399  11.573  1.1469  0.7713 -0.1338
  629MOL0     C82945   5.882  -0.398  11.445 -0.1455  0.1397  0.2103
  629MOL0     N82946   5.850  -0.285  10.729 -0.0798  0.4179  0.8518
  629MOL0     N82947   5.747  -0.249  10.665  0.0528 -0.2147  0.6611
  629MOL0     C82948   4.706   0.455  10.501  0.8382 -0.1654  0.2559
  629MOL0     C82949   4.628   0.565  10.535  0.2616  0.0044  0.3039
  629MOL0     C82950   4.477   0.902  10.762 -0.5940  0.1567  0.5325
  629MOL0     C82951   4.483   1.029  10.693 -0.4650  0.3850  0.4496
  629MOL0     C82952   4.411   1.135  10.749  0.3399 -0.8192 -0.1874
  629MOL0     C82953   4.338   1.123  10.867  0.2613  1.2168 -0.0338
  629MOL0     O82954   4.274   1.230  10.930 -0.3065 -0.2280 -0.3413
  629MOL0     C82955   4.153   1.267  10.864  0.1973  0.5125  0.7124
  629MOL0     C82956   4.129   1.421  10.856  0.7777  0.6329 -0.0650
  629MOL0     C82957   4.007   1.465  10.763  0.0526 -0.0823  0.4791
  629MOL0     C82958   3.953   1.607  10.792 -0.0633  0.0915 -0.6338
  629MOL0     C82959   3.880   1.620  10.923 -0.0202 -0.9053  0.7976
  629MOL0     C82960   3.818   1.633  11.022  0.2564 -0.2370  0.2560
  629MOL0     C82961   4.342   0.996  10.933  0.2633 -0.0903 -0.1991
  629MOL0     C82962   4.404   0.885  10.882  0.2403  0.7108 -0.9722
  629MOL0     H82963   4.889   0.789  10.570  0.2810 -0.2688 -0.0042
  629MOL0     H82964   5.012   0.590  10.489  0.5491  2.5276 -0.4554
  629MOL0     H82965   5.005   0.220  10.556  1.5849 -1.1546 -0.9836
  629MOL0     H82966   5.059   0.387  10.566  1.5090 -1.2498  0.2827
  629MOL0     H82967   5.157   0.381  10.351 -2.9890 -1.6729 -1.6142
  629MOL0     H82968   5.076   0.235  10.309 -0.3717 -0.9296  1.0577
  629MOL0     H82969   5.205   0.095  10.476  1.1539 -0.6996 -0.6947
  629MOL0     H82970   5.286   0.243  10.524  3.6471  1.6507 -3.0129
  629MOL0     H82971   5.275   0.118  10.247  1.9410 -0.5330 -1.6461
  629MOL0     H82972   5.372   0.258  10.279  2.4479 -0.4886  2.5027
  629MOL0     H82973   5.529   0.075  10.290  0.9721  0.7406  1.0685
  629MOL0     H82974   5.430  -0.025  10.397  0.7627  0.0212  3.0259
  629MOL0     H82975   5.470   0.147  10.580 -0.2387  0.2505  0.0412
  629MOL0     H82976   5.568   0.240  10.470 -5.0937  2.0523 -1.9172
  629MOL0     H82977   5.694   0.009  10.436 -2.1013  0.0317 -0.8490
  629MOL0     H82978   5.738   0.124  10.567  0.4106 -2.3082  2.9807
  629MOL0     H82979   5.532  -0.086  10.645 -0.8010 -0.9879  1.7009
  629MOL0     H82980   5.618   0.033  10.740  1.6432 -2.5371  2.4677
  629MOL0     H82981   5.904   0.024  10.747 -0.2840  0.0644  1.3115
  629MOL0     H82982   6.136  -0.113  10.796 -1.3989  0.0578 -2.8717
  629MOL0     H82983   6.127  -0.272  10.765  0.6092  2.4970 -3.7616
  629MOL0     H82984   6.028  -0.139  11.018  1.2468 -0.0363  0.6055
  629MOL0     H82985   6.147  -0.264  11.002  0.2480  1.6323  1.3292
  629MOL0     H82986   5.834  -0.308  10.979  0.7830  3.9888  0.5825
  629MOL0     H82987   5.966  -0.432  10.954  2.5645  0.7145 -0.0246
  629MOL0     H82988   6.042  -0.398  11.180 -0.2910 -2.4400  1.4824
  629MOL0     H82989   5.871  -0.463  11.158 -3.4648  2.0501  0.0284
  629MOL0     H82990   5.941  -0.071  11.372  0.0767 -0.2282 -1.0280
  629MOL0     H82991   5.990  -0.068  11.616 -2.4671  0.4694  1.0110
  629MOL0     H82992   5.875  -0.285  12.023  2.4207 -3.0581  0.8477
  629MOL0     H82993   5.869  -0.262  12.261 -4.0331  3.0264 -0.8882
  629MOL0     H82994   5.866  -0.080  12.414 -0.6701  0.8966  0.6038
  629MOL0     H82995   5.974   0.053  12.466 -0.0435  0.3174 -2.0976
  629MOL0     H82996   5.851  -0.054  12.655 -0.0198 -1.3677 -0.5992
  629MOL0     H82997   6.040  -0.045  12.644  1.7261  0.1146 -1.1032
  629MOL0     H82998   6.057  -0.269  12.624 -0.2705  0.5869  0.9004
  629MOL0     H82999   5.895  -0.290  12.555  1.8812  0.1180 -1.1746
  629MOL0     H83000   5.961  -0.224  12.853  2.3883 -2.3528  0.7287
  629MOL0     H83001   5.799  -0.245  12.789  1.3106  3.7805 -0.3098
  629MOL0     H83002   6.015  -0.451  12.819 -1.1742 -1.4835  0.6152
  629MOL0     H83003   5.891  -0.476  12.685 -2.8631 -0.4583  0.4508
  629MOL0     H83004   5.712  -0.499  12.862 -0.5920 -4.1251  1.1380
  629MOL0     H83005   5.850  -0.491  12.977  2.5071 -2.4075 -0.5385
  629MOL0     H83006   5.896  -0.704  12.767 -0.3223  0.8020 -1.5531
  629MOL0     H83007   5.926  -0.681  12.941  0.0524 -0.1096  0.2728
  629MOL0     H83008   5.644  -0.712  12.831  1.6127 -1.3322 -2.3527
  629MOL0     H83009   5.698  -0.745  12.992  0.3594 -0.9647  0.3298
  629MOL0     H83010   6.245  -0.027  12.211 -1.3987  2.1059  1.3622
  629MOL0     H83011   6.221  -0.042  11.964 -0.5473  0.4753 -0.4461
  629MOL0     H83012   5.909  -0.493  11.628  1.4561  0.1842 -1.0878
  629MOL0     H83013   5.827  -0.474  11.390 -1.3591  2.1320 -1.5213
  629MOL0     H83014   4.652   0.361  10.498 -0.1605  0.2905  2.3892
  629MOL0     H83015   4.521   0.552  10.547  0.0950 -0.3416 -1.2884
  629MOL0     H83016   4.555   1.052  10.615  1.0428  2.6083  2.3979
  629MOL0     H83017   4.424   1.223  10.687 -0.4489 -2.0654 -2.2307
  629MOL0     H83018   4.069   1.217  10.915  0.3015 -1.1301 -0.6267
  629MOL0     H83019   4.146   1.229  10.762  0.6027 -0.9835  1.2142
  629MOL0     H83020   4.116   1.462  10.956  0.3023  1.3867 -0.4321
  629MOL0     H83021   4.212   1.474  10.809  0.7476  0.0273 -0.8307
  629MOL0     H83022   3.917   1.408  10.790 -0.5040  0.8363  0.5893
  629MOL0     H83023   4.049   1.453  10.663  0.9260  1.1677  0.6824
  629MOL0     H83024   4.033   1.682  10.795  0.8389 -0.8455 -0.7721
  629MOL0     H83025   3.882   1.632  10.713  0.1338  3.2113  0.0244
  629MOL0     H83026   3.772   1.629  11.118 -0.9917 -2.2989 -0.3624
  629MOL0     H83027   4.278   0.990  11.021  0.0719  1.1410 -0.2407
  629MOL0     H83028   4.402   0.792  10.937 -2.4754 -1.1955 -3.9735
  630MOL0     O83029   9.364   7.938   0.361  0.0742 -0.2713 -0.1957
  630MOL0     C83030   9.266   7.918   0.439  0.0158  0.4814  0.3909
  630MOL0     O83031   9.253   7.807   0.526 -0.9201 -0.0885 -0.1264
  630MOL0     C83032   9.344   7.715   0.527  0.0851  0.6900  0.4671
  630MOL0     C83033   9.477   7.734   0.545  0.1538 -0.7935 -0.2642
  630MOL0     C83034   9.569   7.630   0.549 -0.5760  0.3759 -0.2856
  630MOL0     C83035   9.524   7.499   0.542  0.2036 -0.1185 -0.3491
  630MOL0     O83036   9.597   7.377   0.553  0.3646  0.4725  0.3716
  630MOL0     C83037   9.714   7.378   0.478  0.1839 -0.3151 -0.5579
  630MOL0     C83038   9.830   7.392   0.570  0.0426  0.6063  0.3678
  630MOL0     C83039   9.948   7.324   0.510 -0.1705  0.1237  0.1365
  630MOL0     C83040  10.047   7.294   0.635 -0.1391  1.1601  0.1046
  630MOL0     C83041  10.163   7.389   0.651  0.8413 -0.5692 -0.4534
  630MOL0     C83042  10.274   7.375   0.544  0.6258 -0.2847 -0.5867
  630MOL0     C83043  10.390   7.470   0.541 -0.8168 -0.1744  0.2170
  630MOL0     C83044  10.346   7.593   0.462 -0.1101  0.2104 -0.9123
  630MOL0     N83045  10.440   7.697   0.509  1.0262  0.4214  0.0399
  630MOL0     C83046  10.428   7.758   0.632 -0.3794  0.6369 -0.5688
  630MOL0     C83047  10.534   7.843   0.645 -1.2298 -0.3856  0.4047
  630MOL0     C83048  10.576   7.939   0.751 -0.1150 -0.4350  0.5142
  630MOL0     C83049  10.584   7.875   0.889  0.3049 -0.4751 -0.9039
  630MOL0     C83050  10.715   7.798   0.915  0.8716  1.0182 -0.1437
  630MOL0     C83051  10.712   7.656   0.843 -0.1921  0.8289  0.1047
  630MOL0     O83052  10.597   7.571   0.871 -0.1720 -0.1809 -0.7986
  630MOL0     C83053  10.610   7.439   0.853  0.0663 -1.2781  0.8341
  630MOL0     C83054  10.693   7.380   0.754  0.8746  0.1071 -0.5377
  630MOL0     C83055  10.693   7.237   0.728  0.1602  0.1141  0.5658
  630MOL0     C83056  10.581   7.168   0.768  0.4589 -0.5214 -0.9314
  630MOL0     C83057  10.550   7.028   0.720 -0.8759 -0.2407  0.4763
  630MOL0     O83058  10.653   6.952   0.664 -0.2448 -0.6815 -0.4487
  630MOL0     C83059  10.623   6.819   0.640  0.1568 -0.4610 -0.3033
  630MOL0     C83060  10.517   6.781   0.558  0.2777  0.0912 -0.0700
  630MOL0     C83061  10.484   6.646   0.549  1.3234  0.1394  0.1924
  630MOL0     C83062  10.550   6.549   0.615 -1.5133 -0.2914 -0.0751
  630MOL0     O83063  10.505   6.431   0.588  0.2982  0.1344  0.0099
  630MOL0     C83064  10.560   6.315   0.634  0.7133 -0.2769  0.1554
  630MOL0     C83065  10.448   6.241   0.710  0.1320 -0.1906 -0.7634
  630MOL0     C83066  10.499   6.111   0.765 -0.2120  0.4590 -0.2152
  630MOL0     C83067  10.390   6.065   0.857 -0.9391  0.9323 -0.5038
  630MOL0     C83068  10.265   6.029   0.768  0.7914 -0.1478  0.1099
  630MOL0     C83069  10.166   5.971   0.869  0.0003 -0.0634 -0.2151
  630MOL0     C83070  10.033   5.959   0.802 -0.3350  0.2669  0.6211
  630MOL0     C83071   9.932   5.912   0.903  0.4027 -0.4945 -1.9618
  630MOL0    Cl83072   9.950   5.728   0.901 -0.2784 -0.1644  0.0003
  630MOL0     C83073  10.669   6.589   0.688 -1.2148  0.3822 -0.6644
  630MOL0     C83074  10.704   6.720   0.696 -0.5483  0.2838 -0.8663
  630MOL0     O83075  10.439   6.991   0.728  0.1765  0.6301 -0.3471
  630MOL0     C83076  10.498   7.224   0.865  0.1881 -0.3783 -0.1089
  630MOL0     C83077  10.517   7.360   0.909 -0.2766 -0.0423 -0.5240
  630MOL0     N83078  10.615   7.827   0.531  0.5971  0.2128  0.0328
  630MOL0     N83079  10.554   7.741   0.450 -0.3308  0.4747  0.8185
  630MOL0     C83080   9.385   7.484   0.521 -1.1288  0.0285  0.2919
  630MOL0     C83081   9.294   7.584   0.514 -0.8554 -0.4935  0.0200
  630MOL0     C83082   9.148   8.002   0.417  0.6582 -0.3709 -0.0631
  630MOL0     C83083   9.150   8.109   0.337  0.4279  0.6617  0.8785
  630MOL0     C83084   9.033   8.183   0.313 -1.1735  0.5109  0.4257
  630MOL0     C83085   8.920   8.155   0.394 -0.1573 -0.1962 -0.0950
  630MOL0     O83086   8.805   8.237   0.378 -0.2202 -0.4386  0.8833
  630MOL0     C83087   8.738   8.191   0.261 -0.3091  1.0010 -0.0993
  630MOL0     C83088   8.603   8.241   0.251  0.5217 -0.5120  0.4334
  630MOL0     C83089   8.581   8.398   0.258 -0.1537 -0.7461 -0.6460
  630MOL0     C83090   8.627   8.475   0.143  1.2355 -0.1600  0.2284
  630MOL0     C83091   8.553   8.602   0.122 -0.1666  0.4279 -0.5805
  630MOL0     C83092   8.501   8.713   0.101  0.5361  0.6671  0.0278
  630MOL0     C83093   8.911   8.048   0.476  0.3017  0.9214 -0.4526
  630MOL0     C83094   9.027   7.959   0.486 -0.8606 -0.5416 -0.8513
  630MOL0     H83095   9.500   7.837   0.569  1.6700 -1.6558  2.3457
  630MOL0     H83096   9.674   7.652   0.564 -1.1890  1.8744  2.5633
  630MOL0     H83097   9.713   7.459   0.405  1.3613 -1.9538 -2.4751
  630MOL0     H83098   9.721   7.280   0.431  2.1951 -0.8867  0.8095
  630MOL0     H83099   9.814   7.340   0.665  2.2681 -1.7081 -0.4016
  630MOL0     H83100   9.848   7.498   0.589 -0.9705  0.8024  0.3102
  630MOL0     H83101   9.997   7.389   0.437  2.4826 -3.5347 -1.6531
  630MOL0     H83102   9.927   7.231   0.456 -1.4870  1.1918 -1.2832
  630MOL0     H83103   9.997   7.279   0.731 -0.4041  0.3900 -0.1407
  630MOL0     H83104  10.075   7.190   0.619 -0.5485  0.7064  2.0707
  630MOL0     H83105  10.205   7.363   0.748  2.1363  4.1609  0.5291
  630MOL0     H83106  10.115   7.487   0.664  0.5620 -0.7831  0.1809
  630MOL0     H83107  10.237   7.356   0.443  2.0706  0.0868 -1.2150
  630MOL0     H83108  10.323   7.280   0.568  5.0006  1.4070 -1.8840
  630MOL0     H83109  10.420   7.489   0.644  0.8979 -0.9700 -0.0909
  630MOL0     H83110  10.478   7.430   0.491  0.4014 -0.4443  2.4474
  630MOL0     H83111  10.244   7.623   0.487 -0.0923 -0.3719 -0.0920
  630MOL0     H83112  10.367   7.597   0.355  3.9225  2.7925 -0.2501
  630MOL0     H83113  10.353   7.753   0.710 -0.8296  5.0666 -0.4605
  630MOL0     H83114  10.502   8.019   0.744  2.0610  1.5532 -1.6273
  630MOL0     H83115  10.671   7.982   0.720 -0.1975 -0.8084 -0.2817
  630MOL0     H83116  10.493   7.817   0.907  1.1084 -2.6895 -3.3416
  630MOL0     H83117  10.581   7.957   0.961  0.1127  0.0263 -1.4758
  630MOL0     H83118  10.803   7.858   0.893  1.2837 -0.2545 -2.2740
  630MOL0     H83119  10.711   7.783   1.024  2.0668 -2.9231 -0.4647
  630MOL0     H83120  10.801   7.604   0.881 -1.5331 -1.5002  0.2489
  630MOL0     H83121  10.733   7.670   0.736 -1.6964 -2.7031 -0.8002
  630MOL0     H83122  10.761   7.453   0.710 -1.4882  5.5510  3.5781
  630MOL0     H83123  10.761   7.192   0.656 -1.2847  0.0814 -0.8488
  630MOL0     H83124  10.459   6.864   0.521  2.3219  1.7471  0.2558
  630MOL0     H83125  10.408   6.611   0.480  2.7438 -1.3330 -0.6739
  630MOL0     H83126  10.655   6.326   0.687 -0.1128  4.3604  1.1174
  630MOL0     H83127  10.581   6.252   0.548 -1.0433 -0.1777 -0.3778
  630MOL0     H83128  10.360   6.235   0.645 -0.7326  1.9338  0.1357
  630MOL0     H83129  10.427   6.298   0.801 -0.3545 -0.2501 -0.8357
  630MOL0     H83130  10.587   6.124   0.829 -1.6154  1.9953  1.5271
  630MOL0     H83131  10.524   6.040   0.686 -0.2059  1.5975 -1.2614
  630MOL0     H83132  10.421   5.975   0.911 -0.0082  1.2087 -0.5676
  630MOL0     H83133  10.366   6.143   0.930  3.7886  0.7013  1.6844
  630MOL0     H83134  10.287   5.964   0.683 -0.8335  1.6040 -1.7323
  630MOL0     H83135  10.216   6.118   0.728  0.1789 -0.8081 -0.6508
  630MOL0     H83136  10.162   6.034   0.959  0.0910 -3.0003  1.9936
  630MOL0     H83137  10.201   5.876   0.908  4.2960  0.4778 -2.2358
  630MOL0     H83138  10.015   6.048   0.741  1.8852 -1.2209 -2.4815
  630MOL0     H83139  10.029   5.886   0.720 -0.5431  1.1739 -0.1904
  630MOL0     H83140   9.825   5.932   0.891 -0.1647 -0.6842  1.6709
  630MOL0     H83141   9.954   5.949   1.003 -0.8588  2.6719 -2.7168
  630MOL0     H83142  10.727   6.511   0.735 -0.6346 -0.1013 -2.1345
  630MOL0     H83143  10.787   6.755   0.756 -1.5385 -3.8822  3.5493
  630MOL0     H83144  10.423   7.167   0.920 -0.8192  2.2032  1.3914
  630MOL0     H83145  10.455   7.399   0.989 -0.2175 -0.9052 -0.0479
  630MOL0     H83146   9.344   7.384   0.513 -3.7499  0.9540  0.8329
  630MOL0     H83147   9.187   7.578   0.499 -0.7712 -2.8032 -0.0090
  630MOL0     H83148   9.239   8.121   0.277 -0.0144 -1.5848 -0.3522
  630MOL0     H83149   9.036   8.266   0.242  0.2496 -0.4604 -0.7021
  630MOL0     H83150   8.733   8.082   0.262 -3.0636  1.0498 -1.0335
  630MOL0     H83151   8.792   8.221   0.171  2.2401  0.4579  1.1580
  630MOL0     H83152   8.566   8.195   0.159 -0.9280 -3.0961  2.1790
  630MOL0     H83153   8.553   8.196   0.338  2.4379 -0.2598  1.7148
  630MOL0     H83154   8.631   8.435   0.348  1.0060  0.4435 -1.7336
  630MOL0     H83155   8.474   8.416   0.274 -0.1212 -2.9350  3.4577
  630MOL0     H83156   8.733   8.491   0.163  0.9699  2.8627 -0.3388
  630MOL0     H83157   8.621   8.416   0.051 -0.0938  2.4415 -1.4904
  630MOL0     H83158   8.446   8.805   0.094 -0.4417  0.1226  0.3913
  630MOL0     H83159   8.819   8.027   0.531  1.9069 -0.3952  1.9032
  630MOL0     H83160   9.015   7.865   0.538  1.9320 -0.4344  0.1945
  631MOL0     O83161   7.055   3.090  10.867  1.2638 -0.8756  0.5125
  631MOL0     C83162   6.965   3.011  10.836 -0.8966  0.3499  0.2131
  631MOL0     O83163   6.939   2.893  10.908  0.5900  0.5244  1.2463
  631MOL0     C83164   7.018   2.870  11.022 -0.3139  0.0695 -0.5488
  631MOL0     C83165   7.045   2.737  11.054 -0.7340 -0.3270  0.8941
  631MOL0     C83166   7.121   2.692  11.162  0.9260  0.2476 -0.7259
  631MOL0     C83167   7.179   2.794  11.257  0.3679  1.3098  0.9879
  631MOL0     O83168   7.245   2.752  11.373 -0.3530  0.1923 -0.2998
  631MOL0     C83169   7.341   2.646  11.360 -0.4278 -0.5958 -1.3459
  631MOL0     C83170   7.300   2.520  11.443  0.1975 -0.5638 -0.1800
  631MOL0     C83171   7.417   2.423  11.423 -0.2172 -0.2293  0.4455
  631MOL0     C83172   7.369   2.283  11.460  0.0131 -0.0302  0.1885
  631MOL0     C83173   7.483   2.193  11.481 -0.7141 -0.1746 -0.7824
  631MOL0     C83174   7.563   2.164  11.352  0.6052 -0.8284  0.6921
  631MOL0     C83175   7.676   2.063  11.372  0.2949 -0.0985 -0.2126
  631MOL0     C83176   7.733   2.028  11.226 -0.3989  0.3746 -0.7190
  631MOL0     N83177   7.853   2.105  11.198  0.6765  0.2139 -0.4739
  631MOL0     C83178   7.849   2.237  11.159 -0.0015 -0.0041 -0.2719
  631MOL0     C83179   7.980   2.261  11.132  0.4891  0.1499 -0.5655
  631MOL0     C83180   8.012   2.394  11.080 -0.6373 -0.2604  0.0423
  631MOL0     C83181   8.112   2.400  10.966  0.7342  0.4141  0.2010
  631MOL0     C83182   8.254   2.405  11.032  0.0739  0.3229 -0.1055
  631MOL0     C83183   8.359   2.340  10.942 -0.7274 -0.3273  0.0179
  631MOL0     O83184   8.494   2.324  11.003  0.5644 -0.0700  0.3422
  631MOL0     C83185   8.518   2.199  11.051  0.3596 -0.1745 -0.0844
  631MOL0     C83186   8.414   2.109  11.077 -0.5751 -0.2931 -0.4510
  631MOL0     C83187   8.431   1.965  11.092  0.0997 -0.2844 -0.4871
  631MOL0     C83188   8.564   1.921  11.100  1.2728  0.1595 -0.0510
  631MOL0     C83189   8.601   1.784  11.133 -0.2250  0.4861 -0.0948
  631MOL0     O83190   8.731   1.745  11.113 -0.1123  1.1201 -0.4258
  631MOL0     C83191   8.764   1.612  11.131  0.0398  0.4563  0.9477
  631MOL0     C83192   8.731   1.530  11.242  0.2326  0.7670  1.2436
  631MOL0     C83193   8.759   1.393  11.240 -0.1390  0.3712  1.3140
  631MOL0     C83194   8.841   1.338  11.130  0.3960  0.1309 -0.2547
  631MOL0     O83195   8.884   1.211  11.108 -0.0271  1.0080 -0.4223
  631MOL0     C83196   8.918   1.125  11.225  1.3399 -0.1847  0.3927
  631MOL0     C83197   9.018   1.025  11.188 -0.9776  0.6986  0.3154
  631MOL0     C83198   8.952   0.904  11.135  0.2647 -0.3385 -0.4804
  631MOL0     C83199   9.036   0.774  11.109 -0.2694  0.0546  0.3135
  631MOL0     C83200   8.954   0.639  11.130  0.4187  0.0823 -0.0405
  631MOL0     C83201   9.045   0.515  11.136 -0.3832 -0.8337 -0.5665
  631MOL0     C83202   9.152   0.501  11.248  0.3655 -0.1366  0.4236
  631MOL0     C83203   9.189   0.360  11.273 -0.1956 -0.4655  0.3089
  631MOL0    Cl83204   9.062   0.289  11.367  0.3721 -0.5930 -0.3946
  631MOL0     C83205   8.878   1.430  11.028  0.1518 -0.0058 -0.0876
  631MOL0     C83206   8.844   1.559  11.030  0.9430 -1.2317 -0.4433
  631MOL0     O83207   8.517   1.718  11.190 -0.2344 -1.1375 -0.1266
  631MOL0     C83208   8.664   2.006  11.059 -0.4478 -0.1336  0.9519
  631MOL0     C83209   8.642   2.146  11.038 -0.2565  0.9250  0.7736
  631MOL0     N83210   8.060   2.153  11.164 -1.1897  0.5978 -0.3147
  631MOL0     N83211   7.979   2.060  11.204 -0.0667 -0.6300 -0.9761
  631MOL0     C83212   7.145   2.923  11.236 -0.7812 -0.4748 -0.1439
  631MOL0     C83213   7.064   2.970  11.119  0.6399  0.1352 -0.2322
  631MOL0     C83214   6.859   3.064  10.738 -0.4074 -0.6352 -2.1920
  631MOL0     C83215   6.876   3.185  10.674  0.5853  0.0199  0.0515
  631MOL0     C83216   6.777   3.233  10.585  0.9134  0.5630 -0.4275
  631MOL0     C83217   6.670   3.159  10.541  0.6474  0.3405  0.1992
  631MOL0     O83218   6.580   3.217  10.455  0.5415  0.4971  0.2908
  631MOL0     C83219   6.501   3.131  10.377 -0.3595  0.4703  0.0736
  631MOL0     C83220   6.359   3.146  10.419 -0.2365  0.2868  0.0945
  631MOL0     C83221   6.282   3.267  10.352  0.3170  0.6712  0.2528
  631MOL0     C83222   6.143   3.216  10.307 -0.4425 -0.4814  0.3672
  631MOL0     C83223   6.058   3.340  10.283  1.2668 -0.0927 -0.0000
  631MOL0     C83224   5.987   3.440  10.273 -0.2660  0.7746  0.0881
  631MOL0     C83225   6.654   3.032  10.606 -0.2877  0.1912 -0.0503
  631MOL0     C83226   6.750   2.990  10.703  0.3548 -0.2881  0.2559
  631MOL0     H83227   7.004   2.659  10.991 -0.1746 -1.1145  1.4968
  631MOL0     H83228   7.132   2.587  11.189  1.7027  0.3143 -0.7876
  631MOL0     H83229   7.440   2.681  11.390 -0.7784 -0.1966 -0.6192
  631MOL0     H83230   7.342   2.623  11.253 -0.6215  1.4834 -1.8531
  631MOL0     H83231   7.204   2.475  11.415 -0.6100  1.2754 -0.5188
  631MOL0     H83232   7.287   2.544  11.549  0.5040 -0.8432 -0.0775
  631MOL0     H83233   7.505   2.457  11.479  0.1082  2.9192 -1.7213
  631MOL0     H83234   7.446   2.414  11.318  0.2910  1.0043  0.4623
  631MOL0     H83235   7.317   2.291  11.556 -0.2926  1.0197 -0.0503
  631MOL0     H83236   7.296   2.241  11.390  0.5236 -0.9873  0.2207
  631MOL0     H83237   7.441   2.105  11.531 -3.5720  1.0632 -0.8567
  631MOL0     H83238   7.557   2.238  11.548  0.1795  1.4643 -2.7594
  631MOL0     H83239   7.600   2.261  11.319  2.8176 -2.7960 -3.2391
  631MOL0     H83240   7.495   2.133  11.272  0.3383 -1.5925  1.1961
  631MOL0     H83241   7.749   2.097  11.447 -0.9752  0.9159  0.6055
  631MOL0     H83242   7.633   1.972  11.415 -0.7569  0.9925  1.1387
  631MOL0     H83243   7.660   2.036  11.145 -0.8784 -0.3623 -0.3724
  631MOL0     H83244   7.757   1.922  11.229  0.9448  0.6655  0.8247
  631MOL0     H83245   7.767   2.308  11.158 -0.3970 -0.4261 -2.1194
  631MOL0     H83246   8.052   2.439  11.171 -0.5677 -0.2035 -0.0168
  631MOL0     H83247   7.923   2.449  11.048  0.7481  2.5300  0.6948
  631MOL0     H83248   8.089   2.483  10.899 -0.9671 -0.5274 -0.4454
  631MOL0     H83249   8.102   2.303  10.917 -0.7708  0.4667  0.3336
  631MOL0     H83250   8.277   2.507  11.062 -0.9727 -0.1992  2.7011
  631MOL0     H83251   8.257   2.342  11.121  0.1565  3.1462  2.0157
  631MOL0     H83252   8.362   2.399  10.850  1.1761 -1.6297 -0.8213
  631MOL0     H83253   8.332   2.244  10.897  1.3985 -0.0339 -2.1280
  631MOL0     H83254   8.311   2.144  11.077 -0.4182  0.2835  1.7688
  631MOL0     H83255   8.343   1.904  11.104 -0.2719  0.0406 -1.4807
  631MOL0     H83256   8.675   1.563  11.329  1.0739  1.7476  1.4390
  631MOL0     H83257   8.739   1.329  11.325  1.4561 -0.2118  1.2715
  631MOL0     H83258   8.836   1.079  11.281  1.3795 -0.5633  0.1415
  631MOL0     H83259   8.969   1.186  11.301  2.3038  2.0554 -1.9206
  631MOL0     H83260   9.080   1.005  11.276  1.1605 -0.4995 -1.3597
  631MOL0     H83261   9.084   1.074  11.115 -2.6247  2.1736 -0.2736
  631MOL0     H83262   8.904   0.941  11.044 -0.8934  1.2490  0.7358
  631MOL0     H83263   8.874   0.882  11.208  2.7390 -1.1390  2.1293
  631MOL0     H83264   9.068   0.778  11.005 -0.9821 -2.2571 -0.0295
  631MOL0     H83265   9.121   0.761  11.177 -0.5676  0.9495  0.8851
  631MOL0     H83266   8.882   0.621  11.049 -0.1151  0.3159  0.3777
  631MOL0     H83267   8.895   0.644  11.221 -0.3966  1.1332 -0.6068
  631MOL0     H83268   9.099   0.507  11.041  3.2581  1.0143  1.1308
  631MOL0     H83269   8.987   0.422  11.144 -0.8274 -0.6002 -1.0322
  631MOL0     H83270   9.244   0.552  11.217  0.0503 -0.8841 -1.8898
  631MOL0     H83271   9.111   0.541  11.342 -1.1067 -1.6562  0.4741
  631MOL0     H83272   9.281   0.362  11.332  0.2412 -1.3981 -0.3086
  631MOL0     H83273   9.221   0.307  11.183  1.9861 -0.6225  1.1054
  631MOL0     H83274   8.953   1.397  10.957 -2.5495 -0.7151 -2.8554
  631MOL0     H83275   8.869   1.631  10.952 -2.3077  2.3053  1.4095
  631MOL0     H83276   8.760   1.960  11.038  0.5300  0.9457  2.8227
  631MOL0     H83277   8.730   2.203  11.011  1.0661 -1.5411 -0.4012
  631MOL0     H83278   7.181   2.995  11.310 -1.3128 -0.2844 -0.0652
  631MOL0     H83279   7.036   3.073  11.102 -3.2252 -1.0944 -2.7282
  631MOL0     H83280   6.964   3.242  10.701  0.2054 -0.6160  3.0064
  631MOL0     H83281   6.797   3.332  10.543  3.5477  0.3099  0.0609
  631MOL0     H83282   6.541   3.030  10.383 -0.7021  0.1265 -2.2871
  631MOL0     H83283   6.499   3.157  10.270  1.3402  3.0331  0.5638
  631MOL0     H83284   6.311   3.050  10.393 -0.8399  0.5312  0.2911
  631MOL0     H83285   6.359   3.147  10.528 -0.5127  2.4614  0.1005
  631MOL0     H83286   6.336   3.313  10.269  0.6968  0.5883  0.4513
  631MOL0     H83287   6.257   3.346  10.424  0.3910  1.4161 -0.5297
  631MOL0     H83288   6.155   3.162  10.213 -1.6256  0.0010 -0.0728
  631MOL0     H83289   6.101   3.149  10.382 -0.0848 -0.4210  0.6264
  631MOL0     H83290   5.950   3.541  10.273  1.0696  1.2806 -0.8168
  631MOL0     H83291   6.567   2.969  10.590  0.0210 -0.4950  0.8726
  631MOL0     H83292   6.740   2.890  10.743  0.0373 -0.4287 -0.1635
  632MOL0     O83293   3.713   4.253   3.736  0.0756 -0.6815  0.0122
  632MOL0     C83294   3.600   4.250   3.789 -0.4146  0.1400  0.6844
  632MOL0     O83295   3.554   4.341   3.878  0.6183  0.6650 -0.1871
  632MOL0     C83296   3.635   4.438   3.926  1.1035  0.7004 -0.2188
  632MOL0     C83297   3.602   4.575   3.901 -0.4765  1.1701 -0.9004
  632MOL0     C83298   3.690   4.674   3.944 -0.1918 -0.7387  0.1460
  632MOL0     C83299   3.811   4.647   4.002  0.9101  0.2586 -0.4140
  632MOL0     O83300   3.883   4.759   4.040 -0.2045 -0.2731 -0.4871
  632MOL0     C83301   4.000   4.749   4.119  0.3203 -0.0619  0.0092
  632MOL0     C83302   4.077   4.882   4.136  0.0750  0.9697 -0.5509
  632MOL0     C83303   3.995   4.998   4.184  0.0063  0.5124 -0.7457
  632MOL0     C83304   4.047   5.076   4.306  0.0631 -0.7269 -0.6309
  632MOL0     C83305   4.000   4.991   4.429  0.8279  0.2989 -0.3235
  632MOL0     C83306   4.027   5.060   4.566 -0.2108 -0.6205  0.5177
  632MOL0     C83307   3.895   5.135   4.604 -0.5368  1.0349  0.0458
  632MOL0     C83308   3.918   5.228   4.732 -0.5595  0.0884 -0.3144
  632MOL0     N83309   3.918   5.162   4.864 -0.4856  0.6847 -0.1368
  632MOL0     C83310   3.907   5.227   4.985  0.5908 -0.0557  0.1787
  632MOL0     C83311   3.923   5.121   5.071  0.2134 -1.1867 -0.5674
  632MOL0     C83312   3.927   5.134   5.223  0.4501  0.4565 -0.1814
  632MOL0     C83313   3.970   5.261   5.290 -0.3746 -0.1795  0.4118
  632MOL0     C83314   4.128   5.272   5.297 -0.2328 -0.4315  0.6784
  632MOL0     C83315   4.195   5.294   5.156  0.6063 -0.3208 -0.5216
  632MOL0     O83316   4.146   5.415   5.101 -0.3929 -0.3219  0.1540
  632MOL0     C83317   4.221   5.532   5.098  0.0211  0.7586  0.7004
  632MOL0     C83318   4.240   5.613   4.980  0.0925 -0.0114  0.1980
  632MOL0     C83319   4.310   5.733   4.991  0.8986  0.2805  0.1780
  632MOL0     C83320   4.361   5.781   5.115 -0.0363 -0.6787 -0.0990
  632MOL0     C83321   4.411   5.923   5.133  0.5997 -0.4061  0.2974
  632MOL0     O83322   4.446   5.986   5.014  0.3980 -0.2385 -0.2234
  632MOL0     C83323   4.481   6.125   5.026  0.3052 -0.3340 -0.9074
  632MOL0     C83324   4.415   6.204   4.931 -0.5646 -0.2144 -0.2342
  632MOL0     C83325   4.436   6.349   4.927  0.0079 -0.4810 -0.6230
  632MOL0     C83326   4.518   6.410   5.030 -0.7815  0.5488 -0.3780
  632MOL0     O83327   4.529   6.548   5.038  0.1727 -0.0119 -0.0706
  632MOL0     C83328   4.504   6.613   5.164  0.1930  0.1047 -0.2616
  632MOL0     C83329   4.444   6.760   5.158 -0.1635 -0.0544 -0.0876
  632MOL0     C83330   4.341   6.789   5.050  0.0779  0.6081  0.3345
  632MOL0     C83331   4.277   6.924   5.092 -0.2845 -0.0397 -0.3463
  632MOL0     C83332   4.159   6.959   4.993 -0.6513 -1.2293  0.2217
  632MOL0     C83333   4.128   7.106   4.982  0.3465 -0.2630 -0.7120
  632MOL0     C83334   4.049   7.154   5.116 -0.4592  0.1752 -0.3431
  632MOL0     C83335   4.046   7.295   5.128  0.0658  0.3412 -0.0612
  632MOL0    Cl83336   3.935   7.357   5.006  0.4669 -0.1595 -0.1393
  632MOL0     C83337   4.582   6.326   5.129  0.3733  0.0942 -0.3169
  632MOL0     C83338   4.568   6.188   5.123 -0.6616 -0.3658  0.2422
  632MOL0     O83339   4.408   5.983   5.242  0.5948 -0.4274  0.4477
  632MOL0     C83340   4.341   5.700   5.226 -0.2978  0.0770 -0.3066
  632MOL0     C83341   4.280   5.574   5.216  0.0179 -0.3961 -0.1148
  632MOL0     N83342   3.918   5.001   5.016 -0.2078 -0.0622  0.2787
  632MOL0     N83343   3.924   5.026   4.889 -0.1910  0.0209 -0.4816
  632MOL0     C83344   3.846   4.514   4.032  0.2073 -0.4516 -0.6023
  632MOL0     C83345   3.755   4.406   3.995 -0.5707 -0.8485  0.6395
  632MOL0     C83346   3.516   4.131   3.760 -0.1519  0.5355  0.1576
  632MOL0     C83347   3.407   4.097   3.841  0.6031  0.5610 -0.9456
  632MOL0     C83348   3.326   3.986   3.813  0.1651  0.0208  0.2800
  632MOL0     C83349   3.359   3.906   3.706 -1.3701  0.0777  0.0499
  632MOL0     O83350   3.276   3.796   3.680  0.5224  0.5584 -0.6340
  632MOL0     C83351   3.142   3.830   3.636 -0.7448  0.7819  0.7909
  632MOL0     C83352   3.025   3.775   3.734 -1.0529 -0.4534 -0.0473
  632MOL0     C83353   2.887   3.827   3.697  0.2898 -1.3000  0.3398
  632MOL0     C83354   2.772   3.739   3.754  0.2801  0.0222  0.5956
  632MOL0     C83355   2.782   3.729   3.903  0.0904 -0.8237 -0.8865
  632MOL0     C83356   2.805   3.741   4.027  0.6824  0.6586  0.6160
  632MOL0     C83357   3.481   3.933   3.628  0.1789  0.2811 -0.1660
  632MOL0     C83358   3.553   4.043   3.658 -0.1175 -0.0173  0.0846
  632MOL0     H83359   3.504   4.607   3.869  0.1944  2.1190 -2.0827
  632MOL0     H83360   3.670   4.780   3.932 -0.2072 -0.5897  1.3685
  632MOL0     H83361   4.062   4.671   4.077 -0.1645 -1.4340  1.6960
  632MOL0     H83362   3.982   4.713   4.221 -1.6489 -1.5034 -0.7709
  632MOL0     H83363   4.128   4.910   4.044 -1.0849  3.1057 -0.6144
  632MOL0     H83364   4.167   4.868   4.196  1.0466  1.0217 -1.9592
  632MOL0     H83365   3.894   4.965   4.211 -0.6024  3.0424  0.3159
  632MOL0     H83366   3.999   5.062   4.096  0.7044 -2.4852 -3.0767
  632MOL0     H83367   4.155   5.095   4.306 -0.1392  0.9096 -3.2310
  632MOL0     H83368   3.994   5.172   4.311  1.3896  0.0091  0.1231
  632MOL0     H83369   4.051   4.895   4.427  0.1580 -0.0730 -2.6147
  632MOL0     H83370   3.892   4.976   4.420  0.4852 -0.0117  3.0803
  632MOL0     H83371   4.114   5.125   4.550 -0.9166  1.2727  3.6417
  632MOL0     H83372   4.050   4.986   4.643  3.9866 -2.9149 -2.5138
  632MOL0     H83373   3.864   5.191   4.515 -0.5633  1.1596  0.1336
  632MOL0     H83374   3.820   5.058   4.618  0.3086  0.1230 -0.3168
  632MOL0     H83375   3.831   5.294   4.734 -0.8182 -0.2456  2.3764
  632MOL0     H83376   4.005   5.292   4.718  0.2058 -0.9542 -0.4759
  632MOL0     H83377   3.882   5.331   5.003  0.5656  1.0239 -4.6946
  632MOL0     H83378   3.971   5.044   5.267  0.9640  1.4400  1.4134
  632MOL0     H83379   3.828   5.108   5.261  0.5651  2.5153  1.7214
  632MOL0     H83380   3.928   5.284   5.389  1.2439  1.4073  0.7795
  632MOL0     H83381   3.928   5.337   5.224 -1.3959 -0.4012  0.7895
  632MOL0     H83382   4.170   5.348   5.363  0.4697 -1.9560  2.0655
  632MOL0     H83383   4.165   5.181   5.345 -2.3484  0.6103  4.7095
  632MOL0     H83384   4.181   5.218   5.079 -0.5585  0.9896 -1.6534
  632MOL0     H83385   4.301   5.312   5.176  0.4049  0.4046 -0.0726
  632MOL0     H83386   4.198   5.581   4.885  1.6228  3.4204 -1.8328
  632MOL0     H83387   4.318   5.802   4.908  1.1932  1.0070  0.7944
  632MOL0     H83388   4.360   6.166   4.845 -1.4999  0.4837  0.0372
  632MOL0     H83389   4.389   6.421   4.861 -0.3672  0.9041  1.0878
  632MOL0     H83390   4.600   6.615   5.218  0.2974  1.6956 -0.4586
  632MOL0     H83391   4.442   6.547   5.226  2.4619 -1.9932 -0.0377
  632MOL0     H83392   4.526   6.826   5.128 -2.1086  4.1776  2.8334
  632MOL0     H83393   4.414   6.809   5.252  0.4898  1.8828 -0.8438
  632MOL0     H83394   4.266   6.710   5.047 -1.1591  1.5951  2.5355
  632MOL0     H83395   4.390   6.807   4.954 -2.8793 -2.6104 -2.0089
  632MOL0     H83396   4.236   6.925   5.193 -0.2831 -2.6894 -0.2439
  632MOL0     H83397   4.355   7.000   5.098  1.7519 -2.1056  1.0030
  632MOL0     H83398   4.071   6.899   5.018  0.3460 -2.0404  2.0084
  632MOL0     H83399   4.206   6.930   4.898 -0.6496 -2.1667  0.5010
  632MOL0     H83400   4.063   7.136   4.899 -0.8422  1.4530  0.7721
  632MOL0     H83401   4.223   7.157   4.966  2.1403 -2.9819  0.4073
  632MOL0     H83402   3.944   7.123   5.114 -0.4959  0.2812 -2.2023
  632MOL0     H83403   4.098   7.119   5.207  1.3333 -0.7813 -1.5970
  632MOL0     H83404   4.142   7.344   5.111 -0.8133  2.1919 -0.0196
  632MOL0     H83405   4.004   7.321   5.226  0.3782  2.4474 -0.4423
  632MOL0     H83406   4.646   6.354   5.212  2.1971 -3.1024 -0.4823
  632MOL0     H83407   4.611   6.120   5.196  0.0212 -0.0889  0.1076
  632MOL0     H83408   4.377   5.718   5.327  1.0763 -0.2728 -0.7214
  632MOL0     H83409   4.276   5.508   5.302  0.7963 -2.5791 -1.6823
  632MOL0     H83410   3.932   4.478   4.087  0.8867  1.0975 -0.6097
  632MOL0     H83411   3.771   4.302   4.021 -1.2670 -2.2145 -3.6801
  632MOL0     H83412   3.374   4.161   3.922 -2.0580 -0.5813 -1.0214
  632MOL0     H83413   3.230   3.980   3.863 -1.0788  3.3804 -1.3723
  632MOL0     H83414   3.124   3.793   3.535 -3.4357  1.6006  0.8871
  632MOL0     H83415   3.128   3.937   3.620  3.1962  1.2840 -0.3239
  632MOL0     H83416   3.037   3.667   3.746  3.7291 -0.1453 -0.1808
  632MOL0     H83417   3.056   3.814   3.832  1.1029 -0.2674 -0.7423
  632MOL0     H83418   2.878   3.831   3.588 -0.6384  0.5763  0.4321
  632MOL0     H83419   2.895   3.931   3.730 -2.4850 -2.3597  5.4865
  632MOL0     H83420   2.670   3.762   3.722  0.8288  1.0704 -0.4937
  632MOL0     H83421   2.790   3.635   3.727  2.3032  0.5136 -0.1379
  632MOL0     H83422   2.811   3.744   4.134  0.6619 -0.7891  0.6680
  632MOL0     H83423   3.515   3.862   3.553  2.6063 -1.6229  2.5485
  632MOL0     H83424   3.621   4.061   3.575 -1.4161  0.3173 -0.9423
  633MOL0     O83425   8.138   6.654   5.053  0.6684 -0.0989 -0.2198
  633MOL0     C83426   8.103   6.678   4.936 -0.1923 -1.0069 -0.5386
  633MOL0     O83427   8.007   6.618   4.865 -0.4252 -0.4918 -0.7431
  633MOL0     C83428   7.911   6.543   4.935 -0.3341  0.3266 -0.6429
  633MOL0     C83429   7.795   6.610   4.966  0.1796  0.3733 -0.3148
  633MOL0     C83430   7.703   6.552   5.058 -0.3833 -0.1657  0.1570
  633MOL0     C83431   7.719   6.422   5.102  1.1127 -0.0078 -0.1973
  633MOL0     O83432   7.617   6.377   5.184  0.1662 -0.4684  1.2719
  633MOL0     C83433   7.591   6.233   5.174  0.8687  0.2587  0.8467
  633MOL0     C83434   7.478   6.216   5.064 -0.1997 -0.5576  0.3108
  633MOL0     C83435   7.447   6.073   5.017  1.1475  0.6173 -0.3975
  633MOL0     C83436   7.398   5.974   5.131  0.2536  0.1102  0.8052
  633MOL0     C83437   7.262   6.018   5.192 -0.0290  1.1544 -0.8782
  633MOL0     C83438   7.212   5.925   5.310  0.3228 -0.5962  0.6651
  633MOL0     C83439   7.239   5.776   5.293 -0.4386 -0.7440  0.3040
  633MOL0     C83440   7.137   5.695   5.209 -0.7925  0.6723 -0.4041
  633MOL0     N83441   7.193   5.678   5.077  0.5384 -0.4123  1.2216
  633MOL0     C83442   7.131   5.735   4.960 -0.9697  0.4408  0.1288
  633MOL0     C83443   7.182   5.669   4.861 -0.7102 -0.7103 -0.3276
  633MOL0     C83444   7.173   5.695   4.707 -0.5121  0.6314 -0.9070
  633MOL0     C83445   7.301   5.767   4.654  0.1303  0.5504  0.3175
  633MOL0     C83446   7.436   5.704   4.681  0.7948  0.4741 -0.2591
  633MOL0     C83447   7.547   5.788   4.618  0.2225 -0.1002 -0.7116
  633MOL0     O83448   7.572   5.920   4.662  0.9444 -0.2125  0.7220
  633MOL0     C83449   7.694   5.977   4.637  0.5344 -0.3702  0.2040
  633MOL0     C83450   7.738   6.077   4.719  0.0272 -0.4019  0.3322
  633MOL0     C83451   7.857   6.156   4.684 -0.7203 -0.3515 -0.6237
  633MOL0     C83452   7.937   6.122   4.574 -0.4083 -0.2792 -0.8004
  633MOL0     C83453   8.061   6.185   4.531  0.1211 -0.5420 -0.2717
  633MOL0     O83454   8.114   6.294   4.592  0.2941 -0.3130  0.2526
  633MOL0     C83455   8.246   6.319   4.605  0.7669  1.4870 -0.4673
  633MOL0     C83456   8.280   6.449   4.643  0.1608 -0.5035  0.2368
  633MOL0     C83457   8.412   6.490   4.660 -0.7697  0.2554  1.2746
  633MOL0     C83458   8.515   6.400   4.633 -0.8582 -0.1673 -0.2354
  633MOL0     O83459   8.650   6.409   4.652  0.6516 -0.0047 -0.3197
  633MOL0     C83460   8.705   6.538   4.693  0.0849  0.1801  0.8978
  633MOL0     C83461   8.833   6.553   4.616 -0.5799 -0.2991  0.4723
  633MOL0     C83462   8.817   6.599   4.468 -0.2986  0.1463  0.7233
  633MOL0     C83463   8.956   6.641   4.413  0.0472 -1.1582 -0.2972
  633MOL0     C83464   8.954   6.685   4.275 -0.1409  0.4874 -0.1084
  633MOL0     C83465   8.904   6.581   4.164 -0.5416 -0.3167 -0.7181
  633MOL0     C83466   8.983   6.606   4.029  0.1498 -0.5555 -0.4390
  633MOL0     C83467   8.901   6.518   3.936 -0.8805 -0.7372  0.4275
  633MOL0    Cl83468   8.984   6.532   3.781 -0.2486 -0.0669 -0.0507
  633MOL0     C83469   8.481   6.277   4.593  0.1736 -0.7404 -0.0714
  633MOL0     C83470   8.347   6.231   4.577 -1.1145 -0.6975  0.3586
  633MOL0     O83471   8.118   6.128   4.446 -0.1600 -0.7282 -0.2636
  633MOL0     C83472   7.899   6.007   4.506  0.5882  0.4687 -0.0275
  633MOL0     C83473   7.783   5.939   4.538  0.3268 -0.6608  0.3096
  633MOL0     N83474   7.257   5.561   4.900  0.6715  0.5380 -0.4684
  633MOL0     N83475   7.259   5.570   5.036 -0.6563 -0.2774  1.1342
  633MOL0     C83476   7.834   6.349   5.054  0.1074  0.3796 -0.6565
  633MOL0     C83477   7.936   6.415   4.985 -0.7598 -0.4219 -0.3490
  633MOL0     C83478   8.177   6.781   4.860 -0.0914 -0.6686 -0.1117
  633MOL0     C83479   8.157   6.796   4.723 -0.8231 -0.8169  1.5201
  633MOL0     C83480   8.247   6.873   4.656  0.7481  0.0733 -0.1118
  633MOL0     C83481   8.353   6.938   4.720  0.4029  0.3844 -0.4811
  633MOL0     O83482   8.442   7.015   4.641  0.3859  0.8589  1.1779
  633MOL0     C83483   8.560   6.941   4.596 -0.8257  0.1486 -0.2807
  633MOL0     C83484   8.584   6.938   4.444 -0.0524  0.7995 -0.2567
  633MOL0     C83485   8.536   7.058   4.378 -0.2534 -0.1096  0.2599
  633MOL0     C83486   8.604   7.088   4.240 -0.5856  0.3064  0.1172
  633MOL0     C83487   8.645   6.966   4.173 -1.0493 -0.7888 -0.7704
  633MOL0     C83488   8.679   6.868   4.119 -0.0780  0.0844 -0.0230
  633MOL0     C83489   8.361   6.934   4.857 -0.2131  1.0746 -0.0473
  633MOL0     C83490   8.272   6.856   4.928  0.5235  1.2008  1.0796
  633MOL0     H83491   7.772   6.711   4.934 -0.6603  1.6054  3.6927
  633MOL0     H83492   7.608   6.596   5.086 -0.1390 -1.3788  3.3201
  633MOL0     H83493   7.550   6.197   5.268 -5.2582  2.5322 -0.4347
  633MOL0     H83494   7.674   6.170   5.142 -1.1776 -2.2140  0.1297
  633MOL0     H83495   7.504   6.270   4.972  0.5953  1.1276  1.4680
  633MOL0     H83496   7.386   6.257   5.106  0.0536  1.0989 -0.7059
  633MOL0     H83497   7.525   6.023   4.958  2.8717  1.6258  0.9430
  633MOL0     H83498   7.369   6.079   4.939 -3.6060 -4.0427  3.1898
  633MOL0     H83499   7.378   5.874   5.092  0.7686 -0.0096  0.8392
  633MOL0     H83500   7.472   5.964   5.211  1.2054  1.6741  0.1674
  633MOL0     H83501   7.189   5.990   5.116 -1.2297  1.5643  0.0866
  633MOL0     H83502   7.254   6.126   5.208  0.2595  1.5436 -3.0431
  633MOL0     H83503   7.108   5.951   5.329  0.4733  2.2022 -1.6573
  633MOL0     H83504   7.269   5.953   5.399  1.9184  2.4929 -1.1483
  633MOL0     H83505   7.344   5.756   5.270  0.1271  0.4385  1.7098
  633MOL0     H83506   7.239   5.724   5.389  2.2380 -1.9858 -0.2804
  633MOL0     H83507   7.044   5.748   5.233  1.0114  4.2319 -0.6900
  633MOL0     H83508   7.121   5.595   5.249 -2.1556  1.8773  2.3338
  633MOL0     H83509   7.047   5.802   4.951 -0.8432  0.6404  0.4142
  633MOL0     H83510   7.080   5.750   4.688 -1.7040 -0.6278  0.9278
  633MOL0     H83511   7.181   5.597   4.660 -0.7415 -0.2020  0.7261
  633MOL0     H83512   7.302   5.871   4.686  0.1770  0.3183  1.0803
  633MOL0     H83513   7.296   5.767   4.544 -0.8858  1.8808  0.3356
  633MOL0     H83514   7.450   5.688   4.789 -2.9219  1.4392  0.5206
  633MOL0     H83515   7.430   5.605   4.636 -0.7944  0.5169 -0.1947
  633MOL0     H83516   7.522   5.792   4.512  1.1616  0.0235 -0.9360
  633MOL0     H83517   7.640   5.732   4.629  0.7691  0.7877 -0.6890
  633MOL0     H83518   7.672   6.114   4.796 -1.8802 -0.3311 -1.2397
  633MOL0     H83519   7.889   6.242   4.743  2.7978 -1.5677 -0.5465
  633MOL0     H83520   8.204   6.526   4.648  0.8862  0.1982  0.5345
  633MOL0     H83521   8.437   6.584   4.708 -1.1247  1.4172 -0.7017
  633MOL0     H83522   8.722   6.528   4.800 -1.3315  0.7566  1.2030
  633MOL0     H83523   8.648   6.626   4.663  1.4100  2.1928  3.8114
  633MOL0     H83524   8.898   6.466   4.633  2.6729  2.5760  5.2176
  633MOL0     H83525   8.892   6.628   4.669 -0.3396 -0.8015  0.9320
  633MOL0     H83526   8.748   6.683   4.454 -1.6306 -1.2714 -2.0217
  633MOL0     H83527   8.770   6.515   4.416 -2.2979  0.4709  1.8665
  633MOL0     H83528   8.991   6.718   4.482 -2.2352 -0.2210 -0.0970
  633MOL0     H83529   9.035   6.566   4.415  1.2362  0.0645  0.0921
  633MOL0     H83530   9.058   6.699   4.243  0.1195 -1.1679 -0.0803
  633MOL0     H83531   8.904   6.782   4.268  0.3923  0.7428 -0.3791
  633MOL0     H83532   8.798   6.603   4.154 -0.5465 -0.1840 -0.3638
  633MOL0     H83533   8.915   6.480   4.203 -3.0242  0.0484  1.1444
  633MOL0     H83534   8.993   6.710   3.994  1.4379 -0.7331 -0.6527
  633MOL0     H83535   9.085   6.565   4.032  1.1715  1.8710  0.9944
  633MOL0     H83536   8.797   6.550   3.936 -1.6071 -2.5789  3.6619
  633MOL0     H83537   8.881   6.411   3.952 -1.9768 -0.9387 -1.8606
  633MOL0     H83538   8.561   6.203   4.597 -1.0453 -2.0683  2.2064
  633MOL0     H83539   8.323   6.129   4.550 -4.9703  1.2403 -5.2774
  633MOL0     H83540   7.954   5.963   4.424 -0.8813 -2.2313  0.3316
  633MOL0     H83541   7.751   5.857   4.475  0.4964  0.3191 -1.0992
  633MOL0     H83542   7.851   6.243   5.075 -3.4328  0.2213  2.6647
  633MOL0     H83543   8.027   6.365   4.954 -1.7847 -1.1655 -2.3508
  633MOL0     H83544   8.076   6.743   4.673 -1.2735  1.2378 -0.0447
  633MOL0     H83545   8.237   6.886   4.549 -3.7827 -3.8848 -0.4976
  633MOL0     H83546   8.550   6.843   4.643 -1.1174  1.4291  2.5310
  633MOL0     H83547   8.645   6.995   4.640 -3.2983  1.1035  3.9080
  633MOL0     H83548   8.691   6.926   4.426  0.0600  0.7020  0.4808
  633MOL0     H83549   8.536   6.851   4.400  0.2186  0.7411 -0.4406
  633MOL0     H83550   8.544   7.150   4.437  2.9134 -0.2740  0.2434
  633MOL0     H83551   8.430   7.038   4.360 -0.0346  0.1343 -1.3812
  633MOL0     H83552   8.528   7.128   4.172 -1.0740 -3.2950 -1.6558
  633MOL0     H83553   8.686   7.160   4.252  1.2208 -1.6664  0.1006
  633MOL0     H83554   8.703   6.773   4.075 -1.8872 -0.3767 -0.0799
  633MOL0     H83555   8.445   6.990   4.897  1.4668 -0.8189 -0.7872
  633MOL0     H83556   8.289   6.843   5.034 -0.6668  0.3625  1.1870
  634MOL0     O83557   6.252  10.334   0.518 -0.5531 -0.2688 -0.4500
  634MOL0     C83558   6.340  10.370   0.439  1.3489  1.3654 -0.3925
  634MOL0     O83559   6.472  10.394   0.474 -0.1229 -0.6171  0.3119
  634MOL0     C83560   6.499  10.434   0.605 -1.3417 -0.1034  0.8488
  634MOL0     C83561   6.404  10.501   0.685 -0.9559 -0.1037 -0.4960
  634MOL0     C83562   6.447  10.546   0.816 -0.0650  0.0010 -0.1952
  634MOL0     C83563   6.568  10.502   0.883 -0.4353  0.0420  0.1280
  634MOL0     O83564   6.608  10.547   1.008  0.6624 -0.8558 -0.6317
  634MOL0     C83565   6.704  10.477   1.082  0.5706 -0.4528 -0.3366
  634MOL0     C83566   6.740  10.556   1.207 -1.0784 -0.3726 -0.5118
  634MOL0     C83567   6.825  10.474   1.298 -0.0135  0.1588 -0.7475
  634MOL0     C83568   6.748  10.347   1.342  0.1448  0.3082  0.5345
  634MOL0     C83569   6.822  10.264   1.453 -0.1645  0.5371 -0.1148
  634MOL0     C83570   6.811  10.325   1.596 -0.0263  0.0248 -0.4238
  634MOL0     C83571   6.737  10.243   1.696 -0.9169  0.6523 -0.7485
  634MOL0     C83572   6.755  10.305   1.838  0.3870  0.4477  0.0332
  634MOL0     N83573   6.889  10.329   1.874  0.7383  0.3935 -0.1134
  634MOL0     C83574   6.949  10.455   1.870  0.3111  0.1894  0.4339
  634MOL0     C83575   7.075  10.437   1.918  0.5433  0.7671 -0.6167
  634MOL0     C83576   7.192  10.538   1.944 -0.3670 -0.7681 -0.6419
  634MOL0     C83577   7.321  10.496   1.872  0.7319  0.5137  0.3594
  634MOL0     C83578   7.308  10.448   1.728 -0.4414  0.3121  0.4509
  634MOL0     C83579   7.255  10.556   1.628 -0.8190  0.1601 -0.3557
  634MOL0     O83580   7.115  10.595   1.645 -0.2545 -0.1129  0.2434
  634MOL0     C83581   7.064  10.690   1.558  0.2984  0.4664  0.2634
  634MOL0     C83582   7.125  10.745   1.443  0.6993 -0.1445 -0.4223
  634MOL0     C83583   7.072  10.856   1.377 -0.4145  0.1133 -0.1936
  634MOL0     C83584   6.948  10.914   1.424 -0.3760  1.4574 -0.2706
  634MOL0     C83585   6.884  11.015   1.345  0.3829 -0.0755  0.1278
  634MOL0     O83586   6.967  11.065   1.243  0.1768  0.7255  0.2862
  634MOL0     C83587   6.949  11.174   1.173  0.0659  0.0944 -0.3151
  634MOL0     C83588   7.015  11.173   1.045  0.3028 -0.0969  0.3371
  634MOL0     C83589   7.008  11.289   0.956 -0.3325 -0.0285 -0.0519
  634MOL0     C83590   6.921  11.392   0.993 -1.3131  0.0149 -0.1799
  634MOL0     O83591   6.905  11.497   0.911  0.9636 -0.1155  0.3520
  634MOL0     C83592   6.831  11.452   0.792  0.6295 -0.2892  0.8631
  634MOL0     C83593   6.799  11.560   0.690  0.3496  0.6438  0.4413
  634MOL0     C83594   6.926  11.625   0.627  0.4253 -0.4335  0.5558
  634MOL0     C83595   6.900  11.708   0.503 -0.8991 -0.0309 -0.1009
  634MOL0     C83596   7.014  11.773   0.439  0.0327  0.2970  0.4038
  634MOL0     C83597   7.010  11.788   0.290  0.1281  0.5080  0.1781
  634MOL0     C83598   7.132  11.855   0.231 -0.2982 -0.3199  0.8101
  634MOL0     C83599   7.121  11.877   0.082  0.0415  0.0687 -0.1554
  634MOL0    Cl83600   6.999  11.996   0.032  0.2777 -0.2187  0.0086
  634MOL0     C83601   6.850  11.389   1.115 -0.8056 -0.4439 -0.3197
  634MOL0     C83602   6.872  11.288   1.209 -0.5312  0.9650  0.4805
  634MOL0     O83603   6.767  11.055   1.372  1.0339  0.7715 -0.7732
  634MOL0     C83604   6.891  10.866   1.544  0.2546 -0.2464 -0.0450
  634MOL0     C83605   6.950  10.754   1.604 -1.2449 -0.0714 -0.1792
  634MOL0     N83606   7.094  10.308   1.976 -0.2164 -0.8825  0.5889
  634MOL0     N83607   6.983  10.244   1.941  0.4200 -0.4317 -0.4372
  634MOL0     C83608   6.644  10.423   0.807  0.2321 -0.5485  0.9893
  634MOL0     C83609   6.612  10.383   0.672 -0.5432  0.3517  0.0269
  634MOL0     C83610   6.290  10.420   0.313  0.2654  0.4547 -0.8533
  634MOL0     C83611   6.158  10.473   0.310 -0.3461 -0.4781  0.3709
  634MOL0     C83612   6.108  10.530   0.189  1.0557  0.6390 -1.1534
  634MOL0     C83613   6.188  10.529   0.074 -0.4093  0.0046 -0.7583
  634MOL0     O83614   6.126  10.588  -0.034  0.3216  0.3354 -0.3695
  634MOL0     C83615   6.211  10.644  -0.135  0.0569  0.6030  0.0315
  634MOL0     C83616   6.133  10.717  -0.242  0.0717 -1.0950 -0.5546
  634MOL0     C83617   6.203  10.763  -0.363 -0.5776  0.4072  0.1143
  634MOL0     C83618   6.318  10.867  -0.318  0.2811  0.2190  0.7056
  634MOL0     C83619   6.362  10.964  -0.422 -0.8204 -0.1298 -0.1975
  634MOL0     C83620   6.395  11.051  -0.493  0.0242 -0.2300  1.1395
  634MOL0     C83621   6.318  10.464   0.076  0.4819 -1.0928 -0.1652
  634MOL0     C83622   6.367  10.414   0.194  0.5920 -0.0700  0.7953
  634MOL0     H83623   6.302  10.525   0.657 -2.8196 -2.0728  3.6360
  634MOL0     H83624   6.379  10.606   0.876  2.4923  1.3982  1.4896
  634MOL0     H83625   6.800  10.465   1.031  1.1772 -0.6972  0.7999
  634MOL0     H83626   6.659  10.377   1.089 -1.0139  0.0048 -2.9642
  634MOL0     H83627   6.656  10.585   1.270  1.8388 -0.1806  3.7414
  634MOL0     H83628   6.811  10.637   1.187  0.8775 -2.0446 -0.7615
  634MOL0     H83629   6.854  10.525   1.390 -1.6658  2.0361 -1.2128
  634MOL0     H83630   6.916  10.441   1.247  1.8431 -0.7684  2.8467
  634MOL0     H83631   6.650  10.373   1.384 -0.0437 -0.0421  0.3141
  634MOL0     H83632   6.737  10.284   1.253  2.0521  2.5037 -1.3899
  634MOL0     H83633   6.928  10.253   1.429  1.1985  4.0447  3.3022
  634MOL0     H83634   6.778  10.164   1.448  0.4310  0.3342 -2.5098
  634MOL0     H83635   6.762  10.423   1.590  0.3657  0.3861  1.6664
  634MOL0     H83636   6.913  10.343   1.631 -0.0323  2.0579 -1.2782
  634MOL0     H83637   6.633  10.226   1.667  0.1175 -3.8395 -2.7073
  634MOL0     H83638   6.790  10.147   1.692  1.4089  1.5357  3.2736
  634MOL0     H83639   6.708  10.239   1.911  0.4794 -0.2157 -0.4982
  634MOL0     H83640   6.701  10.400   1.840 -1.0193 -0.2938  2.9509
  634MOL0     H83641   6.901  10.540   1.824  0.6848 -0.3362 -0.9644
  634MOL0     H83642   7.211  10.534   2.051 -1.9272  0.3280 -0.2878
  634MOL0     H83643   7.148  10.637   1.926 -4.1795 -2.0943  0.3519
  634MOL0     H83644   7.373  10.418   1.928  1.2492  1.4388  1.1994
  634MOL0     H83645   7.387  10.583   1.870 -0.2249  1.4926  3.8492
  634MOL0     H83646   7.407  10.414   1.694 -0.3214  1.9107 -0.9535
  634MOL0     H83647   7.234  10.368   1.728  1.2282 -1.3224  1.9756
  634MOL0     H83648   7.269  10.522   1.525  1.0185  0.8910 -0.3824
  634MOL0     H83649   7.314  10.647   1.641  1.9222 -1.5373 -0.2839
  634MOL0     H83650   7.221  10.705   1.412  1.1635 -0.0110  0.7810
  634MOL0     H83651   7.135  10.896   1.299 -0.0289  1.3074  0.6967
  634MOL0     H83652   7.073  11.086   1.017  0.4292 -0.5535  1.9204
  634MOL0     H83653   7.057  11.299   0.859 -1.8070  0.4246 -0.7857
  634MOL0     H83654   6.732  11.416   0.821  0.1205 -0.4657 -0.9450
  634MOL0     H83655   6.883  11.369   0.743  0.9442 -0.7234  1.9047
  634MOL0     H83656   6.724  11.625   0.735  2.3090  2.0542  1.8448
  634MOL0     H83657   6.746  11.520   0.603 -0.3935  0.5911  0.9107
  634MOL0     H83658   6.997  11.545   0.601  1.0244  0.8613 -2.1737
  634MOL0     H83659   6.986  11.685   0.697  2.5291 -1.7462 -0.0113
  634MOL0     H83660   6.828  11.664   0.434  1.7097 -2.0536 -1.7102
  634MOL0     H83661   6.846  11.789   0.554  0.9581  0.3054  1.4439
  634MOL0     H83662   7.103  11.714   0.461  0.3865 -0.9641 -3.5928
  634MOL0     H83663   7.029  11.872   0.483 -1.8862  0.9848 -0.3867
  634MOL0     H83664   6.914  11.832   0.263 -1.8946 -3.2633  0.4536
  634MOL0     H83665   7.006  11.684   0.254  1.7119 -0.1414  1.7135
  634MOL0     H83666   7.147  11.953   0.277  1.5721  0.4353 -1.2050
  634MOL0     H83667   7.217  11.792   0.259 -1.0046 -0.9005  1.6854
  634MOL0     H83668   7.106  11.776   0.041  0.8332 -1.1973  2.4101
  634MOL0     H83669   7.217  11.918   0.049  0.2744 -0.4543 -0.1397
  634MOL0     H83670   6.805  11.487   1.127  0.8121  0.4623 -1.2870
  634MOL0     H83671   6.808  11.282   1.296 -3.1166 -1.2739 -1.4252
  634MOL0     H83672   6.791  10.903   1.565  1.0136  1.1746  1.2598
  634MOL0     H83673   6.908  10.719   1.698 -2.6786  0.3601 -0.6421
  634MOL0     H83674   6.728  10.381   0.861  0.9617  1.6469  1.6539
  634MOL0     H83675   6.687  10.323   0.621 -0.9938 -0.4192  0.2472
  634MOL0     H83676   6.100  10.483   0.402  1.5206 -0.3887  1.5791
  634MOL0     H83677   6.007  10.569   0.188  0.3157 -0.5061  3.6598
  634MOL0     H83678   6.248  10.552  -0.181 -2.8143 -1.5848  1.7146
  634MOL0     H83679   6.299  10.694  -0.093 -0.2681  1.6498 -0.4969
  634MOL0     H83680   6.050  10.654  -0.271 -1.9273  0.1368  2.0431
  634MOL0     H83681   6.084  10.800  -0.190  2.4470  0.0337  0.0716
  634MOL0     H83682   6.125  10.818  -0.417 -0.8309 -1.9955 -2.1548
  634MOL0     H83683   6.253  10.688  -0.425  2.9203  2.2312  0.4862
  634MOL0     H83684   6.263  10.933  -0.251 -2.0113  0.6585 -1.4444
  634MOL0     H83685   6.409  10.818  -0.281  1.0980  0.3593 -1.0143
  634MOL0     H83686   6.427  11.125  -0.563 -1.5059 -0.9090 -0.3420
  634MOL0     H83687   6.379  10.459  -0.013  1.2819 -0.0965  0.3103
  634MOL0     H83688   6.470  10.380   0.190  1.1730  1.6550  0.0825
  635MOL0     O83689   3.728   6.904   3.146  0.5381 -0.0426 -0.1997
  635MOL0     C83690   3.813   6.993   3.129  0.6947  0.0869  0.4342
  635MOL0     O83691   3.940   6.969   3.075 -0.1589 -0.4170 -0.4915
  635MOL0     C83692   3.954   6.854   2.997  0.0088  0.5414 -0.7370
  635MOL0     C83693   4.071   6.779   2.996  0.1438  0.5484  0.2812
  635MOL0     C83694   4.080   6.659   2.919 -0.2519  0.0338  0.5854
  635MOL0     C83695   3.975   6.609   2.850 -0.2606 -1.0056  0.5533
  635MOL0     O83696   3.982   6.497   2.769  0.6554  0.2265  0.4633
  635MOL0     C83697   4.106   6.444   2.728 -0.4723  0.8041  1.5762
  635MOL0     C83698   4.086   6.387   2.589 -0.3187  0.1802 -0.0552
  635MOL0     C83699   4.223   6.343   2.540 -0.4404 -0.2347 -0.7466
  635MOL0     C83700   4.232   6.196   2.483  0.7415 -0.1975 -0.0712
  635MOL0     C83701   4.368   6.166   2.418 -0.6672 -0.5692 -0.0889
  635MOL0     C83702   4.352   6.069   2.306  0.2825 -0.1844  0.0254
  635MOL0     C83703   4.482   6.068   2.222  1.8434 -0.1419  0.2974
  635MOL0     C83704   4.490   6.188   2.114 -0.8392 -0.1680  0.5306
  635MOL0     N83705   4.578   6.141   1.997  0.6441 -0.7198  0.4332
  635MOL0     C83706   4.712   6.154   2.000  0.6082  0.2445  0.6122
  635MOL0     C83707   4.747   6.129   1.869  0.4762 -0.3414  0.0644
  635MOL0     C83708   4.891   6.114   1.825 -0.1153  0.1045 -0.1933
  635MOL0     C83709   4.908   5.986   1.743 -0.4824  0.1736 -0.3895
  635MOL0     C83710   4.886   5.851   1.807 -0.4960 -0.6368 -0.2669
  635MOL0     C83711   5.016   5.820   1.885  0.6989  0.1856  0.5931
  635MOL0     O83712   5.087   5.700   1.846 -0.1880 -0.0758  0.4000
  635MOL0     C83713   5.190   5.655   1.935  0.5811 -0.6628 -0.3120
  635MOL0     C83714   5.317   5.652   1.869  0.1412  0.1174 -0.1454
  635MOL0     C83715   5.434   5.623   1.947  0.3387  0.0606 -0.1461
  635MOL0     C83716   5.422   5.587   2.082  0.4938 -0.3821 -0.4306
  635MOL0     C83717   5.546   5.557   2.172  0.2812 -0.9434 -0.4351
  635MOL0     O83718   5.531   5.565   2.314 -0.4413 -0.5937 -0.7246
  635MOL0     C83719   5.628   5.505   2.389 -0.1574 -0.4835  0.4896
  635MOL0     C83720   5.752   5.568   2.408 -0.4945  0.1235  1.0436
  635MOL0     C83721   5.858   5.497   2.471  0.6298 -0.1220 -0.4215
  635MOL0     C83722   5.841   5.365   2.516  0.2886 -0.9045  0.4545
  635MOL0     O83723   5.945   5.306   2.578  0.2201 -0.5936  0.5677
  635MOL0     C83724   5.947   5.159   2.568  0.2696 -0.1335 -0.1386
  635MOL0     C83725   6.085   5.100   2.585 -0.3820 -0.1045 -0.7926
  635MOL0     C83726   6.156   5.056   2.456 -0.8592 -0.5033 -0.5041
  635MOL0     C83727   6.145   5.174   2.347  0.0042  0.2283 -1.0909
  635MOL0     C83728   6.235   5.142   2.228  0.0958  1.4383 -0.5568
  635MOL0     C83729   6.199   5.026   2.143 -0.1012 -0.0654  0.2546
  635MOL0     C83730   6.070   5.037   2.064  0.0608  0.3292  0.5686
  635MOL0     C83731   6.072   4.937   1.954 -0.0786  0.6073  0.3482
  635MOL0    Cl83732   5.917   4.930   1.853 -0.1604  0.2751  0.4516
  635MOL0     C83733   5.709   5.309   2.503 -0.1146  0.3075 -0.0242
  635MOL0     C83734   5.607   5.374   2.435  0.3736 -0.0607 -0.0360
  635MOL0     O83735   5.637   5.514   2.109 -0.6532 -0.2177  0.1409
  635MOL0     C83736   5.292   5.574   2.138 -0.2283  0.0122  0.0277
  635MOL0     C83737   5.183   5.619   2.066 -0.3523  0.1142 -0.5028
  635MOL0     N83738   4.636   6.110   1.790 -0.2210  0.5854 -0.2954
  635MOL0     N83739   4.535   6.107   1.871  0.2087  0.0915  0.3200
  635MOL0     C83740   3.858   6.689   2.834  0.4353  1.0418 -0.2669
  635MOL0     C83741   3.853   6.814   2.905  0.3304  1.4997 -0.1004
  635MOL0     C83742   3.761   7.135   3.147 -0.2928  0.2834  0.2697
  635MOL0     C83743   3.826   7.240   3.075  0.4087 -0.6877 -1.0895
  635MOL0     C83744   3.771   7.367   3.091  0.1589 -1.1267  0.2179
  635MOL0     C83745   3.652   7.403   3.164 -0.3310  0.0497  0.9716
  635MOL0     O83746   3.617   7.533   3.193  0.6577 -0.0473  0.2427
  635MOL0     C83747   3.471   7.545   3.212 -0.6197 -0.2459  0.3141
  635MOL0     C83748   3.399   7.535   3.074 -0.1048  0.4357  0.3720
  635MOL0     C83749   3.244   7.546   3.080 -0.5261 -0.0082 -0.2510
  635MOL0     C83750   3.192   7.676   3.129  0.5171 -0.2926 -1.0321
  635MOL0     C83751   3.244   7.781   3.041  0.0543  0.2262  1.0271
  635MOL0     C83752   3.297   7.860   2.967 -0.0090  0.0293 -0.7713
  635MOL0     C83753   3.578   7.289   3.214 -0.8400  0.4101 -0.2106
  635MOL0     C83754   3.639   7.163   3.216 -0.6129 -0.0024  0.2097
  635MOL0     H83755   4.169   6.808   3.031  2.9861 -0.0113 -5.9009
  635MOL0     H83756   4.176   6.612   2.938 -0.2878 -0.2477  0.0961
  635MOL0     H83757   4.128   6.356   2.789  1.7304 -1.3784 -2.0050
  635MOL0     H83758   4.184   6.520   2.727 -0.1083  0.4499 -0.0021
  635MOL0     H83759   4.038   6.465   2.529 -2.4410 -0.4349  0.7618
  635MOL0     H83760   4.014   6.304   2.586  1.6590 -1.6088 -0.1576
  635MOL0     H83761   4.296   6.345   2.622 -0.8968  3.8166 -0.2353
  635MOL0     H83762   4.257   6.409   2.460  1.4325  0.0036  0.1886
  635MOL0     H83763   4.215   6.127   2.566  0.7895  0.2789  0.3354
  635MOL0     H83764   4.150   6.183   2.411  0.1387  0.8654  0.3940
  635MOL0     H83765   4.440   6.137   2.495 -0.0611 -0.8816 -0.7602
  635MOL0     H83766   4.408   6.257   2.372 -1.7370 -0.5965 -1.1350
  635MOL0     H83767   4.271   6.099   2.239 -1.0429  0.5607  1.8773
  635MOL0     H83768   4.329   5.975   2.357 -1.0525  1.6028  3.0003
  635MOL0     H83769   4.574   6.081   2.279  1.2667  1.5271  0.9087
  635MOL0     H83770   4.489   5.967   2.182 -1.2432 -0.7818  1.0872
  635MOL0     H83771   4.540   6.273   2.161 -0.8897  0.0558  0.1788
  635MOL0     H83772   4.386   6.209   2.089 -0.7366  0.4051  0.5780
  635MOL0     H83773   4.780   6.161   2.084  0.7105  1.6034  0.4417
  635MOL0     H83774   4.961   6.122   1.908  3.2915 -1.3170 -2.6686
  635MOL0     H83775   4.920   6.200   1.765 -0.5290  1.6737  1.7792
  635MOL0     H83776   5.008   5.979   1.700 -0.5083 -1.5239 -0.2447
  635MOL0     H83777   4.837   5.990   1.660  0.2879 -6.2483 -1.8809
  635MOL0     H83778   4.799   5.840   1.873 -1.3127  2.0664 -0.7554
  635MOL0     H83779   4.868   5.772   1.734  1.1471  0.6972 -2.2251
  635MOL0     H83780   4.998   5.821   1.993 -0.3435 -1.6661  0.4806
  635MOL0     H83781   5.091   5.899   1.874  2.4594 -1.6401 -1.4976
  635MOL0     H83782   5.310   5.668   1.761  0.0299  0.2528 -0.1177
  635MOL0     H83783   5.530   5.622   1.896  1.4489 -0.3968  1.8356
  635MOL0     H83784   5.762   5.671   2.378 -3.5707  1.0099  2.6743
  635MOL0     H83785   5.946   5.560   2.480  1.3124 -0.7486 -2.2008
  635MOL0     H83786   5.901   5.113   2.481  0.5464 -0.3300 -0.1841
  635MOL0     H83787   5.875   5.138   2.648 -1.9126  1.1082 -1.7058
  635MOL0     H83788   6.064   5.012   2.646 -1.9532  1.8226  1.6332
  635MOL0     H83789   6.160   5.165   2.632  2.7760 -2.4313 -2.2225
  635MOL0     H83790   6.117   4.959   2.425  0.5687 -0.9913 -0.8799
  635MOL0     H83791   6.264   5.045   2.470 -0.5507  1.3265 -1.0847
  635MOL0     H83792   6.042   5.200   2.323  0.3803  0.1308 -2.9694
  635MOL0     H83793   6.194   5.269   2.372  0.0805  0.1978 -1.1242
  635MOL0     H83794   6.336   5.119   2.263 -1.2659 -0.7344  2.3013
  635MOL0     H83795   6.244   5.230   2.163  1.0366  3.0285  1.6003
  635MOL0     H83796   6.196   4.934   2.202  0.6458  0.9356  1.9382
  635MOL0     H83797   6.287   5.009   2.081  0.8841  1.4228  1.1606
  635MOL0     H83798   5.990   5.017   2.136 -0.0544  0.1117  0.3801
  635MOL0     H83799   6.060   5.140   2.028 -0.6462  0.8326  2.1241
  635MOL0     H83800   6.083   4.842   2.008 -0.6775 -0.0763 -0.6873
  635MOL0     H83801   6.160   4.951   1.892 -1.2626 -0.8274 -1.7967
  635MOL0     H83802   5.683   5.212   2.544  1.3347  0.0080  0.2561
  635MOL0     H83803   5.512   5.322   2.425  2.4529 -3.7541 -3.9177
  635MOL0     H83804   5.286   5.548   2.243 -0.3430 -0.4568 -0.0939
  635MOL0     H83805   5.089   5.624   2.118  1.1381 -0.3344  2.4183
  635MOL0     H83806   3.782   6.665   2.761  1.6646 -0.8412 -1.0049
  635MOL0     H83807   3.759   6.864   2.886 -0.1662  1.0111  0.9582
  635MOL0     H83808   3.909   7.217   3.009  3.1265 -0.9719  2.1590
  635MOL0     H83809   3.822   7.447   3.039 -0.3263 -2.2698 -2.1933
  635MOL0     H83810   3.457   7.650   3.237  1.4821  1.0567 -3.1796
  635MOL0     H83811   3.443   7.480   3.296 -1.5996 -0.4111 -0.1326
  635MOL0     H83812   3.441   7.615   3.013 -0.0579  0.6948  0.7402
  635MOL0     H83813   3.430   7.451   3.011 -1.2662  0.6670 -0.5437
  635MOL0     H83814   3.206   7.466   3.143  0.0116 -1.6751 -1.9433
  635MOL0     H83815   3.204   7.525   2.980  1.2837  0.2821 -1.0823
  635MOL0     H83816   3.082   7.677   3.126  0.1862  1.7983  3.4970
  635MOL0     H83817   3.217   7.689   3.235 -4.5751 -0.5807  0.4924
  635MOL0     H83818   3.334   7.936   2.901  0.6865  1.4163  1.1184
  635MOL0     H83819   3.505   7.292   3.294 -0.5226 -1.5276  0.1908
  635MOL0     H83820   3.590   7.072   3.248  0.9138 -1.1175 -0.4828
  636MOL0     O83821   3.028   9.132   2.955  0.3373  0.5192 -0.2173
  636MOL0     C83822   3.141   9.166   2.909  0.9343 -0.2350 -0.2913
  636MOL0     O83823   3.239   9.079   2.871  0.3228 -0.2435 -0.0247
  636MOL0     C83824   3.213   8.948   2.859 -0.2410 -0.2404  0.0466
  636MOL0     C83825   3.250   8.877   2.743 -0.4194  0.6810  0.1890
  636MOL0     C83826   3.234   8.733   2.735  0.6645 -0.9074  0.5692
  636MOL0     C83827   3.172   8.663   2.831  0.5871 -0.2014  0.3497
  636MOL0     O83828   3.163   8.526   2.819  0.1195  0.0145  0.0673
  636MOL0     C83829   3.094   8.450   2.916  0.3563  0.3743 -0.4774
  636MOL0     C83830   3.114   8.301   2.885 -0.2695 -0.0139 -0.0837
  636MOL0     C83831   3.065   8.210   3.000  0.1178  0.6858  0.1581
  636MOL0     C83832   2.906   8.203   3.010 -0.1486  0.3455 -0.4049
  636MOL0     C83833   2.856   8.088   3.101  0.2560 -0.6488 -0.3636
  636MOL0     C83834   2.894   7.941   3.058  0.1929  0.7806  1.1344
  636MOL0     C83835   2.820   7.833   3.136  0.8618  0.1847 -0.2833
  636MOL0     C83836   2.860   7.826   3.277 -0.7337  0.8395 -0.0943
  636MOL0     N83837   2.828   7.688   3.335 -0.7888 -0.3879  0.1557
  636MOL0     C83838   2.735   7.657   3.424  0.8227 -0.4213  0.3243
  636MOL0     C83839   2.746   7.521   3.447 -0.8401 -0.1576  0.1471
  636MOL0     C83840   2.658   7.432   3.528 -0.2971 -0.7960  0.1784
  636MOL0     C83841   2.540   7.372   3.455 -0.5586  0.3781  0.2136
  636MOL0     C83842   2.439   7.314   3.562 -1.2612 -0.4756  1.1839
  636MOL0     C83843   2.364   7.407   3.646  0.2260 -0.6113  0.3371
  636MOL0     O83844   2.261   7.340   3.736  1.2955 -0.3908  0.3600
  636MOL0     C83845   2.309   7.243   3.817 -0.1540  0.6002  0.2612
  636MOL0     C83846   2.428   7.245   3.890 -0.2968  0.1143 -0.2058
  636MOL0     C83847   2.476   7.151   3.964  0.4281  0.2595  0.6036
  636MOL0     C83848   2.400   7.030   3.978 -0.4819  0.4974 -0.4011
  636MOL0     C83849   2.452   6.907   4.057 -0.0722 -0.0911 -0.2129
  636MOL0     O83850   2.578   6.922   4.113  0.7430  0.2550 -0.2022
  636MOL0     C83851   2.643   6.802   4.153 -0.1452 -0.1247 -0.3567
  636MOL0     C83852   2.658   6.683   4.077 -0.5122 -0.5938 -0.1314
  636MOL0     C83853   2.725   6.567   4.126 -0.2885  0.1323 -0.9096
  636MOL0     C83854   2.769   6.568   4.263 -0.0746 -0.3549  0.6249
  636MOL0     O83855   2.802   6.443   4.316  0.5009  0.9488 -1.1658
  636MOL0     C83856   2.881   6.436   4.435 -0.4235 -0.3051  0.7362
  636MOL0     C83857   3.028   6.448   4.406 -0.4173  0.0067 -0.0160
  636MOL0     C83858   3.119   6.388   4.520  0.1282 -0.0850 -0.2659
  636MOL0     C83859   3.263   6.369   4.473  0.0207  0.3408  0.3506
  636MOL0     C83860   3.298   6.250   4.385 -0.3736  0.7787  0.2277
  636MOL0     C83861   3.278   6.115   4.458 -0.3019 -0.3257  0.9802
  636MOL0     C83862   3.343   5.986   4.403 -0.0808  0.5166  0.3208
  636MOL0     C83863   3.461   6.006   4.308 -0.3995 -1.0140  0.4370
  636MOL0    Cl83864   3.507   5.838   4.247  0.3462 -0.2703 -0.5893
  636MOL0     C83865   2.756   6.690   4.341 -0.1615  0.5722 -0.1613
  636MOL0     C83866   2.700   6.811   4.282 -0.0886 -0.6481 -0.6849
  636MOL0     O83867   2.375   6.816   4.074 -0.1714 -0.2692  0.8298
  636MOL0     C83868   2.277   7.021   3.902  1.0545 -0.2392  0.1442
  636MOL0     C83869   2.240   7.127   3.821  0.1292  0.4709  0.1415
  636MOL0     N83870   2.856   7.486   3.377 -0.1382  0.1373  0.0151
  636MOL0     N83871   2.901   7.577   3.299  0.6968 -0.0976  0.3976
  636MOL0     C83872   3.119   8.729   2.942  0.4251 -0.4991  1.0754
  636MOL0     C83873   3.147   8.867   2.962 -0.5507  0.1635 -0.2409
  636MOL0     C83874   3.168   9.307   2.891 -0.6893 -0.3913  0.2044
  636MOL0     C83875   3.254   9.361   2.794  0.2766  0.2722  0.4781
  636MOL0     C83876   3.283   9.504   2.795  0.2674  0.7402  0.1947
  636MOL0     C83877   3.225   9.597   2.889 -0.2488 -0.5091 -0.7358
  636MOL0     O83878   3.250   9.729   2.895  0.1824  0.3818 -0.0239
  636MOL0     C83879   3.363   9.790   2.819  0.6934  0.0173  0.7079
  636MOL0     C83880   3.369   9.943   2.836 -0.0393  0.6348  0.6944
  636MOL0     C83881   3.432   9.957   2.975 -0.0113  0.1851  1.5113
  636MOL0     C83882   3.446  10.102   3.013 -0.5661  0.7216  0.1755
  636MOL0     C83883   3.471  10.100   3.164 -0.2491 -0.0547  1.4471
  636MOL0     C83884   3.489  10.096   3.292  0.3108  0.4391  0.2889
  636MOL0     C83885   3.126   9.540   2.978  0.1713 -0.0904  0.2066
  636MOL0     C83886   3.105   9.403   2.982  0.7590 -0.0482 -0.5159
  636MOL0     H83887   3.318   8.927   2.675  0.2389  1.7210  1.5707
  636MOL0     H83888   3.299   8.691   2.659  0.5705 -0.7603  0.4058
  636MOL0     H83889   2.989   8.476   2.934 -0.1324 -1.8882  0.2733
  636MOL0     H83890   3.152   8.450   3.008  0.3367 -1.4855 -0.4201
  636MOL0     H83891   3.220   8.280   2.870 -0.6622 -1.1285 -1.5020
  636MOL0     H83892   3.074   8.276   2.787  1.7861  0.4072 -1.0828
  636MOL0     H83893   3.097   8.243   3.100  0.2055 -1.4766  0.9008
  636MOL0     H83894   3.115   8.117   2.974 -1.0572  0.8362 -3.0712
  636MOL0     H83895   2.869   8.300   3.045  2.1092  0.4145  2.1036
  636MOL0     H83896   2.856   8.178   2.916 -1.7900 -3.0840  1.1774
  636MOL0     H83897   2.748   8.089   3.120  0.7542  0.9789  3.1187
  636MOL0     H83898   2.906   8.099   3.197 -2.8609 -2.1394  1.5893
  636MOL0     H83899   3.001   7.918   3.061 -0.0120 -0.8865 -1.1426
  636MOL0     H83900   2.871   7.935   2.951 -3.4951  2.7127  1.6568
  636MOL0     H83901   2.716   7.864   3.119  1.0540  1.1536  0.2407
  636MOL0     H83902   2.832   7.732   3.096  3.2498 -0.9053  2.8007
  636MOL0     H83903   2.813   7.909   3.331 -0.8337  0.0115  1.1099
  636MOL0     H83904   2.964   7.858   3.276 -0.5335  0.1993 -0.4750
  636MOL0     H83905   2.666   7.731   3.463  1.3742 -0.1861  0.8707
  636MOL0     H83906   2.625   7.477   3.622  2.9504  2.1624  0.1413
  636MOL0     H83907   2.721   7.345   3.548  0.1977 -0.0594  1.9808
  636MOL0     H83908   2.576   7.299   3.382  0.3738  0.9225  0.1169
  636MOL0     H83909   2.492   7.447   3.391  1.0197  1.9099  0.7605
  636MOL0     H83910   2.360   7.263   3.506 -0.2828  1.2903 -2.0939
  636MOL0     H83911   2.509   7.243   3.608  1.0259  0.3797 -0.7191
  636MOL0     H83912   2.302   7.472   3.583  0.9722 -0.6925 -0.4978
  636MOL0     H83913   2.419   7.480   3.707 -0.5925  1.1176 -0.8988
  636MOL0     H83914   2.479   7.341   3.886  0.5009 -0.2174  1.2973
  636MOL0     H83915   2.561   7.177   4.026  1.2395  2.5836 -1.3436
  636MOL0     H83916   2.628   6.687   3.972 -0.6385 -2.8430 -0.2231
  636MOL0     H83917   2.744   6.474   4.074  6.2468 -2.1769  4.2484
  636MOL0     H83918   2.877   6.332   4.471  3.9728 -0.5157  1.0537
  636MOL0     H83919   2.837   6.503   4.509 -0.9825  0.1751 -0.0158
  636MOL0     H83920   3.049   6.556   4.404 -2.1074  0.4177  1.5012
  636MOL0     H83921   3.053   6.401   4.311  0.4349 -1.5338  0.9264
  636MOL0     H83922   3.082   6.290   4.549  3.7532 -2.0061 -1.4803
  636MOL0     H83923   3.122   6.456   4.605 -0.0124 -0.1797 -0.1848
  636MOL0     H83924   3.303   6.457   4.422  1.3197 -1.6016 -2.1906
  636MOL0     H83925   3.325   6.363   4.563 -2.3050  0.1951  2.0347
  636MOL0     H83926   3.407   6.259   4.377 -0.1755 -2.2067 -3.1622
  636MOL0     H83927   3.249   6.254   4.287  0.1487  0.5343 -0.0483
  636MOL0     H83928   3.174   6.084   4.446 -0.1978 -1.8183  3.3547
  636MOL0     H83929   3.299   6.113   4.565  0.3025 -0.4211  0.8649
  636MOL0     H83930   3.383   5.943   4.496  1.0231  1.7250  0.4354
  636MOL0     H83931   3.269   5.923   4.353  1.4775  0.0409 -1.4780
  636MOL0     H83932   3.550   6.030   4.367  1.4051 -3.8210 -0.8687
  636MOL0     H83933   3.442   6.083   4.233 -2.3915  0.7988  2.6581
  636MOL0     H83934   2.794   6.691   4.442 -0.7175  0.8937  0.0450
  636MOL0     H83935   2.682   6.897   4.347 -1.0119 -1.4249  0.1291
  636MOL0     H83936   2.221   6.928   3.890 -1.2847  0.3118  4.5507
  636MOL0     H83937   2.146   7.118   3.766 -0.7103 -0.0893  1.6149
  636MOL0     H83938   3.062   8.678   3.019  0.3728 -1.1618  0.6025
  636MOL0     H83939   3.108   8.922   3.047  1.3731  3.3921 -1.2491
  636MOL0     H83940   3.301   9.293   2.723  0.2404 -2.3707  2.8208
  636MOL0     H83941   3.338   9.552   2.714  0.3296 -0.6640 -0.6347
  636MOL0     H83942   3.345   9.771   2.713  0.2107  5.3395 -0.4489
  636MOL0     H83943   3.456   9.735   2.829  1.8792  1.7830 -0.0560
  636MOL0     H83944   3.443   9.986   2.767  2.3664 -0.8190  2.2205
  636MOL0     H83945   3.273   9.994   2.842  0.8792  2.3155  1.7998
  636MOL0     H83946   3.526   9.901   2.973 -0.3545 -0.4409 -1.5965
  636MOL0     H83947   3.359   9.908   3.040 -1.6808  0.0094 -0.3885
  636MOL0     H83948   3.531  10.151   2.964 -0.1914  0.9545  1.0371
  636MOL0     H83949   3.352  10.151   2.989 -0.9138  0.9789  1.9807
  636MOL0     H83950   3.492  10.091   3.399  1.2532  1.0582  0.3051
  636MOL0     H83951   3.086   9.622   3.037  2.0495  0.0554  1.3667
  636MOL0     H83952   3.031   9.364   3.051 -0.4969 -2.1846 -2.9334
  637MOL0     O83953   9.816   6.627   1.694 -0.0323  0.2658  0.2342
  637MOL0     C83954   9.739   6.657   1.788 -0.4375  0.0653 -0.6772
  637MOL0     O83955   9.692   6.784   1.817  0.8459  1.4126 -0.1374
  637MOL0     C83956   9.702   6.878   1.720  0.3071  0.6303 -1.1878
  637MOL0     C83957   9.816   6.950   1.681 -0.2530  0.2511 -0.6242
  637MOL0     C83958   9.794   7.063   1.603  0.5444 -0.8869 -0.3393
  637MOL0     C83959   9.664   7.096   1.553 -1.3102  0.7015  0.5014
  637MOL0     O83960   9.651   7.210   1.473  0.0530 -0.2942  0.1484
  637MOL0     C83961   9.700   7.332   1.532  0.3030  0.8152 -0.2375
  637MOL0     C83962   9.666   7.461   1.462 -0.4752  0.4625 -0.6604
  637MOL0     C83963   9.522   7.465   1.419  0.5524 -0.2623  0.1146
  637MOL0     C83964   9.489   7.608   1.383  0.2370  2.1824  0.1178
  637MOL0     C83965   9.340   7.621   1.356 -0.2400  0.2146 -0.1727
  637MOL0     C83966   9.298   7.762   1.307  0.1787  1.2159 -0.0993
  637MOL0     C83967   9.171   7.749   1.224 -0.6824 -0.0703 -0.5901
  637MOL0     C83968   9.044   7.772   1.313  0.7273  0.7096  0.1042
  637MOL0     N83969   9.004   7.657   1.398 -0.6149  0.1556  0.1471
  637MOL0     C83970   8.970   7.657   1.530 -0.5719 -1.1067  1.3180
  637MOL0     C83971   8.945   7.533   1.569  0.0009  0.5633 -0.6567
  637MOL0     C83972   8.921   7.491   1.722 -0.3024 -0.1640  0.5322
  637MOL0     C83973   8.775   7.438   1.726  0.4774 -0.2896  0.9510
  637MOL0     C83974   8.683   7.558   1.730 -0.5269  0.1622  0.4555
  637MOL0     C83975   8.542   7.520   1.747 -0.3342 -1.0677 -0.5927
  637MOL0     O83976   8.498   7.424   1.655 -0.6625  0.2792 -0.2528
  637MOL0     C83977   8.451   7.472   1.536 -0.1002 -0.0460  1.4288
  637MOL0     C83978   8.320   7.496   1.524  0.1594 -0.6184  0.2539
  637MOL0     C83979   8.271   7.552   1.411 -0.7894 -0.7099  0.3620
  637MOL0     C83980   8.353   7.604   1.307 -0.0699  0.0544 -1.0660
  637MOL0     C83981   8.299   7.674   1.188 -0.4953  0.4499 -0.0182
  637MOL0     O83982   8.164   7.679   1.171 -0.8998 -0.0437 -1.0330
  637MOL0     C83983   8.117   7.785   1.096 -0.4224 -0.0087  0.2342
  637MOL0     C83984   8.037   7.889   1.159  0.3314  0.5996  0.5627
  637MOL0     C83985   7.977   7.993   1.086  0.8456 -0.1098 -0.2182
  637MOL0     C83986   7.996   7.999   0.945  0.4854  0.5969  0.4278
  637MOL0     O83987   7.937   8.081   0.857  0.2677 -1.1543  0.7836
  637MOL0     C83988   7.813   8.156   0.893  0.3620  0.2067 -0.7572
  637MOL0     C83989   7.779   8.265   0.787  1.1727 -0.8227  0.2252
  637MOL0     C83990   7.647   8.349   0.817 -0.6413 -0.1921  0.3489
  637MOL0     C83991   7.656   8.437   0.942  0.5789 -0.2647  0.7695
  637MOL0     C83992   7.542   8.542   0.943  0.0023  0.7580 -0.4078
  637MOL0     C83993   7.576   8.663   0.858 -1.2308  0.8637  0.9849
  637MOL0     C83994   7.445   8.756   0.863  0.0346 -0.0330 -0.3313
  637MOL0     C83995   7.500   8.893   0.823  0.3669  1.3597  1.0312
  637MOL0    Cl83996   7.576   8.960   0.967 -0.5583  0.5014  0.1872
  637MOL0     C83997   8.066   7.894   0.883  0.9194  0.3066 -0.6090
  637MOL0     C83998   8.125   7.779   0.952  0.8925 -0.9052  0.5451
  637MOL0     O83999   8.383   7.724   1.111 -0.4878 -0.4513 -0.5533
  637MOL0     C84000   8.486   7.569   1.311  0.4427  0.2389 -0.2738
  637MOL0     C84001   8.538   7.508   1.432 -0.0667  0.0404  0.2256
  637MOL0     N84002   8.965   7.452   1.463  0.4111  0.1355 -0.1210
  637MOL0     N84003   8.998   7.525   1.357 -0.5557 -0.3601  0.4623
  637MOL0     C84004   9.553   7.029   1.583 -0.1555 -0.3362  0.0777
  637MOL0     C84005   9.575   6.920   1.673 -0.6021  0.6296 -0.0662
  637MOL0     C84006   9.724   6.550   1.891  1.2427  0.3650 -0.6723
  637MOL0     C84007   9.628   6.558   1.987 -0.0929 -0.7293  0.2039
  637MOL0     C84008   9.616   6.457   2.092 -0.5179 -0.6491  0.2660
  637MOL0     C84009   9.706   6.354   2.107  0.0999 -0.8080 -0.5897
  637MOL0     O84010   9.702   6.279   2.218  0.0725 -0.0313  0.9078
  637MOL0     C84011   9.806   6.182   2.240  0.6318  0.0144 -0.1734
  637MOL0     C84012   9.756   6.051   2.323  0.1779  0.1763 -0.1119
  637MOL0     C84013   9.621   5.978   2.281 -0.3279 -0.8336 -0.9099
  637MOL0     C84014   9.576   5.872   2.385  0.4798  0.0715 -0.1254
  637MOL0     C84015   9.463   5.786   2.344 -0.1542 -0.6868 -0.3850
  637MOL0     C84016   9.362   5.726   2.304 -0.8699  1.2961 -0.1802
  637MOL0     C84017   9.806   6.355   2.006  0.1127 -0.2967 -0.6592
  637MOL0     C84018   9.809   6.445   1.906 -0.7815 -0.5351  0.0062
  637MOL0     H84019   9.918   6.923   1.709 -1.1516 -2.2326  0.5668
  637MOL0     H84020   9.881   7.124   1.582 -0.5540  2.1164  2.9007
  637MOL0     H84021   9.807   7.327   1.510  0.4449  2.1779  0.0383
  637MOL0     H84022   9.678   7.350   1.638 -0.3638 -1.4267  0.0653
  637MOL0     H84023   9.720   7.465   1.367  1.3505  1.7378  0.3667
  637MOL0     H84024   9.688   7.542   1.532  1.1264 -0.4306 -0.0619
  637MOL0     H84025   9.456   7.419   1.493  0.4091 -2.7168 -1.4242
  637MOL0     H84026   9.524   7.397   1.333  1.6380 -1.1338  0.8030
  637MOL0     H84027   9.507   7.673   1.469 -2.4713 -0.0762  2.6308
  637MOL0     H84028   9.540   7.633   1.289  0.7325 -1.4179 -0.7179
  637MOL0     H84029   9.293   7.617   1.454 -0.4237  1.2543 -0.2128
  637MOL0     H84030   9.297   7.541   1.295  0.8624 -0.6163  0.1045
  637MOL0     H84031   9.378   7.807   1.248  2.3609  0.0421  1.8004
  637MOL0     H84032   9.284   7.838   1.385 -2.0188  3.5828 -2.5617
  637MOL0     H84033   9.200   7.830   1.157  4.4643 -2.2033 -1.4111
  637MOL0     H84034   9.171   7.658   1.163  1.7065 -0.4913 -0.0750
  637MOL0     H84035   8.969   7.799   1.238  1.9930  1.8716 -0.7888
  637MOL0     H84036   9.050   7.865   1.369  1.9637  0.4670  0.4059
  637MOL0     H84037   8.976   7.738   1.602  0.1973  1.4034 -1.3652
  637MOL0     H84038   8.948   7.563   1.800  1.1657 -1.2632  1.0764
  637MOL0     H84039   8.985   7.404   1.739 -0.0415 -0.0645  0.0877
  637MOL0     H84040   8.763   7.370   1.811 -3.3628 -3.7765 -2.0117
  637MOL0     H84041   8.743   7.373   1.645  0.3568 -1.0306  1.5849
  637MOL0     H84042   8.723   7.634   1.797 -1.9823  3.1238 -1.7542
  637MOL0     H84043   8.690   7.617   1.638  0.9902 -1.2536 -0.3845
  637MOL0     H84044   8.491   7.617   1.747  2.1130  0.3976  1.7009
  637MOL0     H84045   8.533   7.470   1.844 -2.7590 -0.1161 -0.2547
  637MOL0     H84046   8.262   7.481   1.615  0.0778 -1.1793  0.1103
  637MOL0     H84047   8.164   7.549   1.396 -0.6540 -0.8747 -0.6264
  637MOL0     H84048   8.031   7.880   1.267  0.2452 -0.0356  0.5070
  637MOL0     H84049   7.926   8.075   1.137 -1.6436 -2.2851  1.0769
  637MOL0     H84050   7.833   8.194   0.994  1.1102  1.0708 -1.2143
  637MOL0     H84051   7.732   8.083   0.895  0.9694 -0.8399 -5.1853
  637MOL0     H84052   7.756   8.222   0.689 -1.8757 -0.5402  0.7262
  637MOL0     H84053   7.870   8.325   0.780  1.5960 -1.5698 -1.0082
  637MOL0     H84054   7.563   8.286   0.846 -1.3298  0.7026  0.3352
  637MOL0     H84055   7.635   8.414   0.730  0.3251 -0.0323  0.3260
  637MOL0     H84056   7.660   8.380   1.035 -0.4741 -0.7034  0.5599
  637MOL0     H84057   7.748   8.497   0.941 -1.6294  3.4994 -1.4126
  637MOL0     H84058   7.542   8.571   1.049  1.0917  1.2024 -0.5087
  637MOL0     H84059   7.454   8.484   0.917  1.0135 -0.1287 -2.0209
  637MOL0     H84060   7.581   8.644   0.750 -4.3704 -2.5227  1.2513
  637MOL0     H84061   7.663   8.718   0.896 -1.2924  3.0620 -1.7436
  637MOL0     H84062   7.364   8.717   0.800  0.2435  1.6078 -1.6898
  637MOL0     H84063   7.417   8.773   0.967  1.0778  1.8680 -0.3275
  637MOL0     H84064   7.425   8.966   0.795 -1.5063  0.4448  3.3217
  637MOL0     H84065   7.571   8.872   0.742 -0.7551 -0.9479  0.5607
  637MOL0     H84066   8.065   7.896   0.774  0.1016 -2.7714 -0.7515
  637MOL0     H84067   8.178   7.700   0.901  3.2388  1.1108 -0.3609
  637MOL0     H84068   8.558   7.606   1.238  0.3486  0.7464 -0.1141
  637MOL0     H84069   8.644   7.487   1.436  0.0625 -0.2850 -2.5186
  637MOL0     H84070   9.454   7.053   1.546 -0.2592  2.6395  1.9318
  637MOL0     H84071   9.495   6.854   1.706  0.5381 -0.7584  0.0092
  637MOL0     H84072   9.557   6.640   1.982 -0.5652 -0.8905  2.8387
  637MOL0     H84073   9.550   6.483   2.174 -1.5169  1.7828 -1.1901
  637MOL0     H84074   9.889   6.241   2.282 -0.6435  1.6115  0.2314
  637MOL0     H84075   9.841   6.144   2.143 -2.2321  0.7472 -1.6053
  637MOL0     H84076   9.836   5.976   2.318  1.4721  1.0516  3.8751
  637MOL0     H84077   9.741   6.088   2.425  2.8022 -3.9726  2.0431
  637MOL0     H84078   9.631   5.937   2.180 -0.4364  0.0250 -1.2841
  637MOL0     H84079   9.552   6.063   2.277 -0.7119 -1.0267  0.8474
  637MOL0     H84080   9.656   5.801   2.408  1.0625 -1.2025 -4.9142
  637MOL0     H84081   9.539   5.926   2.472 -0.1380 -1.2358  0.4379
  637MOL0     H84082   9.268   5.678   2.288 -0.2047 -0.0763 -0.1105
  637MOL0     H84083   9.895   6.293   2.009 -0.3217 -1.1763 -3.3232
  637MOL0     H84084   9.884   6.433   1.828  1.6320 -0.5273  2.1848
  638MOL0     O84085   9.175   4.581  11.055  0.8784 -0.1479  0.1554
  638MOL0     C84086   9.285   4.534  11.104  1.1603 -0.0142  0.6356
  638MOL0     O84087   9.302   4.415  11.162 -0.4028 -0.0148 -0.1940
  638MOL0     C84088   9.195   4.320  11.157 -1.1088  0.5369  0.1078
  638MOL0     C84089   9.064   4.349  11.195 -0.5697 -0.0145 -0.3795
  638MOL0     C84090   8.967   4.246  11.199  0.2088 -0.1969  0.1769
  638MOL0     C84091   9.002   4.116  11.167  1.0563 -0.9707 -0.0532
  638MOL0     O84092   8.890   4.042  11.157 -0.0027  1.0900 -0.0574
  638MOL0     C84093   8.894   3.896  11.194  0.3509 -0.8797  0.1286
  638MOL0     C84094   8.749   3.851  11.190 -0.6482  0.9267 -0.3202
  638MOL0     C84095   8.727   3.710  11.243  0.1844  0.1683  0.1191
  638MOL0     C84096   8.585   3.656  11.207 -0.6603 -0.2960  0.4617
  638MOL0     C84097   8.479   3.739  11.268 -0.5079  0.1622  0.6378
  638MOL0     C84098   8.335   3.683  11.245  0.4162  0.7600 -0.6799
  638MOL0     C84099   8.312   3.577  11.364 -1.8319 -0.2630 -0.1955
  638MOL0     C84100   8.172   3.536  11.364  0.5042  0.8567  0.7843
  638MOL0     N84101   8.148   3.425  11.461  0.5921 -0.7198  0.0885
  638MOL0     C84102   8.217   3.309  11.478 -0.9357  0.2485 -0.7726
  638MOL0     C84103   8.167   3.263  11.596  0.9213 -0.5911 -0.8635
  638MOL0     C84104   8.199   3.130  11.660  0.5815  0.2822 -0.3711
  638MOL0     C84105   8.079   3.030  11.656  0.6834  0.2288 -0.9900
  638MOL0     C84106   8.092   2.911  11.752 -0.0356 -0.9190 -0.6265
  638MOL0     C84107   7.972   2.810  11.752 -0.1488 -0.8220  0.0910
  638MOL0     O84108   8.008   2.673  11.780  0.4515 -0.0702  0.2500
  638MOL0     C84109   8.024   2.624  11.906 -0.1084 -0.4232  0.6000
  638MOL0     C84110   7.934   2.647  12.013 -0.5528  0.5917  0.4657
  638MOL0     C84111   7.928   2.568  12.125 -0.4262  1.4314 -0.6452
  638MOL0     C84112   8.023   2.460  12.132 -0.4159  0.7323 -0.1049
  638MOL0     C84113   8.041   2.367  12.259  0.6223 -0.5811 -0.4049
  638MOL0     O84114   8.008   2.413  12.381  0.8301 -0.4403  0.8325
  638MOL0     C84115   7.968   2.312  12.476 -0.9086 -0.3728  1.1344
  638MOL0     C84116   7.830   2.309  12.488  0.7024 -0.2421  0.8965
  638MOL0     C84117   7.779   2.211  12.573 -0.3173 -0.3798  0.1396
  638MOL0     C84118   7.868   2.122  12.645 -0.3362  0.2803  0.1449
  638MOL0     O84119   7.802   2.024  12.715 -0.4575 -0.0152 -0.4155
  638MOL0     C84120   7.875   1.899  12.751 -0.2848 -0.2858  0.4147
  638MOL0     C84121   7.774   1.811  12.826  1.7600  0.5327  0.1847
  638MOL0     C84122   7.734   1.850  12.970 -1.0115  0.3378  0.2646
  638MOL0     C84123   7.856   1.805  13.060 -0.0983 -0.7878  0.4177
  638MOL0     C84124   7.814   1.802  13.207 -0.0577  0.2632 -0.0087
  638MOL0     C84125   7.863   1.676  13.274  0.3828  0.3537 -0.2188
  638MOL0     C84126   7.751   1.577  13.292  0.1430  0.1401  0.1798
  638MOL0     C84127   7.672   1.529  13.163  0.3585 -0.1921  0.5553
  638MOL0    Cl84128   7.778   1.434  13.059  0.4631  0.4267 -0.0873
  638MOL0     C84129   8.004   2.129  12.624 -0.3146 -0.4319 -0.3204
  638MOL0     C84130   8.053   2.238  12.548 -0.1602 -0.3592  0.3105
  638MOL0     O84131   8.069   2.248  12.236 -0.3325 -0.1181 -0.6850
  638MOL0     C84132   8.112   2.438  12.028  0.6391 -0.0162  0.8241
  638MOL0     C84133   8.107   2.511  11.910  0.7321 -0.6780 -0.2920
  638MOL0     N84134   8.077   3.355  11.654 -0.4164  0.3646  0.1431
  638MOL0     N84135   8.072   3.455  11.574 -0.9159 -0.1117  0.3820
  638MOL0     C84136   9.127   4.076  11.145 -0.1578  0.0333  0.3091
  638MOL0     C84137   9.225   4.180  11.154 -0.3744  0.2862  0.8309
  638MOL0     C84138   9.391   4.642  11.093 -0.3166  0.5931  0.6838
  638MOL0     C84139   9.371   4.759  11.013  0.5899 -0.8039  0.4748
  638MOL0     C84140   9.474   4.856  10.989  0.3147 -0.7176 -0.0778
  638MOL0     C84141   9.597   4.840  11.051  0.2710  0.9918  0.2630
  638MOL0     O84142   9.696   4.929  11.036 -0.0468  0.0528 -0.0755
  638MOL0     C84143   9.825   4.877  11.015 -0.6030  0.1138  0.3314
  638MOL0     C84144   9.889   4.972  10.907 -0.8222  0.0414 -0.7718
  638MOL0     C84145   9.834   4.943  10.767 -0.1213  0.0996 -0.5419
  638MOL0     C84146   9.947   4.978  10.665 -0.1687 -0.1551 -0.3693
  638MOL0     C84147   9.967   5.123  10.658 -0.0848  0.9818  0.9112
  638MOL0     C84148   9.962   5.242  10.654  0.4471  0.1561 -0.3091
  638MOL0     C84149   9.612   4.733  11.142  0.5491  0.9758 -0.4960
  638MOL0     C84150   9.510   4.638  11.163 -0.0601 -0.8753  0.3244
  638MOL0     H84151   9.033   4.447  11.229 -0.5529 -0.1119 -0.0772
  638MOL0     H84152   8.868   4.269  11.238  0.3436 -1.0740  1.0944
  638MOL0     H84153   8.951   3.879  11.286 -1.1503  0.3379  1.3401
  638MOL0     H84154   8.947   3.844  11.114 -0.4144 -3.2881  1.0716
  638MOL0     H84155   8.718   3.857  11.085  0.3132 -0.7778 -0.7418
  638MOL0     H84156   8.696   3.932  11.241 -1.7834 -0.0611  0.1085
  638MOL0     H84157   8.738   3.708  11.352  4.3189 -0.6753 -0.1619
  638MOL0     H84158   8.804   3.647  11.197  2.5632  3.9149 -1.4956
  638MOL0     H84159   8.560   3.638  11.102 -0.4490 -0.1785  0.3878
  638MOL0     H84160   8.579   3.557  11.252  5.1906 -0.3899  1.8100
  638MOL0     H84161   8.467   3.838  11.223 -1.5702  0.0379  0.6340
  638MOL0     H84162   8.507   3.744  11.374  0.5637  0.2812  0.3614
  638MOL0     H84163   8.310   3.633  11.151  2.2153  0.7848 -1.2009
  638MOL0     H84164   8.266   3.766  11.265 -0.1867  0.1093 -0.0079
  638MOL0     H84165   8.383   3.494  11.359  0.4239  1.4596  1.2843
  638MOL0     H84166   8.333   3.639  11.452 -0.4115  0.1917 -0.8277
  638MOL0     H84167   8.154   3.487  11.268  1.4143  1.8332  0.0858
  638MOL0     H84168   8.109   3.624  11.381 -0.0713  0.5214  0.4440
  638MOL0     H84169   8.289   3.270  11.407  2.3661  1.5653  1.5411
  638MOL0     H84170   8.233   3.154  11.761  1.9109 -0.3620 -0.6403
  638MOL0     H84171   8.276   3.084  11.597 -0.2497  0.8327 -1.8472
  638MOL0     H84172   8.062   2.996  11.554 -0.3941  4.3912 -2.3798
  638MOL0     H84173   7.992   3.089  11.686  2.7823  1.6654  3.1186
  638MOL0     H84174   8.186   2.856  11.744  0.4754 -0.5170  1.9907
  638MOL0     H84175   8.097   2.946  11.855 -0.2367  0.4555 -1.0584
  638MOL0     H84176   7.934   2.813  11.650  1.1752  0.5422 -0.4182
  638MOL0     H84177   7.899   2.839  11.828 -0.3711 -2.7207  0.6494
  638MOL0     H84178   7.848   2.710  11.995 -1.9798 -1.6303 -1.0718
  638MOL0     H84179   7.867   2.593  12.211  0.4781  2.2115 -0.2043
  638MOL0     H84180   7.764   2.377  12.435 -0.5014 -2.7272 -1.0227
  638MOL0     H84181   7.671   2.207  12.583 -0.8642 -2.3238 -4.2219
  638MOL0     H84182   7.959   1.913  12.821 -2.5232 -2.3232  3.8266
  638MOL0     H84183   7.897   1.859  12.652  0.0277  0.5675  0.1240
  638MOL0     H84184   7.817   1.710  12.830 -1.7069 -1.1263  4.0773
  638MOL0     H84185   7.686   1.802  12.761  0.9890 -4.9670  1.4972
  638MOL0     H84186   7.646   1.792  12.998 -0.1696 -0.8850  0.4660
  638MOL0     H84187   7.712   1.956  12.990 -3.0428 -0.2282  1.2766
  638MOL0     H84188   7.885   1.702  13.036 -1.3538 -0.4907 -3.0265
  638MOL0     H84189   7.934   1.880  13.045 -1.6353  1.0140  1.0267
  638MOL0     H84190   7.704   1.801  13.204 -0.2855  3.4544 -4.5986
  638MOL0     H84191   7.850   1.896  13.249 -1.4431 -0.4185  2.9627
  638MOL0     H84192   7.903   1.703  13.372  0.5792  2.0645 -0.7297
  638MOL0     H84193   7.951   1.630  13.228 -0.4143  0.1293 -1.5783
  638MOL0     H84194   7.789   1.486  13.339 -3.0243 -2.4166 -1.7530
  638MOL0     H84195   7.671   1.612  13.358 -0.2528  0.4107 -0.4393
  638MOL0     H84196   7.648   1.616  13.101  1.5109  1.0326  1.7570
  638MOL0     H84197   7.581   1.475  13.189  1.1551 -2.0459 -0.3408
  638MOL0     H84198   8.070   2.057  12.671 -0.9489 -2.5518 -2.4727
  638MOL0     H84199   8.157   2.257  12.524  0.6642 -2.7776  1.5742
  638MOL0     H84200   8.178   2.352  12.032  2.0304  0.9391 -0.5386
  638MOL0     H84201   8.167   2.488  11.823  0.1390  0.0216 -0.9023
  638MOL0     H84202   9.144   3.973  11.113  1.7287 -0.2550  2.0468
  638MOL0     H84203   9.331   4.157  11.157 -0.0682  1.5637  0.3635
  638MOL0     H84204   9.276   4.774  10.963  1.6184 -3.2794 -2.5305
  638MOL0     H84205   9.446   4.947  10.936  3.3640 -0.1677 -0.9389
  638MOL0     H84206   9.846   4.771  10.997  1.9091  0.4249  1.0686
  638MOL0     H84207   9.879   4.900  11.107  0.5431  1.1873 -0.5630
  638MOL0     H84208   9.876   5.074  10.943  0.0515 -0.4106  0.9188
  638MOL0     H84209   9.996   4.953  10.907 -0.8918 -0.3746 -1.1872
  638MOL0     H84210   9.744   4.998  10.741 -0.2386  0.4564  0.5660
  638MOL0     H84211   9.822   4.836  10.745  2.8316 -0.0284 -2.1846
  638MOL0     H84212  10.045   4.937  10.692  0.8968  1.7365 -1.1315
  638MOL0     H84213   9.905   4.939  10.572 -2.0370  1.8176 -0.4106
  638MOL0     H84214   9.956   5.349  10.649 -1.6031  0.1962  1.4270
  638MOL0     H84215   9.701   4.723  11.202  0.7130 -0.3050 -0.9278
  638MOL0     H84216   9.526   4.555  11.231  0.5521 -1.8305 -0.9451
  639MOL0     O84217   3.464   3.052   0.970  0.7002  0.1729  0.4734
  639MOL0     C84218   3.543   3.053   0.870 -0.1389 -0.3493 -0.0207
  639MOL0     O84219   3.593   2.942   0.812  0.5167 -0.4904  0.1671
  639MOL0     C84220   3.580   2.821   0.869 -0.2247  0.4494  1.5751
  639MOL0     C84221   3.612   2.816   1.004  0.0851  0.3220  0.2444
  639MOL0     C84222   3.623   2.690   1.062 -0.1823 -0.9907 -0.3425
  639MOL0     C84223   3.614   2.575   0.980  1.1199 -0.4521 -0.3179
  639MOL0     O84224   3.626   2.444   1.017  0.8005 -0.2940 -0.3028
  639MOL0     C84225   3.667   2.417   1.155  0.9119 -0.4010 -0.1851
  639MOL0     C84226   3.555   2.399   1.254  0.7052 -0.2557  0.2885
  639MOL0     C84227   3.469   2.272   1.223 -0.8855  0.6645 -0.3979
  639MOL0     C84228   3.367   2.237   1.327 -0.2041  0.4372 -0.2936
  639MOL0     C84229   3.226   2.283   1.299 -0.2838 -0.9081 -0.7578
  639MOL0     C84230   3.213   2.424   1.247  0.3390 -0.6764  0.3808
  639MOL0     C84231   3.222   2.528   1.359  0.1214 -0.8727  1.1285
  639MOL0     C84232   3.208   2.673   1.298 -0.5062 -0.4616 -0.7031
  639MOL0     N84233   3.144   2.691   1.167 -0.5354 -0.2084  0.4803
  639MOL0     C84234   3.216   2.692   1.048 -0.6190  0.0003  0.3190
  639MOL0     C84235   3.112   2.681   0.956  0.1961 -0.9746 -0.0547
  639MOL0     C84236   3.127   2.662   0.814  1.3708 -0.0393  0.4195
  639MOL0     C84237   3.111   2.791   0.729 -0.4314 -0.7016 -1.4914
  639MOL0     C84238   3.220   2.885   0.780  0.1998 -0.1130 -0.0543
  639MOL0     C84239   3.228   3.013   0.701 -0.2379 -0.1839  0.8059
  639MOL0     O84240   3.279   2.974   0.565 -0.3451  0.2412  0.5767
  639MOL0     C84241   3.300   3.078   0.477 -0.6881  0.7027  0.5812
  639MOL0     C84242   3.304   3.037   0.348  0.5896 -0.6031 -0.3051
  639MOL0     C84243   3.327   3.123   0.240  1.0456 -1.4316 -0.2423
  639MOL0     C84244   3.364   3.260   0.262 -0.1681 -0.2172  0.9016
  639MOL0     C84245   3.402   3.346   0.145  0.0992  0.0519 -0.6089
  639MOL0     O84246   3.406   3.477   0.177  0.1182  0.4884 -0.2057
  639MOL0     C84247   3.449   3.562   0.087  0.6140  0.5870  0.4685
  639MOL0     C84248   3.365   3.668   0.041 -0.2482  0.3262  0.0475
  639MOL0     C84249   3.394   3.753  -0.057 -0.4312  1.0714  0.1601
  639MOL0     C84250   3.515   3.749  -0.124  0.3544  0.5301  0.7225
  639MOL0     O84251   3.544   3.839  -0.221  0.6107  0.4091  0.5987
  639MOL0     C84252   3.534   3.979  -0.189 -0.5410  0.9164  0.0496
  639MOL0     C84253   3.509   4.049  -0.327 -0.9747  0.1280  1.0571
  639MOL0     C84254   3.628   4.030  -0.426  0.2696  0.9941  0.3625
  639MOL0     C84255   3.747   4.104  -0.392 -0.1713 -0.2021  0.2352
  639MOL0     C84256   3.744   4.258  -0.427  0.5412 -0.4023  0.1582
  639MOL0     C84257   3.888   4.307  -0.410  1.0748  0.2285  0.8209
  639MOL0     C84258   3.919   4.452  -0.448 -0.6112  0.1098 -0.1839
  639MOL0     C84259   4.052   4.490  -0.399  1.0468  0.1422  0.1194
  639MOL0    Cl84260   4.047   4.508  -0.217 -0.5895  0.1876 -0.1451
  639MOL0     C84261   3.604   3.636  -0.093  0.4190 -0.0863  0.2622
  639MOL0     C84262   3.565   3.550   0.016 -0.0328 -0.1431 -0.2958
  639MOL0     O84263   3.409   3.295   0.033 -1.2036  0.1516 -0.0840
  639MOL0     C84264   3.356   3.306   0.398 -1.6346  0.5762  0.2105
  639MOL0     C84265   3.331   3.211   0.501 -0.7881  0.1487  0.9290
  639MOL0     N84266   2.991   2.672   1.018 -0.6894 -0.2257  0.3258
  639MOL0     N84267   3.012   2.677   1.142  0.8565  0.6673 -0.7450
  639MOL0     C84268   3.570   2.588   0.846  0.0946  0.3539  0.7844
  639MOL0     C84269   3.552   2.715   0.792 -0.1402  0.8314  0.5446
  639MOL0     C84270   3.578   3.195   0.825 -0.3507 -0.6857 -0.7601
  639MOL0     C84271   3.664   3.209   0.722 -0.7717  0.7321 -0.1013
  639MOL0     C84272   3.710   3.329   0.692  0.4029 -0.1939 -0.3888
  639MOL0     C84273   3.666   3.455   0.748 -0.8018 -0.8195  0.1369
  639MOL0     O84274   3.702   3.590   0.720  0.4565  0.6908  0.2114
  639MOL0     C84275   3.798   3.613   0.619  0.4064  0.1308 -0.5127
  639MOL0     C84276   3.808   3.768   0.604 -0.3034 -0.4067 -0.2783
  639MOL0     C84277   3.686   3.851   0.569  0.4770  0.1502  0.7012
  639MOL0     C84278   3.589   3.780   0.478  0.5176 -0.2842 -0.1013
  639MOL0     C84279   3.661   3.753   0.348 -0.2414  0.4757 -0.3824
  639MOL0     C84280   3.717   3.744   0.244  0.7600 -0.6623 -1.0654
  639MOL0     C84281   3.566   3.441   0.849 -1.2358 -0.5268 -0.3057
  639MOL0     C84282   3.530   3.312   0.885  1.4240  0.8701 -0.1970
  639MOL0     H84283   3.648   2.907   1.052  0.5322 -0.0111  0.5532
  639MOL0     H84284   3.650   2.688   1.167  3.3878 -0.6911 -1.1360
  639MOL0     H84285   3.740   2.487   1.197 -2.4952  0.8111  4.5807
  639MOL0     H84286   3.725   2.324   1.153  1.3125 -0.1471 -0.5843
  639MOL0     H84287   3.487   2.484   1.248 -0.5906 -1.2282  0.9360
  639MOL0     H84288   3.608   2.390   1.349  0.2344  0.7323  0.6496
  639MOL0     H84289   3.542   2.191   1.224 -2.2941 -0.6522  0.2493
  639MOL0     H84290   3.436   2.266   1.118  2.6313 -3.2190 -1.5625
  639MOL0     H84291   3.357   2.130   1.345 -0.1576  0.7692  1.9800
  639MOL0     H84292   3.396   2.292   1.417  3.0273  4.1803 -3.2909
  639MOL0     H84293   3.182   2.290   1.399  0.9882  2.9860 -0.3092
  639MOL0     H84294   3.163   2.214   1.241 -2.1473 -0.2194  0.3627
  639MOL0     H84295   3.107   2.427   1.220 -0.5463  1.5389  3.5122
  639MOL0     H84296   3.262   2.449   1.153 -0.4800  0.6108  0.2764
  639MOL0     H84297   3.147   2.517   1.437 -0.5153 -3.2667  0.2670
  639MOL0     H84298   3.315   2.508   1.413  0.7556 -0.3102  0.2688
  639MOL0     H84299   3.311   2.710   1.301  0.2169 -2.4371  1.4201
  639MOL0     H84300   3.153   2.730   1.374 -1.2734  2.4511 -3.2128
  639MOL0     H84301   3.324   2.691   1.039 -0.7257  0.5578 -1.4883
  639MOL0     H84302   3.063   2.582   0.775  1.4892  0.3585 -0.6310
  639MOL0     H84303   3.226   2.615   0.806  1.8925  0.4922  2.8840
  639MOL0     H84304   3.012   2.828   0.758 -0.2929 -1.9721  0.8245
  639MOL0     H84305   3.116   2.761   0.624 -1.5364 -2.8963 -0.9685
  639MOL0     H84306   3.195   2.906   0.885 -0.8302  0.9666 -0.4927
  639MOL0     H84307   3.325   2.854   0.778  0.4155  0.3404  2.0008
  639MOL0     H84308   3.301   3.076   0.752  2.5335 -3.5278  1.3232
  639MOL0     H84309   3.132   3.066   0.706 -0.7755 -1.2240  2.0192
  639MOL0     H84310   3.291   2.932   0.321  3.0992 -0.3907 -2.7664
  639MOL0     H84311   3.323   3.088   0.137  2.3178  1.2022 -1.2875
  639MOL0     H84312   3.268   3.666   0.088 -0.9474 -2.0140 -1.2857
  639MOL0     H84313   3.333   3.842  -0.069 -1.8840 -0.0506 -1.1389
  639MOL0     H84314   3.634   4.005  -0.155 -0.7191  1.3643  0.2403
  639MOL0     H84315   3.456   4.001  -0.116  0.1704 -0.1069  1.1558
  639MOL0     H84316   3.511   4.156  -0.305  0.0310 -0.0784  2.0583
  639MOL0     H84317   3.417   4.017  -0.377  0.8999  3.5163 -5.6763
  639MOL0     H84318   3.589   4.051  -0.526  0.5699 -0.1971 -0.0208
  639MOL0     H84319   3.669   3.928  -0.431  1.9435  1.6782 -0.8713
  639MOL0     H84320   3.760   4.099  -0.284 -1.7886 -1.2352  0.4192
  639MOL0     H84321   3.836   4.056  -0.434  0.5347  1.7968 -0.6756
  639MOL0     H84322   3.674   4.321  -0.372 -1.1541 -0.2009 -2.0727
  639MOL0     H84323   3.725   4.277  -0.533  1.9042  1.9316  0.2772
  639MOL0     H84324   3.952   4.235  -0.461 -0.9526 -0.0797 -1.4765
  639MOL0     H84325   3.901   4.303  -0.302  3.1775 -1.8989  0.5696
  639MOL0     H84326   3.900   4.459  -0.556 -0.3197  2.7198 -0.1330
  639MOL0     H84327   3.842   4.519  -0.409  0.7132  1.8393 -0.4522
  639MOL0     H84328   4.079   4.578  -0.459  1.6754 -1.4041 -1.9829
  639MOL0     H84329   4.131   4.416  -0.419  3.6001  1.7656  3.3180
  639MOL0     H84330   3.680   3.607  -0.165 -0.1153 -1.6321  0.2776
  639MOL0     H84331   3.616   3.459   0.046 -1.7262 -0.7946  0.6755
  639MOL0     H84332   3.366   3.411   0.424  0.2024  0.0090  1.9880
  639MOL0     H84333   3.344   3.255   0.600 -2.1669  2.3808  0.1768
  639MOL0     H84334   3.562   2.496   0.789  0.7397  1.7134 -1.6616
  639MOL0     H84335   3.533   2.737   0.688 -3.2484  1.7271  1.1826
  639MOL0     H84336   3.708   3.129   0.664  2.0975  3.7608 -2.5087
  639MOL0     H84337   3.784   3.348   0.615  1.3101  1.9395  0.9060
  639MOL0     H84338   3.772   3.569   0.522 -0.0031 -0.6205 -0.0743
  639MOL0     H84339   3.892   3.568   0.650  0.9972  1.7182  0.0933
  639MOL0     H84340   3.832   3.816   0.700 -0.6754 -1.8669  0.5844
  639MOL0     H84341   3.885   3.789   0.529 -0.2678 -0.6190 -0.3029
  639MOL0     H84342   3.728   3.938   0.516  3.5106 -1.7991 -0.3636
  639MOL0     H84343   3.635   3.893   0.656  1.4728  1.7523  0.5585
  639MOL0     H84344   3.553   3.687   0.522 -0.4436 -1.3062 -2.8381
  639MOL0     H84345   3.498   3.841   0.466  1.1561  1.2506  2.1673
  639MOL0     H84346   3.781   3.743   0.158  0.4296  0.9870 -1.3702
  639MOL0     H84347   3.536   3.527   0.908  0.6928 -1.2120  1.8460
  639MOL0     H84348   3.453   3.302   0.961 -0.3209  0.6645 -1.9231
  640MOL0     O84349  10.780  10.788   8.753 -0.4214 -0.1736  0.7903
  640MOL0     C84350  10.684  10.811   8.819  0.2819  0.3902  0.5097
  640MOL0     O84351  10.555  10.777   8.787 -0.7326 -0.1061 -0.1477
  640MOL0     C84352  10.519  10.689   8.683  0.4300 -0.6703 -0.5016
  640MOL0     C84353  10.381  10.697   8.659  0.0207  0.1256 -0.5913
  640MOL0     C84354  10.327  10.607   8.567 -0.2728  0.0974 -0.3085
  640MOL0     C84355  10.403  10.537   8.476  0.1889  0.1649 -0.7223
  640MOL0     O84356  10.348  10.457   8.375 -0.2550 -0.1577  0.3993
  640MOL0     C84357  10.362  10.316   8.380  0.3599  0.0759 -0.3920
  640MOL0     C84358  10.221  10.245   8.381 -0.6342  0.3064  0.5672
  640MOL0     C84359  10.171  10.226   8.521 -0.1796 -0.6705 -0.0715
  640MOL0     C84360  10.027  10.169   8.523 -0.0098  0.9585  0.4750
  640MOL0     C84361   9.949  10.174   8.656 -0.5112 -0.1458  0.2140
  640MOL0     C84362  10.006  10.084   8.769  0.1642 -0.1451 -1.0125
  640MOL0     C84363  10.119  10.137   8.852  0.3559  0.2110  0.0015
  640MOL0     C84364  10.149  10.062   8.984 -0.6097 -0.5554 -0.2590
  640MOL0     N84365  10.182   9.922   8.971 -0.6253  0.0176 -0.4103
  640MOL0     C84366  10.301   9.859   8.942  0.9850 -0.2878  0.1365
  640MOL0     C84367  10.273   9.723   8.943 -0.5099 -0.7919  0.2078
  640MOL0     C84368  10.382   9.622   8.918  0.4520 -0.2295 -0.4308
  640MOL0     C84369  10.343   9.472   8.931  0.2048 -0.2376  0.0176
  640MOL0     C84370  10.222   9.424   8.853 -0.0317  0.5271  1.3252
  640MOL0     C84371  10.199   9.281   8.862 -0.6962 -0.1891 -0.0957
  640MOL0     O84372  10.317   9.212   8.808 -0.2598  0.3802 -0.2990
  640MOL0     C84373  10.316   9.111   8.714  0.1772  0.0125  0.2279
  640MOL0     C84374  10.212   9.081   8.619  0.7961 -0.2697  0.6574
  640MOL0     C84375  10.231   8.979   8.516  0.2631  0.2666  0.3865
  640MOL0     C84376  10.350   8.911   8.513  0.4850  0.4603 -0.3157
  640MOL0     C84377  10.349   8.789   8.423 -0.2290  0.2410 -0.6261
  640MOL0     O84378  10.241   8.747   8.370  0.1232  0.0582 -0.2715
  640MOL0     C84379  10.222   8.641   8.286  0.6332 -0.8961  0.1632
  640MOL0     C84380  10.099   8.657   8.211  1.2472  0.5694  0.5985
  640MOL0     C84381  10.060   8.553   8.122 -0.1460  0.5202  0.4205
  640MOL0     C84382  10.137   8.434   8.101 -0.5117  0.1968  0.1008
  640MOL0     O84383  10.102   8.329   8.020  0.3440  1.0398  0.6471
  640MOL0     C84384   9.979   8.307   7.964  0.3619  0.8981  0.6077
  640MOL0     C84385   9.996   8.187   7.869 -0.2377 -1.0564 -0.3173
  640MOL0     C84386   9.882   8.168   7.768 -0.7700 -0.3195  0.0297
  640MOL0     C84387   9.918   8.044   7.674  0.9734  0.8703 -0.4663
  640MOL0     C84388   9.811   8.035   7.569 -0.2877  0.2274  0.8722
  640MOL0     C84389   9.846   7.916   7.470  1.0250 -0.8152  1.1002
  640MOL0     C84390   9.727   7.890   7.371  0.2746 -0.5731 -0.2741
  640MOL0     C84391   9.777   7.823   7.250  0.3888 -1.1436 -0.1270
  640MOL0    Cl84392   9.840   7.941   7.130 -0.6042  0.0569  0.0280
  640MOL0     C84393  10.259   8.431   8.171  0.2298 -0.0266  0.2165
  640MOL0     C84394  10.301   8.532   8.260 -0.3214  0.5536  0.1019
  640MOL0     O84395  10.461   8.737   8.413 -0.3476  0.0423  0.2326
  640MOL0     C84396  10.448   8.944   8.615  0.2133 -0.2602 -0.2325
  640MOL0     C84397  10.439   9.041   8.709  0.1000 -0.2995  0.2863
  640MOL0     N84398  10.134   9.713   8.952 -0.5812 -0.4459 -0.1662
  640MOL0     N84399  10.082   9.833   8.975  0.0873  0.2843 -0.1063
  640MOL0     C84400  10.538  10.536   8.500  0.4542 -0.6701  0.0018
  640MOL0     C84401  10.601  10.604   8.606 -0.4734  0.4971  0.4519
  640MOL0     C84402  10.708  10.878   8.955  0.2879 -0.4701  0.3228
  640MOL0     C84403  10.827  10.949   8.993 -1.0478  0.0762 -0.0189
  640MOL0     C84404  10.841  11.020   9.111  0.3096 -0.1022  0.1060
  640MOL0     C84405  10.729  11.038   9.195  0.1283 -1.2610  1.3013
  640MOL0     O84406  10.732  11.125   9.304  0.0967  0.0588 -0.0997
  640MOL0     C84407  10.855  11.188   9.336 -0.4984 -0.9134  0.4318
  640MOL0     C84408  10.847  11.292   9.439  0.4121 -0.4390  0.8182
  640MOL0     C84409  10.767  11.231   9.562 -1.2513 -0.3753 -0.6109
  640MOL0     C84410  10.745  11.352   9.668  0.5219  0.7853 -0.1170
  640MOL0     C84411  10.870  11.403   9.719  0.5554  0.3980  0.0153
  640MOL0     C84412  10.974  11.435   9.773 -0.3885  0.5646  0.4748
  640MOL0     C84413  10.602  10.983   9.156 -1.3448  0.0339 -0.4332
  640MOL0     C84414  10.602  10.890   9.044 -0.0816 -0.8124  0.1071
  640MOL0     H84415  10.323  10.759   8.727 -4.2761 -0.3688 -3.4055
  640MOL0     H84416  10.219  10.594   8.568 -0.0536 -2.0721 -0.0098
  640MOL0     H84417  10.433  10.297   8.461 -0.3236  1.0447  0.4563
  640MOL0     H84418  10.409  10.279   8.288  1.4276 -0.5256  0.3764
  640MOL0     H84419  10.242  10.147   8.336  1.3501  1.5488 -1.4218
  640MOL0     H84420  10.155  10.298   8.313 -1.3681  1.1071  1.8675
  640MOL0     H84421  10.164  10.327   8.561  3.9549  0.3149 -1.3821
  640MOL0     H84422  10.237  10.164   8.582 -1.8044  0.4441  3.0055
  640MOL0     H84423   9.959  10.211   8.449 -0.6777 -0.7939  0.0352
  640MOL0     H84424  10.016  10.068   8.483  1.7933  1.8812 -2.7093
  640MOL0     H84425   9.844  10.154   8.631  0.1793  0.9900 -4.7308
  640MOL0     H84426   9.948  10.281   8.676 -2.9284  0.3938 -2.1227
  640MOL0     H84427  10.029   9.981   8.738 -2.0712 -0.5254 -1.5538
  640MOL0     H84428   9.921  10.061   8.833 -0.3128 -1.7635 -2.1506
  640MOL0     H84429  10.215  10.130   8.799  1.6212  5.6507  1.0409
  640MOL0     H84430  10.101  10.243   8.871  0.8888  0.4798 -0.8967
  640MOL0     H84431  10.063  10.070   9.051 -0.3684  2.2873 -0.1898
  640MOL0     H84432  10.238  10.119   9.010  1.1199 -2.6242 -1.3598
  640MOL0     H84433  10.394   9.914   8.930  0.8276 -0.6692 -3.9647
  640MOL0     H84434  10.464   9.641   8.988  0.6613  1.6079 -1.1445
  640MOL0     H84435  10.422   9.642   8.818 -1.8799  1.1943 -1.1507
  640MOL0     H84436  10.319   9.473   9.038 -3.8271  1.0100 -0.7143
  640MOL0     H84437  10.428   9.404   8.921 -0.5303 -1.1851  0.0196
  640MOL0     H84438  10.124   9.460   8.886 -0.2876  0.3171  0.8005
  640MOL0     H84439  10.227   9.455   8.749 -0.0051  1.4240  1.5847
  640MOL0     H84440  10.113   9.263   8.797  1.2690 -2.5928 -2.2797
  640MOL0     H84441  10.167   9.248   8.961  0.8847  3.0300  1.6576
  640MOL0     H84442  10.122   9.140   8.627  0.0898 -1.0327 -1.1276
  640MOL0     H84443  10.156   8.957   8.442  1.0780 -1.9785  0.1492
  640MOL0     H84444  10.034   8.743   8.223 -2.5588 -1.9139 -0.3427
  640MOL0     H84445   9.976   8.572   8.056 -0.0567  1.2836  0.5210
  640MOL0     H84446   9.947   8.393   7.905  0.6510  1.1802  0.8632
  640MOL0     H84447   9.898   8.283   8.033 -0.0079 -0.9366 -0.3788
  640MOL0     H84448   9.980   8.099   7.933 -2.3474 -1.5620 -1.4312
  640MOL0     H84449  10.091   8.191   7.815  1.0018 -0.2219  1.8014
  640MOL0     H84450   9.879   8.263   7.715  1.6937  1.2254  2.3705
  640MOL0     H84451   9.786   8.154   7.818 -0.9713  3.7596  1.1790
  640MOL0     H84452  10.015   8.031   7.627 -0.2662 -2.0309 -2.5608
  640MOL0     H84453   9.924   7.951   7.732  1.4629 -0.1149 -2.0631
  640MOL0     H84454   9.800   8.126   7.510 -0.1000 -0.8449 -0.8987
  640MOL0     H84455   9.719   8.031   7.629  0.3451  2.7039  2.1433
  640MOL0     H84456   9.857   7.826   7.533 -0.5764 -1.3683  0.6313
  640MOL0     H84457   9.936   7.933   7.410  0.1323 -1.5157 -0.5147
  640MOL0     H84458   9.651   7.835   7.429  2.3071 -0.1574  3.0841
  640MOL0     H84459   9.671   7.984   7.358 -0.1235 -0.5845  1.1667
  640MOL0     H84460   9.686   7.779   7.210  0.0227 -0.6777  0.1815
  640MOL0     H84461   9.848   7.743   7.272  1.6375 -0.2638 -0.8105
  640MOL0     H84462  10.322   8.346   8.147 -0.0135 -0.1944  0.1651
  640MOL0     H84463  10.390   8.516   8.320 -0.3507  0.5975  0.1564
  640MOL0     H84464  10.543   8.891   8.610  0.4993  0.3329 -1.8729
  640MOL0     H84465  10.513   9.077   8.780 -1.0440  0.7482  0.9956
  640MOL0     H84466  10.588  10.463   8.436 -1.6318 -2.0234 -0.1606
  640MOL0     H84467  10.709  10.600   8.614  0.1057  6.7085  0.9401
  640MOL0     H84468  10.903  10.955   8.915 -1.2907  0.8295 -0.2083
  640MOL0     H84469  10.939  11.067   9.120 -0.0051  0.0342  4.3302
  640MOL0     H84470  10.899  11.227   9.243  1.9161  1.3173  2.3366
  640MOL0     H84471  10.932  11.119   9.372  1.9214  2.3463  2.1082
  640MOL0     H84472  10.948  11.316   9.472  1.6508 -1.4597 -1.9457
  640MOL0     H84473  10.797  11.385   9.408  1.4271  0.4278  1.7041
  640MOL0     H84474  10.825  11.152   9.610  0.6331  1.1350 -0.2886
  640MOL0     H84475  10.669  11.197   9.525 -3.4830  1.3656  3.1678
  640MOL0     H84476  10.678  11.425   9.622  0.3297 -0.2719 -1.6104
  640MOL0     H84477  10.683  11.315   9.750  0.0031 -0.4647 -1.0256
  640MOL0     H84478  11.070  11.466   9.809 -0.1210 -0.2658  0.5009
  640MOL0     H84479  10.521  10.999   9.226  0.4081  1.7776  1.3342
  640MOL0     H84480  10.502  10.849   9.030 -0.6205  0.5430 -0.1289
  641MOL0     O84481   8.543  10.175  10.510  0.8865  0.1109 -0.1079
  641MOL0     C84482   8.523  10.292  10.551 -0.7849  0.5234  0.4984
  641MOL0     O84483   8.543  10.337  10.686 -0.2259 -0.4750  0.6895
  641MOL0     C84484   8.567  10.239  10.784  0.3435  0.7371 -0.6040
  641MOL0     C84485   8.494  10.116  10.801  0.3196  0.0996  0.0617
  641MOL0     C84486   8.533  10.024  10.901  0.2860 -0.4829  0.0133
  641MOL0     C84487   8.626  10.067  10.989 -0.2636 -0.3019 -0.8744
  641MOL0     O84488   8.671   9.983  11.094  0.7048 -0.3946  0.1744
  641MOL0     C84489   8.653   9.834  11.080  0.3238 -0.2440  0.7131
  641MOL0     C84490   8.536   9.773  11.164 -1.0396 -0.2454 -0.8495
  641MOL0     C84491   8.522   9.628  11.127  0.6296 -0.0848 -0.3472
  641MOL0     C84492   8.476   9.608  10.980  0.2699  0.2699  0.3176
  641MOL0     C84493   8.443   9.467  10.941  0.3329 -0.8800 -0.0029
  641MOL0     C84494   8.300   9.435  10.976  0.1939 -0.0732  1.1971
  641MOL0     C84495   8.265   9.283  10.974 -0.1376  0.1155  1.6355
  641MOL0     C84496   8.289   9.211  10.849 -0.1792  0.1675  0.5379
  641MOL0     N84497   8.249   9.061  10.866 -0.0149 -0.4702 -0.1557
  641MOL0     C84498   8.137   9.013  10.936  0.4655  0.0293  0.6484
  641MOL0     C84499   8.121   8.880  10.909 -1.2172  0.2753  0.2730
  641MOL0     C84500   8.031   8.781  10.973 -0.6267 -0.6492  0.6463
  641MOL0     C84501   7.886   8.834  10.958  0.6222  0.5611 -0.3249
  641MOL0     C84502   7.817   8.829  10.817  0.2852  0.6637 -0.3826
  641MOL0     C84503   7.836   8.704  10.732  0.3111  1.2663 -0.4878
  641MOL0     O84504   7.834   8.748  10.597  0.9908  0.3262  0.4585
  641MOL0     C84505   7.870   8.668  10.497 -1.0266  1.0400 -0.7634
  641MOL0     C84506   7.916   8.539  10.519  0.8165 -0.2394 -0.6922
  641MOL0     C84507   7.973   8.473  10.415  0.2401  0.4471  0.3817
  641MOL0     C84508   7.975   8.525  10.282  0.3990 -0.2433  0.4621
  641MOL0     C84509   8.028   8.442  10.170  0.2815 -0.3691 -0.1471
  641MOL0     O84510   8.120   8.351  10.219  0.4917  0.0613  0.1857
  641MOL0     C84511   8.167   8.236  10.148  0.4623 -0.4685 -0.2523
  641MOL0     C84512   8.151   8.201  10.018 -0.3614  0.4786 -0.4705
  641MOL0     C84513   8.214   8.081   9.987 -0.2527 -0.0069  1.3191
  641MOL0     C84514   8.303   8.020  10.069 -0.3613  0.3921 -0.5718
  641MOL0     O84515   8.360   7.904  10.028 -0.0224  0.9479 -0.2448
  641MOL0     C84516   8.494   7.941   9.989  0.1401  0.5130 -0.2735
  641MOL0     C84517   8.578   7.820   9.931 -0.6670  0.2377 -0.2617
  641MOL0     C84518   8.503   7.711   9.843  0.0607 -0.2780 -0.9394
  641MOL0     C84519   8.594   7.618   9.768 -0.1646 -0.1056  0.1884
  641MOL0     C84520   8.523   7.539   9.655 -0.0052  0.4418 -0.6212
  641MOL0     C84521   8.624   7.431   9.604 -0.0595 -0.7449  0.4320
  641MOL0     C84522   8.565   7.358   9.484  0.8750 -0.1608 -0.2468
  641MOL0     C84523   8.532   7.441   9.358 -0.0379 -0.6510 -0.1222
  641MOL0    Cl84524   8.669   7.540   9.298 -0.1965  0.3867 -0.0808
  641MOL0     C84525   8.321   8.052  10.195 -0.5654  0.0820  0.3597
  641MOL0     C84526   8.250   8.166  10.238 -0.2748  0.3061  0.1243
  641MOL0     O84527   7.990   8.460  10.053 -0.6334 -0.2186  0.4407
  641MOL0     C84528   7.928   8.655  10.259 -0.3634 -1.2187 -0.4338
  641MOL0     C84529   7.889   8.727  10.368 -0.2078 -0.5670  0.4488
  641MOL0     N84530   8.214   8.847  10.815  0.1664  0.3582  1.0605
  641MOL0     N84531   8.295   8.953  10.792  0.0310  0.2196  0.1597
  641MOL0     C84532   8.696  10.196  10.974 -0.3350  0.8955 -0.7346
  641MOL0     C84533   8.668  10.280  10.869  0.3601  0.0568 -0.5246
  641MOL0     C84534   8.481  10.397  10.462  0.2644 -0.0273 -0.0356
  641MOL0     C84535   8.422  10.377  10.338 -0.2991 -0.4735 -0.8629
  641MOL0     C84536   8.383  10.479  10.251  0.7137 -0.0300  0.6703
  641MOL0     C84537   8.396  10.613  10.281  0.1727  1.0777 -0.0262
  641MOL0     O84538   8.372  10.718  10.200  0.3206 -0.2727 -0.0398
  641MOL0     C84539   8.235  10.759  10.181  0.3549 -0.0399  0.0116
  641MOL0     C84540   8.214  10.890  10.099  0.7716  0.0557 -0.0124
  641MOL0     C84541   8.254  10.895   9.954  0.4728  0.9004 -0.3628
  641MOL0     C84542   8.156  10.804   9.858  0.8094 -0.0149  0.0462
  641MOL0     C84543   8.181  10.658   9.871  0.1491  0.7745 -0.7397
  641MOL0     C84544   8.219  10.540   9.877  1.0228 -0.6489  0.5819
  641MOL0     C84545   8.426  10.634  10.418 -0.5542  0.2089  0.3768
  641MOL0     C84546   8.468  10.530  10.512 -0.0840  0.1120 -0.7762
  641MOL0     H84547   8.414  10.094  10.731  0.1914 -1.6856  0.7351
  641MOL0     H84548   8.488   9.926  10.891 -3.2257  1.0734 -1.2442
  641MOL0     H84549   8.754   9.795  11.098  0.4484 -1.0538 -1.5126
  641MOL0     H84550   8.637   9.808  10.975  1.9726 -0.7539  0.5531
  641MOL0     H84551   8.448   9.834  11.139  2.3556  5.7069 -0.1426
  641MOL0     H84552   8.554   9.788  11.271 -2.5397  1.4057 -0.7693
  641MOL0     H84553   8.453   9.588  11.203  1.1240 -2.4887 -1.0759
  641MOL0     H84554   8.611   9.566  11.145 -0.5089 -0.8521  3.7817
  641MOL0     H84555   8.397   9.675  10.944  0.3045  0.5270  0.7150
  641MOL0     H84556   8.561   9.634  10.916 -0.1861  0.6442 -0.1467
  641MOL0     H84557   8.523   9.414  10.993 -0.5504 -0.6299  1.6744
  641MOL0     H84558   8.462   9.470  10.833  1.9968  4.3555  0.1311
  641MOL0     H84559   8.244   9.493  10.902 -1.2604 -1.7894  0.8900
  641MOL0     H84560   8.277   9.470  11.077 -1.7774  1.2890  0.3351
  641MOL0     H84561   8.321   9.230  11.052 -1.1542 -4.3603 -0.3497
  641MOL0     H84562   8.158   9.275  10.993 -0.3155 -0.4110  0.4651
  641MOL0     H84563   8.397   9.205  10.832  0.4672 -0.7601  4.1602
  641MOL0     H84564   8.232   9.244  10.761  2.2377 -4.6353 -3.3842
  641MOL0     H84565   8.071   9.069  11.001 -2.3019  5.1709 -5.4306
  641MOL0     H84566   8.048   8.786  11.081  1.2070 -0.2340  0.3846
  641MOL0     H84567   8.035   8.684  10.923  0.0445  0.1800 -0.9954
  641MOL0     H84568   7.871   8.933  11.001 -4.1782  0.1146 -0.4812
  641MOL0     H84569   7.827   8.767  11.021  0.6825  2.5396  1.9556
  641MOL0     H84570   7.709   8.846  10.828  0.1997 -0.5635  0.9070
  641MOL0     H84571   7.847   8.906  10.746 -0.8258  0.8604 -0.6649
  641MOL0     H84572   7.767   8.621  10.754  1.9195  0.2577  1.0693
  641MOL0     H84573   7.935   8.663  10.752  1.3034  3.9923  0.7215
  641MOL0     H84574   7.905   8.484  10.611  1.4901  0.8560  0.0736
  641MOL0     H84575   8.011   8.371  10.417 -0.2768  0.1843 -1.2050
  641MOL0     H84576   8.090   8.269   9.959  0.5512  1.4873 -0.2876
  641MOL0     H84577   8.201   8.033   9.891 -0.2729 -1.7750  2.1786
  641MOL0     H84578   8.548   7.989  10.071 -1.1220  1.2063  0.1793
  641MOL0     H84579   8.476   8.010   9.907  0.8903  1.4724  0.3494
  641MOL0     H84580   8.634   7.774  10.013 -0.5704  1.3300  0.3056
  641MOL0     H84581   8.650   7.864   9.861 -1.3308  1.5528 -0.1296
  641MOL0     H84582   8.444   7.773   9.775  4.5031  2.1411 -3.0152
  641MOL0     H84583   8.429   7.652   9.899  1.7278 -0.4994  1.1234
  641MOL0     H84584   8.682   7.676   9.740 -2.3180  2.0427 -2.8411
  641MOL0     H84585   8.632   7.544   9.839  1.6785  0.3767 -0.2390
  641MOL0     H84586   8.473   7.602   9.581 -1.7629  1.4219  1.3038
  641MOL0     H84587   8.446   7.487   9.712 -0.7992  0.5924 -1.5228
  641MOL0     H84588   8.653   7.372   9.691 -1.4545 -1.0595  0.7091
  641MOL0     H84589   8.713   7.483   9.569  0.4846 -2.3301 -0.6187
  641MOL0     H84590   8.627   7.273   9.454 -0.8733 -2.1283  1.3928
  641MOL0     H84591   8.469   7.310   9.505 -0.1720  1.6868 -0.6433
  641MOL0     H84592   8.451   7.513   9.372 -1.7507 -2.0936 -2.0969
  641MOL0     H84593   8.483   7.380   9.282 -0.2389  1.8373 -2.1626
  641MOL0     H84594   8.378   7.987  10.259 -0.4376 -2.1847 -1.9078
  641MOL0     H84595   8.265   8.197  10.341  1.2425  0.1556 -0.0292
  641MOL0     H84596   7.928   8.704  10.161 -2.2085 -0.1178  0.0786
  641MOL0     H84597   7.860   8.831  10.357  0.3640 -0.4069  0.4534
  641MOL0     H84598   8.776  10.212  11.045 -1.5701  0.5765  0.8020
  641MOL0     H84599   8.709  10.380  10.857 -0.1103  0.4635  0.9770
  641MOL0     H84600   8.427  10.275  10.300  0.8076 -1.2819  1.3053
  641MOL0     H84601   8.365  10.447  10.149 -3.6737  0.8104  0.9977
  641MOL0     H84602   8.188  10.777  10.278  0.7058  2.3016 -0.1730
  641MOL0     H84603   8.182  10.680  10.127  1.7224 -3.1954  2.9473
  641MOL0     H84604   8.110  10.922  10.112  1.7501  2.4332  3.0179
  641MOL0     H84605   8.267  10.963  10.160  0.1995 -1.5957  2.6513
  641MOL0     H84606   8.357  10.858   9.943 -0.6920 -2.0449 -2.6855
  641MOL0     H84607   8.249  10.999   9.921 -0.1258  0.9128 -0.2394
  641MOL0     H84608   8.049  10.806   9.879  0.9951 -0.0389  1.0708
  641MOL0     H84609   8.148  10.823   9.751 -2.8999 -0.8921  0.0554
  641MOL0     H84610   8.256  10.441   9.862  0.7968 -1.2545  3.4249
  641MOL0     H84611   8.419  10.737  10.451 -4.1864  0.8062 -1.7661
  641MOL0     H84612   8.494  10.557  10.614 -2.0327 -2.8310  0.6574
  642MOL0     O84613   8.568   4.555   3.470 -0.4684  0.2283 -0.5045
  642MOL0     C84614   8.455   4.533   3.433  0.2053  0.5833 -0.3244
  642MOL0     O84615   8.400   4.407   3.418  0.4298  0.3768  0.0038
  642MOL0     C84616   8.480   4.309   3.471 -0.1544 -0.0463 -0.5960
  642MOL0     C84617   8.603   4.259   3.415  0.6961  0.9138  0.2853
  642MOL0     C84618   8.676   4.151   3.462  0.4903  0.8335  0.8693
  642MOL0     C84619   8.641   4.095   3.587  0.0968 -0.2548  0.6561
  642MOL0     O84620   8.707   3.985   3.625 -0.4630  0.3313 -0.5784
  642MOL0     C84621   8.645   3.896   3.729  0.0879 -0.6827  0.6933
  642MOL0     C84622   8.735   3.776   3.747  0.6738  0.1187 -0.0810
  642MOL0     C84623   8.865   3.817   3.801  0.3046  0.1599 -0.0896
  642MOL0     C84624   8.940   3.691   3.846 -0.9715  0.0115  0.2321
  642MOL0     C84625   9.092   3.707   3.880 -0.5833  0.4462 -0.1177
  642MOL0     C84626   9.199   3.654   3.783 -0.1113  0.5835 -0.2602
  642MOL0     C84627   9.334   3.720   3.821 -0.5450  0.5169 -0.0999
  642MOL0     C84628   9.374   3.681   3.963  0.6888 -0.6410 -0.2909
  642MOL0     N84629   9.521   3.696   3.975  0.3069  0.0119 -0.3546
  642MOL0     C84630   9.577   3.787   4.060 -0.1978  0.1807 -0.2101
  642MOL0     C84631   9.705   3.796   4.024  0.9288 -0.2013 -0.2949
  642MOL0     C84632   9.813   3.886   4.088 -0.0505  0.6773 -1.4201
  642MOL0     C84633   9.863   3.984   3.985  0.6551 -0.4874  0.8095
  642MOL0     C84634   9.760   4.096   3.970  0.1555 -0.3070  0.1372
  642MOL0     C84635   9.812   4.197   3.864  0.2432  1.2996 -0.8192
  642MOL0     O84636   9.938   4.268   3.898  0.1793 -0.1919  0.1712
  642MOL0     C84637   9.970   4.385   3.823  0.2326  0.0184 -0.2866
  642MOL0     C84638   9.886   4.452   3.734  0.2683 -0.9015 -0.4325
  642MOL0     C84639   9.932   4.571   3.681  0.7847 -0.4985 -0.6558
  642MOL0     C84640  10.057   4.628   3.706  1.3245 -0.4708  0.5547
  642MOL0     C84641  10.091   4.765   3.662 -0.7604 -0.3260  0.6764
  642MOL0     O84642  10.221   4.799   3.681 -0.3535  0.2504  1.0536
  642MOL0     C84643  10.263   4.929   3.672  0.6343 -1.2610  0.5496
  642MOL0     C84644  10.184   5.045   3.675 -0.3188  0.7677 -0.6216
  642MOL0     C84645  10.247   5.168   3.669 -0.6480 -0.5645  0.1122
  642MOL0     C84646  10.386   5.187   3.680 -0.2533  0.3886 -0.3358
  642MOL0     O84647  10.444   5.303   3.695  0.0091 -0.7167 -0.5794
  642MOL0     C84648  10.369   5.410   3.760  0.2731  0.8493  0.5051
  642MOL0     C84649  10.451   5.524   3.811 -0.7675  0.0087 -0.5076
  642MOL0     C84650  10.547   5.480   3.922 -0.3146 -1.2087  0.7801
  642MOL0     C84651  10.602   5.611   4.001 -0.1190  0.3199 -0.5337
  642MOL0     C84652  10.716   5.586   4.098  0.5786 -0.1217  0.4295
  642MOL0     C84653  10.742   5.705   4.189 -0.3454  0.1556 -0.0740
  642MOL0     C84654  10.843   5.674   4.299 -0.5370 -0.4545 -0.4450
  642MOL0     C84655  10.855   5.788   4.390  0.1512  0.0467 -1.0228
  642MOL0    Cl84656  11.017   5.802   4.472  0.2348  0.2314  0.4209
  642MOL0     C84657  10.464   5.067   3.677  0.3582 -0.1386 -0.2456
  642MOL0     C84658  10.400   4.943   3.681 -0.0536  0.0906 -0.4934
  642MOL0     O84659  10.011   4.827   3.595  0.8738 -0.1250  0.2212
  642MOL0     C84660  10.133   4.555   3.802 -0.1668 -0.3445  0.1177
  642MOL0     C84661  10.098   4.435   3.858 -0.9499  0.1620  0.3285
  642MOL0     N84662   9.734   3.692   3.934  0.3793  0.0360 -0.9354
  642MOL0     N84663   9.617   3.634   3.902  0.1530 -0.3959 -1.2037
  642MOL0     C84664   8.518   4.131   3.639 -0.3664 -0.4170  2.0134
  642MOL0     C84665   8.447   4.238   3.590  0.1656 -0.4427 -0.4208
  642MOL0     C84666   8.388   4.648   3.364 -0.9244  0.0558  0.2858
  642MOL0     C84667   8.470   4.749   3.309  0.2110  0.7745  0.0325
  642MOL0     C84668   8.418   4.859   3.244 -1.0997  0.0933 -0.0493
  642MOL0     C84669   8.285   4.867   3.230  1.2948  0.3054  0.3313
  642MOL0     O84670   8.227   4.985   3.176  0.9403 -0.8618  0.5671
  642MOL0     C84671   8.294   5.047   3.068  0.2938  0.5309  0.6103
  642MOL0     C84672   8.202   5.121   2.968 -0.4090  0.2703 -1.0763
  642MOL0     C84673   8.261   5.257   2.946  0.5420  0.8398  1.3737
  642MOL0     C84674   8.214   5.302   2.812  0.0746  0.6027  0.2964
  642MOL0     C84675   8.255   5.444   2.792  0.3469 -0.4762  0.2236
  642MOL0     C84676   8.301   5.559   2.784 -0.0399 -0.1307  0.1812
  642MOL0     C84677   8.200   4.763   3.275  0.1027 -0.3869  0.9523
  642MOL0     C84678   8.251   4.649   3.337  0.3283 -0.8342 -0.2088
  642MOL0     H84679   8.646   4.304   3.326  0.3390 -1.6571 -1.2798
  642MOL0     H84680   8.765   4.127   3.404 -0.2336  0.3367 -0.0709
  642MOL0     H84681   8.546   3.871   3.689  0.0223  3.5310 -2.4554
  642MOL0     H84682   8.620   3.952   3.819 -3.0306  0.2455 -0.6213
  642MOL0     H84683   8.747   3.731   3.648 -1.3198  2.7718 -1.6547
  642MOL0     H84684   8.686   3.698   3.806 -1.6703  0.4578 -1.4377
  642MOL0     H84685   8.843   3.870   3.894 -1.2983  1.4150 -1.1165
  642MOL0     H84686   8.906   3.891   3.731  0.4305  0.4439  0.2836
  642MOL0     H84687   8.899   3.661   3.943 -1.9532  2.0500  0.4964
  642MOL0     H84688   8.934   3.620   3.764 -2.6563  1.4226 -0.9447
  642MOL0     H84689   9.101   3.662   3.979  0.7200 -1.9959 -1.2503
  642MOL0     H84690   9.115   3.814   3.884 -1.9163  0.7282  4.1034
  642MOL0     H84691   9.176   3.663   3.676 -0.7191 -2.4034 -0.4924
  642MOL0     H84692   9.217   3.546   3.793  1.3124  0.8050 -0.3046
  642MOL0     H84693   9.411   3.690   3.750  0.6156  2.0834  0.4591
  642MOL0     H84694   9.335   3.828   3.809  3.7957  0.9019  1.7346
  642MOL0     H84695   9.346   3.578   3.985 -0.7876  0.0614  1.3781
  642MOL0     H84696   9.326   3.753   4.030 -2.5464 -0.1917 -2.8142
  642MOL0     H84697   9.513   3.841   4.129 -1.0433 -0.6727 -0.2891
  642MOL0     H84698   9.901   3.828   4.115 -0.5344 -0.6337 -2.5215
  642MOL0     H84699   9.779   3.928   4.183 -0.7195  1.6597 -2.0770
  642MOL0     H84700   9.864   3.934   3.888 -1.4358  2.9542 -1.1977
  642MOL0     H84701   9.962   4.013   4.019  0.0128 -0.5522  2.9322
  642MOL0     H84702   9.680   4.032   3.931  0.6996 -1.9398  1.5828
  642MOL0     H84703   9.741   4.141   4.068 -2.2884  0.1478 -0.4736
  642MOL0     H84704   9.721   4.257   3.853 -1.2316  0.0959  3.0788
  642MOL0     H84705   9.826   4.150   3.766 -2.7997 -3.4902  0.6996
  642MOL0     H84706   9.786   4.412   3.720 -0.6189  1.2323 -0.4292
  642MOL0     H84707   9.861   4.628   3.621  0.2935  0.5958  0.8984
  642MOL0     H84708  10.078   5.051   3.656 -0.1908 -0.2947 -1.8184
  642MOL0     H84709  10.184   5.256   3.661  0.7814  0.7526  2.1429
  642MOL0     H84710  10.322   5.372   3.851  0.8779  0.6018  0.7159
  642MOL0     H84711  10.286   5.456   3.705  0.6365  1.6915  0.6415
  642MOL0     H84712  10.390   5.606   3.850  0.2454  0.6508 -0.2489
  642MOL0     H84713  10.508   5.567   3.728 -0.5636 -0.4210 -0.5896
  642MOL0     H84714  10.623   5.408   3.892  0.2578 -0.7440  1.0678
  642MOL0     H84715  10.484   5.434   3.999 -0.2022  1.6467  2.7463
  642MOL0     H84716  10.615   5.687   3.923 -1.9578  0.0385 -1.1469
  642MOL0     H84717  10.519   5.647   4.063 -0.4608 -0.1578 -0.7106
  642MOL0     H84718  10.802   5.555   4.038 -1.1710 -2.1976 -1.1804
  642MOL0     H84719  10.690   5.503   4.165  1.0785  0.2860  1.1431
  642MOL0     H84720  10.643   5.722   4.231  0.4559  2.0023  1.1939
  642MOL0     H84721  10.793   5.791   4.143  1.2969  0.8923  2.8869
  642MOL0     H84722  10.823   5.576   4.344 -1.7068  0.1359  0.3738
  642MOL0     H84723  10.940   5.660   4.249 -0.4604  0.7064 -0.6398
  642MOL0     H84724  10.777   5.784   4.466  2.1529 -0.0584  1.1282
  642MOL0     H84725  10.850   5.881   4.333  4.0174  2.0063  1.3891
  642MOL0     H84726  10.572   5.059   3.672  0.2463 -1.6503 -0.9000
  642MOL0     H84727  10.467   4.858   3.686 -1.6247 -1.1957 -0.3318
  642MOL0     H84728  10.235   4.576   3.830  0.5081 -0.4403 -2.0742
  642MOL0     H84729  10.163   4.388   3.931  1.9965  2.1897 -0.7949
  642MOL0     H84730   8.468   4.080   3.720  2.3403 -0.4653  3.7839
  642MOL0     H84731   8.352   4.254   3.640  0.6367 -0.8752  0.6289
  642MOL0     H84732   8.575   4.761   3.334  0.6244  1.0898 -1.7490
  642MOL0     H84733   8.490   4.934   3.214  0.6758 -1.5352 -0.0707
  642MOL0     H84734   8.343   4.971   3.007 -2.1931 -1.2887  0.7290
  642MOL0     H84735   8.361   5.119   3.116  1.0151  1.5979 -1.8354
  642MOL0     H84736   8.199   5.062   2.876 -2.0030 -1.1966 -0.1328
  642MOL0     H84737   8.099   5.127   3.003  0.3868 -1.9545  2.1565
  642MOL0     H84738   8.369   5.241   2.939  0.3757  0.0939  0.2287
  642MOL0     H84739   8.245   5.319   3.035  1.3572  1.8218  0.8566
  642MOL0     H84740   8.277   5.239   2.747  0.3342 -0.1111  1.2187
  642MOL0     H84741   8.106   5.291   2.797 -0.2069  2.4558  0.7529
  642MOL0     H84742   8.313   5.664   2.768 -4.3304  0.8666  2.0291
  642MOL0     H84743   8.092   4.764   3.264  0.2924 -0.3243 -1.3523
  642MOL0     H84744   8.196   4.559   3.362  0.9277 -0.8620  1.0800
  643MOL0     O84745   2.322   6.612   5.744  1.2342 -0.3417 -0.2543
  643MOL0     C84746   2.313   6.734   5.768  0.4670 -0.3323 -0.9291
  643MOL0     O84747   2.408   6.827   5.753  0.4492 -0.1955  0.0234
  643MOL0     C84748   2.529   6.786   5.701 -0.7041 -0.8000 -0.7366
  643MOL0     C84749   2.641   6.818   5.782 -0.6765  0.8847  0.1641
  643MOL0     C84750   2.770   6.771   5.745 -0.3092  0.1749 -0.2555
  643MOL0     C84751   2.782   6.704   5.622  0.3421  0.5985 -0.3707
  643MOL0     O84752   2.900   6.655   5.560  0.3662  0.2903  0.4320
  643MOL0     C84753   3.025   6.726   5.579 -1.1695  0.0290  0.0690
  643MOL0     C84754   3.125   6.692   5.471 -0.6058  0.5033  0.3212
  643MOL0     C84755   3.270   6.743   5.498 -0.5513 -0.7356 -0.0873
  643MOL0     C84756   3.355   6.733   5.369 -0.0553 -0.2309  0.5897
  643MOL0     C84757   3.398   6.586   5.356 -1.1245 -0.3033  0.0970
  643MOL0     C84758   3.496   6.567   5.235 -0.8136  0.8569 -0.4141
  643MOL0     C84759   3.510   6.425   5.180  0.0174 -0.8228  0.3727
  643MOL0     C84760   3.617   6.427   5.062  0.0147  0.7656 -0.9357
  643MOL0     N84761   3.571   6.461   4.929  0.5663 -1.1376 -0.1541
  643MOL0     C84762   3.642   6.439   4.812  0.0059 -0.0937 -0.4668
  643MOL0     C84763   3.572   6.495   4.717  0.4673 -0.0137  0.4481
  643MOL0     C84764   3.611   6.515   4.567 -0.4026  0.1696 -0.5175
  643MOL0     C84765   3.581   6.663   4.522  1.0046  0.3086 -0.4967
  643MOL0     C84766   3.668   6.769   4.582  0.0819 -0.3626 -0.7546
  643MOL0     C84767   3.608   6.902   4.544  0.6704 -0.7146  0.8410
  643MOL0     O84768   3.673   6.996   4.619 -0.4179  0.1943 -0.0417
  643MOL0     C84769   3.669   7.133   4.596 -0.2670 -0.4600  0.7756
  643MOL0     C84770   3.628   7.199   4.483  1.2045  0.4085  0.1144
  643MOL0     C84771   3.618   7.336   4.470  0.1770 -0.6188  1.2267
  643MOL0     C84772   3.682   7.424   4.565 -0.0141  1.0853  0.0548
  643MOL0     C84773   3.699   7.575   4.548 -0.7398 -0.2620  0.3768
  643MOL0     O84774   3.633   7.616   4.431  0.7365 -0.8664  0.4919
  643MOL0     C84775   3.658   7.739   4.388 -1.6339 -0.9098  0.7591
  643MOL0     C84776   3.799   7.780   4.366  0.7866  0.3767 -0.0776
  643MOL0     C84777   3.835   7.905   4.329  0.0612 -1.1460 -0.0125
  643MOL0     C84778   3.730   7.998   4.310 -0.2814 -0.9768  0.4951
  643MOL0     O84779   3.765   8.107   4.243  0.3956 -1.3397 -0.7838
  643MOL0     C84780   3.780   8.223   4.330 -1.3025  0.1873 -0.3921
  643MOL0     C84781   3.915   8.212   4.404  0.5275 -0.5855  0.8441
  643MOL0     C84782   3.962   8.357   4.453 -0.9741 -0.2341 -0.5350
  643MOL0     C84783   3.855   8.441   4.519  0.7563 -0.3358  0.4703
  643MOL0     C84784   3.919   8.555   4.587 -0.3699  0.6481  0.2495
  643MOL0     C84785   3.827   8.661   4.639 -0.2548 -1.0495  0.2428
  643MOL0     C84786   3.906   8.766   4.717  0.2222 -0.5143  0.3998
  643MOL0     C84787   3.895   8.898   4.638 -0.7753  0.1503  0.2175
  643MOL0    Cl84788   3.728   8.969   4.644 -0.3010 -0.7275 -0.5177
  643MOL0     C84789   3.595   7.971   4.337  0.4304  1.0747 -0.7923
  643MOL0     C84790   3.558   7.836   4.370  0.3098  0.1110 -0.0872
  643MOL0     O84791   3.748   7.652   4.635  0.2234  0.2294 -0.3675
  643MOL0     C84792   3.740   7.354   4.683  0.2456 -0.5768  0.8522
  643MOL0     C84793   3.736   7.210   4.697  0.3499  0.5330 -0.1240
  643MOL0     N84794   3.455   6.545   4.769  0.3218  0.6709 -0.7576
  643MOL0     N84795   3.463   6.541   4.895 -0.5196  0.7315  0.1274
  643MOL0     C84796   2.672   6.679   5.549  0.4725 -1.4326 -0.2153
  643MOL0     C84797   2.550   6.715   5.587  0.5985  0.6134 -0.6246
  643MOL0     C84798   2.186   6.774   5.834  0.3205  1.4197 -0.3849
  643MOL0     C84799   2.175   6.901   5.877 -1.1041 -0.3168 -0.2105
  643MOL0     C84800   2.073   6.939   5.964  0.1194 -0.1391 -0.3542
  643MOL0     C84801   1.965   6.853   5.986  0.3124  0.8418  0.8401
  643MOL0     O84802   1.865   6.886   6.067  0.0934  0.6586  0.0314
  643MOL0     C84803   1.859   7.003   6.142  0.1876  0.2114 -0.8328
  643MOL0     C84804   1.764   7.095   6.066  0.7454  0.3156 -0.3242
  643MOL0     C84805   1.824   7.156   5.941 -0.3871  0.0131  0.2829
  643MOL0     C84806   1.713   7.255   5.894 -0.0588  0.1261  1.0597
  643MOL0     C84807   1.756   7.307   5.757  0.5109  0.9182  0.2682
  643MOL0     C84808   1.765   7.353   5.643 -0.1199 -0.9326 -0.7692
  643MOL0     C84809   1.967   6.730   5.926 -0.3175  0.9035  0.9979
  643MOL0     C84810   2.076   6.694   5.849  0.0017  0.2000 -0.3609
  643MOL0     H84811   2.616   6.872   5.873 -0.2975 -0.5924  1.1710
  643MOL0     H84812   2.855   6.784   5.810  1.4135  2.7752 -2.7792
  643MOL0     H84813   3.062   6.702   5.679 -0.2593  2.1544  0.3188
  643MOL0     H84814   3.012   6.835   5.570 -0.4717 -0.0209 -2.1446
  643MOL0     H84815   3.073   6.741   5.388 -2.1517  1.4136  1.7524
  643MOL0     H84816   3.127   6.584   5.451 -0.6308  0.0863  2.4129
  643MOL0     H84817   3.317   6.688   5.580 -2.2177 -3.4359 -0.8071
  643MOL0     H84818   3.259   6.849   5.520  2.5770 -0.4045  0.3986
  643MOL0     H84819   3.314   6.770   5.276 -0.5994 -1.9205  0.1208
  643MOL0     H84820   3.450   6.787   5.378 -0.6302  1.2946 -1.6692
  643MOL0     H84821   3.310   6.526   5.332  0.1054 -1.4885 -1.7055
  643MOL0     H84822   3.442   6.564   5.454 -2.8812  4.2562  2.2045
  643MOL0     H84823   3.596   6.591   5.274 -0.6767 -0.3605  0.0307
  643MOL0     H84824   3.463   6.625   5.149 -0.1150 -1.1966 -2.1535
  643MOL0     H84825   3.555   6.363   5.258  3.7750 -1.4909 -2.0333
  643MOL0     H84826   3.411   6.393   5.147  0.3762 -2.0422  0.4124
  643MOL0     H84827   3.665   6.329   5.065 -1.0197  0.2753  0.8189
  643MOL0     H84828   3.703   6.491   5.084  2.2207 -2.8800  2.2708
  643MOL0     H84829   3.737   6.387   4.813  0.3584  0.5548  0.2923
  643MOL0     H84830   3.566   6.440   4.501  0.9237 -0.0937 -1.1506
  643MOL0     H84831   3.718   6.499   4.553  0.1183  2.5612  0.3496
  643MOL0     H84832   3.474   6.670   4.546  0.0968  1.8520 -4.2421
  643MOL0     H84833   3.592   6.669   4.413  0.3611 -0.5416 -0.6261
  643MOL0     H84834   3.667   6.757   4.691  1.1908 -1.8389 -0.8717
  643MOL0     H84835   3.770   6.781   4.544  0.1469  3.8869  0.2821
  643MOL0     H84836   3.499   6.904   4.552  0.4624 -0.4722 -1.3341
  643MOL0     H84837   3.634   6.918   4.439  0.3430 -1.5217  0.6333
  643MOL0     H84838   3.568   7.138   4.417  1.8677 -0.6193  0.4406
  643MOL0     H84839   3.566   7.388   4.389 -0.1596  1.7712  2.8571
  643MOL0     H84840   3.880   7.711   4.387  0.0243 -0.0611  1.5483
  643MOL0     H84841   3.933   7.940   4.297 -1.1897  1.9108 -0.8874
  643MOL0     H84842   3.694   8.228   4.397 -2.1977 -0.3110 -1.4707
  643MOL0     H84843   3.791   8.308   4.262  2.9079  0.2375  0.1033
  643MOL0     H84844   3.985   8.165   4.334 -0.3988 -0.6018 -0.0942
  643MOL0     H84845   3.911   8.151   4.494  0.8338 -1.3059  0.3800
  643MOL0     H84846   3.995   8.414   4.366  1.6131 -2.3721 -1.1165
  643MOL0     H84847   4.053   8.347   4.513 -1.4264 -1.1692  0.0257
  643MOL0     H84848   3.780   8.479   4.450  1.9229  0.9584 -0.1197
  643MOL0     H84849   3.816   8.367   4.589  2.0306 -2.8796 -1.3654
  643MOL0     H84850   3.983   8.606   4.514  0.3593 -1.5824 -0.7687
  643MOL0     H84851   3.982   8.514   4.667  2.9425  1.9909 -1.4466
  643MOL0     H84852   3.763   8.612   4.712 -3.8289  0.7230 -1.3911
  643MOL0     H84853   3.762   8.702   4.560  0.2145  0.1151  0.4300
  643MOL0     H84854   3.862   8.784   4.816  2.0911 -1.7822  1.5252
  643MOL0     H84855   4.007   8.729   4.739  1.1654 -0.1158 -2.7702
  643MOL0     H84856   3.918   8.886   4.532 -2.1103  0.9736 -0.1869
  643MOL0     H84857   3.962   8.971   4.684  0.7907 -1.7849  1.1341
  643MOL0     H84858   3.518   8.038   4.300 -0.3374 -0.4793 -2.1543
  643MOL0     H84859   3.457   7.800   4.385  1.2134 -3.7474 -1.9403
  643MOL0     H84860   3.777   7.421   4.760  0.5662  0.4803 -0.1917
  643MOL0     H84861   3.763   7.160   4.789 -2.5019 -1.1436 -0.0690
  643MOL0     H84862   2.695   6.619   5.462  0.7012  0.6471 -1.6515
  643MOL0     H84863   2.461   6.693   5.528 -0.6882  3.6823  0.0299
  643MOL0     H84864   2.261   6.966   5.866 -2.1581  1.4067  1.2105
  643MOL0     H84865   2.071   7.041   6.003 -1.9563  0.1646 -1.1121
  643MOL0     H84866   1.959   7.044   6.158  0.3278  0.0976 -1.4110
  643MOL0     H84867   1.815   6.973   6.238  0.0320 -1.9271 -1.5256
  643MOL0     H84868   1.678   7.033   6.039  1.8225 -1.2899 -0.2655
  643MOL0     H84869   1.731   7.173   6.135  0.9515  0.0582  0.0679
  643MOL0     H84870   1.845   7.075   5.871  1.8782  0.8701 -0.1215
  643MOL0     H84871   1.921   7.207   5.943 -0.0833 -0.4268 -1.2506
  643MOL0     H84872   1.628   7.188   5.884  0.2087 -0.1233  0.3907
  643MOL0     H84873   1.686   7.325   5.973 -1.4526  0.8026  0.0245
  643MOL0     H84874   1.788   7.380   5.542  0.0823 -4.4454 -1.7703
  643MOL0     H84875   1.883   6.662   5.940 -2.6870  3.5431  0.6827
  643MOL0     H84876   2.073   6.593   5.811  2.5441 -0.5046  1.1276
  644MOL0     O84877   5.831   2.953   7.605 -0.7834  0.2831  0.0366
  644MOL0     C84878   5.835   2.883   7.503  0.5986 -1.3036 -0.8824
  644MOL0     O84879   5.755   2.780   7.478 -0.6707 -0.1120 -0.8244
  644MOL0     C84880   5.663   2.718   7.567 -0.3804 -0.5216  0.4003
  644MOL0     C84881   5.636   2.760   7.701 -0.4261 -0.0513  0.0384
  644MOL0     C84882   5.566   2.672   7.788 -0.0426 -0.2185 -0.4455
  644MOL0     C84883   5.507   2.550   7.743  0.3469  0.0213  0.3202
  644MOL0     O84884   5.437   2.465   7.827  0.0333  0.5439 -0.7002
  644MOL0     C84885   5.310   2.424   7.785  0.9555 -0.8829  0.1182
  644MOL0     C84886   5.234   2.356   7.896 -0.6739 -0.1200 -0.0436
  644MOL0     C84887   5.214   2.463   8.003  0.4472  0.3588  0.4150
  644MOL0     C84888   5.176   2.398   8.136 -0.9287 -0.3482  0.5431
  644MOL0     C84889   5.029   2.363   8.135 -0.3789  0.5617 -1.5538
  644MOL0     C84890   4.976   2.303   8.273 -0.4855 -0.4614  0.4956
  644MOL0     C84891   4.859   2.188   8.257 -0.1039 -0.4114  0.2982
  644MOL0     C84892   4.724   2.250   8.223 -0.8097  0.0566 -0.2119
  644MOL0     N84893   4.607   2.177   8.282 -0.1776  0.0764  0.5136
  644MOL0     C84894   4.523   2.227   8.380  0.4572 -0.1790 -0.6950
  644MOL0     C84895   4.415   2.142   8.383 -0.3541  0.1755  0.2241
  644MOL0     C84896   4.305   2.139   8.477  0.3422 -0.8858  1.1032
  644MOL0     C84897   4.215   2.266   8.473 -0.2750 -0.7745  0.8281
  644MOL0     C84898   4.165   2.286   8.319  0.5136  0.5545 -0.4561
  644MOL0     C84899   4.063   2.399   8.296 -0.0965  0.0043  0.6112
  644MOL0     O84900   4.124   2.528   8.337  0.0084 -0.4207 -0.8044
  644MOL0     C84901   4.177   2.602   8.236 -0.2894  0.6807  0.1346
  644MOL0     C84902   4.310   2.595   8.205  0.6478 -0.2869 -0.1015
  644MOL0     C84903   4.360   2.670   8.089  0.1040 -0.7310  0.1668
  644MOL0     C84904   4.275   2.763   8.024  0.5753  1.0014 -0.4571
  644MOL0     C84905   4.312   2.848   7.906 -0.2380 -0.4661 -0.7404
  644MOL0     O84906   4.452   2.846   7.867  0.5669 -0.8078  0.2373
  644MOL0     C84907   4.499   2.913   7.765 -0.1828 -0.0664  0.4841
  644MOL0     C84908   4.568   2.853   7.670 -0.1769  0.0305  0.1457
  644MOL0     C84909   4.641   2.918   7.566 -0.4518 -1.1630  0.3005
  644MOL0     C84910   4.638   3.067   7.557  0.0335  0.3138  1.1311
  644MOL0     O84911   4.706   3.139   7.474  0.8754 -1.2964  0.1261
  644MOL0     C84912   4.774   3.070   7.370 -1.0794 -0.1614  1.1950
  644MOL0     C84913   4.785   3.166   7.255  0.8882  0.2726  0.0257
  644MOL0     C84914   4.928   3.200   7.215  0.7408 -0.1600  0.6665
  644MOL0     C84915   5.004   3.276   7.319 -0.3345 -0.3953 -0.6249
  644MOL0     C84916   5.144   3.313   7.251 -1.1927 -0.5623 -0.5030
  644MOL0     C84917   5.238   3.386   7.358  1.1267  0.7352  0.6178
  644MOL0     C84918   5.187   3.527   7.383  0.4307 -0.3164 -0.0479
  644MOL0     C84919   5.272   3.571   7.492 -0.6989 -0.7160  0.0146
  644MOL0    Cl84920   5.246   3.512   7.653 -0.0053 -0.6440  0.6128
  644MOL0     C84921   4.563   3.127   7.646  0.0373 -0.1779 -0.8991
  644MOL0     C84922   4.499   3.054   7.758  0.3726 -0.4298 -0.2525
  644MOL0     O84923   4.227   2.909   7.847 -0.0453 -0.1662  0.4075
  644MOL0     C84924   4.149   2.778   8.087  0.4360 -0.4913 -0.4556
  644MOL0     C84925   4.094   2.695   8.175  0.1013 -0.0422  0.0919
  644MOL0     N84926   4.444   2.034   8.304  0.9605  0.2882  0.4210
  644MOL0     N84927   4.551   2.061   8.238 -0.1977  0.5211 -0.1256
  644MOL0     C84928   5.517   2.523   7.607 -0.5915 -0.1180  0.4175
  644MOL0     C84929   5.604   2.596   7.524 -1.1982  0.5770 -0.6198
  644MOL0     C84930   5.901   2.940   7.381  0.0957 -0.1775 -0.2257
  644MOL0     C84931   5.945   3.072   7.382  0.0567  0.2810 -0.1368
  644MOL0     C84932   6.006   3.122   7.268 -0.3553 -0.4524 -0.0738
  644MOL0     C84933   6.023   3.043   7.152  0.1552  0.5391 -0.2590
  644MOL0     O84934   6.087   3.076   7.036  0.0821  0.3873  0.4798
  644MOL0     C84935   6.169   3.191   7.023 -0.7534 -0.4441  0.2817
  644MOL0     C84936   6.174   3.232   6.873 -0.3803 -0.3391  0.2680
  644MOL0     C84937   6.172   3.383   6.830  0.5452 -0.1484 -0.6547
  644MOL0     C84938   6.315   3.428   6.848  0.4432 -0.2146  0.4630
  644MOL0     C84939   6.403   3.344   6.758 -0.7000 -0.4862 -1.2331
  644MOL0     C84940   6.482   3.277   6.697  0.4030  0.2198 -1.0318
  644MOL0     C84941   5.971   2.905   7.160  0.3312 -0.2718 -0.2769
  644MOL0     C84942   5.917   2.864   7.274 -0.0800  0.4770 -0.2703
  644MOL0     H84943   5.671   2.853   7.746 -0.7056 -0.6682  1.5941
  644MOL0     H84944   5.554   2.709   7.889  2.6205  2.4318 -0.9551
  644MOL0     H84945   5.315   2.350   7.704  1.9165  1.0530 -1.6943
  644MOL0     H84946   5.271   2.520   7.752  0.7252 -0.1574  2.3790
  644MOL0     H84947   5.287   2.270   7.938  2.8631  1.0871 -1.6558
  644MOL0     H84948   5.139   2.318   7.855 -0.7091 -0.7024  0.5678
  644MOL0     H84949   5.142   2.542   7.980 -2.6562 -1.5243  2.8622
  644MOL0     H84950   5.309   2.512   8.021  0.0022  0.2345  3.7054
  644MOL0     H84951   5.238   2.310   8.157  2.4612  1.8324  0.4947
  644MOL0     H84952   5.186   2.463   8.223  1.0041  0.1361  0.0140
  644MOL0     H84953   5.001   2.294   8.055 -2.7093 -0.3150 -0.0917
  644MOL0     H84954   4.971   2.455   8.123  0.4519  1.4375  0.5801
  644MOL0     H84955   4.935   2.389   8.327 -1.9181 -0.6164 -0.2930
  644MOL0     H84956   5.060   2.253   8.323  0.8409 -2.3333 -3.2008
  644MOL0     H84957   4.893   2.112   8.187 -1.7756 -0.2824 -0.7133
  644MOL0     H84958   4.862   2.157   8.362  1.3890 -1.4112 -0.0046
  644MOL0     H84959   4.707   2.234   8.116  0.1800  0.7096 -0.4684
  644MOL0     H84960   4.725   2.356   8.248  2.8182 -0.0856  0.7793
  644MOL0     H84961   4.537   2.318   8.438 -0.2609  1.0201 -2.3094
  644MOL0     H84962   4.349   2.113   8.573  1.7846 -1.3906  0.3317
  644MOL0     H84963   4.238   2.054   8.459  2.5354 -2.2001 -1.6568
  644MOL0     H84964   4.278   2.350   8.504  0.6008 -1.3864  0.7279
  644MOL0     H84965   4.121   2.262   8.529 -1.4210  1.2962 -0.7796
  644MOL0     H84966   4.244   2.320   8.252  0.8639  0.3654 -0.1452
  644MOL0     H84967   4.124   2.192   8.283 -2.4058  1.7351 -0.5574
  644MOL0     H84968   3.967   2.381   8.347 -0.7331 -0.6026 -0.7507
  644MOL0     H84969   4.039   2.404   8.189 -2.9944 -1.0436  1.1100
  644MOL0     H84970   4.379   2.526   8.252  1.0498  0.3835  0.3128
  644MOL0     H84971   4.462   2.652   8.057 -0.9525 -3.4902 -2.1235
  644MOL0     H84972   4.556   2.747   7.650 -0.9966 -0.5020  2.9135
  644MOL0     H84973   4.687   2.859   7.488 -1.8371  1.4098 -2.6471
  644MOL0     H84974   4.720   2.981   7.336  1.1581 -0.5932 -1.6324
  644MOL0     H84975   4.873   3.049   7.412 -0.4089 -1.6587 -0.9509
  644MOL0     H84976   4.724   3.254   7.272  1.6352  0.6454  0.8539
  644MOL0     H84977   4.737   3.118   7.169 -1.4032 -2.3250  2.5291
  644MOL0     H84978   4.926   3.252   7.119 -1.7034 -3.5194 -1.3290
  644MOL0     H84979   4.977   3.102   7.209 -0.7880 -0.8708 -1.1853
  644MOL0     H84980   4.942   3.364   7.340  2.3181  2.0667 -2.4276
  644MOL0     H84981   5.024   3.220   7.410 -1.4777  2.6337  1.6816
  644MOL0     H84982   5.119   3.379   7.167 -2.7769 -0.8702 -0.2855
  644MOL0     H84983   5.195   3.222   7.218 -0.2863 -0.3840  0.3593
  644MOL0     H84984   5.339   3.396   7.317  1.1658 -3.9538 -0.9850
  644MOL0     H84985   5.236   3.325   7.449  1.8138 -0.0179  0.1455
  644MOL0     H84986   5.198   3.597   7.300  1.2628  0.2915  0.5657
  644MOL0     H84987   5.086   3.527   7.425  0.9137 -1.6732  1.1984
  644MOL0     H84988   5.249   3.678   7.496  4.5056  0.7380 -0.7792
  644MOL0     H84989   5.375   3.561   7.457 -0.2392 -1.4992  1.5091
  644MOL0     H84990   4.560   3.236   7.646  3.6242  0.0463  0.0861
  644MOL0     H84991   4.436   3.118   7.818  1.1981  0.9237 -0.7970
  644MOL0     H84992   4.074   2.842   8.041  0.5689 -0.0453 -0.0567
  644MOL0     H84993   3.995   2.709   8.216  0.0295  2.2329 -0.7256
  644MOL0     H84994   5.476   2.433   7.562 -1.4239  0.3666  0.1894
  644MOL0     H84995   5.624   2.565   7.422  0.1086 -0.8221  0.0161
  644MOL0     H84996   5.936   3.133   7.472  1.9871  0.0256  0.2793
  644MOL0     H84997   6.038   3.226   7.273 -1.7140  0.0929 -1.7909
  644MOL0     H84998   6.274   3.177   7.050 -0.8735  2.2615  2.5520
  644MOL0     H84999   6.135   3.282   7.072  1.9441  1.1889 -0.6368
  644MOL0     H85000   6.247   3.175   6.815 -0.3514  0.4559 -0.4841
  644MOL0     H85001   6.079   3.203   6.826 -2.5260  2.8194  2.2210
  644MOL0     H85002   6.112   3.459   6.881 -1.0638 -0.5698 -1.8269
  644MOL0     H85003   6.142   3.396   6.726 -0.9100 -2.9951 -0.7047
  644MOL0     H85004   6.345   3.527   6.814 -0.2252 -0.0852  0.2397
  644MOL0     H85005   6.344   3.419   6.953 -2.6157 -0.6391  1.3828
  644MOL0     H85006   6.536   3.202   6.644 -3.1426 -4.5051  1.2391
  644MOL0     H85007   5.960   2.840   7.074  1.6489  0.1236 -0.7664
  644MOL0     H85008   5.888   2.760   7.283  1.0664 -0.1480 -3.0892
  645MOL0     O85009   1.325   3.560   1.655  0.0122  0.0207  0.2537
  645MOL0     C85010   1.444   3.539   1.626 -0.1107  0.0086 -0.5963
  645MOL0     O85011   1.535   3.632   1.572  0.8573  0.6567 -0.6061
  645MOL0     C85012   1.482   3.756   1.546  0.5406  0.5600  0.9644
  645MOL0     C85013   1.431   3.844   1.639  0.7718  1.2909  0.5441
  645MOL0     C85014   1.397   3.971   1.605  0.4940 -0.7781 -1.1530
  645MOL0     C85015   1.407   4.027   1.475 -0.0632  0.2448 -0.3143
  645MOL0     O85016   1.353   4.145   1.426  0.6180  0.2865  0.1842
  645MOL0     C85017   1.332   4.251   1.511 -0.2799 -0.8317  0.9668
  645MOL0     C85018   1.191   4.306   1.472 -1.2109 -0.5598  0.3685
  645MOL0     C85019   1.164   4.356   1.327  0.1112 -0.3138 -0.4676
  645MOL0     C85020   1.037   4.455   1.326 -1.4753 -0.6708  0.8702
  645MOL0     C85021   1.016   4.527   1.184  0.3008  0.0197 -1.1562
  645MOL0     C85022   0.893   4.614   1.175  0.0520 -0.0782 -0.1105
  645MOL0     C85023   0.875   4.673   1.027  0.4773  0.2686  0.0603
  645MOL0     C85024   0.756   4.771   1.021 -1.0755 -0.7617 -0.1228
  645MOL0     N85025   0.746   4.829   0.892  1.0864  0.3670 -0.0080
  645MOL0     C85026   0.712   4.963   0.884 -0.8706  0.1058  0.6678
  645MOL0     C85027   0.665   4.984   0.760 -0.1288  0.0367  0.3689
  645MOL0     C85028   0.587   5.109   0.712  0.3748  0.2772 -0.1226
  645MOL0     C85029   0.479   5.144   0.822 -0.6565  0.9542  0.6260
  645MOL0     C85030   0.375   5.245   0.770 -0.7819 -0.1799 -0.2526
  645MOL0     C85031   0.433   5.361   0.689  0.6537  0.1412  0.3296
  645MOL0     O85032   0.316   5.448   0.654 -0.7244 -0.3888  0.2416
  645MOL0     C85033   0.337   5.574   0.592  0.4981  1.3714  0.6695
  645MOL0     C85034   0.224   5.640   0.541 -0.4585  0.4510 -0.8899
  645MOL0     C85035   0.229   5.754   0.462 -0.0460 -0.9504 -0.6201
  645MOL0     C85036   0.359   5.808   0.426 -1.2957 -1.0634  1.1859
  645MOL0     C85037   0.363   5.934   0.351  0.1797  0.0048 -0.2786
  645MOL0     O85038   0.446   5.925   0.237  0.3586 -0.1226 -0.2015
  645MOL0     C85039   0.454   6.030   0.148  0.6746 -0.6301 -0.0647
  645MOL0     C85040   0.567   6.031   0.065 -0.7535  0.5006  1.0042
  645MOL0     C85041   0.580   6.135  -0.034  0.2622  0.5839  0.3375
  645MOL0     C85042   0.478   6.226  -0.065  0.9708 -0.6206  0.5364
  645MOL0     O85043   0.492   6.331  -0.148 -0.8948 -0.0855  0.2643
  645MOL0     C85044   0.610   6.403  -0.188 -0.3629  0.7271 -0.3877
  645MOL0     C85045   0.565   6.503  -0.297 -0.3172  1.0307 -0.1035
  645MOL0     C85046   0.478   6.444  -0.407 -0.0023  0.7158  0.1924
  645MOL0     C85047   0.443   6.543  -0.516  0.2457 -0.2294  0.4147
  645MOL0     C85048   0.327   6.504  -0.603 -0.0250  1.1436  0.3530
  645MOL0     C85049   0.325   6.606  -0.718  0.8103 -0.2882  0.4583
  645MOL0     C85050   0.215   6.566  -0.823 -1.1881 -0.5805  0.2062
  645MOL0     C85051   0.175   6.696  -0.882 -0.2838  0.2406 -0.8832
  645MOL0    Cl85052   0.056   6.673  -1.012  0.0941 -0.2249  0.4188
  645MOL0     C85053   0.364   6.211   0.014  0.2163 -0.5849 -0.0799
  645MOL0     C85054   0.353   6.114   0.115  0.5414 -0.6548  0.1628
  645MOL0     O85055   0.300   6.031   0.390  0.4204 -1.2044 -0.2327
  645MOL0     C85056   0.474   5.745   0.487 -0.2777 -0.1155  0.4521
  645MOL0     C85057   0.471   5.625   0.556  0.7355  0.1119  0.5337
  645MOL0     N85058   0.647   4.861   0.692 -0.1903 -0.0332  0.6736
  645MOL0     N85059   0.704   4.774   0.767  0.6615 -0.0019 -0.7939
  645MOL0     C85060   1.453   3.936   1.376 -0.4895  0.3217 -0.5634
  645MOL0     C85061   1.498   3.804   1.410  0.8841 -0.3277 -0.1673
  645MOL0     C85062   1.496   3.401   1.633  0.3937 -0.5909 -0.5640
  645MOL0     C85063   1.616   3.359   1.581  0.2802 -0.1556 -0.9161
  645MOL0     C85064   1.665   3.226   1.601 -0.0858 -0.2163 -0.2704
  645MOL0     C85065   1.596   3.142   1.687 -0.1373 -0.3711  1.3000
  645MOL0     O85066   1.660   3.027   1.720  0.8993  0.4229 -0.0985
  645MOL0     C85067   1.632   2.977   1.849  0.5869 -0.4702 -0.8903
  645MOL0     C85068   1.674   3.060   1.967  0.3352 -0.2879  0.0222
  645MOL0     C85069   1.700   3.000   2.106  0.0123  0.0184  0.3244
  645MOL0     C85070   1.701   3.107   2.213  0.5360 -0.7973 -0.5468
  645MOL0     C85071   1.798   3.217   2.180 -0.6446 -0.3611 -0.1461
  645MOL0     C85072   1.875   3.311   2.151  0.3540  0.1031  0.6461
  645MOL0     C85073   1.468   3.185   1.735 -0.1308 -0.4902  1.4441
  645MOL0     C85074   1.418   3.313   1.708  0.2317 -0.3766  0.0035
  645MOL0     H85075   1.413   3.804   1.739  1.2671 -2.1094 -0.5839
  645MOL0     H85076   1.357   4.031   1.687  1.6395 -1.5017 -0.0293
  645MOL0     H85077   1.402   4.332   1.487  2.2912 -2.8286  1.1930
  645MOL0     H85078   1.338   4.230   1.618  3.2387  0.0150  1.0671
  645MOL0     H85079   1.169   4.397   1.528  0.1346 -1.3139  2.2174
  645MOL0     H85080   1.117   4.233   1.507  0.3558 -1.8916  0.9982
  645MOL0     H85081   1.149   4.278   1.252  0.0408 -2.1455  1.3617
  645MOL0     H85082   1.245   4.418   1.287 -0.9844  1.3346 -0.1919
  645MOL0     H85083   0.943   4.409   1.359 -1.2877 -3.3151 -1.9232
  645MOL0     H85084   1.061   4.544   1.386  0.4876  2.4370 -3.9805
  645MOL0     H85085   1.010   4.451   1.106 -0.6548  1.8041 -2.9119
  645MOL0     H85086   1.098   4.595   1.156 -0.9089  2.4306  0.7215
  645MOL0     H85087   0.891   4.702   1.239  2.8014 -0.2305  0.3130
  645MOL0     H85088   0.812   4.544   1.196  0.9867 -1.4050 -0.7732
  645MOL0     H85089   0.965   4.730   1.003  1.4387 -0.9337  0.6988
  645MOL0     H85090   0.864   4.593   0.953  1.9596 -1.4152  1.5598
  645MOL0     H85091   0.764   4.856   1.090 -0.6318  0.0735 -1.1672
  645MOL0     H85092   0.664   4.722   1.055  0.4492 -2.9832  0.9921
  645MOL0     H85093   0.712   5.038   0.962 -0.9553 -1.3334  2.1126
  645MOL0     H85094   0.551   5.101   0.609 -4.4420 -1.6465  1.4680
  645MOL0     H85095   0.659   5.191   0.700  0.5335  0.0480 -0.8410
  645MOL0     H85096   0.535   5.188   0.905 -0.6025 -0.1043  1.1780
  645MOL0     H85097   0.432   5.048   0.847  1.2311 -0.3590 -0.5777
  645MOL0     H85098   0.287   5.213   0.713 -1.2868  1.3736 -0.3766
  645MOL0     H85099   0.328   5.284   0.860  0.2663 -0.2633  0.3414
  645MOL0     H85100   0.495   5.325   0.606  1.1030  1.3070  0.1392
  645MOL0     H85101   0.509   5.414   0.746 -0.4642  4.3617 -1.6916
  645MOL0     H85102   0.128   5.600   0.572  0.7460 -1.5161  0.5612
  645MOL0     H85103   0.141   5.815   0.440  1.4776  0.9597 -1.7710
  645MOL0     H85104   0.638   5.949   0.076  0.6747  1.6440  0.5624
  645MOL0     H85105   0.661   6.146  -0.105  0.9481  1.2106  1.2090
  645MOL0     H85106   0.668   6.319  -0.229 -1.8785 -0.6392  0.1724
  645MOL0     H85107   0.661   6.454  -0.106  0.4291 -0.4806 -0.0949
  645MOL0     H85108   0.654   6.538  -0.351 -0.3019  0.1936 -0.6342
  645MOL0     H85109   0.522   6.589  -0.245  1.0346  2.4039 -1.1488
  645MOL0     H85110   0.388   6.417  -0.350  0.8684  0.1430  1.3430
  645MOL0     H85111   0.526   6.355  -0.449 -2.4551 -1.7201  2.0759
  645MOL0     H85112   0.415   6.638  -0.470  0.8846  0.6840 -1.0083
  645MOL0     H85113   0.536   6.548  -0.574  1.1808 -2.1830  1.6150
  645MOL0     H85114   0.235   6.509  -0.543 -1.1888  0.6016 -1.3257
  645MOL0     H85115   0.350   6.406  -0.645 -0.2997  0.3444  1.9705
  645MOL0     H85116   0.417   6.597  -0.778  1.0488 -0.6996  0.8788
  645MOL0     H85117   0.317   6.708  -0.681 -1.8435 -0.4400  0.4380
  645MOL0     H85118   0.269   6.500  -0.891  1.1885  2.4932 -1.0929
  645MOL0     H85119   0.133   6.514  -0.772 -0.0458 -0.9931  1.7115
  645MOL0     H85120   0.258   6.754  -0.923  0.3708 -0.0712 -0.0409
  645MOL0     H85121   0.134   6.760  -0.804 -0.0596 -0.0653 -0.5104
  645MOL0     H85122   0.291   6.290  -0.001  0.8176 -0.3271 -1.9255
  645MOL0     H85123   0.271   6.106   0.185 -0.2123 -2.2518 -0.8415
  645MOL0     H85124   0.571   5.793   0.474 -0.5677  1.6045  3.6450
  645MOL0     H85125   0.563   5.573   0.580 -1.3658 -4.6085 -0.5254
  645MOL0     H85126   1.460   3.970   1.273 -1.2543 -1.4310 -1.2331
  645MOL0     H85127   1.539   3.747   1.328 -1.0570 -0.1137 -1.3634
  645MOL0     H85128   1.678   3.424   1.519  5.4058 -3.8829 -0.3570
  645MOL0     H85129   1.761   3.190   1.566 -0.3492 -0.8204 -0.3827
  645MOL0     H85130   1.652   2.870   1.859 -0.4955 -0.6048 -0.0055
  645MOL0     H85131   1.524   2.962   1.858  0.7064 -0.4948  0.9735
  645MOL0     H85132   1.772   3.101   1.940  0.8829 -0.2173  1.9266
  645MOL0     H85133   1.604   3.144   1.968  0.1748 -0.4216  0.8270
  645MOL0     H85134   1.785   2.931   2.104 -1.7683 -2.4325 -3.6554
  645MOL0     H85135   1.617   2.936   2.138  0.1663  1.2731  3.5104
  645MOL0     H85136   1.601   3.150   2.221  0.5695 -0.6997 -0.6467
  645MOL0     H85137   1.735   3.069   2.309 -0.1545  1.5297  0.6889
  645MOL0     H85138   1.950   3.385   2.131  1.9848 -1.5300  0.4739
  645MOL0     H85139   1.407   3.126   1.802 -0.0857 -2.5021 -0.1906
  645MOL0     H85140   1.333   3.360   1.755  1.3899  1.7412  0.0908
  646MOL0     O85141   9.849   2.571   7.184 -0.1751 -0.1972 -0.0634
  646MOL0     C85142   9.957   2.520   7.212 -0.5371 -0.4244  0.7380
  646MOL0     O85143   9.975   2.459   7.327  0.3944 -0.3003 -0.5862
  646MOL0     C85144   9.881   2.462   7.426 -0.6911  0.0222 -0.4694
  646MOL0     C85145   9.853   2.341   7.490 -1.4415 -0.1970 -1.2102
  646MOL0     C85146   9.759   2.338   7.593  0.3907  0.0059 -0.8090
  646MOL0     C85147   9.687   2.446   7.631  0.1055  0.1360  0.0933
  646MOL0     O85148   9.579   2.436   7.719 -0.6322  0.3507 -0.2411
  646MOL0     C85149   9.599   2.412   7.854  0.9697 -0.2289  0.1408
  646MOL0     C85150   9.549   2.540   7.933  0.1543  0.3358  0.6146
  646MOL0     C85151   9.474   2.497   8.063  0.2959 -0.8103 -0.3440
  646MOL0     C85152   9.422   2.627   8.136  1.0043  0.1546  0.0095
  646MOL0     C85153   9.339   2.586   8.253  0.4010  0.1583 -0.3473
  646MOL0     C85154   9.272   2.697   8.327  0.1899 -0.4225  0.2201
  646MOL0     C85155   9.197   2.657   8.446  0.3235  0.6487  0.1252
  646MOL0     C85156   9.103   2.751   8.523 -0.4291 -0.9302  1.1154
  646MOL0     N85157   9.184   2.850   8.597 -0.3387  0.7762 -0.1021
  646MOL0     C85158   9.215   2.982   8.563 -0.3652 -0.1435  0.4192
  646MOL0     C85159   9.260   3.038   8.682  0.8559  0.8804  0.5328
  646MOL0     C85160   9.320   3.185   8.696 -0.2044  0.1387  0.4385
  646MOL0     C85161   9.449   3.206   8.612 -0.6669 -0.5078  0.2483
  646MOL0     C85162   9.433   3.209   8.464  0.0486 -0.5672 -0.8047
  646MOL0     C85163   9.565   3.253   8.382 -0.3465  0.1332 -1.2377
  646MOL0     O85164   9.510   3.263   8.258 -0.6150 -0.0533 -0.2830
  646MOL0     C85165   9.594   3.307   8.164 -1.1458 -0.2790 -0.9935
  646MOL0     C85166   9.691   3.414   8.180  1.0205  0.1631 -0.2720
  646MOL0     C85167   9.774   3.448   8.081 -0.4939 -0.4604  0.0213
  646MOL0     C85168   9.781   3.379   7.960  1.7565 -0.4358  0.6556
  646MOL0     C85169   9.878   3.429   7.856  0.6040  1.0154  0.4471
  646MOL0     O85170   9.977   3.523   7.884  0.2333  0.1439  0.2709
  646MOL0     C85171  10.067   3.565   7.791 -0.0276 -0.3439  1.1558
  646MOL0     C85172  10.193   3.576   7.828 -0.7613  0.0407 -0.6432
  646MOL0     C85173  10.298   3.618   7.754  0.0222  0.6446  0.8881
  646MOL0     C85174  10.275   3.636   7.608  0.6528  0.8956 -0.2863
  646MOL0     O85175  10.374   3.657   7.519  1.3672  0.0588  0.6969
  646MOL0     C85176  10.506   3.660   7.562  0.6309  0.3848 -0.2817
  646MOL0     C85177  10.614   3.666   7.449  0.4151 -0.6551 -0.4645
  646MOL0     C85178  10.580   3.580   7.329  0.2172  0.4454  0.3678
  646MOL0     C85179  10.694   3.537   7.239  0.5718  0.3289 -0.0430
  646MOL0     C85180  10.760   3.651   7.171 -0.1243  0.2833  0.1332
  646MOL0     C85181  10.725   3.675   7.025 -0.4111 -0.7853  0.1444
  646MOL0     C85182  10.790   3.565   6.933  0.6692  0.3284 -0.7599
  646MOL0     C85183  10.726   3.571   6.794  0.2045 -0.3745  0.6677
  646MOL0    Cl85184  10.766   3.703   6.699 -0.2810  0.1607  0.0452
  646MOL0     C85185  10.141   3.621   7.560  0.0881 -0.3444 -0.4559
  646MOL0     C85186  10.041   3.600   7.658  0.2133 -0.0236  0.3528
  646MOL0     O85187   9.859   3.382   7.740  0.7867  0.5292 -0.0381
  646MOL0     C85188   9.681   3.285   7.936  0.5779 -0.0096 -0.9496
  646MOL0     C85189   9.587   3.255   8.035  0.9384  0.2892  0.3085
  646MOL0     N85190   9.274   2.933   8.778  0.1100  0.2891 -0.1957
  646MOL0     N85191   9.231   2.829   8.723 -0.3288  0.0175 -1.2871
  646MOL0     C85192   9.712   2.569   7.562 -1.0707  0.6299 -0.5281
  646MOL0     C85193   9.819   2.572   7.466  0.0339 -0.0303  0.2607
  646MOL0     C85194  10.072   2.544   7.118  0.4519  0.0818  1.5718
  646MOL0     C85195  10.206   2.499   7.153  0.4151 -0.1767  0.7577
  646MOL0     C85196  10.310   2.510   7.062  0.1232  1.0988 -0.2510
  646MOL0     C85197  10.286   2.573   6.941  0.1329  0.6118  0.0068
  646MOL0     O85198  10.374   2.556   6.832 -0.7847  0.3719  0.4080
  646MOL0     C85199  10.521   2.580   6.843  0.2128  0.8648 -0.7699
  646MOL0     C85200  10.578   2.650   6.721 -0.9057  0.0779  0.3547
  646MOL0     C85201  10.732   2.672   6.746 -0.3395  0.7567 -0.4105
  646MOL0     C85202  10.799   2.714   6.616 -0.9013  0.3383  0.1948
  646MOL0     C85203  10.766   2.846   6.572 -0.4068  0.1787 -0.1550
  646MOL0     C85204  10.739   2.956   6.529  0.1384  0.6370 -0.1184
  646MOL0     C85205  10.166   2.629   6.908  0.2367  0.1717 -0.0648
  646MOL0     C85206  10.050   2.610   6.991 -0.8811  0.3572 -0.2213
  646MOL0     H85207   9.902   2.249   7.457  0.3781  0.4009 -0.3274
  646MOL0     H85208   9.727   2.243   7.636  0.7665 -0.4088 -1.4302
  646MOL0     H85209   9.705   2.392   7.872  0.8111 -1.9186 -0.6172
  646MOL0     H85210   9.536   2.325   7.879 -1.2494  1.9549  2.8464
  646MOL0     H85211   9.490   2.610   7.874 -1.0482  1.8231  3.3626
  646MOL0     H85212   9.638   2.586   7.976  0.6728 -0.4981  0.4573
  646MOL0     H85213   9.549   2.438   8.117  1.2682 -0.9116 -1.7569
  646MOL0     H85214   9.391   2.427   8.052  0.3461 -1.0595  0.7368
  646MOL0     H85215   9.513   2.671   8.178  2.0586 -0.7894 -1.1877
  646MOL0     H85216   9.358   2.689   8.073  3.2042  0.8925 -1.6433
  646MOL0     H85217   9.391   2.515   8.317 -0.0755  0.3805  0.2999
  646MOL0     H85218   9.251   2.536   8.210 -0.2270  1.7258 -0.9598
  646MOL0     H85219   9.214   2.771   8.271 -0.6844 -0.8147  0.5941
  646MOL0     H85220   9.354   2.755   8.370 -0.0087 -0.0422  0.0878
  646MOL0     H85221   9.135   2.570   8.423 -0.0089  0.8345  0.3059
  646MOL0     H85222   9.272   2.619   8.515  0.9374 -0.9792 -1.3697
  646MOL0     H85223   9.054   2.688   8.598 -1.1429 -0.8809  0.6974
  646MOL0     H85224   9.012   2.789   8.474 -0.2160 -0.8283  0.7956
  646MOL0     H85225   9.181   3.029   8.472 -0.5543  2.1786  1.6051
  646MOL0     H85226   9.348   3.188   8.801 -1.4187 -0.1338  0.7852
  646MOL0     H85227   9.252   3.265   8.664  0.1285  2.2432  4.3927
  646MOL0     H85228   9.516   3.123   8.638  1.3048  0.4575 -1.4314
  646MOL0     H85229   9.496   3.300   8.639 -1.3553  0.8877 -2.8829
  646MOL0     H85230   9.406   3.113   8.419 -2.3866 -0.7592  0.8850
  646MOL0     H85231   9.356   3.281   8.434 -1.0165 -1.2057  0.3220
  646MOL0     H85232   9.643   3.176   8.389 -3.9748 -4.0421 -1.9345
  646MOL0     H85233   9.603   3.344   8.429 -1.6915 -0.3954  1.0082
  646MOL0     H85234   9.697   3.474   8.271 -0.0793  0.0885 -0.1336
  646MOL0     H85235   9.837   3.532   8.107 -3.4431  1.8419  0.3330
  646MOL0     H85236  10.216   3.565   7.934  0.8820  2.8919 -0.5913
  646MOL0     H85237  10.401   3.626   7.790 -0.6868  2.6185  2.6813
  646MOL0     H85238  10.521   3.567   7.617 -2.4577  0.4551  0.8920
  646MOL0     H85239  10.530   3.742   7.631  0.2786  0.4008 -0.1785
  646MOL0     H85240  10.707   3.632   7.495 -1.1827 -3.7550  0.7816
  646MOL0     H85241  10.622   3.770   7.416  0.6409 -0.4831  0.1300
  646MOL0     H85242  10.494   3.625   7.279 -3.0590 -4.4106  0.9563
  646MOL0     H85243  10.550   3.483   7.369 -0.7514 -0.5226 -2.5444
  646MOL0     H85244  10.762   3.473   7.295  0.1247 -0.1255 -0.0042
  646MOL0     H85245  10.647   3.472   7.164 -1.5406  1.1881  0.4564
  646MOL0     H85246  10.866   3.623   7.179  0.4098  0.7675 -3.5015
  646MOL0     H85247  10.742   3.747   7.219 -0.3553  0.1728  0.2673
  646MOL0     H85248  10.763   3.769   6.984  0.8117 -1.6589 -0.7834
  646MOL0     H85249  10.616   3.673   7.013 -0.3136  1.0781 -1.7946
  646MOL0     H85250  10.899   3.574   6.929  0.7248 -0.5904 -3.9443
  646MOL0     H85251  10.758   3.472   6.982  1.1645  0.0890 -0.8847
  646MOL0     H85252  10.617   3.560   6.799  0.0212 -1.3283 -2.8639
  646MOL0     H85253  10.755   3.485   6.733 -0.4818 -0.4961  0.4961
  646MOL0     H85254  10.116   3.623   7.454  2.0726 -1.3826 -0.9993
  646MOL0     H85255   9.944   3.599   7.609 -1.1321  2.4272  2.7084
  646MOL0     H85256   9.680   3.226   7.845 -0.4541 -2.0174  0.3114
  646MOL0     H85257   9.501   3.195   8.006  1.0179 -0.1447  0.9559
  646MOL0     H85258   9.664   2.654   7.609 -3.2052 -0.2655 -0.9870
  646MOL0     H85259   9.858   2.666   7.429  0.6893 -0.7569 -0.9833
  646MOL0     H85260  10.229   2.445   7.244 -1.1411 -1.6296  0.3616
  646MOL0     H85261  10.408   2.467   7.080 -0.5997 -0.5842 -0.1207
  646MOL0     H85262  10.559   2.477   6.838 -0.0118  0.7257  0.1368
  646MOL0     H85263  10.551   2.622   6.939  0.8806  0.4045 -0.7713
  646MOL0     H85264  10.555   2.619   6.618 -0.3735  1.6130 -0.2704
  646MOL0     H85265  10.532   2.750   6.725 -1.1581  0.0032 -0.4662
  646MOL0     H85266  10.768   2.580   6.793  0.5941  0.3897 -1.7852
  646MOL0     H85267  10.737   2.739   6.832 -3.0356 -0.7647  1.0810
  646MOL0     H85268  10.908   2.706   6.613 -0.5624  3.8238 -0.2252
  646MOL0     H85269  10.775   2.635   6.544  2.1767 -0.8872  0.3643
  646MOL0     H85270  10.699   3.049   6.495 -1.1387  0.0610 -0.2645
  646MOL0     H85271  10.150   2.680   6.813  1.3184  0.2233 -0.2337
  646MOL0     H85272   9.948   2.643   6.975 -1.6223 -1.0925  1.2571
  647MOL0     O85273   1.352  11.042   7.584 -0.2919 -0.4171 -0.3280
  647MOL0     C85274   1.418  11.107   7.509  0.3641 -0.0939  1.3983
  647MOL0     O85275   1.403  11.244   7.498 -0.7607 -0.3231  0.4426
  647MOL0     C85276   1.297  11.296   7.565 -0.7103  0.2385 -0.7706
  647MOL0     C85277   1.286  11.321   7.703 -1.1341  0.8569  0.0542
  647MOL0     C85278   1.178  11.396   7.743  0.0277 -0.1703 -0.0256
  647MOL0     C85279   1.074  11.430   7.654  0.2565 -0.4179 -0.7743
  647MOL0     O85280   0.969  11.514   7.683  0.0422  0.7237 -0.2402
  647MOL0     C85281   0.974  11.566   7.824  0.8191 -0.4178 -0.3644
  647MOL0     C85282   0.838  11.638   7.847 -0.1470  0.6787 -0.2502
  647MOL0     C85283   0.817  11.660   7.999  0.3193 -0.3402  0.6072
  647MOL0     C85284   0.695  11.749   8.026 -0.2232 -0.0556  0.1862
  647MOL0     C85285   0.678  11.771   8.179  1.1056  0.3572 -0.3460
  647MOL0     C85286   0.554  11.850   8.212 -0.1281 -1.0403 -0.0706
  647MOL0     C85287   0.570  12.000   8.175  0.5218 -0.3545  0.7730
  647MOL0     C85288   0.435  12.067   8.155  0.6310  0.3354  0.7014
  647MOL0     N85289   0.347  12.051   8.030  0.0302  0.1727 -0.3101
  647MOL0     C85290   0.388  12.016   7.899 -0.4514  0.6528 -0.1204
  647MOL0     C85291   0.281  12.008   7.826  0.5680  1.3897  0.1455
  647MOL0     C85292   0.287  11.989   7.669 -0.4381  0.2868 -0.8315
  647MOL0     C85293   0.308  11.839   7.635  0.0583  0.6183  0.2888
  647MOL0     C85294   0.270  11.815   7.497 -0.2226  0.8791  0.6210
  647MOL0     C85295   0.296  11.667   7.456  0.1224 -0.2240  0.1998
  647MOL0     O85296   0.261  11.574   7.563  0.3039  0.5798 -0.3605
  647MOL0     C85297   0.131  11.523   7.571 -0.0331  0.4726  0.4427
  647MOL0     C85298   0.021  11.560   7.497 -0.4910 -0.0628  0.9190
  647MOL0     C85299  -0.094  11.487   7.498 -0.0057 -0.9360  0.3643
  647MOL0     C85300  -0.112  11.372   7.580 -0.5955  0.1228 -0.8646
  647MOL0     C85301  -0.237  11.296   7.582 -0.1224 -0.0902  0.1543
  647MOL0     O85302  -0.250  11.203   7.687 -0.1390  0.2464  0.4395
  647MOL0     C85303  -0.352  11.114   7.682  0.3103  0.3705  0.2098
  647MOL0     C85304  -0.355  11.008   7.583  1.6063  0.1254  0.3333
  647MOL0     C85305  -0.454  10.914   7.581 -1.3767 -0.4515  0.6209
  647MOL0     C85306  -0.569  10.926   7.669 -0.1326  0.1256 -0.0178
  647MOL0     O85307  -0.675  10.839   7.674  0.1143  0.1115 -0.7672
  647MOL0     C85308  -0.725  10.815   7.547  0.0268  0.7396 -0.5673
  647MOL0     C85309  -0.861  10.747   7.565  0.2314 -0.6433 -0.2044
  647MOL0     C85310  -0.946  10.748   7.441 -0.2760 -0.2981 -0.3381
  647MOL0     C85311  -0.906  10.651   7.330  0.5346 -0.2822 -0.2128
  647MOL0     C85312  -1.026  10.645   7.228 -0.6458  0.1124 -0.5770
  647MOL0     C85313  -1.012  10.547   7.122 -0.8247 -0.2520  0.9828
  647MOL0     C85314  -0.926  10.611   7.011 -0.4970 -0.0001  0.5853
  647MOL0     C85315  -0.874  10.510   6.910 -0.1414 -0.1521 -0.5756
  647MOL0    Cl85316  -1.008  10.496   6.788  0.2990 -0.0082 -0.2558
  647MOL0     C85317  -0.567  11.022   7.769  0.0699 -0.6814  0.7833
  647MOL0     C85318  -0.467  11.126   7.763 -0.0982  0.0893  0.0151
  647MOL0     O85319  -0.316  11.303   7.487 -0.3855  0.1103 -1.5372
  647MOL0     C85320   0.003  11.338   7.663  0.9748 -0.2377 -0.5115
  647MOL0     C85321   0.117  11.412   7.655 -0.7808 -0.1225  1.0557
  647MOL0     N85322   0.172  12.033   7.912 -0.1190 -0.3533 -0.0543
  647MOL0     N85323   0.213  12.060   8.029  0.6193 -0.4826 -0.1479
  647MOL0     C85324   1.073  11.393   7.524  0.1363 -0.3435  0.4705
  647MOL0     C85325   1.188  11.335   7.476 -0.3689  0.2410 -0.6073
  647MOL0     C85326   1.521  11.048   7.420 -0.6290  0.4337  0.2749
  647MOL0     C85327   1.582  11.105   7.306  1.6963  0.2130  0.3440
  647MOL0     C85328   1.645  11.025   7.207 -0.5125  0.0732 -0.5304
  647MOL0     C85329   1.656  10.889   7.233  0.0437  0.1897  0.8679
  647MOL0     O85330   1.708  10.798   7.143 -0.0147 -0.1862  0.0239
  647MOL0     C85331   1.723  10.809   6.999 -0.1629 -1.1186  0.2813
  647MOL0     C85332   1.581  10.806   6.920 -0.5355 -0.6415  0.9748
  647MOL0     C85333   1.618  10.771   6.770  0.4792 -0.8278 -0.1558
  647MOL0     C85334   1.498  10.798   6.685 -0.4490 -0.5167  0.6142
  647MOL0     C85335   1.391  10.701   6.690  0.4282  0.5523 -0.1834
  647MOL0     C85336   1.295  10.634   6.701  0.9405 -0.6197 -0.4620
  647MOL0     C85337   1.616  10.839   7.359  1.0811  0.6545  0.7742
  647MOL0     C85338   1.550  10.917   7.444  0.3143  0.5146 -0.3665
  647MOL0     H85339   1.367  11.297   7.770 -1.7831 -1.7380  0.0206
  647MOL0     H85340   1.167  11.419   7.849 -2.2853 -0.7129 -0.1100
  647MOL0     H85341   1.055  11.639   7.833  1.1070 -0.4753 -2.1021
  647MOL0     H85342   0.981  11.484   7.896  1.4442  1.4808  1.8518
  647MOL0     H85343   0.767  11.559   7.824  0.6503 -0.7792  1.9635
  647MOL0     H85344   0.841  11.728   7.785 -0.9900 -0.7555 -2.4986
  647MOL0     H85345   0.909  11.684   8.052  2.5604 -3.1148 -1.7208
  647MOL0     H85346   0.795  11.562   8.041  0.2918 -0.8247 -0.5016
  647MOL0     H85347   0.708  11.849   7.985 -1.8952  0.4216  0.7345
  647MOL0     H85348   0.608  11.702   7.980  0.1112 -0.8337  0.3341
  647MOL0     H85349   0.763  11.822   8.224  2.7563 -0.8144 -1.9672
  647MOL0     H85350   0.671  11.674   8.230 -0.2750 -0.0202 -1.1886
  647MOL0     H85351   0.536  11.847   8.320  1.2955 -0.9639  0.1876
  647MOL0     H85352   0.471  11.800   8.160 -0.3038 -0.8878  0.0622
  647MOL0     H85353   0.629  12.057   8.247  2.7277  1.6181 -2.2905
  647MOL0     H85354   0.617  12.016   8.077  2.5625  0.0673  1.7749
  647MOL0     H85355   0.453  12.175   8.162 -1.9524  1.1901 -3.1475
  647MOL0     H85356   0.373  12.050   8.244  0.3248 -1.8155  0.1262
  647MOL0     H85357   0.495  12.022   7.879 -0.2127 -1.3510  0.3142
  647MOL0     H85358   0.379  12.041   7.642  0.1564  0.0397  0.6459
  647MOL0     H85359   0.193  12.029   7.630 -0.6224  0.5169 -0.1683
  647MOL0     H85360   0.241  11.786   7.705 -2.1500  1.0447 -1.3993
  647MOL0     H85361   0.412  11.810   7.654 -0.2777 -1.2865 -0.5088
  647MOL0     H85362   0.161  11.820   7.493 -0.2838 -0.6834 -0.6657
  647MOL0     H85363   0.329  11.874   7.426  0.8733 -2.4504 -1.5150
  647MOL0     H85364   0.403  11.673   7.432 -0.0147 -0.4111 -0.4869
  647MOL0     H85365   0.240  11.643   7.365 -1.4613  3.1701  0.1213
  647MOL0     H85366   0.033  11.628   7.414 -0.8761 -4.4853 -3.2353
  647MOL0     H85367  -0.167  11.535   7.433  0.4107 -2.9186 -1.6792
  647MOL0     H85368  -0.273  11.001   7.512  3.4900 -0.3353  2.4303
  647MOL0     H85369  -0.441  10.833   7.510  5.7505  0.5352  0.1183
  647MOL0     H85370  -0.647  10.761   7.493 -0.1358  0.3878 -0.4548
  647MOL0     H85371  -0.732  10.911   7.495  6.9050  1.7284 -0.6311
  647MOL0     H85372  -0.908  10.804   7.647 -1.8803  0.5747 -2.1341
  647MOL0     H85373  -0.859  10.647   7.608 -1.6236 -0.0367  1.5079
  647MOL0     H85374  -0.937  10.843   7.388 -0.6233 -1.4833 -2.6397
  647MOL0     H85375  -1.049  10.748   7.478 -0.4789  0.1250 -0.8994
  647MOL0     H85376  -0.826  10.709   7.282 -1.0403  2.6617  0.4562
  647MOL0     H85377  -0.873  10.554   7.368  0.7805  0.5701  1.8784
  647MOL0     H85378  -1.063  10.740   7.187  1.3736  0.5865 -1.4245
  647MOL0     H85379  -1.106  10.608   7.293 -1.7449  0.6027 -1.6023
  647MOL0     H85380  -1.113  10.540   7.081 -0.6902  0.1104  0.5841
  647MOL0     H85381  -0.978  10.448   7.155  1.6480  0.5664  1.1255
  647MOL0     H85382  -0.969  10.701   6.965  0.6726  0.0755 -0.4198
  647MOL0     H85383  -0.838  10.648   7.064  0.4428  0.3075 -1.1052
  647MOL0     H85384  -0.838  10.418   6.958  0.4446  1.3619  2.0499
  647MOL0     H85385  -0.780  10.545   6.867  0.5175  0.2415  1.1197
  647MOL0     H85386  -0.655  11.041   7.830 -0.6508  1.3435 -0.7589
  647MOL0     H85387  -0.465  11.211   7.830 -0.3968  1.0756 -1.1972
  647MOL0     H85388  -0.000  11.241   7.711  1.6243 -0.8030 -1.5503
  647MOL0     H85389   0.203  11.392   7.718 -0.2511 -0.3207  0.2873
  647MOL0     H85390   0.996  11.412   7.450  0.4256 -3.2232 -0.7006
  647MOL0     H85391   1.210  11.298   7.377  0.0484 -2.3833  0.3939
  647MOL0     H85392   1.572  11.212   7.294  2.5381  0.7116  3.2850
  647MOL0     H85393   1.671  11.092   7.126 -2.9439  0.2509 -1.2662
  647MOL0     H85394   1.770  10.714   6.972  0.8363  0.2173 -3.3732
  647MOL0     H85395   1.787  10.890   6.962 -1.4339  1.3103  2.9659
  647MOL0     H85396   1.509  10.728   6.946 -0.5566 -0.7476  0.6072
  647MOL0     H85397   1.540  10.907   6.930  1.5421  0.3443  0.0665
  647MOL0     H85398   1.632  10.662   6.765 -0.8759 -1.1565  1.9511
  647MOL0     H85399   1.709  10.822   6.736  0.2972 -0.7885 -0.5990
  647MOL0     H85400   1.458  10.897   6.708  1.2435  0.2989  0.1862
  647MOL0     H85401   1.527  10.808   6.580 -3.8999  3.7230 -0.2176
  647MOL0     H85402   1.218  10.564   6.726  0.3832  0.7213  1.8817
  647MOL0     H85403   1.625  10.732   7.376  1.5621  0.4540 -0.5960
  647MOL0     H85404   1.507  10.863   7.528 -1.5912  1.3293 -0.7533
  648MOL0     O85405  11.000  10.867  10.948 -0.8389  0.4917 -0.1345
  648MOL0     C85406  10.884  10.848  10.904 -0.4012 -0.6577 -0.2934
  648MOL0     O85407  10.844  10.733  10.836  0.8028  0.2529  0.2125
  648MOL0     C85408  10.873  10.613  10.902  0.0654  0.3242  0.2360
  648MOL0     C85409  10.991  10.552  10.867  0.5404  0.0554  0.0041
  648MOL0     C85410  11.023  10.429  10.925 -0.0144  0.3824  0.2147
  648MOL0     C85411  10.942  10.370  11.019  0.1942  0.4712  0.1622
  648MOL0     O85412  10.978  10.258  11.087 -1.1368 -1.2498 -0.3628
  648MOL0     C85413  11.020  10.141  11.013 -0.6126 -0.9195  0.5478
  648MOL0     C85414  10.931  10.017  11.051 -0.7376  0.3829  0.3612
  648MOL0     C85415  11.016   9.898  11.116 -0.0388  0.0378 -0.1850
  648MOL0     C85416  10.916   9.792  11.172 -0.1633 -0.0640  0.2496
  648MOL0     C85417  10.973   9.644  11.200 -1.1916  0.4541  0.1173
  648MOL0     C85418  10.999   9.561  11.075  0.7588  0.2011 -0.5164
  648MOL0     C85419  10.867   9.536  11.002 -0.8067 -0.8402  0.9960
  648MOL0     C85420  10.889   9.458  10.874  0.0732 -1.3855  0.2400
  648MOL0     N85421  10.899   9.538  10.749 -0.0946 -0.4844 -0.2360
  648MOL0     C85422  10.914   9.484  10.625 -0.2194  0.1557  0.0487
  648MOL0     C85423  10.937   9.587  10.546  0.6142 -1.1829  0.4866
  648MOL0     C85424  10.957   9.581  10.403 -0.2840 -0.7808 -0.0542
  648MOL0     C85425  10.837   9.588  10.313 -1.1771 -0.0256 -0.9771
  648MOL0     C85426  10.762   9.720  10.353 -0.5220  0.2624 -0.7887
  648MOL0     C85427  10.656   9.694  10.470  0.2168  0.7067 -0.0742
  648MOL0     O85428  10.564   9.809  10.460 -0.4380 -0.0173 -1.0392
  648MOL0     C85429  10.514   9.873  10.574 -0.6910  0.1454 -0.1848
  648MOL0     C85430  10.560   9.844  10.706  0.6085  0.2706 -0.1764
  648MOL0     C85431  10.528   9.920  10.813  0.3139  0.2094 -0.1058
  648MOL0     C85432  10.431  10.026  10.802  0.1266  0.5721 -0.2054
  648MOL0     C85433  10.397  10.108  10.921 -0.4590  0.7494 -0.4980
  648MOL0     O85434  10.316  10.218  10.898  0.2636  1.0086  0.4527
  648MOL0     C85435  10.268  10.297  11.000  0.5890  0.4920  0.5695
  648MOL0     C85436  10.129  10.319  11.007 -0.1501  0.4728 -0.1410
  648MOL0     C85437  10.080  10.399  11.111 -0.2753 -0.3483  0.6745
  648MOL0     C85438  10.162  10.464  11.197 -0.5960 -0.1474 -0.0624
  648MOL0     O85439  10.115  10.534  11.302 -0.9174  0.4942  0.3278
  648MOL0     C85440   9.971  10.551  11.328  0.4096  0.2860  0.4235
  648MOL0     C85441   9.964  10.640  11.454  0.8332 -0.3044  0.6608
  648MOL0     C85442  10.000  10.787  11.456  0.1016  0.2985  0.9610
  648MOL0     C85443  10.010  10.863  11.598 -0.3494  0.6122 -0.1374
  648MOL0     C85444  10.128  10.816  11.688 -0.2096 -0.9388  0.5609
  648MOL0     C85445  10.255  10.855  11.631 -1.1286  0.8043 -0.8631
  648MOL0     C85446  10.291  10.994  11.682  0.3598  1.1035 -0.9297
  648MOL0     C85447  10.390  11.075  11.601 -0.9888  0.4778 -0.8085
  648MOL0    Cl85448  10.557  10.998  11.602 -0.4475  0.1743 -0.2425
  648MOL0     C85449  10.302  10.437  11.198  1.2191 -0.2986  0.6424
  648MOL0     C85450  10.350  10.348  11.099 -0.6469 -0.1114 -0.2156
  648MOL0     O85451  10.420  10.063  11.037 -0.1793 -0.0005 -0.1131
  648MOL0     C85452  10.388  10.062  10.672 -0.5527  0.4289  0.0718
  648MOL0     C85453  10.430   9.984  10.560 -0.1344  0.3444 -0.6900
  648MOL0     N85454  10.954   9.696  10.625 -0.3024 -0.7364  1.0250
  648MOL0     N85455  10.928   9.667  10.741  0.8683  0.0721 -0.2558
  648MOL0     C85456  10.823  10.427  11.056 -0.1464 -0.2040 -0.1243
  648MOL0     C85457  10.785  10.548  10.988 -0.0945 -0.3552 -0.4952
  648MOL0     C85458  10.792  10.961  10.907 -0.0032  0.5929 -0.5964
  648MOL0     C85459  10.804  11.058  11.010  0.4349 -0.1056 -0.7909
  648MOL0     C85460  10.714  11.172  11.018  0.2227  0.7335  0.8491
  648MOL0     C85461  10.600  11.166  10.941  0.5825  0.3606  0.0126
  648MOL0     O85462  10.504  11.270  10.955 -0.1200 -0.0585  1.0928
  648MOL0     C85463  10.371  11.253  10.898  0.4234  1.3226 -1.2792
  648MOL0     C85464  10.288  11.368  10.944  0.5634 -0.0233  0.3095
  648MOL0     C85465  10.251  11.382  11.096  0.1606 -0.1347 -0.0090
  648MOL0     C85466  10.125  11.455  11.119  0.5501 -0.0173  0.9730
  648MOL0     C85467  10.117  11.591  11.067  0.0660  0.0374 -0.7407
  648MOL0     C85468  10.105  11.716  11.050 -0.4508  0.3061  0.2799
  648MOL0     C85469  10.589  11.071  10.836 -0.0891  0.0979 -0.0692
  648MOL0     C85470  10.684  10.969  10.810  0.1176 -0.6759  0.0769
  648MOL0     H85471  11.040  10.613  10.792 -3.6707  3.3735 -0.4040
  648MOL0     H85472  11.126  10.397  10.917  0.3868  1.8023 -0.4690
  648MOL0     H85473  11.126  10.122  11.034 -0.4228  0.6142  1.0831
  648MOL0     H85474  11.007  10.159  10.906  1.7059  1.7335  0.5678
  648MOL0     H85475  10.878   9.988  10.960 -0.8988 -1.0948  0.8983
  648MOL0     H85476  10.860  10.055  11.125  1.1050 -1.1402  3.0687
  648MOL0     H85477  11.084   9.930  11.196  1.8602 -1.6209 -1.0501
  648MOL0     H85478  11.085   9.864  11.038  1.7308  0.3023  1.2195
  648MOL0     H85479  10.885   9.837  11.267  1.3645  0.2458  0.6233
  648MOL0     H85480  10.822   9.798  11.116 -0.4101  2.8739  0.8191
  648MOL0     H85481  10.906   9.591  11.269 -0.0614  0.8328  1.5582
  648MOL0     H85482  11.059   9.658  11.266 -2.1190  0.4897  1.3561
  648MOL0     H85483  11.029   9.464  11.115  1.1884 -0.1942 -1.7374
  648MOL0     H85484  11.084   9.605  11.021  1.6273  0.5574  1.0609
  648MOL0     H85485  10.802   9.471  11.061  0.5340 -3.3275 -0.1062
  648MOL0     H85486  10.815   9.632  10.988 -1.4024 -0.9610  2.2568
  648MOL0     H85487  10.810   9.382  10.874 -2.4620  1.0894 -0.6131
  648MOL0     H85488  10.983   9.402  10.881  2.1569  2.0294  3.5783
  648MOL0     H85489  10.906   9.379  10.599  1.6080  0.1748 -0.8112
  648MOL0     H85490  11.007   9.485  10.387  1.3900  0.3239 -1.8628
  648MOL0     H85491  11.033   9.658  10.388  1.7525 -2.1916  2.2128
  648MOL0     H85492  10.772   9.501  10.329 -1.2165  0.3603  1.2763
  648MOL0     H85493  10.869   9.584  10.208 -2.9958 -0.6110 -1.5494
  648MOL0     H85494  10.822   9.801  10.395 -1.8712  0.7134  0.3426
  648MOL0     H85495  10.703   9.766  10.273 -4.1551  3.0863  3.0871
  648MOL0     H85496  10.702   9.677  10.568 -3.0268  2.6989  1.9551
  648MOL0     H85497  10.590   9.609  10.452  1.0808 -0.4879  2.0496
  648MOL0     H85498  10.621   9.757  10.728 -0.1724 -0.0133  0.9170
  648MOL0     H85499  10.564   9.883  10.909  1.5213  0.3321 -0.4975
  648MOL0     H85500  10.060  10.268  10.940 -0.7195 -1.1854  1.6184
  648MOL0     H85501   9.972  10.413  11.116 -0.0431  0.9564  2.8266
  648MOL0     H85502   9.933  10.451  11.348  0.7922  0.1224  0.3214
  648MOL0     H85503   9.924  10.600  11.242  0.0388  0.6423  0.8219
  648MOL0     H85504  10.027  10.594  11.531  2.7346  0.2652 -0.4902
  648MOL0     H85505   9.862  10.633  11.492  0.3797 -3.5150 -0.7662
  648MOL0     H85506   9.923  10.835  11.395  0.9184 -1.3271 -1.4947
  648MOL0     H85507  10.095  10.804  11.403 -1.2254 -0.2933 -1.7534
  648MOL0     H85508  10.009  10.972  11.584  0.2433  0.6935  0.4168
  648MOL0     H85509   9.918  10.833  11.649 -1.2959  0.4095 -1.8891
  648MOL0     H85510  10.121  10.707  11.701  1.0316 -0.8634  2.2305
  648MOL0     H85511  10.133  10.873  11.781 -0.0927  3.4235 -1.8663
  648MOL0     H85512  10.249  10.854  11.521  0.8612  0.0924 -0.9981
  648MOL0     H85513  10.332  10.792  11.675 -1.1252  2.9475  2.5592
  648MOL0     H85514  10.200  11.052  11.692 -1.4050 -1.8262  2.1297
  648MOL0     H85515  10.335  10.979  11.781  0.9190 -0.8323 -1.4257
  648MOL0     H85516  10.396  11.177  11.639  5.0833 -0.1718  1.0168
  648MOL0     H85517  10.356  11.074  11.497  0.1071  0.8738 -1.1753
  648MOL0     H85518  10.356  10.483  11.280  0.4556 -1.8509  2.0901
  648MOL0     H85519  10.457  10.333  11.086 -0.6923 -0.3310 -0.3256
  648MOL0     H85520  10.318  10.144  10.665 -1.6745 -0.3176  1.8946
  648MOL0     H85521  10.411  10.018  10.458  1.3839 -1.1746 -1.5259
  648MOL0     H85522  10.758  10.407  11.141 -1.8676  0.1811 -1.2854
  648MOL0     H85523  10.691  10.594  11.018  0.2921  1.5598 -2.0201
  648MOL0     H85524  10.876  11.045  11.090 -0.4058  1.7847  0.3740
  648MOL0     H85525  10.704  11.243  11.099 -0.5775 -0.2571  1.6531
  648MOL0     H85526  10.333  11.155  10.927  3.0531  0.8695  1.0671
  648MOL0     H85527  10.375  11.257  10.789 -0.6523 -3.9702 -1.7403
  648MOL0     H85528  10.341  11.461  10.918  0.8307 -0.4394 -0.6790
  648MOL0     H85529  10.190  11.362  10.897  1.4289  0.4017 -1.6597
  648MOL0     H85530  10.341  11.424  11.141  2.5830 -2.8337 -1.9358
  648MOL0     H85531  10.234  11.290  11.152  0.1760  0.9283  1.8005
  648MOL0     H85532  10.046  11.400  11.066  2.3443  0.2165 -2.1181
  648MOL0     H85533  10.110  11.452  11.228 -2.7795  0.0070  0.6372
  648MOL0     H85534  10.106  11.817  11.016 -2.1188 -0.2302 -1.5073
  648MOL0     H85535  10.518  11.085  10.755  1.7211  2.1348 -1.4161
  648MOL0     H85536  10.679  10.892  10.734  0.2060 -0.0398 -0.5787
  649MOL0     O85537  10.648   4.056   4.415 -0.1221 -0.2647 -0.6515
  649MOL0     C85538  10.604   3.953   4.361 -0.6168 -0.0431  0.0651
  649MOL0     O85539  10.592   3.932   4.228 -0.3625 -0.4698  0.2803
  649MOL0     C85540  10.660   4.001   4.131  0.1389  0.8234 -0.6288
  649MOL0     C85541  10.701   4.137   4.133  0.0013 -0.1035  0.4416
  649MOL0     C85542  10.770   4.192   4.024  0.5702  0.2429 -0.4338
  649MOL0     C85543  10.790   4.121   3.903 -0.7460 -0.0006  0.3140
  649MOL0     O85544  10.857   4.159   3.790 -0.1571 -0.6035  0.0397
  649MOL0     C85545  10.954   4.262   3.811  0.6045 -0.2580 -0.2323
  649MOL0     C85546  11.047   4.259   3.693  0.2771  0.2065  0.5557
  649MOL0     C85547  11.162   4.362   3.677  0.7520  0.4118  0.5180
  649MOL0     C85548  11.112   4.503   3.722  0.3362 -0.6504 -0.9616
  649MOL0     C85549  11.171   4.606   3.636 -0.7649  0.6961  0.5848
  649MOL0     C85550  11.126   4.744   3.689 -0.2203 -0.1195  0.3267
  649MOL0     C85551  11.206   4.852   3.609 -0.1279 -1.1226  0.6971
  649MOL0     C85552  11.355   4.862   3.652 -0.4835  0.1935  0.6473
  649MOL0     N85553  11.434   4.976   3.613  0.1225  0.6801  0.4387
  649MOL0     C85554  11.419   5.035   3.488  0.5343  0.5692  0.1198
  649MOL0     C85555  11.495   5.147   3.497  0.4243 -0.6951  0.7614
  649MOL0     C85556  11.523   5.248   3.393  0.8714  0.1964 -0.0756
  649MOL0     C85557  11.405   5.298   3.307 -0.4114  0.3240  0.3604
  649MOL0     C85558  11.309   5.369   3.405 -0.3649 -0.9233 -0.2132
  649MOL0     C85559  11.193   5.445   3.333  0.3245  0.1630 -0.0488
  649MOL0     O85560  11.106   5.492   3.437  0.3572  0.1554 -0.3382
  649MOL0     C85561  11.019   5.600   3.428  0.2969 -0.4374  0.6154
  649MOL0     C85562  11.059   5.731   3.439  0.5973 -0.5815 -1.1099
  649MOL0     C85563  10.982   5.842   3.413  0.2861  0.1974  0.2444
  649MOL0     C85564  10.853   5.826   3.377 -0.3726 -0.3083 -0.1285
  649MOL0     C85565  10.770   5.944   3.347 -0.5613 -0.1961 -0.6476
  649MOL0     O85566  10.814   6.067   3.385  0.0764  1.0163  0.0087
  649MOL0     C85567  10.732   6.176   3.348  1.0759  0.0068 -0.4839
  649MOL0     C85568  10.698   6.212   3.213 -0.0477  0.3510 -0.2417
  649MOL0     C85569  10.598   6.309   3.192 -0.0009  0.2390 -0.1757
  649MOL0     C85570  10.558   6.389   3.295 -0.3224  0.0211  0.1086
  649MOL0     O85571  10.490   6.498   3.272 -0.6318 -0.1348 -0.1082
  649MOL0     C85572  10.539   6.599   3.179  0.2248  0.5574  0.7756
  649MOL0     C85573  10.541   6.742   3.246  0.7424 -0.8905 -0.6329
  649MOL0     C85574  10.576   6.852   3.149  0.2348 -0.3415  0.0958
  649MOL0     C85575  10.724   6.856   3.094  0.0401 -0.1970 -0.3786
  649MOL0     C85576  10.749   6.964   2.985  0.8984  0.9337 -0.3933
  649MOL0     C85577  10.879   6.929   2.913 -1.0746  0.0816 -0.4483
  649MOL0     C85578  10.996   6.938   3.002 -0.7208  0.2219 -0.4806
  649MOL0     C85579  11.105   6.885   2.904  0.2179  0.6327 -0.1866
  649MOL0    Cl85580  11.100   6.707   2.893  0.2384 -0.5202 -0.2103
  649MOL0     C85581  10.582   6.352   3.431 -0.0199  0.0207  0.6562
  649MOL0     C85582  10.667   6.247   3.454 -0.4251  0.6669  0.5183
  649MOL0     O85583  10.657   5.919   3.296 -0.2236  0.0702  0.5586
  649MOL0     C85584  10.809   5.692   3.359  0.8458 -0.1453 -0.4752
  649MOL0     C85585  10.885   5.576   3.384 -1.0603  0.1730  0.0984
  649MOL0     N85586  11.553   5.152   3.629  0.0075  0.6512  0.4367
  649MOL0     N85587  11.510   5.044   3.693 -0.3711  0.3558 -0.1816
  649MOL0     C85588  10.739   3.992   3.902  0.4745  0.4261  0.4003
  649MOL0     C85589  10.685   3.935   4.015  0.4577  0.0570  0.5191
  649MOL0     C85590  10.552   3.851   4.451 -0.0679  0.8175  0.4182
  649MOL0     C85591  10.543   3.871   4.592 -0.3171 -0.2115 -0.0790
  649MOL0     C85592  10.475   3.779   4.676  0.8253 -0.6163  0.3719
  649MOL0     C85593  10.407   3.673   4.620 -0.4638 -0.6023 -0.4173
  649MOL0     O85594  10.332   3.585   4.695 -0.2898  0.1452 -0.6130
  649MOL0     C85595  10.269   3.627   4.823  1.3138 -0.3513  0.1350
  649MOL0     C85596  10.144   3.708   4.794 -0.5065  0.0685  0.2607
  649MOL0     C85597  10.101   3.792   4.911 -0.4166 -0.7116 -1.9881
  649MOL0     C85598  10.174   3.921   4.933 -0.2914 -0.7946  0.2675
  649MOL0     C85599  10.139   3.992   5.052 -1.2525  0.8258 -1.1278
  649MOL0     C85600  10.110   4.042   5.157 -1.2089  0.1970  0.0892
  649MOL0     C85601  10.432   3.636   4.489 -0.2512 -1.5049 -0.5359
  649MOL0     C85602  10.490   3.727   4.402  0.1230 -0.2642  0.7363
  649MOL0     H85603  10.693   4.195   4.224 -0.3416 -0.4833  0.6555
  649MOL0     H85604  10.798   4.296   4.041 -0.8987  0.7175 -0.7872
  649MOL0     H85605  11.010   4.253   3.905  0.9493  0.9445 -0.3077
  649MOL0     H85606  10.898   4.355   3.819 -0.7643 -0.8847 -1.9370
  649MOL0     H85607  10.983   4.261   3.605  1.7938  1.1633 -0.5742
  649MOL0     H85608  11.113   4.173   3.708  0.3072  0.1178 -0.0868
  649MOL0     H85609  11.187   4.370   3.571 -1.8269 -1.5576 -0.3562
  649MOL0     H85610  11.257   4.331   3.721 -0.1730 -5.0490 -0.6119
  649MOL0     H85611  11.005   4.525   3.713  0.7919  2.2797 -0.1531
  649MOL0     H85612  11.149   4.524   3.823  3.5915 -3.7727 -1.2959
  649MOL0     H85613  11.130   4.593   3.535 -1.5983  3.8341  0.4172
  649MOL0     H85614  11.279   4.590   3.631 -0.7827  0.8848 -2.5665
  649MOL0     H85615  11.155   4.750   3.794  2.4911 -2.1115 -0.2181
  649MOL0     H85616  11.017   4.760   3.693  0.1149  3.2547 -0.8658
  649MOL0     H85617  11.193   4.827   3.504  1.0649 -2.6829  0.8758
  649MOL0     H85618  11.152   4.946   3.627 -0.8397 -1.2996 -0.4712
  649MOL0     H85619  11.396   4.766   3.617 -0.6147 -1.4752  4.5993
  649MOL0     H85620  11.362   4.848   3.760  2.0680  0.2873  0.5690
  649MOL0     H85621  11.365   5.005   3.398  0.5447  0.6178  0.0975
  649MOL0     H85622  11.608   5.214   3.334 -0.2075 -2.4267 -0.2301
  649MOL0     H85623  11.559   5.333   3.451  0.0485 -0.4119  1.3904
  649MOL0     H85624  11.362   5.215   3.250  3.8049 -1.1625 -1.0632
  649MOL0     H85625  11.435   5.369   3.230  0.0120 -0.1864  0.0553
  649MOL0     H85626  11.270   5.296   3.477 -2.1312 -0.1723 -0.3835
  649MOL0     H85627  11.368   5.446   3.456 -1.2013 -0.3485 -0.0942
  649MOL0     H85628  11.143   5.375   3.267 -4.3923  1.9725  1.1995
  649MOL0     H85629  11.231   5.537   3.286 -1.4797  1.4777  0.9239
  649MOL0     H85630  11.163   5.751   3.463  0.8958 -0.9940 -1.9840
  649MOL0     H85631  11.032   5.936   3.434 -0.3410  0.4114  0.8306
  649MOL0     H85632  10.729   6.152   3.129 -0.1680 -2.8122  1.8007
  649MOL0     H85633  10.549   6.318   3.096 -0.2566  2.3544  0.1108
  649MOL0     H85634  10.474   6.598   3.091  1.2643  1.6654 -0.0409
  649MOL0     H85635  10.635   6.573   3.133  0.2330  1.8515 -0.0097
  649MOL0     H85636  10.620   6.753   3.321  2.1994  1.5040 -2.3665
  649MOL0     H85637  10.443   6.768   3.288  0.2751 -2.2606 -0.8161
  649MOL0     H85638  10.554   6.947   3.198  0.0567 -0.6226  0.5749
  649MOL0     H85639  10.508   6.844   3.063 -0.5194  0.4532  0.6019
  649MOL0     H85640  10.785   6.855   3.185 -1.7721  1.2537  0.9291
  649MOL0     H85641  10.741   6.757   3.049  1.5791  0.4176 -1.2335
  649MOL0     H85642  10.763   7.065   3.024 -2.5966  0.8303  1.5408
  649MOL0     H85643  10.660   6.956   2.922  2.8413 -2.5575 -3.0441
  649MOL0     H85644  10.887   7.007   2.836 -0.0386  0.3060 -0.1275
  649MOL0     H85645  10.864   6.837   2.856 -0.1413  1.6299 -3.4324
  649MOL0     H85646  11.018   7.045   3.014  1.9562 -0.3021 -0.2562
  649MOL0     H85647  10.983   6.890   3.099  2.0257 -1.1111 -0.6993
  649MOL0     H85648  11.199   6.922   2.947  0.9883  2.1052 -2.9156
  649MOL0     H85649  11.096   6.928   2.804 -0.5743 -0.3930 -0.5811
  649MOL0     H85650  10.541   6.413   3.512 -0.6275  1.2671 -0.5412
  649MOL0     H85651  10.689   6.209   3.553  1.4599 -1.4060 -0.5790
  649MOL0     H85652  10.706   5.683   3.326 -0.1805 -0.3241  2.4612
  649MOL0     H85653  10.846   5.476   3.364 -3.3477  0.9465  0.4204
  649MOL0     H85654  10.759   3.929   3.816  1.9915 -0.4860  1.3719
  649MOL0     H85655  10.658   3.832   3.993  3.6663 -0.3225 -2.6108
  649MOL0     H85656  10.572   3.971   4.625  0.7643  0.6799 -3.3155
  649MOL0     H85657  10.455   3.799   4.780  1.7138  2.0007  0.0923
  649MOL0     H85658  10.341   3.673   4.892 -0.6445  2.9615  0.2054
  649MOL0     H85659  10.230   3.541   4.877 -1.1394  0.7178  0.1924
  649MOL0     H85660  10.161   3.777   4.711  1.0441 -1.2133 -0.5355
  649MOL0     H85661  10.065   3.637   4.768  0.1381 -0.5337 -0.0868
  649MOL0     H85662  10.107   3.718   4.991  1.9545  2.7242  1.3353
  649MOL0     H85663   9.996   3.823   4.901 -0.5088 -0.9428 -1.7401
  649MOL0     H85664  10.281   3.899   4.941 -0.5343 -1.3150  3.2561
  649MOL0     H85665  10.162   3.981   4.843  1.9938 -0.0115  0.4206
  649MOL0     H85666  10.096   4.082   5.255  2.4695  0.6948  0.5729
  649MOL0     H85667  10.383   3.550   4.446 -1.8586  1.1249 -4.4669
  649MOL0     H85668  10.494   3.694   4.299 -5.8330 -2.5667  0.8833
  650MOL0     O85669   3.749   2.783   5.216 -0.2014 -0.2001 -0.1666
  650MOL0     C85670   3.737   2.667   5.197  0.8238 -0.2607  0.2395
  650MOL0     O85671   3.826   2.568   5.234  0.3445  0.6097  0.2760
  650MOL0     C85672   3.949   2.597   5.298 -0.0884 -0.0912 -0.3088
  650MOL0     C85673   4.017   2.723   5.303  0.4617  0.2813 -0.5829
  650MOL0     C85674   4.141   2.734   5.364  0.1452  1.0234  0.0942
  650MOL0     C85675   4.196   2.631   5.442 -0.1908  0.5786  0.7743
  650MOL0     O85676   4.319   2.631   5.499  0.2698 -0.1747 -0.6838
  650MOL0     C85677   4.355   2.746   5.580 -0.1190  0.1361  0.2877
  650MOL0     C85678   4.470   2.704   5.676 -0.3560  0.0970  0.6174
  650MOL0     C85679   4.480   2.798   5.799 -0.3090 -0.5002  0.0082
  650MOL0     C85680   4.537   2.735   5.924  0.1379 -0.1681 -0.6911
  650MOL0     C85681   4.442   2.639   5.999  0.2187 -0.4773 -0.9055
  650MOL0     C85682   4.528   2.576   6.117  1.0519  0.3220 -0.6234
  650MOL0     C85683   4.439   2.490   6.220 -0.3217 -0.1496 -0.1266
  650MOL0     C85684   4.330   2.570   6.307 -0.2977 -0.0313  0.0285
  650MOL0     N85685   4.253   2.481   6.397 -0.6111 -0.0878 -0.9338
  650MOL0     C85686   4.122   2.489   6.399 -0.5828 -0.2112  0.1492
  650MOL0     C85687   4.086   2.364   6.429  0.0746  0.3301  0.4147
  650MOL0     C85688   3.940   2.310   6.455  0.0440 -0.6826 -0.2999
  650MOL0     C85689   3.875   2.371   6.579  0.1065  0.1885  0.4091
  650MOL0     C85690   3.948   2.318   6.715  0.2563  0.2629 -0.6316
  650MOL0     C85691   3.979   2.169   6.716  0.3863 -1.1318 -0.9845
  650MOL0     O85692   3.876   2.085   6.671  0.0530  0.6444  0.5110
  650MOL0     C85693   3.869   1.965   6.739  0.4981 -0.3475 -0.3948
  650MOL0     C85694   3.835   1.968   6.878 -0.6517 -1.4366 -0.5387
  650MOL0     C85695   3.819   1.848   6.946 -0.5111  0.5734 -0.6079
  650MOL0     C85696   3.827   1.728   6.875  1.3575 -0.2004 -0.3383
  650MOL0     C85697   3.803   1.601   6.947 -1.0258  0.2724  0.1039
  650MOL0     O85698   3.776   1.504   6.863  0.3161 -1.1562 -0.3029
  650MOL0     C85699   3.818   1.377   6.898 -0.2764 -0.0770  1.0146
  650MOL0     C85700   3.752   1.272   6.824 -0.2612  0.2833 -0.9357
  650MOL0     C85701   3.773   1.135   6.846 -0.8112  0.7738 -0.3056
  650MOL0     C85702   3.863   1.095   6.944 -0.4096 -0.6960  0.5150
  650MOL0     O85703   3.872   0.957   6.965  0.0712  0.1212  0.5631
  650MOL0     C85704   3.966   0.900   7.058  0.0578 -0.4196  0.3696
  650MOL0     C85705   3.967   0.746   7.043 -0.1203 -0.4232 -0.0838
  650MOL0     C85706   4.052   0.701   6.922 -0.1775  1.0721  0.7392
  650MOL0     C85707   4.204   0.707   6.948 -0.0375 -0.2020  1.3720
  650MOL0     C85708   4.276   0.714   6.815  0.3921  0.0056 -1.2229
  650MOL0     C85709   4.228   0.595   6.724 -0.6072  0.9232 -0.4283
  650MOL0     C85710   4.307   0.589   6.593  0.4976  0.1706  0.9078
  650MOL0     C85711   4.403   0.470   6.590  0.2656  0.5620 -0.5791
  650MOL0    Cl85712   4.530   0.478   6.704  0.2716 -0.2797  0.3156
  650MOL0     C85713   3.931   1.198   7.017 -0.2226 -0.6017 -0.7196
  650MOL0     C85714   3.921   1.342   6.987  0.6362 -0.6723 -0.3983
  650MOL0     O85715   3.804   1.581   7.072 -0.3181  0.0567 -0.1771
  650MOL0     C85716   3.872   1.725   6.735  0.1866 -0.2827 -0.5278
  650MOL0     C85717   3.890   1.843   6.676 -0.3812  1.4278  0.3236
  650MOL0     N85718   4.195   2.286   6.451 -0.6760  0.0725  0.5508
  650MOL0     N85719   4.302   2.361   6.446 -1.1468 -0.1877  0.5021
  650MOL0     C85720   4.128   2.509   5.433  0.4698 -0.9309  0.8177
  650MOL0     C85721   4.006   2.492   5.368 -0.5780 -0.4666  0.4748
  650MOL0     C85722   3.613   2.620   5.129  0.6008 -0.0027  0.5739
  650MOL0     C85723   3.597   2.481   5.102 -0.5071  0.4120 -0.2115
  650MOL0     C85724   3.483   2.439   5.046  0.8124 -0.4189 -1.0292
  650MOL0     C85725   3.386   2.532   4.996  1.0403  0.3379  0.3707
  650MOL0     O85726   3.260   2.486   4.959 -0.2125  0.6815 -0.0905
  650MOL0     C85727   3.244   2.383   4.862 -0.3030 -0.1522 -0.2041
  650MOL0     C85728   3.327   2.424   4.727 -0.4470 -1.0113 -0.1136
  650MOL0     C85729   3.259   2.361   4.604  0.2180 -0.6624 -0.1129
  650MOL0     C85730   3.331   2.419   4.476  0.4084  1.1123  0.4916
  650MOL0     C85731   3.272   2.349   4.359 -0.4729 -0.0011 -0.5475
  650MOL0     C85732   3.220   2.287   4.275 -0.4452  0.2368  0.5498
  650MOL0     C85733   3.405   2.668   5.017 -0.2913 -0.2850  0.4193
  650MOL0     C85734   3.522   2.710   5.091  0.9133  0.0699  0.4506
  650MOL0     H85735   3.982   2.810   5.248 -0.0361  0.1803 -0.4296
  650MOL0     H85736   4.201   2.825   5.360 -1.7825  2.4058  1.0072
  650MOL0     H85737   4.269   2.776   5.641 -0.7123  1.7835 -1.2751
  650MOL0     H85738   4.383   2.841   5.534  1.3122 -0.6208 -0.4804
  650MOL0     H85739   4.562   2.704   5.617 -0.9052  2.6831 -0.3510
  650MOL0     H85740   4.443   2.602   5.707 -3.2081  1.3340  2.5680
  650MOL0     H85741   4.377   2.827   5.821 -0.1305 -0.1490  0.4040
  650MOL0     H85742   4.535   2.891   5.779  0.9077 -0.7714  1.8382
  650MOL0     H85743   4.636   2.693   5.907  2.6743  4.1918  1.4385
  650MOL0     H85744   4.549   2.809   6.004 -0.2119 -1.7998  0.9496
  650MOL0     H85745   4.396   2.558   5.940 -1.3180  0.3469 -0.8731
  650MOL0     H85746   4.355   2.696   6.034  1.1783  0.0847  0.6209
  650MOL0     H85747   4.566   2.664   6.169  2.7482  0.4649 -2.0134
  650MOL0     H85748   4.600   2.511   6.066 -3.7657 -2.2549 -5.2065
  650MOL0     H85749   4.386   2.427   6.148  0.1603  2.0886 -2.6494
  650MOL0     H85750   4.502   2.427   6.282  0.8493 -3.9128 -4.5345
  650MOL0     H85751   4.267   2.624   6.236 -1.8551 -0.5850  0.9535
  650MOL0     H85752   4.374   2.648   6.371  3.6359  1.1950 -3.6764
  650MOL0     H85753   4.051   2.571   6.388  0.6863  0.6911 -1.9098
  650MOL0     H85754   3.951   2.201   6.453  1.0065 -0.6577 -3.8733
  650MOL0     H85755   3.881   2.341   6.368  0.5870  1.2920  0.0016
  650MOL0     H85756   3.768   2.348   6.582  0.3500 -0.9213  0.8728
  650MOL0     H85757   3.899   2.477   6.566  3.0546 -0.2754  1.4250
  650MOL0     H85758   4.041   2.374   6.727  0.5696 -0.7918  4.4049
  650MOL0     H85759   3.885   2.351   6.798  2.1306  3.5205 -0.3178
  650MOL0     H85760   4.014   2.152   6.818 -0.1254  0.7103 -0.4447
  650MOL0     H85761   4.067   2.157   6.653  0.5812 -3.8805 -0.2995
  650MOL0     H85762   3.821   2.069   6.916 -0.6841 -1.6129 -0.0869
  650MOL0     H85763   3.783   1.853   7.048 -1.0455 -0.9456 -0.6977
  650MOL0     H85764   3.669   1.307   6.764 -2.6198  2.0760  3.0250
  650MOL0     H85765   3.727   1.067   6.775 -3.5855  3.1224 -0.9676
  650MOL0     H85766   3.937   0.926   7.160 -0.1713 -0.2570  0.2632
  650MOL0     H85767   4.064   0.945   7.040 -1.2039  1.9466 -1.0373
  650MOL0     H85768   3.862   0.718   7.032 -0.7900  1.3309  1.3154
  650MOL0     H85769   3.980   0.704   7.143 -2.6000  0.0723  0.5297
  650MOL0     H85770   4.024   0.773   6.844 -1.6006  1.8467  1.8931
  650MOL0     H85771   4.013   0.600   6.908  1.6157  0.3769  0.5774
  650MOL0     H85772   4.241   0.792   7.005  2.4020 -0.2492 -0.0110
  650MOL0     H85773   4.235   0.614   6.997 -2.1506 -1.9401 -0.3564
  650MOL0     H85774   4.383   0.706   6.834  0.0408 -1.3011  0.5236
  650MOL0     H85775   4.255   0.809   6.766 -0.7094  1.6328  2.1087
  650MOL0     H85776   4.120   0.596   6.708 -0.9152 -1.0889  1.0927
  650MOL0     H85777   4.247   0.506   6.785 -1.9960  2.0896  1.8366
  650MOL0     H85778   4.242   0.574   6.506  0.8575 -0.5651  0.7564
  650MOL0     H85779   4.356   0.685   6.574  1.1288 -0.3968 -0.4636
  650MOL0     H85780   4.439   0.487   6.488  0.6682 -0.7534 -0.6751
  650MOL0     H85781   4.347   0.376   6.596  0.3586  0.5112 -0.4906
  650MOL0     H85782   4.009   1.173   7.088  0.3175  2.6791  0.0444
  650MOL0     H85783   3.988   1.413   7.034  1.6930 -2.5468  1.0580
  650MOL0     H85784   3.900   1.634   6.683  1.9741 -0.9608  1.4983
  650MOL0     H85785   3.929   1.837   6.575  0.2794  0.7284  0.6135
  650MOL0     H85786   4.178   2.423   5.476 -3.9508 -3.2822  1.9198
  650MOL0     H85787   3.953   2.400   5.387  0.0708 -1.2133 -1.1224
  650MOL0     H85788   3.674   2.420   5.149 -0.8775  1.6312  2.1719
  650MOL0     H85789   3.455   2.334   5.049 -1.0509  0.0788  1.1111
  650MOL0     H85790   3.136   2.380   4.843 -1.0103  2.6705  2.5935
  650MOL0     H85791   3.264   2.282   4.899  0.3525  0.4519  1.1565
  650MOL0     H85792   3.318   2.532   4.721 -1.4502 -1.0271  0.6458
  650MOL0     H85793   3.430   2.388   4.737 -0.4735 -0.7679  1.2840
  650MOL0     H85794   3.162   2.410   4.591  0.5691  0.3620  0.9604
  650MOL0     H85795   3.264   2.252   4.607  3.9956 -0.5954  0.0763
  650MOL0     H85796   3.300   2.524   4.474 -2.0316  0.4585  1.0718
  650MOL0     H85797   3.436   2.391   4.482 -0.4325 -2.3450  1.0643
  650MOL0     H85798   3.177   2.218   4.205  4.0629 -3.7150  1.1339
  650MOL0     H85799   3.332   2.742   4.985  2.7841  2.1063 -1.7248
  650MOL0     H85800   3.532   2.817   5.107  0.4877  0.4224 -1.4151
  651MOL0     O85801   8.764   4.646   6.694 -0.0398  0.3983 -0.8191
  651MOL0     C85802   8.842   4.606   6.784 -0.6282  0.4728  0.1572
  651MOL0     O85803   8.841   4.482   6.846 -0.2172  0.2741  0.0087
  651MOL0     C85804   8.724   4.403   6.844  0.2675 -0.4835 -1.3989
  651MOL0     C85805   8.722   4.262   6.872  0.4379  1.0864  0.5773
  651MOL0     C85806   8.603   4.184   6.855  0.2815  0.2090 -0.2590
  651MOL0     C85807   8.478   4.250   6.840  0.4099 -0.5772 -0.4005
  651MOL0     O85808   8.371   4.185   6.812  0.8287 -0.1621 -0.5391
  651MOL0     C85809   8.349   4.055   6.862  0.3390 -0.2913 -0.0285
  651MOL0     C85810   8.211   4.024   6.785 -0.1510  0.2063 -0.4843
  651MOL0     C85811   8.172   3.883   6.824 -0.4577 -0.2873  0.1269
  651MOL0     C85812   8.123   3.876   6.960  0.7228  0.2305  0.0063
  651MOL0     C85813   8.072   3.742   6.993  0.0470 -0.0142 -0.5124
  651MOL0     C85814   8.003   3.757   7.138 -0.6247  0.7094  0.7531
  651MOL0     C85815   7.871   3.838   7.135 -1.1067  1.1194 -0.4109
  651MOL0     C85816   7.778   3.820   7.261 -0.3217 -0.3549 -0.0434
  651MOL0     N85817   7.644   3.801   7.201 -0.3806 -0.0244  0.2120
  651MOL0     C85818   7.573   3.684   7.164  0.2115  0.7512  0.8488
  651MOL0     C85819   7.446   3.722   7.126 -0.8805  0.2337  0.5733
  651MOL0     C85820   7.340   3.619   7.103 -0.1737 -0.3586 -0.4535
  651MOL0     C85821   7.271   3.601   7.231 -0.2213 -1.3913  0.5881
  651MOL0     C85822   7.153   3.497   7.207  0.1669 -0.9730 -0.7590
  651MOL0     C85823   7.063   3.515   7.331  0.7618  0.5415 -1.1448
  651MOL0     O85824   6.984   3.638   7.337  0.5604  0.1173 -0.0601
  651MOL0     C85825   6.864   3.644   7.271 -0.2110 -0.4398  0.4331
  651MOL0     C85826   6.843   3.715   7.148 -0.4874 -0.4956 -0.6536
  651MOL0     C85827   6.719   3.738   7.099 -0.6567  0.3128  0.5076
  651MOL0     C85828   6.603   3.694   7.171 -0.6645  0.5756  0.4344
  651MOL0     C85829   6.452   3.721   7.131  0.8106  0.2492 -0.4868
  651MOL0     O85830   6.360   3.661   7.210 -0.0430 -0.2499  0.2260
  651MOL0     C85831   6.222   3.676   7.186  0.2621 -0.2122 -0.4909
  651MOL0     C85832   6.155   3.772   7.109  0.2125 -0.4731  0.3114
  651MOL0     C85833   6.016   3.787   7.106  0.0488  0.2238 -0.5780
  651MOL0     C85834   5.941   3.715   7.192 -0.6144 -0.2482 -0.3246
  651MOL0     O85835   5.808   3.730   7.166 -0.0539  0.1472  0.4120
  651MOL0     C85836   5.710   3.642   7.230 -0.0725  0.3033 -1.0754
  651MOL0     C85837   5.560   3.652   7.184  0.3467 -0.1039  0.1725
  651MOL0     C85838   5.523   3.795   7.182  0.4411 -0.3160  0.5129
  651MOL0     C85839   5.376   3.812   7.190 -0.2948 -0.1892 -0.3030
  651MOL0     C85840   5.313   3.938   7.138 -0.3382  0.4450 -0.5012
  651MOL0     C85841   5.163   3.936   7.118 -0.2280  0.4312  0.4479
  651MOL0     C85842   5.089   4.062   7.129 -1.1104 -0.1866  0.9409
  651MOL0     C85843   5.124   4.157   7.016  0.3366 -0.1168 -0.9461
  651MOL0    Cl85844   5.061   4.091   6.858 -0.1262 -0.2122 -0.2719
  651MOL0     C85845   5.996   3.614   7.277 -0.5325  0.4206  0.5522
  651MOL0     C85846   6.140   3.590   7.265 -0.2520  1.1280 -0.1765
  651MOL0     O85847   6.433   3.765   7.024 -0.4374 -1.2994 -0.4133
  651MOL0     C85848   6.626   3.625   7.298  0.5870  0.1573  0.3131
  651MOL0     C85849   6.755   3.603   7.345 -0.3448  0.2677  0.9859
  651MOL0     N85850   7.436   3.853   7.155  0.0606 -0.7604  0.7070
  651MOL0     N85851   7.547   3.903   7.191 -0.7925  0.7387  0.8611
  651MOL0     C85852   8.478   4.392   6.844  0.0688 -0.0218  0.6579
  651MOL0     C85853   8.597   4.464   6.836  0.0327  0.2095  0.9609
  651MOL0     C85854   8.958   4.683   6.830  2.0831  0.3209  0.0039
  651MOL0     C85855   8.979   4.817   6.795 -0.4547  0.3642  0.1750
  651MOL0     C85856   9.086   4.888   6.846  0.1442  0.0277  0.7684
  651MOL0     C85857   9.187   4.830   6.921  0.2073 -0.6024 -0.6910
  651MOL0     O85858   9.307   4.889   6.959  0.6566 -0.1853  0.5952
  651MOL0     C85859   9.305   5.036   6.951 -0.4567 -0.2602  0.3142
  651MOL0     C85860   9.422   5.086   7.037  0.8624  0.3804 -0.8491
  651MOL0     C85861   9.410   5.064   7.189  0.8753 -0.5469 -0.3326
  651MOL0     C85862   9.275   5.114   7.253 -0.3981 -0.4626 -0.0003
  651MOL0     C85863   9.259   5.259   7.228  0.2105 -0.5152 -0.0643
  651MOL0     C85864   9.265   5.377   7.198 -1.1059 -0.1777 -0.4246
  651MOL0     C85865   9.167   4.696   6.956  0.1280  0.0025  0.0994
  651MOL0     C85866   9.055   4.622   6.901 -0.1622  0.1767 -1.3406
  651MOL0     H85867   8.822   4.223   6.890  0.6644  0.2200 -2.0407
  651MOL0     H85868   8.603   4.076   6.864 -0.4420  0.0206 -2.0387
  651MOL0     H85869   8.341   4.052   6.971  1.1327 -0.8583  0.0240
  651MOL0     H85870   8.429   3.988   6.829  0.0599 -1.8701  2.2304
  651MOL0     H85871   8.215   4.014   6.676  0.2726 -1.1939 -0.3601
  651MOL0     H85872   8.144   4.106   6.813  2.2385  0.8867  4.2722
  651MOL0     H85873   8.260   3.819   6.806 -0.6320 -0.1354 -1.4703
  651MOL0     H85874   8.099   3.841   6.755  1.2380 -2.9765 -0.1838
  651MOL0     H85875   8.198   3.902   7.036  1.2023 -1.6141  0.2082
  651MOL0     H85876   8.035   3.941   6.968 -0.2117 -1.0805  0.7888
  651MOL0     H85877   8.154   3.670   6.999  0.7970  0.8299 -0.4017
  651MOL0     H85878   8.001   3.703   6.919 -1.7029 -0.9808  1.5657
  651MOL0     H85879   8.075   3.803   7.207  2.3927  1.7745 -2.7450
  651MOL0     H85880   7.971   3.657   7.169 -0.4332 -0.2831 -2.0173
  651MOL0     H85881   7.892   3.944   7.114 -1.7301  1.5641  1.0720
  651MOL0     H85882   7.814   3.807   7.047  1.1184  1.6272 -2.1144
  651MOL0     H85883   7.775   3.904   7.331  1.6146  0.7933 -1.2714
  651MOL0     H85884   7.803   3.733   7.324  3.9935 -0.1328 -1.1439
  651MOL0     H85885   7.609   3.583   7.170 -1.0740  0.1327 -0.8577
  651MOL0     H85886   7.375   3.535   7.043  0.6849 -0.5490  0.2955
  651MOL0     H85887   7.266   3.668   7.039  1.0918 -0.3933 -2.0061
  651MOL0     H85888   7.238   3.700   7.264  2.1452 -0.0111 -0.8867
  651MOL0     H85889   7.342   3.572   7.309  2.4567  1.2740 -0.6584
  651MOL0     H85890   7.093   3.518   7.118  0.1740 -3.4866 -1.4468
  651MOL0     H85891   7.185   3.392   7.203  1.8624 -0.5643  0.6715
  651MOL0     H85892   7.125   3.507   7.421  0.1524 -1.5806 -0.8473
  651MOL0     H85893   6.991   3.433   7.333  0.6984  0.4864 -3.5023
  651MOL0     H85894   6.931   3.756   7.100  0.7048 -2.4277 -0.1928
  651MOL0     H85895   6.715   3.788   7.003  0.1788  2.8570  1.7100
  651MOL0     H85896   6.210   3.826   7.033 -2.0329  0.8558 -0.4549
  651MOL0     H85897   5.960   3.851   7.039  0.0500 -2.2115 -3.0788
  651MOL0     H85898   5.719   3.666   7.336 -0.4256 -1.6858 -0.5499
  651MOL0     H85899   5.746   3.539   7.225  3.0699  1.3426 -2.8007
  651MOL0     H85900   5.506   3.596   7.261  1.6033  2.8270  3.4234
  651MOL0     H85901   5.541   3.599   7.089  2.4909 -0.3418 -0.1817
  651MOL0     H85902   5.552   3.831   7.082  1.8572 -1.0300  0.6303
  651MOL0     H85903   5.574   3.863   7.251  1.2367  4.5570 -4.2150
  651MOL0     H85904   5.325   3.733   7.133 -1.2582 -2.0975  2.9290
  651MOL0     H85905   5.351   3.811   7.296 -1.1224  4.4695 -0.2394
  651MOL0     H85906   5.358   3.965   7.042 -0.8715 -0.0638 -0.9044
  651MOL0     H85907   5.348   4.023   7.196  3.5017 -1.3952  0.2257
  651MOL0     H85908   5.114   3.853   7.169 -1.2830  0.0757 -1.0723
  651MOL0     H85909   5.162   3.900   7.014  1.0484  0.5290  0.3797
  651MOL0     H85910   4.982   4.042   7.123 -1.3717  1.0203  1.2965
  651MOL0     H85911   5.100   4.109   7.228 -0.3443  1.2681  0.2068
  651MOL0     H85912   5.231   4.171   7.003  0.6353 -0.5360  0.8413
  651MOL0     H85913   5.081   4.254   7.043 -2.8451 -0.9882 -2.3427
  651MOL0     H85914   5.923   3.553   7.329 -0.8167 -2.0943 -2.5313
  651MOL0     H85915   6.180   3.509   7.325  0.0143  1.8694  0.6714
  651MOL0     H85916   6.537   3.593   7.351 -0.6827 -0.6658 -2.1313
  651MOL0     H85917   6.757   3.556   7.443 -3.3657 -0.1824  0.9251
  651MOL0     H85918   8.390   4.451   6.821  0.4748  0.2163 -0.3251
  651MOL0     H85919   8.588   4.569   6.807 -0.5725 -0.6074 -2.2779
  651MOL0     H85920   8.911   4.872   6.730 -1.0545  0.4442  0.8599
  651MOL0     H85921   9.099   4.984   6.795  1.2082  1.5075  3.6216
  651MOL0     H85922   9.218   5.087   6.992 -0.0231 -1.1900  2.5097
  651MOL0     H85923   9.312   5.060   6.844  1.4411  0.7482  0.6127
  651MOL0     H85924   9.515   5.035   7.012  0.9677  0.3280 -0.3677
  651MOL0     H85925   9.440   5.190   7.010 -1.4971  0.6175 -1.7817
  651MOL0     H85926   9.503   5.095   7.238  0.9341  0.0540 -0.8159
  651MOL0     H85927   9.401   4.955   7.195 -0.0946 -0.4004  2.3644
  651MOL0     H85928   9.186   5.062   7.218 -0.3109 -1.7078  1.5176
  651MOL0     H85929   9.269   5.111   7.363  2.1153 -0.4674  0.2044
  651MOL0     H85930   9.277   5.484   7.196  2.5108 -0.4849 -1.2106
  651MOL0     H85931   9.250   4.654   7.012  0.3762  0.0550 -0.2239
  651MOL0     H85932   9.062   4.515   6.921  1.1423  0.1364 -1.8692
  652MOL0     O85933   7.666   7.401  10.761  0.0445 -0.3399  0.4097
  652MOL0     C85934   7.684   7.343  10.654 -0.3025 -0.3720 -0.9695
  652MOL0     O85935   7.730   7.401  10.541  0.1801 -0.4382  0.8587
  652MOL0     C85936   7.739   7.536  10.516  1.1825 -0.8156  1.3293
  652MOL0     C85937   7.680   7.645  10.586  0.9835 -0.7617 -0.1253
  652MOL0     C85938   7.678   7.770  10.527  0.1469  0.2128 -0.7313
  652MOL0     C85939   7.753   7.800  10.410  0.1178  0.9675 -0.2071
  652MOL0     O85940   7.749   7.925  10.356 -0.3586 -0.1953 -0.3997
  652MOL0     C85941   7.844   7.951  10.255  0.3672 -0.6774 -0.3462
  652MOL0     C85942   7.826   8.099  10.219  0.7735 -0.5831 -0.6509
  652MOL0     C85943   7.707   8.115  10.128  0.0733  1.4855  0.3911
  652MOL0     C85944   7.696   8.262  10.099 -0.0396 -0.6676 -0.6348
  652MOL0     C85945   7.578   8.287  10.010  0.0534 -0.1215  0.9328
  652MOL0     C85946   7.577   8.428   9.939  0.7448 -0.5341 -0.1819
  652MOL0     C85947   7.588   8.556  10.030  0.3715  0.2104  0.6904
  652MOL0     C85948   7.474   8.574  10.127  0.6996  0.1938 -0.6060
  652MOL0     N85949   7.465   8.705  10.191  0.1850  0.1566 -0.6282
  652MOL0     C85950   7.521   8.734  10.312  0.0233  0.0355 -0.0250
  652MOL0     C85951   7.503   8.866  10.333  0.1950 -1.1310  0.3166
  652MOL0     C85952   7.537   8.964  10.446  0.7409 -0.2536 -0.5499
  652MOL0     C85953   7.419   9.045  10.486 -0.7922  0.4015 -0.1637
  652MOL0     C85954   7.462   9.116  10.615  0.4177 -0.3848 -0.1640
  652MOL0     C85955   7.359   9.209  10.683  0.3497  0.7317  0.2045
  652MOL0     O85956   7.216   9.157  10.685  0.3897 -0.2546  0.0710
  652MOL0     C85957   7.191   9.095  10.806 -1.2040  0.2662 -0.6487
  652MOL0     C85958   7.290   9.020  10.884  0.0044 -0.4316  0.9502
  652MOL0     C85959   7.251   8.956  10.996 -0.7519  0.6227  0.4725
  652MOL0     C85960   7.126   8.963  11.058 -0.0138  0.8512  0.1922
  652MOL0     C85961   7.091   8.886  11.181  0.0737 -0.3339 -0.1499
  652MOL0     O85962   7.182   8.785  11.215  0.1344 -0.2196  0.0217
  652MOL0     C85963   7.161   8.696  11.318  0.3035  0.2711 -0.8204
  652MOL0     C85964   7.277   8.662  11.402  0.6183  0.3550 -1.0114
  652MOL0     C85965   7.263   8.569  11.509 -0.1380  0.0245 -0.6998
  652MOL0     C85966   7.132   8.506  11.535  0.1464 -0.4610 -0.1519
  652MOL0     O85967   7.127   8.421  11.645  0.3818  0.4038 -0.4624
  652MOL0     C85968   7.050   8.305  11.650  0.5573  0.4567 -0.2334
  652MOL0     C85969   7.045   8.246  11.783 -0.7462  0.0337 -0.1170
  652MOL0     C85970   6.951   8.327  11.868  0.9495  0.4740  0.5910
  652MOL0     C85971   6.949   8.262  12.010  1.0230 -0.0386 -0.4490
  652MOL0     C85972   6.846   8.331  12.087  0.0976 -0.6034 -0.4927
  652MOL0     C85973   6.805   8.250  12.201  0.2731  0.6107 -1.0621
  652MOL0     C85974   6.733   8.344  12.303 -1.0368  0.4119  0.1836
  652MOL0     C85975   6.678   8.289  12.436  0.6120 -0.6123  0.9486
  652MOL0    Cl85976   6.812   8.274  12.554  0.4493  0.0406  0.0782
  652MOL0     C85977   7.026   8.541  11.446 -0.1639  0.1433  0.0093
  652MOL0     C85978   7.039   8.631  11.341 -0.1530  0.3815  0.5632
  652MOL0     O85979   6.985   8.916  11.235 -0.4073 -0.5730  0.0631
  652MOL0     C85980   7.026   9.030  10.979  0.1757 -0.9724  0.1311
  652MOL0     C85981   7.061   9.089  10.860 -0.1107 -0.4476  0.2312
  652MOL0     N85982   7.449   8.924  10.209  0.5386  0.2202  0.7063
  652MOL0     N85983   7.417   8.820  10.126  1.0256 -0.8879  0.0447
  652MOL0     C85984   7.835   7.694  10.359 -0.0571 -0.4766  0.2114
  652MOL0     C85985   7.833   7.572  10.415 -0.2059  0.0984 -0.4545
  652MOL0     C85986   7.661   7.204  10.649  0.5000  0.1578 -1.0439
  652MOL0     C85987   7.627   7.145  10.536 -0.5202 -0.2629  0.4687
  652MOL0     C85988   7.591   7.010  10.539 -1.5041  0.2918  0.3915
  652MOL0     C85989   7.607   6.922  10.651  0.8569  0.7792 -0.0962
  652MOL0     O85990   7.575   6.788  10.659 -0.3051  0.2907 -0.6317
  652MOL0     C85991   7.567   6.703  10.540  0.0069  0.2322  0.2007
  652MOL0     C85992   7.600   6.555  10.577 -0.6840  0.2338  0.1490
  652MOL0     C85993   7.742   6.533  10.642  0.0142  0.1840  0.8380
  652MOL0     C85994   7.785   6.388  10.664  0.4242  0.8495  0.2041
  652MOL0     C85995   7.815   6.327  10.540 -0.5299 -0.3548  0.3987
  652MOL0     C85996   7.843   6.263  10.444 -0.3097  0.1420  0.7423
  652MOL0     C85997   7.635   6.995  10.769 -0.8513 -0.5443  0.3942
  652MOL0     C85998   7.659   7.134  10.771  0.3119  0.0642  0.4384
  652MOL0     H85999   7.617   7.633  10.674 -1.1632  2.5486 -1.0176
  652MOL0     H86000   7.624   7.838  10.592  2.3591 -0.2698  1.7747
  652MOL0     H86001   7.828   7.890  10.165  3.5454 -2.5216  0.1928
  652MOL0     H86002   7.948   7.937  10.285 -0.0883 -0.3843  1.5152
  652MOL0     H86003   7.924   8.134  10.185  0.9185 -1.1303 -0.8006
  652MOL0     H86004   7.813   8.157  10.311  0.1141 -0.7345 -0.6443
  652MOL0     H86005   7.615   8.086  10.179 -1.0897 -0.0550 -2.3790
  652MOL0     H86006   7.722   8.057  10.037  1.0195 -0.4221  1.7090
  652MOL0     H86007   7.703   8.325  10.188 -0.5242 -1.0647 -0.3152
  652MOL0     H86008   7.783   8.289  10.038  0.0603 -0.0204 -0.2043
  652MOL0     H86009   7.483   8.262  10.056 -2.6519 -1.6806 -4.5858
  652MOL0     H86010   7.587   8.215   9.928 -0.7457  2.9784 -2.1544
  652MOL0     H86011   7.506   8.448   9.859  2.1239  1.3250 -1.0340
  652MOL0     H86012   7.666   8.451   9.879 -0.0571  2.6416 -0.3757
  652MOL0     H86013   7.689   8.567  10.071  1.6538 -0.7632 -1.9486
  652MOL0     H86014   7.565   8.631   9.954 -0.3356  0.2351  0.9206
  652MOL0     H86015   7.484   8.499  10.206  3.2981 -0.6566 -1.6482
  652MOL0     H86016   7.380   8.565  10.071  1.2725  0.1608 -1.5816
  652MOL0     H86017   7.561   8.660  10.381 -0.1920 -2.6049 -2.5048
  652MOL0     H86018   7.616   9.031  10.410  1.1205 -0.4605 -0.1093
  652MOL0     H86019   7.570   8.908  10.534 -0.2586  3.0137  2.1524
  652MOL0     H86020   7.332   8.984  10.508  0.4295 -0.9814  1.0435
  652MOL0     H86021   7.401   9.127  10.415  2.1043  1.8886  0.6725
  652MOL0     H86022   7.487   9.032  10.681 -0.4891  0.7059  1.6614
  652MOL0     H86023   7.547   9.183  10.600  0.1267  0.7494  2.6195
  652MOL0     H86024   7.340   9.303  10.631 -0.5019  1.5819  1.9724
  652MOL0     H86025   7.388   9.237  10.785 -1.3289  3.7402 -0.0255
  652MOL0     H86026   7.395   9.021  10.860 -0.5107  0.8563 -1.6668
  652MOL0     H86027   7.325   8.906  11.059 -0.2733  1.8858  0.9352
  652MOL0     H86028   7.372   8.710  11.382 -0.1206  1.9756 -0.7584
  652MOL0     H86029   7.350   8.546  11.569 -1.1176  0.3467  0.9029
  652MOL0     H86030   7.098   8.236  11.580 -0.7195  2.4667 -3.3162
  652MOL0     H86031   6.948   8.315  11.611  0.1583  0.3129  0.7615
  652MOL0     H86032   7.144   8.255  11.828 -1.6153 -0.9394  2.1113
  652MOL0     H86033   7.007   8.144  11.779 -0.6351 -0.3790  4.5425
  652MOL0     H86034   6.852   8.338  11.822  1.3307  2.1096  0.0900
  652MOL0     H86035   6.977   8.430  11.891 -1.6786  1.4160 -0.2893
  652MOL0     H86036   6.915   8.159  11.994 -1.2108  0.8523 -1.9795
  652MOL0     H86037   7.046   8.268  12.060  1.4385 -1.3669 -1.0583
  652MOL0     H86038   6.757   8.359  12.030  0.6025  2.7449  0.1800
  652MOL0     H86039   6.888   8.426  12.120 -1.9790  1.1916 -2.6644
  652MOL0     H86040   6.896   8.210  12.248  0.6284 -1.8171 -3.5720
  652MOL0     H86041   6.745   8.161  12.184  2.0622 -1.6986  3.1179
  652MOL0     H86042   6.804   8.424  12.324 -0.5124 -0.1022  0.3988
  652MOL0     H86043   6.645   8.390  12.256 -0.1810  2.9805  0.9125
  652MOL0     H86044   6.635   8.189  12.422 -1.2042  0.4617 -1.7865
  652MOL0     H86045   6.593   8.353  12.457 -0.7183 -2.3915  1.2497
  652MOL0     H86046   6.923   8.507  11.444 -0.3284  0.6517 -0.7409
  652MOL0     H86047   6.962   8.653  11.268  0.5397 -0.0340 -0.3097
  652MOL0     H86048   6.924   9.049  11.009  0.2685 -0.5732  0.1972
  652MOL0     H86049   6.989   9.133  10.792  0.2660 -0.2005 -0.0174
  652MOL0     H86050   7.895   7.708  10.269  1.9641  0.3365  1.6169
  652MOL0     H86051   7.897   7.497  10.370 -1.9190 -1.9346  0.3281
  652MOL0     H86052   7.625   7.207  10.447  0.1074  1.0504  1.3414
  652MOL0     H86053   7.555   6.971  10.444 -0.0945 -0.2130  0.0390
  652MOL0     H86054   7.637   6.732  10.462  1.5260  0.0866  1.4707
  652MOL0     H86055   7.474   6.702  10.482  1.9020 -0.6739 -3.0957
  652MOL0     H86056   7.521   6.519  10.644 -0.8728 -1.7801 -1.0803
  652MOL0     H86057   7.586   6.501  10.483 -1.8226  1.9461 -0.7146
  652MOL0     H86058   7.737   6.579  10.742 -1.5475  1.1523  0.3593
  652MOL0     H86059   7.818   6.579  10.578 -2.3694  0.1319 -2.2610
  652MOL0     H86060   7.876   6.376  10.724  0.4945 -0.7639 -0.1661
  652MOL0     H86061   7.702   6.332  10.709 -0.2342  1.2427 -0.4931
  652MOL0     H86062   7.872   6.210  10.355 -0.7180 -0.9142  1.2285
  652MOL0     H86063   7.657   6.938  10.858  0.6351 -1.5769 -0.5899
  652MOL0     H86064   7.679   7.177  10.869  0.8533  0.4374  0.1665
  653MOL0     O86065   3.181   7.646   0.082  0.9461  0.1179 -0.7339
  653MOL0     C86066   3.268   7.685   0.006 -0.6842  0.2718 -0.1422
  653MOL0     O86067   3.385   7.622  -0.030  0.2190  0.3552  0.1088
  653MOL0     C86068   3.421   7.494   0.014  0.5042  0.2963 -0.7040
  653MOL0     C86069   3.471   7.408  -0.077  1.2330 -0.3348  0.0339
  653MOL0     C86070   3.524   7.283  -0.039 -0.6674 -0.4504  0.5350
  653MOL0     C86071   3.507   7.237   0.088 -0.0322  0.5693 -0.0830
  653MOL0     O86072   3.539   7.108   0.118  0.6636  1.0715  0.3309
  653MOL0     C86073   3.481   7.039   0.226 -0.5133  0.1085  0.2997
  653MOL0     C86074   3.332   7.030   0.236 -0.1595 -0.6392 -0.2829
  653MOL0     C86075   3.275   6.942   0.124 -0.3687  0.8775  0.2368
  653MOL0     C86076   3.262   7.003  -0.010  0.7521 -0.7526 -0.1737
  653MOL0     C86077   3.162   7.125  -0.021  0.5090  0.4154 -0.2058
  653MOL0     C86078   3.139   7.186  -0.156 -0.2667  0.1304 -0.0987
  653MOL0     C86079   3.057   7.313  -0.179  0.9816  1.1652 -0.2669
  653MOL0     C86080   3.018   7.346  -0.323  0.5394  0.9131  0.7844
  653MOL0     N86081   3.116   7.360  -0.418 -0.2109  0.0554  0.4868
  653MOL0     C86082   3.231   7.433  -0.410  0.2485 -0.9904 -0.5188
  653MOL0     C86083   3.306   7.395  -0.522  0.0372 -0.1036 -0.2178
  653MOL0     C86084   3.445   7.435  -0.544 -0.8273 -0.2223  0.6991
  653MOL0     C86085   3.552   7.336  -0.497  0.1187  0.4731  0.2433
  653MOL0     C86086   3.690   7.384  -0.542 -0.2474  0.2416 -0.7662
  653MOL0     C86087   3.804   7.296  -0.499  0.3853  1.4826  0.0865
  653MOL0     O86088   3.930   7.368  -0.494  0.2841 -0.5364  0.8623
  653MOL0     C86089   4.041   7.300  -0.463 -0.3901  0.0575  0.9966
  653MOL0     C86090   4.166   7.355  -0.474  0.7219  0.3629  0.1794
  653MOL0     C86091   4.285   7.279  -0.446  0.5828 -0.2142  0.3904
  653MOL0     C86092   4.278   7.153  -0.397 -0.3371  0.3671 -0.5626
  653MOL0     C86093   4.401   7.091  -0.339 -0.0667 -0.0190  1.6221
  653MOL0     O86094   4.501   7.176  -0.326 -0.2757  0.9856  0.3280
  653MOL0     C86095   4.619   7.113  -0.289  1.0922 -0.3014  0.3249
  653MOL0     C86096   4.659   7.136  -0.156 -0.1320  0.8752 -0.0001
  653MOL0     C86097   4.777   7.077  -0.111  0.2139  0.9051  0.4169
  653MOL0     C86098   4.858   7.010  -0.207 -0.3079  0.0994  0.5607
  653MOL0     O86099   4.989   6.963  -0.200 -0.0510 -0.1058 -0.6394
  653MOL0     C86100   5.076   7.036  -0.112 -0.4704 -0.5522 -0.2066
  653MOL0     C86101   5.173   7.131  -0.191 -0.0118  0.2733 -0.6268
  653MOL0     C86102   5.103   7.242  -0.280  0.4715  0.0121  0.1314
  653MOL0     C86103   5.206   7.333  -0.341 -1.0461  0.2135 -0.1175
  653MOL0     C86104   5.141   7.436  -0.422 -0.4920 -0.4003  0.5362
  653MOL0     C86105   5.118   7.388  -0.566  0.0028 -1.5064  0.1880
  653MOL0     C86106   5.239   7.420  -0.645  0.4980 -0.4150  0.4881
  653MOL0     C86107   5.242   7.364  -0.793  0.0545 -0.4898  0.2029
  653MOL0    Cl86108   5.372   7.441  -0.868 -0.1769 -0.4138  0.5492
  653MOL0     C86109   4.808   6.981  -0.333  0.2593 -0.6858 -1.0652
  653MOL0     C86110   4.691   7.035  -0.377  0.0840 -0.6760 -0.0604
  653MOL0     O86111   4.399   6.970  -0.315  0.4881 -0.5395  0.7552
  653MOL0     C86112   4.154   7.093  -0.377 -0.5163 -0.9849  0.2599
  653MOL0     C86113   4.036   7.174  -0.400  0.4477  0.0826 -0.0885
  653MOL0     N86114   3.220   7.313  -0.610 -0.0971  0.2811 -0.5130
  653MOL0     N86115   3.105   7.293  -0.542 -0.7211 -0.4274 -0.0962
  653MOL0     C86116   3.455   7.318   0.188 -1.4830 -0.1173  0.6906
  653MOL0     C86117   3.419   7.458   0.155 -0.1502 -0.0977 -0.1163
  653MOL0     C86118   3.264   7.823  -0.047  0.7417 -0.6223  0.4104
  653MOL0     C86119   3.366   7.883  -0.126 -0.1500 -0.4629  0.4509
  653MOL0     C86120   3.352   8.028  -0.156 -0.4098  0.2515  0.0701
  653MOL0     C86121   3.256   8.111  -0.095 -0.0386  0.6512 -0.6027
  653MOL0     O86122   3.253   8.250  -0.107 -0.7406  0.3959 -0.4053
  653MOL0     C86123   3.342   8.326  -0.184 -0.0020  0.3234 -0.5948
  653MOL0     C86124   3.316   8.472  -0.177 -0.4979 -0.2999 -1.0565
  653MOL0     C86125   3.176   8.538  -0.190  0.1827 -0.2618  0.4447
  653MOL0     C86126   3.185   8.693  -0.214 -0.3635 -0.9487 -0.6800
  653MOL0     C86127   3.238   8.765  -0.095  0.3252  0.2336 -0.1804
  653MOL0     C86128   3.295   8.824  -0.013 -0.8883  0.1679 -0.9025
  653MOL0     C86129   3.161   8.052  -0.016  0.7772  0.0926  0.4921
  653MOL0     C86130   3.166   7.910   0.004 -0.1179 -0.1971  0.3625
  653MOL0     H86131   3.476   7.430  -0.183 -3.6472 -2.0392 -0.8224
  653MOL0     H86132   3.556   7.218  -0.120 -1.0361 -2.4239  1.9124
  653MOL0     H86133   3.507   7.073   0.327 -0.0438  0.1803  0.1573
  653MOL0     H86134   3.529   6.941   0.218  3.1564  1.4419  2.9321
  653MOL0     H86135   3.275   7.123   0.228  0.1355 -0.5822 -2.2313
  653MOL0     H86136   3.317   6.980   0.333  1.6316 -0.7309 -0.0254
  653MOL0     H86137   3.175   6.906   0.148  0.0796  1.6752  3.9401
  653MOL0     H86138   3.336   6.852   0.108  0.2884  1.8674 -4.3570
  653MOL0     H86139   3.356   7.047  -0.046  0.0919  1.7962  0.9561
  653MOL0     H86140   3.219   6.938  -0.086 -0.8676  1.1672 -0.9900
  653MOL0     H86141   3.198   7.204   0.045 -0.1754  0.0990  0.5617
  653MOL0     H86142   3.067   7.084   0.014  1.1208 -1.8479 -1.0386
  653MOL0     H86143   3.107   7.115  -0.233 -3.7222  2.3898 -0.9679
  653MOL0     H86144   3.238   7.227  -0.176 -1.2551  2.8007  0.1128
  653MOL0     H86145   2.962   7.306  -0.126 -0.7123  6.3322 -2.0186
  653MOL0     H86146   3.105   7.400  -0.134 -0.7044  1.5777  0.8316
  653MOL0     H86147   2.950   7.432  -0.333 -0.3891 -0.0378 -1.9538
  653MOL0     H86148   2.952   7.262  -0.348  0.1041  1.7427 -1.0179
  653MOL0     H86149   3.265   7.488  -0.322  0.7389 -0.2465 -1.1593
  653MOL0     H86150   3.454   7.525  -0.482  0.0564 -0.7090  1.2979
  653MOL0     H86151   3.464   7.453  -0.650 -1.2478 -2.0870  0.2664
  653MOL0     H86152   3.537   7.245  -0.556  1.8708  1.9194 -2.6370
  653MOL0     H86153   3.551   7.334  -0.388 -0.6273  1.0146  0.2493
  653MOL0     H86154   3.682   7.392  -0.651 -0.9081 -3.1123 -1.0910
  653MOL0     H86155   3.701   7.482  -0.495  1.1601  0.0495 -0.6644
  653MOL0     H86156   3.809   7.199  -0.549 -2.0712 -0.8750  3.9002
  653MOL0     H86157   3.792   7.274  -0.392 -0.1889 -1.2500 -0.4735
  653MOL0     H86158   4.190   7.458  -0.496 -0.5698  0.8430  0.9087
  653MOL0     H86159   4.385   7.312  -0.474  2.8537 -2.5511  4.7356
  653MOL0     H86160   4.603   7.197  -0.086  0.7149  4.3948 -2.1994
  653MOL0     H86161   4.809   7.087  -0.008  1.5558 -4.1745  0.8032
  653MOL0     H86162   5.145   6.959  -0.075  2.9153  0.4241 -3.7950
  653MOL0     H86163   5.037   7.092  -0.027  0.4866  0.2697 -0.2951
  653MOL0     H86164   5.222   7.057  -0.255 -1.7160  0.5077 -2.2779
  653MOL0     H86165   5.248   7.176  -0.124 -0.8114  1.6883 -0.6443
  653MOL0     H86166   5.030   7.292  -0.215 -0.7266 -1.9322  0.3797
  653MOL0     H86167   5.050   7.190  -0.361  0.3852  1.4533 -0.7695
  653MOL0     H86168   5.268   7.374  -0.261 -1.3765  2.0076 -0.7429
  653MOL0     H86169   5.277   7.279  -0.404  0.9142  2.8028 -0.2655
  653MOL0     H86170   5.189   7.534  -0.420  0.7093 -0.7723 -2.8043
  653MOL0     H86171   5.036   7.453  -0.393 -0.0516  1.0337  1.4115
  653MOL0     H86172   5.044   7.458  -0.606  2.7821  0.5374 -1.7187
  653MOL0     H86173   5.090   7.283  -0.576 -0.3384 -1.5901  1.6947
  653MOL0     H86174   5.269   7.526  -0.651 -2.4326  0.4246 -1.4095
  653MOL0     H86175   5.317   7.366  -0.591  0.5510  0.2133  1.0530
  653MOL0     H86176   5.148   7.368  -0.849  0.7188 -0.6123 -0.9441
  653MOL0     H86177   5.253   7.255  -0.798  1.4033 -0.5994  3.3575
  653MOL0     H86178   4.879   6.941  -0.405  1.5576  0.5261 -0.5038
  653MOL0     H86179   4.670   7.030  -0.483  3.7658  3.3412 -1.2868
  653MOL0     H86180   4.147   6.996  -0.330 -0.2309 -1.1814 -0.0928
  653MOL0     H86181   3.939   7.128  -0.384 -0.1094 -0.0051 -3.1394
  653MOL0     H86182   3.432   7.285   0.289  0.0909  2.0491  1.8556
  653MOL0     H86183   3.379   7.523   0.231 -2.8797 -1.1236 -0.5788
  653MOL0     H86184   3.453   7.825  -0.155  0.5058  0.8871 -0.3334
  653MOL0     H86185   3.427   8.074  -0.221 -1.9013 -2.4364 -3.9061
  653MOL0     H86186   3.358   8.290  -0.286 -1.0541 -1.7702 -0.0835
  653MOL0     H86187   3.440   8.309  -0.137  0.0865  1.5000 -0.3253
  653MOL0     H86188   3.364   8.506  -0.085  0.0167  0.1811 -1.4971
  653MOL0     H86189   3.377   8.498  -0.264  0.0249 -2.0052 -1.2487
  653MOL0     H86190   3.114   8.528  -0.100 -0.1919 -0.0081  0.2125
  653MOL0     H86191   3.117   8.498  -0.273 -0.0182 -1.5826  1.1894
  653MOL0     H86192   3.242   8.709  -0.306 -0.2400  0.0875 -0.4323
  653MOL0     H86193   3.092   8.749  -0.229  0.3083  0.3230 -0.2215
  653MOL0     H86194   3.336   8.876   0.071 -0.5409 -2.4601  0.6702
  653MOL0     H86195   3.086   8.107   0.039  0.8619 -1.0532  1.8198
  653MOL0     H86196   3.084   7.878   0.067 -2.1590 -0.0049 -2.0562
  654MOL0     O86197   0.972   4.650   4.345 -0.6074 -0.6543  0.0936
  654MOL0     C86198   0.951   4.649   4.222 -1.0344 -0.6488 -0.0516
  654MOL0     O86199   1.042   4.650   4.116 -0.0126 -0.4463  0.3884
  654MOL0     C86200   1.181   4.676   4.142  1.0445  0.9860  0.2052
  654MOL0     C86201   1.243   4.806   4.132 -0.1683  1.1599  0.2373
  654MOL0     C86202   1.381   4.818   4.160  0.7689  0.5248 -0.3126
  654MOL0     C86203   1.460   4.701   4.189  0.4411  0.7217 -0.7555
  654MOL0     O86204   1.598   4.699   4.204 -0.1796  0.4441  0.2396
  654MOL0     C86205   1.650   4.826   4.245  0.5092 -0.8841 -0.9882
  654MOL0     C86206   1.805   4.819   4.277  0.0924  0.0769  0.3580
  654MOL0     C86207   1.827   4.714   4.395 -0.3050  0.3349  0.1161
  654MOL0     C86208   1.948   4.755   4.475  0.0347  0.1373  0.2488
  654MOL0     C86209   2.084   4.733   4.408 -0.0436  1.2362  0.2623
  654MOL0     C86210   2.201   4.787   4.491 -1.0972  0.9430  0.0117
  654MOL0     C86211   2.194   4.934   4.511  0.5315 -0.5915 -0.4972
  654MOL0     C86212   2.334   5.009   4.541  0.9853  0.4342 -0.6067
  654MOL0     N86213   2.378   5.098   4.438  0.1286 -0.1317 -0.1534
  654MOL0     C86214   2.413   5.229   4.463  0.0001 -0.6535  0.0674
  654MOL0     C86215   2.461   5.283   4.347  0.6659 -0.9610  0.3075
  654MOL0     C86216   2.506   5.421   4.322 -0.2422 -0.6960 -0.0837
  654MOL0     C86217   2.407   5.530   4.380  0.1680 -0.5379 -0.3056
  654MOL0     C86218   2.269   5.531   4.306  0.5042  0.6468  0.1534
  654MOL0     C86219   2.184   5.639   4.373  0.1967  0.0908 -0.7971
  654MOL0     O86220   2.126   5.598   4.505 -0.4004 -0.0224 -0.5963
  654MOL0     C86221   2.017   5.517   4.484  0.6924 -0.0801 -1.7419
  654MOL0     C86222   1.887   5.571   4.450 -0.4844  1.9703 -0.3457
  654MOL0     C86223   1.774   5.486   4.443  0.3261  0.4472  0.4635
  654MOL0     C86224   1.777   5.352   4.470 -0.4148  0.0474  1.3254
  654MOL0     C86225   1.652   5.269   4.473 -0.5772 -0.8942 -0.3148
  654MOL0     O86226   1.555   5.325   4.393  0.5618  0.0429  0.0954
  654MOL0     C86227   1.428   5.266   4.378  0.0884 -0.7511 -0.1992
  654MOL0     C86228   1.394   5.131   4.415  0.1875  0.4162 -0.2095
  654MOL0     C86229   1.265   5.081   4.408  1.6564 -0.3070  0.8303
  654MOL0     C86230   1.159   5.159   4.361 -0.4345 -0.0090 -0.4688
  654MOL0     O86231   1.033   5.110   4.364  0.2290  0.8114 -0.8357
  654MOL0     C86232   0.908   5.181   4.362 -0.7758 -0.4141 -0.8927
  654MOL0     C86233   0.794   5.097   4.411  0.9886  0.1016 -0.4078
  654MOL0     C86234   0.768   4.965   4.337 -0.0583  0.7934 -0.4642
  654MOL0     C86235   0.695   4.972   4.193 -0.2220 -0.1514  0.2723
  654MOL0     C86236   0.540   4.971   4.175  0.4266  0.2707  0.2073
  654MOL0     C86237   0.520   5.011   4.029  0.5138  0.5440 -0.9105
  654MOL0     C86238   0.373   5.036   3.994  0.9521  0.1081 -0.6171
  654MOL0     C86239   0.370   5.101   3.864 -0.3126  0.4440  0.0863
  654MOL0    Cl86240   0.425   5.268   3.862 -0.2362  0.4166  0.2035
  654MOL0     C86241   1.191   5.285   4.303  0.0309  0.2919 -0.4219
  654MOL0     C86242   1.330   5.341   4.319  1.7026 -0.5967 -0.0941
  654MOL0     O86243   1.638   5.186   4.557 -0.4728 -0.3629 -0.8044
  654MOL0     C86244   1.911   5.302   4.502  0.3100 -0.3842  0.1634
  654MOL0     C86245   2.024   5.379   4.521  0.3465 -0.6633 -0.1113
  654MOL0     N86246   2.457   5.182   4.253 -0.1079  0.7520  0.6188
  654MOL0     N86247   2.398   5.076   4.313 -0.6202  0.7461  0.6183
  654MOL0     C86248   1.398   4.576   4.183  0.0719  0.2153  0.7428
  654MOL0     C86249   1.260   4.567   4.160  0.3709  0.1525 -0.9409
  654MOL0     C86250   0.810   4.626   4.186 -0.1120  0.6165 -0.5253
  654MOL0     C86251   0.704   4.635   4.282  0.8729  0.1234  1.3769
  654MOL0     C86252   0.574   4.634   4.238  1.0746 -0.1168 -0.6023
  654MOL0     C86253   0.532   4.596   4.108 -1.1425 -0.1139 -0.2926
  654MOL0     O86254   0.409   4.572   4.063 -0.0765  0.0669  0.3055
  654MOL0     C86255   0.298   4.617   4.143  0.3695 -0.0087 -1.2300
  654MOL0     C86256   0.171   4.580   4.074  0.3157  0.4992 -0.4568
  654MOL0     C86257   0.049   4.648   4.148  0.2328 -0.7916  0.3076
  654MOL0     C86258  -0.072   4.659   4.061 -0.8290  0.1706 -0.5644
  654MOL0     C86259  -0.182   4.693   4.146  0.4600  0.5542 -0.1635
  654MOL0     C86260  -0.271   4.725   4.222 -0.1950 -0.7613  0.4768
  654MOL0     C86261   0.639   4.586   4.015 -0.1674  0.6389  0.0733
  654MOL0     C86262   0.779   4.602   4.052 -0.0155 -0.6750  0.7733
  654MOL0     H86263   1.183   4.893   4.108 -1.4227  0.3231  0.1960
  654MOL0     H86264   1.417   4.921   4.160 -2.4219  1.8114  1.8390
  654MOL0     H86265   1.605   4.855   4.340  3.1686 -1.0347  0.4024
  654MOL0     H86266   1.627   4.894   4.162  3.6649  1.6785  0.0696
  654MOL0     H86267   1.830   4.915   4.324  0.3109 -1.0118  2.5663
  654MOL0     H86268   1.859   4.804   4.183 -3.8626  1.6582 -2.4833
  654MOL0     H86269   1.842   4.620   4.341  1.7814  1.5132 -1.5606
  654MOL0     H86270   1.753   4.708   4.475  2.0638  2.9431  2.7713
  654MOL0     H86271   1.918   4.851   4.517 -1.1413  0.4898 -1.2801
  654MOL0     H86272   1.952   4.694   4.565 -0.0378  1.8900  1.4875
  654MOL0     H86273   2.089   4.781   4.310  1.8265  0.1960 -0.2074
  654MOL0     H86274   2.095   4.624   4.407  1.0835  1.2173  3.1729
  654MOL0     H86275   2.293   4.767   4.436 -0.6567  4.1492 -0.6135
  654MOL0     H86276   2.218   4.745   4.591  0.6669 -0.9572 -0.9984
  654MOL0     H86277   2.160   4.979   4.417 -2.1469  0.2135  0.7546
  654MOL0     H86278   2.123   4.974   4.584  1.9033 -0.8156  1.0164
  654MOL0     H86279   2.419   4.940   4.538  0.2806 -0.4345 -1.4128
  654MOL0     H86280   2.339   5.062   4.636 -0.2227  1.2865 -1.0045
  654MOL0     H86281   2.409   5.278   4.560 -1.0959  1.1719 -0.8458
  654MOL0     H86282   2.534   5.437   4.218 -0.2765  1.2101  0.1642
  654MOL0     H86283   2.599   5.438   4.377 -0.3337 -3.2753  1.0271
  654MOL0     H86284   2.451   5.630   4.371  1.4845 -1.0646  0.0022
  654MOL0     H86285   2.394   5.512   4.487  1.5542  2.0869  0.4066
  654MOL0     H86286   2.290   5.562   4.204  2.3489  2.0142  0.8743
  654MOL0     H86287   2.222   5.433   4.315 -1.6357  1.5518 -0.6397
  654MOL0     H86288   2.095   5.670   4.317 -0.2205  3.8435  1.5491
  654MOL0     H86289   2.241   5.732   4.383  3.4235 -1.7732 -0.4848
  654MOL0     H86290   1.871   5.678   4.441  0.3736  2.6117  3.6035
  654MOL0     H86291   1.685   5.547   4.430  0.2868  0.1599 -0.7561
  654MOL0     H86292   1.466   5.056   4.446  1.0412  0.0673 -2.7860
  654MOL0     H86293   1.249   4.974   4.419 -0.3367 -0.1483 -0.0683
  654MOL0     H86294   0.894   5.210   4.257  0.7581 -0.6145 -1.1779
  654MOL0     H86295   0.920   5.265   4.430 -0.4354 -0.1088 -1.3242
  654MOL0     H86296   0.695   5.142   4.402  0.3042 -0.7703  1.9517
  654MOL0     H86297   0.813   5.071   4.516 -0.8103 -2.5030 -0.6273
  654MOL0     H86298   0.705   4.899   4.397  2.6187 -0.3875  1.2125
  654MOL0     H86299   0.867   4.921   4.326 -0.0831  0.9216 -1.2840
  654MOL0     H86300   0.734   5.067   4.157  0.0207 -0.2768  0.2006
  654MOL0     H86301   0.736   4.887   4.137  1.3234 -0.2404  1.4582
  654MOL0     H86302   0.493   5.048   4.237 -1.0654  1.3341 -2.1344
  654MOL0     H86303   0.492   4.880   4.211 -1.0424  0.3093 -1.5397
  654MOL0     H86304   0.550   4.921   3.975 -0.9571 -2.4377  2.7507
  654MOL0     H86305   0.587   5.096   4.009  1.5382  0.7458  2.6990
  654MOL0     H86306   0.307   4.949   3.981 -1.3921  1.3786  1.9224
  654MOL0     H86307   0.318   5.096   4.066 -0.3106 -1.3646 -0.2796
  654MOL0     H86308   0.263   5.103   3.839 -0.6525  1.9257  1.4977
  654MOL0     H86309   0.427   5.041   3.792 -1.0478 -3.6215  2.5573
  654MOL0     H86310   1.116   5.349   4.258 -1.9381  0.9868  3.3880
  654MOL0     H86311   1.335   5.437   4.269 -0.6132 -0.0992  0.5291
  654MOL0     H86312   1.912   5.201   4.540 -0.5544 -0.0942  1.0026
  654MOL0     H86313   2.110   5.334   4.570 -0.1885 -0.7667  0.7644
  654MOL0     H86314   1.459   4.487   4.190  1.1027  0.5106 -2.8370
  654MOL0     H86315   1.212   4.470   4.151  0.0529  0.2898 -0.7607
  654MOL0     H86316   0.719   4.664   4.386  0.0683  0.7920  1.3086
  654MOL0     H86317   0.498   4.655   4.313  1.6182  3.6413 -0.8932
  654MOL0     H86318   0.302   4.725   4.160  2.2649 -0.4506  1.7188
  654MOL0     H86319   0.306   4.573   4.242  0.9749  2.2747 -0.2000
  654MOL0     H86320   0.166   4.609   3.969 -2.6660 -1.6442 -1.0410
  654MOL0     H86321   0.166   4.472   4.064 -1.6905  0.5991 -1.1309
  654MOL0     H86322   0.076   4.749   4.180  1.0143 -0.6025 -0.8752
  654MOL0     H86323   0.030   4.579   4.231 -3.0740 -1.4411 -0.8311
  654MOL0     H86324  -0.061   4.739   3.987  0.3399  1.2010  0.6569
  654MOL0     H86325  -0.080   4.561   4.013  2.2887 -2.4701  3.5695
  654MOL0     H86326  -0.351   4.753   4.287 -1.3182 -2.1231 -0.2731
  654MOL0     H86327   0.618   4.556   3.913 -1.5893  1.7902 -0.0005
  654MOL0     H86328   0.856   4.586   3.978 -0.0636  1.4269  0.2053
  655MOL0     O86329   3.211   7.343   0.492 -0.3120  0.1419  0.0757
  655MOL0     C86330   3.188   7.455   0.455 -0.1896  0.3154  0.6815
  655MOL0     O86331   3.080   7.492   0.384 -0.0222 -0.3175  0.6731
  655MOL0     C86332   2.979   7.397   0.345  0.3643 -0.2346  0.3203
  655MOL0     C86333   2.938   7.400   0.217  0.7187  0.2801  1.1259
  655MOL0     C86334   2.842   7.310   0.154 -0.7092  0.1586  0.3197
  655MOL0     C86335   2.781   7.208   0.239 -0.3790  0.1359  0.2057
  655MOL0     O86336   2.685   7.117   0.202 -0.7241 -0.9050  0.2911
  655MOL0     C86337   2.617   7.125   0.074  0.4161  0.0949  1.5635
  655MOL0     C86338   2.524   7.247   0.069  0.3319  0.6472  0.9817
  655MOL0     C86339   2.449   7.252  -0.064 -0.5639 -0.5879 -0.1371
  655MOL0     C86340   2.348   7.141  -0.076  0.3916 -0.5201  0.8619
  655MOL0     C86341   2.248   7.170  -0.185 -0.3059  0.0720  0.5431
  655MOL0     C86342   2.192   7.038  -0.242  0.0366  0.0317 -0.5521
  655MOL0     C86343   2.091   7.074  -0.360 -0.0220  0.1128  0.1549
  655MOL0     C86344   2.031   6.952  -0.434 -0.2879  0.2013 -0.4028
  655MOL0     N86345   2.135   6.873  -0.495 -0.8104  0.1111  0.3710
  655MOL0     C86346   2.206   6.777  -0.439  0.3743 -0.9762  0.0674
  655MOL0     C86347   2.290   6.743  -0.535 -0.0615 -0.1288  0.3514
  655MOL0     C86348   2.399   6.637  -0.529 -1.3283 -0.3788  0.1950
  655MOL0     C86349   2.350   6.505  -0.470  0.0570 -0.0181  0.7341
  655MOL0     C86350   2.455   6.394  -0.487 -0.6332 -0.9344 -0.1798
  655MOL0     C86351   2.571   6.398  -0.393  0.1466 -0.1355 -1.0450
  655MOL0     O86352   2.536   6.393  -0.255  0.4340  1.2302 -0.6774
  655MOL0     C86353   2.509   6.268  -0.213 -0.1492  0.1165 -0.5277
  655MOL0     C86354   2.601   6.158  -0.218 -1.0969  0.4809 -0.1792
  655MOL0     C86355   2.577   6.043  -0.154  1.4916 -0.4429  0.1133
  655MOL0     C86356   2.456   6.022  -0.088 -0.4091  0.3400  0.7863
  655MOL0     C86357   2.421   5.888  -0.020  0.0338 -0.1538  0.0082
  655MOL0     O86358   2.286   5.870  -0.020 -0.8470 -0.0586 -0.9192
  655MOL0     C86359   2.235   5.751   0.001 -1.1699 -0.1782 -0.8889
  655MOL0     C86360   2.273   5.626  -0.067  0.5164 -0.8714  0.0672
  655MOL0     C86361   2.210   5.508  -0.030 -0.3784  0.8008 -0.1669
  655MOL0     C86362   2.107   5.506   0.063  0.9766 -0.6509 -1.2455
  655MOL0     O86363   2.044   5.389   0.076  0.7531  0.1383  0.3906
  655MOL0     C86364   1.983   5.350   0.199  0.9119  0.3757  0.0835
  655MOL0     C86365   2.093   5.355   0.307 -0.0081  0.3329 -1.1605
  655MOL0     C86366   2.025   5.314   0.443  0.5528  0.6136  0.1106
  655MOL0     C86367   2.018   5.166   0.477  0.5913 -0.4853 -0.9083
  655MOL0     C86368   1.889   5.132   0.552  1.1063 -0.4003 -0.8595
  655MOL0     C86369   1.880   5.193   0.694  0.5936 -0.1139 -0.0445
  655MOL0     C86370   2.004   5.165   0.785  0.6750  0.3011 -0.1980
  655MOL0     C86371   1.976   5.187   0.936  0.3644 -0.4389 -0.3981
  655MOL0    Cl86372   1.973   5.364   0.978 -0.0280 -0.0150  0.0254
  655MOL0     C86373   2.071   5.622   0.133  0.9206 -0.6047  0.1857
  655MOL0     C86374   2.134   5.739   0.098 -0.1007 -0.9902 -0.1913
  655MOL0     O86375   2.508   5.814   0.007  0.7124  0.4144 -0.9689
  655MOL0     C86376   2.357   6.119  -0.094  0.2118  0.6798  1.3275
  655MOL0     C86377   2.378   6.248  -0.157 -0.6222  0.8563  0.5573
  655MOL0     N86378   2.259   6.801  -0.653  0.8886 -0.7012 -0.5424
  655MOL0     N86379   2.165   6.880  -0.629 -0.6070 -0.9671 -0.7590
  655MOL0     C86380   2.817   7.207   0.376 -0.1980 -0.8662 -0.3282
  655MOL0     C86381   2.920   7.296   0.424  0.3995  0.7411  0.0818
  655MOL0     C86382   3.286   7.559   0.493 -0.8153  0.6075  0.4598
  655MOL0     C86383   3.413   7.527   0.554  0.8928  0.4437 -0.1279
  655MOL0     C86384   3.498   7.622   0.605  0.5224  0.0100  0.2312
  655MOL0     C86385   3.466   7.761   0.608 -0.8385  0.5783  0.4716
  655MOL0     O86386   3.561   7.843   0.661 -0.0461 -0.0233 -0.1607
  655MOL0     C86387   3.556   7.976   0.623 -0.6396  0.5688 -0.6762
  655MOL0     C86388   3.666   8.045   0.703 -0.1598 -0.0823 -0.0084
  655MOL0     C86389   3.810   8.009   0.677  0.4678 -0.2198 -0.2510
  655MOL0     C86390   3.855   7.877   0.748  0.1518 -0.5569 -1.1509
  655MOL0     C86391   3.997   7.858   0.730 -0.4922  0.2739 -0.1368
  655MOL0     C86392   4.121   7.849   0.711 -0.0689  0.5354  0.3945
  655MOL0     C86393   3.352   7.795   0.543 -0.8287  0.5376  0.1481
  655MOL0     C86394   3.262   7.700   0.483 -0.5273  0.2945  0.7436
  655MOL0     H86395   2.983   7.471   0.149 -0.1808  1.5319  1.7868
  655MOL0     H86396   2.814   7.329   0.051  1.2451  3.0492  0.2166
  655MOL0     H86397   2.558   7.035   0.056  0.8308 -0.3715  2.4982
  655MOL0     H86398   2.687   7.134  -0.009 -0.2788 -2.0948  0.6641
  655MOL0     H86399   2.575   7.340   0.097  0.0397  1.1839 -0.2158
  655MOL0     H86400   2.447   7.238   0.146  0.9757  1.2900  1.7167
  655MOL0     H86401   2.519   7.225  -0.143 -1.0404 -2.7854  0.1289
  655MOL0     H86402   2.410   7.352  -0.084  0.1425  0.1487  1.9185
  655MOL0     H86403   2.402   7.047  -0.088  0.8965 -0.0968 -0.4778
  655MOL0     H86404   2.299   7.126   0.020  1.2948  2.2575  1.8763
  655MOL0     H86405   2.298   7.228  -0.263 -1.7287 -0.3615 -0.7484
  655MOL0     H86406   2.162   7.230  -0.155  1.0346  2.3688  0.0170
  655MOL0     H86407   2.142   6.975  -0.168 -0.7833  1.5127  0.2046
  655MOL0     H86408   2.276   6.986  -0.290 -1.2477 -1.9272 -0.7843
  655MOL0     H86409   2.022   7.146  -0.314  1.3551  0.5271  1.6839
  655MOL0     H86410   2.146   7.128  -0.437 -1.1219 -0.0641 -0.7651
  655MOL0     H86411   1.965   7.001  -0.507 -0.0159  2.1763  0.6119
  655MOL0     H86412   1.973   6.886  -0.369  0.2372 -0.2727 -0.4112
  655MOL0     H86413   2.195   6.743  -0.336 -1.0310 -0.7329  0.0110
  655MOL0     H86414   2.476   6.681  -0.465 -1.6545 -0.3047  0.5382
  655MOL0     H86415   2.447   6.616  -0.625  1.1450 -3.7940  1.9675
  655MOL0     H86416   2.268   6.472  -0.534  0.9687 -1.3540  0.2190
  655MOL0     H86417   2.321   6.513  -0.365  1.0422 -3.4771  1.3956
  655MOL0     H86418   2.406   6.299  -0.463  0.0532 -1.2825 -0.1199
  655MOL0     H86419   2.499   6.392  -0.587 -2.6484 -1.6259 -1.0978
  655MOL0     H86420   2.631   6.488  -0.407 -1.9749  1.5519  0.1020
  655MOL0     H86421   2.636   6.310  -0.396  0.0569 -0.2456 -0.1176
  655MOL0     H86422   2.697   6.154  -0.268  0.1357  2.6172  1.7951
  655MOL0     H86423   2.648   5.962  -0.157 -0.0302 -1.8024 -0.3920
  655MOL0     H86424   2.358   5.635  -0.134  1.1513  0.2404  0.9662
  655MOL0     H86425   2.244   5.418  -0.080  1.0730  1.8368 -1.1103
  655MOL0     H86426   1.960   5.244   0.186 -3.7171  1.2284 -0.5096
  655MOL0     H86427   1.899   5.416   0.227  0.8251 -0.0599  0.8821
  655MOL0     H86428   2.131   5.456   0.323  4.0738 -0.9415 -1.4960
  655MOL0     H86429   2.182   5.300   0.273  0.1657  0.6129 -1.1585
  655MOL0     H86430   1.924   5.356   0.445 -0.1836 -1.1021  1.3041
  655MOL0     H86431   2.070   5.361   0.531 -3.7904  2.7516  1.5004
  655MOL0     H86432   2.016   5.104   0.387 -3.3380 -2.2068  0.1610
  655MOL0     H86433   2.104   5.140   0.539  1.1077 -0.0877 -1.4422
  655MOL0     H86434   1.893   5.023   0.553  0.4262 -0.4313 -0.8872
  655MOL0     H86435   1.799   5.157   0.495 -0.5626  2.0237  2.5042
  655MOL0     H86436   1.793   5.151   0.744  0.7718 -0.6909 -0.2058
  655MOL0     H86437   1.865   5.301   0.681 -1.7914 -0.3245  0.6193
  655MOL0     H86438   2.054   5.069   0.773  0.4675  0.2768 -0.9034
  655MOL0     H86439   2.082   5.238   0.764  1.5285 -0.2326  1.0215
  655MOL0     H86440   2.038   5.138   1.012 -1.0726  0.9583  1.7787
  655MOL0     H86441   1.883   5.135   0.962  0.8444 -3.3502 -3.6777
  655MOL0     H86442   1.983   5.619   0.196 -1.5555  0.9034 -2.9280
  655MOL0     H86443   2.101   5.821   0.161  1.7479  0.3355 -0.8647
  655MOL0     H86444   2.258   6.087  -0.063 -0.6389 -2.8513 -3.7588
  655MOL0     H86445   2.296   6.318  -0.170  0.3286  1.6497 -1.4279
  655MOL0     H86446   2.756   7.143   0.439  1.0990 -1.7580  0.0685
  655MOL0     H86447   2.958   7.276   0.523 -1.3478 -2.5788  0.2258
  655MOL0     H86448   3.438   7.425   0.578 -0.9358 -0.0820 -0.2947
  655MOL0     H86449   3.590   7.584   0.647 -0.3451 -1.4037  0.9521
  655MOL0     H86450   3.459   8.019   0.650 -1.0521  1.1045 -2.8367
  655MOL0     H86451   3.562   7.987   0.514 -0.4659  1.0096 -0.6279
  655MOL0     H86452   3.642   8.149   0.682 -5.4796 -1.0083 -0.0392
  655MOL0     H86453   3.645   8.029   0.810 -1.8215 -0.8387 -0.4184
  655MOL0     H86454   3.871   8.089   0.719  1.5881 -0.3099 -1.6597
  655MOL0     H86455   3.832   7.988   0.572 -0.1671 -4.0946  0.2670
  655MOL0     H86456   3.851   7.883   0.857 -0.2900  0.4966 -1.2163
  655MOL0     H86457   3.787   7.797   0.718  0.6169 -1.0417 -0.9230
  655MOL0     H86458   4.225   7.838   0.688 -0.2616  1.5058 -1.0219
  655MOL0     H86459   3.314   7.896   0.527 -2.4933 -0.2558 -1.2222
  655MOL0     H86460   3.182   7.745   0.424 -0.7167 -0.1302  0.6686
  656MOL0     O86461  10.709   2.826   9.297 -0.4729  0.1680  0.0497
  656MOL0     C86462  10.663   2.758   9.207 -0.0935  0.5487 -0.1465
  656MOL0     O86463  10.720   2.740   9.085  0.0107 -0.6557  0.2366
  656MOL0     C86464  10.799   2.843   9.044  0.0727  0.0289  0.8056
  656MOL0     C86465  10.765   2.908   8.922 -0.1445  0.1162  0.1595
  656MOL0     C86466  10.835   3.014   8.871 -1.8883  0.2913 -0.7529
  656MOL0     C86467  10.955   3.063   8.937  0.5997  0.2692  0.8655
  656MOL0     O86468  11.042   3.166   8.894  0.0343  0.1030 -0.7104
  656MOL0     C86469  11.016   3.243   8.785  0.0083 -0.5126  0.4383
  656MOL0     C86470  11.127   3.345   8.763  0.8228  0.1218  0.2166
  656MOL0     C86471  11.154   3.456   8.873 -0.1612 -0.3350  0.3997
  656MOL0     C86472  11.273   3.553   8.849 -0.1677  0.0333 -0.8902
  656MOL0     C86473  11.279   3.680   8.932  0.0693 -0.2380 -0.2459
  656MOL0     C86474  11.307   3.647   9.084 -1.1301  0.0117 -0.2095
  656MOL0     C86475  11.314   3.779   9.165 -1.2035  0.2591 -1.0932
  656MOL0     C86476  11.445   3.856   9.132 -0.8244  0.0215  0.2066
  656MOL0     N86477  11.461   3.969   9.222 -0.2533  0.0390 -0.6284
  656MOL0     C86478  11.369   4.022   9.313 -0.5729 -0.7727  0.0412
  656MOL0     C86479  11.411   4.146   9.342 -0.1644 -0.5483 -0.3522
  656MOL0     C86480  11.369   4.254   9.431  1.0325 -0.2075  0.2290
  656MOL0     C86481  11.265   4.349   9.366  0.7656  0.9029 -0.6773
  656MOL0     C86482  11.175   4.434   9.447  1.1097  0.0745  0.1294
  656MOL0     C86483  11.247   4.511   9.559  0.4729 -0.3683  0.1491
  656MOL0     O86484  11.154   4.564   9.652  0.1998  0.3965 -0.4170
  656MOL0     C86485  11.198   4.640   9.758  0.8578  0.5109 -0.3926
  656MOL0     C86486  11.299   4.742   9.752  0.5837  0.0395 -0.9660
  656MOL0     C86487  11.314   4.841   9.847  1.1864 -0.1261  0.5255
  656MOL0     C86488  11.232   4.836   9.963  0.1114 -0.5935 -0.8360
  656MOL0     C86489  11.251   4.941  10.061  1.0969 -0.2074 -0.1258
  656MOL0     O86490  11.372   4.983  10.112  0.3985 -0.4211  0.4490
  656MOL0     C86491  11.374   5.055  10.219 -0.3781 -1.1803 -0.1852
  656MOL0     C86492  11.411   4.992  10.325  0.5299 -0.7774  0.1171
  656MOL0     C86493  11.412   5.062  10.456 -0.1591  1.0418  0.3891
  656MOL0     C86494  11.396   5.204  10.456 -0.6962  0.5646  0.5989
  656MOL0     O86495  11.428   5.275  10.563  0.0733 -0.3216 -1.0462
  656MOL0     C86496  11.397   5.423  10.578 -0.9220  0.2061 -0.1277
  656MOL0     C86497  11.417   5.468  10.722  0.0833  0.9196  0.4346
  656MOL0     C86498  11.551   5.456  10.775 -0.3028 -0.4206  0.0634
  656MOL0     C86499  11.551   5.484  10.928  0.1321  0.0369  0.2019
  656MOL0     C86500  11.673   5.541  10.988  0.2149  1.2909 -0.6382
  656MOL0     C86501  11.706   5.688  10.955  0.3219  0.2872 -0.0723
  656MOL0     C86502  11.843   5.740  11.002  0.3504  0.1666  0.7077
  656MOL0     C86503  11.815   5.872  11.075 -0.2308  1.0440  0.0360
  656MOL0    Cl86504  11.748   6.006  10.991  0.7414 -0.0575  0.3833
  656MOL0     C86505  11.367   5.266  10.338  0.7687 -0.0481  0.8126
  656MOL0     C86506  11.342   5.190  10.222  0.3323  1.3753 -0.2220
  656MOL0     O86507  11.138   4.974  10.108  0.1183  0.1313  0.1721
  656MOL0     C86508  11.129   4.738   9.975  0.2535  1.8243  0.7343
  656MOL0     C86509  11.114   4.642   9.872 -0.3800 -0.5686 -0.0112
  656MOL0     N86510  11.526   4.164   9.263 -0.0767 -0.7412  0.1407
  656MOL0     N86511  11.548   4.067   9.185 -1.0753  0.6799  0.2817
  656MOL0     C86512  10.985   3.003   9.050 -0.3168  0.2445  0.4485
  656MOL0     C86513  10.911   2.900   9.103  0.2710  0.2023 -0.0321
  656MOL0     C86514  10.549   2.669   9.237 -0.4137  1.1058 -0.4262
  656MOL0     C86515  10.534   2.543   9.181  0.0359 -0.2482 -0.1447
  656MOL0     C86516  10.418   2.460   9.207  0.0029  0.0176 -0.0784
  656MOL0     C86517  10.329   2.505   9.312 -0.6310  0.0419 -0.0595
  656MOL0     O86518  10.225   2.431   9.357  0.0682  0.1117  0.4481
  656MOL0     C86519  10.093   2.502   9.370  0.1450 -0.1483  0.2321
  656MOL0     C86520  10.034   2.548   9.235 -0.4678 -0.5402 -0.1831
  656MOL0     C86521  10.031   2.430   9.128  1.2014  0.6808 -0.0609
  656MOL0     C86522   9.894   2.357   9.147 -0.3359  0.0877 -0.7993
  656MOL0     C86523   9.865   2.262   9.027  0.7683 -0.2492 -1.2974
  656MOL0     C86524   9.836   2.185   8.941  1.0819  0.1042  0.4193
  656MOL0     C86525  10.363   2.619   9.384 -0.8782  0.0179 -0.5481
  656MOL0     C86526  10.479   2.692   9.352  1.4765 -0.2121 -0.7126
  656MOL0     H86527  10.682   2.880   8.857  1.4938 -2.6550 -0.9618
  656MOL0     H86528  10.790   3.066   8.786 -2.1475 -0.7556 -1.2738
  656MOL0     H86529  10.916   3.288   8.790 -0.5843 -1.7253  0.0114
  656MOL0     H86530  11.026   3.174   8.700  0.0097 -0.5901  0.5014
  656MOL0     H86531  11.116   3.387   8.663  0.0603 -1.5029 -0.4234
  656MOL0     H86532  11.223   3.293   8.771  0.5762 -0.5212 -0.8636
  656MOL0     H86533  11.169   3.414   8.973 -1.6510  0.3856  0.9453
  656MOL0     H86534  11.059   3.510   8.874  1.2073  2.2537  0.4527
  656MOL0     H86535  11.368   3.504   8.873 -0.7513  0.4712  2.7328
  656MOL0     H86536  11.269   3.586   8.745  0.0080  3.0735 -0.0131
  656MOL0     H86537  11.186   3.737   8.921  0.5851  0.3782 -1.5527
  656MOL0     H86538  11.344   3.743   8.872  0.0297 -1.5751 -1.7427
  656MOL0     H86539  11.403   3.594   9.086 -1.8276 -1.3387 -0.8816
  656MOL0     H86540  11.245   3.573   9.135  1.8006 -1.9215  0.8581
  656MOL0     H86541  11.225   3.842   9.151 -0.5191  2.6741  3.4056
  656MOL0     H86542  11.303   3.755   9.271 -1.9433  3.4254 -0.3211
  656MOL0     H86543  11.450   3.892   9.029  3.4293  1.2091  0.6277
  656MOL0     H86544  11.532   3.791   9.140 -0.7696  0.0549 -0.1257
  656MOL0     H86545  11.275   3.984   9.353 -1.1040  1.4966  1.1201
  656MOL0     H86546  11.445   4.299   9.495 -0.8772  3.2488  0.3484
  656MOL0     H86547  11.308   4.198   9.503 -2.1427 -0.1247 -2.1722
  656MOL0     H86548  11.199   4.281   9.310 -0.3807  0.6246  0.9481
  656MOL0     H86549  11.307   4.422   9.296  0.7999 -1.6149 -3.5026
  656MOL0     H86550  11.112   4.500   9.386  2.2035  0.0704 -1.0374
  656MOL0     H86551  11.106   4.372   9.505  1.2582  2.1221  2.6578
  656MOL0     H86552  11.309   4.590   9.516 -1.2960  1.3375  0.5765
  656MOL0     H86553  11.312   4.437   9.607 -1.0414 -1.3911  0.7069
  656MOL0     H86554  11.355   4.752   9.660  1.5143  0.8338 -0.3314
  656MOL0     H86555  11.387   4.915   9.817 -1.7279  2.8435  0.1200
  656MOL0     H86556  11.437   4.887  10.314  3.0512 -0.5566  2.7074
  656MOL0     H86557  11.426   5.007  10.548  2.2012  1.8362  0.5986
  656MOL0     H86558  11.292   5.451  10.563 -1.4955  1.0760  4.1109
  656MOL0     H86559  11.454   5.492  10.515 -2.6329  1.6105 -0.2177
  656MOL0     H86560  11.354   5.397  10.777  1.2603 -0.6929 -0.2262
  656MOL0     H86561  11.394   5.575  10.728 -0.9282  0.7734 -0.4592
  656MOL0     H86562  11.620   5.525  10.725  0.4476 -1.9265 -1.0595
  656MOL0     H86563  11.591   5.357  10.753 -0.6752 -0.3567 -0.9727
  656MOL0     H86564  11.478   5.565  10.935  0.0822 -0.0157  0.2875
  656MOL0     H86565  11.525   5.391  10.979  1.3683 -1.2991 -1.4726
  656MOL0     H86566  11.752   5.469  10.962 -0.2158  0.6466 -0.1937
  656MOL0     H86567  11.670   5.534  11.097  0.9377  0.8866 -0.6347
  656MOL0     H86568  11.621   5.745  10.994  0.3243 -1.4418  2.7356
  656MOL0     H86569  11.717   5.709  10.848  1.2255  3.2902  0.5281
  656MOL0     H86570  11.899   5.669  11.065 -0.5239 -1.7801 -0.6185
  656MOL0     H86571  11.902   5.744  10.910 -1.1127 -3.3397 -0.5515
  656MOL0     H86572  11.909   5.903  11.122 -0.5415  1.2065  0.5636
  656MOL0     H86573  11.741   5.846  11.152  1.5984 -1.2391  1.1551
  656MOL0     H86574  11.372   5.375  10.332  1.9050 -0.0775  0.9973
  656MOL0     H86575  11.313   5.224  10.123  0.3094  3.4271  0.4520
  656MOL0     H86576  11.071   4.731  10.067 -1.3547  1.6028 -0.2644
  656MOL0     H86577  11.039   4.564   9.881 -0.6848 -0.2914 -0.1236
  656MOL0     H86578  11.075   3.045   9.095  1.4899 -1.3489 -1.4641
  656MOL0     H86579  10.940   2.860   9.200 -2.5273  0.2630  0.9191
  656MOL0     H86580  10.609   2.515   9.107 -2.3711 -1.9413 -2.1408
  656MOL0     H86581  10.412   2.364   9.156 -0.2839  1.3128 -2.5923
  656MOL0     H86582  10.102   2.586   9.440 -1.2181 -0.1386  0.4295
  656MOL0     H86583  10.021   2.428   9.406  1.1194 -2.3613 -2.0801
  656MOL0     H86584   9.936   2.594   9.248  0.7998  1.9654  1.0999
  656MOL0     H86585  10.089   2.631   9.189 -2.7514  0.0482 -2.0721
  656MOL0     H86586  10.121   2.368   9.140  1.7038  1.4968  0.4739
  656MOL0     H86587  10.028   2.474   9.028  2.7371  1.3936  0.1846
  656MOL0     H86588   9.906   2.287   9.229  1.1637 -0.6037 -1.5637
  656MOL0     H86589   9.811   2.427   9.156  0.0677  0.2885  3.0436
  656MOL0     H86590   9.816   2.128   8.853  1.5591  3.2133 -1.8799
  656MOL0     H86591  10.309   2.635   9.477 -0.4071 -0.9034 -0.0952
  656MOL0     H86592  10.488   2.778   9.418 -3.0591  0.0272 -0.0715
  657MOL0     O86593   8.631   2.968   4.407 -0.7765  0.3671  0.4132
  657MOL0     C86594   8.721   2.874   4.402 -0.0560  0.4838  1.0485
  657MOL0     O86595   8.846   2.886   4.451 -0.0112 -0.5175  0.6765
  657MOL0     C86596   8.879   3.010   4.516 -0.4712  0.1150  0.8443
  657MOL0     C86597   9.007   3.050   4.506  0.2537 -0.2252 -0.4518
  657MOL0     C86598   9.053   3.178   4.570  0.2510 -0.0451  0.1029
  657MOL0     C86599   8.967   3.252   4.646 -0.9525  0.4888 -0.3857
  657MOL0     O86600   9.012   3.370   4.702  0.1410  0.5541 -0.5539
  657MOL0     C86601   9.149   3.409   4.694 -0.4876  0.0254  0.6304
  657MOL0     C86602   9.166   3.534   4.790 -0.1664 -0.4326  0.5436
  657MOL0     C86603   9.309   3.581   4.792  0.5090 -0.3347 -0.3907
  657MOL0     C86604   9.344   3.668   4.913 -0.4400 -0.1766 -0.6618
  657MOL0     C86605   9.364   3.583   5.037  0.1615 -0.8794 -0.8523
  657MOL0     C86606   9.404   3.666   5.167 -0.3877 -0.4737  0.8964
  657MOL0     C86607   9.410   3.570   5.287 -0.7514 -0.0896 -0.3179
  657MOL0     C86608   9.391   3.638   5.414 -0.2096  0.2288 -0.3623
  657MOL0     N86609   9.262   3.702   5.434 -0.0380 -0.7968  0.9666
  657MOL0     C86610   9.139   3.652   5.451  0.8365 -0.7551 -0.1486
  657MOL0     C86611   9.058   3.757   5.418  0.9166  0.2135 -0.0901
  657MOL0     C86612   8.913   3.757   5.378  0.0100 -0.3280  0.5739
  657MOL0     C86613   8.868   3.623   5.322  0.4712  0.5205  0.4003
  657MOL0     C86614   8.717   3.634   5.270 -0.6380 -0.0580 -0.3293
  657MOL0     C86615   8.676   3.510   5.194  0.4527 -0.2389 -0.4080
  657MOL0     O86616   8.541   3.523   5.135  0.1349 -0.0070 -0.1128
  657MOL0     C86617   8.490   3.423   5.061  0.5019  0.7192 -0.7753
  657MOL0     C86618   8.556   3.297   5.040  0.3485 -0.3018 -0.8703
  657MOL0     C86619   8.494   3.204   4.966  0.2762 -0.0054 -0.2340
  657MOL0     C86620   8.384   3.239   4.887  1.0388  0.4290 -0.1862
  657MOL0     C86621   8.317   3.113   4.829 -0.5013  0.0122  0.2076
  657MOL0     O86622   8.349   2.981   4.852  0.2066  0.1041 -1.0023
  657MOL0     C86623   8.291   2.889   4.764  0.4532  0.2799 -0.2477
  657MOL0     C86624   8.366   2.855   4.647 -0.0359 -0.3607 -0.2167
  657MOL0     C86625   8.328   2.752   4.568 -0.0929  0.3447  0.2255
  657MOL0     C86626   8.210   2.679   4.603 -0.7846  0.0375  1.3017
  657MOL0     O86627   8.154   2.570   4.532  0.3281 -0.6115 -0.0910
  657MOL0     C86628   8.242   2.499   4.440  0.5486  0.8892  0.0684
  657MOL0     C86629   8.157   2.423   4.336  0.3847  0.1125 -0.4617
  657MOL0     C86630   8.084   2.301   4.391 -0.1752  0.4135  0.2557
  657MOL0     C86631   8.186   2.187   4.383 -0.2396 -0.4445  0.2413
  657MOL0     C86632   8.119   2.088   4.462  0.2387  0.9746  0.0854
  657MOL0     C86633   8.212   1.967   4.502  0.1364 -0.3325 -0.3837
  657MOL0     C86634   8.141   1.869   4.590  0.9648  0.0577  0.3915
  657MOL0     C86635   8.042   1.785   4.509 -0.3079  0.3306 -0.0172
  657MOL0    Cl86636   7.958   1.679   4.625  0.9783  0.0802  0.4421
  657MOL0     C86637   8.141   2.709   4.717  1.1632 -0.1376  0.1995
  657MOL0     C86638   8.182   2.811   4.798 -0.6575  0.2287  0.3411
  657MOL0     O86639   8.235   3.149   4.750 -0.8299 -0.4699 -0.1473
  657MOL0     C86640   8.322   3.360   4.898 -0.4004 -0.4885 -1.3620
  657MOL0     C86641   8.370   3.452   4.991  0.0819 -0.9441 -0.1855
  657MOL0     N86642   9.129   3.877   5.410 -0.2852 -0.2508  0.0221
  657MOL0     N86643   9.256   3.838   5.409  0.1526 -0.4037 -0.2073
  657MOL0     C86644   8.837   3.197   4.668 -0.2687  0.5800  0.2403
  657MOL0     C86645   8.795   3.086   4.601 -0.3373  0.1554 -0.5967
  657MOL0     C86646   8.691   2.750   4.334  0.1033  0.6210  0.4561
  657MOL0     C86647   8.792   2.648   4.342 -0.2651  0.3800  0.0164
  657MOL0     C86648   8.766   2.527   4.284  1.1444 -0.3133  0.0203
  657MOL0     C86649   8.641   2.506   4.215 -1.1148 -0.9415 -0.1319
  657MOL0     O86650   8.637   2.376   4.175 -0.0976  0.5129  0.8980
  657MOL0     C86651   8.515   2.330   4.105  0.5831 -0.5168 -0.0884
  657MOL0     C86652   8.510   2.181   4.104  0.5116  1.4252  0.3038
  657MOL0     C86653   8.540   2.099   4.240  0.1723 -0.3726  0.8503
  657MOL0     C86654   8.500   1.956   4.218 -0.0769  0.1964  0.4782
  657MOL0     C86655   8.508   1.874   4.341 -0.4402  0.7480 -0.1034
  657MOL0     C86656   8.529   1.828   4.458 -0.4563  0.0629 -0.9117
  657MOL0     C86657   8.543   2.602   4.206  0.1061 -1.2773 -0.3597
  657MOL0     C86658   8.575   2.732   4.257  0.3809 -0.0887  0.0627
  657MOL0     H86659   9.072   2.990   4.443  1.7873 -0.6932  1.4407
  657MOL0     H86660   9.155   3.206   4.545 -0.6322  1.7271 -1.8356
  657MOL0     H86661   9.172   3.448   4.595  3.0189  0.2538  1.4126
  657MOL0     H86662   9.222   3.335   4.728  1.9089  1.6688 -0.7589
  657MOL0     H86663   9.134   3.499   4.889 -1.0663 -0.8434  0.1224
  657MOL0     H86664   9.093   3.606   4.752  2.6578  2.7749  0.6733
  657MOL0     H86665   9.330   3.619   4.692  2.1449  0.1807  0.1254
  657MOL0     H86666   9.370   3.490   4.797  2.0044  0.7089  1.4364
  657MOL0     H86667   9.437   3.719   4.887 -1.2993  1.6148 -0.3976
  657MOL0     H86668   9.270   3.748   4.922 -2.4567 -1.8746 -1.2124
  657MOL0     H86669   9.439   3.510   5.005  1.6929 -0.1291  0.8295
  657MOL0     H86670   9.268   3.542   5.068  0.8354 -1.9432 -0.1122
  657MOL0     H86671   9.325   3.740   5.183 -0.8407 -0.5503 -0.7859
  657MOL0     H86672   9.500   3.718   5.153  0.0621 -1.7705 -1.2489
  657MOL0     H86673   9.332   3.495   5.273  0.0050 -1.0314  0.3631
  657MOL0     H86674   9.509   3.524   5.284 -0.8845 -0.5443  1.2762
  657MOL0     H86675   9.480   3.700   5.430  2.5801 -3.2441 -1.1988
  657MOL0     H86676   9.406   3.561   5.490 -1.0784 -1.6153 -1.9689
  657MOL0     H86677   9.102   3.551   5.446 -0.8593 -0.1636 -0.1710
  657MOL0     H86678   8.897   3.830   5.299 -1.5211 -3.5414 -2.3672
  657MOL0     H86679   8.842   3.784   5.457  1.7790  2.8469  1.2203
  657MOL0     H86680   8.864   3.552   5.405 -1.9928 -0.0971 -0.1568
  657MOL0     H86681   8.941   3.591   5.246 -0.7506  0.7629 -0.9202
  657MOL0     H86682   8.651   3.649   5.357  0.4133  0.6585  0.3678
  657MOL0     H86683   8.709   3.724   5.210 -2.7934 -0.6349 -1.0069
  657MOL0     H86684   8.678   3.432   5.271  0.3558  1.0199  0.9255
  657MOL0     H86685   8.744   3.484   5.113 -1.9751 -0.2597 -2.5895
  657MOL0     H86686   8.647   3.275   5.093  0.5691  2.3454  0.0138
  657MOL0     H86687   8.533   3.103   4.966 -1.7838 -0.9767  3.1191
  657MOL0     H86688   8.438   2.928   4.611  2.2719 -1.7564  1.2867
  657MOL0     H86689   8.363   2.739   4.467 -0.3947  3.2096 -0.3347
  657MOL0     H86690   8.312   2.438   4.498 -0.5272  0.9927  1.5353
  657MOL0     H86691   8.298   2.566   4.374  2.9811 -1.2650 -0.2011
  657MOL0     H86692   8.217   2.396   4.249 -1.4569  1.3647 -2.2253
  657MOL0     H86693   8.079   2.488   4.296  0.3645  0.9647  0.8968
  657MOL0     H86694   7.992   2.282   4.334 -0.7978 -0.3472  1.4779
  657MOL0     H86695   8.046   2.326   4.490 -2.8161 -0.7652 -0.3624
  657MOL0     H86696   8.202   2.183   4.275  1.5260 -0.7159  0.4783
  657MOL0     H86697   8.282   2.214   4.429 -0.1350 -1.0554  0.3793
  657MOL0     H86698   8.032   2.050   4.407  1.0746  0.4266 -0.8990
  657MOL0     H86699   8.088   2.120   4.562  2.7321 -0.5889  1.4819
  657MOL0     H86700   8.293   1.993   4.571  0.6866  0.9114 -1.4623
  657MOL0     H86701   8.256   1.933   4.408 -1.4598  4.3499 -3.1144
  657MOL0     H86702   8.225   1.809   4.625  1.5203  2.4880  3.6922
  657MOL0     H86703   8.085   1.900   4.679  0.0169 -3.3581  1.1453
  657MOL0     H86704   8.107   1.722   4.447 -0.1055  2.2238 -1.8312
  657MOL0     H86705   7.974   1.846   4.449  0.3171  4.2332  2.8763
  657MOL0     H86706   8.044   2.668   4.746 -0.3435  0.8865 -2.9072
  657MOL0     H86707   8.126   2.836   4.888  1.6711  1.0627  1.6539
  657MOL0     H86708   8.236   3.391   4.839 -1.8857  2.4010  1.9197
  657MOL0     H86709   8.332   3.551   5.018 -1.3054 -1.5540  0.1868
  657MOL0     H86710   8.762   3.236   4.735  0.1221 -1.5543  2.0341
  657MOL0     H86711   8.693   3.056   4.623 -0.3470  0.3775 -0.3363
  657MOL0     H86712   8.877   2.664   4.408 -1.4671  0.5949  1.5770
  657MOL0     H86713   8.836   2.444   4.289  5.1083  2.6663 -0.6985
  657MOL0     H86714   8.513   2.357   3.999  0.9723  0.4532  0.1374
  657MOL0     H86715   8.424   2.373   4.149  0.6837 -2.2807  1.9976
  657MOL0     H86716   8.413   2.144   4.068  0.1003  1.1074  1.6810
  657MOL0     H86717   8.588   2.156   4.031  0.3656  1.4284  0.1461
  657MOL0     H86718   8.484   2.142   4.324 -1.1401  0.8684 -0.5836
  657MOL0     H86719   8.643   2.095   4.275  0.4738 -0.0919  0.0046
  657MOL0     H86720   8.402   1.938   4.175  0.3510 -1.7590  0.2266
  657MOL0     H86721   8.575   1.909   4.153 -0.0252 -1.6658  1.8137
  657MOL0     H86722   8.550   1.774   4.548  2.1963  2.0023 -0.2852
  657MOL0     H86723   8.453   2.594   4.145 -0.6644  2.1855  0.0966
  657MOL0     H86724   8.506   2.816   4.252  0.3662 -0.1449 -0.8818
  658MOL0     O86725  10.521   3.395   2.778  0.0418 -0.0807  0.4090
  658MOL0     C86726  10.532   3.291   2.714 -0.4340  0.0469 -0.1562
  658MOL0     O86727  10.531   3.276   2.584  0.3055 -0.4693 -0.6254
  658MOL0     C86728  10.480   3.387   2.507 -0.9705  0.5687 -0.5475
  658MOL0     C86729  10.352   3.384   2.454  0.7840  0.6777 -0.3415
  658MOL0     C86730  10.307   3.478   2.373  0.4041 -0.5210 -0.1343
  658MOL0     C86731  10.384   3.586   2.355  0.2191 -0.2966  0.0567
  658MOL0     O86732  10.325   3.692   2.282  0.1822 -0.2687  0.0528
  658MOL0     C86733  10.428   3.752   2.199  0.1032  1.2882  0.1840
  658MOL0     C86734  10.348   3.796   2.075 -0.0775 -0.6736  0.7338
  658MOL0     C86735  10.435   3.834   1.944  1.0065  0.7261 -0.1416
  658MOL0     C86736  10.546   3.925   1.954  0.3450 -0.5572  0.3697
  658MOL0     C86737  10.496   4.064   1.992  0.0659 -0.8578  1.0385
  658MOL0     C86738  10.616   4.159   1.963 -0.0237 -0.0332 -1.0017
  658MOL0     C86739  10.595   4.287   2.056  0.2688  0.1413  0.0300
  658MOL0     C86740  10.466   4.365   2.020  0.1621 -0.3291 -0.6266
  658MOL0     N86741  10.454   4.430   1.887  0.2048 -0.8234  0.0375
  658MOL0     C86742  10.455   4.373   1.761  0.1717  0.2214  0.0151
  658MOL0     C86743  10.409   4.461   1.673 -0.3697 -0.3447  0.2734
  658MOL0     C86744  10.391   4.430   1.527  0.5870  1.3158 -0.4625
  658MOL0     C86745  10.330   4.291   1.508  0.6090 -0.9691 -0.1106
  658MOL0     C86746  10.349   4.270   1.359  0.9944  0.9764 -0.2096
  658MOL0     C86747  10.237   4.317   1.272  0.1433 -0.3985 -1.2513
  658MOL0     O86748  10.263   4.271   1.141  0.5099 -0.1086  0.4929
  658MOL0     C86749  10.165   4.300   1.047 -1.0185  0.3846  0.0943
  658MOL0     C86750  10.179   4.241   0.915  0.5538 -0.0813  0.1290
  658MOL0     C86751  10.074   4.272   0.820  0.8683  0.2879 -1.1769
  658MOL0     C86752   9.960   4.357   0.848 -0.8241  0.5722 -0.2720
  658MOL0     C86753   9.857   4.377   0.741 -0.1641  0.6677 -0.0474
  658MOL0     O86754   9.760   4.479   0.768  0.2465  0.3211 -0.1493
  658MOL0     C86755   9.640   4.482   0.696  0.1108  0.4569 -0.0307
  658MOL0     C86756   9.525   4.523   0.755 -0.4654 -0.4210 -1.2300
  658MOL0     C86757   9.406   4.521   0.686  0.3844 -0.6943  0.3366
  658MOL0     C86758   9.389   4.475   0.555 -0.2391 -0.7400 -0.3708
  658MOL0     O86759   9.273   4.484   0.483  0.2695 -0.0041  0.4864
  658MOL0     C86760   9.156   4.507   0.561  0.3572 -0.4325  0.1131
  658MOL0     C86761   9.031   4.512   0.479  0.2800  0.8624 -0.3958
  658MOL0     C86762   8.985   4.366   0.428  0.9964 -1.3542 -0.9862
  658MOL0     C86763   8.834   4.344   0.406  0.3351 -0.2786  0.0216
  658MOL0     C86764   8.814   4.195   0.371  0.2194  0.0857  0.0103
  658MOL0     C86765   8.668   4.189   0.328  0.2646 -0.5672 -0.4889
  658MOL0     C86766   8.616   4.047   0.301 -0.6354  0.4837  0.5522
  658MOL0     C86767   8.649   3.988   0.160 -0.2395  0.4025 -0.5525
  658MOL0    Cl86768   8.538   4.047   0.027 -0.5270  0.0031 -0.3312
  658MOL0     C86769   9.509   4.442   0.491 -0.5852 -0.1086  0.2777
  658MOL0     C86770   9.629   4.446   0.561  0.5906 -0.0439  0.6067
  658MOL0     O86771   9.860   4.303   0.640 -0.9627 -0.3261 -0.4340
  658MOL0     C86772   9.960   4.421   0.975  0.2109  0.5475 -0.5571
  658MOL0     C86773  10.053   4.384   1.073  0.7144  0.7056 -0.5895
  658MOL0     N86774  10.388   4.575   1.750 -1.1894 -0.0729 -1.6675
  658MOL0     N86775  10.426   4.565   1.871 -0.5057 -1.0226  0.7469
  658MOL0     C86776  10.514   3.599   2.409  0.0004 -0.2067 -0.6916
  658MOL0     C86777  10.566   3.487   2.478  0.6684 -1.8510  0.4529
  658MOL0     C86778  10.549   3.169   2.795 -0.6603 -0.4453  0.8567
  658MOL0     C86779  10.620   3.169   2.914  0.3359 -0.5828 -0.7500
  658MOL0     C86780  10.616   3.060   2.999 -0.3820  0.2284  0.1201
  658MOL0     C86781  10.552   2.938   2.962  0.0105 -0.6183 -0.3581
  658MOL0     O86782  10.564   2.827   3.047 -0.2344  0.2475  0.5789
  658MOL0     C86783  10.586   2.704   2.982 -0.5714  0.0925  0.1224
  658MOL0     C86784  10.737   2.700   2.937 -0.1346 -0.7661  0.1486
  658MOL0     C86785  10.819   2.689   3.072  0.6442  0.1089 -0.2683
  658MOL0     C86786  10.783   2.577   3.177 -0.5244 -0.4254 -0.2455
  658MOL0     C86787  10.807   2.446   3.128 -1.0096 -0.3951  0.3620
  658MOL0     C86788  10.808   2.331   3.109  0.2038  0.8250 -1.0581
  658MOL0     C86789  10.482   2.938   2.845  0.3829  0.0471 -0.1435
  658MOL0     C86790  10.485   3.045   2.756 -0.4256  0.2160 -0.4169
  658MOL0     H86791  10.293   3.296   2.478 -2.4011  3.0567  1.2967
  658MOL0     H86792  10.209   3.484   2.326  0.0497  0.2584  0.6743
  658MOL0     H86793  10.515   3.692   2.171  0.1400  2.0464 -1.4837
  658MOL0     H86794  10.467   3.835   2.258 -0.1046 -1.2768  4.3168
  658MOL0     H86795  10.282   3.882   2.092 -1.3737 -1.0665 -1.7915
  658MOL0     H86796  10.290   3.712   2.035  0.0437 -0.0116 -0.9090
  658MOL0     H86797  10.365   3.875   1.870  2.8550  1.1933 -1.6965
  658MOL0     H86798  10.482   3.741   1.913 -0.2168 -0.7627  2.1284
  658MOL0     H86799  10.632   3.887   2.010  0.7934  2.1976  1.7306
  658MOL0     H86800  10.592   3.930   1.854 -0.2100 -0.3829  0.1215
  658MOL0     H86801  10.458   4.077   2.094 -2.2183 -1.7061  0.3515
  658MOL0     H86802  10.411   4.096   1.932  1.7533 -0.1155 -1.0651
  658MOL0     H86803  10.618   4.189   1.858 -6.2455  0.2422 -1.3878
  658MOL0     H86804  10.714   4.124   1.998 -0.5579  0.3685  1.0456
  658MOL0     H86805  10.585   4.253   2.160 -6.4233  2.5805  0.7240
  658MOL0     H86806  10.680   4.356   2.048  1.4852 -1.5430 -3.2253
  658MOL0     H86807  10.455   4.447   2.091  1.4153 -0.6615 -0.0178
  658MOL0     H86808  10.381   4.298   2.035 -0.9728  0.7638 -1.8731
  658MOL0     H86809  10.472   4.271   1.728  1.3715  0.6513 -0.7783
  658MOL0     H86810  10.489   4.433   1.478  1.4078 -0.4060  0.9859
  658MOL0     H86811  10.340   4.513   1.478  3.3897  1.7119 -3.0528
  658MOL0     H86812  10.222   4.294   1.525  0.3701  1.4991 -1.5802
  658MOL0     H86813  10.380   4.211   1.563 -0.7584 -1.0282  1.0999
  658MOL0     H86814  10.452   4.306   1.348  1.6343 -0.3853  1.0042
  658MOL0     H86815  10.357   4.162   1.343 -2.1206  0.5358  0.5516
  658MOL0     H86816  10.246   4.424   1.291  0.8877 -1.0716  3.1281
  658MOL0     H86817  10.136   4.284   1.298  0.1941  1.5050  1.8466
  658MOL0     H86818  10.256   4.166   0.900  0.8079  0.0551  0.7483
  658MOL0     H86819  10.079   4.213   0.729 -0.3000  0.4728 -1.3720
  658MOL0     H86820   9.522   4.542   0.862  1.1660 -0.2588 -1.1794
  658MOL0     H86821   9.327   4.552   0.754 -0.8450 -2.0713 -0.4104
  658MOL0     H86822   9.168   4.610   0.597 -0.5481 -0.7048  1.2719
  658MOL0     H86823   9.144   4.441   0.647  0.3999  0.7921  1.0887
  658MOL0     H86824   9.047   4.574   0.390 -1.7367  1.1318 -0.6383
  658MOL0     H86825   8.953   4.556   0.542  0.3141  1.1004 -0.5203
  658MOL0     H86826   9.022   4.287   0.494 -0.7631 -0.2140  1.5126
  658MOL0     H86827   9.032   4.360   0.329 -0.4538  0.9377 -1.8816
  658MOL0     H86828   8.781   4.380   0.495 -1.5029 -1.0132 -0.7191
  658MOL0     H86829   8.806   4.403   0.318  0.0728  2.5825  1.9011
  658MOL0     H86830   8.838   4.128   0.455 -0.1929 -1.3712 -1.0049
  658MOL0     H86831   8.891   4.162   0.301 -2.7001 -0.7921 -3.0097
  658MOL0     H86832   8.636   4.255   0.247 -4.8799  1.0226  2.4243
  658MOL0     H86833   8.614   4.230   0.414 -0.0868  0.9830 -1.4070
  658MOL0     H86834   8.658   3.981   0.377 -0.5773  1.3606  1.3029
  658MOL0     H86835   8.508   4.037   0.289 -0.7138  0.9099  0.8776
  658MOL0     H86836   8.622   3.883   0.169  0.1077  0.4891  2.7842
  658MOL0     H86837   8.754   4.004   0.131 -0.3378  1.2079 -0.5029
  658MOL0     H86838   9.514   4.415   0.386 -1.5160 -3.4980  0.9920
  658MOL0     H86839   9.713   4.413   0.501 -1.5590 -0.4648 -2.4096
  658MOL0     H86840   9.875   4.484   0.998  1.5726  2.6803 -1.0802
  658MOL0     H86841  10.034   4.410   1.177  2.7151 -1.6697  0.4870
  658MOL0     H86842  10.581   3.683   2.396 -1.3431  1.5549  2.5759
  658MOL0     H86843  10.668   3.485   2.515  0.2798 -1.5634  1.5498
  658MOL0     H86844  10.674   3.256   2.949  0.7943 -1.4593  0.8325
  658MOL0     H86845  10.657   3.059   3.100  0.2474  1.5924 -0.1029
  658MOL0     H86846  10.520   2.685   2.898  3.4978  0.7266 -3.6087
  658MOL0     H86847  10.556   2.620   3.044 -1.2488  1.9804  2.5212
  658MOL0     H86848  10.743   2.603   2.887 -0.9242 -1.6575  1.7147
  658MOL0     H86849  10.778   2.783   2.879  0.5980  0.3555  2.1444
  658MOL0     H86850  10.816   2.787   3.120  0.9622  0.4320 -0.8942
  658MOL0     H86851  10.925   2.684   3.045  0.3244 -1.5418 -1.3843
  658MOL0     H86852  10.842   2.588   3.269 -0.5585  1.6502 -0.4179
  658MOL0     H86853  10.677   2.569   3.205 -0.6087 -1.4529 -0.8117
  658MOL0     H86854  10.816   2.227   3.086 -2.1218  0.3637 -0.0476
  658MOL0     H86855  10.433   2.843   2.823  0.0868 -0.8281  3.6617
  658MOL0     H86856  10.422   3.037   2.668 -1.0250 -2.8722  0.2011
  659MOL0     O86857   9.663   5.303   3.215  0.6483 -0.0892  0.9849
  659MOL0     C86858   9.600   5.402   3.259 -0.9126 -0.0119  0.2703
  659MOL0     O86859   9.489   5.397   3.341 -0.0536  0.6647 -0.2625
  659MOL0     C86860   9.444   5.284   3.407 -0.6694  0.4899 -0.6709
  659MOL0     C86861   9.317   5.293   3.458  0.9978  0.1255  0.0225
  659MOL0     C86862   9.259   5.178   3.522  0.2041 -0.3669  0.3577
  659MOL0     C86863   9.327   5.059   3.532  0.2138 -0.4476  0.1849
  659MOL0     O86864   9.263   4.950   3.585 -0.6001  0.3758  0.6960
  659MOL0     C86865   9.260   4.943   3.730 -0.1144  0.0006  0.1515
  659MOL0     C86866   9.119   4.937   3.767 -0.0237  0.2269  0.2741
  659MOL0     C86867   9.090   4.964   3.912  0.3909 -0.1654  0.3684
  659MOL0     C86868   8.930   4.959   3.923 -0.0416  0.3047 -0.9446
  659MOL0     C86869   8.865   5.048   4.023 -0.3143 -0.7664  0.4689
  659MOL0     C86870   8.877   5.196   3.991  0.2834  1.2286 -0.2257
  659MOL0     C86871   8.822   5.281   4.110 -0.1107 -0.7535  0.3158
  659MOL0     C86872   8.797   5.423   4.076  0.2352  0.0765  0.8235
  659MOL0     N86873   8.701   5.446   3.959 -0.4659 -0.3700  0.2455
  659MOL0     C86874   8.578   5.392   3.944  0.8036 -0.0673  0.0725
  659MOL0     C86875   8.528   5.445   3.829 -0.2039 -0.4102 -0.4195
  659MOL0     C86876   8.396   5.412   3.760 -0.0005 -1.0109  1.2060
  659MOL0     C86877   8.275   5.458   3.846  0.6256  0.2437  0.2307
  659MOL0     C86878   8.281   5.609   3.870  0.3703 -0.9099  0.2781
  659MOL0     C86879   8.187   5.653   3.988  0.6113  0.6191 -0.0191
  659MOL0     O86880   8.054   5.617   3.951 -0.3801 -0.6666  0.7342
  659MOL0     C86881   7.970   5.591   4.053 -0.0696 -0.3237 -0.0997
  659MOL0     C86882   7.956   5.663   4.173 -0.3716  0.4928  0.0406
  659MOL0     C86883   7.867   5.622   4.272 -0.4203  1.4111 -0.4091
  659MOL0     C86884   7.779   5.518   4.249 -0.0951 -0.9597  0.4950
  659MOL0     C86885   7.691   5.488   4.353  0.5874  0.4716 -0.4774
  659MOL0     O86886   7.621   5.379   4.323  0.0455 -0.3025 -0.3901
  659MOL0     C86887   7.539   5.326   4.421 -0.5449 -0.6897 -0.3618
  659MOL0     C86888   7.600   5.286   4.541  0.4698 -0.8713 -0.0546
  659MOL0     C86889   7.525   5.209   4.633 -0.3774  1.2816  0.5081
  659MOL0     C86890   7.395   5.171   4.609 -0.7705 -0.2551 -0.0626
  659MOL0     O86891   7.307   5.095   4.683 -0.1196 -0.5669  0.0295
  659MOL0     C86892   7.339   5.074   4.813  0.4259  0.2907 -0.2413
  659MOL0     C86893   7.287   5.190   4.903  0.0110  1.2325 -0.2394
  659MOL0     C86894   7.132   5.201   4.916  0.2627  0.7085 -0.2463
  659MOL0     C86895   7.076   5.077   4.996 -0.4238  0.7504 -0.6793
  659MOL0     C86896   6.936   5.118   5.048  1.0246  0.3766 -0.6123
  659MOL0     C86897   6.862   4.991   5.094 -0.8523  0.0226 -0.0721
  659MOL0     C86898   6.718   5.039   5.129  0.9515 -0.0775 -0.4042
  659MOL0     C86899   6.633   4.925   5.196 -0.1293  0.0900 -0.8149
  659MOL0    Cl86900   6.469   4.992   5.221 -0.0535 -0.5197  0.1873
  659MOL0     C86901   7.339   5.223   4.492 -0.0895  0.8089 -0.7837
  659MOL0     C86902   7.407   5.292   4.395  0.1803 -0.7871 -0.3783
  659MOL0     O86903   7.675   5.561   4.456 -0.1725  0.0330 -0.6877
  659MOL0     C86904   7.771   5.455   4.119 -0.0708 -0.1517  1.1753
  659MOL0     C86905   7.874   5.488   4.029  0.5646  0.1236  0.2777
  659MOL0     N86906   8.623   5.537   3.781  0.1607  0.2928 -0.2146
  659MOL0     N86907   8.716   5.542   3.866  0.3347 -0.2954 -0.5252
  659MOL0     C86908   9.463   5.057   3.497 -0.7391  0.1002 -0.5308
  659MOL0     C86909   9.523   5.167   3.433 -0.0412 -0.8364 -0.2360
  659MOL0     C86910   9.638   5.532   3.216  0.6813  0.0739  0.4036
  659MOL0     C86911   9.566   5.648   3.235  0.1552 -0.0061 -0.4671
  659MOL0     C86912   9.619   5.775   3.218  0.7198  0.1036  0.4440
  659MOL0     C86913   9.739   5.779   3.162 -1.8235 -0.4416  0.2644
  659MOL0     O86914   9.787   5.899   3.122 -0.2786 -0.3820 -0.6972
  659MOL0     C86915   9.876   5.958   3.222 -0.2144 -0.2986  0.3795
  659MOL0     C86916   9.983   6.060   3.165  0.0675  0.2796 -0.7306
  659MOL0     C86917  10.036   6.013   3.031 -0.8012  0.6876  0.0139
  659MOL0     C86918  10.131   6.105   2.953 -0.3338 -0.3362 -0.4232
  659MOL0     C86919  10.249   6.101   3.027  0.3517 -0.3726 -0.4976
  659MOL0     C86920  10.350   6.083   3.087 -0.2958  0.2090 -0.6533
  659MOL0     C86921   9.807   5.666   3.121 -1.2718 -0.2503  0.2305
  659MOL0     C86922   9.754   5.539   3.142 -1.0060  0.3395 -0.7528
  659MOL0     H86923   9.261   5.386   3.452 -1.1337 -0.9653  1.4550
  659MOL0     H86924   9.156   5.180   3.555  0.1184  0.7132  0.0697
  659MOL0     H86925   9.296   5.033   3.781 -2.6889  0.0854  2.0631
  659MOL0     H86926   9.328   4.862   3.759 -0.0275  0.6859  2.0077
  659MOL0     H86927   9.079   4.839   3.739  0.1271  0.1909  0.1843
  659MOL0     H86928   9.067   5.017   3.714  0.2478 -0.0855 -0.4708
  659MOL0     H86929   9.135   5.058   3.945 -0.6519  0.5073 -0.0777
  659MOL0     H86930   9.126   4.898   3.991  1.6922  0.8019  0.6100
  659MOL0     H86931   8.864   4.973   3.837 -4.9930 -2.8205  1.8472
  659MOL0     H86932   8.904   4.855   3.948 -0.5243  0.5688 -0.3154
  659MOL0     H86933   8.918   5.038   4.118  3.5934  2.1726 -1.0975
  659MOL0     H86934   8.759   5.021   4.020 -0.4855 -0.1468  0.8545
  659MOL0     H86935   8.813   5.214   3.904 -1.4807 -2.9183  0.0189
  659MOL0     H86936   8.983   5.220   3.976  0.3566  1.2799  0.3408
  659MOL0     H86937   8.735   5.236   4.157 -0.3024  1.6067  2.3913
  659MOL0     H86938   8.907   5.280   4.179 -0.4957  0.1450  0.8085
  659MOL0     H86939   8.888   5.475   4.046  0.9405 -1.6576 -0.2238
  659MOL0     H86940   8.756   5.470   4.167  1.1762  1.0945  0.7434
  659MOL0     H86941   8.534   5.312   4.004 -0.8365 -0.2267 -1.2763
  659MOL0     H86942   8.380   5.304   3.752 -2.2458 -0.5958 -0.8753
  659MOL0     H86943   8.387   5.453   3.660  0.1818 -0.4752  1.4072
  659MOL0     H86944   8.282   5.395   3.935  3.8680 -2.0077 -1.4074
  659MOL0     H86945   8.185   5.427   3.793  2.3893 -1.5439 -1.9296
  659MOL0     H86946   8.380   5.645   3.901 -0.1545 -0.0434  1.0077
  659MOL0     H86947   8.244   5.660   3.781 -1.2511  0.3004  1.5886
  659MOL0     H86948   8.194   5.762   3.997 -0.1153  0.7140 -0.5026
  659MOL0     H86949   8.226   5.596   4.073  1.5031 -3.8120 -3.0576
  659MOL0     H86950   8.018   5.749   4.196  1.0075 -0.3864 -0.2364
  659MOL0     H86951   7.869   5.676   4.366 -0.5773  0.2868  0.2687
  659MOL0     H86952   7.702   5.319   4.556 -0.3968  1.2707  1.6623
  659MOL0     H86953   7.578   5.162   4.715 -0.7103  1.4381  0.8193
  659MOL0     H86954   7.446   5.057   4.825  0.7800  1.1425 -1.9078
  659MOL0     H86955   7.292   4.981   4.845  2.4328  0.0950  2.4398
  659MOL0     H86956   7.313   5.284   4.853 -1.0427  1.3074 -0.6531
  659MOL0     H86957   7.346   5.182   4.995  0.4992  2.2471 -0.4417
  659MOL0     H86958   7.086   5.200   4.817 -1.1833 -2.2456  0.3448
  659MOL0     H86959   7.102   5.297   4.959 -3.4517 -0.1811 -0.5026
  659MOL0     H86960   7.063   4.992   4.928 -2.9296  0.4073  0.0902
  659MOL0     H86961   7.136   5.060   5.086 -0.3213  2.1084 -0.4694
  659MOL0     H86962   6.883   5.172   4.970 -3.3550 -2.7092 -0.1730
  659MOL0     H86963   6.925   5.189   5.131 -2.0175 -0.8192  0.1652
  659MOL0     H86964   6.909   4.956   5.186 -0.1648  2.2734  0.4951
  659MOL0     H86965   6.864   4.914   5.016 -2.5406  0.0139 -0.1408
  659MOL0     H86966   6.730   5.122   5.199 -1.3511  0.2355 -0.3167
  659MOL0     H86967   6.668   5.070   5.036  1.3343  2.2028  0.0740
  659MOL0     H86968   6.688   4.901   5.288  3.8471  1.6749 -2.5491
  659MOL0     H86969   6.628   4.842   5.125 -2.8559  0.7942 -1.5582
  659MOL0     H86970   7.234   5.204   4.470 -0.8209  2.5867  0.8546
  659MOL0     H86971   7.355   5.313   4.303 -2.1862  1.5016  1.3255
  659MOL0     H86972   7.688   5.391   4.091 -0.4823 -0.2159  2.4651
  659MOL0     H86973   7.859   5.449   3.929 -0.1808  1.9982 -0.3842
  659MOL0     H86974   9.512   4.962   3.517 -1.0400  0.2114  0.8714
  659MOL0     H86975   9.628   5.168   3.405  0.9882 -1.9099  3.1659
  659MOL0     H86976   9.470   5.641   3.285 -1.2969 -0.2538 -3.1175
  659MOL0     H86977   9.581   5.872   3.247 -0.3311  0.0547 -0.6773
  659MOL0     H86978   9.930   5.880   3.277  0.4167  0.6301  1.0836
  659MOL0     H86979   9.812   6.004   3.298 -1.4936 -0.3285 -0.6344
  659MOL0     H86980   9.922   6.152   3.162 -0.9019 -0.2308  1.4848
  659MOL0     H86981  10.052   6.076   3.248 -0.8962  3.6496 -0.3876
  659MOL0     H86982   9.950   6.001   2.963  2.3200 -2.8540 -3.8316
  659MOL0     H86983  10.070   5.909   3.039  1.6003  1.5008  0.9637
  659MOL0     H86984  10.142   6.060   2.854 -2.7824 -0.6486 -0.6005
  659MOL0     H86985  10.101   6.209   2.936 -0.5243 -0.6038 -1.9079
  659MOL0     H86986  10.440   6.045   3.130  0.1162  0.4896 -1.2549
  659MOL0     H86987   9.907   5.670   3.079 -0.0481  2.0750  3.0232
  659MOL0     H86988   9.814   5.451   3.121 -1.6969 -0.8649  1.8730
  660MOL0     O86989   5.062   3.145   1.316  0.0024  0.2748  0.3436
  660MOL0     C86990   5.185   3.154   1.331  0.3540  0.1369  0.0127
  660MOL0     O86991   5.270   3.214   1.236 -0.7249  0.1473 -0.7249
  660MOL0     C86992   5.212   3.299   1.151  1.0076  0.2392  0.7691
  660MOL0     C86993   5.122   3.398   1.185 -0.6131  0.2967 -0.1249
  660MOL0     C86994   5.080   3.494   1.092  0.8178  0.1404  0.3955
  660MOL0     C86995   5.112   3.482   0.960 -0.6454  0.5540 -0.4480
  660MOL0     O86996   5.081   3.571   0.865  0.0983 -1.1658  1.0078
  660MOL0     C86997   4.962   3.647   0.871  0.3530 -0.5159 -1.6714
  660MOL0     C86998   4.904   3.643   0.732 -0.0255 -0.1314 -0.5172
  660MOL0     C86999   4.993   3.690   0.607  0.4561  0.4489 -0.0183
  660MOL0     C87000   4.912   3.677   0.485  0.6490 -0.2584 -0.6638
  660MOL0     C87001   4.968   3.749   0.360 -0.4175 -0.1528 -0.5039
  660MOL0     C87002   4.955   3.648   0.249 -0.3634 -0.9474 -0.0305
  660MOL0     C87003   5.021   3.702   0.130  0.3702 -0.3205  0.0658
  660MOL0     C87004   5.170   3.722   0.126 -0.0244  0.6121 -0.4795
  660MOL0     N87005   5.252   3.611   0.177  0.3379  0.9377 -0.1429
  660MOL0     C87006   5.339   3.531   0.097  0.8775  0.4147 -0.1108
  660MOL0     C87007   5.423   3.481   0.196 -0.4777  0.0918 -0.2009
  660MOL0     C87008   5.541   3.392   0.177  0.1467 -0.9554 -0.4018
  660MOL0     C87009   5.602   3.388   0.034 -0.3009  0.4873 -0.4827
  660MOL0     C87010   5.666   3.509  -0.027 -0.3994 -0.6539  0.3206
  660MOL0     C87011   5.808   3.510   0.009 -0.4471 -0.1975 -0.1275
  660MOL0     O87012   5.818   3.565   0.141 -0.3682  0.5964 -0.0188
  660MOL0     C87013   5.933   3.535   0.210  0.5363  0.0272 -0.1901
  660MOL0     C87014   5.922   3.526   0.349 -1.0776 -0.9464  0.3722
  660MOL0     C87015   6.023   3.467   0.423  0.0575  0.2710 -0.2359
  660MOL0     C87016   6.151   3.432   0.370 -0.0584 -0.5394 -0.8801
  660MOL0     C87017   6.262   3.388   0.456 -0.5339  0.6182  0.0634
  660MOL0     O87018   6.246   3.400   0.595 -0.8972  0.5159  0.2281
  660MOL0     C87019   6.353   3.361   0.678 -0.4355 -0.6476 -0.0976
  660MOL0     C87020   6.326   3.276   0.791 -0.8145  0.5201  0.5190
  660MOL0     C87021   6.424   3.275   0.897 -0.5684 -0.0502 -1.2875
  660MOL0     C87022   6.547   3.345   0.887 -0.4387  0.0733  1.0118
  660MOL0     O87023   6.651   3.331   0.978  0.6847 -1.0168 -1.1853
  660MOL0     C87024   6.754   3.423   0.976  0.1469  0.3624  0.1056
  660MOL0     C87025   6.821   3.425   1.114  0.4781 -0.3197  1.2091
  660MOL0     C87026   6.866   3.289   1.150  0.7516 -0.4578 -0.0107
  660MOL0     C87027   6.951   3.206   1.056 -0.7012 -0.8526 -0.1870
  660MOL0     C87028   6.992   3.080   1.123 -0.2124  0.2515  0.5376
  660MOL0     C87029   7.068   2.985   1.025  1.3641  0.1591 -0.6645
  660MOL0     C87030   7.080   2.847   1.099 -0.3374  0.0655  0.3761
  660MOL0     C87031   7.199   2.766   1.054  0.8081  0.8984 -0.6413
  660MOL0    Cl87032   7.146   2.600   1.097 -0.0699  0.5084 -0.3655
  660MOL0     C87033   6.569   3.410   0.765 -0.5069 -0.0525 -0.2471
  660MOL0     C87034   6.478   3.429   0.670 -1.0150  0.4284  1.1666
  660MOL0     O87035   6.366   3.347   0.400  0.4223 -0.1010 -0.4050
  660MOL0     C87036   6.169   3.448   0.229 -0.1869 -0.3658 -0.3448
  660MOL0     C87037   6.057   3.499   0.154  0.3080  0.2478  0.0715
  660MOL0     N87038   5.380   3.519   0.323 -0.8324  0.2207  0.3499
  660MOL0     N87039   5.276   3.588   0.313  0.5009 -1.3847  0.1624
  660MOL0     C87040   5.216   3.388   0.928  0.0835 -1.0050  0.1005
  660MOL0     C87041   5.257   3.290   1.017  0.6884 -0.6888  0.8000
  660MOL0     C87042   5.247   3.112   1.456  0.1183 -0.4903  0.3948
  660MOL0     C87043   5.374   3.173   1.502  0.3851 -0.5880  0.2589
  660MOL0     C87044   5.415   3.150   1.632 -0.3852 -0.5058 -0.3873
  660MOL0     C87045   5.347   3.066   1.721  0.8471  0.3840  0.3032
  660MOL0     O87046   5.383   3.037   1.854 -0.1257 -0.2635  0.8275
  660MOL0     C87047   5.491   3.103   1.909 -0.1297 -0.3690  0.4024
  660MOL0     C87048   5.467   3.082   2.058 -0.2923  0.2017 -0.1824
  660MOL0     C87049   5.407   3.205   2.120  0.8706  0.2883  0.7478
  660MOL0     C87050   5.258   3.232   2.084  1.0895  0.2588 -0.6814
  660MOL0     C87051   5.220   3.354   2.147 -0.4445 -1.1720  0.6032
  660MOL0     C87052   5.190   3.441   2.220 -0.8920 -0.6814  0.3887
  660MOL0     C87053   5.236   2.994   1.667  0.5142 -0.4731  0.2886
  660MOL0     C87054   5.177   3.023   1.541 -0.3074 -0.0516 -1.9019
  660MOL0     H87055   5.096   3.411   1.290  1.9427 -1.7685  0.9046
  660MOL0     H87056   5.006   3.564   1.130 -0.5297 -0.6769 -0.6385
  660MOL0     H87057   4.983   3.752   0.897  0.7881 -1.0231  0.2290
  660MOL0     H87058   4.893   3.609   0.947  3.4627  0.1322  1.8150
  660MOL0     H87059   4.822   3.714   0.744  1.0400  1.0332  0.0291
  660MOL0     H87060   4.856   3.547   0.710 -0.2390  0.1498 -1.3180
  660MOL0     H87061   5.076   3.620   0.591  0.9176  0.9140  0.2877
  660MOL0     H87062   5.023   3.795   0.617  0.2332  0.4085  1.2588
  660MOL0     H87063   4.911   3.569   0.473 -0.1370 -0.7049  2.4737
  660MOL0     H87064   4.808   3.705   0.505 -0.1813 -1.5433 -2.8109
  660MOL0     H87065   5.070   3.788   0.365 -0.9551  1.3847 -1.0278
  660MOL0     H87066   4.918   3.844   0.342  0.1205  0.5940  1.6391
  660MOL0     H87067   4.854   3.623   0.214  0.8839 -2.3357 -2.9162
  660MOL0     H87068   5.003   3.554   0.275 -0.6095 -1.0976 -0.1134
  660MOL0     H87069   5.010   3.616   0.064 -0.8612 -1.2936  1.4607
  660MOL0     H87070   4.969   3.791   0.092  1.6656  0.2607 -0.4009
  660MOL0     H87071   5.194   3.799   0.201  1.6266 -1.9245  1.8033
  660MOL0     H87072   5.193   3.745   0.022  1.1251  0.7303 -0.2047
  660MOL0     H87073   5.345   3.526  -0.011  0.0786  0.8273 -0.1833
  660MOL0     H87074   5.513   3.288   0.196  1.3899 -1.5672 -1.7330
  660MOL0     H87075   5.614   3.433   0.248  0.6233  2.4417 -2.6041
  660MOL0     H87076   5.517   3.367  -0.032 -0.5961 -1.0716  0.3499
  660MOL0     H87077   5.673   3.305   0.035  1.4807  1.9550  0.4347
  660MOL0     H87078   5.670   3.511  -0.137  0.9367  3.7161  0.2450
  660MOL0     H87079   5.610   3.595   0.010  1.1365  0.5653 -0.0443
  660MOL0     H87080   5.866   3.556  -0.072  1.5528 -3.1846 -0.5844
  660MOL0     H87081   5.849   3.409   0.021 -1.3591 -0.6193 -0.4739
  660MOL0     H87082   5.821   3.533   0.389 -0.5425  1.1254  1.5305
  660MOL0     H87083   6.010   3.454   0.530 -0.4894 -0.0013 -0.3334
  660MOL0     H87084   6.228   3.231   0.799 -0.4399 -0.6320 -1.0237
  660MOL0     H87085   6.410   3.218   0.988  2.9337  0.5657 -0.2256
  660MOL0     H87086   6.707   3.520   0.957  1.1219  0.4954 -1.8765
  660MOL0     H87087   6.827   3.402   0.898 -1.3552  0.4620 -1.3889
  660MOL0     H87088   6.744   3.461   1.183  0.4293  0.4610  0.7570
  660MOL0     H87089   6.906   3.494   1.106 -0.4039  0.5757 -2.0039
  660MOL0     H87090   6.781   3.232   1.186  0.2242  1.4412  1.9726
  660MOL0     H87091   6.928   3.297   1.240 -0.4725 -0.8660  0.8992
  660MOL0     H87092   6.891   3.191   0.966 -0.0261 -1.3344 -0.5733
  660MOL0     H87093   7.030   3.279   1.034 -2.3540  2.6583  3.9653
  660MOL0     H87094   6.906   3.027   1.166  0.7667 -0.3689  1.7617
  660MOL0     H87095   7.059   3.105   1.205  0.7087  0.3829 -0.2356
  660MOL0     H87096   7.172   3.018   1.018  1.6788 -0.6600 -0.0609
  660MOL0     H87097   7.021   2.964   0.929  0.8038  1.5977 -0.7340
  660MOL0     H87098   7.091   2.854   1.208  0.5067 -2.3682  0.5126
  660MOL0     H87099   6.981   2.801   1.089 -1.1044  1.4507  1.2392
  660MOL0     H87100   7.297   2.791   1.095  1.3670  0.7519 -1.8486
  660MOL0     H87101   7.205   2.770   0.945 -2.1313 -0.8871 -0.9833
  660MOL0     H87102   6.666   3.445   0.731 -0.3210 -2.0990 -2.0335
  660MOL0     H87103   6.506   3.490   0.584 -2.3160  2.0111  1.8066
  660MOL0     H87104   6.268   3.438   0.186 -0.0889  1.9143 -0.8059
  660MOL0     H87105   6.066   3.515   0.047  2.1223 -2.8453 -0.3608
  660MOL0     H87106   5.266   3.393   0.832  0.0169 -1.8264  0.0223
  660MOL0     H87107   5.331   3.214   0.995  2.0395  0.6770  0.4877
  660MOL0     H87108   5.425   3.246   1.440 -1.2735 -0.5535 -1.1580
  660MOL0     H87109   5.502   3.207   1.663 -0.2697 -0.5791 -0.5719
  660MOL0     H87110   5.504   3.209   1.884  2.0941 -1.3249 -3.1827
  660MOL0     H87111   5.585   3.053   1.884 -1.1726 -1.0160 -2.6937
  660MOL0     H87112   5.407   2.992   2.075  0.3434 -0.7622 -2.6219
  660MOL0     H87113   5.561   3.072   2.113 -1.2587  1.1538  1.7083
  660MOL0     H87114   5.476   3.287   2.096  3.5171 -1.5488  1.5931
  660MOL0     H87115   5.402   3.194   2.229  0.7455  0.1142  0.7247
  660MOL0     H87116   5.233   3.213   1.979  1.5312  3.4158 -1.4575
  660MOL0     H87117   5.205   3.158   2.144  0.8795  1.0934  0.1772
  660MOL0     H87118   5.174   3.515   2.297  1.5521 -0.3325  0.6409
  660MOL0     H87119   5.183   2.936   1.742  0.7019  1.7104  2.2239
  660MOL0     H87120   5.081   2.975   1.526 -1.3488 -0.8262  4.4273
  661MOL0     O87121   6.399   6.576   3.069 -0.4101  0.4037 -0.1347
  661MOL0     C87122   6.490   6.528   3.136  0.2128 -0.2772 -0.6808
  661MOL0     O87123   6.583   6.442   3.088 -0.4112 -0.4791  0.4138
  661MOL0     C87124   6.583   6.426   2.941 -0.3309  0.6070 -1.0222
  661MOL0     C87125   6.637   6.528   2.860 -0.0056  0.5910 -0.2626
  661MOL0     C87126   6.657   6.514   2.725  0.5110 -0.0640 -0.7276
  661MOL0     C87127   6.615   6.399   2.657  0.2639 -0.3817  0.9265
  661MOL0     O87128   6.638   6.381   2.517  0.3233  0.6344  0.2000
  661MOL0     C87129   6.685   6.482   2.435  0.1495 -0.2614  0.7677
  661MOL0     C87130   6.578   6.578   2.382  0.1073  0.1480  0.2336
  661MOL0     C87131   6.633   6.671   2.268 -0.7196  0.5750 -0.4008
  661MOL0     C87132   6.719   6.608   2.158 -0.9642 -0.8269  0.2617
  661MOL0     C87133   6.761   6.717   2.055  0.4607  0.1798 -0.3812
  661MOL0     C87134   6.647   6.793   1.996 -0.3806  0.0669  0.8650
  661MOL0     C87135   6.710   6.898   1.906  1.1494  0.0238  0.5004
  661MOL0     C87136   6.618   6.997   1.842  1.0189  0.3401  0.3307
  661MOL0     N87137   6.677   7.113   1.768 -0.0879 -0.3313 -0.1173
  661MOL0     C87138   6.700   7.090   1.635  0.1998 -0.5253  1.1729
  661MOL0     C87139   6.757   7.203   1.589 -0.3293  1.0710  1.1077
  661MOL0     C87140   6.791   7.234   1.449  0.2448  1.2499  0.1315
  661MOL0     C87141   6.945   7.212   1.432  0.3943 -0.6421  0.7674
  661MOL0     C87142   6.980   7.239   1.278 -0.0339  1.1542 -0.2167
  661MOL0     C87143   7.103   7.169   1.235  0.4803 -0.5673  0.4273
  661MOL0     O87144   7.062   7.045   1.167  0.1045  0.3214  0.6997
  661MOL0     C87145   7.166   6.985   1.088 -0.7956 -1.0491 -0.3487
  661MOL0     C87146   7.144   6.925   0.960 -0.1846  0.3650 -0.3364
  661MOL0     C87147   7.251   6.880   0.894 -0.3080  1.1382  0.5280
  661MOL0     C87148   7.375   6.852   0.949  0.2263  0.5639 -0.8726
  661MOL0     C87149   7.483   6.778   0.876 -0.3328 -0.6791 -0.1576
  661MOL0     O87150   7.608   6.786   0.925 -0.6402 -0.3008  0.1069
  661MOL0     C87151   7.718   6.753   0.843  0.5314  1.1132  0.2093
  661MOL0     C87152   7.733   6.817   0.718 -0.4663 -0.2369 -0.4317
  661MOL0     C87153   7.853   6.823   0.644  0.3167 -0.1837  0.2611
  661MOL0     C87154   7.955   6.730   0.686 -0.1547  0.2968 -0.0563
  661MOL0     O87155   8.067   6.713   0.613  0.5939 -0.4116 -0.0659
  661MOL0     C87156   8.154   6.604   0.613  0.4214 -0.3975  0.4882
  661MOL0     C87157   8.268   6.632   0.508 -1.1885  0.0882  0.5855
  661MOL0     C87158   8.224   6.652   0.360 -0.1456  0.2042 -0.2718
  661MOL0     C87159   8.197   6.508   0.306  0.2058 -0.5354 -0.8741
  661MOL0     C87160   8.202   6.511   0.157 -0.3824 -0.0755 -0.7738
  661MOL0     C87161   8.149   6.375   0.088 -0.8889 -0.3770  0.2061
  661MOL0     C87162   8.161   6.370  -0.067  1.1907  0.9063 -0.5348
  661MOL0     C87163   8.310   6.385  -0.122  0.8139  0.2911  0.4145
  661MOL0    Cl87164   8.390   6.229  -0.124  0.1939  0.4611  0.2833
  661MOL0     C87165   7.943   6.655   0.805 -0.3002 -0.1863 -0.3890
  661MOL0     C87166   7.825   6.663   0.886  0.5422  0.4081  0.0890
  661MOL0     O87167   7.450   6.700   0.780  0.1635  0.1178 -0.1772
  661MOL0     C87168   7.399   6.919   1.069  0.3472  0.5916  0.9933
  661MOL0     C87169   7.298   6.977   1.143 -0.3058 -0.0183  0.2407
  661MOL0     N87170   6.768   7.299   1.689  1.1755  0.2272 -0.3989
  661MOL0     N87171   6.711   7.244   1.798  0.2476 -0.3662  0.6930
  661MOL0     C87172   6.562   6.295   2.734  0.0021  0.0582  0.0522
  661MOL0     C87173   6.542   6.308   2.876 -0.1207 -0.4162 -0.0764
  661MOL0     C87174   6.474   6.545   3.288  0.3148  0.5251  0.3498
  661MOL0     C87175   6.565   6.485   3.371 -0.3382  0.2906  0.1324
  661MOL0     C87176   6.536   6.496   3.502  0.7007 -0.1468 -0.5260
  661MOL0     C87177   6.422   6.555   3.555  0.4213 -1.5432  0.2610
  661MOL0     O87178   6.420   6.550   3.691 -0.1850  0.7952 -0.1296
  661MOL0     C87179   6.312   6.617   3.751 -0.4978  0.6080  0.7311
  661MOL0     C87180   6.332   6.769   3.735 -0.0315  0.2081 -0.7777
  661MOL0     C87181   6.199   6.841   3.748  1.0953 -0.1983  0.5658
  661MOL0     C87182   6.234   6.991   3.733  0.1624  0.5562 -0.6864
  661MOL0     C87183   6.119   7.078   3.694  0.3349 -0.3569  0.2296
  661MOL0     C87184   6.024   7.133   3.663  0.3303 -0.0607 -0.3203
  661MOL0     C87185   6.327   6.607   3.465  0.1418 -0.7598  0.4163
  661MOL0     C87186   6.361   6.606   3.334 -0.6110 -1.1008  0.6198
  661MOL0     H87187   6.652   6.625   2.908 -2.5626 -0.2399  2.5129
  661MOL0     H87188   6.708   6.600   2.681 -0.9922  1.3981  0.2863
  661MOL0     H87189   6.733   6.428   2.353 -1.2246  0.7202 -0.7431
  661MOL0     H87190   6.762   6.547   2.478  2.2887 -1.2645 -1.3189
  661MOL0     H87191   6.541   6.636   2.467  0.5799  0.5571  0.1611
  661MOL0     H87192   6.495   6.516   2.347 -0.6743  1.3917 -0.1749
  661MOL0     H87193   6.686   6.756   2.313  2.1894 -1.4887  0.3534
  661MOL0     H87194   6.541   6.685   2.211 -1.1883 -0.6340  0.0316
  661MOL0     H87195   6.806   6.562   2.207 -0.2088 -1.3825 -1.5231
  661MOL0     H87196   6.666   6.533   2.099 -2.4950  0.6807 -0.3543
  661MOL0     H87197   6.809   6.661   1.974  0.1225 -0.5263 -0.1012
  661MOL0     H87198   6.830   6.788   2.101  1.1235 -0.5244 -0.2661
  661MOL0     H87199   6.596   6.837   2.083  0.6640 -0.6092  1.8439
  661MOL0     H87200   6.581   6.738   1.928  1.2128  2.0448 -2.5380
  661MOL0     H87201   6.783   6.953   1.966 -0.1886 -0.7348  2.9289
  661MOL0     H87202   6.761   6.845   1.825 -0.4452 -0.7121 -0.0466
  661MOL0     H87203   6.552   7.049   1.913 -2.7146 -2.1018 -1.0515
  661MOL0     H87204   6.551   6.949   1.771  0.0381  1.1532  0.6762
  661MOL0     H87205   6.689   6.997   1.579  1.1705  1.2434 -2.2391
  661MOL0     H87206   6.758   7.336   1.426 -0.7179  0.2600 -3.5049
  661MOL0     H87207   6.737   7.173   1.376 -1.8587  1.2080  1.6392
  661MOL0     H87208   6.973   7.114   1.471  0.2073 -0.0243  2.5864
  661MOL0     H87209   7.003   7.283   1.492  1.1912 -0.9326  0.3444
  661MOL0     H87210   6.901   7.197   1.215  0.4264  2.0308 -1.4246
  661MOL0     H87211   6.994   7.347   1.264  2.0115  1.0660  0.7238
  661MOL0     H87212   7.164   7.155   1.325  2.4599  2.9992 -0.1500
  661MOL0     H87213   7.167   7.221   1.163 -0.5698  1.1884  0.6876
  661MOL0     H87214   7.050   6.947   0.910  0.7482  3.6318 -0.8922
  661MOL0     H87215   7.234   6.848   0.791  0.8217  2.8408 -0.2363
  661MOL0     H87216   7.643   6.865   0.684 -1.4137 -1.4701  0.2414
  661MOL0     H87217   7.857   6.867   0.545 -3.8589 -0.3212 -0.1528
  661MOL0     H87218   8.093   6.516   0.588 -0.2852 -0.3783  2.0086
  661MOL0     H87219   8.196   6.591   0.713  0.7068  1.3649  0.6308
  661MOL0     H87220   8.330   6.542   0.514 -3.4137 -1.4401  3.0587
  661MOL0     H87221   8.333   6.714   0.539  0.2147 -1.0498  0.7652
  661MOL0     H87222   8.295   6.710   0.301 -1.8322 -0.2456 -2.8947
  661MOL0     H87223   8.137   6.718   0.368 -2.0889 -2.1182 -1.3242
  661MOL0     H87224   8.258   6.430   0.353  1.2410  1.7248  1.8150
  661MOL0     H87225   8.095   6.477   0.330 -0.5325  1.8316 -0.7388
  661MOL0     H87226   8.302   6.544   0.125 -0.1237 -0.4480 -0.3663
  661MOL0     H87227   8.125   6.583   0.131 -1.2549 -0.9870 -0.7804
  661MOL0     H87228   8.046   6.357   0.117 -1.5443  0.0295 -1.7074
  661MOL0     H87229   8.211   6.292   0.125 -0.6338  0.5655  1.9918
  661MOL0     H87230   8.111   6.282  -0.111 -0.6798  1.2333  0.8064
  661MOL0     H87231   8.100   6.455  -0.099  0.3450  0.4084 -0.2868
  661MOL0     H87232   8.365   6.460  -0.064  0.3191  2.0575 -1.3031
  661MOL0     H87233   8.307   6.412  -0.227  2.5625  0.4579  0.3687
  661MOL0     H87234   8.017   6.583   0.838 -0.9122  0.2206  2.0330
  661MOL0     H87235   7.823   6.600   0.975 -0.2916  0.8633  0.4046
  661MOL0     H87236   7.501   6.940   1.101  0.1878  1.3903  1.0037
  661MOL0     H87237   7.330   7.032   1.231 -2.6036  2.2182 -0.2190
  661MOL0     H87238   6.538   6.207   2.675  0.1308  0.4167 -0.5435
  661MOL0     H87239   6.504   6.224   2.933 -0.2574  0.5564  1.3127
  661MOL0     H87240   6.636   6.408   3.345 -3.9255 -3.2549 -0.1549
  661MOL0     H87241   6.607   6.478   3.581  0.8379  1.3837 -0.2687
  661MOL0     H87242   6.294   6.578   3.852  0.8990 -2.2510 -0.0165
  661MOL0     H87243   6.221   6.586   3.698 -0.1346  2.1602 -0.8795
  661MOL0     H87244   6.394   6.802   3.819 -2.4100 -1.3806  1.7783
  661MOL0     H87245   6.378   6.788   3.638  0.3576  3.3772 -0.0909
  661MOL0     H87246   6.169   6.815   3.850 -2.7562  1.0092 -0.0910
  661MOL0     H87247   6.125   6.815   3.672  0.5612  3.3399 -0.3145
  661MOL0     H87248   6.261   7.030   3.832 -1.0745 -2.4589  0.9727
  661MOL0     H87249   6.316   7.008   3.662  1.6070 -1.8098  0.2957
  661MOL0     H87250   5.930   7.173   3.632 -0.7928 -1.8228  0.6166
  661MOL0     H87251   6.239   6.659   3.501  0.4282  0.7508 -0.9363
  661MOL0     H87252   6.277   6.637   3.272  1.6905  1.8338 -1.3547
  662MOL0     O87253   2.622   5.415   6.926  0.6932 -0.5379  1.0774
  662MOL0     C87254   2.666   5.314   6.872  0.2685  0.8273 -0.2854
  662MOL0     O87255   2.627   5.267   6.757 -1.0775  0.6781 -0.5185
  662MOL0     C87256   2.503   5.299   6.705  0.7089  0.2641  0.7525
  662MOL0     C87257   2.462   5.433   6.676 -0.6477 -0.9099  0.0750
  662MOL0     C87258   2.340   5.454   6.612  1.1256 -0.0814 -1.3561
  662MOL0     C87259   2.250   5.350   6.589  0.0923 -1.1293  0.8921
  662MOL0     O87260   2.138   5.381   6.522 -0.1689  0.3783 -0.2279
  662MOL0     C87261   2.018   5.308   6.558  0.3019  0.0510  0.2370
  662MOL0     C87262   1.891   5.351   6.476  0.5775  0.2840 -0.0573
  662MOL0     C87263   1.862   5.504   6.476 -0.8056  0.1613  0.3181
  662MOL0     C87264   1.767   5.538   6.366  0.9327 -1.1126  0.3452
  662MOL0     C87265   1.715   5.681   6.390 -0.5557 -0.6060 -0.9747
  662MOL0     C87266   1.567   5.682   6.336 -0.0528  0.1894 -0.3555
  662MOL0     C87267   1.489   5.798   6.405 -0.7152 -0.6793  0.4466
  662MOL0     C87268   1.512   5.943   6.348 -0.8460  0.0655 -0.7201
  662MOL0     N87269   1.401   6.016   6.273 -0.3440  0.1763 -0.3959
  662MOL0     C87270   1.316   5.963   6.184 -0.1552 -0.1264 -0.1244
  662MOL0     C87271   1.230   6.062   6.154  0.1264 -0.6183 -0.2363
  662MOL0     C87272   1.110   6.066   6.064  0.7008  1.0060 -0.6066
  662MOL0     C87273   1.035   5.927   6.067 -0.5116  1.2329 -0.1566
  662MOL0     C87274   0.991   5.877   6.209  0.2113 -0.4150  0.1252
  662MOL0     C87275   0.853   5.939   6.252  0.7188 -0.4988 -0.3968
  662MOL0     O87276   0.746   5.859   6.199 -0.2567  0.0080  0.1318
  662MOL0     C87277   0.617   5.892   6.192 -0.1210 -0.0396  0.3143
  662MOL0     C87278   0.524   5.808   6.131  0.1859  0.3286  0.9780
  662MOL0     C87279   0.388   5.852   6.117 -0.7311  0.0355 -0.8355
  662MOL0     C87280   0.347   5.981   6.158  0.4051 -0.3813  0.0429
  662MOL0     C87281   0.203   6.024   6.144  0.5465 -0.4981 -0.3060
  662MOL0     O87282   0.113   5.948   6.068  0.2195 -0.9341 -0.1539
  662MOL0     C87283  -0.010   6.012   6.029  0.5078 -0.4854  0.4826
  662MOL0     C87284  -0.031   6.153   6.008 -0.2128  1.2935  0.4008
  662MOL0     C87285  -0.166   6.213   6.015 -0.2276 -0.2344  0.3827
  662MOL0     C87286  -0.276   6.115   6.009  0.4136 -0.8065 -1.3887
  662MOL0     O87287  -0.399   6.178   6.010  0.5044 -0.1705  1.1922
  662MOL0     C87288  -0.518   6.100   6.047  0.2447  0.2096 -0.2967
  662MOL0     C87289  -0.639   6.186   6.008  0.9244  0.4453 -0.7921
  662MOL0     C87290  -0.774   6.135   6.034 -0.0686  0.1957 -0.2508
  662MOL0     C87291  -0.883   6.233   5.991 -0.7753  0.4837  0.4254
  662MOL0     C87292  -1.031   6.175   5.982  0.1836 -0.2065 -0.5369
  662MOL0     C87293  -1.109   6.157   6.117  0.4837 -0.0046 -0.5862
  662MOL0     C87294  -1.202   6.274   6.175 -0.2192 -0.6508  0.8821
  662MOL0     C87295  -1.291   6.223   6.285 -0.1410  0.2625 -0.3437
  662MOL0    Cl87296  -1.200   6.213   6.433 -0.0213  0.1731 -0.0367
  662MOL0     C87297  -0.258   5.977   6.008 -0.1295 -0.1764 -0.4943
  662MOL0     C87298  -0.122   5.929   6.025  1.0351 -0.5247 -0.4275
  662MOL0     O87299   0.175   6.124   6.208 -0.3507  0.0414  0.2512
  662MOL0     C87300   0.444   6.051   6.236  0.1072 -0.1877 -0.4427
  662MOL0     C87301   0.578   6.007   6.259 -0.5128  0.6601 -0.9406
  662MOL0     N87302   1.268   6.170   6.230  0.7555 -0.3107 -0.8458
  662MOL0     N87303   1.372   6.144   6.301 -0.0107  0.9950  0.2015
  662MOL0     C87304   2.291   5.222   6.605  0.3153  0.0413  0.3825
  662MOL0     C87305   2.422   5.193   6.654  1.1496 -0.2967  0.6717
  662MOL0     C87306   2.772   5.236   6.952  0.5173  0.3639  0.7652
  662MOL0     C87307   2.837   5.280   7.071  0.5613  0.4037 -0.0779
  662MOL0     C87308   2.941   5.211   7.132 -0.4912 -0.2840 -0.2435
  662MOL0     C87309   2.983   5.089   7.080  0.4655 -0.3195  0.6316
  662MOL0     O87310   3.083   5.028   7.147 -0.1475 -0.2149 -0.5531
  662MOL0     C87311   3.170   4.931   7.086 -0.5342  0.2831 -0.4231
  662MOL0     C87312   3.272   4.997   6.994 -0.1477 -0.1724  0.3438
  662MOL0     C87313   3.389   5.078   7.053  0.3558 -0.0390 -0.6069
  662MOL0     C87314   3.501   5.070   6.949  0.2876  0.0045  0.8472
  662MOL0     C87315   3.540   5.200   6.880  0.2628  0.0821  0.2157
  662MOL0     C87316   3.563   5.308   6.825 -0.1364  1.4721 -0.8585
  662MOL0     C87317   2.918   5.036   6.959  0.0029 -0.5924 -0.5023
  662MOL0     C87318   2.819   5.114   6.900  0.5618 -0.2088  0.4305
  662MOL0     H87319   2.530   5.514   6.701  2.9676 -3.8164  0.4439
  662MOL0     H87320   2.312   5.557   6.593 -2.6642 -0.9486 -1.2625
  662MOL0     H87321   2.005   5.323   6.665  0.3423  2.3828 -0.0251
  662MOL0     H87322   2.020   5.201   6.537  1.3445  0.5583 -2.7066
  662MOL0     H87323   1.808   5.288   6.510  1.0186 -0.7696 -0.9031
  662MOL0     H87324   1.889   5.320   6.372  0.3057  0.2849 -0.0547
  662MOL0     H87325   1.955   5.560   6.472  0.7371 -1.9507  2.7819
  662MOL0     H87326   1.819   5.535   6.572 -0.0945  2.6131 -0.1094
  662MOL0     H87327   1.809   5.538   6.265 -2.4265  1.9761 -1.2664
  662MOL0     H87328   1.688   5.462   6.372  1.5252 -1.8059 -0.4392
  662MOL0     H87329   1.777   5.755   6.339  0.3862 -0.7295 -0.0254
  662MOL0     H87330   1.719   5.702   6.497  3.8848 -1.4795 -0.7869
  662MOL0     H87331   1.524   5.586   6.367  0.7753 -0.2093 -0.3903
  662MOL0     H87332   1.554   5.697   6.228 -1.5925 -2.3734 -0.6019
  662MOL0     H87333   1.381   5.779   6.400 -1.7862  3.6468  2.0981
  662MOL0     H87334   1.512   5.800   6.512 -0.1124  1.0458  0.3310
  662MOL0     H87335   1.600   5.942   6.283  0.2594  0.9563  0.7060
  662MOL0     H87336   1.532   6.009   6.432  1.5272 -0.2407 -0.9788
  662MOL0     H87337   1.314   5.862   6.143  1.6501 -0.0904 -0.4076
  662MOL0     H87338   1.139   6.102   5.965 -0.2923  1.2042 -0.8360
  662MOL0     H87339   1.033   6.133   6.103 -0.6462 -1.7448  1.9281
  662MOL0     H87340   1.106   5.858   6.022 -0.6342  2.3979 -2.2917
  662MOL0     H87341   0.945   5.922   6.005 -0.2263  2.0945 -0.6578
  662MOL0     H87342   0.977   5.769   6.209 -3.0653 -0.1438  2.6298
  662MOL0     H87343   1.069   5.896   6.284  0.1368 -0.2795  0.1697
  662MOL0     H87344   0.859   6.041   6.212  2.4413 -0.9748 -1.4795
  662MOL0     H87345   0.830   5.934   6.359  1.2639 -3.0668 -0.3236
  662MOL0     H87346   0.540   5.710   6.086  1.2354  0.0129  1.9936
  662MOL0     H87347   0.322   5.775   6.077 -0.2011 -0.7701 -0.2033
  662MOL0     H87348   0.058   6.214   6.022  1.1078  0.1698 -2.3760
  662MOL0     H87349  -0.184   6.319   6.031 -0.1552  0.1091 -1.5652
  662MOL0     H87350  -0.522   6.076   6.154  0.8420  0.5617 -0.1899
  662MOL0     H87351  -0.529   6.003   5.998  0.8512 -0.0465  0.0629
  662MOL0     H87352  -0.626   6.194   5.899 -0.5251  2.6999 -0.8549
  662MOL0     H87353  -0.633   6.285   6.054  3.4235  0.5717 -1.2532
  662MOL0     H87354  -0.780   6.105   6.139 -0.5335 -0.7205 -0.5356
  662MOL0     H87355  -0.808   6.049   5.975 -0.1712 -0.5172  0.8326
  662MOL0     H87356  -0.889   6.321   6.056 -1.5575  0.2839  0.6348
  662MOL0     H87357  -0.857   6.266   5.890  0.3419 -2.7297 -0.4778
  662MOL0     H87358  -1.030   6.080   5.927  1.3152 -0.5696  0.0711
  662MOL0     H87359  -1.093   6.237   5.917 -0.5770 -0.7793 -0.3670
  662MOL0     H87360  -1.029   6.133   6.187  1.5596 -0.5640 -1.9668
  662MOL0     H87361  -1.177   6.071   6.109  0.7474 -0.7095  3.1358
  662MOL0     H87362  -1.135   6.354   6.209 -1.0748 -0.2507  1.6568
  662MOL0     H87363  -1.269   6.300   6.093  0.8082 -3.6827 -1.0820
  662MOL0     H87364  -1.323   6.121   6.261  1.2893 -0.2796 -0.0661
  662MOL0     H87365  -1.384   6.278   6.305 -0.2248 -0.4161  1.3571
  662MOL0     H87366  -0.334   5.901   5.995 -0.3975 -0.2103  1.0539
  662MOL0     H87367  -0.106   5.822   6.026 -1.7205 -1.0403 -2.1573
  662MOL0     H87368   0.419   6.145   6.285 -0.7441 -0.3036 -0.6363
  662MOL0     H87369   0.635   6.080   6.315 -1.5627 -1.0424  2.6400
  662MOL0     H87370   2.217   5.146   6.585  1.6362 -0.9607 -0.9098
  662MOL0     H87371   2.464   5.093   6.663 -0.0420 -1.1641 -2.1773
  662MOL0     H87372   2.806   5.378   7.106  0.7103  0.0028  1.2267
  662MOL0     H87373   2.986   5.253   7.221  1.4255 -2.1977 -0.2416
  662MOL0     H87374   3.126   4.849   7.029 -1.3195  0.5906 -0.2671
  662MOL0     H87375   3.231   4.877   7.160  1.2326  0.3094 -1.7796
  662MOL0     H87376   3.313   4.912   6.939  0.6286  0.3088  0.1572
  662MOL0     H87377   3.217   5.063   6.927 -2.2931 -1.6284  0.5993
  662MOL0     H87378   3.431   5.027   7.140  2.3928  0.7652 -1.0359
  662MOL0     H87379   3.372   5.184   7.077  1.7550  0.6169 -2.2482
  662MOL0     H87380   3.594   5.024   6.984  1.6956  1.1619 -1.2086
  662MOL0     H87381   3.481   4.995   6.872  0.4971  0.4089  0.3914
  662MOL0     H87382   3.567   5.405   6.781 -0.4501  1.5875 -0.6340
  662MOL0     H87383   2.942   4.953   6.893  0.0824  0.4066 -1.7522
  662MOL0     H87384   2.777   5.088   6.804 -1.3079  1.5682  0.6977
  663MOL0     O87385   6.779   7.417   2.846 -0.7502 -0.3850  0.4600
  663MOL0     C87386   6.879   7.358   2.828 -0.7247  0.3863 -0.4540
  663MOL0     O87387   6.896   7.217   2.800  0.8691  0.2987 -0.1405
  663MOL0     C87388   6.777   7.141   2.813  0.1524 -1.2644 -0.0716
  663MOL0     C87389   6.674   7.161   2.722  0.7596  0.0800  0.1913
  663MOL0     C87390   6.573   7.059   2.705 -0.9131  0.4141 -0.4747
  663MOL0     C87391   6.571   6.950   2.794 -0.9287  1.0092 -0.1930
  663MOL0     O87392   6.472   6.858   2.783 -0.1997 -0.2594 -0.6931
  663MOL0     C87393   6.337   6.906   2.759  0.0375  0.5565 -0.5378
  663MOL0     C87394   6.246   6.814   2.828 -0.2543  0.5563 -0.6479
  663MOL0     C87395   6.256   6.667   2.772  0.1589  1.1738  0.3704
  663MOL0     C87396   6.241   6.653   2.616  0.3720  0.3323 -1.0102
  663MOL0     C87397   6.203   6.512   2.576  0.1351  0.3333  0.1030
  663MOL0     C87398   6.302   6.395   2.605  0.3209 -0.4918  0.1792
  663MOL0     C87399   6.242   6.256   2.587  0.3927 -0.2797  0.0269
  663MOL0     C87400   6.319   6.180   2.475  0.3894 -0.4468 -0.0974
  663MOL0     N87401   6.243   6.059   2.429 -0.5294  0.4882 -0.8982
  663MOL0     C87402   6.233   6.001   2.310 -0.0366 -0.7744 -0.2686
  663MOL0     C87403   6.165   5.887   2.330  0.0626 -0.5061 -0.1445
  663MOL0     C87404   6.115   5.801   2.223 -0.5438 -0.4647  0.5151
  663MOL0     C87405   6.211   5.692   2.188  0.0871 -1.1101 -1.1574
  663MOL0     C87406   6.198   5.624   2.052 -0.1999  0.0538  0.3803
  663MOL0     C87407   6.078   5.544   2.028  0.5561  0.1242 -1.0383
  663MOL0     O87408   6.028   5.505   1.893 -0.5820  0.3895 -0.1213
  663MOL0     C87409   6.108   5.419   1.818  0.3251 -0.4693 -1.1170
  663MOL0     C87410   6.071   5.412   1.685  0.0223 -0.1594  0.9712
  663MOL0     C87411   6.112   5.315   1.591 -0.6978 -0.3070  0.5996
  663MOL0     C87412   6.201   5.217   1.640  0.1285 -0.8199 -0.2997
  663MOL0     C87413   6.225   5.102   1.552  0.1175 -0.2699 -0.5004
  663MOL0     O87414   6.157   5.086   1.433  0.2279  0.4231  0.0795
  663MOL0     C87415   6.210   4.989   1.344 -0.1092 -0.2188  1.1095
  663MOL0     C87416   6.204   4.855   1.363  0.9234 -0.9440 -0.2576
  663MOL0     C87417   6.271   4.763   1.294 -0.0811 -0.3389 -0.1381
  663MOL0     C87418   6.351   4.800   1.187  0.2111  0.1800  0.6995
  663MOL0     O87419   6.422   4.707   1.108 -0.3042 -0.0370  0.5021
  663MOL0     C87420   6.441   4.577   1.160 -0.0516  0.8081  0.5176
  663MOL0     C87421   6.508   4.480   1.049  0.3376  0.1545 -0.0088
  663MOL0     C87422   6.518   4.333   1.086 -0.7929  0.0366  0.0179
  663MOL0     C87423   6.606   4.251   0.990  1.3178 -0.8371  0.0554
  663MOL0     C87424   6.601   4.105   1.003  0.0161  0.8901  0.6282
  663MOL0     C87425   6.464   4.048   0.954  0.0998 -0.3117  0.7106
  663MOL0     C87426   6.435   3.898   0.982  0.3502 -0.5714 -1.0932
  663MOL0     C87427   6.519   3.805   0.891  0.0673 -0.0723 -0.5456
  663MOL0    Cl87428   6.695   3.792   0.933  0.3348 -0.1807 -0.2219
  663MOL0     C87429   6.352   4.941   1.149 -0.1624  0.4851  0.3663
  663MOL0     C87430   6.283   5.040   1.231 -0.5900  0.5368  0.2481
  663MOL0     O87431   6.298   5.020   1.604 -0.0959  0.2088  0.2472
  663MOL0     C87432   6.259   5.232   1.773 -0.2582 -0.0924  1.4407
  663MOL0     C87433   6.210   5.329   1.864  0.5496 -0.1485 -0.1513
  663MOL0     N87434   6.131   5.885   2.467 -0.0585 -1.3530  0.6169
  663MOL0     N87435   6.188   5.981   2.527 -0.3846  0.4419 -0.5305
  663MOL0     C87436   6.675   6.936   2.889 -0.2958 -0.8915  0.1640
  663MOL0     C87437   6.774   7.031   2.901  0.2784 -0.1794 -0.4953
  663MOL0     C87438   6.998   7.437   2.844 -0.4158 -0.1864 -0.3641
  663MOL0     C87439   7.115   7.380   2.789 -0.8482 -0.0498 -0.2455
  663MOL0     C87440   7.235   7.448   2.800 -0.4982 -0.7066 -0.4493
  663MOL0     C87441   7.235   7.581   2.851  0.1621  0.5178 -0.7633
  663MOL0     O87442   7.352   7.657   2.855 -0.1959  0.4789  0.3568
  663MOL0     C87443   7.359   7.794   2.899  0.3586  0.4940  0.0784
  663MOL0     C87444   7.494   7.852   2.902  0.0026  0.2816  0.4755
  663MOL0     C87445   7.544   7.909   2.773  0.1463  0.7439  0.4343
  663MOL0     C87446   7.628   7.797   2.706 -0.2391  0.5298 -0.4845
  663MOL0     C87447   7.668   7.825   2.572 -0.4327 -0.2779  0.8833
  663MOL0     C87448   7.698   7.845   2.456  0.4122 -0.4370  0.2464
  663MOL0     C87449   7.120   7.635   2.902 -0.7130 -0.3800  0.6480
  663MOL0     C87450   7.003   7.561   2.909  0.4433 -0.8836 -0.6076
  663MOL0     H87451   6.660   7.240   2.649  1.5813  1.0713  1.0776
  663MOL0     H87452   6.491   7.063   2.633 -1.8965 -0.7695  0.5169
  663MOL0     H87453   6.322   6.923   2.652 -0.6578  1.8646 -0.2491
  663MOL0     H87454   6.328   7.001   2.812 -0.3026  1.9365 -2.9240
  663MOL0     H87455   6.150   6.866   2.822  0.3676  1.5894 -2.2373
  663MOL0     H87456   6.267   6.801   2.935 -2.5968  2.3483  0.1018
  663MOL0     H87457   6.168   6.616   2.814  0.8989 -0.9356 -0.5524
  663MOL0     H87458   6.344   6.614   2.809 -1.4605 -1.6934  0.4437
  663MOL0     H87459   6.163   6.723   2.587  0.3094  0.9546  0.5922
  663MOL0     H87460   6.342   6.669   2.577  0.2971 -0.5378 -1.5904
  663MOL0     H87461   6.176   6.511   2.470 -0.5934 -0.3831  0.2883
  663MOL0     H87462   6.107   6.497   2.626  0.2882  1.1176  0.6506
  663MOL0     H87463   6.343   6.418   2.704 -0.3263  5.3728 -0.5654
  663MOL0     H87464   6.387   6.396   2.536 -0.0697 -2.2933 -0.3956
  663MOL0     H87465   6.244   6.211   2.687  2.6518  2.4808  1.3588
  663MOL0     H87466   6.137   6.268   2.561  0.8416  1.9678 -1.0072
  663MOL0     H87467   6.416   6.146   2.514  1.0162 -1.0340 -2.0482
  663MOL0     H87468   6.341   6.249   2.393  0.6271 -1.0359 -0.5368
  663MOL0     H87469   6.263   6.037   2.212  0.2424 -0.1414  0.0430
  663MOL0     H87470   6.108   5.864   2.133  0.9701 -0.7573  0.1791
  663MOL0     H87471   6.021   5.754   2.255 -0.1219 -2.2508 -0.7181
  663MOL0     H87472   6.211   5.613   2.264  0.0648 -0.3081 -0.3110
  663MOL0     H87473   6.313   5.730   2.195 -1.0393  1.7553  1.6458
  663MOL0     H87474   6.191   5.707   1.981  1.2833 -2.6902 -3.2725
  663MOL0     H87475   6.293   5.573   2.037  0.8246  1.8623  0.3522
  663MOL0     H87476   5.998   5.602   2.074 -1.3243 -0.8356 -2.9123
  663MOL0     H87477   6.094   5.457   2.092 -1.6757 -0.1415 -0.7594
  663MOL0     H87478   6.009   5.489   1.640  1.8294  1.9080  1.8383
  663MOL0     H87479   6.083   5.331   1.488 -1.2085  1.0999  0.9302
  663MOL0     H87480   6.143   4.817   1.445  0.5101 -0.8104 -0.5001
  663MOL0     H87481   6.262   4.663   1.337  1.2478  0.1805  1.4559
  663MOL0     H87482   6.345   4.531   1.187 -0.2598  2.6567  3.4565
  663MOL0     H87483   6.494   4.582   1.256  3.7551  0.8641 -1.3698
  663MOL0     H87484   6.613   4.504   1.029  0.8220 -2.0796 -0.3948
  663MOL0     H87485   6.458   4.493   0.952 -1.2612 -2.4837  0.3615
  663MOL0     H87486   6.418   4.292   1.105 -0.0912 -0.1475  4.3740
  663MOL0     H87487   6.559   4.319   1.187 -2.5027  1.3598  0.9477
  663MOL0     H87488   6.582   4.271   0.885 -0.3401  0.6779  0.6817
  663MOL0     H87489   6.706   4.285   1.019  0.7136 -1.8090  3.8662
  663MOL0     H87490   6.596   4.075   1.108 -1.0974  0.7672  0.5490
  663MOL0     H87491   6.684   4.056   0.953 -2.0705 -0.1077 -2.0981
  663MOL0     H87492   6.454   4.076   0.848 -2.5489  3.2592  1.7292
  663MOL0     H87493   6.381   4.090   1.012 -0.1255 -1.2819  1.1028
  663MOL0     H87494   6.461   3.865   1.083  0.7337  0.2442 -0.9214
  663MOL0     H87495   6.328   3.885   0.961 -0.8891  4.9617  0.2579
  663MOL0     H87496   6.514   3.838   0.787  1.5627  1.5024 -0.1746
  663MOL0     H87497   6.469   3.709   0.905  0.8107 -0.1522  2.2621
  663MOL0     H87498   6.405   4.964   1.057  2.8965 -0.0428  1.8631
  663MOL0     H87499   6.278   5.146   1.209 -0.4162  0.3976 -0.5058
  663MOL0     H87500   6.337   5.162   1.802  0.1103 -2.0740 -3.3351
  663MOL0     H87501   6.244   5.341   1.966  1.5993  0.1013 -0.5192
  663MOL0     H87502   6.676   6.856   2.963 -0.4243 -0.2162  0.9026
  663MOL0     H87503   6.837   7.015   2.987 -2.9985 -0.5059  2.0385
  663MOL0     H87504   7.121   7.281   2.744  2.1715 -0.1124  0.1414
  663MOL0     H87505   7.324   7.406   2.754  0.8048  0.6666  0.6982
  663MOL0     H87506   7.337   7.787   3.006 -0.4933 -0.0348 -0.1179
  663MOL0     H87507   7.278   7.848   2.848  0.0781  0.1611  0.1661
  663MOL0     H87508   7.508   7.928   2.979  2.6386  0.2331  0.1411
  663MOL0     H87509   7.563   7.775   2.938 -1.3502 -1.0979  0.2366
  663MOL0     H87510   7.598   8.002   2.795 -1.0143  1.7325 -0.6656
  663MOL0     H87511   7.468   7.942   2.700  0.0119  2.3668  1.2549
  663MOL0     H87512   7.716   7.778   2.769 -2.6227 -1.8700  2.4437
  663MOL0     H87513   7.574   7.703   2.719 -0.3162  0.9567  3.4406
  663MOL0     H87514   7.740   7.859   2.359  0.4104  1.8602  0.5209
  663MOL0     H87515   7.127   7.732   2.950  4.2150 -0.7236  1.2249
  663MOL0     H87516   6.914   7.604   2.954  0.8422 -0.9593  0.2647
  664MOL0     O87517  10.705   5.724   8.657  0.5502  0.2578  0.5885
  664MOL0     C87518  10.778   5.623   8.687 -0.1344 -1.1392 -0.1451
  664MOL0     O87519  10.879   5.632   8.776  0.4545 -0.8755 -0.2150
  664MOL0     C87520  10.874   5.744   8.856 -0.2255 -0.7173 -0.5378
  664MOL0     C87521  10.977   5.847   8.843  0.0675  0.8751 -0.1559
  664MOL0     C87522  10.961   5.960   8.926 -0.0340  0.3714 -0.0298
  664MOL0     C87523  10.846   5.976   9.006 -0.8831  0.6788  0.4033
  664MOL0     O87524  10.807   6.085   9.073  0.3218 -0.7945  0.0609
  664MOL0     C87525  10.899   6.199   9.077 -0.6350  0.8919 -0.3553
  664MOL0     C87526  10.815   6.313   9.125  0.0337  0.9188 -0.9505
  664MOL0     C87527  10.752   6.294   9.256  0.4438  0.5319 -1.2669
  664MOL0     C87528  10.664   6.417   9.284 -0.4221 -0.4788 -0.0903
  664MOL0     C87529  10.602   6.413   9.421 -0.5169 -1.3032  0.1845
  664MOL0     C87530  10.711   6.457   9.521  0.1995  0.2568  0.8301
  664MOL0     C87531  10.645   6.467   9.660 -0.6144 -1.3298 -0.5944
  664MOL0     C87532  10.746   6.445   9.778  0.0142 -0.2020 -1.1027
  664MOL0     N87533  10.699   6.513   9.899 -0.7274  0.3884 -1.1081
  664MOL0     C87534  10.590   6.469   9.970  0.8419  0.2820 -0.7746
  664MOL0     C87535  10.575   6.563  10.068  0.1187 -0.0282 -0.3559
  664MOL0     C87536  10.455   6.562  10.160  0.1907 -0.2834 -0.5357
  664MOL0     C87537  10.331   6.633  10.105 -0.3645 -1.3184  0.6125
  664MOL0     C87538  10.197   6.599  10.179 -0.6527  0.2848  0.3292
  664MOL0     C87539  10.166   6.450  10.158 -0.6560 -0.0174  0.1193
  664MOL0     O87540  10.172   6.422  10.015 -0.2064 -0.1604 -0.5710
  664MOL0     C87541  10.148   6.297   9.966 -0.4657 -0.3187 -0.3516
  664MOL0     C87542  10.088   6.198  10.044 -0.4407 -0.0959 -0.9299
  664MOL0     C87543  10.045   6.075   9.995  0.1508  0.4451  0.8438
  664MOL0     C87544  10.083   6.042   9.862  0.5320 -0.6038  0.2681
  664MOL0     C87545  10.069   5.906   9.802  0.0191  0.0661 -0.5549
  664MOL0     O87546  10.082   5.890   9.665  0.0495  0.7003  0.1601
  664MOL0     C87547  10.070   5.767   9.601  0.5618 -0.4500  0.4074
  664MOL0     C87548  10.141   5.757   9.481 -0.1207  0.2530  1.0700
  664MOL0     C87549  10.136   5.637   9.410 -0.9003  0.3130 -0.2746
  664MOL0     C87550  10.075   5.521   9.466 -0.1837 -0.9123 -0.2699
  664MOL0     O87551  10.086   5.389   9.420 -1.0293 -0.5029 -0.8517
  664MOL0     C87552  10.177   5.365   9.308 -0.8286 -0.3873  0.1428
  664MOL0     C87553  10.224   5.222   9.300  1.2595  0.7985 -0.3758
  664MOL0     C87554  10.337   5.181   9.394  0.1033  0.1789  0.9558
  664MOL0     C87555  10.296   5.165   9.543  0.7708  0.5068 -0.8526
  664MOL0     C87556  10.405   5.205   9.650 -0.5320  0.1448 -0.6335
  664MOL0     C87557  10.436   5.354   9.653  0.2290 -0.3612  0.1559
  664MOL0     C87558  10.342   5.417   9.754  0.0014 -0.2325 -0.2395
  664MOL0     C87559  10.360   5.573   9.765 -0.3707  0.5368  0.6790
  664MOL0    Cl87560  10.528   5.607   9.809  0.4642  0.4494  0.5177
  664MOL0     C87561   9.990   5.541   9.578  0.5692  0.7583 -0.3125
  664MOL0     C87562   9.990   5.658   9.652 -0.3885  0.2108  0.5161
  664MOL0     O87563  10.071   5.818   9.886 -0.3114 -0.7753 -0.5365
  664MOL0     C87564  10.132   6.150   9.782  0.3189  1.2321 -0.0292
  664MOL0     C87565  10.163   6.278   9.839  0.9946  0.1345  0.1547
  664MOL0     N87566  10.660   6.665  10.044  0.4992 -0.2790 -0.5705
  664MOL0     N87567  10.750   6.629   9.952  0.3695 -0.1340  0.4234
  664MOL0     C87568  10.758   5.863   9.018 -0.2598 -0.8815 -0.4279
  664MOL0     C87569  10.776   5.749   8.952  0.1850  0.2845 -0.0421
  664MOL0     C87570  10.770   5.499   8.613  0.0491  0.8425  0.4806
  664MOL0     C87571  10.646   5.474   8.529  0.2954 -0.6359 -0.2627
  664MOL0     C87572  10.640   5.372   8.438  0.1233 -0.3717 -1.2025
  664MOL0     C87573  10.754   5.281   8.421  0.0324  0.0600  0.4489
  664MOL0     O87574  10.765   5.188   8.325  0.2926  0.1210  0.1765
  664MOL0     C87575  10.643   5.118   8.291 -0.0857 -0.7455 -0.6829
  664MOL0     C87576  10.685   4.976   8.232 -0.5942  0.0064  0.3192
  664MOL0     C87577  10.556   4.911   8.179  0.4102 -0.2346 -0.4246
  664MOL0     C87578  10.529   4.967   8.035  0.1705  1.3135  0.2872
  664MOL0     C87579  10.425   4.889   7.956 -0.8782 -0.1178  0.0838
  664MOL0     C87580  10.336   4.830   7.896 -0.6828 -0.8690  0.0353
  664MOL0     C87581  10.862   5.294   8.505 -0.4961  0.8908  0.0664
  664MOL0     C87582  10.878   5.403   8.597 -0.1624 -0.6925 -0.2967
  664MOL0     H87583  11.055   5.829   8.769 -0.5352  2.2936 -1.1669
  664MOL0     H87584  11.036   6.038   8.918  0.8177 -0.4982 -0.7622
  664MOL0     H87585  10.936   6.219   8.976  0.4383  1.6722  0.1716
  664MOL0     H87586  10.990   6.191   9.137 -1.5113  0.7414  0.9934
  664MOL0     H87587  10.743   6.326   9.045  0.9286 -0.6757 -2.0691
  664MOL0     H87588  10.879   6.402   9.121 -0.8329  1.5539 -0.9512
  664MOL0     H87589  10.828   6.276   9.332 -2.1851 -3.2719  0.8261
  664MOL0     H87590  10.690   6.204   9.263  0.1065  0.5651 -3.2491
  664MOL0     H87591  10.719   6.510   9.268 -1.9365  1.1679  3.2720
  664MOL0     H87592  10.591   6.412   9.203 -0.1238 -0.8257 -0.3418
  664MOL0     H87593  10.574   6.313   9.455 -1.2233 -0.5829  1.8519
  664MOL0     H87594  10.516   6.481   9.427  0.5534  0.0716  0.5800
  664MOL0     H87595  10.753   6.549   9.479 -0.2310 -1.1948 -3.2164
  664MOL0     H87596  10.788   6.380   9.527  0.9683  1.1301  3.7791
  664MOL0     H87597  10.596   6.564   9.671  0.6993 -0.5072 -1.6662
  664MOL0     H87598  10.566   6.392   9.667 -0.3158 -1.5760  0.2307
  664MOL0     H87599  10.838   6.499   9.754 -1.4016  4.0068  1.7727
  664MOL0     H87600  10.753   6.338   9.798 -0.8749 -0.1769 -0.6068
  664MOL0     H87601  10.523   6.386   9.952  0.0644  0.5035  0.8302
  664MOL0     H87602  10.478   6.621  10.249 -1.0091  2.5927 -2.0150
  664MOL0     H87603  10.429   6.460  10.190  3.6632 -1.1931 -0.1251
  664MOL0     H87604  10.314   6.620   9.998 -2.4750  1.6695  0.4482
  664MOL0     H87605  10.350   6.740  10.116  2.4670 -1.5547 -0.9804
  664MOL0     H87606  10.209   6.631  10.283 -1.0869 -0.3399  0.5719
  664MOL0     H87607  10.123   6.672  10.145 -1.1942 -0.3183  0.1884
  664MOL0     H87608  10.063   6.426  10.187 -1.6445 -0.9682 -3.6471
  664MOL0     H87609  10.235   6.388  10.216  2.0335  1.3532 -1.4338
  664MOL0     H87610  10.068   6.223  10.148 -2.0011 -1.0050 -0.9804
  664MOL0     H87611   9.995   5.995  10.048  1.0377 -1.2630 -0.7615
  664MOL0     H87612  10.196   5.833   9.427 -2.1930  0.7541 -0.4868
  664MOL0     H87613  10.180   5.629   9.311  0.9554 -1.3509  0.6039
  664MOL0     H87614  10.273   5.415   9.321 -0.2333 -1.3230 -0.4913
  664MOL0     H87615  10.125   5.392   9.216 -1.5361 -4.0755 -0.7056
  664MOL0     H87616  10.273   5.229   9.202  2.7551  2.2121  0.4239
  664MOL0     H87617  10.140   5.152   9.299  0.2693  1.8013  2.3844
  664MOL0     H87618  10.419   5.254   9.392  1.4146 -1.2440  1.1014
  664MOL0     H87619  10.375   5.090   9.347 -3.9782 -1.9733  1.3784
  664MOL0     H87620  10.209   5.226   9.569  1.9509  0.7669  3.1975
  664MOL0     H87621  10.267   5.059   9.545 -0.4687  0.8527 -0.1918
  664MOL0     H87622  10.498   5.152   9.626 -0.2218 -0.1300  1.0492
  664MOL0     H87623  10.374   5.163   9.746  0.1495 -2.6494 -1.5300
  664MOL0     H87624  10.422   5.412   9.562  0.3602  1.9765  1.5578
  664MOL0     H87625  10.537   5.377   9.690  1.0690 -1.3391 -1.4031
  664MOL0     H87626  10.235   5.406   9.734  0.2754 -2.0737 -0.9279
  664MOL0     H87627  10.370   5.370   9.848  1.7635  0.4392 -0.3783
  664MOL0     H87628  10.302   5.612   9.849 -1.3713 -0.7050  0.5961
  664MOL0     H87629  10.327   5.629   9.677 -0.5707  0.7021  0.8572
  664MOL0     H87630   9.936   5.459   9.626  0.7295  0.5322 -0.5194
  664MOL0     H87631   9.939   5.679   9.745 -1.8063  0.8557 -0.3774
  664MOL0     H87632  10.158   6.134   9.678 -3.3581 -1.5123 -0.7601
  664MOL0     H87633  10.198   6.358   9.774 -0.3651  0.6815  0.0664
  664MOL0     H87634  10.682   5.874   9.096  2.2159 -1.5524  2.2358
  664MOL0     H87635  10.721   5.657   8.968  0.7988  0.3841  3.4265
  664MOL0     H87636  10.562   5.541   8.547  1.1134 -0.1434  1.9337
  664MOL0     H87637  10.548   5.364   8.380  0.3795  1.5444 -1.9392
  664MOL0     H87638  10.605   5.185   8.213  5.5745  5.4027  0.8680
  664MOL0     H87639  10.573   5.096   8.372 -0.2259 -0.4829 -0.7293
  664MOL0     H87640  10.766   4.986   8.159 -0.1364 -0.5287  0.7431
  664MOL0     H87641  10.731   4.913   8.309  1.6634  1.2017  0.0212
  664MOL0     H87642  10.474   4.925   8.249 -0.4991 -1.1688 -1.2884
  664MOL0     H87643  10.571   4.803   8.176  0.0456 -0.3241  0.5662
  664MOL0     H87644  10.482   5.065   8.049  0.4051  1.2868  1.3596
  664MOL0     H87645  10.621   4.985   7.979  0.5691 -0.5736  0.2447
  664MOL0     H87646  10.274   4.771   7.831 -0.4123 -0.3110 -0.7428
  664MOL0     H87647  10.933   5.214   8.485 -2.8252 -1.3109  0.1877
  664MOL0     H87648  10.968   5.420   8.655  0.2920  0.8284 -1.4007
  665MOL0     O87649  11.324   3.322   1.923  0.6380 -0.7381  1.0312
  665MOL0     C87650  11.440   3.290   1.897 -0.8773 -0.0416  0.5089
  665MOL0     O87651  11.492   3.244   1.778  0.2770 -0.3322  0.8579
  665MOL0     C87652  11.412   3.223   1.667  0.4235  0.3092 -0.0875
  665MOL0     C87653  11.288   3.295   1.640 -0.5334  0.3966  0.1481
  665MOL0     C87654  11.195   3.255   1.540 -0.3963  0.5092 -0.2771
  665MOL0     C87655  11.217   3.147   1.466 -0.2027  0.1298  1.0852
  665MOL0     O87656  11.134   3.106   1.365 -0.1925  1.1015  0.5580
  665MOL0     C87657  11.081   3.199   1.280  1.2306  0.1978  0.2763
  665MOL0     C87658  11.002   3.124   1.172  0.8403  0.4400  1.5149
  665MOL0     C87659  11.105   3.036   1.100 -0.2597 -0.0029  0.4380
  665MOL0     C87660  11.206   3.115   1.011  0.4396  0.0820 -0.6905
  665MOL0     C87661  11.198   3.069   0.865 -1.4578  1.0427  0.9232
  665MOL0     C87662  11.259   2.920   0.865  0.0799  0.2738  0.6053
  665MOL0     C87663  11.253   2.863   0.727 -0.3743  0.6646 -0.0772
  665MOL0     C87664  11.156   2.753   0.706  0.0556  1.2267 -0.1039
  665MOL0     N87665  11.021   2.792   0.753  0.2223  0.9999 -0.4938
  665MOL0     C87666  10.953   2.714   0.837 -0.8855  0.8159 -0.0807
  665MOL0     C87667  10.852   2.783   0.873  0.1579 -0.6065 -0.1351
  665MOL0     C87668  10.740   2.743   0.968  0.6446 -0.2328  0.2335
  665MOL0     C87669  10.617   2.670   0.912  0.6326 -0.0991  0.1874
  665MOL0     C87670  10.521   2.752   0.822 -0.2462  0.3160  0.3222
  665MOL0     C87671  10.567   2.763   0.680 -0.3242  0.4743  0.1920
  665MOL0     O87672  10.463   2.787   0.589  0.4723 -0.5975 -0.4169
  665MOL0     C87673  10.419   2.909   0.551 -0.1164 -0.4792 -0.9544
  665MOL0     C87674  10.444   3.034   0.613 -0.2549  0.0451 -0.0777
  665MOL0     C87675  10.380   3.147   0.583 -0.1417 -0.2840  0.4141
  665MOL0     C87676  10.285   3.139   0.485  0.1152 -0.2983  0.6297
  665MOL0     C87677  10.201   3.263   0.456 -0.1056 -0.1347  1.3535
  665MOL0     O87678  10.099   3.251   0.361 -0.4244  0.3362  0.0414
  665MOL0     C87679  10.035   3.372   0.341 -0.2113  0.2781  0.4664
  665MOL0     C87680  10.083   3.473   0.252  0.7815 -0.3843  1.3466
  665MOL0     C87681  10.017   3.588   0.223  0.7404 -0.0194  0.6512
  665MOL0     C87682   9.903   3.611   0.304  0.9627  0.0256  1.5536
  665MOL0     O87683   9.843   3.732   0.268  0.8426 -0.2219 -0.5121
  665MOL0     C87684   9.776   3.814   0.371  0.1288 -0.5785  1.2349
  665MOL0     C87685   9.719   3.931   0.313  0.9288 -0.3563 -0.1456
  665MOL0     C87686   9.713   4.052   0.410 -1.0635  0.0612 -0.0373
  665MOL0     C87687   9.636   4.009   0.538 -0.2063 -0.3485  0.5659
  665MOL0     C87688   9.492   3.948   0.521 -0.3357  0.6807  0.0543
  665MOL0     C87689   9.397   4.051   0.459  0.0334 -0.1019 -0.5609
  665MOL0     C87690   9.260   3.986   0.426 -0.0274 -1.2368  0.4715
  665MOL0     C87691   9.158   3.954   0.525  0.0487  1.1130  0.2562
  665MOL0    Cl87692   9.212   3.850   0.654  0.3384  0.7605  0.1231
  665MOL0     C87693   9.855   3.517   0.400  0.0117  0.2347  0.3819
  665MOL0     C87694   9.916   3.395   0.408  0.1979  0.3967  0.7746
  665MOL0     O87695  10.217   3.354   0.538  0.8597 -1.1098 -0.0311
  665MOL0     C87696  10.260   3.024   0.416  0.1420 -0.3446 -1.2913
  665MOL0     C87697  10.322   2.913   0.460 -0.9678  0.0979  0.4755
  665MOL0     N87698  10.850   2.904   0.801  0.4155  0.4454  0.5168
  665MOL0     N87699  10.953   2.908   0.720 -0.2215  0.0445  0.6277
  665MOL0     C87700  11.337   3.082   1.485 -0.2906 -1.0045 -0.0806
  665MOL0     C87701  11.434   3.114   1.583 -0.2623  0.8530  0.2715
  665MOL0     C87702  11.539   3.308   2.005 -0.2522 -0.5150  1.3123
  665MOL0     C87703  11.637   3.213   2.038 -0.3701 -0.0909  0.6694
  665MOL0     C87704  11.722   3.243   2.140 -0.0206  0.0534  1.3998
  665MOL0     C87705  11.722   3.361   2.207 -0.1110  0.1457 -0.1342
  665MOL0     O87706  11.818   3.381   2.305  0.9330 -1.3583 -0.1076
  665MOL0     C87707  11.839   3.508   2.375  0.3068 -0.0058  0.1808
  665MOL0     C87708  11.972   3.572   2.349 -1.0659  0.4045  0.0000
  665MOL0     C87709  11.997   3.697   2.431 -0.7666  0.2512 -0.3902
  665MOL0     C87710  12.129   3.749   2.392 -0.3456  0.0252 -0.5768
  665MOL0     C87711  12.163   3.863   2.479 -0.6417  0.5814  0.5702
  665MOL0     C87712  12.190   3.969   2.539  0.0726  0.3672  0.2084
  665MOL0     C87713  11.637   3.467   2.158 -0.0139  0.1361  0.6648
  665MOL0     C87714  11.543   3.435   2.058 -0.0231  0.3024 -0.0224
  665MOL0     H87715  11.260   3.383   1.698  0.0788  1.4250 -1.0779
  665MOL0     H87716  11.118   3.327   1.515  2.8954  4.0531 -1.1099
  665MOL0     H87717  11.155   3.274   1.252 -0.0480  2.8227  3.2999
  665MOL0     H87718  11.006   3.254   1.337 -1.9239 -0.6905 -2.6741
  665MOL0     H87719  10.959   3.196   1.102 -1.8914 -0.4303  2.1821
  665MOL0     H87720  10.923   3.059   1.210 -1.6967  0.9303 -2.3494
  665MOL0     H87721  11.056   2.961   1.038 -0.0382 -0.2032  0.5037
  665MOL0     H87722  11.155   2.976   1.178 -1.2615  0.5169  1.5044
  665MOL0     H87723  11.182   3.221   1.020  1.9032  0.3977 -0.2763
  665MOL0     H87724  11.305   3.102   1.056  1.0526 -0.4421 -2.1011
  665MOL0     H87725  11.254   3.138   0.802 -1.1350 -0.0713 -0.0343
  665MOL0     H87726  11.096   3.071   0.827  0.2073 -0.0522 -4.4042
  665MOL0     H87727  11.211   2.846   0.929 -0.7619  1.5909  1.5389
  665MOL0     H87728  11.365   2.925   0.891 -0.0390  1.4883  0.8783
  665MOL0     H87729  11.225   2.937   0.651 -3.5012 -1.1216 -0.8241
  665MOL0     H87730  11.348   2.813   0.706 -0.5028  0.9141 -1.2901
  665MOL0     H87731  11.184   2.660   0.758  0.5142 -0.6139 -3.3897
  665MOL0     H87732  11.146   2.718   0.603  3.6293 -1.9319  0.3838
  665MOL0     H87733  10.982   2.621   0.885 -0.6126  1.4513  1.0164
  665MOL0     H87734  10.690   2.824   1.022 -1.8053 -1.0402 -0.6797
  665MOL0     H87735  10.779   2.671   1.040 -0.2449  1.8993  3.0259
  665MOL0     H87736  10.559   2.649   1.002  3.4825 -1.5062  1.8284
  665MOL0     H87737  10.656   2.576   0.873  0.7488 -0.1293  0.3780
  665MOL0     H87738  10.433   2.688   0.813  0.5584 -0.4981 -3.7153
  665MOL0     H87739  10.505   2.857   0.849 -2.4274 -0.0054  0.4782
  665MOL0     H87740  10.612   2.667   0.652 -0.7972  0.1950  0.3703
  665MOL0     H87741  10.644   2.840   0.667  0.0229  0.5652  2.3642
  665MOL0     H87742  10.524   3.032   0.687  1.3738 -4.3759 -1.6476
  665MOL0     H87743  10.404   3.244   0.626 -2.0906 -0.1919  1.3802
  665MOL0     H87744  10.174   3.462   0.194  0.0997 -0.1575  0.2016
  665MOL0     H87745  10.043   3.665   0.152 -1.4695 -0.8142 -1.1415
  665MOL0     H87746   9.850   3.834   0.449 -1.4749 -2.2683  3.3155
  665MOL0     H87747   9.698   3.751   0.415  1.3148 -5.8233 -3.1433
  665MOL0     H87748   9.618   3.901   0.284  2.3569 -3.5775 -2.3354
  665MOL0     H87749   9.762   3.954   0.216 -1.8479  0.0814 -1.3754
  665MOL0     H87750   9.665   4.134   0.356  0.1672  2.4157  2.2372
  665MOL0     H87751   9.815   4.080   0.438 -1.5039  0.3088  1.3650
  665MOL0     H87752   9.696   3.929   0.584  0.5846  0.7432  1.4945
  665MOL0     H87753   9.642   4.094   0.607  0.3211  1.5618 -1.7018
  665MOL0     H87754   9.456   3.929   0.623 -1.8393 -0.2615 -0.6288
  665MOL0     H87755   9.489   3.854   0.466 -0.6228  1.7521 -1.8260
  665MOL0     H87756   9.447   4.081   0.367  2.8432  2.6068  1.6027
  665MOL0     H87757   9.370   4.135   0.523 -2.4768 -2.2479  1.4579
  665MOL0     H87758   9.223   4.039   0.338  1.6754  0.9784  0.9893
  665MOL0     H87759   9.275   3.885   0.388 -1.9182 -0.1826 -3.6336
  665MOL0     H87760   9.081   3.899   0.470  1.2439 -4.3956  3.2493
  665MOL0     H87761   9.121   4.042   0.577  0.7897  1.1720  0.6937
  665MOL0     H87762   9.765   3.529   0.459 -3.9914 -4.2658 -3.8816
  665MOL0     H87763   9.865   3.315   0.460 -2.5282  1.2597 -0.3730
  665MOL0     H87764  10.180   3.017   0.342 -3.3991 -0.5241  2.2130
  665MOL0     H87765  10.296   2.819   0.413 -0.3996 -1.0021  2.2628
  665MOL0     H87766  11.363   3.003   1.416 -0.6458  1.4582 -3.3107
  665MOL0     H87767  11.530   3.063   1.586 -1.9976 -2.7511 -0.0835
  665MOL0     H87768  11.657   3.120   1.984  1.9684  0.6384  0.1604
  665MOL0     H87769  11.793   3.171   2.181  2.6868  1.6511 -0.2244
  665MOL0     H87770  11.830   3.481   2.480  0.7039 -1.7552 -0.2102
  665MOL0     H87771  11.759   3.576   2.343 -0.1801 -1.5112 -2.0305
  665MOL0     H87772  12.056   3.506   2.371  0.5784  2.2082 -0.5323
  665MOL0     H87773  11.976   3.608   2.245  0.0774  0.5231  0.0736
  665MOL0     H87774  11.989   3.677   2.539  0.3296  2.4012  0.1411
  665MOL0     H87775  11.913   3.761   2.401  0.3655  1.4109 -1.1494
  665MOL0     H87776  12.200   3.673   2.427 -0.8443  0.4566  1.5205
  665MOL0     H87777  12.137   3.781   2.288 -0.7727 -0.3366 -0.7234
  665MOL0     H87778  12.226   4.057   2.590  0.7291  0.9829 -1.2443
  665MOL0     H87779  11.650   3.571   2.186 -0.7777  1.1363 -2.3359
  665MOL0     H87780  11.473   3.511   2.024  0.1142 -0.0531 -1.1566
  666MOL0     O87781   0.730  10.240  10.053  0.7286 -0.1339 -0.2551
  666MOL0     C87782   0.744  10.360  10.077 -1.0433  0.6484 -0.0975
  666MOL0     O87783   0.680  10.424  10.176 -0.9418 -0.1523 -0.0510
  666MOL0     C87784   0.589  10.351  10.251 -0.7205  0.1938  0.4814
  666MOL0     C87785   0.464  10.316  10.208  0.6855 -0.1825 -0.4861
  666MOL0     C87786   0.370  10.268  10.302  0.4211 -0.4204 -0.1581
  666MOL0     C87787   0.421  10.238  10.434  0.5478 -0.0556  1.4811
  666MOL0     O87788   0.359  10.173  10.533 -0.2933  0.4000 -0.3506
  666MOL0     C87789   0.223  10.130  10.512 -0.8199 -0.1980 -1.1044
  666MOL0     C87790   0.224  10.010  10.428  0.1778 -1.7448 -0.5021
  666MOL0     C87791   0.245   9.873  10.504  0.3165  0.7670 -0.2100
  666MOL0     C87792   0.127   9.824  10.586 -0.5400 -0.6724  0.9375
  666MOL0     C87793   0.168   9.680  10.631  0.0142 -1.1711 -0.4402
  666MOL0     C87794   0.058   9.622  10.725 -0.6527  0.4898  0.3023
  666MOL0     C87795  -0.091   9.620  10.669  0.1082 -1.8950  0.1478
  666MOL0     C87796  -0.190   9.551  10.776 -0.1738 -1.1620 -0.9001
  666MOL0     N87797  -0.156   9.421  10.822 -0.4897  0.0257  0.1438
  666MOL0     C87798  -0.123   9.302  10.758 -0.4774 -0.1674  0.2139
  666MOL0     C87799  -0.092   9.212  10.847  0.5085 -0.4614  0.6442
  666MOL0     C87800  -0.039   9.070  10.798 -0.2759 -0.0232 -0.5141
  666MOL0     C87801   0.009   8.973  10.913  0.1161  0.5480 -0.5266
  666MOL0     C87802   0.097   8.869  10.846  0.4067  0.4124 -1.0961
  666MOL0     C87803   0.033   8.785  10.738  0.1624  0.4132  0.2648
  666MOL0     O87804  -0.070   8.701  10.797  0.5303 -1.0494 -0.4488
  666MOL0     C87805  -0.112   8.579  10.739 -0.4911 -0.8931 -0.3383
  666MOL0     C87806  -0.196   8.513  10.820  0.2755 -0.0458 -0.6136
  666MOL0     C87807  -0.258   8.399  10.777 -0.4079  0.1955 -0.0452
  666MOL0     C87808  -0.228   8.342  10.651 -0.0438  0.0600 -0.1114
  666MOL0     C87809  -0.289   8.227  10.603 -0.0241  0.1347  0.7452
  666MOL0     O87810  -0.397   8.178  10.677  0.1076  0.0180 -0.8033
  666MOL0     C87811  -0.470   8.068  10.636  1.1188 -0.3628 -0.5448
  666MOL0     C87812  -0.420   7.956  10.585 -0.3679 -1.3654  0.6029
  666MOL0     C87813  -0.496   7.841  10.564 -0.2221 -1.1628  1.3883
  666MOL0     C87814  -0.637   7.856  10.577 -0.4050 -0.0902 -0.4798
  666MOL0     O87815  -0.725   7.751  10.557 -0.7104  0.1140 -0.5045
  666MOL0     C87816  -0.661   7.627  10.586 -0.2659  0.1518 -0.0551
  666MOL0     C87817  -0.760   7.516  10.620 -0.3705 -0.4775 -0.7644
  666MOL0     C87818  -0.698   7.380  10.643 -0.1770 -0.7050  0.6571
  666MOL0     C87819  -0.787   7.260  10.666  0.1705 -0.9689 -1.0506
  666MOL0     C87820  -0.706   7.133  10.647  0.0376 -0.0606 -0.0488
  666MOL0     C87821  -0.593   7.136  10.743  0.2693 -0.0689 -0.0713
  666MOL0     C87822  -0.530   7.003  10.798  0.4707  0.4337  0.3237
  666MOL0     C87823  -0.627   6.888  10.797  0.8264  0.5905 -0.3928
  666MOL0    Cl87824  -0.554   6.763  10.896 -0.0926 -0.4261 -0.2002
  666MOL0     C87825  -0.692   7.978  10.625  0.7014  0.1446 -0.6940
  666MOL0     C87826  -0.610   8.078  10.660 -0.4459  0.0665  0.0382
  666MOL0     O87827  -0.264   8.186  10.482  0.2496 -0.8661 -0.4340
  666MOL0     C87828  -0.129   8.409  10.567 -0.3952  0.7226  0.1793
  666MOL0     C87829  -0.072   8.535  10.608  0.1326 -0.2236 -0.0247
  666MOL0     N87830  -0.103   9.262  10.975 -0.2776  0.1336  0.2268
  666MOL0     N87831  -0.132   9.386  10.957 -0.1530 -0.1115  0.0171
  666MOL0     C87832   0.542  10.280  10.470 -1.7518  0.1548 -1.1155
  666MOL0     C87833   0.627  10.340  10.382  0.7041  0.2060 -0.3627
  666MOL0     C87834   0.834  10.440   9.990 -0.5345  0.1004  0.0187
  666MOL0     C87835   0.855  10.579  10.026  0.1285 -0.0830 -0.5067
  666MOL0     C87836   0.949  10.647   9.950  0.5587  0.6771 -0.1473
  666MOL0     C87837   1.006  10.593   9.835 -0.3061 -1.0900 -0.0862
  666MOL0     O87838   1.090  10.674   9.753  0.1794 -0.2165  0.6148
  666MOL0     C87839   1.152  10.786   9.804  0.2462 -1.2775 -0.2834
  666MOL0     C87840   1.076  10.917   9.765  0.4419  0.9199  0.4670
  666MOL0     C87841   1.126  10.956   9.625  0.2343  0.2753 -0.4903
  666MOL0     C87842   1.180  11.094   9.618 -0.1600 -0.6043 -0.1113
  666MOL0     C87843   1.238  11.128   9.492 -0.0011  0.2341  1.6227
  666MOL0     C87844   1.271  11.134   9.371  0.6024 -0.0057 -0.4766
  666MOL0     C87845   0.980  10.459   9.790 -0.7981 -0.4279 -0.0132
  666MOL0     C87846   0.897  10.376   9.878 -0.0826  0.0298  0.1389
  666MOL0     H87847   0.445  10.339  10.103  0.9787  1.0139 -0.2997
  666MOL0     H87848   0.270  10.237  10.273  0.9409 -3.3759  0.7759
  666MOL0     H87849   0.171  10.209  10.458  0.1335  1.9782  0.9963
  666MOL0     H87850   0.171  10.121  10.608  0.0165  1.6507 -0.4239
  666MOL0     H87851   0.300  10.013  10.349  0.1770  0.4418 -0.4812
  666MOL0     H87852   0.133  10.018  10.369  0.6058  1.0071 -0.8961
  666MOL0     H87853   0.330   9.883  10.573 -1.4011  2.3814  1.8126
  666MOL0     H87854   0.275   9.798  10.431  0.5181  1.5067 -0.9016
  666MOL0     H87855   0.104   9.887  10.672 -3.5168  0.4840 -0.5794
  666MOL0     H87856   0.039   9.816  10.522 -1.3641  0.8145  1.8211
  666MOL0     H87857   0.267   9.688  10.677  0.7806 -1.8807 -1.9047
  666MOL0     H87858   0.168   9.609  10.548  0.6727 -2.2149  0.4215
  666MOL0     H87859   0.058   9.678  10.819  0.1731 -0.2964  0.7868
  666MOL0     H87860   0.075   9.517  10.751 -5.0519 -1.3536 -3.0787
  666MOL0     H87861  -0.120   9.719  10.632  1.0855 -1.1009  1.4215
  666MOL0     H87862  -0.104   9.555  10.582  0.2817 -0.0138 -1.3322
  666MOL0     H87863  -0.291   9.544  10.734 -1.1172  3.3320  0.1363
  666MOL0     H87864  -0.204   9.616  10.862  0.7649 -1.9103 -0.1642
  666MOL0     H87865  -0.112   9.286  10.651 -0.2051 -1.9745  0.4753
  666MOL0     H87866   0.039   9.076  10.721 -1.0680  1.3700 -1.2577
  666MOL0     H87867  -0.120   9.015  10.748  1.6548 -1.3945 -2.2818
  666MOL0     H87868  -0.065   8.926  10.979  3.5117 -0.6985  2.7173
  666MOL0     H87869   0.054   9.037  10.990  0.2891 -1.2992  0.9751
  666MOL0     H87870   0.178   8.930  10.805  1.5213  0.3479  0.8840
  666MOL0     H87871   0.138   8.803  10.923 -0.9647  3.0012  2.1540
  666MOL0     H87872   0.116   8.735  10.688 -0.8692 -0.4622 -0.6360
  666MOL0     H87873  -0.014   8.847  10.661 -0.9224  0.6901  1.1188
  666MOL0     H87874  -0.221   8.560  10.915 -1.1982  0.1757 -1.0810
  666MOL0     H87875  -0.332   8.365  10.849  1.5389  0.2537  2.0908
  666MOL0     H87876  -0.314   7.941  10.568 -0.3430  1.5159 -2.7681
  666MOL0     H87877  -0.432   7.754  10.552  2.4280  0.8038  0.1114
  666MOL0     H87878  -0.613   7.637  10.684 -0.3655  1.1485 -0.0975
  666MOL0     H87879  -0.588   7.603  10.508 -1.3063 -0.9196 -0.7304
  666MOL0     H87880  -0.830   7.495  10.539  0.2663  1.0656 -1.7660
  666MOL0     H87881  -0.812   7.553  10.709  0.4080  1.7103 -1.1637
  666MOL0     H87882  -0.637   7.390  10.732  2.3312 -2.3895 -0.7483
  666MOL0     H87883  -0.635   7.354  10.557  0.1057 -2.2338  1.3022
  666MOL0     H87884  -0.821   7.283  10.768  2.5731 -0.9550 -0.2073
  666MOL0     H87885  -0.876   7.250  10.603 -1.8017  0.9100  1.2105
  666MOL0     H87886  -0.665   7.122  10.547  1.3987  1.4805  0.2842
  666MOL0     H87887  -0.763   7.043  10.670  2.7024 -2.1933 -1.1809
  666MOL0     H87888  -0.628   7.197  10.826  1.4285  0.6334 -0.0710
  666MOL0     H87889  -0.506   7.194  10.709 -0.8148  1.9150  0.4187
  666MOL0     H87890  -0.443   6.989  10.734 -1.2198  1.1550 -2.3087
  666MOL0     H87891  -0.503   7.028  10.901  0.9019  1.4737 -0.0278
  666MOL0     H87892  -0.639   6.847  10.696  1.4246  5.0079 -2.5370
  666MOL0     H87893  -0.720   6.925  10.841  2.8789  1.8113  3.2999
  666MOL0     H87894  -0.799   7.983  10.644  0.8504 -1.1396  0.6959
  666MOL0     H87895  -0.647   8.164  10.715 -4.8331 -2.0666  0.8260
  666MOL0     H87896  -0.096   8.357  10.477 -3.4053 -0.2809 -0.4452
  666MOL0     H87897   0.006   8.581  10.548 -0.6361  0.5518 -0.4471
  666MOL0     H87898   0.568  10.287  10.575 -1.2419  4.3012 -1.3368
  666MOL0     H87899   0.726  10.371  10.414  0.6820 -1.0532  1.0842
  666MOL0     H87900   0.799  10.629  10.104  0.3318 -0.1881 -0.2912
  666MOL0     H87901   0.964  10.753   9.963  1.3615  0.3898  1.6260
  666MOL0     H87902   1.256  10.787   9.770  0.2868 -2.1503 -0.2227
  666MOL0     H87903   1.150  10.779   9.913  2.0060 -4.2255 -0.3120
  666MOL0     H87904   0.970  10.891   9.765  0.5220  0.2742 -2.0611
  666MOL0     H87905   1.088  11.000   9.836  1.2268  0.3102  1.0637
  666MOL0     H87906   1.050  10.941   9.548  0.9733 -2.2096 -0.8166
  666MOL0     H87907   1.203  10.887   9.590  0.6042  1.8639 -3.1466
  666MOL0     H87908   1.101  11.166   9.638  0.2165 -0.6417  1.6883
  666MOL0     H87909   1.254  11.119   9.695 -1.2958  0.9319  0.5202
  666MOL0     H87910   1.282  11.165   9.270  2.1654 -0.1336 -0.3791
  666MOL0     H87911   1.021  10.422   9.697  1.6283  1.5589  0.1643
  666MOL0     H87912   0.870  10.274   9.851  2.3348 -0.6901  0.1873
  667MOL0     O87913   6.097   4.555   9.422  0.6155  0.2008 -0.1091
  667MOL0     C87914   6.206   4.574   9.472 -0.7404 -0.3827  0.9177
  667MOL0     O87915   6.291   4.669   9.434  0.2060  0.1220  0.3392
  667MOL0     C87916   6.258   4.732   9.317 -0.0600  0.1298 -0.1687
  667MOL0     C87917   6.277   4.675   9.185 -0.3604 -0.3630 -0.2274
  667MOL0     C87918   6.236   4.752   9.072 -0.6571  0.6705  0.1405
  667MOL0     C87919   6.187   4.880   9.085  0.2550 -0.1775 -0.1234
  667MOL0     O87920   6.150   4.942   8.966  0.0508 -0.5970  0.8374
  667MOL0     C87921   6.149   5.090   8.964  0.6467  0.1064  0.0012
  667MOL0     C87922   6.129   5.133   8.824  0.0718  0.0678 -0.3322
  667MOL0     C87923   6.251   5.105   8.743 -0.0118  0.1567  0.3472
  667MOL0     C87924   6.213   5.112   8.597 -0.2996  0.3016  0.5980
  667MOL0     C87925   6.320   5.046   8.509 -0.2939 -0.8954  0.8487
  667MOL0     C87926   6.322   4.898   8.521 -0.4741 -0.0852  0.3276
  667MOL0     C87927   6.453   4.830   8.452 -0.3578 -0.2171 -0.2323
  667MOL0     C87928   6.583   4.866   8.539 -0.4693  0.4948 -0.2951
  667MOL0     N87929   6.690   4.920   8.456  0.1846 -0.4891  0.3601
  667MOL0     C87930   6.743   5.044   8.471 -0.2655  0.4496  0.7979
  667MOL0     C87931   6.852   5.046   8.403 -0.0170  0.2486  0.9497
  667MOL0     C87932   6.930   5.166   8.385  0.3751 -0.4620 -0.6221
  667MOL0     C87933   6.950   5.207   8.236  0.0626  0.1557 -0.6139
  667MOL0     C87934   7.064   5.317   8.224 -0.7592  0.4359 -0.5508
  667MOL0     C87935   7.055   5.377   8.085  0.1771 -0.1724  0.0344
  667MOL0     O87936   7.174   5.439   8.042  0.5866 -0.6406  1.3991
  667MOL0     C87937   7.181   5.476   7.906  0.0974  0.1258 -0.6591
  667MOL0     C87938   7.076   5.516   7.829  1.4542  0.3913  0.0269
  667MOL0     C87939   7.089   5.558   7.696 -0.9101 -0.8483  0.0390
  667MOL0     C87940   7.218   5.575   7.643  0.8773  1.2661 -0.4260
  667MOL0     C87941   7.244   5.601   7.502 -0.5937  0.2526 -0.8650
  667MOL0     O87942   7.142   5.564   7.414  0.2367  0.9546 -0.4709
  667MOL0     C87943   7.152   5.576   7.275 -0.1534  0.2410  0.2226
  667MOL0     C87944   7.201   5.684   7.202  0.1670  0.5121  0.1636
  667MOL0     C87945   7.192   5.670   7.062  0.6127 -0.5831 -0.7614
  667MOL0     C87946   7.143   5.552   6.997 -0.2255 -0.1272 -0.3461
  667MOL0     O87947   7.159   5.520   6.863  0.2245 -0.2436  0.2684
  667MOL0     C87948   7.260   5.577   6.789 -1.1203  0.4042  0.2703
  667MOL0     C87949   7.405   5.553   6.851 -0.6484 -0.4689  0.0593
  667MOL0     C87950   7.478   5.686   6.884  0.4620 -0.3444  0.4010
  667MOL0     C87951   7.630   5.673   6.892 -0.6106 -0.0129 -0.5407
  667MOL0     C87952   7.695   5.808   6.909 -0.1187 -0.5861 -0.3927
  667MOL0     C87953   7.629   5.911   6.990  0.4877  0.5491  0.3317
  667MOL0     C87954   7.721   6.025   7.025 -0.9689  0.2798  1.3438
  667MOL0     C87955   7.659   6.159   7.070 -0.0195  0.2474  0.4439
  667MOL0    Cl87956   7.561   6.109   7.212 -0.2659 -0.6610 -0.1044
  667MOL0     C87957   7.083   5.453   7.080 -0.1301 -1.4347  0.9056
  667MOL0     C87958   7.076   5.473   7.215  0.2075 -0.4005 -0.6618
  667MOL0     O87959   7.351   5.657   7.469  0.7379 -0.4717 -0.0161
  667MOL0     C87960   7.333   5.542   7.727 -0.0328 -0.0697  0.4998
  667MOL0     C87961   7.309   5.491   7.855  0.9530  0.6637 -0.0414
  667MOL0     N87962   6.872   4.922   8.341 -0.5362  0.4372  1.2447
  667MOL0     N87963   6.761   4.860   8.359  0.7996 -0.3038  0.7873
  667MOL0     C87964   6.176   4.932   9.219 -0.2653  0.0718  0.1694
  667MOL0     C87965   6.215   4.862   9.332 -0.1472  0.0902 -0.2693
  667MOL0     C87966   6.239   4.487   9.587  0.6520  0.2550  0.1261
  667MOL0     C87967   6.370   4.466   9.624  0.0581 -0.2974 -0.5584
  667MOL0     C87968   6.409   4.373   9.719 -0.3511 -0.2026 -0.0774
  667MOL0     C87969   6.312   4.294   9.778  0.3312 -1.7916 -0.1386
  667MOL0     O87970   6.342   4.175   9.841 -0.6994 -0.1239  0.6837
  667MOL0     C87971   6.246   4.094   9.916 -0.1306 -0.2669 -1.6262
  667MOL0     C87972   6.337   3.996   9.996 -0.3630 -0.0850  0.4246
  667MOL0     C87973   6.277   3.928  10.109  0.2219 -0.4654 -0.1613
  667MOL0     C87974   6.171   3.827  10.082 -0.0694 -0.0220  0.0074
  667MOL0     C87975   6.041   3.875  10.139 -0.4331  0.5677 -0.7531
  667MOL0     C87976   5.934   3.912  10.185 -0.0951 -0.1581  0.0403
  667MOL0     C87977   6.177   4.325   9.759 -0.1152 -0.7844 -0.0784
  667MOL0     C87978   6.143   4.420   9.661  0.8061 -0.3616  0.1831
  667MOL0     H87979   6.327   4.581   9.166  2.5115  0.8910  0.6709
  667MOL0     H87980   6.249   4.718   8.970 -1.2445  0.7197  0.0461
  667MOL0     H87981   6.238   5.133   9.011  0.2762 -0.6106  1.3948
  667MOL0     H87982   6.060   5.115   9.022  1.5873  1.1729  1.0344
  667MOL0     H87983   6.105   5.240   8.823  2.3610  0.6286 -1.8859
  667MOL0     H87984   6.037   5.085   8.788 -0.2129  0.8729 -0.7116
  667MOL0     H87985   6.302   5.014   8.777 -0.1523  0.7977  2.3847
  667MOL0     H87986   6.320   5.184   8.774  2.2253 -2.1239  1.5920
  667MOL0     H87987   6.117   5.064   8.576 -0.3242  1.0728 -1.2980
  667MOL0     H87988   6.212   5.213   8.556 -1.1850 -0.3478 -1.1054
  667MOL0     H87989   6.417   5.098   8.509 -0.0563 -1.2925 -0.7438
  667MOL0     H87990   6.269   5.055   8.413 -0.4076 -0.1607  0.9713
  667MOL0     H87991   6.241   4.852   8.464  1.4861  1.4341 -4.1633
  667MOL0     H87992   6.312   4.869   8.626 -1.6099  2.9420  1.1417
  667MOL0     H87993   6.435   4.723   8.466  0.2284 -0.2083  0.6886
  667MOL0     H87994   6.456   4.843   8.343 -3.2476 -1.1187 -0.4863
  667MOL0     H87995   6.618   4.768   8.572 -2.6289 -0.1864  0.1374
  667MOL0     H87996   6.547   4.922   8.626 -2.7771 -2.6816  0.9984
  667MOL0     H87997   6.701   5.133   8.518 -3.1534  0.3655 -1.3415
  667MOL0     H87998   7.028   5.150   8.430 -0.8342 -4.2698  1.0943
  667MOL0     H87999   6.879   5.241   8.446 -1.5995 -1.8520 -0.4375
  667MOL0     H88000   6.859   5.251   8.192  0.8948  2.5341 -0.0957
  667MOL0     H88001   6.982   5.117   8.182  1.8018  0.1421  0.3570
  667MOL0     H88002   7.040   5.399   8.291  0.3182 -0.9453  1.6180
  667MOL0     H88003   7.163   5.279   8.249  0.2175  2.7530 -0.7479
  667MOL0     H88004   6.982   5.459   8.083  0.4392  0.1828  2.4945
  667MOL0     H88005   7.028   5.300   8.011 -0.3060  0.7014 -0.7232
  667MOL0     H88006   6.975   5.527   7.866  0.2864 -0.8922 -2.4898
  667MOL0     H88007   6.994   5.561   7.644 -1.8038 -0.9715  1.5918
  667MOL0     H88008   7.248   5.765   7.257  1.5995  0.0338 -0.3224
  667MOL0     H88009   7.232   5.753   7.005  0.4988 -1.2684 -1.8647
  667MOL0     H88010   7.232   5.682   6.784 -2.7790 -0.0650 -2.7754
  667MOL0     H88011   7.253   5.533   6.689  0.7645 -0.1587  0.3445
  667MOL0     H88012   7.462   5.495   6.777 -1.4616 -1.8159  0.4552
  667MOL0     H88013   7.405   5.490   6.940 -1.0603  1.2714  1.3405
  667MOL0     H88014   7.442   5.704   6.985  2.2032 -1.4450  1.2640
  667MOL0     H88015   7.456   5.762   6.808 -0.9592  0.8950  1.9656
  667MOL0     H88016   7.643   5.616   6.985 -0.5711 -1.2874 -1.3097
  667MOL0     H88017   7.667   5.629   6.799 -2.0840  0.6516 -1.4708
  667MOL0     H88018   7.724   5.863   6.819  3.3029  2.2366  2.1504
  667MOL0     H88019   7.795   5.779   6.943 -0.5228 -2.1878 -0.4875
  667MOL0     H88020   7.595   5.870   7.085  3.7847 -0.3924  1.2549
  667MOL0     H88021   7.537   5.943   6.940  0.2652  0.8640  0.9405
  667MOL0     H88022   7.790   6.000   7.106  1.2243  2.9739  0.4735
  667MOL0     H88023   7.791   6.039   6.941 -2.1457 -2.5804 -0.2569
  667MOL0     H88024   7.600   6.210   6.993  0.2635  2.1553  1.4353
  667MOL0     H88025   7.733   6.235   7.097  1.7406 -1.2265 -0.0355
  667MOL0     H88026   7.032   5.370   7.032 -2.3053 -0.2481  1.0580
  667MOL0     H88027   7.024   5.397   7.273  1.3648 -0.4018  0.4235
  667MOL0     H88028   7.429   5.560   7.680  0.3056 -2.8112 -0.0427
  667MOL0     H88029   7.379   5.468   7.935  4.7793  1.3847 -2.8400
  667MOL0     H88030   6.138   5.032   9.237 -0.0587  0.3347 -0.7990
  667MOL0     H88031   6.200   4.886   9.437 -1.6136 -1.0252 -0.1910
  667MOL0     H88032   6.450   4.522   9.576 -0.0915  2.2740  1.9174
  667MOL0     H88033   6.503   4.323   9.740 -0.6417  0.4601  3.2074
  667MOL0     H88034   6.188   4.046   9.837  0.4709 -4.3439  0.1867
  667MOL0     H88035   6.200   4.169   9.981  1.1812 -0.1726 -0.7619
  667MOL0     H88036   6.372   3.923   9.923  0.5209 -0.2657  1.0150
  667MOL0     H88037   6.418   4.053  10.043  0.2210 -0.2022 -0.4035
  667MOL0     H88038   6.238   4.006  10.174  1.0784 -0.0633 -0.1120
  667MOL0     H88039   6.352   3.877  10.170 -0.7297 -0.2564  1.2148
  667MOL0     H88040   6.152   3.818   9.975  0.3902  0.3042 -0.1033
  667MOL0     H88041   6.216   3.733  10.115 -0.0536  0.4786  1.4692
  667MOL0     H88042   5.851   3.965  10.226  1.0579  2.4001 -0.7173
  667MOL0     H88043   6.092   4.280   9.811 -0.8387 -1.4841 -1.8116
  667MOL0     H88044   6.039   4.445   9.647  1.6793  3.0497 -1.0790
  668MOL0     O88045   2.955   9.864   9.904 -0.7096 -0.7523  0.2230
  668MOL0     C88046   2.884   9.899   9.996  0.3348 -1.3300 -0.7342
  668MOL0     O88047   2.739   9.899  10.002 -0.2657 -0.7441 -0.4623
  668MOL0     C88048   2.658   9.853   9.902 -0.3813 -0.4279  0.1888
  668MOL0     C88049   2.668   9.890   9.769  0.7573 -0.2459 -0.2511
  668MOL0     C88050   2.567   9.853   9.675 -0.1067 -0.5564  0.0994
  668MOL0     C88051   2.459   9.775   9.722  0.0515  0.1396 -0.1605
  668MOL0     O88052   2.351   9.748   9.645  0.0268 -0.2724 -1.0606
  668MOL0     C88053   2.242   9.839   9.658 -0.0987  0.6270 -0.1488
  668MOL0     C88054   2.136   9.778   9.565 -0.1277 -0.8029 -0.2465
  668MOL0     C88055   2.007   9.856   9.589 -0.2140 -0.8611 -0.3442
  668MOL0     C88056   2.019  10.007   9.558  0.4618 -0.0246  0.2294
  668MOL0     C88057   1.884  10.080   9.563 -0.0735  0.8078 -0.3890
  668MOL0     C88058   1.891  10.207   9.482 -0.2079 -0.2003 -0.5080
  668MOL0     C88059   1.751  10.273   9.481 -0.3190  0.1359  0.0563
  668MOL0     C88060   1.759  10.398   9.382  1.4431  0.1084  0.2687
  668MOL0     N88061   1.635  10.479   9.374  0.1775  0.0216 -0.3097
  668MOL0     C88062   1.537  10.471   9.474  1.6600  0.1512  0.1478
  668MOL0     C88063   1.434  10.535   9.409  0.5861 -1.2071  0.0916
  668MOL0     C88064   1.290  10.544   9.468  0.4431 -0.8079  0.2357
  668MOL0     C88065   1.190  10.632   9.389 -0.0867 -0.0089 -0.8706
  668MOL0     C88066   1.038  10.597   9.419 -0.1908  0.4242 -0.5338
  668MOL0     C88067   0.940  10.648   9.315 -0.9682  0.0268  0.3732
  668MOL0     O88068   0.998  10.621   9.182 -0.1644 -0.1964 -0.1523
  668MOL0     C88069   0.946  10.698   9.076  0.5371  0.5528 -0.4291
  668MOL0     C88070   0.843  10.801   9.089  0.0920 -0.3636 -0.7066
  668MOL0     C88071   0.805  10.870   8.971  0.2933 -0.2789 -0.1137
  668MOL0     C88072   0.860  10.841   8.846 -0.4547 -0.1342 -0.2967
  668MOL0     C88073   0.816  10.919   8.731  0.1506  0.3019  1.3533
  668MOL0     O88074   0.744  11.033   8.747  0.0447  0.3637  0.4163
  668MOL0     C88075   0.691  11.086   8.639 -0.8556 -0.5330  1.2780
  668MOL0     C88076   0.557  11.073   8.599  0.6137 -0.3249  0.9852
  668MOL0     C88077   0.521  11.121   8.468  0.2251 -0.8098 -0.3564
  668MOL0     C88078   0.614  11.182   8.386  1.0852  0.0503 -0.3479
  668MOL0     O88079   0.568  11.235   8.267  1.2378  0.2315 -0.2097
  668MOL0     C88080   0.574  11.371   8.245 -0.4494 -0.7872 -0.8194
  668MOL0     C88081   0.456  11.405   8.147 -0.4139 -0.3776  0.5924
  668MOL0     C88082   0.424  11.300   8.041 -1.3463 -0.1705  0.4515
  668MOL0     C88083   0.543  11.280   7.952 -0.1210  0.0121 -0.7591
  668MOL0     C88084   0.522  11.212   7.817  0.0304  0.2178 -0.6642
  668MOL0     C88085   0.656  11.212   7.721 -0.0737 -0.4079 -0.2117
  668MOL0     C88086   0.627  11.133   7.595  0.2353  0.4998 -0.1290
  668MOL0     C88087   0.752  11.116   7.516 -1.4037  0.7214 -0.8992
  668MOL0    Cl88088   0.703  11.142   7.336 -0.2168  0.2432 -0.5110
  668MOL0     C88089   0.744  11.198   8.423  0.9449  0.3040  0.3158
  668MOL0     C88090   0.779  11.144   8.545  0.0658 -0.5727 -0.6040
  668MOL0     O88091   0.844  10.867   8.617  0.2848 -0.2876 -0.4145
  668MOL0     C88092   0.967  10.748   8.836  0.3146  0.1164 -0.5330
  668MOL0     C88093   1.004  10.674   8.947 -0.4732  1.0261  0.6270
  668MOL0     N88094   1.469  10.615   9.297  0.4826 -0.4380 -0.8066
  668MOL0     N88095   1.590  10.571   9.278  0.2010  0.3012 -0.2540
  668MOL0     C88096   2.458   9.724   9.854  1.0614  0.0566 -0.5612
  668MOL0     C88097   2.565   9.762   9.942 -0.4718 -0.0201 -0.1602
  668MOL0     C88098   2.960   9.966  10.107 -0.4772  0.1639  0.9913
  668MOL0     C88099   3.093   9.939  10.117  0.0989  0.1532 -1.1057
  668MOL0     C88100   3.171   9.986  10.224 -0.1976  0.3324 -0.0691
  668MOL0     C88101   3.121  10.077  10.316 -0.1481  0.2951 -0.3005
  668MOL0     O88102   3.201  10.140  10.404 -0.0946  0.4738  0.3838
  668MOL0     C88103   3.194  10.084  10.531  0.5711 -0.0967 -0.6482
  668MOL0     C88104   3.282  10.160  10.617  0.6735 -0.3473 -0.7624
  668MOL0     C88105   3.306  10.093  10.747  0.2384 -0.4873 -0.4316
  668MOL0     C88106   3.363  10.182  10.851  0.3560  0.0192  0.2741
  668MOL0     C88107   3.510  10.200  10.833 -1.1334  0.7012  0.0649
  668MOL0     C88108   3.625  10.230  10.811 -0.4347  0.0938  0.1789
  668MOL0     C88109   2.984  10.107  10.311 -0.8304  0.3458  0.0783
  668MOL0     C88110   2.909  10.048  10.214  0.0679 -0.0489 -0.1416
  668MOL0     H88111   2.754   9.955   9.756 -1.4075  3.0423  0.6513
  668MOL0     H88112   2.569   9.877   9.569 -0.8592 -0.9781 -0.0156
  668MOL0     H88113   2.275   9.932   9.609  2.0048 -0.9095 -1.8558
  668MOL0     H88114   2.207   9.848   9.761  1.1703  1.5880  0.2284
  668MOL0     H88115   2.120   9.673   9.589 -1.0810 -1.0536 -1.8993
  668MOL0     H88116   2.164   9.788   9.460  0.0276 -1.4916 -0.2715
  668MOL0     H88117   1.970   9.836   9.690  1.2758  1.5698  0.7689
  668MOL0     H88118   1.933   9.824   9.514 -1.9984  2.4935 -0.2149
  668MOL0     H88119   2.090  10.059   9.623 -3.1532  6.2033  0.0344
  668MOL0     H88120   2.058  10.017   9.457 -2.7880 -0.4268 -1.1751
  668MOL0     H88121   1.870  10.109   9.667  2.1584  1.2125 -0.1443
  668MOL0     H88122   1.804  10.018   9.522 -0.8671  2.1086 -0.8874
  668MOL0     H88123   1.922  10.176   9.382  0.4114 -2.0700  0.2117
  668MOL0     H88124   1.961  10.275   9.532 -1.1422  1.8443 -1.8528
  668MOL0     H88125   1.666  10.208   9.456 -1.3293  2.4596 -3.2327
  668MOL0     H88126   1.738  10.324   9.577  1.6946  0.4995  0.1753
  668MOL0     H88127   1.783  10.362   9.281  1.0840 -1.1390  0.6132
  668MOL0     H88128   1.842  10.457   9.421  1.8655 -0.2260 -0.0966
  668MOL0     H88129   1.532  10.403   9.558 -2.3037 -1.4319 -1.1298
  668MOL0     H88130   1.284  10.588   9.568 -2.6841  1.4842 -0.8052
  668MOL0     H88131   1.250  10.442   9.473 -1.2310 -0.5550 -3.9026
  668MOL0     H88132   1.221  10.615   9.285 -0.8864 -6.3196 -0.4402
  668MOL0     H88133   1.205  10.739   9.409  0.7830 -0.1356 -0.7962
  668MOL0     H88134   1.022  10.490   9.430 -1.2409  0.8078  3.0778
  668MOL0     H88135   1.016  10.650   9.512 -2.1974  0.0379 -0.7385
  668MOL0     H88136   0.949  10.757   9.320  1.3896 -0.0513 -0.7061
  668MOL0     H88137   0.838  10.615   9.334 -1.3823  1.2396  0.3215
  668MOL0     H88138   0.795  10.841   9.177 -0.8794  2.0703 -2.2394
  668MOL0     H88139   0.732  10.950   8.981  0.7643  0.6118 -3.0910
  668MOL0     H88140   0.478  11.020   8.651 -1.9464  1.6953 -0.5935
  668MOL0     H88141   0.431  11.091   8.414 -0.8370 -1.5110  1.6675
  668MOL0     H88142   0.671  11.395   8.201 -0.3174 -1.9016 -1.1511
  668MOL0     H88143   0.562  11.426   8.339  3.0263  0.0101 -0.7315
  668MOL0     H88144   0.491  11.497   8.100 -0.6273 -0.6463 -0.1051
  668MOL0     H88145   0.358  11.420   8.193 -0.2170  1.1316  0.5614
  668MOL0     H88146   0.353  11.331   7.965  1.2487 -0.5683 -2.3107
  668MOL0     H88147   0.387  11.208   8.089  0.1051 -0.5376  0.9330
  668MOL0     H88148   0.586  11.379   7.932 -1.6195  1.1399  1.2895
  668MOL0     H88149   0.624  11.227   8.003  0.3820  1.6480  0.2040
  668MOL0     H88150   0.442  11.270   7.770 -1.0846 -2.1549 -1.8670
  668MOL0     H88151   0.477  11.113   7.828 -0.9578  0.6345 -0.9408
  668MOL0     H88152   0.739  11.163   7.773 -2.1235 -1.7701  1.9993
  668MOL0     H88153   0.686  11.309   7.680  2.4405 -1.9401 -2.3053
  668MOL0     H88154   0.595  11.034   7.627  1.4599  0.2667  0.4379
  668MOL0     H88155   0.552  11.188   7.536 -0.6120  2.2559  2.3933
  668MOL0     H88156   0.786  11.014   7.538  2.2742  1.5473 -2.0827
  668MOL0     H88157   0.833  11.182   7.548 -1.3864 -0.6261  2.1801
  668MOL0     H88158   0.806  11.237   8.343  2.0911  1.8239  1.8754
  668MOL0     H88159   0.882  11.148   8.576  0.5108  0.6685 -2.0826
  668MOL0     H88160   1.029  10.735   8.748  3.1307  0.2532  1.3105
  668MOL0     H88161   1.084  10.601   8.936 -3.2838 -2.4169  1.3368
  668MOL0     H88162   2.384   9.653   9.890  3.0097 -3.0984 -2.3308
  668MOL0     H88163   2.565   9.730  10.046 -0.3238  0.8692  0.1205
  668MOL0     H88164   3.146   9.877  10.044 -1.3079 -1.3790 -0.8928
  668MOL0     H88165   3.276   9.959  10.221  0.4088  2.3905  0.7620
  668MOL0     H88166   3.231   9.982  10.518 -0.2674 -0.5807  0.5397
  668MOL0     H88167   3.092  10.079  10.573  1.9651  1.0144  3.3545
  668MOL0     H88168   3.371  10.180  10.557  1.0805  0.1865  0.0007
  668MOL0     H88169   3.233  10.253  10.649  1.3822 -0.2426  0.0616
  668MOL0     H88170   3.365  10.001  10.743  2.0488  0.4340  2.1208
  668MOL0     H88171   3.209  10.055  10.781 -0.2294 -1.6871 -2.8685
  668MOL0     H88172   3.310  10.276  10.830  1.1987  0.6471  0.8374
  668MOL0     H88173   3.343  10.159  10.956 -1.2950  1.0583  0.2322
  668MOL0     H88174   3.725  10.267  10.807  0.8759 -2.5070  3.2769
  668MOL0     H88175   2.940  10.165  10.391  0.2655 -3.3692  3.7311
  668MOL0     H88176   2.802  10.059  10.226 -0.1227 -2.1880  0.5208
  669MOL0     O88177   4.787   6.260   6.832 -0.6588 -0.4497 -0.0264
  669MOL0     C88178   4.873   6.333   6.781 -0.0822  0.6377 -0.7986
  669MOL0     O88179   4.954   6.289   6.672 -0.2970  0.4571  0.1375
  669MOL0     C88180   4.929   6.159   6.626  0.4869 -0.3850 -0.4529
  669MOL0     C88181   4.844   6.129   6.520  0.3682 -0.2164  0.4190
  669MOL0     C88182   4.849   5.999   6.467 -0.2054  0.6466  0.9235
  669MOL0     C88183   4.946   5.905   6.520 -0.1005 -0.4738  0.5465
  669MOL0     O88184   4.946   5.782   6.463 -1.2545  0.0644  1.0110
  669MOL0     C88185   5.067   5.708   6.470 -0.3305  0.1094  0.5523
  669MOL0     C88186   5.192   5.774   6.402  0.4164 -0.0656 -0.6453
  669MOL0     C88187   5.297   5.663   6.360  0.1588  0.8894  0.5493
  669MOL0     C88188   5.407   5.721   6.261 -0.0412 -0.2792  0.5013
  669MOL0     C88189   5.526   5.626   6.252  0.5840 -1.3111 -0.0033
  669MOL0     C88190   5.629   5.662   6.139 -0.5639  0.0139 -0.3670
  669MOL0     C88191   5.707   5.790   6.191 -0.1020  0.2019  0.6920
  669MOL0     C88192   5.811   5.843   6.089 -0.3403  0.2585  0.0049
  669MOL0     N88193   5.931   5.758   6.067 -0.1210 -0.7790 -0.4455
  669MOL0     C88194   5.976   5.652   6.143  0.4023  0.5601 -0.0943
  669MOL0     C88195   6.069   5.602   6.068 -0.5136  0.2657  0.6492
  669MOL0     C88196   6.135   5.464   6.103 -0.0080  0.8374  1.6087
  669MOL0     C88197   6.099   5.363   5.986 -0.7251 -0.5729 -0.5773
  669MOL0     C88198   6.116   5.223   6.034 -0.3618  0.4185 -0.6177
  669MOL0     C88199   5.994   5.176   6.123  0.1525 -0.5811 -0.0595
  669MOL0     O88200   5.873   5.210   6.053  0.1859  0.2890  0.4916
  669MOL0     C88201   5.761   5.193   6.129 -0.4257  0.2807  0.2698
  669MOL0     C88202   5.664   5.104   6.084 -0.3196 -1.0785 -0.0947
  669MOL0     C88203   5.547   5.088   6.158 -0.2261  0.0097  0.0595
  669MOL0     C88204   5.531   5.161   6.276  0.2053 -0.2044 -1.4945
  669MOL0     C88205   5.417   5.129   6.371  0.6288 -0.6383 -0.2341
  669MOL0     O88206   5.411   5.203   6.487 -0.3113 -0.6133 -0.0631
  669MOL0     C88207   5.290   5.249   6.523  0.9823  0.5974  0.3866
  669MOL0     C88208   5.188   5.268   6.435  0.1650 -0.4025  0.8803
  669MOL0     C88209   5.063   5.303   6.479  0.6394 -0.2966  0.7973
  669MOL0     C88210   5.036   5.333   6.610  0.0793 -1.3107  0.2418
  669MOL0     O88211   4.907   5.370   6.653 -0.5100  0.2755  0.1986
  669MOL0     C88212   4.819   5.425   6.556  0.4258 -0.0749  0.1791
  669MOL0     C88213   4.708   5.338   6.497 -0.6774  0.2137 -1.0335
  669MOL0     C88214   4.656   5.407   6.371 -1.4104 -0.1673  0.2421
  669MOL0     C88215   4.531   5.329   6.319  0.1315  0.3005  0.2279
  669MOL0     C88216   4.563   5.204   6.231 -0.3974  0.3793  0.7736
  669MOL0     C88217   4.538   5.083   6.312  0.0137 -0.1924 -0.1526
  669MOL0     C88218   4.395   5.029   6.273  0.0277  0.0647  0.1412
  669MOL0     C88219   4.358   4.910   6.362 -0.2114  0.4944 -0.3856
  669MOL0    Cl88220   4.487   4.783   6.329  0.1018  0.2833 -0.2134
  669MOL0     C88221   5.135   5.301   6.702  0.3018  0.2843 -0.0841
  669MOL0     C88222   5.268   5.274   6.660 -0.0981  0.0699 -0.2561
  669MOL0     O88223   5.341   5.036   6.342  0.3990 -0.5434  0.0956
  669MOL0     C88224   5.623   5.256   6.329  0.1997  0.5994  0.2179
  669MOL0     C88225   5.739   5.267   6.252 -0.0967  0.1722 -1.0731
  669MOL0     N88226   6.099   5.695   5.962 -0.3034  0.2366 -1.2355
  669MOL0     N88227   6.015   5.785   5.961 -0.3322 -0.0765  0.1393
  669MOL0     C88228   5.031   5.945   6.621  0.4188 -0.1965  0.5588
  669MOL0     C88229   5.011   6.074   6.684  0.8082 -0.3803  0.2176
  669MOL0     C88230   4.906   6.462   6.831 -0.0767 -0.6896 -0.3550
  669MOL0     C88231   4.840   6.525   6.940  0.2908  0.6854 -0.1079
  669MOL0     C88232   4.892   6.636   7.002  0.3378  0.1544  0.3906
  669MOL0     C88233   5.011   6.694   6.970  0.2135 -0.1630 -0.4485
  669MOL0     O88234   5.066   6.787   7.050  0.0523  0.0145 -0.2481
  669MOL0     C88235   5.203   6.836   7.010  0.2159  0.7077  0.7300
  669MOL0     C88236   5.236   6.936   7.120 -0.6877  0.0629  0.9226
  669MOL0     C88237   5.360   7.025   7.101 -0.2716  0.6861 -0.8538
  669MOL0     C88238   5.387   7.093   7.235 -0.2503  0.0688 -0.5318
  669MOL0     C88239   5.470   7.212   7.220 -0.4999  0.0064 -0.9781
  669MOL0     C88240   5.569   7.290   7.207  0.0362  0.0644  0.4351
  669MOL0     C88241   5.064   6.638   6.850 -0.1600  0.3965 -0.0683
  669MOL0     C88242   5.025   6.522   6.791  0.1661 -0.2270 -0.2290
  669MOL0     H88243   4.780   6.197   6.465 -0.0992 -1.7496 -1.0006
  669MOL0     H88244   4.796   5.958   6.382  3.1877 -0.3429 -0.8914
  669MOL0     H88245   5.058   5.613   6.416 -2.2865  1.7183 -2.2085
  669MOL0     H88246   5.089   5.681   6.573 -0.8831 -0.3081  0.5657
  669MOL0     H88247   5.225   5.841   6.481 -1.1100 -0.0851  0.0440
  669MOL0     H88248   5.168   5.828   6.310 -2.5446 -0.7527 -0.3858
  669MOL0     H88249   5.247   5.579   6.311  1.8794  1.3798 -2.2686
  669MOL0     H88250   5.352   5.637   6.450 -0.5423 -0.4686  0.5984
  669MOL0     H88251   5.361   5.723   6.162  2.8131  0.2692 -0.9059
  669MOL0     H88252   5.429   5.820   6.301 -0.0964 -1.2063  2.9872
  669MOL0     H88253   5.498   5.522   6.236 -2.5518 -0.1670 -3.1603
  669MOL0     H88254   5.580   5.643   6.345  0.8639 -1.2752 -0.1701
  669MOL0     H88255   5.585   5.685   6.041  1.3476 -0.5819 -1.4216
  669MOL0     H88256   5.693   5.575   6.127 -2.0068 -1.2209  0.5685
  669MOL0     H88257   5.626   5.859   6.217 -0.6465  1.1930 -3.0165
  669MOL0     H88258   5.768   5.764   6.278  0.2878 -0.4510  0.2335
  669MOL0     H88259   5.852   5.932   6.138 -0.1449  0.5652 -0.7041
  669MOL0     H88260   5.764   5.868   5.994 -1.2755 -1.6726 -0.0961
  669MOL0     H88261   5.933   5.614   6.235 -0.1333  0.9672 -0.1704
  669MOL0     H88262   6.092   5.442   6.201  0.2708  4.1975  2.6177
  669MOL0     H88263   6.243   5.473   6.119  0.2435  1.0576 -0.0406
  669MOL0     H88264   6.165   5.388   5.902  0.3657 -0.0962  0.3943
  669MOL0     H88265   5.997   5.367   5.948 -0.7187  2.8405 -0.4946
  669MOL0     H88266   6.123   5.169   5.939  3.8307  1.4688 -1.0802
  669MOL0     H88267   6.203   5.194   6.094 -0.2637 -3.1345 -2.2045
  669MOL0     H88268   6.007   5.234   6.215  5.2959 -1.5958  0.1069
  669MOL0     H88269   6.000   5.068   6.143  1.7881 -0.6094 -0.5679
  669MOL0     H88270   5.675   5.052   5.989  4.7839 -1.0906  0.2438
  669MOL0     H88271   5.474   5.015   6.125  0.1251  0.0505 -0.8325
  669MOL0     H88272   5.189   5.230   6.333  1.2683 -1.2371  1.1811
  669MOL0     H88273   4.974   5.289   6.419  1.2362 -1.7960  0.2096
  669MOL0     H88274   4.868   5.459   6.464 -1.5251 -1.0572 -1.3139
  669MOL0     H88275   4.772   5.512   6.604  1.3199 -0.4598  1.8028
  669MOL0     H88276   4.648   5.331   6.588  1.5871  2.3367  0.7771
  669MOL0     H88277   4.755   5.245   6.463  0.3217  1.1051 -2.1488
  669MOL0     H88278   4.722   5.422   6.284 -0.6443 -5.2710 -0.3761
  669MOL0     H88279   4.613   5.502   6.402 -5.9431 -2.3383  1.3797
  669MOL0     H88280   4.458   5.305   6.397 -1.7404  0.5499 -1.3731
  669MOL0     H88281   4.486   5.401   6.251  3.7910  2.4719 -0.1560
  669MOL0     H88282   4.664   5.215   6.191 -0.4132  2.3759  1.1922
  669MOL0     H88283   4.497   5.203   6.144 -0.9368 -0.4599  1.1814
  669MOL0     H88284   4.550   5.110   6.418  1.8048  1.9182 -0.8249
  669MOL0     H88285   4.615   5.014   6.277  0.6814 -0.9346  2.4968
  669MOL0     H88286   4.319   5.101   6.304  0.0846  0.7359 -1.2037
  669MOL0     H88287   4.386   5.018   6.165 -0.5190  4.5460 -0.4640
  669MOL0     H88288   4.258   4.871   6.337  0.8195 -4.2166  1.7007
  669MOL0     H88289   4.358   4.941   6.467  0.1717  2.7395 -1.0010
  669MOL0     H88290   5.119   5.297   6.810  2.9349  2.1638  0.4976
  669MOL0     H88291   5.350   5.259   6.730 -0.0523 -0.4561 -0.4185
  669MOL0     H88292   5.596   5.297   6.426 -3.7816 -1.0911 -0.0064
  669MOL0     H88293   5.804   5.343   6.293 -1.3270  2.1700 -2.6378
  669MOL0     H88294   5.115   5.883   6.647  1.3169  2.2853  4.6135
  669MOL0     H88295   5.086   6.092   6.760  0.7972 -0.3613  0.2243
  669MOL0     H88296   4.757   6.473   6.987 -1.3095 -0.2312 -3.5822
  669MOL0     H88297   4.842   6.673   7.091  1.4220  1.6682  0.3969
  669MOL0     H88298   5.202   6.868   6.906  1.0286 -3.0341 -0.5776
  669MOL0     H88299   5.268   6.748   7.011 -3.7684 -2.5068  1.4073
  669MOL0     H88300   5.155   7.008   7.134  1.5470  2.4207  2.8205
  669MOL0     H88301   5.238   6.873   7.209  0.9929  1.1048  1.6620
  669MOL0     H88302   5.334   7.099   7.025  1.0342 -0.6501 -2.6747
  669MOL0     H88303   5.444   6.960   7.075  1.8490  2.0175  2.1002
  669MOL0     H88304   5.288   7.118   7.277  0.1417 -1.3595  1.3906
  669MOL0     H88305   5.421   7.017   7.306  3.1941  1.0963 -0.8976
  669MOL0     H88306   5.653   7.356   7.197 -0.3569  0.6539  0.9808
  669MOL0     H88307   5.157   6.685   6.818 -1.4940  5.1019  2.1098
  669MOL0     H88308   5.089   6.487   6.711  1.5244  1.6368 -0.0328
  670MOL0     O88309   2.508  10.884   4.127  0.8439  0.2833  0.1061
  670MOL0     C88310   2.439  10.985   4.130  0.1324  0.0092 -0.5893
  670MOL0     O88311   2.491  11.111   4.160 -0.1637 -0.0469  0.3059
  670MOL0     C88312   2.623  11.106   4.190  1.1683 -0.5118  0.1282
  670MOL0     C88313   2.704  11.202   4.130 -0.3206  0.2469  0.7433
  670MOL0     C88314   2.831  11.219   4.167 -0.5601  0.0629  0.3578
  670MOL0     C88315   2.888  11.145   4.272 -0.3431  0.4655  0.0638
  670MOL0     O88316   3.016  11.156   4.315  0.2199 -1.2286 -0.1417
  670MOL0     C88317   3.083  11.287   4.293  0.7943 -0.0020  0.4003
  670MOL0     C88318   3.197  11.295   4.404 -0.8639  0.2437  0.0172
  670MOL0     C88319   3.310  11.196   4.388 -1.0793  0.0639  0.2685
  670MOL0     C88320   3.289  11.066   4.313  0.2902 -0.3506 -0.0781
  670MOL0     C88321   3.409  10.970   4.317 -0.9732  0.0593  0.1614
  670MOL0     C88322   3.534  11.021   4.247  0.1152 -0.1032  0.3568
  670MOL0     C88323   3.624  10.912   4.199 -1.0042 -0.0971 -0.8953
  670MOL0     C88324   3.679  10.818   4.303 -0.2547  0.6259  0.2327
  670MOL0     N88325   3.771  10.713   4.244 -0.3021  0.1060  0.4019
  670MOL0     C88326   3.731  10.645   4.125 -0.3226  0.2394  0.3839
  670MOL0     C88327   3.851  10.585   4.096 -0.1089 -0.1184 -0.6004
  670MOL0     C88328   3.867  10.501   3.972 -0.0677 -0.2042 -0.2351
  670MOL0     C88329   3.762  10.521   3.863 -0.0514  0.5397  0.7983
  670MOL0     C88330   3.797  10.435   3.746  0.6637  0.3815 -0.5889
  670MOL0     C88331   3.720  10.452   3.619  0.1955  0.1324  0.0952
  670MOL0     O88332   3.768  10.355   3.520  0.0023 -0.7311  0.7727
  670MOL0     C88333   3.748  10.389   3.379  0.3837 -0.7554  0.0898
  670MOL0     C88334   3.651  10.476   3.333 -0.2309 -0.7340  0.1816
  670MOL0     C88335   3.627  10.493   3.195  0.4494  0.3434  1.2162
  670MOL0     C88336   3.720  10.440   3.095 -0.7453  0.9673 -0.6081
  670MOL0     C88337   3.724  10.473   2.957 -0.4956 -0.3908  1.1333
  670MOL0     O88338   3.620  10.556   2.919  0.9605 -0.5091 -0.0419
  670MOL0     C88339   3.600  10.582   2.792  0.0724 -0.8198 -0.2556
  670MOL0     C88340   3.496  10.530   2.718  0.3730 -0.6667 -0.8385
  670MOL0     C88341   3.480  10.571   2.576  0.2502  0.4756 -0.0318
  670MOL0     C88342   3.570  10.655   2.518 -0.3542 -0.3242  1.2509
  670MOL0     O88343   3.579  10.715   2.390  1.7437 -0.1314  0.0425
  670MOL0     C88344   3.561  10.618   2.288  1.1838  0.2546 -0.0390
  670MOL0     C88345   3.449  10.648   2.184 -0.1076  0.1403  0.3714
  670MOL0     C88346   3.441  10.804   2.166 -0.1403 -0.2810  0.4253
  670MOL0     C88347   3.359  10.862   2.050 -0.7477 -0.2023 -0.5490
  670MOL0     C88348   3.215  10.814   2.055 -0.5786 -0.1130 -0.9962
  670MOL0     C88349   3.129  10.883   1.961 -1.2339 -0.0274  0.1855
  670MOL0     C88350   3.181  10.840   1.815 -0.0354 -0.1897  0.3241
  670MOL0     C88351   3.060  10.845   1.721 -0.2116  0.5524 -0.3006
  670MOL0    Cl88352   2.955  10.710   1.751  0.4465 -0.0512 -0.0053
  670MOL0     C88353   3.676  10.699   2.599  1.0118 -1.1105  0.1269
  670MOL0     C88354   3.688  10.670   2.735  0.8046  0.5846  0.4638
  670MOL0     O88355   3.817  10.433   2.881 -0.0845 -0.5736  0.6424
  670MOL0     C88356   3.815  10.341   3.141  0.2851 -0.0850  0.7539
  670MOL0     C88357   3.821  10.322   3.281  0.5735  0.1237 -0.3167
  670MOL0     N88358   3.948  10.595   4.198  1.0667  0.4974  0.4176
  670MOL0     N88359   3.901  10.681   4.283  0.1709  0.1319 -1.2555
  670MOL0     C88360   2.804  11.062   4.342  0.6449 -0.0934 -1.2108
  670MOL0     C88361   2.673  11.042   4.304 -1.2079  0.2255 -0.0244
  670MOL0     C88362   2.299  10.977   4.104 -0.4700 -0.0177 -0.6964
  670MOL0     C88363   2.230  11.085   4.050  0.2729  0.1291  0.0185
  670MOL0     C88364   2.115  11.070   3.987  0.1566 -0.1851 -0.5977
  670MOL0     C88365   2.054  10.940   3.989 -0.6371 -0.5354  0.4383
  670MOL0     O88366   1.935  10.911   3.928 -0.0254  0.5687  0.1618
  670MOL0     C88367   1.909  10.961   3.797 -0.3959 -1.1639 -0.8453
  670MOL0     C88368   1.760  10.951   3.796 -0.7037  0.0393 -0.3589
  670MOL0     C88369   1.707  11.085   3.852  0.5090  0.3989 -0.6677
  670MOL0     C88370   1.737  11.226   3.785 -0.5894  0.8216 -0.1972
  670MOL0     C88371   1.676  11.260   3.646  0.7699 -0.2163 -0.3359
  670MOL0     C88372   1.631  11.286   3.532  0.9291 -0.0725  0.0881
  670MOL0     C88373   2.122  10.825   4.040  0.8127 -0.2327  0.3074
  670MOL0     C88374   2.245  10.848   4.098  0.1541 -0.2113 -0.0577
  670MOL0     H88375   2.655  11.260   4.053 -2.5446 -1.8453  0.4333
  670MOL0     H88376   2.886  11.288   4.103 -2.6277 -0.4847 -2.1753
  670MOL0     H88377   3.017  11.374   4.295  1.5809  0.6870 -1.2687
  670MOL0     H88378   3.135  11.286   4.196 -1.2956  2.1330 -0.8466
  670MOL0     H88379   3.153  11.290   4.504 -1.3421  2.3984 -0.0320
  670MOL0     H88380   3.237  11.397   4.412 -0.0483 -0.2074  4.5527
  670MOL0     H88381   3.355  11.175   4.485  0.1946  1.9885  0.1549
  670MOL0     H88382   3.394  11.243   4.334  0.7810 -0.6515  2.4065
  670MOL0     H88383   3.209  11.005   4.357 -0.1659  0.6912  0.5787
  670MOL0     H88384   3.264  11.084   4.208  2.9357  3.4007 -0.2689
  670MOL0     H88385   3.373  10.888   4.255 -0.8641  0.9536 -1.1327
  670MOL0     H88386   3.432  10.942   4.420 -3.7675 -1.3869  0.4877
  670MOL0     H88387   3.585  11.094   4.310 -0.5953 -2.2478  3.6559
  670MOL0     H88388   3.492  11.082   4.166  2.5794  0.5618 -0.4942
  670MOL0     H88389   3.574  10.846   4.128 -0.8831 -1.7985  0.5287
  670MOL0     H88390   3.705  10.971   4.154 -1.6114  1.1154 -0.4532
  670MOL0     H88391   3.589  10.775   4.347 -0.3508  0.1766 -0.3921
  670MOL0     H88392   3.735  10.870   4.382  0.9252 -1.6055  0.9415
  670MOL0     H88393   3.640  10.629   4.068 -0.7851 -2.9983  1.7720
  670MOL0     H88394   3.859  10.395   3.996 -2.2352  0.1634  0.9467
  670MOL0     H88395   3.971  10.516   3.941  0.9240 -1.5667  2.1800
  670MOL0     H88396   3.772  10.622   3.823  3.0213  0.7523  1.8569
  670MOL0     H88397   3.663  10.491   3.899  1.2719 -3.4960  1.6425
  670MOL0     H88398   3.901  10.448   3.714  0.7190  3.1645  0.3967
  670MOL0     H88399   3.776  10.331   3.771 -0.2732  0.2623 -1.7746
  670MOL0     H88400   3.746  10.550   3.580 -0.6846 -0.0419 -0.9635
  670MOL0     H88401   3.610  10.446   3.625  0.0951  2.0037  0.8233
  670MOL0     H88402   3.580  10.518   3.404  2.0490  0.4460  1.9144
  670MOL0     H88403   3.545  10.546   3.147  0.5234 -2.5572 -2.6468
  670MOL0     H88404   3.443  10.448   2.765  1.6501 -1.3168 -0.4796
  670MOL0     H88405   3.395  10.528   2.522 -0.7614 -0.0371  1.8741
  670MOL0     H88406   3.539  10.516   2.323 -1.1836 -0.9960 -4.4388
  670MOL0     H88407   3.656  10.607   2.234  1.7412 -2.8132  1.3591
  670MOL0     H88408   3.356  10.611   2.228 -1.0325  2.0565  0.1161
  670MOL0     H88409   3.479  10.609   2.086  1.2964  0.1551  0.7715
  670MOL0     H88410   3.540  10.848   2.152  2.1776 -4.2564  2.6575
  670MOL0     H88411   3.402  10.842   2.261 -0.9998 -0.7098  0.2532
  670MOL0     H88412   3.365  10.972   2.050  3.4681 -0.2533 -1.9777
  670MOL0     H88413   3.403  10.835   1.954 -0.7827  2.8777 -1.5655
  670MOL0     H88414   3.181  10.838   2.156  2.7943  2.6090 -0.3098
  670MOL0     H88415   3.206  10.706   2.045 -1.0137 -0.2844  0.8712
  670MOL0     H88416   3.134  10.991   1.976  0.3848  0.2259 -1.6818
  670MOL0     H88417   3.032  10.840   1.984 -1.4062  0.4980  0.4643
  670MOL0     H88418   3.244  10.923   1.781 -4.3289  2.1005 -3.1569
  670MOL0     H88419   3.220  10.737   1.812 -2.4739 -1.1721 -0.4361
  670MOL0     H88420   3.097  10.819   1.621  1.7835 -3.8773  1.3045
  670MOL0     H88421   3.013  10.943   1.716  0.5721  0.8882 -3.2901
  670MOL0     H88422   3.751  10.765   2.557  0.7386  0.5886  2.1781
  670MOL0     H88423   3.764  10.716   2.797  0.1580  1.3781  0.6988
  670MOL0     H88424   3.886  10.298   3.072  1.1784  1.9547  0.3268
  670MOL0     H88425   3.890  10.244   3.312  0.9153 -1.6186 -4.6962
  670MOL0     H88426   2.851  11.024   4.432  0.9117 -0.4708 -1.5084
  670MOL0     H88427   2.614  10.975   4.365 -0.3168  2.7023  3.8730
  670MOL0     H88428   2.272  11.183   4.073 -1.2927  0.6370  0.8427
  670MOL0     H88429   2.052  11.151   3.951 -0.5969  0.0851  1.2097
  670MOL0     H88430   1.967  10.894   3.733  2.8436  0.8848 -0.3019
  670MOL0     H88431   1.952  11.060   3.779 -0.6542 -0.3549  2.3513
  670MOL0     H88432   1.733  10.929   3.692 -1.4432 -1.9755  0.2160
  670MOL0     H88433   1.725  10.870   3.861  0.4140 -0.1641  0.0028
  670MOL0     H88434   1.748  11.088   3.954  1.3691 -1.3987 -0.9262
  670MOL0     H88435   1.601  11.076   3.873  0.9714  0.6997  2.2390
  670MOL0     H88436   1.714  11.300   3.862 -1.3782  2.8033 -2.2243
  670MOL0     H88437   1.845  11.237   3.770 -0.9124  2.3528 -1.6862
  670MOL0     H88438   1.605  11.305   3.430 -4.2162  2.6683  1.5742
  670MOL0     H88439   2.079  10.725   4.035 -0.5948  0.0796  3.3939
  670MOL0     H88440   2.297  10.764   4.142  1.4763  0.5748 -0.0413
  671MOL0     O88441  11.035  10.859   4.566  0.0963  1.0359 -0.6601
  671MOL0     C88442  11.148  10.828   4.604  0.5247 -0.1147  0.2078
  671MOL0     O88443  11.192  10.699   4.633  0.0644 -1.0707 -0.1782
  671MOL0     C88444  11.120  10.593   4.592  1.0369  0.9433  0.4484
  671MOL0     C88445  11.173  10.517   4.485 -0.9350 -0.1495  0.1637
  671MOL0     C88446  11.108  10.395   4.446  0.3164 -0.2659 -0.1672
  671MOL0     C88447  10.998  10.347   4.520 -0.5485  0.0216  0.4546
  671MOL0     O88448  10.952  10.223   4.480 -0.0818 -1.0572 -0.3964
  671MOL0     C88449  10.832  10.238   4.409 -0.4901 -0.6392 -0.2533
  671MOL0     C88450  10.769  10.106   4.373  0.1451  0.0738 -0.0383
  671MOL0     C88451  10.717  10.045   4.505  0.7017 -0.3702  0.0730
  671MOL0     C88452  10.613   9.936   4.474  0.3549  0.8994 -1.1111
  671MOL0     C88453  10.599   9.856   4.616 -0.1961 -0.0430 -0.0204
  671MOL0     C88454  10.528   9.934   4.726 -0.8100  0.4176  0.6466
  671MOL0     C88455  10.442   9.863   4.828 -0.5482 -0.7827 -0.0033
  671MOL0     C88456  10.342   9.772   4.762  0.1907  0.1648 -0.8421
  671MOL0     N88457  10.200   9.804   4.812  0.1847 -0.0040 -0.6512
  671MOL0     C88458  10.113   9.879   4.751 -0.6643 -1.1875  0.8558
  671MOL0     C88459  10.015   9.896   4.836  0.0024  0.5973 -0.1330
  671MOL0     C88460   9.913  10.000   4.823 -0.3131  0.0091 -0.2879
  671MOL0     C88461   9.788   9.963   4.906 -0.3295  0.4776  0.3297
  671MOL0     C88462   9.697  10.088   4.931  0.1942 -0.6982 -1.0700
  671MOL0     C88463   9.606  10.061   5.043 -0.1687 -0.6218 -0.1087
  671MOL0     O88464   9.509  10.165   5.047 -0.1141 -0.2117 -0.0497
  671MOL0     C88465   9.406  10.168   5.136 -0.5097 -0.4200  0.4338
  671MOL0     C88466   9.384  10.070   5.235 -0.0634  0.6679  0.1921
  671MOL0     C88467   9.273  10.081   5.319 -0.6731 -0.6846 -0.8538
  671MOL0     C88468   9.187  10.191   5.316  1.4187  0.3740  0.1930
  671MOL0     C88469   9.083  10.204   5.424 -0.5880  1.1575 -0.5702
  671MOL0     O88470   9.002  10.315   5.422  0.5052  0.5155 -0.1905
  671MOL0     C88471   8.899  10.323   5.505 -0.4908  0.8307  1.1777
  671MOL0     C88472   8.795  10.229   5.482 -0.5429  0.2907 -0.1330
  671MOL0     C88473   8.682  10.244   5.553 -0.3164 -0.8425 -0.0413
  671MOL0     C88474   8.663  10.343   5.649 -0.0453  0.6536 -0.3306
  671MOL0     O88475   8.552  10.363   5.719  0.1648  0.0380 -0.2816
  671MOL0     C88476   8.452  10.259   5.718  0.4940 -0.4821  0.7760
  671MOL0     C88477   8.348  10.275   5.824 -0.1038 -0.1445  0.0585
  671MOL0     C88478   8.268  10.402   5.806  0.0036 -0.3311  0.6584
  671MOL0     C88479   8.148  10.415   5.895  1.8831 -0.5020  0.2542
  671MOL0     C88480   8.023  10.417   5.817 -0.5912 -0.7527  0.1319
  671MOL0     C88481   7.891  10.435   5.899  0.3260  0.4002 -1.1795
  671MOL0     C88482   7.773  10.490   5.814  0.1350  0.5645  0.0103
  671MOL0     C88483   7.636  10.502   5.887  1.0906 -0.7566  0.3953
  671MOL0    Cl88484   7.657  10.632   6.011 -0.1378  0.0087  0.2075
  671MOL0     C88485   8.766  10.438   5.664 -0.2750 -0.0294 -0.2097
  671MOL0     C88486   8.878  10.439   5.587 -0.9231  0.2794 -0.3215
  671MOL0     O88487   9.095  10.127   5.519 -1.5341  0.3788  0.0081
  671MOL0     C88488   9.208  10.292   5.221  0.4760 -0.5891  0.2843
  671MOL0     C88489   9.321  10.282   5.128  0.0508 -0.1547 -1.5679
  671MOL0     N88490  10.033   9.820   4.942 -0.1773  0.3987 -0.1871
  671MOL0     N88491  10.152   9.767   4.934 -0.1016  0.0325 -0.3909
  671MOL0     C88492  10.936  10.432   4.607  0.5069  0.4761 -0.8215
  671MOL0     C88493  11.000  10.549   4.651  0.3722  0.3001  1.1804
  671MOL0     C88494  11.232  10.947   4.632  0.2234  0.4047  0.7327
  671MOL0     C88495  11.192  11.082   4.610  0.0220  0.1625  0.6254
  671MOL0     C88496  11.274  11.187   4.643 -0.0964  0.0272  1.1838
  671MOL0     C88497  11.397  11.169   4.699 -0.3373 -0.4187 -0.0451
  671MOL0     O88498  11.480  11.281   4.705  0.5231  0.1969  0.5167
  671MOL0     C88499  11.604  11.273   4.769 -0.8900  0.0822 -1.2106
  671MOL0     C88500  11.717  11.245   4.669 -0.5223  0.0363 -0.0840
  671MOL0     C88501  11.868  11.250   4.716  0.3111  0.2065 -0.4238
  671MOL0     C88502  11.920  11.352   4.822 -0.6365 -0.5654  0.1289
  671MOL0     C88503  11.922  11.487   4.778 -0.9336 -0.7742  0.0596
  671MOL0     C88504  11.924  11.603   4.754  0.9201 -0.2217 -0.0654
  671MOL0     C88505  11.445  11.041   4.720  0.1384  0.4552  0.6172
  671MOL0     C88506  11.363  10.931   4.682 -0.3923 -0.1568  0.8804
  671MOL0     H88507  11.265  10.540   4.432  0.5256 -3.0639  1.2175
  671MOL0     H88508  11.135  10.337   4.359  0.6563 -0.1173 -0.1638
  671MOL0     H88509  10.858  10.284   4.313  0.9129 -1.2641 -0.1926
  671MOL0     H88510  10.762  10.299   4.467  1.6877  0.7181  1.1013
  671MOL0     H88511  10.843  10.039   4.330 -2.0279 -1.6003 -1.3572
  671MOL0     H88512  10.682  10.112   4.307  0.8100 -0.7378 -1.0120
  671MOL0     H88513  10.671  10.120   4.569  0.2535 -0.5467 -0.0377
  671MOL0     H88514  10.793  10.003   4.572 -1.3340 -3.3150  0.7085
  671MOL0     H88515  10.519   9.978   4.436  0.9556  2.0642 -1.3667
  671MOL0     H88516  10.647   9.868   4.395  0.5112 -0.3725  0.0126
  671MOL0     H88517  10.694   9.821   4.657  0.1400  1.6147  0.7090
  671MOL0     H88518  10.561   9.756   4.595  0.2664 -0.3278  0.4691
  671MOL0     H88519  10.472  10.012   4.675  1.5527  0.0214 -2.8603
  671MOL0     H88520  10.607   9.990   4.776  2.8922 -1.5095 -2.5524
  671MOL0     H88521  10.508   9.803   4.891 -0.2007 -1.9734 -1.4333
  671MOL0     H88522  10.396   9.943   4.887  0.0746 -1.5886  1.6442
  671MOL0     H88523  10.354   9.675   4.811 -0.3535  1.7608  2.7833
  671MOL0     H88524  10.344   9.772   4.652  1.0072  0.6365 -0.8311
  671MOL0     H88525  10.113   9.936   4.658 -1.4221  1.1126  2.1715
  671MOL0     H88526   9.885  10.015   4.718 -0.3787  1.7880 -0.0501
  671MOL0     H88527   9.952  10.092   4.869  0.9641 -1.1678  1.0748
  671MOL0     H88528   9.818   9.922   5.003  0.3478  0.7321  0.2335
  671MOL0     H88529   9.713   9.898   4.860 -0.6635  0.1026  1.3773
  671MOL0     H88530   9.770  10.163   4.962  0.3996 -2.1399  2.3414
  671MOL0     H88531   9.643  10.127   4.844 -3.2026  1.3494  1.7028
  671MOL0     H88532   9.668  10.039   5.131  1.4046  2.6424 -0.2519
  671MOL0     H88533   9.550   9.967   5.036  0.5406 -0.9487 -2.0207
  671MOL0     H88534   9.451   9.984   5.244 -2.4194 -1.4317 -0.9514
  671MOL0     H88535   9.258   9.994   5.381  3.6364 -0.0564  1.4427
  671MOL0     H88536   8.796  10.161   5.397 -0.8174 -0.7156  0.6468
  671MOL0     H88537   8.604  10.173   5.528  0.4058 -1.9385  0.7193
  671MOL0     H88538   8.483  10.156   5.738  2.4138  0.3884  2.6555
  671MOL0     H88539   8.407  10.257   5.618 -0.5049 -0.1418  1.2128
  671MOL0     H88540   8.389  10.264   5.925 -0.6495 -2.3256  0.0900
  671MOL0     H88541   8.278  10.191   5.824  0.7924 -1.0320 -2.9329
  671MOL0     H88542   8.238  10.409   5.700 -1.6102  2.7463  1.1705
  671MOL0     H88543   8.341  10.481   5.826  0.5412 -0.4426 -0.7079
  671MOL0     H88544   8.138  10.340   5.973 -0.2991  0.3853  0.9146
  671MOL0     H88545   8.158  10.512   5.946 -2.9080  0.6642 -0.5647
  671MOL0     H88546   8.034  10.324   5.760  1.3867  0.2616 -1.2831
  671MOL0     H88547   8.022  10.490   5.735  0.5437 -1.6447 -0.7093
  671MOL0     H88548   7.901  10.496   5.989 -0.2656 -1.4310  0.2079
  671MOL0     H88549   7.861  10.336   5.938  0.6865  0.6245 -0.3095
  671MOL0     H88550   7.802  10.587   5.772 -0.9304  0.3010 -1.4203
  671MOL0     H88551   7.764  10.419   5.731  0.5743  0.4662  0.0397
  671MOL0     H88552   7.594  10.411   5.930  1.7316 -3.1385 -3.4822
  671MOL0     H88553   7.559  10.543   5.821  2.2695  0.0028 -0.5656
  671MOL0     H88554   8.758  10.514   5.741 -1.8070  0.1679 -0.5248
  671MOL0     H88555   8.952  10.518   5.593 -1.3117  0.6290 -0.1322
  671MOL0     H88556   9.148  10.382   5.216  2.0354  0.4310 -0.9586
  671MOL0     H88557   9.354  10.351   5.051  0.7921 -1.6304 -2.6004
  671MOL0     H88558  10.849  10.403   4.664  1.2633  1.1463  0.7461
  671MOL0     H88559  10.954  10.588   4.741 -0.7549 -0.9148  1.1742
  671MOL0     H88560  11.096  11.093   4.561 -0.7230 -0.4398  1.9072
  671MOL0     H88561  11.247  11.285   4.606 -1.8426  0.3079  3.0337
  671MOL0     H88562  11.604  11.207   4.857 -1.6075 -0.4838 -1.6206
  671MOL0     H88563  11.636  11.375   4.794  0.1476 -0.7954  1.4505
  671MOL0     H88564  11.693  11.165   4.598  2.2538 -1.3990  0.4469
  671MOL0     H88565  11.721  11.338   4.610  0.3466  0.0750  0.0138
  671MOL0     H88566  11.938  11.256   4.632 -1.6365  1.9459 -2.0451
  671MOL0     H88567  11.879  11.152   4.764 -1.0447  0.8692  1.3936
  671MOL0     H88568  11.853  11.360   4.908  0.8146  1.5922  1.1243
  671MOL0     H88569  12.021  11.320   4.851  0.4262 -0.1063 -2.7231
  671MOL0     H88570  11.923  11.709   4.743 -1.1047  0.5217  4.6872
  671MOL0     H88571  11.541  11.021   4.766 -0.4728 -1.4362  1.1862
  671MOL0     H88572  11.400  10.832   4.706 -1.4033  0.3677  5.3991
  672MOL0     O88573   1.547   7.702  10.852  0.7800  0.7593 -0.1808
  672MOL0     C88574   1.542   7.731  10.735 -0.9853 -1.6171  0.4838
  672MOL0     O88575   1.437   7.791  10.665 -0.1210  0.2053 -0.5663
  672MOL0     C88576   1.352   7.862  10.742  1.3367 -0.2368  0.0744
  672MOL0     C88577   1.380   8.001  10.767  0.4427  0.8235  0.2301
  672MOL0     C88578   1.306   8.072  10.857 -0.3579  1.3412 -0.7472
  672MOL0     C88579   1.188   8.016  10.910 -0.5314  0.3393  0.0789
  672MOL0     O88580   1.115   8.077  11.011 -0.1581 -0.3596  0.0465
  672MOL0     C88581   0.975   8.092  11.011 -0.2846  0.3710 -0.9299
  672MOL0     C88582   0.939   8.229  11.067  0.4061 -0.1124 -0.4395
  672MOL0     C88583   0.923   8.211  11.222  0.3982 -0.4180  0.2114
  672MOL0     C88584   0.776   8.167  11.255  0.1051  0.3031 -0.8823
  672MOL0     C88585   0.734   8.141  11.406 -0.5721 -1.3795 -0.1924
  672MOL0     C88586   0.800   8.015  11.460  0.4814 -0.3233  0.5834
  672MOL0     C88587   0.774   7.874  11.385  0.3034  0.8976 -0.3226
  672MOL0     C88588   0.628   7.822  11.387  0.0979 -0.0649  0.4171
  672MOL0     N88589   0.621   7.675  11.372 -0.3449 -0.9630  0.0341
  672MOL0     C88590   0.603   7.606  11.247  0.2071  0.0476 -0.1394
  672MOL0     C88591   0.613   7.475  11.288  0.4488 -0.1281  0.3014
  672MOL0     C88592   0.606   7.344  11.213 -0.9847 -0.1946 -0.1372
  672MOL0     C88593   0.591   7.211  11.290  0.2880 -0.3775 -0.9011
  672MOL0     C88594   0.648   7.101  11.207 -0.2237  0.0343  0.2678
  672MOL0     C88595   0.564   7.069  11.095  0.5450  0.1948  0.1405
  672MOL0     O88596   0.629   6.981  11.006 -0.2906  0.1868  0.2806
  672MOL0     C88597   0.584   6.954  10.875 -0.7861 -0.4097  0.2371
  672MOL0     C88598   0.676   6.893  10.787  0.2750 -0.0893 -0.7705
  672MOL0     C88599   0.649   6.890  10.654 -0.4733  0.5111  0.2939
  672MOL0     C88600   0.523   6.919  10.601  0.5558  0.7488 -1.0124
  672MOL0     C88601   0.503   6.915  10.455  0.0266  1.2590 -1.3822
  672MOL0     O88602   0.588   6.839  10.369 -0.4231 -0.6101  0.6094
  672MOL0     C88603   0.550   6.803  10.242  0.1288 -0.0839  0.0713
  672MOL0     C88604   0.427   6.750  10.219  0.4409  0.1506 -0.2117
  672MOL0     C88605   0.384   6.716  10.083 -0.8256  0.0933 -0.4860
  672MOL0     C88606   0.459   6.753   9.972 -0.2034  0.0591 -0.1161
  672MOL0     O88607   0.413   6.759   9.843  0.0647  0.0074 -0.5940
  672MOL0     C88608   0.276   6.796   9.818 -0.2764 -0.2825  0.2413
  672MOL0     C88609   0.264   6.798   9.665  0.3489  1.1385  0.1566
  672MOL0     C88610   0.125   6.797   9.621  0.1799  0.1929 -0.3529
  672MOL0     C88611   0.125   6.725   9.481 -0.1160  0.3906 -0.0833
  672MOL0     C88612  -0.013   6.721   9.411 -0.3999 -0.1256 -1.4594
  672MOL0     C88613  -0.139   6.657   9.473  0.4042  0.2959 -0.3418
  672MOL0     C88614  -0.137   6.512   9.516 -0.4966  0.7435 -1.1071
  672MOL0     C88615  -0.115   6.419   9.391  0.0329  0.6184 -0.3648
  672MOL0    Cl88616  -0.225   6.463   9.254  0.2738 -0.1521  0.5763
  672MOL0     C88617   0.589   6.802  10.000 -0.2370  0.3357 -0.3545
  672MOL0     C88618   0.637   6.821  10.138  0.5101 -0.8682  0.1146
  672MOL0     O88619   0.398   6.973  10.422 -0.1000  0.2074  0.5752
  672MOL0     C88620   0.433   6.974  10.689 -0.2604  0.3998  0.0475
  672MOL0     C88621   0.460   6.994  10.821 -0.0880 -0.0474 -0.0574
  672MOL0     N88622   0.635   7.466  11.424  0.0230  0.1132 -1.0370
  672MOL0     N88623   0.645   7.586  11.470  0.3831 -0.2072 -0.9876
  672MOL0     C88624   1.148   7.883  10.876 -1.1471  0.4831 -0.6109
  672MOL0     C88625   1.233   7.809  10.795  0.4919  0.2992 -0.1745
  672MOL0     C88626   1.660   7.680  10.647  0.1012 -0.4658  0.4156
  672MOL0     C88627   1.664   7.717  10.510  0.3469  0.4059 -0.3619
  672MOL0     C88628   1.774   7.699  10.443 -0.5557  0.5279  0.6561
  672MOL0     C88629   1.877   7.606  10.483 -0.0049 -0.3228 -1.3542
  672MOL0     O88630   1.971   7.572  10.387 -0.3185  0.1229  0.1320
  672MOL0     C88631   2.079   7.519  10.445  0.3413 -0.0639  0.7304
  672MOL0     C88632   2.198   7.540  10.359 -0.4540 -0.9414  0.2763
  672MOL0     C88633   2.241   7.694  10.356 -0.2319 -0.1840 -0.1464
  672MOL0     C88634   2.328   7.714  10.234 -0.4425 -0.6787 -0.3184
  672MOL0     C88635   2.372   7.855  10.241 -0.1619 -0.2958 -1.0052
  672MOL0     C88636   2.412   7.974  10.239 -0.1506 -0.3140 -0.1951
  672MOL0     C88637   1.869   7.560  10.622  0.6264  0.2104 -0.3148
  672MOL0     C88638   1.765   7.605  10.702  0.5203 -0.6086 -0.2439
  672MOL0     H88639   1.465   8.036  10.709  0.1952 -0.5997 -1.0724
  672MOL0     H88640   1.334   8.173  10.887  3.0577  1.3330 -3.3907
  672MOL0     H88641   0.953   8.009  11.079  3.4471 -0.7549 -0.8618
  672MOL0     H88642   0.916   8.082  10.920 -2.3910  2.1442  0.1417
  672MOL0     H88643   0.848   8.267  11.020  1.0091  1.9677 -0.0488
  672MOL0     H88644   1.021   8.298  11.047  0.0500  0.2813 -0.5626
  672MOL0     H88645   0.948   8.302  11.278 -0.9020  1.4283 -2.0606
  672MOL0     H88646   0.996   8.135  11.251  0.5725 -1.3629 -2.4559
  672MOL0     H88647   0.703   8.240  11.219 -0.6354 -0.8524 -1.7910
  672MOL0     H88648   0.764   8.072  11.201 -1.7911  0.2537 -0.4459
  672MOL0     H88649   0.626   8.132  11.419 -0.7412 -0.3758 -0.7418
  672MOL0     H88650   0.764   8.233  11.458  1.2048 -1.2088 -1.4253
  672MOL0     H88651   0.760   8.005  11.561 -2.2159 -2.2706 -0.5556
  672MOL0     H88652   0.908   8.031  11.466  0.6858 -0.8539 -1.1203
  672MOL0     H88653   0.804   7.884  11.280  0.4840  3.6023 -0.0762
  672MOL0     H88654   0.830   7.793  11.431  1.7935  1.9245 -0.2533
  672MOL0     H88655   0.574   7.876  11.308  0.4470  0.2363  0.3833
  672MOL0     H88656   0.568   7.844  11.476 -3.7666 -0.3368 -1.8661
  672MOL0     H88657   0.594   7.641  11.145  3.0120 -0.7077 -0.7278
  672MOL0     H88658   0.708   7.342  11.173 -0.6298 -0.4934  0.7617
  672MOL0     H88659   0.529   7.345  11.135 -0.9696 -1.3321 -0.1777
  672MOL0     H88660   0.484   7.201  11.310  0.6188 -0.8286  0.8130
  672MOL0     H88661   0.639   7.221  11.388 -0.5701 -2.1482 -0.2509
  672MOL0     H88662   0.751   7.121  11.176 -0.3132  1.9393  1.0292
  672MOL0     H88663   0.633   7.013  11.271 -3.1993 -1.6565 -2.4797
  672MOL0     H88664   0.540   7.155  11.031 -0.1768  2.4770  3.2619
  672MOL0     H88665   0.467   7.027  11.120  0.8897 -0.3794  0.5227
  672MOL0     H88666   0.772   6.868  10.831  0.2499  0.0507 -0.6344
  672MOL0     H88667   0.728   6.846  10.594  1.2713  1.7805  1.5588
  672MOL0     H88668   0.368   6.736  10.310  0.6954 -0.6593 -0.1617
  672MOL0     H88669   0.286   6.674  10.065 -0.5189 -1.7030  1.6286
  672MOL0     H88670   0.257   6.895   9.861  4.6117  0.5661  1.0438
  672MOL0     H88671   0.204   6.730   9.867  0.6142  0.5493  2.8164
  672MOL0     H88672   0.322   6.716   9.622  0.1949  0.9832  0.2465
  672MOL0     H88673   0.312   6.887   9.621 -2.7027  2.7799 -0.1330
  672MOL0     H88674   0.079   6.896   9.616  1.1030  0.7492  1.4512
  672MOL0     H88675   0.061   6.739   9.688 -0.6033  1.5380  0.0941
  672MOL0     H88676   0.210   6.774   9.431  0.3644 -2.8065 -2.7255
  672MOL0     H88677   0.156   6.621   9.489 -0.3102  0.4036  0.8940
  672MOL0     H88678  -0.003   6.668   9.316 -2.6299 -3.6774  0.0738
  672MOL0     H88679  -0.037   6.825   9.389  0.2022  0.5934  0.9997
  672MOL0     H88680  -0.221   6.681   9.405 -0.9293  0.7904  1.3474
  672MOL0     H88681  -0.160   6.707   9.568  0.3733  1.8794 -1.1404
  672MOL0     H88682  -0.045   6.513   9.575  0.5474  1.4063 -2.6637
  672MOL0     H88683  -0.228   6.487   9.571 -0.0981  2.5754  0.4801
  672MOL0     H88684  -0.136   6.314   9.416  1.4401  0.0972 -1.2468
  672MOL0     H88685  -0.011   6.429   9.359  0.2933  0.0736  0.2771
  672MOL0     H88686   0.664   6.838   9.931  0.8332 -1.1460 -0.0119
  672MOL0     H88687   0.736   6.866  10.147  0.7060 -1.0055 -1.2025
  672MOL0     H88688   0.343   7.019  10.649  0.1686  2.4880  1.3130
  672MOL0     H88689   0.388   7.046  10.883  3.0789  4.4668  0.3479
  672MOL0     H88690   1.053   7.841  10.905  0.3393 -2.7448  0.1051
  672MOL0     H88691   1.195   7.711  10.768  1.1668 -0.1935  0.6472
  672MOL0     H88692   1.588   7.780  10.464 -1.8151 -1.6604  0.2046
  672MOL0     H88693   1.779   7.747  10.346  2.7349 -0.7007  0.0761
  672MOL0     H88694   2.058   7.411  10.449 -1.6328  0.0434 -2.9221
  672MOL0     H88695   2.098   7.557  10.546 -1.1965  2.3654  0.1764
  672MOL0     H88696   2.278   7.476  10.397  0.3912 -0.4297 -0.5693
  672MOL0     H88697   2.175   7.498  10.260 -0.4788 -0.8100  0.2249
  672MOL0     H88698   2.304   7.711  10.444 -0.8597  2.6866 -0.1558
  672MOL0     H88699   2.161   7.767  10.370 -0.1067 -0.3187  1.5413
  672MOL0     H88700   2.415   7.649  10.234  1.6839  1.9809 -1.4428
  672MOL0     H88701   2.268   7.699  10.144  0.5238  1.7616 -1.4611
  672MOL0     H88702   2.457   8.070  10.226  0.7318 -0.5744  0.7880
  672MOL0     H88703   1.939   7.483  10.655 -0.5945 -0.4787  0.7393
  672MOL0     H88704   1.762   7.583  10.808  3.9482 -1.0975 -0.1225
  673MOL0     O88705   8.650   1.331   3.367 -0.0181 -0.9890  0.3811
  673MOL0     C88706   8.753   1.304   3.432 -0.8142 -0.9755  0.6406
  673MOL0     O88707   8.773   1.336   3.559  0.6152 -0.4569 -0.5790
  673MOL0     C88708   8.674   1.421   3.604  0.3060  0.8461  0.7615
  673MOL0     C88709   8.583   1.363   3.686  0.4999 -0.0105 -1.3178
  673MOL0     C88710   8.488   1.436   3.762  0.4225  0.1587  0.3011
  673MOL0     C88711   8.495   1.573   3.747  0.4644  1.0721 -0.7709
  673MOL0     O88712   8.409   1.648   3.820 -0.8037  0.4428 -0.2494
  673MOL0     C88713   8.300   1.685   3.738 -0.2738 -0.5260  0.4209
  673MOL0     C88714   8.177   1.718   3.824  0.1071  0.1133  0.3127
  673MOL0     C88715   8.186   1.866   3.883  0.6909 -0.8122 -0.2722
  673MOL0     C88716   8.067   1.909   3.978  0.1561  1.0881  1.3486
  673MOL0     C88717   8.070   2.041   4.032 -0.4314  0.2035  0.2742
  673MOL0     C88718   7.939   2.107   4.032  0.6208  0.5644 -0.4712
  673MOL0     C88719   7.839   2.041   4.136  0.0090  0.0219 -0.4079
  673MOL0     C88720   7.696   2.090   4.131  0.0028  0.3408 -0.3932
  673MOL0     N88721   7.616   2.073   4.006  0.2589  0.5397 -0.6679
  673MOL0     C88722   7.570   1.951   3.958 -0.0922 -0.0675 -0.4741
  673MOL0     C88723   7.503   1.977   3.846  0.7046 -0.1135 -0.2100
  673MOL0     C88724   7.438   1.892   3.739  0.3982 -0.0295 -1.0292
  673MOL0     C88725   7.364   1.970   3.619  0.7787 -0.6227 -0.3700
  673MOL0     C88726   7.299   1.874   3.521  0.6610 -0.6449 -0.7629
  673MOL0     C88727   7.247   1.958   3.406 -0.3707 -0.6518 -0.0974
  673MOL0     O88728   7.173   1.891   3.302 -0.4087 -0.8237 -0.4186
  673MOL0     C88729   7.251   1.798   3.231 -0.5590  0.1760 -0.3827
  673MOL0     C88730   7.392   1.803   3.230 -0.2760  0.3281 -0.6453
  673MOL0     C88731   7.463   1.713   3.158 -0.5926  0.3176  1.3419
  673MOL0     C88732   7.411   1.612   3.078  0.4120 -0.1910  0.3075
  673MOL0     C88733   7.489   1.519   3.006  0.7574  1.2634  0.4715
  673MOL0     O88734   7.420   1.429   2.920  0.0683 -0.2717  0.2573
  673MOL0     C88735   7.507   1.355   2.844 -0.5401 -1.2284  0.0334
  673MOL0     C88736   7.529   1.385   2.710  0.0279  0.1568 -0.1815
  673MOL0     C88737   7.615   1.303   2.633 -0.1235 -0.7024  0.0280
  673MOL0     C88738   7.682   1.206   2.696  0.7495 -0.1763  0.3052
  673MOL0     O88739   7.754   1.136   2.602 -0.6388 -0.3937 -0.8256
  673MOL0     C88740   7.883   1.095   2.647  0.6173 -0.2183 -0.0148
  673MOL0     C88741   7.960   1.070   2.523 -0.1499  0.2245  0.0071
  673MOL0     C88742   7.921   0.945   2.452  0.2154 -0.2897  0.3198
  673MOL0     C88743   7.989   0.942   2.318 -0.3991  0.3201 -0.1114
  673MOL0     C88744   7.907   0.857   2.221 -0.0353  0.8502  0.5978
  673MOL0     C88745   7.980   0.836   2.086  0.3773  0.6451  0.1299
  673MOL0     C88746   7.874   0.777   1.992 -0.5907 -0.0786 -0.7899
  673MOL0     C88747   7.951   0.712   1.879 -0.3273  0.1052  0.5501
  673MOL0    Cl88748   8.033   0.831   1.780 -0.0450  0.1903  0.0707
  673MOL0     C88749   7.672   1.187   2.833 -0.2930 -0.0758 -0.5406
  673MOL0     C88750   7.576   1.255   2.904  0.2716  0.6689 -0.4901
  673MOL0     O88751   7.606   1.516   3.030 -0.6610 -0.6960  0.1339
  673MOL0     C88752   7.267   1.612   3.074 -0.3097 -0.0326  0.0878
  673MOL0     C88753   7.189   1.700   3.156  0.4072  0.4173 -0.0570
  673MOL0     N88754   7.525   2.114   3.823 -0.6747  0.2790 -0.2282
  673MOL0     N88755   7.599   2.171   3.913 -0.6438  0.4038  0.5640
  673MOL0     C88756   8.581   1.631   3.655 -0.7246  0.0426  0.0089
  673MOL0     C88757   8.672   1.561   3.580 -0.7247  0.2661 -1.1249
  673MOL0     C88758   8.867   1.244   3.364 -1.2080  0.9054 -0.5636
  673MOL0     C88759   8.861   1.180   3.238  0.5999  0.2405 -0.9405
  673MOL0     C88760   8.961   1.107   3.183 -0.4062  0.4058  0.1892
  673MOL0     C88761   9.085   1.087   3.256 -0.0736 -0.4941 -0.2925
  673MOL0     O88762   9.189   1.013   3.190  0.3278 -0.7166 -0.1386
  673MOL0     C88763   9.283   0.945   3.273 -0.2934  0.1559 -0.8775
  673MOL0     C88764   9.371   0.864   3.182 -0.0134 -0.8946 -0.5791
  673MOL0     C88765   9.484   0.786   3.255 -0.5507  0.7952 -0.1867
  673MOL0     C88766   9.612   0.771   3.164 -0.7811  0.2465  0.3326
  673MOL0     C88767   9.578   0.683   3.050  0.9195  0.0155  0.5542
  673MOL0     C88768   9.532   0.618   2.963  0.2211 -0.0444 -0.3289
  673MOL0     C88769   9.095   1.160   3.377  0.6202 -0.7187 -0.1779
  673MOL0     C88770   8.985   1.239   3.429 -0.3876  0.3570  0.3050
  673MOL0     H88771   8.580   1.257   3.707  1.4973  0.2069  0.0665
  673MOL0     H88772   8.406   1.393   3.819 -0.2781  0.7564 -0.2338
  673MOL0     H88773   8.276   1.612   3.661 -0.7147 -2.1634  2.0363
  673MOL0     H88774   8.333   1.778   3.691 -0.3980 -0.3548  0.6659
  673MOL0     H88775   8.171   1.655   3.914 -1.1272 -1.1790 -0.6399
  673MOL0     H88776   8.086   1.716   3.764  0.9966  0.8171 -1.1038
  673MOL0     H88777   8.171   1.931   3.796 -0.6426  2.4261  2.1679
  673MOL0     H88778   8.273   1.887   3.947  0.4006 -2.9925  0.9327
  673MOL0     H88779   7.984   1.896   3.908  0.9108 -0.6019  0.7104
  673MOL0     H88780   8.045   1.831   4.052  0.9390 -0.1687  0.2896
  673MOL0     H88781   8.135   2.102   3.969 -1.7914 -0.2827 -1.7173
  673MOL0     H88782   8.107   2.043   4.135 -1.8157 -0.3085  0.8030
  673MOL0     H88783   7.883   2.096   3.939  1.3203 -3.9503 -0.5796
  673MOL0     H88784   7.950   2.215   4.047  2.5153  0.4178 -0.5765
  673MOL0     H88785   7.840   1.936   4.104  0.6176  0.4169 -1.7782
  673MOL0     H88786   7.875   2.047   4.239 -2.1679 -0.8257  0.4618
  673MOL0     H88787   7.685   2.196   4.159  0.1045 -0.2097  1.9947
  673MOL0     H88788   7.648   2.034   4.212 -1.3670 -0.5997 -1.7929
  673MOL0     H88789   7.614   1.863   4.004  1.4500  1.5225  1.2226
  673MOL0     H88790   7.366   1.840   3.803 -0.3002  3.2543  1.0929
  673MOL0     H88791   7.527   1.839   3.702 -0.0351  0.0692 -2.2560
  673MOL0     H88792   7.437   2.027   3.561 -0.6293  1.5174 -0.1504
  673MOL0     H88793   7.292   2.033   3.671  2.1015  0.0289  0.7331
  673MOL0     H88794   7.381   1.811   3.485  0.3321 -2.0810  0.8445
  673MOL0     H88795   7.224   1.812   3.571 -0.0117  1.7218  1.3925
  673MOL0     H88796   7.321   2.019   3.354  0.5721 -2.1923 -0.6450
  673MOL0     H88797   7.185   2.023   3.469  4.3247  1.4364  2.9484
  673MOL0     H88798   7.457   1.874   3.280 -1.7598 -0.3855  2.6174
  673MOL0     H88799   7.571   1.706   3.168 -0.2884  2.5703  0.2810
  673MOL0     H88800   7.463   1.462   2.669  0.5226  1.2343  0.9812
  673MOL0     H88801   7.629   1.324   2.528 -1.6886 -1.0505 -0.2753
  673MOL0     H88802   7.888   1.011   2.717  0.1030  0.3137  0.6801
  673MOL0     H88803   7.939   1.171   2.703 -0.1456 -0.8984  1.7595
  673MOL0     H88804   8.066   1.052   2.545 -0.3995 -2.1010 -0.4600
  673MOL0     H88805   7.956   1.163   2.465  3.0544 -0.0774 -0.8775
  673MOL0     H88806   7.813   0.929   2.442  0.6610 -2.9576 -1.0669
  673MOL0     H88807   7.962   0.868   2.517 -3.9017  0.4183  4.2933
  673MOL0     H88808   8.014   1.040   2.279 -3.8398  1.7812  0.9777
  673MOL0     H88809   8.087   0.894   2.333  0.6897  2.4987  0.0456
  673MOL0     H88810   7.807   0.898   2.203 -1.3133 -1.9965  0.6955
  673MOL0     H88811   7.882   0.762   2.268 -1.3173  0.4741 -0.7686
  673MOL0     H88812   8.060   0.765   2.108 -1.6248 -0.8235  3.4819
  673MOL0     H88813   8.028   0.918   2.033  1.0792  2.4699  3.3678
  673MOL0     H88814   7.829   0.697   2.052  0.6182  1.0283  1.7296
  673MOL0     H88815   7.804   0.844   1.942 -1.8236 -1.3813 -0.8876
  673MOL0     H88816   7.873   0.667   1.817  1.5225 -1.1257 -0.9974
  673MOL0     H88817   8.025   0.636   1.905 -0.5039 -0.8285 -1.5001
  673MOL0     H88818   7.722   1.100   2.875 -1.9884 -1.2663 -0.9230
  673MOL0     H88819   7.563   1.233   3.010 -1.0395  5.2334  0.5272
  673MOL0     H88820   7.216   1.538   3.014  1.3290 -1.3321  0.2426
  673MOL0     H88821   7.081   1.697   3.168  0.4079 -0.3138 -0.1497
  673MOL0     H88822   8.571   1.738   3.644  2.3767  1.2025  5.0895
  673MOL0     H88823   8.732   1.611   3.505  0.1574  1.2565  0.2053
  673MOL0     H88824   8.764   1.169   3.191  0.0527 -0.2674  0.2518
  673MOL0     H88825   8.939   1.041   3.099 -0.6008 -2.1793  2.1590
  673MOL0     H88826   9.242   0.884   3.354 -2.2009  2.4265 -0.0406
  673MOL0     H88827   9.343   1.019   3.326  1.3621 -0.8712 -1.2501
  673MOL0     H88828   9.308   0.787   3.137  1.5736 -1.6142 -1.6747
  673MOL0     H88829   9.417   0.929   3.107  0.6826  0.5155  1.0138
  673MOL0     H88830   9.461   0.682   3.282  0.8843 -1.0162 -4.9434
  673MOL0     H88831   9.518   0.839   3.345 -3.1740 -0.7048  1.8580
  673MOL0     H88832   9.634   0.869   3.120 -0.5843 -0.6092 -1.5724
  673MOL0     H88833   9.706   0.742   3.211 -0.3100  1.3685  0.1040
  673MOL0     H88834   9.473   0.555   2.899 -1.0812 -0.7379  1.4348
  673MOL0     H88835   9.186   1.159   3.437  1.2495  0.3222 -1.0608
  673MOL0     H88836   9.004   1.298   3.518  1.2839 -1.3269  1.1442
  674MOL0     O88837   9.537   8.421   1.621  0.2406 -0.4103  0.2980
  674MOL0     C88838   9.452   8.467   1.547 -0.1142 -0.8021 -0.1596
  674MOL0     O88839   9.331   8.415   1.529 -0.1886 -0.4167 -0.1148
  674MOL0     C88840   9.295   8.293   1.575  0.7294  0.1655 -0.3581
  674MOL0     C88841   9.235   8.199   1.492  0.2988  0.1453  0.4593
  674MOL0     C88842   9.200   8.066   1.537  0.1141 -0.0446 -0.0739
  674MOL0     C88843   9.223   8.029   1.669 -0.5507  0.4439  0.4812
  674MOL0     O88844   9.186   7.899   1.715  0.0492 -0.4345 -0.5171
  674MOL0     C88845   9.155   7.907   1.859 -0.2488  0.1211 -0.1627
  674MOL0     C88846   9.102   7.782   1.920  0.1116  0.0877 -0.2204
  674MOL0     C88847   8.953   7.791   1.944 -0.0851  0.3199  0.7120
  674MOL0     C88848   8.919   7.876   2.066 -0.0708  0.9567  0.0173
  674MOL0     C88849   8.767   7.879   2.075 -0.1654 -0.2222  1.0496
  674MOL0     C88850   8.720   7.753   2.143 -0.4390 -0.5880  0.4343
  674MOL0     C88851   8.577   7.714   2.092 -0.0822 -0.2694  0.0028
  674MOL0     C88852   8.502   7.604   2.177  0.7722 -0.3040 -0.3200
  674MOL0     N88853   8.351   7.631   2.169 -1.3592  0.6874  0.0915
  674MOL0     C88854   8.273   7.693   2.264  0.2391  0.5848  0.4926
  674MOL0     C88855   8.147   7.692   2.225  0.0323 -0.3875  1.2849
  674MOL0     C88856   8.034   7.760   2.297  0.0946  0.2768 -0.0580
  674MOL0     C88857   8.014   7.907   2.267 -0.1654  0.7722  0.2563
  674MOL0     C88858   7.950   7.919   2.129 -0.4460 -0.4921  0.9023
  674MOL0     C88859   7.985   8.038   2.041  0.0669  0.5089  1.0186
  674MOL0     O88860   8.121   8.055   2.022 -0.1670  0.6826  0.5879
  674MOL0     C88861   8.158   8.152   1.933 -0.1956 -0.7394  1.7718
  674MOL0     C88862   8.285   8.189   1.933  0.0652  0.1308 -0.2121
  674MOL0     C88863   8.343   8.289   1.845  0.1601 -0.4655 -0.0113
  674MOL0     C88864   8.251   8.354   1.757 -0.1138  0.7024 -0.3381
  674MOL0     C88865   8.298   8.456   1.663  0.5730 -0.1736 -1.1328
  674MOL0     O88866   8.195   8.510   1.601  0.1364 -0.1258  0.6463
  674MOL0     C88867   8.203   8.644   1.580  0.9656 -0.3116 -0.8911
  674MOL0     C88868   8.278   8.688   1.467 -0.1118 -0.2781  0.6027
  674MOL0     C88869   8.277   8.833   1.442 -0.7356  0.0092 -0.9616
  674MOL0     C88870   8.205   8.914   1.527 -0.4096  0.8023 -0.6244
  674MOL0     O88871   8.194   9.053   1.509 -0.1406 -0.3588 -0.8224
  674MOL0     C88872   8.235   9.111   1.382 -0.5878  0.8235 -0.9152
  674MOL0     C88873   8.189   9.256   1.377 -0.0071 -0.8717  0.2892
  674MOL0     C88874   8.212   9.318   1.239  0.4205  0.1773  1.4796
  674MOL0     C88875   8.186   9.464   1.233  0.7728 -0.8086 -0.2447
  674MOL0     C88876   8.039   9.488   1.192  0.3205  1.1833  0.2645
  674MOL0     C88877   8.000   9.640   1.219  0.6755  0.5470 -0.6968
  674MOL0     C88878   7.848   9.649   1.247 -0.7111 -0.0138 -0.5564
  674MOL0     C88879   7.811   9.800   1.255  0.0009  0.8446  0.4958
  674MOL0    Cl88880   7.643   9.800   1.315 -0.1099  0.2907  0.4658
  674MOL0     C88881   8.155   8.864   1.654 -0.3947 -0.0854 -0.1210
  674MOL0     C88882   8.145   8.728   1.670 -0.6234 -0.1931 -0.3616
  674MOL0     O88883   8.410   8.506   1.674 -0.2235 -0.7910 -0.4564
  674MOL0     C88884   8.120   8.317   1.756  0.1773  1.2422 -0.0811
  674MOL0     C88885   8.069   8.218   1.846 -0.2237 -0.6568  0.5507
  674MOL0     N88886   8.151   7.624   2.107 -0.6099 -1.1462  0.4006
  674MOL0     N88887   8.274   7.590   2.065  0.2482 -0.0647 -0.3615
  674MOL0     C88888   9.287   8.128   1.752 -0.4289  0.2779  0.0406
  674MOL0     C88889   9.318   8.259   1.711  0.4446 -0.4218  0.0437
  674MOL0     C88890   9.497   8.592   1.473  0.1807 -0.0983 -0.2352
  674MOL0     C88891   9.405   8.655   1.387  1.0562  0.4019  0.9668
  674MOL0     C88892   9.430   8.776   1.325 -1.5575 -0.0835  0.0832
  674MOL0     C88893   9.556   8.837   1.351  0.4473 -0.6227 -0.4796
  674MOL0     O88894   9.591   8.959   1.286 -0.2695 -0.3281 -0.4085
  674MOL0     C88895   9.509   9.018   1.175  0.7166  0.3488 -0.3429
  674MOL0     C88896   9.510   9.172   1.184 -0.2488 -0.0011  0.7732
  674MOL0     C88897   9.648   9.221   1.132  0.1276 -0.1760  0.7422
  674MOL0     C88898   9.655   9.367   1.118 -0.4666 -0.2729 -0.5337
  674MOL0     C88899   9.545   9.424   1.035 -0.3031 -0.5034 -0.0359
  674MOL0     C88900   9.450   9.451   0.961  0.0272  0.5369 -0.8784
  674MOL0     C88901   9.654   8.774   1.422  0.3469  0.3008 -0.3463
  674MOL0     C88902   9.621   8.659   1.494  0.3192 -1.2592 -0.0944
  674MOL0     H88903   9.197   8.225   1.394 -2.3991 -0.5401  1.2239
  674MOL0     H88904   9.135   8.003   1.478 -1.2416  0.2660  1.0380
  674MOL0     H88905   9.092   7.987   1.897 -0.4651 -1.7674  3.9666
  674MOL0     H88906   9.252   7.910   1.908 -1.2451  3.0360  1.8962
  674MOL0     H88907   9.150   7.768   2.017  0.1746 -0.3668 -0.3156
  674MOL0     H88908   9.128   7.701   1.852  2.2338  1.0649 -0.6484
  674MOL0     H88909   8.943   7.684   1.962  1.0035  0.1047  0.1379
  674MOL0     H88910   8.905   7.837   1.857  1.5013  0.8265  0.0522
  674MOL0     H88911   8.966   7.828   2.153  2.8679 -1.4994 -2.6741
  674MOL0     H88912   8.949   7.980   2.057 -0.1414  0.9226 -0.6309
  674MOL0     H88913   8.720   7.903   1.979  1.4782 -1.5146 -0.1297
  674MOL0     H88914   8.742   7.962   2.143  2.0033  0.9014  0.5551
  674MOL0     H88915   8.732   7.767   2.251 -1.4538 -2.6724  0.8766
  674MOL0     H88916   8.780   7.662   2.131  0.4959 -0.3431  2.7690
  674MOL0     H88917   8.510   7.798   2.074 -1.6157 -1.9646 -2.7365
  674MOL0     H88918   8.582   7.678   1.989 -2.7213  3.0122 -1.4653
  674MOL0     H88919   8.538   7.619   2.279  1.2624  1.7416 -0.7502
  674MOL0     H88920   8.531   7.500   2.159  0.5710 -1.0313  2.8941
  674MOL0     H88921   8.313   7.738   2.355  3.0216  0.1123 -0.3800
  674MOL0     H88922   8.061   7.749   2.403 -0.2867 -0.9007 -0.0622
  674MOL0     H88923   7.940   7.710   2.273 -0.9125  1.9361  0.3391
  674MOL0     H88924   8.109   7.958   2.285  0.4038 -1.0010  2.8801
  674MOL0     H88925   7.948   7.946   2.346  2.5999 -1.2203  3.8496
  674MOL0     H88926   7.986   7.838   2.065 -1.1804  0.2050 -0.4430
  674MOL0     H88927   7.841   7.909   2.134 -0.5250  0.7208  2.5942
  674MOL0     H88928   7.944   8.123   2.097  1.0594  1.0833  0.9070
  674MOL0     H88929   7.927   8.027   1.949  1.1069 -1.5848  0.5479
  674MOL0     H88930   8.355   8.158   2.010  0.0928  2.2933  0.7323
  674MOL0     H88931   8.450   8.310   1.842 -0.3036  2.1605 -2.3017
  674MOL0     H88932   8.335   8.621   1.404  2.9728  2.2162  0.4724
  674MOL0     H88933   8.327   8.874   1.355 -0.0724  0.9074 -0.1774
  674MOL0     H88934   8.179   9.057   1.305  1.1746 -0.7836 -1.1512
  674MOL0     H88935   8.341   9.107   1.357 -0.7404 -3.3732 -1.6424
  674MOL0     H88936   8.249   9.319   1.443  1.2178  0.5839 -2.0535
  674MOL0     H88937   8.082   9.261   1.402  0.4400 -2.0889  2.7654
  674MOL0     H88938   8.150   9.271   1.162 -2.8121  4.2911  1.2593
  674MOL0     H88939   8.314   9.314   1.200  0.3266  1.8919  0.9825
  674MOL0     H88940   8.209   9.509   1.330  0.6422  1.2922 -1.1442
  674MOL0     H88941   8.246   9.511   1.154  1.5999 -0.8579  0.3420
  674MOL0     H88942   7.970   9.432   1.256 -0.0049  0.6625 -0.5226
  674MOL0     H88943   8.016   9.448   1.093  0.2488  3.1425 -0.5529
  674MOL0     H88944   8.027   9.706   1.135  1.6679 -1.7549 -2.3122
  674MOL0     H88945   8.052   9.692   1.300 -1.4529  2.5921 -0.5338
  674MOL0     H88946   7.794   9.595   1.169 -1.4618 -0.0767 -0.0141
  674MOL0     H88947   7.821   9.604   1.344 -1.1081 -2.8008 -1.8597
  674MOL0     H88948   7.813   9.849   1.157 -0.9623 -1.5816 -0.7999
  674MOL0     H88949   7.874   9.861   1.322  0.8187  0.8383 -0.2520
  674MOL0     H88950   8.124   8.943   1.720  3.2841 -0.2927  2.1115
  674MOL0     H88951   8.111   8.685   1.764  1.7336 -0.0121  0.6251
  674MOL0     H88952   8.036   8.357   1.701 -0.7611 -0.4214  0.0560
  674MOL0     H88953   7.964   8.202   1.826 -0.1218  0.6840 -1.3041
  674MOL0     H88954   9.319   8.117   1.855  2.3603 -1.2603 -0.9081
  674MOL0     H88955   9.357   8.328   1.786  0.5781 -1.2257  0.7218
  674MOL0     H88956   9.319   8.603   1.347  0.5911  1.6706  0.2588
  674MOL0     H88957   9.354   8.813   1.257 -2.5892 -1.3019  0.5369
  674MOL0     H88958   9.407   8.978   1.164  0.6959  0.6109 -1.1755
  674MOL0     H88959   9.556   8.991   1.080 -0.1567  1.9389 -1.2770
  674MOL0     H88960   9.425   9.200   1.120 -1.4741  0.3781  2.4915
  674MOL0     H88961   9.502   9.204   1.288  3.5874 -4.7692  2.9605
  674MOL0     H88962   9.663   9.179   1.032 -2.6889 -1.1452  0.6458
  674MOL0     H88963   9.727   9.184   1.199 -0.8812 -0.9770  1.5239
  674MOL0     H88964   9.658   9.414   1.216  1.1471 -3.7045  1.2563
  674MOL0     H88965   9.752   9.387   1.070  2.2536  0.4136  4.6019
  674MOL0     H88966   9.356   9.463   0.913 -1.5675  0.6523  2.0407
  674MOL0     H88967   9.753   8.819   1.423  0.0809  0.8921  0.8061
  674MOL0     H88968   9.690   8.626   1.570  0.8155  2.3208  1.1996
  675MOL0     O88969   0.289   8.979   5.416  0.1427 -0.3117 -0.9096
  675MOL0     C88970   0.268   9.103   5.407  0.4036  0.5986 -0.4396
  675MOL0     O88971   0.361   9.209   5.381 -0.1254  0.8590  0.7225
  675MOL0     C88972   0.500   9.196   5.401  0.6296 -0.3787  0.0920
  675MOL0     C88973   0.566   9.101   5.486 -1.3478  0.3393 -1.2638
  675MOL0     C88974   0.702   9.122   5.511 -0.6137 -0.4200  1.2954
  675MOL0     C88975   0.777   9.231   5.458  0.3527  0.3779  0.3797
  675MOL0     O88976   0.909   9.252   5.496  0.3670  0.5571 -0.2160
  675MOL0     C88977   0.968   9.370   5.450  0.3393  0.0852  0.5442
  675MOL0     C88978   1.108   9.407   5.498  0.6026 -0.0257 -0.3514
  675MOL0     C88979   1.209   9.301   5.519 -0.6280 -0.5099  0.7559
  675MOL0     C88980   1.344   9.345   5.547 -0.3982 -0.9011  1.3112
  675MOL0     C88981   1.450   9.239   5.575 -0.9337 -0.3240  0.3128
  675MOL0     C88982   1.497   9.165   5.450  0.6462  0.5540 -0.3185
  675MOL0     C88983   1.583   9.050   5.485 -0.0165 -0.2595 -0.5569
  675MOL0     C88984   1.641   8.971   5.364 -0.0981  0.5839  0.3350
  675MOL0     N88985   1.779   9.012   5.326  0.2874  0.8031  0.2850
  675MOL0     C88986   1.802   9.111   5.239 -0.7008  0.3601 -0.7736
  675MOL0     C88987   1.939   9.126   5.230  0.2339  0.0852 -0.8109
  675MOL0     C88988   2.006   9.227   5.135 -1.0250 -0.4532  0.4778
  675MOL0     C88989   2.043   9.157   5.007 -0.4330  0.4570  0.0225
  675MOL0     C88990   2.162   9.063   5.012  0.0734 -0.7058  0.8819
  675MOL0     C88991   2.181   8.989   4.874  0.3267  0.4768  0.0010
  675MOL0     O88992   2.087   8.874   4.843  0.0054 -0.8429 -0.9156
  675MOL0     C88993   2.054   8.869   4.708 -0.3505  0.3803  0.8347
  675MOL0     C88994   2.158   8.855   4.611  0.2571 -0.5808  0.1797
  675MOL0     C88995   2.130   8.851   4.473  0.6165 -0.1317  0.3690
  675MOL0     C88996   1.995   8.826   4.434  0.3320  0.0029 -0.5026
  675MOL0     C88997   1.972   8.790   4.292 -0.1019  0.9804  0.3607
  675MOL0     O88998   1.843   8.821   4.260  0.5631  0.7951  0.0768
  675MOL0     C88999   1.811   8.836   4.138 -0.6434  0.3587  0.7200
  675MOL0     C89000   1.884   8.913   4.044 -0.2113  0.7687  0.7934
  675MOL0     C89001   1.845   8.922   3.908 -0.0020  0.3014 -0.3335
  675MOL0     C89002   1.720   8.869   3.878  0.5253 -0.0150 -0.6156
  675MOL0     O89003   1.675   8.872   3.747 -0.0921 -0.2861  0.5566
  675MOL0     C89004   1.689   8.987   3.668 -0.5349  0.2712  0.2893
  675MOL0     C89005   1.701   8.945   3.518  0.3226  0.2151 -1.1579
  675MOL0     C89006   1.803   8.829   3.492 -0.6561  0.2190 -0.0772
  675MOL0     C89007   1.855   8.833   3.345 -0.1117  0.3978 -0.8240
  675MOL0     C89008   1.950   8.718   3.300  0.5690 -0.7319 -0.5211
  675MOL0     C89009   2.044   8.760   3.182 -0.4801  0.0146  0.8511
  675MOL0     C89010   1.978   8.832   3.064  0.8238 -0.2621  0.8589
  675MOL0     C89011   2.057   8.838   2.937  0.3246  0.5788  0.7274
  675MOL0    Cl89012   2.013   8.957   2.818 -0.3194 -0.5959  0.1319
  675MOL0     C89013   1.648   8.797   3.970 -0.0563 -0.1343 -0.5857
  675MOL0     C89014   1.689   8.787   4.099 -0.3607 -0.1240 -0.6694
  675MOL0     O89015   2.062   8.765   4.210  0.2071 -0.3182  0.3115
  675MOL0     C89016   1.893   8.824   4.533  0.5843  0.6795 -0.8387
  675MOL0     C89017   1.920   8.859   4.669  0.4323  0.0690 -0.1299
  675MOL0     N89018   1.996   9.055   5.333  0.5388  0.4084 -0.5288
  675MOL0     N89019   1.898   8.979   5.393  0.0948  0.7618  0.7612
  675MOL0     C89020   0.710   9.318   5.372  0.2916 -0.7865 -0.1104
  675MOL0     C89021   0.573   9.309   5.356  0.2838  0.0856 -0.5646
  675MOL0     C89022   0.125   9.136   5.420 -0.7412  1.0167  0.4045
  675MOL0     C89023   0.091   9.255   5.369 -0.6211 -0.5727 -0.4265
  675MOL0     C89024  -0.042   9.297   5.382 -0.1628 -0.1174 -0.1957
  675MOL0     C89025  -0.131   9.206   5.431  0.3268 -0.4088 -0.0458
  675MOL0     O89026  -0.266   9.221   5.416 -0.6579  0.4754 -0.5291
  675MOL0     C89027  -0.325   9.254   5.299 -0.3855  0.0671  0.2658
  675MOL0     C89028  -0.270   9.162   5.183  1.0420  0.9020  0.1799
  675MOL0     C89029  -0.317   9.009   5.200 -1.5697  0.7153  0.3683
  675MOL0     C89030  -0.470   8.999   5.193 -0.0403 -0.1966  0.7153
  675MOL0     C89031  -0.539   9.052   5.077  0.4941 -0.8137 -0.5744
  675MOL0     C89032  -0.602   9.116   4.997  0.1899  0.0563 -0.0396
  675MOL0     C89033  -0.092   9.077   5.480 -0.0374 -0.1330 -1.0723
  675MOL0     C89034   0.034   9.041   5.470  0.1825 -0.8113 -0.0508
  675MOL0     H89035   0.516   9.024   5.544  1.4754  0.5925  1.7857
  675MOL0     H89036   0.761   9.070   5.586  1.8503 -0.7806 -0.7364
  675MOL0     H89037   0.907   9.458   5.474  1.5990  0.9933  0.5263
  675MOL0     H89038   0.969   9.362   5.341  2.9093 -0.5473  0.5657
  675MOL0     H89039   1.110   9.463   5.591  0.4281  0.9840 -0.9476
  675MOL0     H89040   1.147   9.477   5.424  1.1219  1.5433  1.3378
  675MOL0     H89041   1.210   9.252   5.421 -0.0851  0.9218  0.0170
  675MOL0     H89042   1.176   9.226   5.592 -0.8142 -2.1541 -0.9244
  675MOL0     H89043   1.369   9.412   5.464 -1.1048 -1.6108  0.5166
  675MOL0     H89044   1.341   9.396   5.644  0.5752 -0.6081  1.1983
  675MOL0     H89045   1.398   9.172   5.645 -2.2374  0.7859  0.4343
  675MOL0     H89046   1.546   9.268   5.620 -0.4761 -3.9508  2.1163
  675MOL0     H89047   1.555   9.232   5.386 -0.0785 -1.9431 -3.8744
  675MOL0     H89048   1.408   9.125   5.401 -3.1202  1.8406  4.6329
  675MOL0     H89049   1.667   9.098   5.537  0.8429 -1.9303 -0.3202
  675MOL0     H89050   1.539   8.973   5.548  2.6029 -1.9517 -0.6057
  675MOL0     H89051   1.588   8.989   5.270  1.3453  1.1467 -0.3967
  675MOL0     H89052   1.639   8.862   5.376 -1.9411  0.1367 -2.9360
  675MOL0     H89053   1.730   9.168   5.182 -2.6836  0.2695  1.4336
  675MOL0     H89054   2.096   9.263   5.185 -1.7893  2.4660 -0.0555
  675MOL0     H89055   1.940   9.314   5.127 -0.9592  0.0449  3.7941
  675MOL0     H89056   2.037   9.231   4.927 -0.0560  3.4998  2.5759
  675MOL0     H89057   1.962   9.091   4.977 -2.2698  1.0217  3.2300
  675MOL0     H89058   2.252   9.121   5.036  0.1594 -0.4717  0.0446
  675MOL0     H89059   2.150   8.994   5.096  1.9650  0.0683  1.8688
  675MOL0     H89060   2.279   8.941   4.868  0.0537  0.0624 -1.3528
  675MOL0     H89061   2.185   9.062   4.793 -0.9610  0.0377 -0.4701
  675MOL0     H89062   2.260   8.864   4.648  0.3919 -0.4582 -0.2254
  675MOL0     H89063   2.213   8.873   4.406 -0.0672  2.7213  0.3383
  675MOL0     H89064   1.978   8.955   4.078  1.0432 -0.2995 -1.1924
  675MOL0     H89065   1.903   8.967   3.828 -0.4341 -0.0037 -0.8167
  675MOL0     H89066   1.772   9.057   3.685 -1.5240  1.6907 -0.5195
  675MOL0     H89067   1.599   9.043   3.694 -0.9517  0.1622 -0.8892
  675MOL0     H89068   1.748   9.032   3.472 -1.8572  1.3979 -1.2561
  675MOL0     H89069   1.604   8.929   3.469 -0.0831 -0.5314 -0.1483
  675MOL0     H89070   1.770   8.725   3.501 -0.4501  0.0797 -0.8927
  675MOL0     H89071   1.887   8.835   3.562 -0.9375 -2.2849  0.5780
  675MOL0     H89072   1.770   8.817   3.278 -0.6684 -2.0104  0.3456
  675MOL0     H89073   1.901   8.929   3.321  0.5187 -0.0385 -1.3945
  675MOL0     H89074   1.890   8.630   3.276 -0.6458 -0.2589  0.6548
  675MOL0     H89075   2.014   8.679   3.380 -0.4572 -1.0034  0.1952
  675MOL0     H89076   2.074   8.658   3.156  0.6921  0.3890  0.6915
  675MOL0     H89077   2.129   8.815   3.224 -0.2954 -1.0721  1.9524
  675MOL0     H89078   1.882   8.785   3.043  0.0358  0.6985  2.1379
  675MOL0     H89079   1.959   8.935   3.097  0.5266  0.3562 -1.1004
  675MOL0     H89080   2.058   8.737   2.896  0.4054  0.0211  2.0520
  675MOL0     H89081   2.163   8.854   2.960  0.4420  1.7820 -0.5046
  675MOL0     H89082   1.557   8.743   3.944 -0.9252  0.3536  1.2587
  675MOL0     H89083   1.636   8.717   4.164 -1.6646 -1.6903 -3.2478
  675MOL0     H89084   1.795   8.790   4.500  0.3264  1.4650 -0.9013
  675MOL0     H89085   1.856   8.877   4.755  0.8398 -0.1419  0.2268
  675MOL0     H89086   0.751   9.407   5.326 -0.0852 -0.4385  0.2276
  675MOL0     H89087   0.524   9.390   5.303 -1.9526  0.4197  1.7962
  675MOL0     H89088   0.165   9.319   5.322  0.8644 -1.6111  0.4192
  675MOL0     H89089  -0.081   9.389   5.341  1.1759  1.3298  1.6004
  675MOL0     H89090  -0.298   9.358   5.280  1.7538 -0.0023  2.3696
  675MOL0     H89091  -0.434   9.244   5.300 -0.3975  0.2386  0.6227
  675MOL0     H89092  -0.321   9.199   5.093 -4.5714 -0.7742  2.2323
  675MOL0     H89093  -0.161   9.169   5.178  0.9747  1.3123 -1.9679
  675MOL0     H89094  -0.271   8.966   5.289  2.8088 -5.7171 -4.0791
  675MOL0     H89095  -0.273   8.953   5.117  2.0673  0.7703  2.1130
  675MOL0     H89096  -0.497   8.893   5.191 -0.6406 -0.0520  1.2164
  675MOL0     H89097  -0.510   9.041   5.285  0.3752  0.7160  0.4878
  675MOL0     H89098  -0.665   9.181   4.941  1.3933  0.8049 -0.5735
  675MOL0     H89099  -0.163   9.008   5.525  0.0863  0.7132  0.5184
  675MOL0     H89100   0.071   8.943   5.498  4.3869  0.5425 -0.0955
  676MOL0     O89101   0.464   4.935  10.617  0.3187  1.0069 -1.1650
  676MOL0     C89102   0.371   4.861  10.657  0.0655  0.4256 -0.2300
  676MOL0     O89103   0.292   4.794  10.568  0.4564  0.5470  0.3164
  676MOL0     C89104   0.305   4.806  10.438  0.3509 -0.9052  1.0699
  676MOL0     C89105   0.254   4.913  10.373 -0.4369  0.7671  0.8527
  676MOL0     C89106   0.259   4.922  10.230  0.4463 -0.1972  1.1098
  676MOL0     C89107   0.315   4.816  10.153  0.6032 -0.4559 -0.7632
  676MOL0     O89108   0.317   4.796  10.012  0.1461 -0.8911  0.2496
  676MOL0     C89109   0.213   4.853   9.929 -0.7513 -0.7481 -0.3655
  676MOL0     C89110   0.292   4.888   9.804  0.7740  0.7530  0.3433
  676MOL0     C89111   0.395   4.991   9.832 -1.6250 -0.0698 -0.2307
  676MOL0     C89112   0.463   5.011   9.702  0.1204  0.4735  0.2672
  676MOL0     C89113   0.553   5.131   9.720  0.3351  0.0872 -0.2436
  676MOL0     C89114   0.617   5.175   9.582 -0.6757 -0.1054 -0.6049
  676MOL0     C89115   0.705   5.299   9.623  0.0800  0.0050 -0.0321
  676MOL0     C89116   0.794   5.347   9.508  0.0411 -0.2583 -0.0050
  676MOL0     N89117   0.883   5.467   9.541  0.0670  0.3285  0.2952
  676MOL0     C89118   0.866   5.591   9.485 -0.1631  0.9677  0.6990
  676MOL0     C89119   0.943   5.674   9.552  0.4455 -0.0479  1.5155
  676MOL0     C89120   0.921   5.820   9.540  0.0405 -0.8008  0.4472
  676MOL0     C89121   0.952   5.893   9.668  1.2210  0.4434  0.1613
  676MOL0     C89122   0.989   6.038   9.625 -0.0313  0.3235 -0.4891
  676MOL0     C89123   1.038   6.141   9.729 -0.3034  0.7158  1.2869
  676MOL0     O89124   1.029   6.273   9.681 -0.2928 -0.2681  0.2010
  676MOL0     C89125   1.145   6.335   9.655  0.6222 -0.4433 -0.7563
  676MOL0     C89126   1.156   6.461   9.726 -0.9058 -0.7732  0.5394
  676MOL0     C89127   1.265   6.537   9.696 -0.5235 -0.1169 -0.1887
  676MOL0     C89128   1.366   6.488   9.607  0.4936 -1.1189 -1.1047
  676MOL0     C89129   1.490   6.568   9.575 -0.9827 -0.5141  0.3877
  676MOL0     O89130   1.566   6.515   9.475 -0.2597 -0.3273 -0.8604
  676MOL0     C89131   1.663   6.599   9.429  0.3859  0.0433 -0.6313
  676MOL0     C89132   1.665   6.632   9.298  0.5225  0.5452 -0.8084
  676MOL0     C89133   1.766   6.711   9.243 -0.2367 -0.1943 -0.9610
  676MOL0     C89134   1.873   6.769   9.317 -0.4677  0.8731  0.9506
  676MOL0     O89135   1.973   6.846   9.267 -0.4904  0.0041 -0.2947
  676MOL0     C89136   1.927   6.962   9.189 -0.2405 -0.8579  0.0488
  676MOL0     C89137   2.027   6.988   9.080 -0.1706  0.3446 -0.3746
  676MOL0     C89138   2.005   6.904   8.958  0.7192  0.0913  0.5909
  676MOL0     C89139   2.071   6.964   8.832  0.5854  0.3499 -0.8209
  676MOL0     C89140   2.123   6.876   8.715  0.4089  0.7897 -0.1747
  676MOL0     C89141   2.018   6.804   8.640 -0.0737  0.2677  0.3441
  676MOL0     C89142   2.058   6.750   8.506 -0.1394  0.6447 -0.4626
  676MOL0     C89143   2.106   6.857   8.401 -0.0567 -0.6525  0.0857
  676MOL0    Cl89144   1.982   6.975   8.383  0.1228 -0.6195 -0.1487
  676MOL0     C89145   1.866   6.733   9.453  1.2470  0.3861 -0.1758
  676MOL0     C89146   1.763   6.651   9.511 -0.3769 -0.5333  0.8065
  676MOL0     O89147   1.503   6.676   9.633 -0.7947 -0.2485 -0.1591
  676MOL0     C89148   1.355   6.358   9.553 -0.3102 -1.0962 -0.2831
  676MOL0     C89149   1.241   6.288   9.576  0.2160  0.3371  1.2507
  676MOL0     N89150   1.030   5.607   9.640  0.3629  0.0418  0.6702
  676MOL0     N89151   0.985   5.480   9.630  0.0473  0.1510 -0.3746
  676MOL0     C89152   0.373   4.714  10.228  0.4062  0.4351  0.0410
  676MOL0     C89153   0.371   4.706  10.365  0.0019  0.0930  0.0599
  676MOL0     C89154   0.360   4.824  10.795  0.8805  0.7557 -0.0092
  676MOL0     C89155   0.409   4.901  10.903 -0.0817  0.4466 -0.6019
  676MOL0     C89156   0.396   4.845  11.032 -1.0632  0.3506  0.0682
  676MOL0     C89157   0.329   4.728  11.069  1.1526 -0.1805 -0.1337
  676MOL0     O89158   0.333   4.694  11.206 -0.0566 -0.1143 -0.0884
  676MOL0     C89159   0.282   4.571  11.257 -0.6257 -0.4885 -0.0249
  676MOL0     C89160   0.348   4.442  11.201  0.0898  0.1750 -0.6741
  676MOL0     C89161   0.376   4.353  11.333  0.6911  0.2013  0.5082
  676MOL0     C89162   0.250   4.317  11.421  1.1345  0.8381  0.9061
  676MOL0     C89163   0.130   4.276  11.344 -0.2524 -0.4076 -0.4603
  676MOL0     C89164   0.025   4.244  11.289 -0.4379 -0.5695  0.2896
  676MOL0     C89165   0.266   4.655  10.963 -0.0500 -0.2350  0.6024
  676MOL0     C89166   0.284   4.704  10.827  0.0962 -0.3640 -0.3057
  676MOL0     H89167   0.211   4.999  10.425 -0.1028 -0.0499  2.5578
  676MOL0     H89168   0.193   4.990  10.179  0.7699  0.6020  1.7365
  676MOL0     H89169   0.152   4.934   9.970 -1.5346 -0.7074 -1.5593
  676MOL0     H89170   0.136   4.778   9.905  2.6917 -4.5107 -0.7342
  676MOL0     H89171   0.226   4.925   9.725 -1.9503 -1.9010  1.1943
  676MOL0     H89172   0.340   4.801   9.757  1.2937  0.8141  0.7496
  676MOL0     H89173   0.467   4.956   9.906 -0.8587  4.0983  1.2539
  676MOL0     H89174   0.349   5.081   9.875  0.2843  0.8118  0.0881
  676MOL0     H89175   0.515   4.920   9.672  0.3872  0.4810  0.6972
  676MOL0     H89176   0.385   5.040   9.632 -0.8249 -0.3057  0.9810
  676MOL0     H89177   0.635   5.111   9.788 -1.6734  0.3077  2.4084
  676MOL0     H89178   0.497   5.218   9.756 -1.7059 -0.9155 -0.7964
  676MOL0     H89179   0.531   5.200   9.518 -1.9020 -2.2645  0.0926
  676MOL0     H89180   0.683   5.100   9.536  0.1833  0.8163 -0.9023
  676MOL0     H89181   0.650   5.385   9.661 -1.0527  0.5130 -2.6095
  676MOL0     H89182   0.766   5.272   9.710  2.6421 -1.6624 -2.1542
  676MOL0     H89183   0.725   5.372   9.427  0.2645 -3.6571 -1.4013
  676MOL0     H89184   0.858   5.266   9.473  1.9616 -0.1530  2.8981
  676MOL0     H89185   0.797   5.621   9.407 -0.9607 -3.1002 -0.3852
  676MOL0     H89186   0.815   5.840   9.528  0.5610  2.5225  0.3815
  676MOL0     H89187   0.984   5.849   9.455 -1.2524  1.7717  0.2826
  676MOL0     H89188   1.030   5.847   9.729  1.5393 -1.0804 -1.3314
  676MOL0     H89189   0.859   5.905   9.724 -0.4734  2.0180 -2.7560
  676MOL0     H89190   1.070   6.030   9.552 -0.6567  1.6206 -1.3566
  676MOL0     H89191   0.903   6.068   9.566 -1.9155 -3.2803  0.1624
  676MOL0     H89192   1.144   6.123   9.750 -0.0259 -2.4181 -1.8795
  676MOL0     H89193   0.971   6.121   9.813 -0.7335 -3.3296  0.1683
  676MOL0     H89194   1.089   6.498   9.803 -0.4252  2.8303 -0.6005
  676MOL0     H89195   1.273   6.635   9.742 -0.7610  0.9592 -2.3033
  676MOL0     H89196   1.611   6.565   9.231  1.4346 -2.8260  1.5230
  676MOL0     H89197   1.763   6.735   9.137  0.3475  1.4619 -0.6391
  676MOL0     H89198   1.919   7.048   9.255 -0.9158 -1.7228  1.1314
  676MOL0     H89199   1.830   6.941   9.142 -1.3631 -1.6261  2.5329
  676MOL0     H89200   2.127   6.970   9.121 -0.3190 -1.0510 -0.5740
  676MOL0     H89201   2.020   7.092   9.049  1.8184  0.2315 -1.3662
  676MOL0     H89202   1.898   6.898   8.936  0.3861  1.1552  1.8201
  676MOL0     H89203   2.039   6.803   8.979 -1.2151 -1.8878 -4.3010
  676MOL0     H89204   1.985   7.018   8.790  0.0824  3.2516  3.3040
  676MOL0     H89205   2.149   7.033   8.864 -0.1039  1.5742 -1.6342
  676MOL0     H89206   2.185   6.798   8.760  1.3965  0.7993 -1.4656
  676MOL0     H89207   2.167   6.942   8.639  1.5031  0.2019 -0.0793
  676MOL0     H89208   1.947   6.885   8.616  2.3270  2.1680 -0.7594
  676MOL0     H89209   1.984   6.720   8.701 -0.6890 -0.6838 -1.2543
  676MOL0     H89210   2.141   6.682   8.523 -0.0046  0.5179 -1.5792
  676MOL0     H89211   1.978   6.683   8.471  0.9778 -2.4647  2.4651
  676MOL0     H89212   2.129   6.801   8.310  2.3546  1.5047 -0.7184
  676MOL0     H89213   2.202   6.898   8.433  1.4469 -2.6894 -1.5118
  676MOL0     H89214   1.941   6.776   9.517  0.6584  1.0787  0.0633
  676MOL0     H89215   1.766   6.637   9.619  0.6135 -2.1484  0.5945
  676MOL0     H89216   1.440   6.324   9.495 -0.4608 -0.3592 -0.9525
  676MOL0     H89217   1.233   6.190   9.530 -0.0469  0.1128  1.7791
  676MOL0     H89218   0.419   4.638  10.166 -0.1593  0.0688  0.0653
  676MOL0     H89219   0.409   4.622  10.423 -2.2065  0.8390  2.8233
  676MOL0     H89220   0.457   4.996  10.879  2.9106 -1.0627 -1.1191
  676MOL0     H89221   0.430   4.905  11.116 -1.0075  1.0554 -0.4506
  676MOL0     H89222   0.176   4.565  11.230  0.0684 -4.0626 -2.7469
  676MOL0     H89223   0.294   4.574  11.366  2.5380  0.0409 -0.3086
  676MOL0     H89224   0.279   4.394  11.131  0.5207 -0.3230 -0.7577
  676MOL0     H89225   0.439   4.473  11.149  0.2859  1.8123  0.5241
  676MOL0     H89226   0.453   4.398  11.397  0.2584  0.7391  0.6612
  676MOL0     H89227   0.424   4.265  11.290  2.8669  1.4417  0.2370
  676MOL0     H89228   0.275   4.237  11.492 -2.2226  0.4087  1.7765
  676MOL0     H89229   0.209   4.400  11.478 -2.3697 -1.0194  1.3908
  676MOL0     H89230  -0.054   4.206  11.227  1.2453 -1.1501 -1.6194
  676MOL0     H89231   0.212   4.562  10.979  1.3315 -1.0604  0.6010
  676MOL0     H89232   0.246   4.647  10.743 -0.5577  2.3201 -1.9584
  677MOL0     O89233   0.077   5.902   2.262 -0.3574  0.3634  0.3471
  677MOL0     C89234   0.045   5.789   2.277 -0.1902  0.0089  1.1826
  677MOL0     O89235  -0.087   5.734   2.288  0.0420 -0.9300  0.6430
  677MOL0     C89236  -0.182   5.824   2.303  0.4991  0.0285  1.0505
  677MOL0     C89237  -0.251   5.846   2.425  0.4721 -0.6216  0.2784
  677MOL0     C89238  -0.348   5.953   2.444 -0.0659  0.3747  0.4812
  677MOL0     C89239  -0.379   6.039   2.329 -0.2262 -0.5406  0.8173
  677MOL0     O89240  -0.457   6.155   2.352  0.0704 -0.4466  0.0485
  677MOL0     C89241  -0.522   6.214   2.235 -0.0593 -0.2386  0.4052
  677MOL0     C89242  -0.657   6.294   2.269  0.0657 -0.7300 -0.1925
  677MOL0     C89243  -0.661   6.428   2.184  0.1527  0.4605 -0.3939
  677MOL0     C89244  -0.782   6.514   2.216 -0.8689 -0.5583 -0.0228
  677MOL0     C89245  -0.770   6.628   2.108  0.1628  0.1418 -0.2210
  677MOL0     C89246  -0.887   6.734   2.101  0.3108 -0.6546 -0.3887
  677MOL0     C89247  -0.912   6.790   1.963 -0.0320  1.0708 -0.0051
  677MOL0     C89248  -0.821   6.917   1.932  0.0039  0.7239 -0.9858
  677MOL0     N89249  -0.828   7.023   2.031 -0.4572 -0.0680  0.3734
  677MOL0     C89250  -0.931   7.119   2.038 -0.2907  0.3292 -0.3938
  677MOL0     C89251  -0.904   7.198   2.146 -0.8975 -0.7741  0.1314
  677MOL0     C89252  -0.977   7.301   2.226  1.0003 -1.3237 -0.3298
  677MOL0     C89253  -0.999   7.248   2.371  0.1598 -0.6998 -0.4678
  677MOL0     C89254  -1.039   7.353   2.468  0.1875  0.5680  0.6874
  677MOL0     C89255  -1.059   7.296   2.608 -0.4231 -0.6011  0.0480
  677MOL0     O89256  -1.105   7.395   2.704  0.1667  0.8521  0.1256
  677MOL0     C89257  -1.092   7.364   2.839 -0.6416 -0.3613  0.5464
  677MOL0     C89258  -1.048   7.248   2.895  0.4296 -0.5262 -0.2837
  677MOL0     C89259  -1.045   7.225   3.037 -0.9249  0.2798 -0.2261
  677MOL0     C89260  -1.060   7.332   3.128 -0.6374 -0.2780  0.4605
  677MOL0     C89261  -1.065   7.320   3.275  0.4008 -0.1586 -0.2740
  677MOL0     O89262  -1.051   7.186   3.327  0.5298 -0.5533  0.0745
  677MOL0     C89263  -1.092   7.147   3.457  0.4741 -1.1577  0.8098
  677MOL0     C89264  -1.020   7.041   3.508 -0.3210  0.0303 -0.0695
  677MOL0     C89265  -1.056   6.996   3.635  0.5035 -0.8899 -1.9250
  677MOL0     C89266  -1.152   7.055   3.710 -0.1824 -0.5201  0.0357
  677MOL0     O89267  -1.171   6.993   3.828  1.0284  0.3836 -0.6589
  677MOL0     C89268  -1.148   7.065   3.946  0.2123  0.5059 -0.5321
  677MOL0     C89269  -1.209   6.996   4.063  1.0130 -0.0017 -0.3321
  677MOL0     C89270  -1.151   7.052   4.190  0.6370  0.2412 -0.3660
  677MOL0     C89271  -1.143   7.202   4.215 -0.4396  0.0563 -0.3285
  677MOL0     C89272  -1.132   7.238   4.373  0.8489  0.3910  0.8942
  677MOL0     C89273  -1.124   7.390   4.377  0.2597  0.3260  0.7406
  677MOL0     C89274  -1.085   7.445   4.510 -0.7377  0.1559 -0.4728
  677MOL0     C89275  -1.126   7.371   4.637  0.0784 -0.1348 -0.3452
  677MOL0    Cl89276  -1.304   7.371   4.653  0.2757  0.0440  0.1869
  677MOL0     C89277  -1.229   7.163   3.652 -0.1839 -0.0553 -0.4012
  677MOL0     C89278  -1.203   7.201   3.522 -0.8578  0.0850 -0.1098
  677MOL0     O89279  -1.103   7.412   3.333 -0.4298 -1.0443 -1.0116
  677MOL0     C89280  -1.075   7.459   3.074  0.1935 -0.2390 -0.6235
  677MOL0     C89281  -1.106   7.466   2.930 -0.0587 -0.0498 -0.4921
  677MOL0     N89282  -0.776   7.160   2.188  0.2103  0.7007 -0.2010
  677MOL0     N89283  -0.730   7.059   2.126  0.5406 -0.0661 -0.4617
  677MOL0     C89284  -0.318   5.997   2.207  0.0458  0.2596 -0.2987
  677MOL0     C89285  -0.219   5.902   2.193  0.3106 -0.7065  0.1204
  677MOL0     C89286   0.151   5.689   2.282  0.5511  0.2272 -0.5308
  677MOL0     C89287   0.129   5.553   2.249  0.5353 -0.7381  0.2946
  677MOL0     C89288   0.238   5.471   2.223 -0.0867  0.4522  0.9687
  677MOL0     C89289   0.367   5.521   2.213 -0.6021 -0.0540  0.0317
  677MOL0     O89290   0.475   5.443   2.163  0.1089 -0.6381  0.3581
  677MOL0     C89291   0.461   5.300   2.163  0.0125  0.4429  0.3219
  677MOL0     C89292   0.600   5.243   2.133 -0.3834  0.0124 -0.0345
  677MOL0     C89293   0.673   5.175   2.249  0.0045  0.3133 -0.3682
  677MOL0     C89294   0.707   5.262   2.368 -1.0687 -0.6940 -0.8351
  677MOL0     C89295   0.801   5.377   2.339  0.4631 -0.5683  0.4067
  677MOL0     C89296   0.876   5.453   2.289  0.4557 -0.2041  1.0818
  677MOL0     C89297   0.388   5.652   2.263  0.2470  0.1715 -0.3084
  677MOL0     C89298   0.282   5.737   2.286 -0.3606 -0.4861  0.2844
  677MOL0     H89299  -0.223   5.775   2.502 -1.1645  1.2446  2.7808
  677MOL0     H89300  -0.382   5.978   2.544  1.2862  4.6479  0.0923
  677MOL0     H89301  -0.551   6.131   2.170  0.4306  0.8056 -1.1897
  677MOL0     H89302  -0.461   6.272   2.166 -0.2459 -0.5881 -0.0562
  677MOL0     H89303  -0.671   6.319   2.375 -2.5711 -0.5188 -0.5352
  677MOL0     H89304  -0.738   6.224   2.249  0.7977 -1.3141 -1.1739
  677MOL0     H89305  -0.663   6.399   2.078 -2.4077  0.8194 -0.5125
  677MOL0     H89306  -0.569   6.486   2.193  0.7244 -0.1431 -2.0886
  677MOL0     H89307  -0.875   6.461   2.194  0.0279 -1.2359 -2.5446
  677MOL0     H89308  -0.785   6.540   2.322  0.8304 -2.0607  0.4608
  677MOL0     H89309  -0.764   6.572   2.015  3.6799  0.4982 -0.3568
  677MOL0     H89310  -0.679   6.687   2.128 -0.5862  1.7470 -1.2928
  677MOL0     H89311  -0.862   6.817   2.167 -0.4887  1.0919 -2.2017
  677MOL0     H89312  -0.981   6.696   2.140  0.9391 -2.2780 -0.3695
  677MOL0     H89313  -0.887   6.722   1.881  0.4363  2.0793 -0.7174
  677MOL0     H89314  -1.019   6.811   1.953 -1.2513 -3.5750  1.1944
  677MOL0     H89315  -0.855   6.953   1.834  0.9247  0.7163 -1.3204
  677MOL0     H89316  -0.717   6.885   1.920 -0.4556 -0.3778 -2.4557
  677MOL0     H89317  -1.021   7.129   1.979 -1.2231 -0.1764  0.8978
  677MOL0     H89318  -1.073   7.325   2.178  0.1413 -0.7636  1.5630
  677MOL0     H89319  -0.912   7.389   2.228 -0.0215 -0.5368 -0.6889
  677MOL0     H89320  -0.898   7.219   2.399  0.7622  0.7772 -1.0047
  677MOL0     H89321  -1.069   7.163   2.372 -3.2544  1.8990  0.0456
  677MOL0     H89322  -0.959   7.428   2.476 -0.9133  1.8352  0.2579
  677MOL0     H89323  -1.132   7.406   2.443 -1.3000 -1.2577  2.0416
  677MOL0     H89324  -0.961   7.255   2.634  1.1400  3.1967  0.8438
  677MOL0     H89325  -1.136   7.221   2.587 -1.3963  0.3188  0.2582
  677MOL0     H89326  -1.024   7.168   2.827  0.0222 -0.8075 -0.1039
  677MOL0     H89327  -1.028   7.125   3.075 -1.2526  0.9499  1.8365
  677MOL0     H89328  -0.939   6.996   3.450 -0.3897  0.3164 -0.3935
  677MOL0     H89329  -1.008   6.912   3.685  2.4678  0.1438 -2.0060
  677MOL0     H89330  -1.174   7.171   3.935  2.6234  1.2706  0.5857
  677MOL0     H89331  -1.041   7.070   3.964  0.2030  0.7188 -0.5290
  677MOL0     H89332  -1.195   6.887   4.069  1.2297  0.0708  0.9364
  677MOL0     H89333  -1.316   7.017   4.071  1.4730  1.7914  2.3396
  677MOL0     H89334  -1.046   7.020   4.196 -0.0467 -2.0307  3.4973
  677MOL0     H89335  -1.206   7.016   4.278  0.8308  1.6387  0.3589
  677MOL0     H89336  -1.058   7.246   4.161  1.7418 -0.7737  2.1912
  677MOL0     H89337  -1.237   7.240   4.174 -0.0394 -0.4534 -1.7960
  677MOL0     H89338  -1.041   7.190   4.410 -0.0442 -1.4281  0.8141
  677MOL0     H89339  -1.214   7.209   4.440 -1.1365  0.9830 -1.1773
  677MOL0     H89340  -1.220   7.431   4.345  1.6925  1.1752 -2.9994
  677MOL0     H89341  -1.052   7.433   4.308  0.5188 -0.4998  0.4813
  677MOL0     H89342  -0.976   7.452   4.515 -0.8694  1.2978  2.8370
  677MOL0     H89343  -1.130   7.545   4.510 -4.1156 -1.2196 -1.2901
  677MOL0     H89344  -1.085   7.440   4.711  3.5753  0.1350 -2.2854
  677MOL0     H89345  -1.083   7.271   4.649  1.0128  0.1884 -0.8785
  677MOL0     H89346  -1.319   7.206   3.695 -0.4501  2.0486 -2.8273
  677MOL0     H89347  -1.268   7.267   3.465 -0.6910 -0.3569 -0.8336
  677MOL0     H89348  -1.083   7.555   3.125  1.1216  0.4092 -1.6454
  677MOL0     H89349  -1.126   7.560   2.879  1.1866  2.0670  2.5732
  677MOL0     H89350  -0.335   6.051   2.114 -1.0136  0.0197 -0.2611
  677MOL0     H89351  -0.163   5.883   2.102  1.7437 -3.7414  1.4849
  677MOL0     H89352   0.025   5.521   2.253  1.1446 -3.0046 -0.3095
  677MOL0     H89353   0.210   5.378   2.176  2.0725  0.2611 -0.0393
  677MOL0     H89354   0.391   5.280   2.082  0.5457 -0.3575  0.0473
  677MOL0     H89355   0.423   5.243   2.249  1.2934  1.3384  1.5295
  677MOL0     H89356   0.596   5.165   2.056  0.4844 -1.0659  0.9768
  677MOL0     H89357   0.668   5.316   2.089  0.7881 -0.4787  0.9198
  677MOL0     H89358   0.763   5.125   2.213 -0.6033  0.5108 -2.2939
  677MOL0     H89359   0.603   5.095   2.278 -0.7198  0.4044 -1.7722
  677MOL0     H89360   0.615   5.305   2.410  0.5520  1.6584  0.5587
  677MOL0     H89361   0.764   5.205   2.443 -1.5371 -0.0265  0.0473
  677MOL0     H89362   0.937   5.527   2.242 -0.0791  1.2590  2.5983
  677MOL0     H89363   0.485   5.700   2.255  0.8603 -0.7050  1.4478
  677MOL0     H89364   0.311   5.837   2.316  1.1259 -1.1105  0.9783
  678MOL0     O89365   8.292   9.267   5.102  0.3266  0.9231 -0.0879
  678MOL0     C89366   8.266   9.253   4.981  0.6596 -0.2973 -0.4606
  678MOL0     O89367   8.347   9.220   4.881  0.6710  0.2008 -0.7712
  678MOL0     C89368   8.477   9.184   4.917  0.4251  1.1945 -0.7245
  678MOL0     C89369   8.509   9.055   4.954 -0.0074  0.1777  0.6055
  678MOL0     C89370   8.640   9.020   4.986 -0.0837 -0.8237 -0.2934
  678MOL0     C89371   8.748   9.112   4.969 -0.0807 -0.3865  0.2195
  678MOL0     O89372   8.870   9.080   4.999  0.0923  0.6182  0.0424
  678MOL0     C89373   8.979   9.113   4.912 -0.4629  0.0954 -0.5449
  678MOL0     C89374   9.028   8.982   4.842 -1.1704  0.3299 -0.6556
  678MOL0     C89375   9.095   8.897   4.950 -0.4157  1.0252  1.1083
  678MOL0     C89376   9.158   8.784   4.875  0.3201  0.0853  0.7519
  678MOL0     C89377   9.207   8.660   4.949  0.4893  0.4242  1.0199
  678MOL0     C89378   9.286   8.693   5.079 -0.0552  0.3741 -0.3608
  678MOL0     C89379   9.371   8.573   5.124  0.1731 -0.0417  0.7483
  678MOL0     C89380   9.282   8.455   5.177 -0.9176  0.1315  0.0512
  678MOL0     N89381   9.376   8.349   5.230 -0.9942  0.7840 -0.0494
  678MOL0     C89382   9.415   8.240   5.158 -0.1584  0.7172  0.6889
  678MOL0     C89383   9.518   8.182   5.227  0.1366 -0.2053 -0.9984
  678MOL0     C89384   9.593   8.062   5.175  0.1315  0.1445  0.4025
  678MOL0     C89385   9.697   8.105   5.074  0.4856  1.1096  0.9948
  678MOL0     C89386   9.752   8.001   4.989 -0.0959 -0.3315  0.4710
  678MOL0     C89387   9.899   8.037   4.956  0.5230  0.7393  0.0233
  678MOL0     O89388   9.912   8.165   4.892  0.2508 -0.5884 -0.2314
  678MOL0     C89389   9.868   8.180   4.757 -0.3507  0.5830  0.0565
  678MOL0     C89390   9.816   8.083   4.678 -0.0851 -0.3667 -0.5351
  678MOL0     C89391   9.784   8.100   4.537 -0.9211  0.2326  0.0124
  678MOL0     C89392   9.815   8.222   4.481  0.2661 -0.5853  0.7181
  678MOL0     C89393   9.787   8.249   4.343  0.0066  0.7238  0.5615
  678MOL0     O89394   9.728   8.155   4.260 -0.1400  0.2269  0.4625
  678MOL0     C89395   9.713   8.171   4.121  2.1809 -0.5652  0.1561
  678MOL0     C89396   9.642   8.077   4.049  0.3321  0.6196  0.6404
  678MOL0     C89397   9.610   8.080   3.912 -1.0791  0.2698 -0.9195
  678MOL0     C89398   9.658   8.185   3.837 -0.7451  0.2803  0.5268
  678MOL0     O89399   9.632   8.183   3.705 -0.1389  0.2633  0.3333
  678MOL0     C89400   9.647   8.311   3.635 -1.0535 -0.0596  0.3869
  678MOL0     C89401   9.589   8.304   3.494 -0.6281 -0.4398 -0.2843
  678MOL0     C89402   9.434   8.265   3.478  0.1765 -0.2232 -0.3536
  678MOL0     C89403   9.394   8.195   3.347 -0.2218  0.0343 -0.3131
  678MOL0     C89404   9.467   8.059   3.330  2.1451  0.4191  0.2051
  678MOL0     C89405   9.417   7.986   3.201  0.5530  0.2529  0.3581
  678MOL0     C89406   9.483   7.845   3.198 -0.1598 -0.4918  0.5267
  678MOL0     C89407   9.387   7.735   3.166  0.1894 -0.5737 -0.6474
  678MOL0    Cl89408   9.493   7.601   3.194  0.3942  0.4198  0.3261
  678MOL0     C89409   9.736   8.286   3.900 -0.1016  0.1717  0.3529
  678MOL0     C89410   9.769   8.271   4.036 -0.3062 -0.9699  0.5127
  678MOL0     O89411   9.804   8.364   4.310  0.2919  0.6393  0.1190
  678MOL0     C89412   9.861   8.327   4.563  0.3319  0.0772  0.5925
  678MOL0     C89413   9.887   8.302   4.690 -0.4796  0.5344 -0.1922
  678MOL0     N89414   9.536   8.262   5.345 -0.2611  0.7372 -0.7656
  678MOL0     N89415   9.440   8.356   5.349 -0.2836 -0.0373  0.2073
  678MOL0     C89416   8.707   9.247   4.937 -0.8650 -0.2336 -0.0933
  678MOL0     C89417   8.568   9.274   4.907 -0.9528 -0.0978 -0.3388
  678MOL0     C89418   8.134   9.293   4.931  0.0970 -0.1225 -0.0817
  678MOL0     C89419   8.072   9.408   4.991  0.1783  0.8199  0.3632
  678MOL0     C89420   7.962   9.474   4.941 -0.2535 -0.5623 -0.5866
  678MOL0     C89421   7.897   9.420   4.836  0.0677  0.1948 -1.3326
  678MOL0     O89422   7.805   9.491   4.763  0.6218  0.2246 -0.3893
  678MOL0     C89423   7.746   9.619   4.804 -0.4514  0.2485  0.2850
  678MOL0     C89424   7.721   9.697   4.674 -0.1101  0.3041  1.6409
  678MOL0     C89425   7.669   9.839   4.701  1.5807  0.3262  0.2313
  678MOL0     C89426   7.600   9.889   4.572  0.3628 -0.6845 -0.7436
  678MOL0     C89427   7.692   9.896   4.454  0.6369 -0.1596  0.1806
  678MOL0     C89428   7.775   9.915   4.364 -0.5768  0.7429  0.0720
  678MOL0     C89429   7.946   9.298   4.779  0.0111  0.2783 -1.1178
  678MOL0     C89430   8.063   9.241   4.817  0.0697  0.2242 -0.5005
  678MOL0     H89431   8.433   8.982   4.981 -1.3970  0.3975 -2.3387
  678MOL0     H89432   8.655   8.920   5.026 -1.8327 -0.9722  0.0513
  678MOL0     H89433   9.060   9.156   4.972 -1.1963  1.1956 -0.3226
  678MOL0     H89434   8.954   9.189   4.838 -1.0912  0.2278 -0.2050
  678MOL0     H89435   9.106   9.015   4.772  0.6990  0.8380  1.5199
  678MOL0     H89436   8.946   8.935   4.787 -1.4744 -1.6041  1.3306
  678MOL0     H89437   9.012   8.850   5.004 -0.1620 -2.6793 -1.3975
  678MOL0     H89438   9.178   8.947   5.001  1.8650 -0.2171 -1.1852
  678MOL0     H89439   9.091   8.745   4.798  1.1306 -2.4532  1.2466
  678MOL0     H89440   9.248   8.817   4.823 -0.9262 -1.8244 -3.0013
  678MOL0     H89441   9.270   8.618   4.870  0.1714  3.7999 -1.2273
  678MOL0     H89442   9.118   8.601   4.975 -0.2970  1.8116  1.6349
  678MOL0     H89443   9.221   8.730   5.159  2.1277  2.0392  0.7502
  678MOL0     H89444   9.362   8.768   5.059  0.2448  0.4271  0.8835
  678MOL0     H89445   9.412   8.533   5.031  1.6000  1.3888  0.7158
  678MOL0     H89446   9.466   8.599   5.170  0.3262  0.6214  0.0780
  678MOL0     H89447   9.214   8.402   5.109  0.4729 -1.3534 -0.2557
  678MOL0     H89448   9.218   8.486   5.260  3.0976  2.2620  2.6647
  678MOL0     H89449   9.379   8.198   5.065  1.7501  0.6902 -0.0727
  678MOL0     H89450   9.522   7.994   5.126  1.7256 -0.3823 -1.2883
  678MOL0     H89451   9.637   8.015   5.263 -1.9235  0.4250  1.6253
  678MOL0     H89452   9.777   8.161   5.122 -0.5475  2.3203  1.3535
  678MOL0     H89453   9.652   8.172   4.999  2.8724  0.7902 -0.8503
  678MOL0     H89454   9.759   7.907   5.044 -2.1818  0.0075  1.4465
  678MOL0     H89455   9.680   7.996   4.907  0.4770  1.9195 -0.2409
  678MOL0     H89456   9.950   7.963   4.893 -1.5306  0.2969 -1.2603
  678MOL0     H89457   9.951   8.038   5.051  1.0224 -0.9442 -0.1921
  678MOL0     H89458   9.807   7.986   4.725 -0.8593  0.9887  2.3263
  678MOL0     H89459   9.752   8.010   4.485 -1.5513  2.0112 -2.8724
  678MOL0     H89460   9.621   7.993   4.115  0.4027 -0.9071 -1.2077
  678MOL0     H89461   9.550   8.007   3.859  0.8116 -2.1070  0.0607
  678MOL0     H89462   9.751   8.344   3.623 -1.4424  0.5947 -1.5142
  678MOL0     H89463   9.598   8.390   3.693  0.3765  1.8286 -0.8408
  678MOL0     H89464   9.659   8.244   3.435 -0.4241 -1.5665  1.0498
  678MOL0     H89465   9.599   8.402   3.447  3.4877  0.1942  1.5352
  678MOL0     H89466   9.369   8.352   3.488  1.6437  0.8779 -0.0517
  678MOL0     H89467   9.408   8.197   3.559  0.2300  0.6438  0.3950
  678MOL0     H89468   9.285   8.201   3.349 -0.1669  1.7159  2.1502
  678MOL0     H89469   9.424   8.262   3.265  0.3809  1.6175  1.1448
  678MOL0     H89470   9.459   7.993   3.417  3.6187 -0.7135 -0.4754
  678MOL0     H89471   9.571   8.087   3.314  3.1809 -0.4785  4.2502
  678MOL0     H89472   9.430   8.039   3.106 -2.2835  3.2169  1.4669
  678MOL0     H89473   9.310   7.965   3.209  0.5271  0.1435 -0.2523
  678MOL0     H89474   9.554   7.847   3.115  0.0856  0.1117  0.7505
  678MOL0     H89475   9.541   7.823   3.289  3.0616  1.3055 -0.9425
  678MOL0     H89476   9.353   7.727   3.063 -0.6709 -1.7152 -0.2962
  678MOL0     H89477   9.299   7.735   3.232 -0.9675 -1.9268 -2.1174
  678MOL0     H89478   9.770   8.380   3.859 -2.3001  0.0923 -1.8504
  678MOL0     H89479   9.829   8.358   4.063  0.5159 -0.9675 -1.1644
  678MOL0     H89480   9.894   8.419   4.515 -1.3408 -0.1213 -1.0474
  678MOL0     H89481   9.947   8.378   4.738  1.1597 -0.9462  0.2327
  678MOL0     H89482   8.791   9.316   4.932 -1.6350  0.9558  2.0406
  678MOL0     H89483   8.543   9.374   4.874  1.3714  1.0567  1.1154
  678MOL0     H89484   8.114   9.447   5.084 -2.9062  0.9523  1.8043
  678MOL0     H89485   7.923   9.555   5.003 -0.0423 -1.1282  0.2982
  678MOL0     H89486   7.810   9.669   4.877  3.4479  0.4227 -2.9200
  678MOL0     H89487   7.647   9.608   4.849 -1.0356  2.1292 -0.4230
  678MOL0     H89488   7.815   9.705   4.618 -1.1452  2.6431  0.0622
  678MOL0     H89489   7.640   9.635   4.635 -0.7997 -1.1942  5.0769
  678MOL0     H89490   7.749   9.913   4.713  1.2934  0.5302  0.9854
  678MOL0     H89491   7.591   9.847   4.777 -0.4142  1.5567 -1.8549
  678MOL0     H89492   7.506   9.838   4.546 -1.3548  1.6374  0.4722
  678MOL0     H89493   7.583   9.995   4.591  0.4195 -1.0209  1.4068
  678MOL0     H89494   7.857   9.934   4.298 -0.2133  1.7153  0.7761
  678MOL0     H89495   7.886   9.258   4.697 -4.0639  1.7711  0.8590
  678MOL0     H89496   8.088   9.145   4.773 -1.7486 -0.4382 -0.1685
  679MOL0     O89497   8.366   2.167   8.050  0.2255  0.2288  0.0618
  679MOL0     C89498   8.291   2.106   8.123  1.0491  0.0616 -0.1378
  679MOL0     O89499   8.152   2.116   8.122  0.1306  0.4141  0.4360
  679MOL0     C89500   8.090   2.238   8.086  0.9515  0.9798  0.3910
  679MOL0     C89501   8.140   2.358   8.118 -0.2989  0.4234  0.2422
  679MOL0     C89502   8.064   2.470   8.105  0.6620 -0.2526  0.6712
  679MOL0     C89503   7.921   2.466   8.062 -1.0625  0.3151 -1.0242
  679MOL0     O89504   7.863   2.587   8.044 -0.3586  0.0968 -0.1038
  679MOL0     C89505   7.731   2.584   7.998 -0.1521  0.7932  0.0351
  679MOL0     C89506   7.629   2.571   8.111 -0.0463 -0.0699 -0.6250
  679MOL0     C89507   7.503   2.653   8.082  0.3287 -0.0314 -0.7393
  679MOL0     C89508   7.420   2.681   8.205  0.8405  0.3080  0.4974
  679MOL0     C89509   7.295   2.765   8.172 -0.2886  0.0257  1.0032
  679MOL0     C89510   7.321   2.909   8.112  0.4407  0.3193  0.1193
  679MOL0     C89511   7.190   2.988   8.086 -0.4296  0.1063  0.8464
  679MOL0     C89512   7.236   3.105   7.990  0.4956  0.1020 -0.0593
  679MOL0     N89513   7.318   3.211   8.045 -0.0442 -0.0249  0.0713
  679MOL0     C89514   7.272   3.284   8.159 -0.1583 -0.2406  0.8087
  679MOL0     C89515   7.377   3.367   8.193 -1.2158  0.9033  0.4634
  679MOL0     C89516   7.379   3.474   8.300 -0.2523  1.1962 -0.1888
  679MOL0     C89517   7.451   3.437   8.435  0.0914 -0.7584 -0.2145
  679MOL0     C89518   7.603   3.412   8.417  0.0611  1.0697  0.0911
  679MOL0     C89519   7.671   3.346   8.540  0.1383  0.3462  0.1049
  679MOL0     O89520   7.798   3.380   8.579 -0.6372 -0.6024 -0.5168
  679MOL0     C89521   7.819   3.494   8.651 -0.2050  0.5202 -0.5100
  679MOL0     C89522   7.941   3.519   8.722  0.6535  0.1618  0.6105
  679MOL0     C89523   7.968   3.621   8.816 -0.3270 -0.2083 -0.4939
  679MOL0     C89524   7.866   3.712   8.852 -1.0553 -0.0838 -0.5440
  679MOL0     C89525   7.874   3.816   8.959  0.2222 -0.9189  0.2916
  679MOL0     O89526   7.791   3.923   8.935 -0.6904 -0.1152  0.4068
  679MOL0     C89527   7.757   4.003   9.037 -0.8671 -0.8298  0.3327
  679MOL0     C89528   7.747   3.968   9.172  0.9409  0.5612  0.0520
  679MOL0     C89529   7.708   4.060   9.267 -0.1989  0.2312  0.2463
  679MOL0     C89530   7.682   4.194   9.229 -0.1197 -0.3268  0.0774
  679MOL0     O89531   7.632   4.293   9.311  0.3738  0.2677 -0.0190
  679MOL0     C89532   7.704   4.306   9.434 -0.2185  0.2050  1.3748
  679MOL0     C89533   7.651   4.427   9.517  0.4221  0.4640 -0.4373
  679MOL0     C89534   7.746   4.467   9.630 -0.6666  0.1138  1.1280
  679MOL0     C89535   7.769   4.365   9.738  0.1806 -0.3667  0.4329
  679MOL0     C89536   7.644   4.331   9.818 -0.5893  0.4113 -1.0749
  679MOL0     C89537   7.654   4.226   9.927  0.5810 -1.0102 -0.4289
  679MOL0     C89538   7.542   4.217  10.027 -0.2471 -0.0292 -0.3172
  679MOL0     C89539   7.557   4.093  10.116 -0.7587 -0.6583 -1.1547
  679MOL0    Cl89540   7.430   4.120  10.234 -0.2369  0.6842  0.6224
  679MOL0     C89541   7.696   4.231   9.093  0.1248 -0.9190 -0.0292
  679MOL0     C89542   7.724   4.134   8.997 -0.3509 -0.1431  0.4259
  679MOL0     O89543   7.950   3.799   9.053  0.0529 -0.0177 -0.2516
  679MOL0     C89544   7.753   3.701   8.763 -1.0776  0.2812 -0.5885
  679MOL0     C89545   7.724   3.592   8.671 -0.5307 -0.3352 -0.2235
  679MOL0     N89546   7.483   3.335   8.113 -0.5090  0.5433 -0.5363
  679MOL0     N89547   7.453   3.237   8.026  0.0932 -1.1434  0.3744
  679MOL0     C89548   7.864   2.340   8.041  0.1435 -0.1595  0.9340
  679MOL0     C89549   7.947   2.233   8.044 -0.3596 -0.3998  0.2788
  679MOL0     C89550   8.356   2.010   8.223  0.2432 -0.3662  0.1923
  679MOL0     C89551   8.461   1.927   8.188  0.1589 -0.1637 -0.8210
  679MOL0     C89552   8.509   1.831   8.272  0.7853  0.1106 -0.6796
  679MOL0     C89553   8.456   1.809   8.402  0.0330 -0.8657 -0.2649
  679MOL0     O89554   8.520   1.712   8.475  0.0509  0.4527 -0.0838
  679MOL0     C89555   8.518   1.719   8.624  0.3080  1.2488 -0.1386
  679MOL0     C89556   8.385   1.642   8.679 -0.5512 -0.2381 -0.0775
  679MOL0     C89557   8.363   1.511   8.611 -0.3060  0.2350  0.8726
  679MOL0     C89558   8.268   1.402   8.660  1.6479  0.2232  0.9026
  679MOL0     C89559   8.123   1.442   8.638 -0.2900 -0.0719  0.2606
  679MOL0     C89560   8.006   1.446   8.624 -0.3811  0.9606 -0.1176
  679MOL0     C89561   8.353   1.897   8.452 -1.0869  0.0052  0.1535
  679MOL0     C89562   8.297   1.996   8.358 -0.1613  0.5229  0.1081
  679MOL0     H89563   8.240   2.363   8.158 -1.1778 -3.2172  3.4549
  679MOL0     H89564   8.104   2.568   8.128  1.7200 -1.1410  2.8256
  679MOL0     H89565   7.716   2.502   7.927 -1.3588  1.4415 -0.4929
  679MOL0     H89566   7.710   2.674   7.940  2.1979  2.4412  1.5723
  679MOL0     H89567   7.668   2.594   8.210 -1.0199 -1.9541  0.2379
  679MOL0     H89568   7.600   2.466   8.117 -1.1507  0.3188  1.9293
  679MOL0     H89569   7.447   2.587   8.016  1.2515 -4.0810  2.1399
  679MOL0     H89570   7.533   2.743   8.028  3.4354 -1.0628 -0.9106
  679MOL0     H89571   7.400   2.584   8.251 -0.1563 -0.0955 -0.7090
  679MOL0     H89572   7.485   2.738   8.271 -1.0966  1.7757  1.2326
  679MOL0     H89573   7.224   2.777   8.254 -2.0865 -0.2017 -0.4467
  679MOL0     H89574   7.248   2.703   8.095 -0.8066  0.5413  0.9047
  679MOL0     H89575   7.374   2.891   8.018  1.2325  0.6847  0.4946
  679MOL0     H89576   7.394   2.963   8.172  2.4620 -0.9134 -1.1142
  679MOL0     H89577   7.136   2.903   8.042  0.9559 -0.8659  0.9586
  679MOL0     H89578   7.136   3.018   8.177 -0.4148  2.4285  0.1394
  679MOL0     H89579   7.151   3.154   7.943 -1.3465 -2.6305  0.2259
  679MOL0     H89580   7.292   3.056   7.910  0.8082  1.2278 -0.5443
  679MOL0     H89581   7.175   3.274   8.207 -1.6109 -1.5689 -2.1152
  679MOL0     H89582   7.274   3.500   8.318 -0.4734 -0.4860  1.1317
  679MOL0     H89583   7.416   3.562   8.246  0.6778  1.4022  0.7501
  679MOL0     H89584   7.401   3.354   8.485  0.6598 -2.8180 -2.9036
  679MOL0     H89585   7.437   3.519   8.507 -0.4657 -1.7596  0.8424
  679MOL0     H89586   7.620   3.339   8.338  2.4807  0.7777  0.7946
  679MOL0     H89587   7.665   3.501   8.402  2.4028 -0.2911  1.1966
  679MOL0     H89588   7.661   3.237   8.541  1.8685  0.1598  1.2451
  679MOL0     H89589   7.603   3.365   8.623 -1.2031 -2.7868 -0.1454
  679MOL0     H89590   8.009   3.443   8.685  0.5490  2.1612 -4.4949
  679MOL0     H89591   8.065   3.633   8.862 -1.1459  1.8702  0.8253
  679MOL0     H89592   7.753   3.862   9.198 -0.3617  0.3304 -0.5193
  679MOL0     H89593   7.684   4.034   9.370  0.9643  1.4457  0.8573
  679MOL0     H89594   7.806   4.320   9.398 -1.2109 -1.8339 -2.8167
  679MOL0     H89595   7.718   4.219   9.498 -0.1929 -0.1063  0.9514
  679MOL0     H89596   7.554   4.412   9.564  1.0990  2.6581  1.8905
  679MOL0     H89597   7.638   4.511   9.448 -0.3976 -0.7786 -1.8612
  679MOL0     H89598   7.715   4.560   9.680  1.0023 -1.6960  6.1210
  679MOL0     H89599   7.840   4.491   9.579 -0.8372 -0.1364  0.6918
  679MOL0     H89600   7.808   4.277   9.686 -3.7159  0.5091 -4.7425
  679MOL0     H89601   7.849   4.416   9.792  2.9404 -0.7607 -2.9555
  679MOL0     H89602   7.558   4.298   9.758 -1.3216 -4.0144  1.8783
  679MOL0     H89603   7.607   4.417   9.874  1.5620  0.0060  1.1309
  679MOL0     H89604   7.751   4.244   9.974  0.4123 -2.5786  0.5884
  679MOL0     H89605   7.661   4.126   9.882  4.7247 -0.1397 -2.2255
  679MOL0     H89606   7.528   4.309  10.086 -3.4336 -1.6317  1.7045
  679MOL0     H89607   7.454   4.201   9.964  0.4880 -1.4818 -1.0144
  679MOL0     H89608   7.657   4.096  10.160 -1.2276 -2.4783  0.1258
  679MOL0     H89609   7.540   4.003  10.056 -0.4356 -0.5527 -1.4103
  679MOL0     H89610   7.686   4.334   9.061  0.2152 -0.7106  0.6032
  679MOL0     H89611   7.735   4.160   8.891 -1.0176 -2.4117 -0.2371
  679MOL0     H89612   7.675   3.776   8.776  1.0102  2.9490 -2.4181
  679MOL0     H89613   7.633   3.601   8.612  0.0242 -1.8841 -1.3598
  679MOL0     H89614   7.764   2.305   8.018  0.5094 -0.6755  0.0613
  679MOL0     H89615   7.912   2.131   8.038 -0.0818 -0.4391 -0.7490
  679MOL0     H89616   8.494   1.931   8.084  1.2969  3.2378 -0.4564
  679MOL0     H89617   8.582   1.764   8.228  0.2647  0.1592 -1.6718
  679MOL0     H89618   8.547   1.816   8.666 -1.3902  1.1686  1.3305
  679MOL0     H89619   8.600   1.652   8.651 -0.8968 -0.4493 -0.5216
  679MOL0     H89620   8.391   1.633   8.788  0.3219  1.4173  0.0439
  679MOL0     H89621   8.296   1.704   8.664  0.7736  0.9439 -4.4150
  679MOL0     H89622   8.463   1.469   8.622 -0.5577 -0.6257  0.0384
  679MOL0     H89623   8.349   1.523   8.503  2.6118  0.8953  0.4810
  679MOL0     H89624   8.269   1.307   8.605 -3.1050  1.5602 -2.1795
  679MOL0     H89625   8.284   1.383   8.767  1.5942  0.9172  1.0355
  679MOL0     H89626   7.899   1.456   8.621 -0.5818 -0.5809  0.6605
  679MOL0     H89627   8.300   1.880   8.545 -3.2325 -0.7318 -1.1200
  679MOL0     H89628   8.201   2.039   8.383 -1.4835 -0.0847 -3.4584
  680MOL0     O89629   8.875  11.343   5.494 -0.4654 -0.1355 -0.6138
  680MOL0     C89630   8.899  11.314   5.610  0.5812  0.6676  1.0687
  680MOL0     O89631   9.004  11.356   5.688 -0.6578  0.5903 -0.7064
  680MOL0     C89632   9.129  11.387   5.624  0.5248  0.0854  0.2228
  680MOL0     C89633   9.188  11.516   5.638  0.1715  0.5816 -0.3890
  680MOL0     C89634   9.312  11.545   5.575  0.1657 -0.7702 -0.3040
  680MOL0     C89635   9.378  11.446   5.498  0.9068 -0.7313  0.2233
  680MOL0     O89636   9.477  11.482   5.413  0.4551  0.0266 -0.4168
  680MOL0     C89637   9.601  11.410   5.411 -0.9553  0.5855 -1.1458
  680MOL0     C89638   9.720  11.497   5.394  0.0983 -0.2357 -0.8087
  680MOL0     C89639   9.853  11.425   5.357  0.1282 -0.0293  1.0024
  680MOL0     C89640   9.966  11.517   5.295 -0.1535 -0.9425 -0.2793
  680MOL0     C89641  10.105  11.486   5.374  0.2626  0.4214 -0.1034
  680MOL0     C89642  10.196  11.371   5.320 -1.1915  0.8231  0.5302
  680MOL0     C89643  10.275  11.423   5.199 -0.2380  0.7029  0.3140
  680MOL0     C89644  10.361  11.309   5.135 -0.0139 -0.6308 -0.9150
  680MOL0     N89645  10.448  11.258   5.239  0.2574 -0.8356  0.4565
  680MOL0     C89646  10.553  11.332   5.287  0.4556 -0.3281  0.0293
  680MOL0     C89647  10.595  11.245   5.381  0.8303 -0.1902  0.2122
  680MOL0     C89648  10.711  11.287   5.474 -0.3635  0.4939  0.4533
  680MOL0     C89649  10.851  11.276   5.421  0.4284  0.1352  0.2948
  680MOL0     C89650  10.908  11.128   5.409  0.3235  0.8667  0.7811
  680MOL0     C89651  11.047  11.130   5.338  0.1193 -0.7079 -0.1583
  680MOL0     O89652  11.125  11.220   5.412 -0.1969  0.5338  0.4840
  680MOL0     C89653  11.250  11.184   5.435  0.4697 -0.6234 -1.1623
  680MOL0     C89654  11.280  11.056   5.486 -0.5224  0.3430  0.5260
  680MOL0     C89655  11.405  11.030   5.547 -0.0001 -0.1652  0.4193
  680MOL0     C89656  11.508  11.129   5.549  0.9072 -0.1929 -0.4808
  680MOL0     C89657  11.650  11.099   5.573 -0.9644 -0.8978 -0.3447
  680MOL0     O89658  11.712  11.190   5.642 -0.8523  0.1592  0.5614
  680MOL0     C89659  11.845  11.163   5.673  0.6207  0.4194  0.0319
  680MOL0     C89660  11.889  11.063   5.760  0.0754  1.4155  0.3975
  680MOL0     C89661  12.027  11.037   5.772 -0.4570 -0.9032  0.0629
  680MOL0     C89662  12.120  11.119   5.705 -0.2347  0.7070  0.3343
  680MOL0     O89663  12.249  11.100   5.714 -0.4558 -0.4186 -0.5668
  680MOL0     C89664  12.316  10.983   5.781  0.8079  0.0113 -0.2877
  680MOL0     C89665  12.457  11.010   5.837 -0.1373 -0.2871  0.0220
  680MOL0     C89666  12.550  11.015   5.719 -0.5247 -0.5106 -0.3972
  680MOL0     C89667  12.537  11.129   5.615  0.4991 -1.0073  0.4383
  680MOL0     C89668  12.555  11.255   5.694 -0.1826 -0.0151  0.0226
  680MOL0     C89669  12.579  11.381   5.599  0.1186 -0.0655  0.8273
  680MOL0     C89670  12.457  11.402   5.510  1.2008 -0.3475 -0.5465
  680MOL0     C89671  12.438  11.539   5.452  1.2205 -0.0645 -0.5570
  680MOL0    Cl89672  12.268  11.595   5.458  0.3913  0.0824 -0.1825
  680MOL0     C89673  12.076  11.219   5.611  0.3853  0.4440  0.5081
  680MOL0     C89674  11.939  11.235   5.597  0.2281  0.5767  0.8202
  680MOL0     O89675  11.692  10.989   5.539 -0.4747 -0.2675  0.3084
  680MOL0     C89676  11.474  11.256   5.509 -0.6976  0.2595 -0.7114
  680MOL0     C89677  11.357  11.278   5.441 -0.8767  0.9831 -0.0422
  680MOL0     N89678  10.516  11.134   5.395 -0.0832 -0.5418  0.4940
  680MOL0     N89679  10.434  11.143   5.303  2.0141  0.0679  0.1341
  680MOL0     C89680   9.325  11.319   5.493 -0.0203 -0.9647  1.1337
  680MOL0     C89681   9.201  11.297   5.551 -0.1738  0.7652 -0.5438
  680MOL0     C89682   8.783  11.239   5.674  0.8443 -0.2642  0.3989
  680MOL0     C89683   8.804  11.157   5.784  0.4717 -0.4795 -0.5358
  680MOL0     C89684   8.695  11.106   5.853  1.4676  0.3867  0.6106
  680MOL0     C89685   8.565  11.154   5.828 -0.4443 -0.1033  0.5594
  680MOL0     O89686   8.472  11.103   5.920 -0.5424 -0.3214  0.6529
  680MOL0     C89687   8.335  11.128   5.886 -1.0076 -0.7261 -0.7824
  680MOL0     C89688   8.245  11.089   6.006  0.1659  0.2398 -0.5811
  680MOL0     C89689   8.107  11.057   5.953 -0.8753  0.4307 -0.1552
  680MOL0     C89690   8.117  10.925   5.889  0.5664  0.5602  0.0885
  680MOL0     C89691   7.979  10.900   5.841  0.5553  0.5007 -0.0148
  680MOL0     C89692   7.865  10.867   5.811  0.2516  0.6693 -0.0370
  680MOL0     C89693   8.538  11.237   5.721  0.0762 -0.0718 -1.3282
  680MOL0     C89694   8.647  11.273   5.641  0.0620 -0.3598  0.7340
  680MOL0     H89695   9.147  11.594   5.702  3.1793  2.3978 -0.4934
  680MOL0     H89696   9.375  11.630   5.599 -0.6873 -0.4961  1.1487
  680MOL0     H89697   9.583  11.333   5.335 -5.2614 -0.2480  0.4286
  680MOL0     H89698   9.614  11.364   5.510  0.6338  0.1877 -1.5040
  680MOL0     H89699   9.736  11.544   5.492 -0.8726 -2.2140  0.3770
  680MOL0     H89700   9.689  11.569   5.318 -1.1973 -0.8764 -0.9208
  680MOL0     H89701   9.839  11.339   5.291 -0.9601 -0.9300  2.3400
  680MOL0     H89702   9.892  11.368   5.442 -2.0002 -1.0044  1.3899
  680MOL0     H89703   9.971  11.499   5.188 -2.5558  3.6096 -1.4058
  680MOL0     H89704   9.946  11.624   5.301  3.5966 -0.1615  1.6979
  680MOL0     H89705  10.085  11.465   5.479  2.1391  0.0621  0.2123
  680MOL0     H89706  10.166  11.575   5.359 -0.7698  1.8725  3.4258
  680MOL0     H89707  10.136  11.281   5.305 -2.1783  1.8313 -2.1809
  680MOL0     H89708  10.274  11.343   5.391 -2.0837 -3.1195  0.1993
  680MOL0     H89709  10.201  11.457   5.127  0.7129  0.1022 -0.9883
  680MOL0     H89710  10.346  11.500   5.232  1.2881 -2.1216  4.6093
  680MOL0     H89711  10.418  11.339   5.047 -2.2340  0.6545 -2.0228
  680MOL0     H89712  10.292  11.227   5.111  1.7014 -2.8685  1.3761
  680MOL0     H89713  10.593  11.427   5.253  1.5335 -0.5895  0.5194
  680MOL0     H89714  10.703  11.215   5.555  3.4025 -0.1969  0.3998
  680MOL0     H89715  10.696  11.390   5.507  0.6504  0.4232  1.2022
  680MOL0     H89716  10.915  11.355   5.462 -0.7680  2.3440 -1.8388
  680MOL0     H89717  10.833  11.308   5.318  2.5561  2.4298  0.5271
  680MOL0     H89718  10.920  11.068   5.500  0.3919  0.0048  0.2156
  680MOL0     H89719  10.831  11.076   5.351 -0.5682  2.1911  0.7555
  680MOL0     H89720  11.031  11.172   5.238  1.0159  0.7196  0.2763
  680MOL0     H89721  11.083  11.028   5.320  1.0959 -0.2280 -1.0158
  680MOL0     H89722  11.207  10.977   5.469  0.8173 -0.7674 -0.2396
  680MOL0     H89723  11.425  10.927   5.576 -0.9477  0.3278  3.2326
  680MOL0     H89724  11.817  10.999   5.812 -0.6642  0.1479 -2.0006
  680MOL0     H89725  12.064  10.959   5.839 -1.4291  0.0112  1.7250
  680MOL0     H89726  12.322  10.901   5.709 -1.2745  0.4740 -1.0460
  680MOL0     H89727  12.267  10.944   5.871  5.8337 -0.5794  2.6387
  680MOL0     H89728  12.479  10.915   5.886 -1.3860  0.1563  1.5358
  680MOL0     H89729  12.450  11.101   5.897  0.8122  0.8118 -1.4720
  680MOL0     H89730  12.536  10.923   5.661 -0.7602 -0.7544  0.0432
  680MOL0     H89731  12.651  11.012   5.760 -1.0649 -1.4119  0.9523
  680MOL0     H89732  12.612  11.122   5.536 -0.5552  1.4663 -0.9095
  680MOL0     H89733  12.436  11.121   5.573 -0.5796 -0.7880  2.7977
  680MOL0     H89734  12.643  11.249   5.759  0.8461  2.7222 -1.0031
  680MOL0     H89735  12.468  11.261   5.760  0.2497 -1.1507  0.7289
  680MOL0     H89736  12.666  11.367   5.535 -0.3609  1.2869 -0.1774
  680MOL0     H89737  12.604  11.464   5.667 -0.3393  0.2840  0.5708
  680MOL0     H89738  12.456  11.335   5.424  0.2841 -2.1372  0.7946
  680MOL0     H89739  12.365  11.381   5.566  0.5445 -0.4897 -1.6502
  680MOL0     H89740  12.463  11.534   5.346 -1.9669  0.1176 -1.4112
  680MOL0     H89741  12.499  11.616   5.502  1.0830  0.6557 -1.4646
  680MOL0     H89742  12.137  11.275   5.540 -2.7173  0.7017 -2.2082
  680MOL0     H89743  11.896  11.303   5.525  1.1971  2.0794  1.6012
  680MOL0     H89744  11.548  11.335   5.521 -2.4841  1.7815  0.8537
  680MOL0     H89745  11.326  11.380   5.420 -3.0437  0.9163  2.2750
  680MOL0     H89746   9.383  11.250   5.433 -1.0581  0.3227 -1.5026
  680MOL0     H89747   9.169  11.193   5.545 -0.4042  0.8181 -0.2458
  680MOL0     H89748   8.902  11.135   5.826 -0.1658 -0.0445  1.2905
  680MOL0     H89749   8.710  11.035   5.934 -0.4730  0.1730  0.8194
  680MOL0     H89750   8.323  11.081   5.788 -0.9074  0.7789 -1.5362
  680MOL0     H89751   8.318  11.234   5.868  1.8596 -0.0273  0.1745
  680MOL0     H89752   8.292  11.000   6.048  2.6759  1.4808 -0.5913
  680MOL0     H89753   8.244  11.175   6.074 -1.4966  0.5539 -0.9390
  680MOL0     H89754   8.064  11.128   5.881 -1.1540 -2.7355 -3.3829
  680MOL0     H89755   8.044  11.060   6.042 -0.7361 -0.8251  0.0010
  680MOL0     H89756   8.181  10.924   5.800  2.2587  0.4790  1.2433
  680MOL0     H89757   8.143  10.848   5.962  0.8210 -1.7778 -2.2992
  680MOL0     H89758   7.779  10.822   5.765  1.7492 -0.5129 -1.8283
  680MOL0     H89759   8.432  11.247   5.697 -0.4557  2.3618  1.4484
  680MOL0     H89760   8.614  11.328   5.553 -1.4545 -0.8657  0.9622
  681MOL0     O89761   4.892   2.709   7.379  0.0282 -0.4199  0.6525
  681MOL0     C89762   5.004   2.717   7.431  0.7080  0.2094 -0.0594
  681MOL0     O89763   5.027   2.675   7.561  0.7545 -0.4197 -0.8462
  681MOL0     C89764   4.925   2.604   7.637  0.4745  0.7562 -0.2640
  681MOL0     C89765   4.843   2.503   7.588 -0.2356  0.5729  0.6142
  681MOL0     C89766   4.767   2.411   7.663  0.0233  1.0112 -0.1189
  681MOL0     C89767   4.762   2.434   7.801  1.3674  0.2641 -0.0196
  681MOL0     O89768   4.665   2.386   7.885  0.0338  0.1752 -0.3609
  681MOL0     C89769   4.528   2.368   7.846 -1.3370  0.0437  0.8937
  681MOL0     C89770   4.448   2.323   7.965 -0.3271  0.6966 -0.2801
  681MOL0     C89771   4.336   2.224   7.918  0.0948 -0.0264  0.2811
  681MOL0     C89772   4.240   2.280   7.810 -0.5833 -0.5032  0.0419
  681MOL0     C89773   4.171   2.411   7.859  0.4798 -0.4461  0.2490
  681MOL0     C89774   4.078   2.454   7.738  0.2397  0.1474 -0.0033
  681MOL0     C89775   4.003   2.585   7.774  0.5040 -0.0679 -0.3342
  681MOL0     C89776   3.893   2.622   7.672  0.2390  0.6518 -0.9498
  681MOL0     N89777   3.869   2.770   7.675 -0.4920  0.1869 -0.6569
  681MOL0     C89778   3.968   2.862   7.626 -0.6993 -0.2865  0.2044
  681MOL0     C89779   3.922   2.982   7.667  0.0059 -0.4279 -0.4393
  681MOL0     C89780   3.991   3.114   7.643  0.3489 -0.0150  0.5231
  681MOL0     C89781   3.939   3.172   7.518 -0.2506  0.1278  0.3468
  681MOL0     C89782   3.993   3.316   7.478  0.1033  0.6500 -0.6988
  681MOL0     C89783   3.915   3.385   7.362  0.1383 -0.2379 -0.3979
  681MOL0     O89784   3.780   3.413   7.405  0.0187 -0.3791  0.1573
  681MOL0     C89785   3.683   3.425   7.302 -0.1332  0.1799 -0.4542
  681MOL0     C89786   3.709   3.456   7.171 -0.4890  1.1193 -0.0716
  681MOL0     C89787   3.605   3.453   7.083  0.1490 -1.1696  0.3761
  681MOL0     C89788   3.475   3.426   7.113  0.2503  0.3889  0.0598
  681MOL0     C89789   3.372   3.424   7.005  0.8936  0.0654 -0.0426
  681MOL0     O89790   3.406   3.396   6.876 -0.8726  0.3792 -0.4196
  681MOL0     C89791   3.324   3.420   6.768  0.1894 -0.8865 -0.1876
  681MOL0     C89792   3.295   3.303   6.686 -0.2675 -0.1646 -0.8251
  681MOL0     C89793   3.201   3.317   6.591  0.1511  0.9102 -0.0203
  681MOL0     C89794   3.147   3.434   6.549 -0.9973 -0.1253 -0.5210
  681MOL0     O89795   3.072   3.453   6.443 -1.4546 -0.2005 -0.4232
  681MOL0     C89796   3.107   3.385   6.323  0.9773  0.3452 -0.6414
  681MOL0     C89797   3.019   3.434   6.204 -0.5163 -0.1198 -0.6060
  681MOL0     C89798   3.083   3.419   6.077 -0.5857 -0.3804 -0.1479
  681MOL0     C89799   3.176   3.538   6.056 -0.5457  0.1710  0.4656
  681MOL0     C89800   3.243   3.544   5.918  1.2083  0.5826  0.4166
  681MOL0     C89801   3.363   3.444   5.900 -0.5971  0.2056  0.0502
  681MOL0     C89802   3.403   3.439   5.759 -0.2165 -0.3739 -0.8389
  681MOL0     C89803   3.506   3.340   5.739  0.3847  0.3620  0.1839
  681MOL0    Cl89804   3.416   3.183   5.748 -0.2624 -0.2268 -0.0978
  681MOL0     C89805   3.168   3.549   6.629  0.0053 -0.2447 -0.6143
  681MOL0     C89806   3.257   3.539   6.742 -0.0403 -0.6697  0.6145
  681MOL0     O89807   3.258   3.470   7.039  0.5284  0.0241  0.3990
  681MOL0     C89808   3.447   3.420   7.252  0.2204  0.2435  0.9708
  681MOL0     C89809   3.551   3.409   7.339 -0.4856 -0.5049 -0.0524
  681MOL0     N89810   3.798   2.969   7.734 -0.0653 -0.1251  0.1515
  681MOL0     N89811   3.779   2.840   7.747 -0.6586 -0.9337  0.0272
  681MOL0     C89812   4.835   2.533   7.857  0.8761  0.1387 -0.6012
  681MOL0     C89813   4.915   2.611   7.776  0.6231 -1.1749 -1.2571
  681MOL0     C89814   5.108   2.769   7.345 -0.8922  0.6695  0.1647
  681MOL0     C89815   5.089   2.841   7.225 -0.2019 -0.7384  0.8870
  681MOL0     C89816   5.200   2.853   7.136  0.0166  0.2768 -0.3646
  681MOL0     C89817   5.324   2.840   7.192 -0.3487 -0.0912  0.6092
  681MOL0     O89818   5.436   2.895   7.133 -0.0333  1.0126 -0.5227
  681MOL0     C89819   5.432   3.033   7.121 -0.4101 -0.4058 -0.3368
  681MOL0     C89820   5.577   3.079   7.123  0.4558 -0.8068 -0.1657
  681MOL0     C89821   5.649   3.057   6.988 -0.2761 -0.6042 -0.4892
  681MOL0     C89822   5.632   3.171   6.879 -0.4436 -0.0280  0.8285
  681MOL0     C89823   5.713   3.288   6.909  0.3093 -0.5246  0.1431
  681MOL0     C89824   5.781   3.384   6.928  0.6001 -0.7911 -0.7155
  681MOL0     C89825   5.348   2.756   7.305  0.7151  0.2806 -0.1463
  681MOL0     C89826   5.239   2.730   7.383 -0.0951  0.0572 -0.1278
  681MOL0     H89827   4.836   2.484   7.481 -0.1946  0.8692  0.5588
  681MOL0     H89828   4.695   2.342   7.619  1.0386  0.0453 -0.2944
  681MOL0     H89829   4.535   2.290   7.770  3.4667  0.5259  0.5560
  681MOL0     H89830   4.499   2.464   7.804 -0.4244 -0.8938 -2.1546
  681MOL0     H89831   4.416   2.411   8.023  0.2322 -0.5546  2.0717
  681MOL0     H89832   4.513   2.278   8.040 -1.3182  0.5969  0.5444
  681MOL0     H89833   4.272   2.209   8.005 -0.9605 -0.4304 -0.5350
  681MOL0     H89834   4.389   2.139   7.875 -0.6402  0.4982 -1.7855
  681MOL0     H89835   4.290   2.315   7.719 -3.0161  0.5127 -0.9987
  681MOL0     H89836   4.162   2.217   7.767 -4.7596  0.8403  4.6923
  681MOL0     H89837   4.244   2.488   7.887 -1.2385  0.4464  2.5694
  681MOL0     H89838   4.101   2.382   7.937  2.3359  1.6044  2.8468
  681MOL0     H89839   4.014   2.369   7.710 -0.5713  1.1561 -1.3955
  681MOL0     H89840   4.148   2.462   7.654  0.1133  4.0806  0.0846
  681MOL0     H89841   3.965   2.574   7.876  0.6522  0.3917 -0.2270
  681MOL0     H89842   4.072   2.670   7.773 -1.7164  1.8710  1.3932
  681MOL0     H89843   3.808   2.564   7.709  1.8835 -0.1065  2.0036
  681MOL0     H89844   3.933   2.587   7.576  3.8888  2.1943 -0.1688
  681MOL0     H89845   4.055   2.837   7.567 -0.2472 -3.2540  1.8784
  681MOL0     H89846   4.098   3.092   7.636  0.1795 -1.2728  1.5164
  681MOL0     H89847   3.967   3.186   7.722 -3.8975  0.5572 -1.0518
  681MOL0     H89848   3.832   3.173   7.538  0.0503  0.5897  2.1049
  681MOL0     H89849   3.979   3.113   7.435 -1.1752 -1.5158  1.0251
  681MOL0     H89850   3.972   3.391   7.555  1.2548  1.9443 -1.5834
  681MOL0     H89851   4.102   3.306   7.467  0.5787  1.5432  2.2739
  681MOL0     H89852   3.926   3.321   7.275  7.0471 -3.0996  1.8650
  681MOL0     H89853   3.971   3.475   7.334 -1.2853  0.0953 -2.3648
  681MOL0     H89854   3.805   3.498   7.145  0.5409 -0.9901  0.0942
  681MOL0     H89855   3.643   3.476   6.984  3.0102  1.1104  1.8571
  681MOL0     H89856   3.352   3.212   6.705  1.9907  0.7268 -2.8173
  681MOL0     H89857   3.162   3.227   6.543 -1.4251  0.9367  1.1478
  681MOL0     H89858   3.083   3.278   6.315 -0.3729  0.6512 -1.0425
  681MOL0     H89859   3.211   3.383   6.290  0.8617 -1.5498 -1.0404
  681MOL0     H89860   3.008   3.540   6.228 -2.9737 -0.6997  1.2061
  681MOL0     H89861   2.925   3.380   6.219  0.6361 -1.4406  2.8621
  681MOL0     H89862   3.001   3.420   6.004  0.0595  0.8692 -0.8845
  681MOL0     H89863   3.128   3.320   6.065  1.6611  0.6309 -0.4060
  681MOL0     H89864   3.118   3.630   6.050 -0.3626  0.2393 -3.6553
  681MOL0     H89865   3.246   3.538   6.140  0.1175 -1.8618 -0.0159
  681MOL0     H89866   3.274   3.645   5.887 -3.3148  1.4543 -2.0648
  681MOL0     H89867   3.168   3.509   5.847 -0.9924  1.2631  2.2942
  681MOL0     H89868   3.345   3.342   5.936  0.0425 -1.4584 -3.8394
  681MOL0     H89869   3.448   3.480   5.959  0.1767 -1.7540  0.2149
  681MOL0     H89870   3.309   3.422   5.705 -1.9826 -0.4201  2.0300
  681MOL0     H89871   3.442   3.536   5.729  1.4103 -0.2590  1.4255
  681MOL0     H89872   3.575   3.342   5.824  0.5812 -2.2569  0.1685
  681MOL0     H89873   3.550   3.352   5.640 -1.6197  1.8072 -0.5987
  681MOL0     H89874   3.113   3.642   6.621 -1.0083 -0.5116  2.0489
  681MOL0     H89875   3.266   3.631   6.798 -0.6158 -0.2774  0.0851
  681MOL0     H89876   3.345   3.419   7.289 -0.9637  4.2861 -1.4823
  681MOL0     H89877   3.536   3.388   7.445 -1.8385  3.3629  0.6761
  681MOL0     H89878   4.825   2.560   7.962  1.1619 -1.1423 -0.2282
  681MOL0     H89879   4.970   2.688   7.831  0.1374 -1.3020 -0.5879
  681MOL0     H89880   4.993   2.872   7.184 -0.0115 -1.1924  0.0711
  681MOL0     H89881   5.170   2.885   7.037  2.8462 -1.7183 -2.0028
  681MOL0     H89882   5.368   3.083   7.194  0.1535  3.7653 -2.4035
  681MOL0     H89883   5.383   3.058   7.026 -2.2539 -0.8984  0.4358
  681MOL0     H89884   5.592   3.183   7.151 -2.5376 -0.0268 -1.0739
  681MOL0     H89885   5.633   3.017   7.194  1.9562  0.5034 -0.1672
  681MOL0     H89886   5.600   2.968   6.946 -0.7583 -0.1228 -0.9518
  681MOL0     H89887   5.751   3.017   6.989  0.6066  1.5106  0.3863
  681MOL0     H89888   5.683   3.130   6.792 -0.3085 -0.8415  1.2819
  681MOL0     H89889   5.537   3.196   6.831 -2.1681 -5.5053  0.7238
  681MOL0     H89890   5.842   3.464   6.965 -1.5265 -0.6674  3.0446
  681MOL0     H89891   5.451   2.732   7.331  0.8453  0.3979 -0.5374
  681MOL0     H89892   5.258   2.684   7.479  1.0868 -3.9705 -2.0274
  682MOL0     O89893   0.295   4.969   3.242  0.0415  0.6289  0.5671
  682MOL0     C89894   0.358   4.868   3.274  0.2514  0.4611 -0.4913
  682MOL0     O89895   0.349   4.745   3.216  0.0073  0.9859  0.5746
  682MOL0     C89896   0.281   4.726   3.100  0.6705 -0.2400  0.5601
  682MOL0     C89897   0.289   4.812   2.984 -0.0087 -0.2296  0.0856
  682MOL0     C89898   0.198   4.799   2.878  1.3292  0.6967  0.6493
  682MOL0     C89899   0.110   4.683   2.869 -0.4490  0.3581 -0.0654
  682MOL0     O89900   0.036   4.679   2.754 -0.1885  0.3331  0.3653
  682MOL0     C89901  -0.109   4.654   2.755 -0.3360 -0.0318 -0.6553
  682MOL0     C89902  -0.162   4.793   2.707  0.5946 -0.0667  0.4591
  682MOL0     C89903  -0.301   4.771   2.650 -0.9142  1.2831 -0.6100
  682MOL0     C89904  -0.340   4.882   2.551  0.1026 -0.1056  0.0070
  682MOL0     C89905  -0.494   4.875   2.523 -0.8067  0.2995 -0.3883
  682MOL0     C89906  -0.534   4.749   2.449  0.4358 -0.1692  0.1427
  682MOL0     C89907  -0.682   4.757   2.411 -1.1734  0.3388  0.5460
  682MOL0     C89908  -0.744   4.633   2.345 -0.1170  0.4973  0.6919
  682MOL0     N89909  -0.679   4.610   2.215  0.2111  0.9266 -1.1011
  682MOL0     C89910  -0.733   4.660   2.101 -0.1409  0.4415 -0.0015
  682MOL0     C89911  -0.661   4.614   2.002 -0.0679  0.1760  0.2785
  682MOL0     C89912  -0.668   4.630   1.853  0.5986  0.0306 -0.8139
  682MOL0     C89913  -0.675   4.772   1.812 -0.1821  0.2911 -0.5606
  682MOL0     C89914  -0.704   4.793   1.665  0.1896 -0.4387 -0.3269
  682MOL0     C89915  -0.771   4.927   1.647 -0.3864 -0.8932  0.2648
  682MOL0     O89916  -0.899   4.931   1.704  0.4158  0.4109 -0.3593
  682MOL0     C89917  -0.994   5.017   1.659 -0.2380  0.1232  0.7644
  682MOL0     C89918  -0.975   5.134   1.581  0.9460  0.2246  0.6352
  682MOL0     C89919  -1.078   5.217   1.555 -0.2877 -0.5002 -0.2979
  682MOL0     C89920  -1.214   5.179   1.574  0.9573 -0.0397 -0.7544
  682MOL0     C89921  -1.334   5.259   1.532  0.3467  0.1013  0.1876
  682MOL0     O89922  -1.320   5.364   1.448  0.8121  0.4211  0.4287
  682MOL0     C89923  -1.413   5.460   1.441 -0.7404 -1.6474  0.2129
  682MOL0     C89924  -1.466   5.519   1.558  0.1355 -0.7431  0.4898
  682MOL0     C89925  -1.557   5.625   1.549  1.1661  0.2275  0.1244
  682MOL0     C89926  -1.600   5.675   1.427  0.7587 -0.0248  0.1296
  682MOL0     O89927  -1.683   5.787   1.422 -0.7450 -0.5629 -0.0732
  682MOL0     C89928  -1.685   5.863   1.304 -0.1886  0.6136  0.1840
  682MOL0     C89929  -1.793   5.834   1.203 -0.5421  0.7571  0.7192
  682MOL0     C89930  -1.936   5.868   1.263 -0.4272 -0.2508 -0.8991
  682MOL0     C89931  -1.992   5.772   1.375  0.0486  0.0490  0.6522
  682MOL0     C89932  -2.143   5.803   1.387 -0.1609  0.5111 -0.2004
  682MOL0     C89933  -2.214   5.690   1.475 -0.1715  0.9799 -0.0712
  682MOL0     C89934  -2.357   5.746   1.531 -0.4027 -0.2006 -0.2842
  682MOL0     C89935  -2.439   5.635   1.590 -0.2873  0.7037 -0.3257
  682MOL0    Cl89936  -2.542   5.715   1.711 -0.2036 -0.2225  0.3747
  682MOL0     C89937  -1.535   5.623   1.304 -0.5850 -1.0719 -0.6943
  682MOL0     C89938  -1.440   5.520   1.324 -0.0767  0.5869  0.6137
  682MOL0     O89939  -1.438   5.218   1.568 -0.3787  0.3415 -0.0903
  682MOL0     C89940  -1.229   5.064   1.649  0.5311 -0.4059  0.5162
  682MOL0     C89941  -1.122   4.987   1.699 -0.6765 -0.0713  0.8988
  682MOL0     N89942  -0.562   4.543   2.054 -0.7420  0.5930 -0.5303
  682MOL0     N89943  -0.575   4.530   2.186 -0.0363 -0.6333  0.0131
  682MOL0     C89944   0.104   4.599   2.980 -0.3058  0.1027  0.4095
  682MOL0     C89945   0.185   4.618   3.092  0.1344 -0.5931 -0.1688
  682MOL0     C89946   0.474   4.883   3.364 -0.4143 -0.1918  0.5596
  682MOL0     C89947   0.542   4.773   3.419 -0.1617 -0.0735  0.4049
  682MOL0     C89948   0.641   4.799   3.513 -0.2027 -0.1666  0.6093
  682MOL0     C89949   0.663   4.935   3.559 -0.3376 -0.9051  0.4625
  682MOL0     O89950   0.745   4.972   3.661  0.1035  0.0375 -0.1040
  682MOL0     C89951   0.814   4.866   3.721 -0.5322  0.0014  1.0746
  682MOL0     C89952   0.893   4.915   3.843 -0.5738 -0.4873 -0.4990
  682MOL0     C89953   0.989   5.037   3.817  0.0292 -0.1225 -0.0105
  682MOL0     C89954   1.100   5.064   3.927 -1.0980 -0.9565 -0.6557
  682MOL0     C89955   1.139   5.204   3.923  0.3922  0.3272  0.3464
  682MOL0     C89956   1.175   5.318   3.929  0.6913  0.8827  0.0523
  682MOL0     C89957   0.610   5.041   3.484 -0.4187 -0.6878 -1.0302
  682MOL0     C89958   0.521   5.015   3.381 -0.0831  0.1424 -0.9308
  682MOL0     H89959   0.359   4.894   2.981  1.1540 -1.0805  1.9216
  682MOL0     H89960   0.197   4.877   2.803 -1.2460  0.8670  0.7844
  682MOL0     H89961  -0.153   4.619   2.849  0.9596 -0.3348 -0.1429
  682MOL0     H89962  -0.128   4.572   2.684 -0.7553 -2.0751  1.6910
  682MOL0     H89963  -0.094   4.825   2.627 -2.4417  1.3941 -1.7243
  682MOL0     H89964  -0.148   4.864   2.789  4.5252 -2.0662  1.7379
  682MOL0     H89965  -0.368   4.766   2.737 -0.1999 -5.0200  0.0917
  682MOL0     H89966  -0.307   4.672   2.603  1.6066  1.0156 -0.5040
  682MOL0     H89967  -0.321   4.977   2.601  1.1509 -0.3642  0.1393
  682MOL0     H89968  -0.287   4.872   2.456 -4.1776 -0.9564 -2.5410
  682MOL0     H89969  -0.537   4.957   2.464  1.8563  0.1114 -2.8394
  682MOL0     H89970  -0.537   4.872   2.623 -2.1611  0.7984 -0.9225
  682MOL0     H89971  -0.524   4.663   2.516 -0.2783 -0.9894 -0.7915
  682MOL0     H89972  -0.461   4.723   2.372  2.5352  2.2453  1.1513
  682MOL0     H89973  -0.746   4.788   2.494 -1.2444 -0.5605  0.8346
  682MOL0     H89974  -0.694   4.839   2.339  0.2662  1.8401  1.9026
  682MOL0     H89975  -0.851   4.646   2.325  0.2497  3.4152  0.1794
  682MOL0     H89976  -0.721   4.547   2.409 -0.5774 -0.4730 -0.3984
  682MOL0     H89977  -0.828   4.711   2.094 -0.5895 -0.1959  1.2384
  682MOL0     H89978  -0.761   4.577   1.832  0.0008 -0.0703  1.7799
  682MOL0     H89979  -0.585   4.574   1.809 -1.0354 -2.2428 -1.1742
  682MOL0     H89980  -0.581   4.819   1.843  0.3310 -1.0524  0.0198
  682MOL0     H89981  -0.750   4.818   1.877  1.5453 -2.4707  3.9413
  682MOL0     H89982  -0.602   4.790   1.623  1.1951 -2.0809  2.0099
  682MOL0     H89983  -0.759   4.723   1.602 -0.7775  0.3548 -0.3914
  682MOL0     H89984  -0.778   4.955   1.542  1.5012 -0.5953  0.1835
  682MOL0     H89985  -0.703   5.005   1.684 -0.5119 -0.8856  0.4872
  682MOL0     H89986  -0.870   5.151   1.559  1.6161  0.6316  3.7628
  682MOL0     H89987  -1.065   5.320   1.521 -0.7845 -0.0235  0.9037
  682MOL0     H89988  -1.461   5.476   1.657  2.0339  0.7816  1.1049
  682MOL0     H89989  -1.586   5.668   1.644 -1.1740 -0.8570 -0.0326
  682MOL0     H89990  -1.583   5.865   1.264  0.6370 -3.3549  1.5831
  682MOL0     H89991  -1.699   5.966   1.339  3.0968  1.2036  0.0486
  682MOL0     H89992  -1.793   5.733   1.162 -1.1377  0.7649  0.7000
  682MOL0     H89993  -1.796   5.891   1.110 -0.8852 -1.1866 -0.5249
  682MOL0     H89994  -2.004   5.856   1.178 -0.8028 -2.5533 -0.3592
  682MOL0     H89995  -1.934   5.975   1.286  1.1078 -0.7816  1.9036
  682MOL0     H89996  -1.991   5.667   1.344 -1.1444 -0.1893  1.3430
  682MOL0     H89997  -1.941   5.769   1.472  0.6376 -1.0415  0.3267
  682MOL0     H89998  -2.190   5.787   1.289  0.0952 -4.6781  0.2188
  682MOL0     H89999  -2.167   5.899   1.432  1.3937 -0.2282  2.4216
  682MOL0     H90000  -2.150   5.672   1.563  0.1990  0.6774 -0.3998
  682MOL0     H90001  -2.223   5.593   1.424  1.9160  0.2420  0.8331
  682MOL0     H90002  -2.327   5.826   1.600  2.7399 -3.2227  2.2005
  682MOL0     H90003  -2.430   5.784   1.458 -2.2872  3.4536  3.1327
  682MOL0     H90004  -2.376   5.564   1.643 -0.9836  1.2071  1.2344
  682MOL0     H90005  -2.498   5.578   1.518  0.1796  0.3252 -0.4135
  682MOL0     H90006  -1.548   5.667   1.205 -0.4952  0.7267  0.0651
  682MOL0     H90007  -1.390   5.493   1.231 -2.9538 -0.3769 -0.7921
  682MOL0     H90008  -1.332   5.035   1.665 -1.0041  2.8993 -2.2470
  682MOL0     H90009  -1.126   4.898   1.761  0.7287 -1.1046 -0.4229
  682MOL0     H90010   0.042   4.514   2.956 -2.5040  2.1148 -1.7063
  682MOL0     H90011   0.166   4.556   3.178  0.4122 -1.0006 -0.4001
  682MOL0     H90012   0.521   4.674   3.382 -1.0420  0.7381 -1.3670
  682MOL0     H90013   0.697   4.713   3.548  0.3147 -0.9063 -1.8485
  682MOL0     H90014   0.883   4.820   3.649 -0.2777  1.7932  0.1193
  682MOL0     H90015   0.741   4.791   3.753  0.2925 -2.1325 -1.6405
  682MOL0     H90016   0.833   4.924   3.934 -1.9266  1.0321 -1.4759
  682MOL0     H90017   0.962   4.832   3.855 -0.3699 -0.0563  1.6220
  682MOL0     H90018   0.928   5.127   3.813  2.6825  1.7354 -1.4529
  682MOL0     H90019   1.046   5.021   3.725  1.9052  2.2478  0.6622
  682MOL0     H90020   1.065   5.035   4.026  0.1638  0.7240  0.3172
  682MOL0     H90021   1.185   4.998   3.908 -2.1144 -2.0590 -1.6779
  682MOL0     H90022   1.214   5.417   3.944 -2.1060  2.3341 -1.5768
  682MOL0     H90023   0.648   5.142   3.491  0.1525 -1.0234  2.0551
  682MOL0     H90024   0.469   5.096   3.331 -2.6482 -2.7103 -3.2225
  683MOL0     O90025   5.119   2.662   1.427 -0.0767  0.2954 -0.0238
  683MOL0     C90026   5.046   2.683   1.327 -0.6092  0.0654 -0.8117
  683MOL0     O90027   4.911   2.662   1.325  0.3656 -0.2492 -0.1843
  683MOL0     C90028   4.840   2.694   1.443 -0.5799  0.4111 -0.1412
  683MOL0     C90029   4.793   2.588   1.525 -0.4393  0.0176 -0.5900
  683MOL0     C90030   4.718   2.611   1.634 -0.1053 -0.4186 -0.8811
  683MOL0     C90031   4.691   2.747   1.679 -0.1685 -0.4168  0.4473
  683MOL0     O90032   4.628   2.785   1.795 -0.3811 -0.1054  0.1229
  683MOL0     C90033   4.483   2.747   1.762  0.0990 -0.6769 -0.9938
  683MOL0     C90034   4.439   2.644   1.872  0.3470 -0.6386  0.1775
  683MOL0     C90035   4.428   2.494   1.834 -0.1258 -0.0427  0.4298
  683MOL0     C90036   4.339   2.445   1.718 -0.4574  1.1621 -0.3415
  683MOL0     C90037   4.190   2.495   1.734 -0.5424  0.5733 -0.2344
  683MOL0     C90038   4.117   2.429   1.617 -0.6487  0.1811  0.6565
  683MOL0     C90039   4.131   2.497   1.479 -0.0110  0.0178 -0.8418
  683MOL0     C90040   4.005   2.479   1.392 -0.3523 -0.7176 -0.4327
  683MOL0     N90041   4.038   2.551   1.269  0.0751 -0.2024 -0.4279
  683MOL0     C90042   4.024   2.494   1.150  0.6962  0.7511  0.3911
  683MOL0     C90043   4.043   2.585   1.056  0.1717 -1.0832  0.0597
  683MOL0     C90044   4.070   2.576   0.907  0.5105  0.4138  0.5665
  683MOL0     C90045   3.926   2.579   0.848  0.0811  0.7670 -0.2383
  683MOL0     C90046   3.924   2.612   0.703 -0.2407  0.4245  0.0268
  683MOL0     C90047   3.903   2.768   0.687  1.0698  1.4861 -0.0801
  683MOL0     O90048   3.951   2.805   0.558  0.2207  0.1385 -0.3534
  683MOL0     C90049   4.007   2.936   0.546  0.4214  0.2089  0.0699
  683MOL0     C90050   3.995   3.041   0.645  0.3341  0.6204 -0.3918
  683MOL0     C90051   4.033   3.177   0.603 -0.2004  0.0990 -0.8205
  683MOL0     C90052   4.089   3.204   0.479  0.3744  0.3163  0.2880
  683MOL0     C90053   4.134   3.333   0.438  1.5124 -0.4667 -1.0425
  683MOL0     O90054   4.098   3.435   0.520  0.2621 -0.2953  0.6430
  683MOL0     C90055   4.127   3.567   0.486 -0.1145  0.5762  0.2387
  683MOL0     C90056   4.103   3.625   0.360 -0.5001 -0.0077  0.5913
  683MOL0     C90057   4.148   3.768   0.341  0.6564  0.7919 -0.4967
  683MOL0     C90058   4.204   3.840   0.448 -0.5504  0.1024 -0.4618
  683MOL0     O90059   4.251   3.969   0.440 -0.1698  0.2844 -0.0477
  683MOL0     C90060   4.305   4.022   0.325 -0.4463  0.4516 -0.1855
  683MOL0     C90061   4.222   4.142   0.266 -0.3348  0.7130 -0.4655
  683MOL0     C90062   4.294   4.222   0.152  0.6738  0.5387 -0.3530
  683MOL0     C90063   4.322   4.130   0.025 -0.3530  0.7522  0.1965
  683MOL0     C90064   4.400   4.207  -0.085  0.1827 -0.2667  0.1010
  683MOL0     C90065   4.343   4.340  -0.140  0.1824 -0.2516 -0.3698
  683MOL0     C90066   4.418   4.395  -0.262  0.0128 -0.3165 -0.2837
  683MOL0     C90067   4.500   4.302  -0.350  0.1976 -0.3049  0.3396
  683MOL0    Cl90068   4.542   4.391  -0.504  0.5782 -0.3062 -0.3216
  683MOL0     C90069   4.215   3.775   0.570 -0.3542  0.1874 -0.9231
  683MOL0     C90070   4.181   3.643   0.589  0.7938 -0.8743 -0.0588
  683MOL0     O90071   4.165   3.340   0.324 -0.4450 -0.2738 -0.4189
  683MOL0     C90072   4.106   3.090   0.391 -0.2226  0.0617  0.0351
  683MOL0     C90073   4.061   2.970   0.427  0.4813  0.1062  0.0950
  683MOL0     N90074   4.066   2.698   1.123 -0.2292 -0.7827  0.1234
  683MOL0     N90075   4.049   2.679   1.248 -0.0145 -0.4646  0.1077
  683MOL0     C90076   4.736   2.858   1.594 -0.3221 -0.2178 -0.4520
  683MOL0     C90077   4.826   2.825   1.484 -0.0167  0.8987  0.4633
  683MOL0     C90078   5.097   2.756   1.208 -0.2773  0.2128 -0.2343
  683MOL0     C90079   5.042   2.726   1.086  0.4186  0.2445 -0.0660
  683MOL0     C90080   5.114   2.782   0.972  0.1854 -0.9212  0.7253
  683MOL0     C90081   5.230   2.855   0.981 -0.1256 -0.1431 -0.3939
  683MOL0     O90082   5.309   2.917   0.890  0.2071  0.9634 -1.0809
  683MOL0     C90083   5.265   2.947   0.759  0.1429  0.3155  0.7517
  683MOL0     C90084   5.382   3.016   0.686  0.4658 -0.8461  0.2223
  683MOL0     C90085   5.393   3.165   0.727  0.9019 -0.4854  0.8282
  683MOL0     C90086   5.457   3.252   0.612  0.6904  0.0687  0.5951
  683MOL0     C90087   5.494   3.393   0.649 -0.2048  1.0308 -0.6525
  683MOL0     C90088   5.540   3.489   0.698 -0.8940  0.5629  0.2193
  683MOL0     C90089   5.280   2.876   1.102  0.4046  0.1950 -0.6245
  683MOL0     C90090   5.215   2.836   1.217  0.0616  0.6156  0.0379
  683MOL0     H90091   4.824   2.485   1.504 -0.0134 -0.2642  1.2544
  683MOL0     H90092   4.692   2.527   1.699 -0.1603 -0.5307 -1.0475
  683MOL0     H90093   4.460   2.712   1.661 -1.5334  0.0374 -0.9039
  683MOL0     H90094   4.423   2.837   1.777 -0.1274 -1.0024  0.2102
  683MOL0     H90095   4.347   2.692   1.907  0.7629  2.6518 -2.6850
  683MOL0     H90096   4.512   2.640   1.953 -0.4510  1.4177  1.0576
  683MOL0     H90097   4.389   2.442   1.922 -1.0829  1.4083  0.9093
  683MOL0     H90098   4.528   2.456   1.814 -0.1934  0.9783 -2.2733
  683MOL0     H90099   4.378   2.461   1.617 -0.9221 -1.2885 -0.9972
  683MOL0     H90100   4.338   2.337   1.735 -2.6639  0.5983 -3.0665
  683MOL0     H90101   4.175   2.604   1.736 -2.2906  0.3638  1.5252
  683MOL0     H90102   4.144   2.460   1.827  0.5870 -0.9882 -0.2404
  683MOL0     H90103   4.014   2.421   1.654 -0.5386 -0.0799  0.9166
  683MOL0     H90104   4.149   2.325   1.604 -1.8762 -0.0751 -0.5373
  683MOL0     H90105   4.142   2.603   1.503  2.2223 -0.2228 -0.5706
  683MOL0     H90106   4.215   2.464   1.418 -0.6376 -2.2971 -0.5421
  683MOL0     H90107   3.911   2.509   1.440  0.8746 -1.2161  2.4742
  683MOL0     H90108   3.991   2.373   1.366 -1.9979 -0.6462  0.0481
  683MOL0     H90109   4.009   2.390   1.122 -0.5150  1.7654 -3.2817
  683MOL0     H90110   4.109   2.476   0.886 -0.2514  0.4996 -1.5770
  683MOL0     H90111   4.133   2.655   0.865  1.0097 -0.9281 -1.3263
  683MOL0     H90112   3.877   2.651   0.915 -0.0742 -0.4436  0.9980
  683MOL0     H90113   3.876   2.482   0.861 -1.5575  1.6378  0.3126
  683MOL0     H90114   4.019   2.581   0.660 -1.0352  0.0528 -1.5288
  683MOL0     H90115   3.845   2.551   0.659  1.3945 -1.5136 -0.3235
  683MOL0     H90116   3.947   2.820   0.773  1.0680 -0.8131  1.3967
  683MOL0     H90117   3.794   2.783   0.687  1.0294  1.2100 -0.4183
  683MOL0     H90118   3.953   3.027   0.744  0.4243 -0.7403 -0.5316
  683MOL0     H90119   4.014   3.249   0.682  1.5932  0.3894 -0.5951
  683MOL0     H90120   4.058   3.568   0.279 -0.5378  3.3885 -2.0348
  683MOL0     H90121   4.146   3.817   0.244 -1.8280 -2.3098 -2.2087
  683MOL0     H90122   4.317   3.955   0.240  4.4032 -3.2722  2.8784
  683MOL0     H90123   4.406   4.062   0.342 -0.5998  0.0092  2.1037
  683MOL0     H90124   4.202   4.220   0.341  1.7325  0.6711  0.2137
  683MOL0     H90125   4.123   4.101   0.248 -0.8671  0.5596  2.3458
  683MOL0     H90126   4.383   4.271   0.193  1.0718 -1.6326  1.6101
  683MOL0     H90127   4.229   4.306   0.129  1.4864  1.8935  1.9372
  683MOL0     H90128   4.376   4.041   0.059 -2.3941  0.1213  2.0944
  683MOL0     H90129   4.228   4.094  -0.018  0.6151 -2.2808  0.3821
  683MOL0     H90130   4.396   4.134  -0.167 -3.3180 -0.0400 -0.0765
  683MOL0     H90131   4.503   4.225  -0.054  1.4416  0.4759 -4.0080
  683MOL0     H90132   4.352   4.414  -0.060  0.0048 -1.9162  1.2642
  683MOL0     H90133   4.239   4.329  -0.173  0.1628  1.1463 -0.8578
  683MOL0     H90134   4.351   4.449  -0.330 -1.0727 -0.7841  0.4032
  683MOL0     H90135   4.497   4.460  -0.223 -0.8684  1.0812 -0.7581
  683MOL0     H90136   4.439   4.213  -0.366 -0.1819 -0.2213  1.2327
  683MOL0     H90137   4.594   4.272  -0.302  0.1294  1.3640  1.6312
  683MOL0     H90138   4.276   3.819   0.648 -0.1684  0.2296 -1.0932
  683MOL0     H90139   4.196   3.591   0.683 -1.9069 -3.3418 -0.8632
  683MOL0     H90140   4.146   3.093   0.290 -0.2558  0.1075  0.0236
  683MOL0     H90141   4.057   2.898   0.345  1.0049  0.7287 -0.4878
  683MOL0     H90142   4.719   2.960   1.628  1.5316  0.3701 -1.1175
  683MOL0     H90143   4.864   2.904   1.420 -0.9883  2.0655  1.2679
  683MOL0     H90144   4.949   2.671   1.070  1.2059 -0.7672 -1.4102
  683MOL0     H90145   5.068   2.777   0.873 -1.6775  2.4189  1.2973
  683MOL0     H90146   5.187   3.024   0.767  2.1764  2.4241  1.4187
  683MOL0     H90147   5.225   2.866   0.698  0.5980  0.2119  0.5874
  683MOL0     H90148   5.477   2.974   0.719  2.7629  4.4581  1.2640
  683MOL0     H90149   5.381   2.994   0.579 -1.5758 -2.0047  0.4249
  683MOL0     H90150   5.459   3.173   0.814  3.3558  1.5038 -1.0595
  683MOL0     H90151   5.297   3.212   0.750  1.7394  2.6586 -1.4843
  683MOL0     H90152   5.538   3.196   0.564 -2.3160 -2.3884 -2.1217
  683MOL0     H90153   5.390   3.264   0.527 -0.7421 -1.4782  1.4353
  683MOL0     H90154   5.581   3.585   0.721 -1.3970  1.6281 -2.9486
  683MOL0     H90155   5.370   2.935   1.111 -0.5261  1.8333 -1.5367
  683MOL0     H90156   5.263   2.846   1.314 -0.4851 -1.1719  0.5242
  684MOL0     O90157   5.507   1.606   7.791  0.0248  1.1352 -0.1383
  684MOL0     C90158   5.509   1.586   7.673  0.4457 -0.4947  0.0101
  684MOL0     O90159   5.405   1.537   7.600  0.2062  0.9277  0.1570
  684MOL0     C90160   5.295   1.504   7.671  0.1675  0.1559  0.1315
  684MOL0     C90161   5.292   1.398   7.761  0.1995  1.2460 -0.9488
  684MOL0     C90162   5.187   1.385   7.856 -0.1864 -0.2201  0.4381
  684MOL0     C90163   5.076   1.470   7.848 -0.4863 -0.7090  0.8936
  684MOL0     O90164   4.969   1.455   7.922  0.5661  0.1766 -0.0426
  684MOL0     C90165   4.980   1.545   8.036  0.2043  0.3663 -0.1492
  684MOL0     C90166   4.935   1.486   8.172 -0.0358  0.0935 -0.4264
  684MOL0     C90167   4.958   1.587   8.290  0.0833 -0.4293  0.7959
  684MOL0     C90168   4.885   1.557   8.420 -0.1234  0.4807  0.4877
  684MOL0     C90169   4.747   1.613   8.415  0.7586 -0.0746 -0.6170
  684MOL0     C90170   4.662   1.586   8.541 -0.5857 -0.0584  0.2608
  684MOL0     C90171   4.520   1.636   8.511  0.4753 -0.4687 -0.0316
  684MOL0     C90172   4.497   1.787   8.493  0.9242 -0.0220 -0.0264
  684MOL0     N90173   4.528   1.859   8.613 -0.7009 -0.2784  0.2093
  684MOL0     C90174   4.619   1.963   8.619 -0.0796 -0.2411 -0.4949
  684MOL0     C90175   4.624   1.988   8.755  0.9191 -0.8692  1.2198
  684MOL0     C90176   4.671   2.109   8.835 -0.2357 -0.3407 -0.3909
  684MOL0     C90177   4.559   2.162   8.931 -0.4439  0.5905  0.3449
  684MOL0     C90178   4.432   2.211   8.850 -1.1355 -0.4440  0.4584
  684MOL0     C90179   4.303   2.120   8.884 -0.2535 -0.8270 -0.3402
  684MOL0     O90180   4.189   2.177   8.838 -0.4596 -0.2992  0.8557
  684MOL0     C90181   4.071   2.103   8.826 -0.6115 -0.6283  1.1363
  684MOL0     C90182   4.034   1.988   8.895 -0.0413 -0.4221 -0.2321
  684MOL0     C90183   3.905   1.939   8.893  0.6121 -1.1992  0.4524
  684MOL0     C90184   3.798   2.010   8.833 -0.1877  0.3334 -0.3570
  684MOL0     C90185   3.659   1.970   8.853  0.1965  0.4327  0.3260
  684MOL0     O90186   3.567   2.016   8.769 -0.0693  0.4830  0.6284
  684MOL0     C90187   3.442   1.990   8.806  0.8673  0.4256 -0.9330
  684MOL0     C90188   3.361   1.983   8.687 -0.1632  0.7635 -0.3014
  684MOL0     C90189   3.230   1.941   8.697 -0.3070 -0.6255 -0.0834
  684MOL0     C90190   3.171   1.928   8.825  0.4298  0.1538  1.0811
  684MOL0     O90191   3.028   1.916   8.824 -0.6129 -0.5580  0.1870
  684MOL0     C90192   2.972   2.031   8.780 -0.2158 -1.0905 -0.1936
  684MOL0     C90193   2.828   2.020   8.826  0.4533  0.7373 -0.3664
  684MOL0     C90194   2.727   2.095   8.735  0.1132  0.5644  0.3607
  684MOL0     C90195   2.578   2.034   8.736 -0.5627  0.0532  0.0609
  684MOL0     C90196   2.478   2.138   8.684 -0.1652 -1.1050  0.8872
  684MOL0     C90197   2.333   2.097   8.697  0.7251  0.2878  0.3917
  684MOL0     C90198   2.234   2.181   8.609 -0.2269 -1.6892 -0.0452
  684MOL0     C90199   2.206   2.114   8.476  0.0330  0.6994  0.2262
  684MOL0    Cl90200   2.340   2.098   8.349 -0.5560  0.1074  0.3102
  684MOL0     C90201   3.241   1.957   8.940 -0.3580 -0.0555  0.1612
  684MOL0     C90202   3.380   1.978   8.933  0.3100  0.5006 -0.7704
  684MOL0     O90203   3.644   1.876   8.928  0.2191  0.3261 -0.2794
  684MOL0     C90204   3.836   2.116   8.753 -0.5570 -0.2484  0.9122
  684MOL0     C90205   3.964   2.166   8.754  0.3084 -1.2447  0.1238
  684MOL0     N90206   4.563   1.885   8.816  0.2833  0.1776  0.0711
  684MOL0     N90207   4.500   1.811   8.730  0.1232 -0.3377 -0.8332
  684MOL0     C90208   5.067   1.560   7.742  0.3969 -0.9977  0.4902
  684MOL0     C90209   5.176   1.586   7.657  0.4175 -0.1011  0.0043
  684MOL0     C90210   5.637   1.623   7.606 -0.4298 -0.4391  0.6475
  684MOL0     C90211   5.730   1.707   7.662  0.0448 -0.1491 -0.1988
  684MOL0     C90212   5.855   1.737   7.604 -0.2828  0.1276  0.2572
  684MOL0     C90213   5.893   1.697   7.477  0.4179  0.5592  0.4839
  684MOL0     O90214   6.006   1.730   7.403  0.1275  0.5144 -0.0584
  684MOL0     C90215   6.102   1.822   7.453  0.3646  1.0573  0.5685
  684MOL0     C90216   6.057   1.969   7.423  0.7009 -1.3859  0.3777
  684MOL0     C90217   6.104   2.008   7.279  0.4642 -0.2776  0.1909
  684MOL0     C90218   6.105   2.158   7.232 -0.7332 -1.0616  0.7907
  684MOL0     C90219   6.183   2.253   7.323 -0.4538  0.2961  0.3254
  684MOL0     C90220   6.269   2.318   7.379 -0.6153 -0.3103  0.5555
  684MOL0     C90221   5.801   1.606   7.422  0.9670  0.0804  0.4851
  684MOL0     C90222   5.672   1.579   7.477 -0.7888  0.0493 -0.3398
  684MOL0     H90223   5.375   1.333   7.788 -1.2928  0.1288  1.1912
  684MOL0     H90224   5.192   1.299   7.922 -0.3744  0.5565  1.4782
  684MOL0     H90225   4.922   1.636   8.020 -6.0724 -2.3672  3.2102
  684MOL0     H90226   5.081   1.583   8.055  0.3200 -0.8377  2.0437
  684MOL0     H90227   4.987   1.392   8.188 -0.6831  0.0594  1.8180
  684MOL0     H90228   4.827   1.468   8.173 -0.4012  2.0442 -0.3979
  684MOL0     H90229   4.934   1.691   8.269 -1.2350 -0.8225  0.2327
  684MOL0     H90230   5.064   1.582   8.317  0.0320 -2.0200  0.8206
  684MOL0     H90231   4.887   1.451   8.444 -0.3830  0.3046 -0.2457
  684MOL0     H90232   4.948   1.600   8.499 -1.6037  2.6987  0.5624
  684MOL0     H90233   4.691   1.564   8.335 -0.8706  0.2785  0.2686
  684MOL0     H90234   4.745   1.722   8.398  1.6518 -0.1110 -1.0412
  684MOL0     H90235   4.703   1.651   8.619  1.0903  0.6958 -1.2012
  684MOL0     H90236   4.657   1.481   8.568 -4.3625 -1.6718 -4.9768
  684MOL0     H90237   4.496   1.575   8.424  1.9440 -0.8658 -0.1937
  684MOL0     H90238   4.447   1.595   8.581 -0.4725 -2.3236 -1.9995
  684MOL0     H90239   4.393   1.808   8.466  1.1369  1.8490  0.5059
  684MOL0     H90240   4.550   1.832   8.408  2.4242  3.6849  2.5977
  684MOL0     H90241   4.666   2.023   8.541 -0.4578 -0.8061 -1.1706
  684MOL0     H90242   4.699   2.194   8.772  0.5854 -0.9586 -0.8843
  684MOL0     H90243   4.753   2.068   8.894 -0.4739  2.1538  1.8477
  684MOL0     H90244   4.592   2.239   9.001 -2.2741  2.5761 -0.8666
  684MOL0     H90245   4.517   2.085   8.997 -0.6049 -0.9809 -1.5104
  684MOL0     H90246   4.412   2.314   8.881  2.1211  1.7850 -3.8566
  684MOL0     H90247   4.456   2.216   8.744  3.1162  4.8352  1.2481
  684MOL0     H90248   4.290   2.114   8.992  0.3440  0.9176 -0.1392
  684MOL0     H90249   4.311   2.014   8.856 -2.8590 -1.9022  2.3955
  684MOL0     H90250   4.116   1.944   8.951  0.8714 -3.4157 -3.5320
  684MOL0     H90251   3.884   1.851   8.953 -1.9591  1.0621  3.1805
  684MOL0     H90252   3.418   1.999   8.595 -0.2760 -0.3196 -0.5743
  684MOL0     H90253   3.177   1.923   8.604 -0.3465 -2.2566  0.2282
  684MOL0     H90254   2.973   2.032   8.670 -1.6018 -2.9956 -0.2696
  684MOL0     H90255   3.008   2.122   8.829  0.8218  0.2060 -3.0949
  684MOL0     H90256   2.817   2.053   8.930 -2.1711 -0.3740 -0.2215
  684MOL0     H90257   2.807   1.913   8.838 -4.5858  1.6294  1.3598
  684MOL0     H90258   2.758   2.097   8.631 -0.0952  2.4053  0.3072
  684MOL0     H90259   2.713   2.198   8.768 -1.6457  0.1668  0.9726
  684MOL0     H90260   2.574   1.938   8.684  0.6814 -0.2466  0.4763
  684MOL0     H90261   2.559   2.008   8.841  1.0648  3.6612  1.4035
  684MOL0     H90262   2.495   2.173   8.582  2.7094  1.7390  2.1883
  684MOL0     H90263   2.485   2.222   8.754 -3.2265 -0.5707  0.7120
  684MOL0     H90264   2.302   2.080   8.800 -0.3244  0.5878  0.1428
  684MOL0     H90265   2.342   1.999   8.650  1.1523  0.0382  0.9820
  684MOL0     H90266   2.137   2.196   8.657  0.2564 -2.9712  1.3978
  684MOL0     H90267   2.286   2.274   8.585  0.7618 -1.3622  3.0053
  684MOL0     H90268   2.121   2.170   8.436  0.3983  1.1981  0.1375
  684MOL0     H90269   2.158   2.019   8.499  0.3358  0.6793  0.7999
  684MOL0     H90270   3.190   1.966   9.035  1.2382  1.8156  0.8892
  684MOL0     H90271   3.439   1.993   9.023  3.7255  2.9920 -3.1484
  684MOL0     H90272   3.757   2.164   8.696  0.7946  0.2900 -0.5928
  684MOL0     H90273   3.977   2.266   8.714 -1.7455  0.5787  3.6252
  684MOL0     H90274   4.974   1.616   7.738  1.4151  0.8802  1.9047
  684MOL0     H90275   5.166   1.669   7.587 -2.4337  0.1962  0.6513
  684MOL0     H90276   5.714   1.742   7.764  1.0140 -1.3715  0.4062
  684MOL0     H90277   5.910   1.823   7.641 -1.8334  0.5954  1.6315
  684MOL0     H90278   6.197   1.817   7.399 -0.4166  1.1032 -0.8532
  684MOL0     H90279   6.116   1.807   7.561 -0.3009  4.8761  1.3255
  684MOL0     H90280   5.953   1.998   7.436  1.5357  4.1176 -1.9121
  684MOL0     H90281   6.110   2.031   7.496 -0.3833  1.1419 -0.8595
  684MOL0     H90282   6.037   1.952   7.213  0.5813 -1.2750  0.9011
  684MOL0     H90283   6.205   1.967   7.262  0.3094 -1.1158  1.2087
  684MOL0     H90284   6.164   2.164   7.139 -0.8364 -0.4434  0.7615
  684MOL0     H90285   6.005   2.200   7.218 -0.2427  0.2589  1.1618
  684MOL0     H90286   6.337   2.388   7.424 -1.0090 -0.7613  1.9001
  684MOL0     H90287   5.816   1.564   7.323  2.0376  1.4015  0.0613
  684MOL0     H90288   5.600   1.524   7.418 -1.3569 -0.3032  0.6608
  685MOL0     O90289   5.922   2.042   4.114  0.1079  0.8551 -0.3045
  685MOL0     C90290   5.990   2.123   4.177  0.1475 -0.2608 -0.4707
  685MOL0     O90291   5.989   2.256   4.156  0.3290 -0.4243  0.4916
  685MOL0     C90292   5.892   2.321   4.079 -0.3555  0.2018  0.7847
  685MOL0     C90293   5.932   2.401   3.968 -0.0964 -0.3444 -0.0463
  685MOL0     C90294   5.827   2.465   3.898  0.5204 -0.1437  0.8061
  685MOL0     C90295   5.694   2.456   3.932  0.2230  0.2047 -0.7083
  685MOL0     O90296   5.608   2.541   3.861  0.3171  0.3302 -0.2259
  685MOL0     C90297   5.471   2.510   3.873  0.0384  0.8297 -0.3994
  685MOL0     C90298   5.408   2.581   3.759 -0.1957 -0.1657 -0.5254
  685MOL0     C90299   5.257   2.541   3.759  0.0635 -0.5764 -0.0891
  685MOL0     C90300   5.220   2.402   3.734  0.5698  0.0946  0.3011
  685MOL0     C90301   5.072   2.399   3.705 -0.6171 -0.2185  1.2021
  685MOL0     C90302   5.024   2.254   3.671  0.2657 -0.4863 -0.2233
  685MOL0     C90303   5.010   2.158   3.784 -1.2106 -0.1820  0.0432
  685MOL0     C90304   4.966   2.019   3.734  0.2949 -0.2931 -0.0785
  685MOL0     N90305   4.851   2.015   3.647  0.0714 -0.6049  0.2915
  685MOL0     C90306   4.729   2.067   3.686  0.2867 -0.9544 -0.1528
  685MOL0     C90307   4.662   2.099   3.570 -0.7399  0.5619  1.0590
  685MOL0     C90308   4.546   2.176   3.542  0.5192  0.6672 -0.3511
  685MOL0     C90309   4.569   2.324   3.502 -1.2697 -0.1390  0.7813
  685MOL0     C90310   4.602   2.349   3.347  1.0856  0.4975 -0.4958
  685MOL0     C90311   4.490   2.283   3.254 -0.0814  1.0184  0.8678
  685MOL0     O90312   4.351   2.323   3.291 -1.0737 -0.1422 -1.1290
  685MOL0     C90313   4.247   2.342   3.207  0.4659  0.9030  0.8586
  685MOL0     C90314   4.270   2.346   3.065  0.0971  0.5320  0.5122
  685MOL0     C90315   4.158   2.363   2.979 -0.9314 -0.0991  0.4135
  685MOL0     C90316   4.022   2.356   3.029 -0.1228  0.1446 -0.6343
  685MOL0     C90317   3.909   2.358   2.929 -0.3452 -0.0384  0.9126
  685MOL0     O90318   3.785   2.327   2.973 -0.2628  0.0896  0.2703
  685MOL0     C90319   3.686   2.326   2.883  0.3680  0.3006 -0.0804
  685MOL0     C90320   3.609   2.211   2.869  1.2687 -0.4816 -0.6242
  685MOL0     C90321   3.488   2.200   2.800 -0.1085 -0.2651  1.1794
  685MOL0     C90322   3.441   2.312   2.732  0.1075  0.1361 -0.7070
  685MOL0     O90323   3.318   2.313   2.662  0.8743  0.7243  0.6803
  685MOL0     C90324   3.284   2.404   2.556  1.0022 -0.4494 -0.4842
  685MOL0     C90325   3.173   2.505   2.600 -0.3619  0.9601 -0.1758
  685MOL0     C90326   3.160   2.615   2.499 -0.1506  0.1867  0.3951
  685MOL0     C90327   3.154   2.572   2.356 -0.5182 -0.8980  0.2540
  685MOL0     C90328   3.093   2.687   2.257  0.3997 -0.7953 -0.4415
  685MOL0     C90329   3.188   2.801   2.250 -0.3952 -0.8214 -0.3813
  685MOL0     C90330   3.183   2.897   2.131  0.3902  0.2989 -0.1013
  685MOL0     C90331   3.244   3.036   2.184 -0.0423  1.0435 -0.2882
  685MOL0    Cl90332   3.132   3.117   2.291  0.1941  0.1088  0.1626
  685MOL0     C90333   3.518   2.435   2.736  0.5451  0.3923  0.1979
  685MOL0     C90334   3.641   2.441   2.807  0.5426 -0.2615  0.1764
  685MOL0     O90335   3.942   2.357   2.809  0.1594  0.5769 -0.0637
  685MOL0     C90336   4.002   2.342   3.165  0.6250 -0.1725 -0.6047
  685MOL0     C90337   4.117   2.341   3.253  0.0379  1.0642 -1.0232
  685MOL0     N90338   4.744   2.052   3.463  0.1202  0.7999 -0.4468
  685MOL0     N90339   4.857   2.011   3.510 -0.9505  0.8901 -0.1205
  685MOL0     C90340   5.661   2.378   4.049 -0.6645 -0.5390  0.2477
  685MOL0     C90341   5.753   2.298   4.110 -0.5467 -0.2821  0.5519
  685MOL0     C90342   6.097   2.063   4.269 -0.0873 -0.6541  0.1719
  685MOL0     C90343   6.089   1.925   4.300 -0.2318  0.1378  0.2425
  685MOL0     C90344   6.202   1.859   4.369  0.1877  0.9154  0.1733
  685MOL0     C90345   6.315   1.934   4.405 -0.0125  0.7443 -0.0277
  685MOL0     O90346   6.413   1.880   4.486  0.1213 -0.0506 -0.0428
  685MOL0     C90347   6.411   1.737   4.517  1.3472  0.4943 -0.1359
  685MOL0     C90348   6.521   1.716   4.619 -0.4811 -0.6531 -0.4359
  685MOL0     C90349   6.553   1.576   4.646 -0.3950  0.6149 -0.1824
  685MOL0     C90350   6.474   1.503   4.751 -0.0944 -0.4182  0.1687
  685MOL0     C90351   6.467   1.579   4.877  0.3999  0.2071 -0.6618
  685MOL0     C90352   6.450   1.658   4.966  0.2981  0.0780  0.3698
  685MOL0     C90353   6.320   2.065   4.353  0.3876  0.4339  0.0505
  685MOL0     C90354   6.216   2.132   4.290  0.0284  0.3468  0.5602
  685MOL0     H90355   6.035   2.392   3.937  0.3299  0.5022  1.0674
  685MOL0     H90356   5.840   2.513   3.802 -3.7027 -1.6147 -0.7274
  685MOL0     H90357   5.425   2.545   3.966 -1.2034 -0.7058 -0.3942
  685MOL0     H90358   5.456   2.402   3.868  2.6579  0.1283  3.1817
  685MOL0     H90359   5.448   2.534   3.669 -3.2512 -1.7457 -1.1983
  685MOL0     H90360   5.412   2.690   3.765  0.8564 -0.1545 -1.2599
  685MOL0     H90361   5.212   2.606   3.683  3.4306  2.7340  0.4015
  685MOL0     H90362   5.215   2.585   3.850 -2.8363 -2.3478 -0.4441
  685MOL0     H90363   5.278   2.364   3.650  1.2246  2.9346 -0.6320
  685MOL0     H90364   5.241   2.350   3.829  1.5125 -0.9631 -0.4597
  685MOL0     H90365   5.067   2.468   3.620 -0.1331 -2.1551 -0.5022
  685MOL0     H90366   5.023   2.448   3.789 -1.2437  2.2269 -0.5026
  685MOL0     H90367   5.090   2.207   3.597  1.5245  1.3130 -0.3120
  685MOL0     H90368   4.935   2.275   3.611  0.7507  1.6766 -0.2466
  685MOL0     H90369   5.110   2.142   3.827 -1.2744 -0.3086  0.1458
  685MOL0     H90370   4.958   2.192   3.874 -0.2487  3.0977 -0.5160
  685MOL0     H90371   4.928   1.969   3.824 -3.2052  3.9573  1.1476
  685MOL0     H90372   5.052   1.961   3.700 -0.3400  0.4979 -3.3541
  685MOL0     H90373   4.679   2.091   3.779  0.4219 -0.6981 -0.1458
  685MOL0     H90374   4.493   2.185   3.637  0.7532 -0.2206 -0.1305
  685MOL0     H90375   4.478   2.122   3.475 -1.1167  1.5392  0.5394
  685MOL0     H90376   4.663   2.346   3.552 -0.0697 -2.2724 -0.4323
  685MOL0     H90377   4.486   2.391   3.529  0.6050  2.7808 -0.2359
  685MOL0     H90378   4.600   2.457   3.329  0.2844  1.2486  3.2946
  685MOL0     H90379   4.705   2.323   3.322  2.1307  1.7078  2.2300
  685MOL0     H90380   4.510   2.176   3.257 -1.8473  0.6099 -0.7367
  685MOL0     H90381   4.526   2.316   3.156 -0.6300  0.4065  0.4590
  685MOL0     H90382   4.373   2.361   3.033  0.1602  1.2042  1.0192
  685MOL0     H90383   4.185   2.400   2.880 -0.5140  0.2769  0.6618
  685MOL0     H90384   3.635   2.130   2.936 -2.1980  0.3464  1.9978
  685MOL0     H90385   3.420   2.116   2.812  0.5177 -0.8873  0.4912
  685MOL0     H90386   3.246   2.350   2.468 -0.9343 -5.2145  2.8945
  685MOL0     H90387   3.377   2.449   2.518  0.7401 -1.5034 -2.5402
  685MOL0     H90388   3.195   2.548   2.698  2.0637 -1.6175  0.5415
  685MOL0     H90389   3.080   2.449   2.613 -0.8869  1.9359  0.3608
  685MOL0     H90390   3.250   2.678   2.498  1.1730 -1.4527  3.3746
  685MOL0     H90391   3.075   2.671   2.538 -2.6698 -2.6638 -0.6040
  685MOL0     H90392   3.242   2.519   2.319 -2.1276 -1.6373 -2.8679
  685MOL0     H90393   3.065   2.508   2.359 -2.0643  1.2004  2.2136
  685MOL0     H90394   2.995   2.725   2.285  2.2843  0.8753  5.2254
  685MOL0     H90395   3.065   2.652   2.157 -2.3738 -0.5075  0.1745
  685MOL0     H90396   3.292   2.771   2.261 -0.8498 -1.5754  3.5524
  685MOL0     H90397   3.160   2.860   2.338  0.0498  0.0378 -0.8080
  685MOL0     H90398   3.235   2.855   2.045 -0.4471  1.6062 -1.2821
  685MOL0     H90399   3.078   2.919   2.108  0.8006 -0.7803 -3.5311
  685MOL0     H90400   3.278   3.105   2.107  1.2791 -3.3943 -4.1317
  685MOL0     H90401   3.334   3.018   2.244 -0.1186  0.2414 -0.4092
  685MOL0     H90402   3.490   2.530   2.691 -2.6969 -0.1737  0.7771
  685MOL0     H90403   3.703   2.531   2.804 -1.6663  1.4312  1.8771
  685MOL0     H90404   3.903   2.320   3.205 -0.2666 -0.7474 -2.9829
  685MOL0     H90405   4.103   2.339   3.361  1.9406 -4.2861 -0.5991
  685MOL0     H90406   5.554   2.376   4.067 -0.2856 -1.1556  2.8925
  685MOL0     H90407   5.739   2.223   4.186 -0.2330 -0.3115  0.5842
  685MOL0     H90408   6.011   1.859   4.265  1.1563 -0.7036 -1.4200
  685MOL0     H90409   6.202   1.754   4.394  1.6286  1.0468  0.8427
  685MOL0     H90410   6.417   1.668   4.432  0.6608 -1.0956  1.0431
  685MOL0     H90411   6.319   1.714   4.572  0.5833 -1.0169 -1.9507
  685MOL0     H90412   6.609   1.756   4.569  0.2646 -2.3324 -0.5484
  685MOL0     H90413   6.488   1.771   4.707 -3.6614 -2.8023 -0.1055
  685MOL0     H90414   6.659   1.568   4.672 -0.4662 -0.7535 -0.2546
  685MOL0     H90415   6.546   1.517   4.554  0.2193  0.5884 -0.2197
  685MOL0     H90416   6.374   1.476   4.718 -0.2187 -2.2343  1.8420
  685MOL0     H90417   6.533   1.411   4.762  3.2306  1.3330 -1.3751
  685MOL0     H90418   6.435   1.735   5.040  4.5414  0.9467  0.5784
  685MOL0     H90419   6.409   2.122   4.380  1.3089 -0.5962 -0.7370
  685MOL0     H90420   6.224   2.232   4.249 -1.9330  0.5337  0.5331
  686MOL0     O90421  10.016   0.176   4.166 -0.0308 -0.0436 -0.3490
  686MOL0     C90422   9.908   0.205   4.130  0.4778  0.2201 -0.0527
  686MOL0     O90423   9.876   0.328   4.077 -0.1899 -0.4165  0.8478
  686MOL0     C90424   9.973   0.426   4.078 -0.8071  0.4002 -0.3082
  686MOL0     C90425  10.080   0.426   3.987 -0.4047  0.6927 -0.4194
  686MOL0     C90426  10.181   0.520   4.006  0.0392  0.9676 -0.6426
  686MOL0     C90427  10.163   0.615   4.112  0.0759  0.4190 -1.1632
  686MOL0     O90428  10.265   0.704   4.130 -0.0201 -0.0612 -0.2232
  686MOL0     C90429  10.235   0.846   4.120 -0.0989  0.5549 -0.4854
  686MOL0     C90430  10.227   0.870   3.972 -0.8365 -0.4781  0.0221
  686MOL0     C90431  10.361   0.844   3.894  0.3865 -0.3464 -0.1182
  686MOL0     C90432  10.343   0.865   3.741  0.1448  1.1676 -0.4327
  686MOL0     C90433  10.475   0.920   3.682  0.2434  1.2683  0.3179
  686MOL0     C90434  10.494   0.913   3.524  0.7302 -0.8042  0.0067
  686MOL0     C90435  10.630   0.980   3.469 -0.0530 -0.7388 -0.6072
  686MOL0     C90436  10.632   0.937   3.324  0.4887 -0.2337  0.1448
  686MOL0     N90437  10.542   1.006   3.240 -0.2710 -0.1956 -0.9857
  686MOL0     C90438  10.530   1.142   3.207  0.9285 -0.0778  0.0968
  686MOL0     C90439  10.432   1.137   3.109  0.1620 -0.5595  0.2423
  686MOL0     C90440  10.364   1.242   3.018  0.4569  0.4344  0.8927
  686MOL0     C90441  10.305   1.356   3.089 -0.6632  0.6465  0.0299
  686MOL0     C90442  10.153   1.352   3.087  0.8588  0.6258  0.1427
  686MOL0     C90443  10.089   1.472   3.148 -0.5621 -0.0489 -0.4627
  686MOL0     O90444  10.115   1.488   3.282  0.4920 -0.4557  0.2362
  686MOL0     C90445  10.018   1.502   3.379  0.4298 -0.5121 -0.3425
  686MOL0     C90446   9.890   1.549   3.363 -0.3428  0.3009 -0.1421
  686MOL0     C90447   9.796   1.557   3.467 -0.0343 -0.0557 -0.1750
  686MOL0     C90448   9.844   1.511   3.594  0.1929 -0.2786  0.0294
  686MOL0     C90449   9.757   1.521   3.717 -0.7352  1.5709 -0.2119
  686MOL0     O90450   9.647   1.589   3.713  0.0104  0.9000  0.0984
  686MOL0     C90451   9.591   1.633   3.836 -0.5899 -0.6020 -0.3100
  686MOL0     C90452   9.467   1.602   3.867  0.8243  0.7207 -0.4488
  686MOL0     C90453   9.403   1.633   3.990 -0.9833  0.7959  0.4849
  686MOL0     C90454   9.473   1.699   4.092 -0.6666 -0.9183  0.2036
  686MOL0     O90455   9.414   1.729   4.209  0.2286  0.3712 -0.4475
  686MOL0     C90456   9.450   1.623   4.297 -0.0511 -0.2078 -0.7457
  686MOL0     C90457   9.386   1.620   4.432 -0.3142  0.1915 -0.3391
  686MOL0     C90458   9.235   1.660   4.424 -1.1529  0.1882  0.0033
  686MOL0     C90459   9.157   1.647   4.554  1.1088 -0.2497 -0.8187
  686MOL0     C90460   9.150   1.504   4.617 -0.0803 -1.1474 -1.0398
  686MOL0     C90461   9.103   1.392   4.521 -0.1936  0.1091 -0.0267
  686MOL0     C90462   8.949   1.391   4.483  0.1149  0.5145 -0.0850
  686MOL0     C90463   8.847   1.349   4.599 -0.1626  0.1468 -0.3748
  686MOL0    Cl90464   8.880   1.167   4.634 -0.2507 -0.5551 -0.2499
  686MOL0     C90465   9.607   1.747   4.059 -0.8929  0.2670 -0.5569
  686MOL0     C90466   9.668   1.702   3.935  0.0247 -0.2129  0.0974
  686MOL0     O90467   9.800   1.468   3.819 -0.1001 -0.2689 -0.4605
  686MOL0     C90468   9.973   1.461   3.610  0.1936 -0.1055 -0.4099
  686MOL0     C90469  10.060   1.459   3.504  0.5208  0.3922  0.1585
  686MOL0     N90470  10.385   1.009   3.091 -0.9477 -0.1590  0.1778
  686MOL0     N90471  10.448   0.929   3.172  0.3440 -0.3681  0.5986
  686MOL0     C90472  10.053   0.607   4.204 -0.5592 -0.5642  1.0481
  686MOL0     C90473   9.956   0.524   4.171  1.4370  0.2816  0.2442
  686MOL0     C90474   9.797   0.103   4.159  0.0328  0.0363  0.7688
  686MOL0     C90475   9.668   0.142   4.185 -0.2618 -0.1360  0.1579
  686MOL0     C90476   9.579   0.049   4.232 -0.0523  0.3441  0.0766
  686MOL0     C90477   9.620  -0.083   4.251 -0.5874 -0.4511 -0.3806
  686MOL0     O90478   9.523  -0.169   4.281 -0.0143  0.3205  0.3739
  686MOL0     C90479   9.480  -0.158   4.416 -0.9823  0.9911 -0.4139
  686MOL0     C90480   9.329  -0.122   4.411  0.1010  0.8835  0.4681
  686MOL0     C90481   9.275  -0.157   4.551  0.7091 -0.9536  0.7208
  686MOL0     C90482   9.127  -0.118   4.552  0.1877  0.9989 -0.1544
  686MOL0     C90483   9.039  -0.176   4.453  0.6309  0.2966  0.4383
  686MOL0     C90484   8.958  -0.215   4.375 -0.4905 -0.1851  1.1208
  686MOL0     C90485   9.743  -0.128   4.211  0.3913 -0.7058 -0.1946
  686MOL0     C90486   9.836  -0.029   4.165  0.3643 -0.2771 -0.3527
  686MOL0     H90487  10.100   0.356   3.906 -2.1148  2.2961 -2.3484
  686MOL0     H90488  10.262   0.533   3.936  2.5194 -1.6565  1.5170
  686MOL0     H90489  10.309   0.911   4.167  1.2699 -0.4001 -1.2665
  686MOL0     H90490  10.139   0.863   4.171 -0.5998 -0.1737 -1.1537
  686MOL0     H90491  10.204   0.975   3.954  1.0863 -0.3064 -1.9988
  686MOL0     H90492  10.143   0.812   3.934 -4.2477  3.6877  0.4140
  686MOL0     H90493  10.403   0.744   3.903  2.5941  0.3277 -1.8322
  686MOL0     H90494  10.441   0.914   3.922  1.0058 -0.0431 -2.4296
  686MOL0     H90495  10.308   0.775   3.688 -4.7041  2.6678 -0.2164
  686MOL0     H90496  10.262   0.937   3.729 -0.3078  0.9190  1.0229
  686MOL0     H90497  10.558   0.876   3.739 -1.0339 -2.3922 -0.4089
  686MOL0     H90498  10.464   1.029   3.693 -1.5530  1.3954 -2.1726
  686MOL0     H90499  10.401   0.952   3.482  1.4103  0.8050 -0.0748
  686MOL0     H90500  10.501   0.806   3.504 -2.8477 -1.2482  0.4730
  686MOL0     H90501  10.611   1.088   3.468  0.9621 -0.5585 -1.5973
  686MOL0     H90502  10.715   0.949   3.530  0.7747 -0.3276 -1.5191
  686MOL0     H90503  10.613   0.829   3.317 -4.3298  0.3919  0.6267
  686MOL0     H90504  10.737   0.956   3.297  0.7727 -0.2437  1.2000
  686MOL0     H90505  10.591   1.227   3.234  0.1380 -0.0922  2.0885
  686MOL0     H90506  10.286   1.183   2.970  2.5527 -3.7038  2.1623
  686MOL0     H90507  10.430   1.274   2.937  1.6033 -0.8569  1.2860
  686MOL0     H90508  10.344   1.449   3.047  1.6163 -0.3555 -0.2504
  686MOL0     H90509  10.346   1.372   3.189 -0.3527  1.5499 -0.2293
  686MOL0     H90510  10.107   1.354   2.988  2.1847 -3.3945 -0.7581
  686MOL0     H90511  10.121   1.254   3.124 -0.9324  0.0533 -2.6279
  686MOL0     H90512   9.981   1.467   3.129 -0.4451 -2.4508 -0.7880
  686MOL0     H90513  10.134   1.561   3.101  0.3007  0.6009  1.5052
  686MOL0     H90514   9.870   1.578   3.260 -1.1620 -2.4633 -0.8536
  686MOL0     H90515   9.694   1.581   3.438 -0.1388 -0.9632 -0.5962
  686MOL0     H90516   9.412   1.564   3.781  0.5663  2.2386 -0.9820
  686MOL0     H90517   9.295   1.628   4.000 -1.0288 -3.4078 -0.5019
  686MOL0     H90518   9.558   1.614   4.315 -0.2838  2.7625  3.7976
  686MOL0     H90519   9.412   1.527   4.260 -0.6640 -1.8121  3.4407
  686MOL0     H90520   9.436   1.701   4.487 -4.4304  1.1008  2.5298
  686MOL0     H90521   9.389   1.520   4.475 -0.9494  0.8714  1.3935
  686MOL0     H90522   9.187   1.596   4.350 -1.0084  0.5730 -0.4266
  686MOL0     H90523   9.220   1.762   4.387 -2.2108 -0.3964 -1.2365
  686MOL0     H90524   9.193   1.723   4.625  0.5176 -1.4051  0.7614
  686MOL0     H90525   9.051   1.670   4.543  1.5191  2.4827  0.2012
  686MOL0     H90526   9.079   1.503   4.700  0.3956 -0.6797 -0.6213
  686MOL0     H90527   9.253   1.487   4.651 -0.6100 -2.3021  0.0697
  686MOL0     H90528   9.132   1.295   4.563 -0.4828 -0.3282 -0.8173
  686MOL0     H90529   9.141   1.388   4.418  0.3200 -1.8762  0.2042
  686MOL0     H90530   8.908   1.489   4.457 -1.6681 -0.5764 -1.5245
  686MOL0     H90531   8.933   1.315   4.406 -1.4060 -0.0463  0.7563
  686MOL0     H90532   8.744   1.361   4.566 -0.4302 -0.6183  0.1509
  686MOL0     H90533   8.864   1.416   4.684  1.8932 -0.2431 -0.4158
  686MOL0     H90534   9.677   1.785   4.132 -2.1269  2.0827 -0.2535
  686MOL0     H90535   9.773   1.721   3.914  0.9812 -0.3423  3.9020
  686MOL0     H90536  10.019   1.435   3.705 -1.5313  2.3128  1.1808
  686MOL0     H90537  10.149   1.398   3.519 -1.6958 -3.5166 -0.9969
  686MOL0     H90538  10.038   0.686   4.277  3.1386  1.6075 -0.2724
  686MOL0     H90539   9.863   0.517   4.228  0.5991  2.8937 -0.6544
  686MOL0     H90540   9.632   0.244   4.173 -0.2544  0.0591  1.6780
  686MOL0     H90541   9.477   0.087   4.240  0.7513  2.6753 -0.0186
  686MOL0     H90542   9.533  -0.076   4.464 -0.6208  0.8568 -0.5836
  686MOL0     H90543   9.497  -0.255   4.463 -0.0535 -0.5115 -3.5991
  686MOL0     H90544   9.319  -0.019   4.375  0.1328  0.2934 -1.3093
  686MOL0     H90545   9.278  -0.177   4.332  0.3161 -0.3706  1.1808
  686MOL0     H90546   9.331  -0.112   4.633  0.6631 -1.9316  1.3171
  686MOL0     H90547   9.280  -0.266   4.566 -1.4149 -0.7869  3.6215
  686MOL0     H90548   9.094  -0.157   4.649  1.8516 -1.0643 -0.3603
  686MOL0     H90549   9.111  -0.009   4.546  0.8192  1.0637 -0.6977
  686MOL0     H90550   8.871  -0.250   4.322 -0.8795  2.9480 -0.5929
  686MOL0     H90551   9.758  -0.235   4.224  0.6371 -0.5511  0.8857
  686MOL0     H90552   9.940  -0.053   4.149  0.1425 -0.1899 -2.1379
  687MOL0     O90553   7.340   8.950   7.099 -0.6610  0.5506  0.1127
  687MOL0     C90554   7.337   9.077   7.103  0.4259  0.6031 -0.1598
  687MOL0     O90555   7.381   9.152   7.207 -0.7434 -0.4158 -0.1686
  687MOL0     C90556   7.433   9.085   7.316  0.0170 -0.9757 -1.1299
  687MOL0     C90557   7.540   8.993   7.300  0.7508 -0.3443 -0.3298
  687MOL0     C90558   7.590   8.928   7.410 -0.5992 -0.4544 -0.7383
  687MOL0     C90559   7.532   8.945   7.540 -0.1132  0.0382 -0.1588
  687MOL0     O90560   7.576   8.877   7.647  0.4597  0.5575 -0.0178
  687MOL0     C90561   7.507   8.752   7.657  0.4103  0.2592 -0.3868
  687MOL0     C90562   7.555   8.665   7.782 -0.2005 -0.3394  0.2976
  687MOL0     C90563   7.569   8.765   7.900 -0.4731  0.2482 -1.0291
  687MOL0     C90564   7.562   8.693   8.043 -0.0580 -0.2221 -0.2414
  687MOL0     C90565   7.557   8.782   8.172  0.4072  0.5208  0.0153
  687MOL0     C90566   7.580   8.719   8.312 -0.1867  0.8099 -0.7105
  687MOL0     C90567   7.466   8.637   8.368 -0.4310 -0.7144  0.7504
  687MOL0     C90568   7.375   8.730   8.438 -0.4530  0.0197 -0.0629
  687MOL0     N90569   7.265   8.647   8.471  0.2651 -0.0096 -0.5209
  687MOL0     C90570   7.264   8.537   8.540 -1.1066  1.3065  0.3730
  687MOL0     C90571   7.144   8.506   8.575  0.1762 -0.7423  1.1401
  687MOL0     C90572   7.079   8.377   8.638  0.0635  0.9207 -0.8170
  687MOL0     C90573   7.088   8.255   8.557 -0.1320  0.4767  0.0324
  687MOL0     C90574   7.231   8.192   8.554 -0.3098 -0.2199  0.2891
  687MOL0     C90575   7.232   8.095   8.438  0.2197  1.1637 -0.6087
  687MOL0     O90576   7.334   7.998   8.470  0.0966 -0.3459  0.0077
  687MOL0     C90577   7.413   7.952   8.364 -0.2304  0.8581  0.0055
  687MOL0     C90578   7.526   7.888   8.412 -0.3662 -0.3379 -0.1650
  687MOL0     C90579   7.624   7.836   8.331  0.7331  0.1778 -0.7766
  687MOL0     C90580   7.616   7.858   8.190  0.4633 -0.4225 -0.4227
  687MOL0     C90581   7.719   7.821   8.095  1.4170  0.6500  0.9201
  687MOL0     O90582   7.678   7.808   7.964  0.2096  0.5719  0.3172
  687MOL0     C90583   7.750   7.750   7.860 -0.3322  0.1537  1.3955
  687MOL0     C90584   7.878   7.688   7.870 -0.0776 -0.0306  0.3806
  687MOL0     C90585   7.941   7.633   7.760  0.1789 -0.3783  0.3846
  687MOL0     C90586   7.887   7.654   7.629 -0.7304 -1.1379  0.1381
  687MOL0     O90587   7.964   7.610   7.524 -0.0081 -0.1133 -0.5908
  687MOL0     C90588   7.887   7.619   7.400 -0.9608  0.6221 -0.0961
  687MOL0     C90589   7.803   7.486   7.373  0.2454  0.4646  0.3576
  687MOL0     C90590   7.760   7.487   7.218 -0.8334  0.5111 -0.3402
  687MOL0     C90591   7.872   7.431   7.124  0.2833 -0.4224  1.2993
  687MOL0     C90592   7.849   7.481   6.987  0.2101  0.6722 -0.0285
  687MOL0     C90593   7.918   7.404   6.874  0.7253 -0.3506 -0.0366
  687MOL0     C90594   7.850   7.273   6.847  0.6325  0.7176  0.6987
  687MOL0     C90595   7.941   7.171   6.793 -0.2646  0.0803 -0.2176
  687MOL0    Cl90596   8.018   7.230   6.653 -0.2607 -0.0983  0.4962
  687MOL0     C90597   7.758   7.726   7.618 -0.1866  0.3862 -0.5212
  687MOL0     C90598   7.693   7.772   7.728 -0.3633 -0.5835  0.4049
  687MOL0     O90599   7.834   7.810   8.135  0.4909 -0.3096  0.6000
  687MOL0     C90600   7.505   7.928   8.133 -0.0474  0.6549  0.2261
  687MOL0     C90601   7.396   7.963   8.227  0.1164 -0.0823  0.4960
  687MOL0     N90602   7.060   8.606   8.530 -0.1702  0.4210 -0.8527
  687MOL0     N90603   7.132   8.695   8.482  0.0223 -0.5275 -0.0590
  687MOL0     C90604   7.425   9.030   7.553  0.1938 -0.2386  0.6729
  687MOL0     C90605   7.380   9.114   7.444  0.7713  0.0565 -0.2818
  687MOL0     C90606   7.280   9.158   6.992 -0.3083 -0.2549 -0.0007
  687MOL0     C90607   7.282   9.299   6.991  0.2157  0.1304  1.0932
  687MOL0     C90608   7.219   9.370   6.890 -0.8905 -0.1855  0.4070
  687MOL0     C90609   7.135   9.298   6.798  0.3041 -0.2776  0.9733
  687MOL0     O90610   7.072   9.376   6.697 -0.1119 -0.3093 -0.1910
  687MOL0     C90611   7.100   9.330   6.562 -0.3039 -0.4062  0.6079
  687MOL0     C90612   7.094   9.447   6.466 -0.5375 -0.1976 -0.3304
  687MOL0     C90613   6.960   9.520   6.448 -0.2196 -0.9981  0.2499
  687MOL0     C90614   6.844   9.425   6.427 -0.9480 -0.7105 -0.5078
  687MOL0     C90615   6.736   9.508   6.370 -0.3574 -1.0913 -0.3135
  687MOL0     C90616   6.665   9.589   6.314  0.1900 -0.3302  0.0070
  687MOL0     C90617   7.133   9.162   6.804 -0.1429 -0.7049 -0.1230
  687MOL0     C90618   7.206   9.089   6.893  0.2800 -1.3050  0.5682
  687MOL0     H90619   7.571   8.966   7.200 -3.1577 -3.5315 -0.9513
  687MOL0     H90620   7.680   8.867   7.403  0.6689  1.1088  0.9806
  687MOL0     H90621   7.518   8.704   7.560  2.1552  2.3043 -1.2846
  687MOL0     H90622   7.402   8.776   7.675  0.5764  1.7745 -1.2494
  687MOL0     H90623   7.651   8.616   7.765  0.1816  0.9564 -1.6822
  687MOL0     H90624   7.473   8.596   7.803 -2.2736  1.5128 -1.2894
  687MOL0     H90625   7.472   8.815   7.895 -0.6829  0.2934  1.9680
  687MOL0     H90626   7.656   8.831   7.899 -0.7026  0.7700  2.3659
  687MOL0     H90627   7.473   8.631   8.026  0.9108 -1.9485  0.7671
  687MOL0     H90628   7.649   8.628   8.049 -0.3237 -0.6721 -0.9972
  687MOL0     H90629   7.461   8.833   8.164  0.5952  0.5701 -3.4294
  687MOL0     H90630   7.630   8.863   8.161  1.6087 -0.2792  1.6305
  687MOL0     H90631   7.600   8.801   8.381 -0.4055  1.4569 -1.4073
  687MOL0     H90632   7.675   8.664   8.312  0.2326  1.5231 -0.9931
  687MOL0     H90633   7.416   8.578   8.290  2.0572  1.0245 -2.3987
  687MOL0     H90634   7.513   8.569   8.439 -1.4117 -0.8951  1.2398
  687MOL0     H90635   7.335   8.813   8.379  1.0259  1.9513  1.4957
  687MOL0     H90636   7.401   8.781   8.531 -0.3218 -0.6860  0.2970
  687MOL0     H90637   7.345   8.468   8.564 -1.4241 -0.1977 -2.4567
  687MOL0     H90638   6.976   8.396   8.672  0.6577 -0.8538  2.3791
  687MOL0     H90639   7.119   8.356   8.738  1.7444 -2.2260 -2.0404
  687MOL0     H90640   7.044   8.273   8.459  1.9488 -0.4658 -1.1408
  687MOL0     H90641   7.027   8.176   8.601 -0.0712 -0.0584 -0.8349
  687MOL0     H90642   7.302   8.271   8.528 -0.9962 -0.3913 -2.4187
  687MOL0     H90643   7.262   8.151   8.650  0.8720 -0.4627 -0.1852
  687MOL0     H90644   7.263   8.144   8.346  2.8583 -2.6863 -2.0464
  687MOL0     H90645   7.138   8.042   8.424  1.0078 -0.8310  1.0087
  687MOL0     H90646   7.535   7.882   8.521 -1.1852  2.1928  0.0880
  687MOL0     H90647   7.716   7.797   8.374  0.3070 -1.1419 -1.0124
  687MOL0     H90648   7.915   7.677   7.971 -1.7433  1.0830  1.1643
  687MOL0     H90649   8.017   7.558   7.781  1.7617  0.8927 -0.5147
  687MOL0     H90650   7.956   7.626   7.316  0.6515 -3.6107  0.6320
  687MOL0     H90651   7.832   7.710   7.375  1.2658  2.2476  0.6037
  687MOL0     H90652   7.722   7.472   7.445 -3.4128  2.0738 -3.0388
  687MOL0     H90653   7.876   7.407   7.393  1.2085  0.4901 -2.5663
  687MOL0     H90654   7.715   7.583   7.189  2.6014  2.1172 -0.8695
  687MOL0     H90655   7.676   7.417   7.221  0.0242 -0.5058  0.4342
  687MOL0     H90656   7.968   7.473   7.154  0.3809  1.9770 -1.8231
  687MOL0     H90657   7.870   7.321   7.121  1.0776 -0.4192 -0.4756
  687MOL0     H90658   7.886   7.584   6.979 -1.0138  1.0567 -0.9323
  687MOL0     H90659   7.740   7.482   6.980  0.1484  2.6370  0.6938
  687MOL0     H90660   8.012   7.376   6.922  0.5838  1.3745  1.3347
  687MOL0     H90661   7.930   7.466   6.785 -1.9352  0.9149  0.3711
  687MOL0     H90662   7.805   7.221   6.933  2.6941  0.2813  1.5588
  687MOL0     H90663   7.767   7.277   6.776 -2.6998 -1.9713  3.9974
  687MOL0     H90664   7.873   7.086   6.780  1.5550 -1.4493 -0.0423
  687MOL0     H90665   8.016   7.144   6.867  1.3337  1.3671 -1.3058
  687MOL0     H90666   7.712   7.760   7.525  0.1132 -1.3222 -1.3355
  687MOL0     H90667   7.594   7.817   7.723  0.3278  0.9098 -1.2812
  687MOL0     H90668   7.489   7.955   8.029  0.7338  0.1029 -0.0485
  687MOL0     H90669   7.308   8.011   8.186  0.7317  1.4631  0.8792
  687MOL0     H90670   7.396   9.051   7.656  0.5487  1.7340  0.4100
  687MOL0     H90671   7.304   9.190   7.452  0.4560 -0.3088  0.2309
  687MOL0     H90672   7.341   9.358   7.060  2.2434 -1.5209  0.8661
  687MOL0     H90673   7.225   9.478   6.890 -2.4825 -0.0547 -1.1909
  687MOL0     H90674   7.023   9.254   6.551 -0.1739 -0.9095  2.6677
  687MOL0     H90675   7.202   9.290   6.565  0.5562  1.5882 -0.1939
  687MOL0     H90676   7.168   9.520   6.498  2.0824 -1.4929 -2.9831
  687MOL0     H90677   7.138   9.407   6.374  0.7859 -4.8562  2.0112
  687MOL0     H90678   6.972   9.585   6.361 -1.1682 -0.2268  0.6702
  687MOL0     H90679   6.913   9.571   6.533 -1.3460 -2.9090  0.8536
  687MOL0     H90680   6.879   9.359   6.348  1.0438 -2.6540  1.8303
  687MOL0     H90681   6.816   9.362   6.512  0.1115  1.7429  1.7990
  687MOL0     H90682   6.615   9.662   6.254 -0.0015  0.1488  0.7396
  687MOL0     H90683   7.081   9.108   6.725 -1.9342  0.6685  0.0340
  687MOL0     H90684   7.183   8.983   6.882 -0.8707 -1.0069 -0.1495
  688MOL0     O90685   1.532   2.370   1.805 -0.5253 -0.5677  0.0012
  688MOL0     C90686   1.536   2.428   1.916  0.1030  1.3634 -0.3184
  688MOL0     O90687   1.618   2.393   2.021  0.5166 -0.6948  0.2492
  688MOL0     C90688   1.648   2.258   2.035 -0.5937 -0.5457  1.3418
  688MOL0     C90689   1.562   2.153   1.994  0.2384  0.3055 -0.4057
  688MOL0     C90690   1.598   2.023   2.031  1.0661 -0.5332  1.1844
  688MOL0     C90691   1.717   1.993   2.096 -0.2365  0.0448 -0.4156
  688MOL0     O90692   1.733   1.861   2.130 -0.0562  1.0313  0.2178
  688MOL0     C90693   1.756   1.762   2.028  0.6682  0.4149 -0.3485
  688MOL0     C90694   1.895   1.720   2.033 -0.0750  0.6447 -0.3124
  688MOL0     C90695   1.930   1.614   1.920 -0.1670  0.8092  0.5637
  688MOL0     C90696   2.031   1.666   1.814  0.0391  0.7178  0.6180
  688MOL0     C90697   2.061   1.567   1.703  0.3003  1.3195  0.2091
  688MOL0     C90698   2.196   1.594   1.629 -0.1455 -0.7081  0.4036
  688MOL0     C90699   2.322   1.555   1.707  0.9255 -0.8037 -0.4738
  688MOL0     C90700   2.343   1.403   1.705 -0.5706  0.2412  0.3126
  688MOL0     N90701   2.478   1.386   1.764  0.2586 -0.3516 -0.3526
  688MOL0     C90702   2.533   1.444   1.876  0.6645 -0.7262 -0.2404
  688MOL0     C90703   2.646   1.383   1.906  1.1190 -0.0283  0.7628
  688MOL0     C90704   2.729   1.420   2.031  0.3299  0.1129  0.4948
  688MOL0     C90705   2.854   1.329   2.059  0.2201 -0.1602 -0.2254
  688MOL0     C90706   2.817   1.190   2.116  1.2334  0.2220 -0.2333
  688MOL0     C90707   2.799   1.086   2.004 -0.1490 -0.1966  0.3209
  688MOL0     O90708   2.814   0.946   2.043  0.2316 -0.1529 -0.0353
  688MOL0     C90709   2.797   0.846   1.946  0.6096 -0.0525 -0.3821
  688MOL0     C90710   2.742   0.874   1.820  0.1853 -0.3654 -0.2415
  688MOL0     C90711   2.722   0.772   1.719 -0.0539  0.0061  0.1077
  688MOL0     C90712   2.759   0.642   1.744  0.0322 -0.5073 -0.1332
  688MOL0     C90713   2.753   0.535   1.641  0.3080  0.4880 -0.4719
  688MOL0     O90714   2.726   0.585   1.512  0.2885 -1.0583  0.1294
  688MOL0     C90715   2.667   0.497   1.422 -0.0518  0.2521 -0.0207
  688MOL0     C90716   2.722   0.477   1.297 -0.9606 -0.1806 -0.0454
  688MOL0     C90717   2.662   0.377   1.208 -0.0349 -0.6695  0.2847
  688MOL0     C90718   2.569   0.289   1.253  0.5413  0.6393  0.6899
  688MOL0     O90719   2.516   0.190   1.162 -0.2073 -0.0107  0.3552
  688MOL0     C90720   2.591   0.070   1.166  0.9855  0.9328 -0.4880
  688MOL0     C90721   2.502  -0.040   1.129  0.8272  0.4803  0.0422
  688MOL0     C90722   2.557  -0.182   1.159  0.5631  0.1303 -0.5436
  688MOL0     C90723   2.439  -0.291   1.164 -1.5823  0.5228  0.0370
  688MOL0     C90724   2.483  -0.429   1.209  0.4755 -0.2528  0.8966
  688MOL0     C90725   2.555  -0.515   1.108  0.5044 -0.5598  0.5160
  688MOL0     C90726   2.555  -0.668   1.145 -0.2973  0.0374  0.4599
  688MOL0     C90727   2.626  -0.774   1.054 -0.1555 -0.9732 -0.1265
  688MOL0    Cl90728   2.494  -0.846   0.954 -0.0557  0.4811 -0.1701
  688MOL0     C90729   2.525   0.311   1.384 -0.0416  0.3128 -0.6702
  688MOL0     C90730   2.563   0.408   1.473  0.5563 -0.4889  0.3892
  688MOL0     O90731   2.751   0.414   1.677  0.4496  0.2175 -0.3864
  688MOL0     C90732   2.813   0.605   1.870 -0.4079 -0.8544  0.2008
  688MOL0     C90733   2.833   0.707   1.964 -0.0595  0.1447 -0.9601
  688MOL0     N90734   2.666   1.289   1.803  0.2930 -0.2492  0.1260
  688MOL0     N90735   2.566   1.294   1.710 -0.1244 -0.5876 -0.9284
  688MOL0     C90736   1.804   2.103   2.138 -0.5852  0.7311  0.3611
  688MOL0     C90737   1.767   2.231   2.098 -0.5290  0.5019  0.2612
  688MOL0     C90738   1.447   2.531   1.950  0.0159  0.0754  0.3118
  688MOL0     C90739   1.333   2.558   1.877  0.4306 -0.4134 -0.0320
  688MOL0     C90740   1.242   2.658   1.922  0.1050 -0.1162  0.0376
  688MOL0     C90741   1.278   2.755   2.015 -0.6179 -0.3426  0.0755
  688MOL0     O90742   1.202   2.862   2.052 -0.9115  0.3000 -0.2425
  688MOL0     C90743   1.160   2.965   1.957 -0.1182 -0.0600  0.3679
  688MOL0     C90744   1.009   2.982   1.969  0.0288 -0.3662  0.4184
  688MOL0     C90745   0.937   2.870   1.895  0.6841 -0.8232  0.1804
  688MOL0     C90746   0.799   2.913   1.875  0.3968 -0.9501  0.1613
  688MOL0     C90747   0.744   2.863   1.749  0.0501 -0.6250  0.6383
  688MOL0     C90748   0.714   2.813   1.647 -0.6597  0.2461  0.2548
  688MOL0     C90749   1.401   2.736   2.086 -0.2021 -0.7808 -0.0224
  688MOL0     C90750   1.483   2.626   2.050  0.0106  0.1326  0.1893
  688MOL0     H90751   1.468   2.181   1.948  0.4416 -0.4631 -1.3193
  688MOL0     H90752   1.523   1.945   2.018 -0.8340  1.4739 -0.5325
  688MOL0     H90753   1.753   1.816   1.932  2.1377  2.8639  0.8829
  688MOL0     H90754   1.681   1.684   2.043  1.8352 -0.7020 -0.1147
  688MOL0     H90755   1.912   1.677   2.132 -0.8835  0.1184 -0.3925
  688MOL0     H90756   1.953   1.812   2.026  0.8643 -0.0003 -1.2596
  688MOL0     H90757   1.842   1.580   1.863 -0.8323 -1.9811  3.0009
  688MOL0     H90758   1.963   1.527   1.978 -0.0521  0.8791  0.6021
  688MOL0     H90759   1.978   1.756   1.780 -1.4716 -1.0573 -2.0236
  688MOL0     H90760   2.125   1.702   1.859  0.5270  1.0416 -0.6305
  688MOL0     H90761   1.975   1.572   1.635  2.3775  2.5477 -2.5535
  688MOL0     H90762   2.064   1.471   1.755  3.5479  2.6403  2.8119
  688MOL0     H90763   2.210   1.702   1.616 -0.0093 -0.5574  1.6846
  688MOL0     H90764   2.179   1.557   1.528 -2.2095 -2.9430  1.4830
  688MOL0     H90765   2.404   1.601   1.652  0.8917 -4.6985 -4.3119
  688MOL0     H90766   2.313   1.601   1.806  1.4201  4.3418 -2.5071
  688MOL0     H90767   2.347   1.371   1.601 -2.5172 -0.5752  0.4474
  688MOL0     H90768   2.261   1.351   1.756 -1.3240  0.0010 -1.0923
  688MOL0     H90769   2.495   1.522   1.941 -0.3315 -1.2612 -0.1616
  688MOL0     H90770   2.658   1.412   2.113 -0.0952 -0.6389  0.0655
  688MOL0     H90771   2.758   1.524   2.014 -4.0006  1.3939 -0.1721
  688MOL0     H90772   2.916   1.371   2.139  0.3791 -2.9209  1.2110
  688MOL0     H90773   2.903   1.321   1.961  0.1494  1.7141 -0.4623
  688MOL0     H90774   2.902   1.163   2.179 -0.5433 -0.8684  1.8315
  688MOL0     H90775   2.724   1.204   2.173  0.0744 -1.4153 -1.6257
  688MOL0     H90776   2.884   1.099   1.937  2.3551 -0.9659  3.0806
  688MOL0     H90777   2.701   1.118   1.969  0.5747  2.3974  0.5088
  688MOL0     H90778   2.707   0.973   1.794  1.7082  0.1527 -0.4660
  688MOL0     H90779   2.673   0.809   1.630  0.4688  1.9126  0.5569
  688MOL0     H90780   2.803   0.530   1.247 -1.3626 -0.5983 -1.1739
  688MOL0     H90781   2.702   0.371   1.107 -1.2440  0.8617 -0.3293
  688MOL0     H90782   2.630   0.059   1.268 -0.5897  3.2750  0.4477
  688MOL0     H90783   2.674   0.074   1.094  0.9948 -0.1627 -0.5646
  688MOL0     H90784   2.482  -0.031   1.022 -1.0433  1.3223  0.4347
  688MOL0     H90785   2.405  -0.025   1.177 -2.7893 -0.2394 -6.0223
  688MOL0     H90786   2.591  -0.182   1.263 -2.4655 -2.8141  0.6062
  688MOL0     H90787   2.633  -0.216   1.087  2.5927  1.1087  1.0180
  688MOL0     H90788   2.356  -0.241   1.215 -0.7615  2.9901 -0.8854
  688MOL0     H90789   2.406  -0.313   1.063 -0.9091 -0.4612  0.0156
  688MOL0     H90790   2.394  -0.483   1.243 -0.4344  1.4832  1.4077
  688MOL0     H90791   2.549  -0.415   1.295  2.6996  0.4834 -0.8323
  688MOL0     H90792   2.657  -0.478   1.099 -0.1185  1.0381 -0.2243
  688MOL0     H90793   2.506  -0.511   1.010  0.7009  0.0968  0.4406
  688MOL0     H90794   2.612  -0.668   1.238 -0.4725 -0.2204  0.5700
  688MOL0     H90795   2.453  -0.703   1.168  1.0312 -3.6601  1.4446
  688MOL0     H90796   2.680  -0.855   1.105  2.3196 -0.0053 -1.0792
  688MOL0     H90797   2.704  -0.732   0.990 -2.5981  1.5621 -1.6949
  688MOL0     H90798   2.455   0.234   1.415  0.1048  0.2584 -0.4747
  688MOL0     H90799   2.517   0.406   1.571 -1.9785 -0.5868 -0.7204
  688MOL0     H90800   2.844   0.501   1.877 -0.6151 -0.8153  2.3776
  688MOL0     H90801   2.873   0.671   2.058 -2.4915  0.6182  0.3238
  688MOL0     H90802   1.887   2.095   2.208  0.9036  3.0197 -1.0150
  688MOL0     H90803   1.825   2.316   2.132 -2.4825  1.8681  0.3326
  688MOL0     H90804   1.290   2.490   1.803 -0.7852 -0.0026  0.2728
  688MOL0     H90805   1.148   2.662   1.868  0.3744  2.9237 -0.3918
  688MOL0     H90806   1.189   2.946   1.853  1.6343  0.8285  0.6575
  688MOL0     H90807   1.196   3.065   1.984 -0.7276  0.3005 -0.1139
  688MOL0     H90808   0.976   3.003   2.071 -3.1692  0.4816 -0.6697
  688MOL0     H90809   0.995   3.075   1.913  1.8275 -0.0611  0.4036
  688MOL0     H90810   0.935   2.779   1.956  0.9996  0.1920  1.7542
  688MOL0     H90811   0.992   2.854   1.802 -0.3642 -2.1896 -0.2520
  688MOL0     H90812   0.731   2.896   1.959 -1.4515  0.7199 -0.8887
  688MOL0     H90813   0.793   3.022   1.878 -1.1938 -1.0268  2.4945
  688MOL0     H90814   0.704   2.765   1.552 -0.0041  1.7100 -0.5830
  688MOL0     H90815   1.430   2.808   2.161 -0.8672  2.0217 -2.2847
  688MOL0     H90816   1.575   2.605   2.103  1.3677  0.0642 -2.0668
  689MOL0     O90817   5.522   1.508   4.759 -0.5147 -0.3836 -0.7923
  689MOL0     C90818   5.440   1.480   4.843  0.5165  0.1914 -0.0704
  689MOL0     O90819   5.375   1.573   4.925 -0.5925 -0.1189 -0.1581
  689MOL0     C90820   5.398   1.709   4.911 -0.3377  0.1175 -0.4012
  689MOL0     C90821   5.297   1.794   4.948 -0.2891  0.0155 -0.1071
  689MOL0     C90822   5.311   1.935   4.955  0.6090  0.6407 -0.6939
  689MOL0     C90823   5.432   1.993   4.909  0.3398  0.0741 -0.7265
  689MOL0     O90824   5.442   2.134   4.900  0.0719  0.4599 -0.5952
  689MOL0     C90825   5.325   2.219   4.910 -0.4133 -0.9061 -0.3989
  689MOL0     C90826   5.385   2.361   4.900  0.2332  0.3473  0.1089
  689MOL0     C90827   5.398   2.417   4.759 -0.9238  0.7385  0.4372
  689MOL0     C90828   5.478   2.539   4.755  0.5575 -0.1395  0.4750
  689MOL0     C90829   5.458   2.610   4.616  0.7019 -0.2874  0.0870
  689MOL0     C90830   5.407   2.752   4.600  0.0761 -0.9205  0.7477
  689MOL0     C90831   5.351   2.781   4.455 -0.8953 -0.0638  0.4993
  689MOL0     C90832   5.455   2.784   4.344 -0.1868  0.7636 -0.6975
  689MOL0     N90833   5.408   2.860   4.237  0.2193 -0.0915  0.0441
  689MOL0     C90834   5.295   2.831   4.158  0.7822 -0.2849 -0.5342
  689MOL0     C90835   5.320   2.904   4.048 -0.6614 -1.3668 -0.3447
  689MOL0     C90836   5.217   2.904   3.936  0.4501 -0.7712  0.4190
  689MOL0     C90837   5.136   3.031   3.937  0.2937 -1.1692  0.3710
  689MOL0     C90838   5.010   3.029   3.847  0.2536  0.0890  0.9068
  689MOL0     C90839   4.972   3.168   3.793  0.0556  0.2201 -0.1907
  689MOL0     O90840   4.922   3.250   3.899 -0.2361  0.2909  0.7384
  689MOL0     C90841   4.892   3.383   3.882 -0.0328  0.8525  0.2366
  689MOL0     C90842   4.884   3.453   3.761  1.0424  1.1059 -0.6833
  689MOL0     C90843   4.853   3.583   3.745  0.1684 -0.7666  0.7006
  689MOL0     C90844   4.821   3.664   3.859 -0.0172  0.8388 -0.6394
  689MOL0     C90845   4.760   3.796   3.854 -0.4620 -1.2553 -0.7549
  689MOL0     O90846   4.702   3.828   3.744 -0.0560  0.8974  0.9555
  689MOL0     C90847   4.684   3.957   3.697 -0.0056  0.4555  0.2643
  689MOL0     C90848   4.561   4.018   3.700  0.1091 -0.6427  0.6889
  689MOL0     C90849   4.533   4.156   3.661  0.0812  0.4699 -0.0822
  689MOL0     C90850   4.643   4.242   3.625  0.1215  0.4498 -0.2662
  689MOL0     O90851   4.641   4.370   3.565  0.4236 -0.1213 -0.5022
  689MOL0     C90852   4.523   4.407   3.490  0.6473 -0.4797 -0.3072
  689MOL0     C90853   4.542   4.540   3.422  1.2644  0.0258  0.6602
  689MOL0     C90854   4.558   4.654   3.516 -0.7604  0.7970 -0.1889
  689MOL0     C90855   4.615   4.780   3.456 -0.0687 -0.2327  0.3797
  689MOL0     C90856   4.670   4.880   3.551  0.2855  0.1562 -0.3688
  689MOL0     C90857   4.667   5.024   3.503  0.7604  0.1648 -0.4244
  689MOL0     C90858   4.729   5.131   3.593  0.2909 -0.3932 -0.0052
  689MOL0     C90859   4.707   5.279   3.572 -0.0867 -0.7442 -0.3590
  689MOL0    Cl90860   4.771   5.389   3.702 -0.2820  0.1219 -0.0291
  689MOL0     C90861   4.769   4.178   3.625  0.1180 -0.4213 -0.2662
  689MOL0     C90862   4.792   4.040   3.656  0.6937 -0.5001  0.4826
  689MOL0     O90863   4.765   3.878   3.954  0.1664  1.5749  0.0392
  689MOL0     C90864   4.833   3.596   3.987 -0.1253  0.5539  0.4192
  689MOL0     C90865   4.863   3.462   3.994 -0.0743 -0.2470  0.9356
  689MOL0     N90866   5.421   2.993   4.069 -0.1345  0.1347 -0.5452
  689MOL0     N90867   5.471   2.968   4.187  0.0354  0.2906 -0.3335
  689MOL0     C90868   5.541   1.903   4.886  0.7319 -0.4108  0.2706
  689MOL0     C90869   5.520   1.765   4.895  0.3021 -0.0950  0.3881
  689MOL0     C90870   5.413   1.338   4.855  0.3480  0.1502  0.2185
  689MOL0     C90871   5.467   1.252   4.753 -0.2167  0.5673  0.0570
  689MOL0     C90872   5.428   1.113   4.747  0.2761  0.3859  0.8715
  689MOL0     C90873   5.335   1.055   4.842 -1.1464 -0.5079 -0.6675
  689MOL0     O90874   5.291   0.926   4.852 -0.3215 -0.3341  0.0068
  689MOL0     C90875   5.346   0.833   4.757 -0.4289  0.0921 -0.1373
  689MOL0     C90876   5.307   0.683   4.790 -0.2491 -1.2352 -0.8273
  689MOL0     C90877   5.325   0.655   4.931  0.0572 -0.2188 -0.0797
  689MOL0     C90878   5.299   0.513   4.974 -0.3583  0.4736 -0.1004
  689MOL0     C90879   5.307   0.496   5.128  1.0712 -0.3363 -0.7132
  689MOL0     C90880   5.316   0.486   5.253  0.3777  0.7384 -0.2803
  689MOL0     C90881   5.284   1.141   4.941  0.4322  0.3092  1.2914
  689MOL0     C90882   5.314   1.280   4.940  0.3876  0.0584  0.4351
  689MOL0     H90883   5.197   1.760   4.974  0.2117 -1.7709 -0.3555
  689MOL0     H90884   5.229   1.996   4.990  1.2729  1.6967 -0.9370
  689MOL0     H90885   5.266   2.199   4.999 -0.9800 -2.1679 -1.0332
  689MOL0     H90886   5.266   2.210   4.818 -1.1046  1.7757 -0.3076
  689MOL0     H90887   5.477   2.373   4.957 -0.5602 -0.6888  1.6839
  689MOL0     H90888   5.312   2.421   4.955 -2.0995 -1.0649 -1.2731
  689MOL0     H90889   5.293   2.432   4.730 -0.8718  0.9762  0.3632
  689MOL0     H90890   5.449   2.336   4.708  0.4490  1.6632  0.2897
  689MOL0     H90891   5.438   2.604   4.834 -0.9410  0.1144 -0.4606
  689MOL0     H90892   5.580   2.522   4.791  0.5799 -0.4827  0.2527
  689MOL0     H90893   5.393   2.553   4.548  1.0930  2.6916 -3.0677
  689MOL0     H90894   5.550   2.610   4.557 -0.4171 -3.0287 -1.8557
  689MOL0     H90895   5.486   2.826   4.612 -0.7541  0.2181 -0.4627
  689MOL0     H90896   5.322   2.773   4.666  1.0986 -2.5905  2.7131
  689MOL0     H90897   5.291   2.694   4.428  1.6047 -1.0881 -2.2810
  689MOL0     H90898   5.282   2.866   4.464 -0.4528  0.0692  4.0658
  689MOL0     H90899   5.494   2.689   4.308 -3.0283 -0.9599  0.4742
  689MOL0     H90900   5.544   2.843   4.371  2.7490 -3.7391  0.6344
  689MOL0     H90901   5.215   2.759   4.163  1.2752 -0.7717  3.3045
  689MOL0     H90902   5.153   2.817   3.956  0.1846 -1.8094 -3.9415
  689MOL0     H90903   5.268   2.889   3.840  0.2752 -1.0804  0.3717
  689MOL0     H90904   5.205   3.115   3.921  2.2721 -3.1320 -2.3458
  689MOL0     H90905   5.100   3.048   4.039 -1.8431  1.9406 -0.7411
  689MOL0     H90906   5.022   2.966   3.759 -2.3964 -1.1196  1.3168
  689MOL0     H90907   4.927   2.979   3.899 -0.1523 -1.1244 -0.8271
  689MOL0     H90908   4.885   3.155   3.727 -1.5336 -1.4557  2.0718
  689MOL0     H90909   5.055   3.222   3.747  1.7099 -0.9819  1.2278
  689MOL0     H90910   4.902   3.389   3.675 -0.3359  0.2518 -0.3545
  689MOL0     H90911   4.828   3.621   3.646  0.5875 -1.7948  0.1921
  689MOL0     H90912   4.477   3.955   3.728 -0.7182 -0.0893 -0.4475
  689MOL0     H90913   4.430   4.186   3.647  0.0243 -0.4371 -1.8977
  689MOL0     H90914   4.428   4.409   3.543  1.0061 -2.4991  0.5081
  689MOL0     H90915   4.498   4.339   3.408  2.5264 -0.1596 -1.2071
  689MOL0     H90916   4.458   4.563   3.356 -0.1262  0.2482  2.4403
  689MOL0     H90917   4.627   4.530   3.353 -0.2080 -0.7454 -1.1184
  689MOL0     H90918   4.622   4.617   3.597 -1.4926  3.0428  1.5243
  689MOL0     H90919   4.470   4.684   3.573 -0.0758 -0.2237  1.4674
  689MOL0     H90920   4.698   4.747   3.394 -0.2111 -1.9587  1.0512
  689MOL0     H90921   4.544   4.821   3.383 -0.2046 -0.1730  0.5456
  689MOL0     H90922   4.775   4.859   3.572  0.3482  1.7995  1.2304
  689MOL0     H90923   4.603   4.882   3.637  0.5124 -2.6297 -0.0326
  689MOL0     H90924   4.567   5.061   3.480 -0.0276  0.7857  3.2841
  689MOL0     H90925   4.727   5.034   3.412 -1.0436  1.9448 -1.5054
  689MOL0     H90926   4.695   5.115   3.695  0.2276  2.1978  0.4598
  689MOL0     H90927   4.838   5.121   3.593  1.0376  2.2736 -6.5884
  689MOL0     H90928   4.600   5.297   3.561  0.2796  1.7192 -0.6193
  689MOL0     H90929   4.748   5.311   3.476  2.1970  1.9437  1.3325
  689MOL0     H90930   4.848   4.241   3.587  0.3908  0.0599  1.0210
  689MOL0     H90931   4.895   4.011   3.672  0.8334 -0.3888 -0.1784
  689MOL0     H90932   4.808   3.645   4.081 -1.0351  0.4882  0.2233
  689MOL0     H90933   4.884   3.417   4.090 -0.8271 -3.5827 -0.3056
  689MOL0     H90934   5.639   1.947   4.872  1.8145 -2.3944  1.1760
  689MOL0     H90935   5.606   1.701   4.880 -2.1486 -3.4849 -0.6288
  689MOL0     H90936   5.536   1.290   4.679 -1.2300 -0.2196 -1.3253
  689MOL0     H90937   5.473   1.054   4.667 -1.9900  2.0459 -1.8266
  689MOL0     H90938   5.454   0.847   4.750 -0.2510  1.5567  3.2837
  689MOL0     H90939   5.305   0.846   4.657 -1.5304  1.1258  0.4137
  689MOL0     H90940   5.202   0.680   4.758  0.0991  3.5469 -3.3090
  689MOL0     H90941   5.348   0.608   4.722 -0.5833 -1.2274 -1.0440
  689MOL0     H90942   5.255   0.725   4.977  2.7063  2.1548  0.6613
  689MOL0     H90943   5.427   0.684   4.957  0.4253 -1.8571  0.3985
  689MOL0     H90944   5.203   0.479   4.934 -1.0081  2.2456 -0.1432
  689MOL0     H90945   5.373   0.447   4.928  1.6419  2.4676  0.0986
  689MOL0     H90946   5.328   0.479   5.359  2.1702 -1.7278 -0.5718
  689MOL0     H90947   5.227   1.106   5.026 -3.3069  0.0736 -1.1189
  689MOL0     H90948   5.261   1.343   5.010 -0.1198  2.0581 -1.6415
  690MOL0     O90949   5.121   4.534   2.004 -0.3061 -0.4804 -0.1093
  690MOL0     C90950   5.211   4.475   1.946 -0.2001 -0.5594 -0.3897
  690MOL0     O90951   5.329   4.442   2.009  0.9965 -0.2589  0.1971
  690MOL0     C90952   5.346   4.490   2.138 -0.2702 -0.8460 -0.3707
  690MOL0     C90953   5.270   4.451   2.249  0.2331 -0.9637  0.8487
  690MOL0     C90954   5.292   4.489   2.378  0.7289 -0.3217  0.2064
  690MOL0     C90955   5.387   4.590   2.404  0.2470  0.1151 -0.1563
  690MOL0     O90956   5.391   4.655   2.521 -0.1778 -0.0849  0.3003
  690MOL0     C90957   5.293   4.753   2.544 -0.5271  0.1853 -0.0946
  690MOL0     C90958   5.264   4.752   2.693  0.6288 -0.5690 -0.3844
  690MOL0     C90959   5.141   4.841   2.729  0.2043 -0.2696  0.6193
  690MOL0     C90960   5.146   4.872   2.874  0.1757  0.3316 -0.4842
  690MOL0     C90961   5.023   4.943   2.923  0.1001 -0.8722  0.7025
  690MOL0     C90962   4.984   5.070   2.846 -0.0371 -0.9649  0.2326
  690MOL0     C90963   4.858   5.056   2.756  0.3721  0.3514 -0.4929
  690MOL0     C90964   4.877   5.141   2.627 -0.0095 -1.2697 -0.1289
  690MOL0     N90965   4.777   5.248   2.632  0.2538 -0.2589  0.5228
  690MOL0     C90966   4.645   5.225   2.605 -0.2998  0.1526 -0.1640
  690MOL0     C90967   4.587   5.345   2.594 -0.3304 -1.2750  1.1017
  690MOL0     C90968   4.442   5.373   2.564 -0.4588 -0.5532  0.1197
  690MOL0     C90969   4.363   5.355   2.701 -0.1518 -0.6457 -0.2352
  690MOL0     C90970   4.332   5.495   2.760  0.3262  0.8360  0.2365
  690MOL0     C90971   4.222   5.576   2.685  0.0320  1.5074 -0.1731
  690MOL0     O90972   4.185   5.693   2.757 -0.4521  0.6750 -0.2957
  690MOL0     C90973   4.060   5.698   2.786  0.8219  0.4989 -0.4769
  690MOL0     C90974   3.962   5.765   2.706  0.1686 -0.0720 -0.3233
  690MOL0     C90975   3.825   5.762   2.739 -0.0478  0.3916  0.4147
  690MOL0     C90976   3.781   5.701   2.865  0.2124 -0.2189  0.8872
  690MOL0     C90977   3.642   5.698   2.923 -0.8122  0.5263  0.2879
  690MOL0     O90978   3.629   5.655   3.056  0.1143 -0.1690 -0.4985
  690MOL0     C90979   3.512   5.666   3.130  1.5252  0.5346 -0.1615
  690MOL0     C90980   3.440   5.782   3.116 -0.8145 -0.6322 -1.2533
  690MOL0     C90981   3.310   5.798   3.172 -0.2877  0.3997  0.1152
  690MOL0     C90982   3.252   5.688   3.230  0.3692  0.1079  0.3157
  690MOL0     O90983   3.121   5.705   3.267 -0.0646  0.3564  0.7088
  690MOL0     C90984   3.027   5.603   3.240 -0.3155  0.4426  0.1196
  690MOL0     C90985   2.885   5.646   3.267  0.5159 -0.0605 -1.7019
  690MOL0     C90986   2.873   5.694   3.415  0.7104  0.7175  0.0804
  690MOL0     C90987   2.732   5.681   3.468  0.1640 -0.5087 -0.4215
  690MOL0     C90988   2.715   5.754   3.601  0.2469 -0.5423 -0.1704
  690MOL0     C90989   2.764   5.688   3.739 -0.0290  0.3093  0.1392
  690MOL0     C90990   2.704   5.549   3.777  0.0835  0.2925  0.5521
  690MOL0     C90991   2.552   5.577   3.818 -0.7427  0.1572 -0.0727
  690MOL0    Cl90992   2.521   5.687   3.955 -0.1549  0.1543  0.2476
  690MOL0     C90993   3.323   5.573   3.263  0.0480  0.9617 -0.3509
  690MOL0     C90994   3.461   5.566   3.220  0.2680  0.1566 -0.9792
  690MOL0     O90995   3.553   5.723   2.851  0.7659 -0.3334  0.9694
  690MOL0     C90996   3.880   5.645   2.950 -0.2550  0.1135  0.2441
  690MOL0     C90997   4.013   5.642   2.916  0.3769  1.5087  0.7703
  690MOL0     N90998   4.688   5.446   2.604  0.1205  0.0798 -0.4707
  690MOL0     N90999   4.795   5.383   2.623  0.7736 -0.6973 -0.3995
  690MOL0     C91000   5.480   4.616   2.302 -0.8082  0.6041 -0.4086
  690MOL0     C91001   5.459   4.567   2.171  0.1340  0.0858  0.3694
  690MOL0     C91002   5.196   4.437   1.811 -0.1680  0.8635 -0.7040
  690MOL0     C91003   5.312   4.383   1.749 -1.0773 -0.7894 -0.3225
  690MOL0     C91004   5.308   4.369   1.608 -0.6193  0.1236 -0.2101
  690MOL0     C91005   5.202   4.406   1.528 -0.6546  0.7170 -0.2216
  690MOL0     O91006   5.225   4.397   1.388 -0.9030 -0.4072  0.0172
  690MOL0     C91007   5.122   4.446   1.304 -0.4978 -0.3264 -0.2810
  690MOL0     C91008   5.140   4.402   1.162 -0.7926 -0.6341  0.9697
  690MOL0     C91009   5.141   4.247   1.148  0.0835 -0.3514 -0.0082
  690MOL0     C91010   5.009   4.176   1.207 -1.5460  0.0293 -0.9163
  690MOL0     C91011   4.995   4.031   1.203  1.4918 -0.1774 -0.0228
  690MOL0     C91012   4.984   3.914   1.207 -0.1005  0.5157 -0.0538
  690MOL0     C91013   5.085   4.455   1.596 -0.5120  0.1874 -0.4840
  690MOL0     C91014   5.081   4.472   1.738  0.2859  0.4822 -0.2141
  690MOL0     H91015   5.191   4.387   2.210 -3.5321  3.2469  0.8730
  690MOL0     H91016   5.217   4.470   2.454 -2.9096  2.6767 -2.2538
  690MOL0     H91017   5.203   4.726   2.488 -2.9969 -1.0758  4.0205
  690MOL0     H91018   5.329   4.850   2.509 -0.8911  0.3466 -0.0307
  690MOL0     H91019   5.340   4.794   2.759 -1.8636 -0.4977  2.6262
  690MOL0     H91020   5.232   4.651   2.719  3.7658 -1.4621  0.3715
  690MOL0     H91021   5.050   4.784   2.708 -1.5502  1.7605  2.2390
  690MOL0     H91022   5.130   4.931   2.669  3.3322 -0.7527 -0.8785
  690MOL0     H91023   5.146   4.777   2.929 -2.5707  1.2986  1.3472
  690MOL0     H91024   5.239   4.924   2.902 -0.8525  2.6188 -1.0974
  690MOL0     H91025   5.040   4.971   3.028 -1.9671 -0.3730  0.9592
  690MOL0     H91026   4.932   4.882   2.927  1.3914 -3.1523 -1.5864
  690MOL0     H91027   5.067   5.115   2.790 -1.1184 -0.3307 -0.8981
  690MOL0     H91028   4.958   5.152   2.914  0.4502 -0.2334 -0.4414
  690MOL0     H91029   4.848   4.949   2.734 -2.4732  1.0650 -3.4915
  690MOL0     H91030   4.772   5.079   2.819 -1.8189 -3.5733 -1.6895
  690MOL0     H91031   4.860   5.080   2.538  1.5802  1.2456 -2.3108
  690MOL0     H91032   4.979   5.179   2.616 -0.4170 -0.3257 -0.8583
  690MOL0     H91033   4.594   5.130   2.609  0.2850 -0.1321  1.6521
  690MOL0     H91034   4.393   5.302   2.496 -2.8682 -0.5151  1.6721
  690MOL0     H91035   4.427   5.472   2.521 -1.9111 -1.1112 -0.7526
  690MOL0     H91036   4.425   5.290   2.763 -0.9694 -1.0880  0.1308
  690MOL0     H91037   4.270   5.299   2.689 -1.3228  1.0540  0.5803
  690MOL0     H91038   4.284   5.476   2.856 -0.8989 -2.0111 -0.8348
  690MOL0     H91039   4.425   5.553   2.763  0.1779  1.3931 -2.7506
  690MOL0     H91040   4.143   5.500   2.689  0.5219  0.9989  0.0909
  690MOL0     H91041   4.264   5.596   2.586  0.7666 -1.5083 -0.5644
  690MOL0     H91042   4.004   5.810   2.617 -0.8753  2.1983  0.2476
  690MOL0     H91043   3.756   5.824   2.682  0.0991 -1.0050 -1.4063
  690MOL0     H91044   3.484   5.862   3.058  0.8015 -1.8935 -1.8208
  690MOL0     H91045   3.248   5.882   3.142 -1.7359 -0.1964  1.3035
  690MOL0     H91046   3.054   5.511   3.292  1.1281 -0.2839 -1.8097
  690MOL0     H91047   3.027   5.582   3.133 -1.0652  1.2175 -0.0471
  690MOL0     H91048   2.807   5.570   3.254  0.9178 -0.8050 -0.0714
  690MOL0     H91049   2.859   5.712   3.184 -0.9091  0.1331 -1.1389
  690MOL0     H91050   2.918   5.792   3.400  3.7760 -0.7471 -1.1868
  690MOL0     H91051   2.938   5.643   3.487  1.6388  0.3118 -1.0093
  690MOL0     H91052   2.663   5.737   3.403 -0.3124  1.1803  1.4332
  690MOL0     H91053   2.700   5.577   3.464 -1.3110 -0.1160  0.3828
  690MOL0     H91054   2.606   5.760   3.601  0.2547 -0.3070  0.5725
  690MOL0     H91055   2.759   5.854   3.596 -1.7603  0.3583 -0.5020
  690MOL0     H91056   2.748   5.747   3.829  0.5072  0.3646  0.2007
  690MOL0     H91057   2.873   5.689   3.725  0.1760  1.5755  1.5899
  690MOL0     H91058   2.711   5.488   3.686 -2.2234  1.7124 -0.6839
  690MOL0     H91059   2.759   5.508   3.862 -1.3942 -1.0258  0.9283
  690MOL0     H91060   2.515   5.479   3.850 -2.2971 -0.2140 -2.6382
  690MOL0     H91061   2.497   5.605   3.727  0.5041 -1.1458 -1.2759
  690MOL0     H91062   3.269   5.491   3.310  0.7317  1.4576  1.3945
  690MOL0     H91063   3.526   5.480   3.229 -2.3539 -1.7586  0.8440
  690MOL0     H91064   3.860   5.591   3.042 -1.7716 -3.0593 -1.7489
  690MOL0     H91065   4.087   5.619   2.992 -2.9734  1.4350  4.3260
  690MOL0     H91066   5.562   4.681   2.327  0.3198 -1.0512  0.4022
  690MOL0     H91067   5.524   4.585   2.086 -4.1652  1.3616 -3.0284
  690MOL0     H91068   5.392   4.331   1.800 -0.8325 -0.4030 -0.3122
  690MOL0     H91069   5.395   4.331   1.555 -0.2804  2.7505 -1.6775
  690MOL0     H91070   5.130   4.554   1.288 -0.3751 -0.7100 -3.4871
  690MOL0     H91071   5.020   4.424   1.336 -0.4166  1.1523  1.1225
  690MOL0     H91072   5.050   4.443   1.116 -0.1146 -0.0272  0.1396
  690MOL0     H91073   5.237   4.430   1.119 -1.3216 -0.5032 -0.1939
  690MOL0     H91074   5.218   4.205   1.213 -1.6851 -2.0523  1.0667
  690MOL0     H91075   5.156   4.209   1.046  1.6489 -2.6053  0.9686
  690MOL0     H91076   5.005   4.194   1.315 -1.8138  2.4406 -1.2595
  690MOL0     H91077   4.922   4.226   1.163 -0.8297  1.1049 -1.1462
  690MOL0     H91078   4.968   3.809   1.195  1.7709  0.2629 -0.7744
  690MOL0     H91079   4.994   4.489   1.546  0.4816  1.0889 -1.7490
  690MOL0     H91080   4.990   4.490   1.796  0.2184  2.1138 -0.7825
  691MOL0     O91081   9.980   4.238   9.393 -0.1140 -0.0656  0.0677
  691MOL0     C91082   9.870   4.242   9.341 -0.2455  0.3479 -0.3083
  691MOL0     O91083   9.784   4.338   9.370 -0.0711  0.8246 -0.2057
  691MOL0     C91084   9.811   4.409   9.485  0.1839 -0.0183 -1.0691
  691MOL0     C91085   9.725   4.382   9.590 -0.4137 -0.7568  0.2826
  691MOL0     C91086   9.729   4.471   9.701  0.6628 -1.1412 -0.9085
  691MOL0     C91087   9.826   4.579   9.712  0.7911 -0.6286 -0.1667
  691MOL0     O91088   9.833   4.670   9.812  0.3558  0.0897 -0.2925
  691MOL0     C91089   9.776   4.647   9.944 -0.1716 -0.6918 -0.0295
  691MOL0     C91090   9.716   4.777   9.996 -0.7835  0.0964  0.3532
  691MOL0     C91091   9.647   4.759  10.128 -0.1223  0.6001  0.4172
  691MOL0     C91092   9.623   4.880  10.223 -0.3307  0.1623 -0.3674
  691MOL0     C91093   9.630   4.834  10.374  0.5730 -0.3538 -0.6540
  691MOL0     C91094   9.525   4.728  10.418 -0.7425  1.0338  0.6706
  691MOL0     C91095   9.571   4.635  10.539  0.0771 -0.0384 -0.7809
  691MOL0     C91096   9.566   4.702  10.672 -0.1278  0.0932  0.7250
  691MOL0     N91097   9.631   4.603  10.763 -0.3092  0.6116  0.5227
  691MOL0     C91098   9.565   4.497  10.816 -0.5376  0.7458  0.7880
  691MOL0     C91099   9.656   4.402  10.858 -1.4322 -0.2264 -0.8485
  691MOL0     C91100   9.617   4.270  10.932  0.3497 -0.2347  0.3076
  691MOL0     C91101   9.726   4.155  10.900  0.0027 -0.1322 -0.1682
  691MOL0     C91102   9.669   4.020  10.957  0.4099 -0.5065  0.3336
  691MOL0     C91103   9.787   3.927  10.989  0.2088  0.5226  0.5075
  691MOL0     O91104   9.823   3.958  11.123 -0.1837 -0.2030 -0.2824
  691MOL0     C91105   9.964   3.946  11.159  0.3273  0.1510  0.2449
  691MOL0     C91106  10.073   3.990  11.078  0.4922  0.4090  0.0772
  691MOL0     C91107  10.206   3.948  11.104 -0.3094 -0.4959  0.4394
  691MOL0     C91108  10.238   3.883  11.221 -0.2265 -0.5365  0.2035
  691MOL0     C91109  10.384   3.853  11.259  0.7162  0.6291  0.0363
  691MOL0     O91110  10.487   3.915  11.189  0.6006  0.7171 -0.1412
  691MOL0     C91111  10.618   3.887  11.229  0.2415 -1.0897  0.3750
  691MOL0     C91112  10.653   3.893  11.361 -0.8717  0.4213 -0.0263
  691MOL0     C91113  10.786   3.857  11.403  0.0284  0.1831  0.8834
  691MOL0     C91114  10.885   3.823  11.311 -0.5732 -0.4996  0.3650
  691MOL0     O91115  11.007   3.799  11.350  0.2820  0.2361 -0.5288
  691MOL0     C91116  11.045   3.661  11.356  0.5114  0.0099 -0.5179
  691MOL0     C91117  11.172   3.631  11.440 -0.2093 -0.6817 -0.6163
  691MOL0     C91118  11.202   3.485  11.430  0.3496 -0.0128 -0.7292
  691MOL0     C91119  11.296   3.450  11.549 -0.8453 -0.4225  0.6063
  691MOL0     C91120  11.326   3.302  11.563 -0.1284  0.4225  0.2024
  691MOL0     C91121  11.224   3.226  11.656 -0.2062 -1.1214 -0.5448
  691MOL0     C91122  11.234   3.074  11.681  0.2269  1.1072 -0.4360
  691MOL0     C91123  11.127   3.009  11.777  0.1840  0.2842 -0.1073
  691MOL0    Cl91124  11.177   2.829  11.799 -0.3668  0.2953  0.1187
  691MOL0     C91125  10.850   3.825  11.176  0.0732 -0.2532  0.1988
  691MOL0     C91126  10.718   3.854  11.140  0.4733 -0.7675  0.6909
  691MOL0     O91127  10.403   3.763  11.348  0.2477 -0.1048  0.4126
  691MOL0     C91128  10.127   3.842  11.304 -0.0139 -0.3323  0.6233
  691MOL0     C91129   9.994   3.881  11.274  0.5668 -0.6296 -0.5036
  691MOL0     N91130   9.784   4.470  10.842 -0.5956  0.0890 -0.2070
  691MOL0     N91131   9.760   4.579  10.778  0.9592 -0.7725  0.4243
  691MOL0     C91132   9.921   4.598   9.611 -0.4419  0.0494  0.7828
  691MOL0     C91133   9.909   4.512   9.493 -0.0743 -1.1482  0.6398
  691MOL0     C91134   9.834   4.138   9.246 -0.1597 -0.5442  0.0734
  691MOL0     C91135   9.930   4.038   9.203  0.4018 -0.2674  0.2369
  691MOL0     C91136   9.891   3.943   9.111  0.7289 -0.9894 -0.1395
  691MOL0     C91137   9.757   3.919   9.083  0.8281  0.2012  1.0407
  691MOL0     O91138   9.693   3.834   8.997  0.0926 -0.0727  0.3546
  691MOL0     C91139   9.783   3.756   8.925  0.1561 -0.8950 -1.3330
  691MOL0     C91140   9.710   3.660   8.840 -0.5593  0.1270  0.1615
  691MOL0     C91141   9.814   3.592   8.754 -0.0355 -0.6513  0.1004
  691MOL0     C91142   9.737   3.495   8.657 -0.4114  1.0382  0.4645
  691MOL0     C91143   9.817   3.398   8.591 -1.2139  0.1119  0.6307
  691MOL0     C91144   9.890   3.320   8.535 -1.2935  0.3900 -0.5301
  691MOL0     C91145   9.673   4.023   9.118  0.0932 -0.6879 -0.0119
  691MOL0     C91146   9.703   4.130   9.202 -0.4917  0.4813 -0.4589
  691MOL0     H91147   9.649   4.304   9.584  0.0417 -1.1455 -0.5874
  691MOL0     H91148   9.663   4.445   9.783  2.8199  0.2482  1.4382
  691MOL0     H91149   9.859   4.607  10.002  2.9877 -0.9366 -4.2233
  691MOL0     H91150   9.699   4.571   9.929  0.2848 -0.8734 -1.7559
  691MOL0     H91151   9.638   4.825   9.936  1.7093  3.8413 -0.2310
  691MOL0     H91152   9.806   4.840   9.997  0.3891 -1.5034  0.9499
  691MOL0     H91153   9.708   4.684  10.180 -0.6942  0.3094  0.6835
  691MOL0     H91154   9.549   4.716  10.105  0.3603 -0.7830  0.8173
  691MOL0     H91155   9.716   4.935  10.206  2.4898 -4.1931 -0.6605
  691MOL0     H91156   9.531   4.935  10.201 -1.4287 -0.8091  1.5572
  691MOL0     H91157   9.635   4.926  10.433  1.1112 -0.3942 -0.6274
  691MOL0     H91158   9.728   4.786  10.377  1.7457  1.9519  0.8149
  691MOL0     H91159   9.534   4.656  10.336 -0.2727 -1.3000  2.6494
  691MOL0     H91160   9.424   4.771  10.421 -1.9187 -1.5146  0.8032
  691MOL0     H91161   9.494   4.558  10.550  0.7894 -0.4021  2.8634
  691MOL0     H91162   9.665   4.581  10.523 -0.9441 -2.3643  0.5043
  691MOL0     H91163   9.467   4.726  10.709  0.1167  1.9318  0.2857
  691MOL0     H91164   9.618   4.798  10.676 -2.0182  1.2217 -0.5540
  691MOL0     H91165   9.456   4.491  10.814 -0.4746 -0.6806 -1.0295
  691MOL0     H91166   9.521   4.235  10.892  0.1476 -2.0647  2.1923
  691MOL0     H91167   9.619   4.288  11.040  0.5170  3.3576 -0.1815
  691MOL0     H91168   9.826   4.174  10.941 -0.5374 -1.6534  1.9735
  691MOL0     H91169   9.742   4.142  10.792 -1.5194 -0.6192 -0.3576
  691MOL0     H91170   9.610   4.037  11.047 -0.6332  0.4565 -0.4948
  691MOL0     H91171   9.601   3.970  10.886  0.1518 -0.1397  0.3180
  691MOL0     H91172   9.873   3.942  10.922  1.2283 -0.6570  1.4961
  691MOL0     H91173   9.765   3.822  10.969  1.4062  0.3791 -0.2413
  691MOL0     H91174  10.057   4.039  10.983  0.1398 -0.3160 -0.2536
  691MOL0     H91175  10.287   3.972  11.036 -1.5241  0.7918 -0.6232
  691MOL0     H91176  10.578   3.924  11.433  1.1753  1.8357  1.6027
  691MOL0     H91177  10.806   3.855  11.509 -0.9290 -1.3499  1.0764
  691MOL0     H91178  11.059   3.622  11.254  2.3701 -2.4988  0.5991
  691MOL0     H91179  10.966   3.607  11.409  0.5910  1.7485  1.5002
  691MOL0     H91180  11.138   3.660  11.540 -1.9376  1.6736 -1.8009
  691MOL0     H91181  11.260   3.692  11.416  0.2256 -0.7159  0.7531
  691MOL0     H91182  11.246   3.460  11.332  1.1622  1.6398 -0.8107
  691MOL0     H91183  11.113   3.422  11.432  0.4106 -0.1038 -0.8483
  691MOL0     H91184  11.394   3.487  11.518 -1.6610 -1.4288 -3.8608
  691MOL0     H91185  11.274   3.505  11.640  2.4123 -1.3607  2.0932
  691MOL0     H91186  11.424   3.307  11.611 -0.3167  0.9603  0.5404
  691MOL0     H91187  11.345   3.251  11.468  2.8657  0.7640  0.5035
  691MOL0     H91188  11.121   3.239  11.620 -1.0215 -4.0358  0.4598
  691MOL0     H91189  11.227   3.282  11.749  2.1712  1.9670 -2.2712
  691MOL0     H91190  11.228   3.032  11.580  0.0055 -1.2402  0.4837
  691MOL0     H91191  11.330   3.051  11.727  0.5345 -3.1359 -2.7389
  691MOL0     H91192  11.025   3.020  11.741 -0.2017 -3.0229 -0.3806
  691MOL0     H91193  11.130   3.059  11.874 -1.0602 -0.0614  0.1276
  691MOL0     H91194  10.933   3.798  11.111 -0.4472  1.4032 -1.2114
  691MOL0     H91195  10.694   3.854  11.034  0.4887 -0.6503  0.6872
  691MOL0     H91196  10.151   3.788  11.395 -2.5622 -1.2121  0.8456
  691MOL0     H91197   9.921   3.876  11.354  0.3632 -1.0160 -0.7066
  691MOL0     H91198   9.998   4.674   9.608 -1.8031  1.4903  1.3128
  691MOL0     H91199   9.955   4.551   9.402  0.6306 -0.7653  1.1512
  691MOL0     H91200  10.034   4.041   9.233 -0.2050  0.0135  2.4370
  691MOL0     H91201   9.969   3.881   9.069 -2.0952 -5.1169  0.1313
  691MOL0     H91202   9.856   3.709   8.991  0.8619  2.0053  0.0994
  691MOL0     H91203   9.829   3.828   8.857 -4.7031  0.5423 -3.5827
  691MOL0     H91204   9.663   3.573   8.886 -0.1074 -1.5905 -2.4166
  691MOL0     H91205   9.630   3.704   8.780  0.8828 -0.4354 -2.3459
  691MOL0     H91206   9.886   3.536   8.815 -2.6519 -1.4827  2.6476
  691MOL0     H91207   9.870   3.661   8.690 -1.0473 -0.6926 -0.8472
  691MOL0     H91208   9.689   3.425   8.727  3.8423 -1.9687  0.7980
  691MOL0     H91209   9.679   3.543   8.578 -2.6227 -0.5309  1.0427
  691MOL0     H91210   9.938   3.243   8.478  0.6361  2.6208 -2.1565
  691MOL0     H91211   9.572   4.025   9.077  1.6528 -1.0852 -4.4289
  691MOL0     H91212   9.633   4.209   9.228  0.1402  1.1371 -0.7473
  692MOL0     O91213   1.207   2.323  11.087 -0.5404 -0.1476 -0.0823
  692MOL0     C91214   1.254   2.431  11.064 -0.1996  0.2485  0.2222
  692MOL0     O91215   1.191   2.538  11.000  0.7787  0.8505  0.1058
  692MOL0     C91216   1.071   2.510  10.932 -0.0612 -0.3913  0.1178
  692MOL0     C91217   1.003   2.388  10.894  0.6280 -0.9550 -0.4440
  692MOL0     C91218   0.878   2.410  10.827  0.3115 -0.6068 -0.1524
  692MOL0     C91219   0.829   2.535  10.784  0.0631  0.2156 -0.5625
  692MOL0     O91220   0.723   2.533  10.700 -0.4066  0.8157  0.3056
  692MOL0     C91221   0.640   2.653  10.695  0.4662  0.3530 -0.2042
  692MOL0     C91222   0.502   2.612  10.654  0.5205 -0.0695 -0.1868
  692MOL0     C91223   0.414   2.736  10.677  0.0564 -0.3309 -0.2002
  692MOL0     C91224   0.263   2.708  10.624  0.0254 -0.6226 -0.6939
  692MOL0     C91225   0.192   2.840  10.600 -1.7486  0.2448  0.5109
  692MOL0     C91226   0.045   2.826  10.558 -0.2594  0.3807  0.3772
  692MOL0     C91227  -0.017   2.953  10.508  0.9457 -0.6268 -0.4577
  692MOL0     C91228  -0.066   3.046  10.616 -0.2847  0.3130  0.4724
  692MOL0     N91229  -0.173   3.136  10.571  0.4224  0.2432 -0.2379
  692MOL0     C91230  -0.311   3.109  10.561  0.6855 -0.2824 -1.3095
  692MOL0     C91231  -0.359   3.229  10.526 -0.1668  0.7217  0.8594
  692MOL0     C91232  -0.504   3.266  10.494 -0.3905  0.7989  0.2210
  692MOL0     C91233  -0.551   3.325  10.360 -0.2643 -0.0487  0.5258
  692MOL0     C91234  -0.498   3.471  10.341  0.4001  0.4279  0.1644
  692MOL0     C91235  -0.509   3.530  10.200 -0.7018 -0.0945 -1.0566
  692MOL0     O91236  -0.650   3.512  10.164  0.0598 -0.0476  0.2745
  692MOL0     C91237  -0.681   3.565  10.045  0.1271 -0.2404  0.0972
  692MOL0     C91238  -0.660   3.695  10.009  0.5264 -0.2872  0.9625
  692MOL0     C91239  -0.720   3.751   9.888  0.2691  0.5628 -1.1866
  692MOL0     C91240  -0.807   3.669   9.811 -0.2120  0.4920  0.1841
  692MOL0     C91241  -0.866   3.718   9.684  0.0831 -0.0866 -0.2559
  692MOL0     O91242  -0.883   3.849   9.669 -0.2472 -0.4583 -0.6128
  692MOL0     C91243  -0.938   3.906   9.550 -0.2066  0.5551  1.2077
  692MOL0     C91244  -0.853   3.916   9.437 -0.2086 -0.4136 -0.0838
  692MOL0     C91245  -0.894   3.993   9.330  0.0293 -0.9282 -0.4601
  692MOL0     C91246  -1.011   4.055   9.322  0.4861 -0.2266 -0.6199
  692MOL0     O91247  -1.049   4.129   9.211  0.2577 -0.3433  0.2485
  692MOL0     C91248  -1.142   4.236   9.212  0.5988 -0.6616 -0.6447
  692MOL0     C91249  -1.151   4.302   9.072 -0.3489 -0.5361 -0.3313
  692MOL0     C91250  -1.015   4.348   9.020 -0.2151 -0.0844 -0.3982
  692MOL0     C91251  -1.032   4.444   8.906  0.2231  0.5824 -0.8528
  692MOL0     C91252  -0.898   4.513   8.871  0.4970  0.6287  0.6890
  692MOL0     C91253  -0.900   4.647   8.787 -0.2126 -0.3355  0.3913
  692MOL0     C91254  -0.973   4.621   8.664 -0.1022  0.8634  1.1412
  692MOL0     C91255  -0.951   4.739   8.580 -0.4700 -0.4250 -0.0663
  692MOL0    Cl91256  -1.041   4.705   8.430 -0.5520  0.3697  0.1238
  692MOL0     C91257  -1.106   4.042   9.433 -0.0246 -0.5241 -0.1450
  692MOL0     C91258  -1.063   3.968   9.546 -0.9239  0.2429 -0.6695
  692MOL0     O91259  -0.901   3.637   9.601 -0.6575 -0.7924 -0.4379
  692MOL0     C91260  -0.832   3.536   9.854 -0.8906  0.3126 -0.4734
  692MOL0     C91261  -0.766   3.481   9.970 -0.2767  0.5423 -0.8266
  692MOL0     N91262  -0.269   3.322  10.529  0.0989 -0.0584 -0.4042
  692MOL0     N91263  -0.160   3.268  10.568  0.5908 -0.3743 -0.4412
  692MOL0     C91264   0.914   2.647  10.809 -0.1802 -0.6706  0.4483
  692MOL0     C91265   1.018   2.632  10.886 -1.5769  0.4184  1.3118
  692MOL0     C91266   1.381   2.449  11.142  0.3426  0.3577 -0.5722
  692MOL0     C91267   1.378   2.562  11.231  0.1041  0.1100  0.1837
  692MOL0     C91268   1.478   2.588  11.319 -0.1900  0.0729 -0.1499
  692MOL0     C91269   1.594   2.501  11.326  0.1923  0.3024 -0.4736
  692MOL0     O91270   1.704   2.524  11.406  0.2079 -0.4376  0.3816
  692MOL0     C91271   1.821   2.440  11.401 -0.2814 -0.9916  0.2653
  692MOL0     C91272   1.909   2.469  11.517  0.6722 -1.3669 -0.3502
  692MOL0     C91273   2.024   2.370  11.539  0.9909  0.4602  1.1263
  692MOL0     C91274   2.074   2.378  11.687  0.1222  0.1886  0.0775
  692MOL0     C91275   2.186   2.286  11.708 -0.6737  0.4190  0.7680
  692MOL0     C91276   2.278   2.209  11.735  0.1142 -0.3628 -0.6389
  692MOL0     C91277   1.578   2.384  11.251 -0.7051 -0.6102 -0.1382
  692MOL0     C91278   1.480   2.364  11.158  0.4358 -0.0196 -0.3098
  692MOL0     H91279   1.035   2.294  10.939 -0.3031 -0.6689  0.8975
  692MOL0     H91280   0.828   2.316  10.805 -0.1834 -0.7773  1.5914
  692MOL0     H91281   0.681   2.732  10.631 -1.2698 -0.2818 -2.2115
  692MOL0     H91282   0.633   2.677  10.801 -1.7875 -5.2741  1.3169
  692MOL0     H91283   0.465   2.521  10.701 -0.3025  0.1923 -0.3062
  692MOL0     H91284   0.494   2.592  10.547 -2.9012  0.6739 -0.1955
  692MOL0     H91285   0.453   2.819  10.616  2.1341 -1.0727  0.0568
  692MOL0     H91286   0.419   2.762  10.783  1.2752 -1.0014 -0.0814
  692MOL0     H91287   0.260   2.647  10.534 -3.6766 -4.0761  1.4244
  692MOL0     H91288   0.213   2.650  10.702  0.5998  0.1847  0.3065
  692MOL0     H91289   0.242   2.884  10.514  2.7374 -3.4474  0.8736
  692MOL0     H91290   0.210   2.908  10.683  1.2172  0.5020 -0.2516
  692MOL0     H91291  -0.019   2.793  10.641  0.3874 -0.0170  0.7334
  692MOL0     H91292   0.030   2.751  10.480 -0.3890 -2.3005  2.8071
  692MOL0     H91293   0.053   3.009  10.445  0.3971 -1.0337 -1.4542
  692MOL0     H91294  -0.106   2.923  10.451  1.1920  0.7313 -1.6102
  692MOL0     H91295   0.015   3.106  10.658 -2.0687  0.3822  4.2966
  692MOL0     H91296  -0.102   2.991  10.704 -0.8530 -0.2482 -0.0963
  692MOL0     H91297  -0.348   3.009  10.579  0.9314 -0.0497  0.8255
  692MOL0     H91298  -0.553   3.326  10.571 -0.8112 -0.5418  1.0299
  692MOL0     H91299  -0.552   3.168  10.488  3.1675 -1.0388 -1.9020
  692MOL0     H91300  -0.660   3.328  10.351 -0.2126  2.0815  0.0737
  692MOL0     H91301  -0.513   3.259  10.281  1.1768  1.7600 -0.3964
  692MOL0     H91302  -0.552   3.537  10.410  0.8248  0.7939  0.1580
  692MOL0     H91303  -0.396   3.483  10.379  1.1533 -1.7866 -0.9683
  692MOL0     H91304  -0.437   3.479  10.134  0.1908  0.5295 -0.5841
  692MOL0     H91305  -0.477   3.635  10.202  1.7084 -0.7720  0.1936
  692MOL0     H91306  -0.603   3.760  10.074  0.6362  2.0719 -1.3254
  692MOL0     H91307  -0.714   3.856   9.861 -1.5566  1.2450  0.7959
  692MOL0     H91308  -0.759   3.863   9.434  0.9511  1.3884 -4.6974
  692MOL0     H91309  -0.841   4.007   9.237 -0.6347 -1.9464 -1.0034
  692MOL0     H91310  -1.113   4.306   9.291 -2.3321 -1.6598  1.4994
  692MOL0     H91311  -1.240   4.196   9.242 -0.0412 -0.6472 -2.5926
  692MOL0     H91312  -1.222   4.385   9.086  1.2768  0.4684  2.7739
  692MOL0     H91313  -1.186   4.225   9.002  0.5416  1.0531 -2.6566
  692MOL0     H91314  -0.948   4.265   8.996 -0.4716 -0.6544  0.7805
  692MOL0     H91315  -0.973   4.399   9.106  1.8223 -0.9501 -0.8260
  692MOL0     H91316  -1.069   4.389   8.819  2.4250  2.2102 -2.9672
  692MOL0     H91317  -1.107   4.519   8.930 -3.0851 -2.6700 -0.2605
  692MOL0     H91318  -0.831   4.438   8.827  1.3546  2.3027 -1.0068
  692MOL0     H91319  -0.868   4.538   8.973  1.3207  0.0320  0.6031
  692MOL0     H91320  -0.796   4.672   8.764 -0.5660 -0.1409 -1.0903
  692MOL0     H91321  -0.953   4.732   8.833  1.2351  1.1374 -0.5827
  692MOL0     H91322  -0.946   4.520   8.633  0.2902  0.5961  2.2806
  692MOL0     H91323  -1.081   4.615   8.675 -0.0668 -3.9406  1.1408
  692MOL0     H91324  -0.849   4.761   8.549 -0.7731 -1.6601 -2.1464
  692MOL0     H91325  -0.992   4.821   8.640  0.6759  0.4773 -0.4867
  692MOL0     H91326  -1.199   4.098   9.429 -1.3316 -2.6277 -0.8118
  692MOL0     H91327  -1.123   3.957   9.636 -1.8519  0.2741 -1.2713
  692MOL0     H91328  -0.881   3.457   9.799 -1.1695  0.2560 -0.1445
  692MOL0     H91329  -0.772   3.376   9.996 -2.8334  0.3141 -1.9549
  692MOL0     H91330   0.898   2.747  10.769  3.5133 -0.4403 -0.8015
  692MOL0     H91331   1.072   2.725  10.902  1.5802 -0.7448 -1.3423
  692MOL0     H91332   1.303   2.640  11.224 -0.8381 -0.6183  1.5547
  692MOL0     H91333   1.483   2.670  11.389  3.0216  1.2898 -1.6270
  692MOL0     H91334   1.873   2.438  11.304  0.6531 -3.0456  0.7499
  692MOL0     H91335   1.781   2.338  11.411 -0.5203 -1.2725 -2.5864
  692MOL0     H91336   1.943   2.573  11.515 -2.8893 -0.0566 -2.3717
  692MOL0     H91337   1.838   2.458  11.600  0.5051  3.6207  0.4799
  692MOL0     H91338   2.111   2.390  11.476  0.8932  0.4091  0.9757
  692MOL0     H91339   1.977   2.273  11.520  0.0072  1.2063 -0.4096
  692MOL0     H91340   2.120   2.476  11.703  2.6817 -0.6572 -1.4718
  692MOL0     H91341   1.997   2.351  11.760  0.4548  0.6990  0.6257
  692MOL0     H91342   2.357   2.143  11.765  0.8591 -1.5251 -4.5410
  692MOL0     H91343   1.651   2.304  11.256  0.5861  0.5427  0.3782
  692MOL0     H91344   1.479   2.274  11.097  3.7303 -0.7032  0.4119
  693MOL0     O91345   9.311   4.275   9.755 -0.1610 -0.3460 -0.1924
  693MOL0     C91346   9.209   4.207   9.725 -0.4642 -0.0842 -0.4153
  693MOL0     O91347   9.209   4.079   9.685 -0.5306  0.5214 -0.4530
  693MOL0     C91348   9.330   4.011   9.660  0.0879 -0.8227  0.0039
  693MOL0     C91349   9.383   3.917   9.752 -0.2995  0.2414  0.2726
  693MOL0     C91350   9.503   3.846   9.709 -0.1495 -0.8028 -1.0296
  693MOL0     C91351   9.569   3.887   9.601 -0.9359 -0.6801  0.7046
  693MOL0     O91352   9.690   3.819   9.584  0.0694  0.7962 -0.2730
  693MOL0     C91353   9.792   3.882   9.507  0.3828  0.9688 -0.0168
  693MOL0     C91354   9.925   3.792   9.535  0.4690  0.6518  0.0214
  693MOL0     C91355   9.905   3.644   9.523  0.2900  0.2074 -0.5158
  693MOL0     C91356  10.042   3.574   9.521  0.5767  0.2827 -0.7629
  693MOL0     C91357  10.163   3.637   9.440 -0.7290 -0.1830 -0.9621
  693MOL0     C91358  10.144   3.623   9.280  0.6919 -0.3076 -0.0723
  693MOL0     C91359  10.281   3.634   9.212  0.4064  1.2996  0.4939
  693MOL0     C91360  10.345   3.767   9.222  0.2339  0.2429  0.4735
  693MOL0     N91361  10.436   3.774   9.113  0.0155  0.4084  0.2928
  693MOL0     C91362  10.424   3.866   9.012 -0.3383  0.3344 -0.9783
  693MOL0     C91363  10.547   3.855   8.943  0.9813 -0.9287  0.2353
  693MOL0     C91364  10.559   3.945   8.824  0.7965 -0.4528  1.1302
  693MOL0     C91365  10.487   3.890   8.694  0.7986  0.5047 -0.3694
  693MOL0     C91366  10.496   3.982   8.571 -0.3642  0.8014 -0.0009
  693MOL0     C91367  10.610   3.939   8.466 -0.3053  0.0770 -0.3335
  693MOL0     O91368  10.620   4.034   8.365 -0.3292  0.0695 -0.4857
  693MOL0     C91369  10.663   4.157   8.395 -0.0950 -1.1823  0.2277
  693MOL0     C91370  10.768   4.179   8.493  0.0513 -0.6195  0.3052
  693MOL0     C91371  10.821   4.312   8.489 -0.3415 -0.0451  0.2402
  693MOL0     C91372  10.776   4.417   8.411 -0.1347 -0.4067  0.8216
  693MOL0     C91373  10.832   4.556   8.433  0.0510  0.6665  0.0885
  693MOL0     O91374  10.938   4.571   8.520 -0.2216 -0.5868  0.0397
  693MOL0     C91375  10.989   4.697   8.547  0.9093 -0.5144  0.0871
  693MOL0     C91376  11.114   4.705   8.608 -0.2694  0.1330 -1.2980
  693MOL0     C91377  11.167   4.824   8.658  0.2749 -0.2416 -0.0931
  693MOL0     C91378  11.094   4.943   8.650 -0.5871  0.3381  0.6823
  693MOL0     O91379  11.145   5.060   8.685  0.8505 -0.3084 -0.7293
  693MOL0     C91380  11.282   5.091   8.681 -0.7934 -0.5811  0.1535
  693MOL0     C91381  11.312   5.242   8.712 -0.4547 -0.3466  0.0510
  693MOL0     C91382  11.273   5.304   8.852 -0.6767 -0.0636 -0.5198
  693MOL0     C91383  11.293   5.456   8.869 -0.6688  0.3589  0.2937
  693MOL0     C91384  11.240   5.507   9.001  0.9358 -0.3376 -0.1289
  693MOL0     C91385  11.255   5.661   9.015  0.8560  0.5146  0.0827
  693MOL0     C91386  11.399   5.712   9.030 -0.0246 -0.3742 -0.6580
  693MOL0     C91387  11.408   5.866   8.996 -1.0842 -0.1495  0.4033
  693MOL0    Cl91388  11.284   5.976   9.080  0.5010  0.1587 -0.1514
  693MOL0     C91389  10.974   4.942   8.577  0.2215 -0.1779  0.8895
  693MOL0     C91390  10.924   4.822   8.531  0.3970 -0.2689 -0.6615
  693MOL0     O91391  10.788   4.641   8.356 -0.6130 -1.0647  0.5988
  693MOL0     C91392  10.686   4.384   8.306 -0.8826 -0.3283 -1.1751
  693MOL0     C91393  10.636   4.259   8.300  1.0149 -0.4754 -0.9304
  693MOL0     N91394  10.629   3.772   9.011  0.8046  0.6314  0.5873
  693MOL0     N91395  10.556   3.713   9.101 -0.3144 -0.5290 -0.6690
  693MOL0     C91396   9.513   3.977   9.510 -0.1221  0.9349  0.4389
  693MOL0     C91397   9.385   4.036   9.540  0.9313 -0.0953  0.2145
  693MOL0     C91398   9.076   4.270   9.738  0.6948  0.1627 -0.6529
  693MOL0     C91399   9.063   4.394   9.803  0.4264  0.3331  0.2822
  693MOL0     C91400   8.943   4.456   9.817  0.5190  0.1579 -0.0210
  693MOL0     C91401   8.824   4.410   9.763  0.7177 -0.7287  1.0447
  693MOL0     O91402   8.709   4.490   9.780  0.3918  0.0779 -0.3474
  693MOL0     C91403   8.590   4.466   9.706  0.2513 -0.7326 -0.3638
  693MOL0     C91404   8.471   4.394   9.775 -0.1552  0.6424 -1.1970
  693MOL0     C91405   8.472   4.409   9.926 -0.1841 -0.0847  0.5453
  693MOL0     C91406   8.347   4.351  10.007  0.0282  0.3761 -0.0203
  693MOL0     C91407   8.332   4.207   9.975 -0.2146 -0.3604 -0.6372
  693MOL0     C91408   8.294   4.102   9.932  0.2104 -0.1244 -0.0951
  693MOL0     C91409   8.826   4.287   9.693  0.1937 -0.0986 -1.3780
  693MOL0     C91410   8.952   4.216   9.685  0.7002  0.0934  1.9524
  693MOL0     H91411   9.319   3.891   9.836  0.0345 -0.4257  0.3317
  693MOL0     H91412   9.542   3.760   9.763 -0.8866  2.2065  5.1933
  693MOL0     H91413   9.815   3.983   9.543  1.1764  0.5249  0.7525
  693MOL0     H91414   9.771   3.879   9.400  0.1425 -0.5219  0.0449
  693MOL0     H91415   9.964   3.819   9.634  1.1933  1.4350 -0.4692
  693MOL0     H91416   9.995   3.830   9.460 -0.3090 -0.2175 -1.1899
  693MOL0     H91417   9.848   3.611   9.435  0.0485 -1.5004  0.2466
  693MOL0     H91418   9.853   3.607   9.612  0.6946  4.3963  1.6797
  693MOL0     H91419  10.081   3.567   9.623  0.9403  3.0937 -0.6237
  693MOL0     H91420  10.013   3.475   9.485 -0.2549  0.1501  0.2264
  693MOL0     H91421  10.255   3.586   9.471 -0.8529  1.0832  1.7453
  693MOL0     H91422  10.170   3.743   9.466  0.7280 -0.6274  0.6348
  693MOL0     H91423  10.068   3.690   9.239 -2.5065 -2.3289  2.1241
  693MOL0     H91424  10.089   3.530   9.266 -1.2211  0.6314  0.7804
  693MOL0     H91425  10.346   3.549   9.235 -1.2233 -0.0620  0.3119
  693MOL0     H91426  10.253   3.614   9.108  0.1422  2.0885  0.4042
  693MOL0     H91427  10.401   3.778   9.315  0.6325 -0.0920  0.2757
  693MOL0     H91428  10.263   3.838   9.210 -0.8646 -0.8184  1.4572
  693MOL0     H91429  10.340   3.933   9.000  0.4199  2.1317  2.3806
  693MOL0     H91430  10.666   3.950   8.805  0.8812  0.5221  1.8320
  693MOL0     H91431  10.517   4.044   8.845 -0.3271 -0.5260 -0.5006
  693MOL0     H91432  10.382   3.896   8.722  0.7644  1.8371 -0.7087
  693MOL0     H91433  10.510   3.786   8.670  0.2031  0.6435 -1.5998
  693MOL0     H91434  10.403   3.967   8.516 -0.9744 -0.6850  1.3540
  693MOL0     H91435  10.515   4.088   8.595  4.9796  0.2753 -0.6050
  693MOL0     H91436  10.586   3.836   8.435 -1.2954  0.8250 -2.2474
  693MOL0     H91437  10.708   3.922   8.511 -1.6058  0.7597  3.0763
  693MOL0     H91438  10.816   4.106   8.557  0.0133 -0.0027  1.0495
  693MOL0     H91439  10.896   4.332   8.565 -0.1305 -0.7026  0.2068
  693MOL0     H91440  11.178   4.618   8.607 -0.2607  0.0808  0.6522
  693MOL0     H91441  11.264   4.828   8.707 -0.0173  1.4345  0.4326
  693MOL0     H91442  11.325   5.061   8.585 -2.4404 -2.8429  0.0415
  693MOL0     H91443  11.334   5.025   8.750  1.4491 -0.3260 -1.1950
  693MOL0     H91444  11.260   5.297   8.633 -1.6790 -1.4333  0.0610
  693MOL0     H91445  11.418   5.269   8.710 -1.0777  2.6104  1.2534
  693MOL0     H91446  11.331   5.246   8.924 -0.5250 -0.8429 -1.2600
  693MOL0     H91447  11.163   5.300   8.854 -0.6802 -0.4314 -1.1084
  693MOL0     H91448  11.399   5.484   8.873  0.0079 -2.1315  1.9389
  693MOL0     H91449  11.237   5.508   8.791  0.3469  0.6139 -0.2907
  693MOL0     H91450  11.292   5.450   9.078  0.5004 -0.9383 -0.2659
  693MOL0     H91451  11.134   5.481   9.009  1.4720 -2.4001  0.8946
  693MOL0     H91452  11.202   5.703   9.101  1.4147  2.3517 -0.4371
  693MOL0     H91453  11.209   5.707   8.928  2.3086  1.7411 -0.0800
  693MOL0     H91454  11.435   5.703   9.133 -2.7734 -0.7401  0.3503
  693MOL0     H91455  11.472   5.662   8.966  0.8882 -0.7533  0.6394
  693MOL0     H91456  11.388   5.886   8.890 -0.0666 -1.1329  0.0151
  693MOL0     H91457  11.508   5.902   9.021 -0.8281 -0.7740  0.3040
  693MOL0     H91458  10.923   5.036   8.558  2.0562  0.3225 -2.1424
  693MOL0     H91459  10.824   4.837   8.492  0.9391  1.0907 -1.6218
  693MOL0     H91460  10.654   4.462   8.237 -1.3873  0.3790 -0.1670
  693MOL0     H91461  10.566   4.236   8.220 -0.5123 -3.9079  1.1230
  693MOL0     H91462   9.561   3.974   9.412 -1.1106 -0.7575 -0.0478
  693MOL0     H91463   9.325   4.101   9.477 -1.5629 -1.6585  0.8556
  693MOL0     H91464   9.154   4.447   9.831 -0.2262  2.6750 -1.7119
  693MOL0     H91465   8.928   4.547   9.874  1.2631  1.2597 -1.5326
  693MOL0     H91466   8.602   4.411   9.612 -4.2361 -0.5723 -1.2695
  693MOL0     H91467   8.559   4.569   9.684  0.0895 -0.8454 -0.6768
  693MOL0     H91468   8.384   4.443   9.728 -1.2014  1.3792  1.3367
  693MOL0     H91469   8.478   4.287   9.750  2.3020  0.9697 -2.1415
  693MOL0     H91470   8.488   4.516   9.942  0.0676  0.2062 -1.4062
  693MOL0     H91471   8.567   4.365   9.958  0.6508  2.2197  1.4207
  693MOL0     H91472   8.347   4.375  10.113  2.3307  0.1873  0.0683
  693MOL0     H91473   8.253   4.392   9.970  0.4967  0.6492 -0.9521
  693MOL0     H91474   8.290   3.997   9.910  3.4068  0.1011 -2.4928
  693MOL0     H91475   8.732   4.258   9.648 -1.6491  1.5743  1.1044
  693MOL0     H91476   8.955   4.119   9.636 -3.2952 -0.9439  3.3909
  694MOL0     O91477   0.386  10.049   2.893  0.3282  0.5376  0.3578
  694MOL0     C91478   0.376  10.144   2.813 -0.6157  0.6043  0.5316
  694MOL0     O91479   0.464  10.178   2.717  0.7812 -0.8048  0.6136
  694MOL0     C91480   0.563  10.087   2.694 -0.1680 -0.3668  0.0086
  694MOL0     C91481   0.668  10.109   2.781  0.8527  0.2954 -0.0288
  694MOL0     C91482   0.784  10.024   2.785 -0.0410  0.8393 -0.4732
  694MOL0     C91483   0.797   9.926   2.689 -1.0735  1.1561 -0.2812
  694MOL0     O91484   0.909   9.854   2.660 -0.0030  0.1364  0.0395
  694MOL0     C91485   0.932   9.744   2.744 -0.8561  0.0028  0.6918
  694MOL0     C91486   0.856   9.619   2.691 -0.5734  0.4472 -0.1801
  694MOL0     C91487   0.881   9.572   2.554  0.5499  0.8562  0.5078
  694MOL0     C91488   1.013   9.496   2.557 -0.6025  0.9101 -0.1366
  694MOL0     C91489   1.044   9.401   2.436 -0.0338 -0.5926 -0.3043
  694MOL0     C91490   1.090   9.469   2.312 -0.0374  0.6340  0.2658
  694MOL0     C91491   1.141   9.355   2.216 -0.1082 -0.0012 -0.1130
  694MOL0     C91492   1.240   9.411   2.107 -0.8427 -0.7538  0.1822
  694MOL0     N91493   1.314   9.292   2.056 -0.4042 -0.0137  0.3749
  694MOL0     C91494   1.419   9.231   2.119  0.1947  0.0892  0.1438
  694MOL0     C91495   1.451   9.135   2.042  0.0176  0.5001  0.0267
  694MOL0     C91496   1.549   9.032   2.094  0.5336 -0.2938 -0.2030
  694MOL0     C91497   1.612   8.942   1.987 -0.3148  0.6493 -0.1872
  694MOL0     C91498   1.724   9.022   1.915 -0.2637  0.4753 -0.8640
  694MOL0     C91499   1.820   8.917   1.853 -0.0626 -0.5698 -0.3580
  694MOL0     O91500   1.893   8.841   1.945 -0.6321  0.2438  0.2037
  694MOL0     C91501   1.928   8.717   1.908 -0.4568 -0.4607  0.4110
  694MOL0     C91502   1.987   8.640   2.010  0.3363 -0.0633 -0.3413
  694MOL0     C91503   2.037   8.516   1.988 -0.6810  0.0990  0.1514
  694MOL0     C91504   2.017   8.451   1.872 -0.1436  0.3807 -0.0176
  694MOL0     C91505   2.058   8.308   1.848 -0.0156  1.0240  0.7147
  694MOL0     O91506   2.041   8.260   1.724 -0.7958 -0.2920  0.4423
  694MOL0     C91507   2.082   8.133   1.694 -0.7028 -0.3525  0.5013
  694MOL0     C91508   2.219   8.099   1.694  0.2786 -0.5852 -0.7700
  694MOL0     C91509   2.255   7.971   1.668 -0.5464 -0.4644 -1.2064
  694MOL0     C91510   2.159   7.878   1.626  0.4819  0.3154 -0.7272
  694MOL0     O91511   2.204   7.750   1.612 -0.2210  0.1279 -0.3003
  694MOL0     C91512   2.127   7.664   1.519  0.0853 -0.7637 -1.0044
  694MOL0     C91513   2.209   7.536   1.506 -0.0763 -0.6637  0.4075
  694MOL0     C91514   2.107   7.430   1.444 -1.0916 -0.2414  0.2103
  694MOL0     C91515   2.169   7.281   1.429 -0.1577 -0.4012  0.4490
  694MOL0     C91516   2.062   7.185   1.378  0.2665  0.1003 -0.8659
  694MOL0     C91517   2.064   7.042   1.438  0.0929  0.0005  0.1774
  694MOL0     C91518   1.922   6.985   1.460  0.1342  0.1260 -0.1051
  694MOL0     C91519   1.857   7.012   1.599  0.1070  0.0267 -0.7745
  694MOL0    Cl91520   1.845   7.173   1.664 -0.0540 -0.3563  0.3607
  694MOL0     C91521   2.023   7.914   1.613  0.6081 -1.0131 -1.2405
  694MOL0     C91522   1.986   8.043   1.647 -0.1922 -0.5625  0.4948
  694MOL0     O91523   2.108   8.253   1.940  0.4664  0.9161  0.5720
  694MOL0     C91524   1.964   8.529   1.764  0.8298 -1.3741 -0.3662
  694MOL0     C91525   1.920   8.656   1.781 -0.1518 -0.1052  1.1967
  694MOL0     N91526   1.375   9.124   1.923 -0.0029 -0.3629 -0.3133
  694MOL0     N91527   1.293   9.217   1.942  0.7384 -0.9998  0.0333
  694MOL0     C91528   0.691   9.900   2.604  0.6269  1.4091 -0.3363
  694MOL0     C91529   0.580   9.985   2.601  0.1116  0.1697 -0.2339
  694MOL0     C91530   0.258  10.224   2.827  0.1323 -0.6846 -0.5908
  694MOL0     C91531   0.213  10.325   2.740  0.1042  0.0181 -0.6508
  694MOL0     C91532   0.096  10.401   2.765 -0.6997  0.1659 -0.3144
  694MOL0     C91533   0.015  10.372   2.873  0.0401 -0.1668  1.0661
  694MOL0     O91534  -0.115  10.427   2.896  0.4959  0.3516 -0.7769
  694MOL0     C91535  -0.183  10.522   2.814 -0.4538 -0.4742  1.2353
  694MOL0     C91536  -0.314  10.551   2.881 -0.6886  0.5221  0.5446
  694MOL0     C91537  -0.310  10.657   2.988  0.5237  0.5407 -0.3602
  694MOL0     C91538  -0.420  10.760   2.989 -0.6244  0.5961 -0.0763
  694MOL0     C91539  -0.400  10.850   2.874 -0.5274  0.2400 -1.0211
  694MOL0     C91540  -0.407  10.932   2.788  0.4851  0.4488 -0.8432
  694MOL0     C91541   0.061  10.274   2.961 -0.0096 -0.0571  0.3934
  694MOL0     C91542   0.187  10.216   2.947  1.7407  0.4506 -0.5931
  694MOL0     H91543   0.650  10.197   2.842  2.3866  2.3313 -2.3258
  694MOL0     H91544   0.856  10.060   2.858  0.0771 -2.1008  1.0355
  694MOL0     H91545   0.925   9.756   2.852  1.3028 -2.9773  1.2958
  694MOL0     H91546   1.039   9.726   2.728 -1.5907 -3.8793 -1.0943
  694MOL0     H91547   0.749   9.642   2.689 -0.6954 -0.0107  0.6516
  694MOL0     H91548   0.854   9.539   2.766 -0.4951  1.0520  0.4809
  694MOL0     H91549   0.889   9.653   2.481  2.4089  0.2923  0.0191
  694MOL0     H91550   0.800   9.509   2.518 -1.3710  2.5343  1.6589
  694MOL0     H91551   1.097   9.566   2.562 -0.9965  1.5749 -2.1135
  694MOL0     H91552   1.006   9.418   2.634  3.4303 -0.7325 -1.1690
  694MOL0     H91553   0.954   9.355   2.396 -2.1622  2.5872  0.4508
  694MOL0     H91554   1.118   9.324   2.459  3.1559  1.8449 -1.5594
  694MOL0     H91555   1.167   9.542   2.337  2.0611 -1.5275  0.4900
  694MOL0     H91556   1.001   9.524   2.280 -2.9951 -1.8226  3.5468
  694MOL0     H91557   1.209   9.291   2.273 -0.5668  0.7278  1.2987
  694MOL0     H91558   1.058   9.295   2.176  1.7663 -3.6103  0.9795
  694MOL0     H91559   1.312   9.471   2.163  1.4088 -1.5498 -1.7161
  694MOL0     H91560   1.195   9.478   2.034 -2.1154 -0.8389  0.8608
  694MOL0     H91561   1.477   9.258   2.207  1.3193  0.5860 -0.7320
  694MOL0     H91562   1.491   8.973   2.165 -0.8243  3.0848  1.7022
  694MOL0     H91563   1.628   9.068   2.160 -0.8649  2.8028 -0.0221
  694MOL0     H91564   1.536   8.912   1.915 -1.1026  3.8332 -0.8449
  694MOL0     H91565   1.660   8.852   2.026 -1.1267  0.0227 -0.6156
  694MOL0     H91566   1.667   9.086   1.846 -3.6661  3.3019  3.8919
  694MOL0     H91567   1.777   9.086   1.987 -0.3916  0.9725 -1.2072
  694MOL0     H91568   1.895   8.973   1.798  0.4765  1.0368  1.8619
  694MOL0     H91569   1.759   8.862   1.781 -0.0901  1.0365 -1.6172
  694MOL0     H91570   2.000   8.687   2.107  4.1431 -0.2909 -0.6079
  694MOL0     H91571   2.080   8.484   2.082 -1.6402 -0.3559  0.4455
  694MOL0     H91572   2.294   8.174   1.718 -1.4153  0.7543  0.6592
  694MOL0     H91573   2.359   7.941   1.661 -0.3038  0.3523 -1.1982
  694MOL0     H91574   2.099   7.722   1.431 -0.2679 -2.7682 -2.2755
  694MOL0     H91575   2.028   7.636   1.557 -0.0984 -1.0965 -1.7195
  694MOL0     H91576   2.238   7.504   1.606  0.3029  2.5999  1.4398
  694MOL0     H91577   2.303   7.547   1.452 -0.9217 -0.0674 -0.9935
  694MOL0     H91578   2.074   7.475   1.350  3.3243  1.5611 -0.6905
  694MOL0     H91579   2.019   7.423   1.510 -1.0777  2.9211  0.7130
  694MOL0     H91580   2.263   7.265   1.374  0.6914 -2.4020  2.3304
  694MOL0     H91581   2.196   7.248   1.530  0.7207 -0.8972  0.0678
  694MOL0     H91582   2.087   7.179   1.271 -2.2021 -1.2391 -1.4406
  694MOL0     H91583   1.965   7.233   1.395  0.6374  1.7443 -2.9057
  694MOL0     H91584   2.117   7.054   1.532 -0.1709 -0.0974  0.3392
  694MOL0     H91585   2.125   6.973   1.378 -1.6526 -0.8102 -0.7393
  694MOL0     H91586   1.853   7.018   1.382 -0.3163 -0.0116  0.2359
  694MOL0     H91587   1.943   6.878   1.448  2.2680  0.4691  0.1070
  694MOL0     H91588   1.915   6.951   1.668  2.5649  1.7736 -1.1638
  694MOL0     H91589   1.761   6.962   1.587 -1.1616  2.0255  0.4430
  694MOL0     H91590   1.939   7.862   1.568 -1.2638  1.6091 -1.0384
  694MOL0     H91591   1.884   8.081   1.648 -0.2355 -0.3423 -2.6973
  694MOL0     H91592   1.949   8.485   1.666 -0.5670  1.0084 -1.2974
  694MOL0     H91593   1.877   8.696   1.690 -0.2558 -1.9598  0.4022
  694MOL0     H91594   0.687   9.820   2.530 -1.2287 -0.6550  1.8033
  694MOL0     H91595   0.506   9.975   2.523 -1.5260 -1.7012  1.4652
  694MOL0     H91596   0.274  10.350   2.654 -0.7375  0.5213 -1.1198
  694MOL0     H91597   0.081  10.484   2.697  0.9612  0.6286 -0.1635
  694MOL0     H91598  -0.197  10.478   2.715  2.6764  0.0759  0.4492
  694MOL0     H91599  -0.128  10.617   2.813 -0.8411 -0.1799  3.5106
  694MOL0     H91600  -0.374  10.581   2.795  1.2110 -0.4140 -1.1969
  694MOL0     H91601  -0.352  10.463   2.933  1.3077  0.7444  2.5427
  694MOL0     H91602  -0.221  10.721   2.982 -0.7943  2.9241  2.6372
  694MOL0     H91603  -0.314  10.607   3.085 -0.2619 -2.1147 -1.6620
  694MOL0     H91604  -0.515  10.706   2.979  0.7755 -2.4458  1.7740
  694MOL0     H91605  -0.407  10.814   3.083  5.5845 -0.7079  0.2270
  694MOL0     H91606  -0.390  11.003   2.709  1.0346 -0.6072 -1.7037
  694MOL0     H91607  -0.001  10.248   3.046 -0.4822 -2.6146 -0.6336
  694MOL0     H91608   0.214  10.148   3.028  1.1220 -1.4188 -1.8808
  695MOL0     O91609   8.796  11.435   6.304 -0.1055 -0.3713  0.0919
  695MOL0     C91610   8.866  11.517   6.364  0.7407  0.0495  0.2301
  695MOL0     O91611   8.908  11.640   6.317 -0.1881  0.1846  0.0980
  695MOL0     C91612   8.922  11.660   6.188  0.3550  0.8384  0.0301
  695MOL0     C91613   8.912  11.562   6.081 -0.0195 -0.7592  0.0446
  695MOL0     C91614   8.927  11.589   5.944  0.9210  0.0125  0.4945
  695MOL0     C91615   8.946  11.721   5.915  0.2615 -0.0882  0.1622
  695MOL0     O91616   8.957  11.752   5.782 -0.5145 -0.3471 -0.4602
  695MOL0     C91617   8.995  11.886   5.733 -0.0178 -0.1460  0.3602
  695MOL0     C91618   8.870  11.981   5.716  0.1024 -0.0860  0.2535
  695MOL0     C91619   8.889  12.074   5.588 -0.7361  0.0470 -0.6661
  695MOL0     C91620   8.766  12.156   5.554 -0.8879  0.2426  1.0857
  695MOL0     C91621   8.793  12.278   5.468 -0.7896 -0.3240 -0.0914
  695MOL0     C91622   8.662  12.358   5.445 -0.1868  0.7695  0.2997
  695MOL0     C91623   8.699  12.498   5.398  0.4914  0.1902  1.0151
  695MOL0     C91624   8.570  12.565   5.342 -0.2755 -0.1333 -0.0491
  695MOL0     N91625   8.499  12.496   5.237 -0.1863 -0.5354  0.0325
  695MOL0     C91626   8.539  12.478   5.112 -0.4840 -0.0444 -0.8518
  695MOL0     C91627   8.454  12.397   5.052 -0.2894  1.2434 -0.1148
  695MOL0     C91628   8.482  12.341   4.914 -0.5231  0.0957  0.1619
  695MOL0     C91629   8.439  12.194   4.900  0.4222  0.3220 -0.9198
  695MOL0     C91630   8.278  12.162   4.924 -0.2930  0.5538 -0.1152
  695MOL0     C91631   8.238  12.016   4.883  0.4784 -0.5880 -0.2672
  695MOL0     O91632   8.313  11.984   4.761  0.0820 -0.2518  0.0371
  695MOL0     C91633   8.261  12.047   4.659 -0.5766 -0.3236  0.6461
  695MOL0     C91634   8.126  12.074   4.631 -0.5052 -0.4892 -0.0978
  695MOL0     C91635   8.076  12.156   4.540 -0.7435 -0.1734  0.6995
  695MOL0     C91636   8.166  12.231   4.463 -0.3456  0.7916  0.5020
  695MOL0     C91637   8.113  12.336   4.377 -0.1799 -0.4758  0.6698
  695MOL0     O91638   8.213  12.411   4.318 -0.4923  0.1279 -0.4710
  695MOL0     C91639   8.191  12.493   4.210 -0.1841 -0.4080  0.0745
  695MOL0     C91640   8.097  12.606   4.203 -0.0400  0.7183  0.3494
  695MOL0     C91641   8.070  12.661   4.079  0.2611  0.7214 -0.2233
  695MOL0     C91642   8.152  12.631   3.972  0.1164 -0.0372 -0.0407
  695MOL0     O91643   8.122  12.679   3.851 -0.2971 -0.1535 -0.1096
  695MOL0     C91644   8.086  12.815   3.835  0.8027 -0.0093 -0.6691
  695MOL0     C91645   8.061  12.835   3.683 -0.0484 -0.2759 -0.0351
  695MOL0     C91646   7.951  12.738   3.629 -0.4670  0.4283 -0.4260
  695MOL0     C91647   7.923  12.790   3.483  0.6961  0.0311  0.2241
  695MOL0     C91648   7.803  12.726   3.422 -0.3733 -0.2743 -0.0849
  695MOL0     C91649   7.789  12.747   3.265  0.4973 -0.3317  1.0480
  695MOL0     C91650   7.909  12.694   3.185  0.7988 -0.2003 -0.7960
  695MOL0     C91651   7.923  12.545   3.226 -0.0401  0.4395  0.8013
  695MOL0    Cl91652   8.011  12.464   3.083  0.7917 -0.7093  0.2627
  695MOL0     C91653   8.248  12.529   3.980 -0.2782  0.1357  1.3359
  695MOL0     C91654   8.253  12.451   4.094 -0.0651 -0.1081  0.4095
  695MOL0     O91655   7.996  12.345   4.346 -0.5015 -0.5647  0.2013
  695MOL0     C91656   8.305  12.214   4.485  0.6443  0.3213 -0.2434
  695MOL0     C91657   8.343  12.119   4.578  0.0403  0.7679  0.4174
  695MOL0     N91658   8.339  12.392   5.138 -0.2239 -0.9175  1.1102
  695MOL0     N91659   8.378  12.444   5.251  0.1069 -0.5494 -0.4026
  695MOL0     C91660   8.956  11.822   6.014 -0.7431  0.3600 -0.5766
  695MOL0     C91661   8.946  11.789   6.152  0.8793 -0.5289 -0.6490
  695MOL0     C91662   8.885  11.475   6.505 -0.9982  0.5521 -0.4473
  695MOL0     C91663   8.828  11.353   6.566  0.3426  0.1851 -0.3207
  695MOL0     C91664   8.857  11.318   6.701 -0.2094 -0.0519 -0.3397
  695MOL0     C91665   8.943  11.390   6.777 -0.8664 -0.8172 -0.2516
  695MOL0     O91666   8.970  11.330   6.904  0.2220 -1.0080 -0.1115
  695MOL0     C91667   9.090  11.374   6.977  1.3597 -0.7893 -0.1609
  695MOL0     C91668   9.116  11.285   7.101  0.8125 -0.4377 -1.1783
  695MOL0     C91669   9.253  11.320   7.169 -0.3876  0.1325 -0.1026
  695MOL0     C91670   9.287  11.229   7.286 -0.1807 -0.3655 -0.3271
  695MOL0     C91671   9.361  11.111   7.244 -0.1402  0.3349 -0.0310
  695MOL0     C91672   9.422  11.018   7.193 -0.8025  0.9040  0.2788
  695MOL0     C91673   9.003  11.502   6.723  0.2847  0.8988 -0.5509
  695MOL0     C91674   8.973  11.540   6.596 -0.7096  0.4521  0.0888
  695MOL0     H91675   8.910  11.454   6.094 -0.4146 -1.5236 -4.7376
  695MOL0     H91676   8.914  11.517   5.864 -0.7495  2.3322 -1.5022
  695MOL0     H91677   9.038  11.871   5.633  0.2278  1.5641  0.1708
  695MOL0     H91678   9.073  11.938   5.791  1.2246  2.8706 -3.5523
  695MOL0     H91679   8.847  12.037   5.807 -0.4718  0.1933 -0.0593
  695MOL0     H91680   8.778  11.923   5.704  0.3736 -0.4219 -0.2459
  695MOL0     H91681   8.923  12.016   5.502 -3.0352 -0.4219 -1.3269
  695MOL0     H91682   8.973  12.143   5.603  0.3674 -0.1177 -4.8597
  695MOL0     H91683   8.702  12.087   5.498 -0.3542  0.9980 -0.4870
  695MOL0     H91684   8.729  12.201   5.647  2.6898 -1.1686  3.4173
  695MOL0     H91685   8.844  12.260   5.373 -1.1937 -2.4174  0.0319
  695MOL0     H91686   8.868  12.340   5.518  1.5158  0.4572 -4.0585
  695MOL0     H91687   8.601  12.363   5.536  1.2743 -2.3814  1.5944
  695MOL0     H91688   8.606  12.295   5.375  4.6962 -0.7986 -2.7350
  695MOL0     H91689   8.737  12.557   5.482  3.0222 -0.5158  0.4713
  695MOL0     H91690   8.763  12.500   5.309 -3.5982  0.0238 -2.2137
  695MOL0     H91691   8.597  12.658   5.291  1.7464 -0.7392 -0.1962
  695MOL0     H91692   8.502  12.574   5.427  0.4312 -0.0318  0.5191
  695MOL0     H91693   8.632  12.523   5.077  1.3330 -0.1258  3.3328
  695MOL0     H91694   8.588  12.351   4.886 -0.4342  1.7800  0.8960
  695MOL0     H91695   8.424  12.405   4.847 -0.5268  1.0981  1.0839
  695MOL0     H91696   8.495  12.132   4.970 -0.8078 -0.0577 -0.2290
  695MOL0     H91697   8.473  12.153   4.804 -0.1968  2.1578 -1.9918
  695MOL0     H91698   8.248  12.173   5.028 -1.3455  1.1466 -0.4697
  695MOL0     H91699   8.211  12.223   4.863 -4.8600 -3.5622  0.1938
  695MOL0     H91700   8.129  12.007   4.879  0.3056 -2.0764  3.7521
  695MOL0     H91701   8.271  11.952   4.965  1.8125  0.6705  0.2238
  695MOL0     H91702   8.042  12.026   4.681 -3.4375  1.5208 -2.6371
  695MOL0     H91703   7.970  12.154   4.517 -0.4005 -1.9087 -0.9462
  695MOL0     H91704   8.039  12.624   4.293 -0.5421 -0.1643  0.2113
  695MOL0     H91705   7.981  12.723   4.072 -0.9089 -0.9365 -0.3305
  695MOL0     H91706   8.179  12.865   3.866 -0.3388  1.3723  0.6980
  695MOL0     H91707   7.999  12.839   3.896 -0.6237 -3.9410 -0.8650
  695MOL0     H91708   8.147  12.820   3.616  1.1906  0.4266  1.3310
  695MOL0     H91709   8.028  12.939   3.675  0.7897  0.3482  3.1237
  695MOL0     H91710   7.854  12.739   3.681  0.7158  0.5825  1.8948
  695MOL0     H91711   7.989  12.635   3.633  1.5882  1.0809  4.5369
  695MOL0     H91712   7.905  12.898   3.479 -1.8157 -0.3567 -1.6975
  695MOL0     H91713   8.018  12.778   3.429  1.4519 -0.3565  1.5788
  695MOL0     H91714   7.709  12.769   3.460 -0.2338  0.3689 -0.4549
  695MOL0     H91715   7.802  12.618   3.439  2.8582 -0.5781 -1.1422
  695MOL0     H91716   7.778  12.851   3.236  3.2886 -0.3012 -0.1187
  695MOL0     H91717   7.705  12.684   3.233  1.3981  0.5633 -3.8586
  695MOL0     H91718   7.876  12.694   3.081 -0.2997 -0.4999 -0.4645
  695MOL0     H91719   7.995  12.762   3.182  2.6696 -2.2065  1.7842
  695MOL0     H91720   7.820  12.511   3.233  0.2618 -0.6361  0.3020
  695MOL0     H91721   7.984  12.539   3.317  1.3435  1.0315 -0.0531
  695MOL0     H91722   8.299  12.486   3.894 -1.4818  0.7057  0.3016
  695MOL0     H91723   8.318  12.364   4.090  2.6540  1.8298 -1.0497
  695MOL0     H91724   8.386  12.269   4.439  2.0035 -1.7047 -0.4364
  695MOL0     H91725   8.451  12.109   4.585 -0.1209 -2.4067 -0.1353
  695MOL0     H91726   8.982  11.924   5.987  1.4763 -0.2308 -0.8731
  695MOL0     H91727   8.949  11.867   6.227  3.1490 -1.3122  0.1485
  695MOL0     H91728   8.751  11.306   6.505 -1.4064  0.3253  1.6947
  695MOL0     H91729   8.817  11.231   6.752 -0.9268  0.8541  0.6883
  695MOL0     H91730   9.084  11.481   7.003 -0.9493  0.4241 -4.5525
  695MOL0     H91731   9.175  11.384   6.909  0.9959  4.5356 -0.2919
  695MOL0     H91732   9.034  11.303   7.171  1.0147  1.6931 -1.4301
  695MOL0     H91733   9.111  11.181   7.069  2.2077 -1.1715  0.8187
  695MOL0     H91734   9.235  11.421   7.206 -0.5629  0.3627 -0.8032
  695MOL0     H91735   9.319  11.326   7.082 -0.9161 -2.0730 -0.7302
  695MOL0     H91736   9.342  11.281   7.365  2.3942 -1.5690 -1.2166
  695MOL0     H91737   9.200  11.187   7.336 -1.3095  0.6528 -1.3480
  695MOL0     H91738   9.460  10.930   7.146 -1.6136  1.7891 -2.2002
  695MOL0     H91739   9.062  11.558   6.795  0.0925  1.3187 -0.7202
  695MOL0     H91740   9.017  11.630   6.556  1.9972 -0.2556  1.2796
  696MOL0     O91741   5.755   3.275  11.058 -0.0730 -0.0317  1.2933
  696MOL0     C91742   5.840   3.239  11.134 -0.2161  0.7371 -0.7200
  696MOL0     O91743   5.822   3.142  11.234 -0.9400 -0.0382  0.6577
  696MOL0     C91744   5.714   3.052  11.222 -0.2142 -0.2870  0.7003
  696MOL0     C91745   5.662   2.991  11.339  0.3806 -0.7228 -0.3857
  696MOL0     C91746   5.550   2.903  11.336 -0.9618 -0.6299 -0.6384
  696MOL0     C91747   5.523   2.831  11.228 -0.1242  0.4806  1.4541
  696MOL0     O91748   5.424   2.733  11.236  0.5648 -0.6709  0.5436
  696MOL0     C91749   5.476   2.609  11.224 -0.5050 -0.5671  0.9083
  696MOL0     C91750   5.530   2.551  11.355  0.2860 -0.2710 -0.0136
  696MOL0     C91751   5.680   2.558  11.364  0.9031  0.1117  0.2047
  696MOL0     C91752   5.728   2.524  11.508 -0.3036 -0.0919 -0.5853
  696MOL0     C91753   5.888   2.504  11.508  0.5018  0.3297 -0.9759
  696MOL0     C91754   5.921   2.356  11.489  0.1545  0.0561  0.4712
  696MOL0     C91755   6.065   2.315  11.538 -0.7518 -0.7845  0.0437
  696MOL0     C91756   6.175   2.351  11.444 -0.3700  1.1583 -0.1882
  696MOL0     N91757   6.285   2.436  11.503  1.2764 -0.1807 -0.5209
  696MOL0     C91758   6.414   2.390  11.532  1.0541 -0.6513 -0.8226
  696MOL0     C91759   6.490   2.494  11.506 -0.2114 -0.5005  0.7979
  696MOL0     C91760   6.636   2.485  11.517  0.1036 -0.8435  0.5402
  696MOL0     C91761   6.708   2.413  11.401  1.1509 -0.2041  1.0501
  696MOL0     C91762   6.652   2.435  11.251  0.8973 -0.2351  0.5468
  696MOL0     C91763   6.674   2.581  11.189  0.3412  0.1546 -0.3051
  696MOL0     O91764   6.603   2.566  11.065 -0.6655  0.1878  0.4085
  696MOL0     C91765   6.547   2.692  11.024 -0.4067 -0.6957 -0.7494
  696MOL0     C91766   6.409   2.703  11.040 -0.9004 -0.0309  0.2780
  696MOL0     C91767   6.349   2.821  10.992  0.5816 -0.4456 -0.6392
  696MOL0     C91768   6.418   2.935  10.952 -0.2926  0.3970  0.5804
  696MOL0     C91769   6.350   3.044  10.882 -1.3646 -0.0585 -0.1942
  696MOL0     O91770   6.217   3.055  10.906  0.0194 -0.2989  0.7480
  696MOL0     C91771   6.128   3.141  10.848  0.4647 -0.8684 -0.0202
  696MOL0     C91772   5.995   3.105  10.863 -0.6326  0.5176  0.0867
  696MOL0     C91773   5.888   3.152  10.778 -0.3434 -0.3961 -0.3029
  696MOL0     C91774   5.919   3.259  10.692  0.6710 -0.0758  1.1342
  696MOL0     O91775   5.832   3.328  10.609  0.3990  0.4129  0.7751
  696MOL0     C91776   5.694   3.301  10.638 -0.1562 -0.0267  0.0540
  696MOL0     C91777   5.597   3.402  10.567 -0.5019 -0.3004  0.3663
  696MOL0     C91778   5.571   3.362  10.426 -0.3434 -0.4818 -0.8876
  696MOL0     C91779   5.464   3.453  10.364  0.4647  0.0369 -0.1738
  696MOL0     C91780   5.441   3.408  10.215  0.4069 -0.0438 -0.3052
  696MOL0     C91781   5.339   3.489  10.134  0.4622  0.3090 -0.5308
  696MOL0     C91782   5.200   3.488  10.202 -0.0069  0.2996 -0.5258
  696MOL0     C91783   5.083   3.556  10.120 -0.6272  0.1953 -0.5528
  696MOL0    Cl91784   5.143   3.659   9.985  0.5461  0.2113 -0.0885
  696MOL0     C91785   6.052   3.302  10.688  0.0584  0.4445  0.8810
  696MOL0     C91786   6.159   3.247  10.753 -0.8215  0.5674 -0.3772
  696MOL0     O91787   6.430   3.127  10.821  0.8594  0.7155  0.0271
  696MOL0     C91788   6.561   2.915  10.947  0.1593 -0.5445 -0.0291
  696MOL0     C91789   6.618   2.798  10.973  0.1064  0.1681  0.0466
  696MOL0     N91790   6.410   2.596  11.469  0.8023 -0.5230  0.1662
  696MOL0     N91791   6.282   2.563  11.464 -0.5229  0.6442  0.4656
  696MOL0     C91792   5.582   2.880  11.105  0.6237  0.1014 -0.5871
  696MOL0     C91793   5.671   2.991  11.100 -1.1695 -0.2888  0.2118
  696MOL0     C91794   5.977   3.302  11.122  0.7709 -0.5025  0.4841
  696MOL0     C91795   6.011   3.420  11.049  0.0508  0.0143  0.3781
  696MOL0     C91796   6.133   3.471  11.050  0.0686  0.6922  0.2898
  696MOL0     C91797   6.237   3.415  11.129 -0.2577  0.5413 -0.3437
  696MOL0     O91798   6.360   3.477  11.126 -0.4634  0.3063 -0.0444
  696MOL0     C91799   6.441   3.469  11.008  0.6063 -0.0849  0.7573
  696MOL0     C91800   6.538   3.350  11.004 -0.2477  0.3268 -0.2530
  696MOL0     C91801   6.629   3.370  11.120 -0.7585  0.9534  0.3991
  696MOL0     C91802   6.735   3.259  11.140  0.4333  0.3531 -0.3204
  696MOL0     C91803   6.680   3.132  11.194  0.1165 -0.5404  0.0427
  696MOL0     C91804   6.635   3.051  11.271  0.0931 -0.1308 -0.2727
  696MOL0     C91805   6.210   3.308  11.213  1.0708  0.9769  0.3255
  696MOL0     C91806   6.087   3.249  11.205  0.1239  0.2389  0.2325
  696MOL0     H91807   5.688   3.043  11.432 -1.5450 -1.9341  0.8862
  696MOL0     H91808   5.505   2.875  11.430 -0.7966  3.1947  0.7637
  696MOL0     H91809   5.548   2.598  11.143  0.7265  1.1135  1.7067
  696MOL0     H91810   5.385   2.556  11.194 -0.4111  0.5970 -1.7005
  696MOL0     H91811   5.507   2.444  11.360 -1.5155  0.0689 -0.4310
  696MOL0     H91812   5.477   2.590  11.442 -2.1647  0.0965 -1.5767
  696MOL0     H91813   5.702   2.661  11.335 -1.1007 -0.0108 -2.1439
  696MOL0     H91814   5.727   2.480  11.305 -0.1876 -0.2186 -0.2486
  696MOL0     H91815   5.709   2.611  11.571  0.2008 -0.6521  0.3593
  696MOL0     H91816   5.680   2.433  11.545  2.1845 -0.5813  1.7511
  696MOL0     H91817   5.926   2.533  11.606 -1.2788 -0.3487 -0.0420
  696MOL0     H91818   5.947   2.567  11.442  2.6835 -1.0335 -0.4154
  696MOL0     H91819   5.907   2.330  11.383 -0.1909  0.1612  0.4886
  696MOL0     H91820   5.853   2.292  11.546  3.3216 -3.7466  0.4176
  696MOL0     H91821   6.087   2.371  11.629  1.0769  1.2548 -1.5311
  696MOL0     H91822   6.066   2.207  11.556  3.6599 -0.6388  2.1012
  696MOL0     H91823   6.140   2.407  11.357  0.5876  2.3823  0.1924
  696MOL0     H91824   6.219   2.261  11.400 -1.2009  1.0784 -0.8803
  696MOL0     H91825   6.440   2.287  11.555 -1.2857 -0.9763  0.7058
  696MOL0     H91826   6.666   2.444  11.614  1.1231 -2.1805 -0.3018
  696MOL0     H91827   6.660   2.591  11.518 -0.5718 -0.6679 -0.3553
  696MOL0     H91828   6.693   2.305  11.414  0.9948 -0.5914 -1.7799
  696MOL0     H91829   6.817   2.421  11.394  1.4108 -1.9774  2.2517
  696MOL0     H91830   6.694   2.360  11.184  1.8879  0.8314 -0.0643
  696MOL0     H91831   6.544   2.422  11.262  1.1555 -2.6591  0.6002
  696MOL0     H91832   6.779   2.609  11.173  0.4225 -0.1703 -0.3497
  696MOL0     H91833   6.631   2.658  11.253 -0.4877  0.7123 -1.5129
  696MOL0     H91834   6.344   2.639  11.099  1.5940  0.9743  4.5163
  696MOL0     H91835   6.242   2.839  10.994  1.0448  3.5382  2.4151
  696MOL0     H91836   5.975   3.023  10.930 -0.3476  0.7642  0.4752
  696MOL0     H91837   5.790   3.106  10.773  0.2161 -1.6140 -0.7082
  696MOL0     H91838   5.668   3.312  10.744  0.0623 -5.2494  0.9221
  696MOL0     H91839   5.659   3.202  10.606 -0.4765 -0.2746  1.1315
  696MOL0     H91840   5.626   3.507  10.577 -0.5999 -0.3314  0.9896
  696MOL0     H91841   5.501   3.391  10.616 -0.7819 -0.1566 -0.1432
  696MOL0     H91842   5.537   3.258  10.425 -1.6542 -0.1641  1.6706
  696MOL0     H91843   5.670   3.356  10.379 -0.2660 -0.0688 -0.7843
  696MOL0     H91844   5.380   3.452  10.434  0.6537 -2.6334  0.1222
  696MOL0     H91845   5.506   3.554  10.359  0.8058 -0.0966 -0.0628
  696MOL0     H91846   5.411   3.303  10.213  0.9582 -0.2249 -2.9408
  696MOL0     H91847   5.534   3.412  10.157  0.2633  0.0591 -0.5299
  696MOL0     H91848   5.330   3.453  10.031  2.8552 -0.0268 -0.6619
  696MOL0     H91849   5.372   3.592  10.121  2.1153 -0.1285 -0.0311
  696MOL0     H91850   5.170   3.387  10.230  3.1684 -0.3540  1.0445
  696MOL0     H91851   5.207   3.550  10.292  1.8968 -0.9208  0.2413
  696MOL0     H91852   5.019   3.620  10.180  0.3468  1.6617 -1.0133
  696MOL0     H91853   5.012   3.480  10.086 -1.0411 -0.0054  0.7054
  696MOL0     H91854   6.059   3.386  10.620 -0.3350 -0.6387 -0.5539
  696MOL0     H91855   6.263   3.267  10.731 -1.3341 -0.5849 -4.8808
  696MOL0     H91856   6.625   2.995  10.911 -2.5884  0.2786 -3.6792
  696MOL0     H91857   6.725   2.782  10.966  0.3596 -0.5041  3.3428
  696MOL0     H91858   5.553   2.831  11.012  0.6210 -0.1523 -0.4552
  696MOL0     H91859   5.711   3.017  11.003 -0.6784 -0.4936  0.3558
  696MOL0     H91860   5.943   3.479  10.988 -2.1754 -0.0094  2.7191
  696MOL0     H91861   6.131   3.556  10.983 -0.3084  2.9010  2.9468
  696MOL0     H91862   6.487   3.569  11.008 -1.6282  1.0551  2.6756
  696MOL0     H91863   6.373   3.462  10.923 -0.1499  1.8144  1.1284
  696MOL0     H91864   6.493   3.250  11.010 -1.0500  0.6747 -0.4193
  696MOL0     H91865   6.602   3.348  10.916 -2.4534 -1.7453 -1.9677
  696MOL0     H91866   6.592   3.377  11.223 -0.6723 -0.5033  0.5469
  696MOL0     H91867   6.673   3.465  11.088 -1.5180  1.0697 -0.3200
  696MOL0     H91868   6.784   3.246  11.043 -0.9782  1.4830 -1.2314
  696MOL0     H91869   6.813   3.303  11.204  0.4466  1.6193 -1.1591
  696MOL0     H91870   6.622   2.976  11.347  1.2570  0.4159  0.5061
  696MOL0     H91871   6.288   3.263  11.274  1.4531  0.1698 -0.7166
  696MOL0     H91872   6.066   3.169  11.275  1.3148 -1.1367 -0.9006
  697MOL0     O91873   9.132   2.529  11.416 -0.5481  0.4147  0.3035
  697MOL0     C91874   9.048   2.587  11.341 -0.4741  1.6824  0.0514
  697MOL0     O91875   8.913   2.567  11.335  0.1028  0.1347  0.5281
  697MOL0     C91876   8.861   2.462  11.410  0.1162  0.0504  0.7534
  697MOL0     C91877   8.784   2.362  11.341 -0.0575 -0.3734 -0.1114
  697MOL0     C91878   8.723   2.259  11.411  0.9763 -0.6758 -0.2098
  697MOL0     C91879   8.744   2.257  11.551 -0.7896  0.2143  0.0699
  697MOL0     O91880   8.681   2.153  11.616 -0.1188 -0.8802 -0.3780
  697MOL0     C91881   8.767   2.032  11.609 -0.0432 -0.1506 -0.0877
  697MOL0     C91882   8.727   1.933  11.503 -0.0841 -0.0211 -0.6445
  697MOL0     C91883   8.593   1.853  11.528 -1.1491  0.2571 -0.3070
  697MOL0     C91884   8.462   1.938  11.515 -0.4326 -1.2658 -0.1373
  697MOL0     C91885   8.346   1.843  11.533 -0.7666 -0.2083 -1.1866
  697MOL0     C91886   8.219   1.928  11.531 -0.2093 -0.1591  0.4227
  697MOL0     C91887   8.103   1.826  11.556 -0.6722  0.6347 -0.3228
  697MOL0     C91888   7.970   1.889  11.526 -0.3828  0.3526 -0.2522
  697MOL0     N91889   7.864   1.784  11.545  0.7405 -0.8871  0.6908
  697MOL0     C91890   7.787   1.710  11.456 -0.4584 -0.6686  0.2716
  697MOL0     C91891   7.694   1.640  11.525 -0.1639  0.0822 -0.0415
  697MOL0     C91892   7.594   1.543  11.476  1.1832 -0.4774 -1.3216
  697MOL0     C91893   7.495   1.520  11.599 -0.7343  0.5758 -0.5416
  697MOL0     C91894   7.385   1.422  11.554 -0.8657 -0.4843  0.7250
  697MOL0     C91895   7.283   1.378  11.660  0.6448  0.2006  0.9067
  697MOL0     O91896   7.201   1.482  11.707 -0.3323  1.3088 -0.2276
  697MOL0     C91897   7.077   1.508  11.651  1.2389 -0.0763 -0.1165
  697MOL0     C91898   7.016   1.454  11.533 -0.7217 -0.2113 -0.4081
  697MOL0     C91899   6.892   1.492  11.493 -0.1745  0.0472  0.3580
  697MOL0     C91900   6.812   1.588  11.561 -0.7740 -0.9207  0.5597
  697MOL0     C91901   6.681   1.625  11.517 -0.4045  0.0682 -0.1506
  697MOL0     O91902   6.618   1.719  11.596  0.0336  0.3021 -0.9337
  697MOL0     C91903   6.504   1.784  11.557 -0.2626 -0.6603 -0.3532
  697MOL0     C91904   6.407   1.726  11.482 -0.2242 -0.1834 -0.3949
  697MOL0     C91905   6.300   1.789  11.425 -0.2522  0.2202  0.5743
  697MOL0     C91906   6.279   1.926  11.462 -0.6749 -0.8085 -0.4939
  697MOL0     O91907   6.166   1.999  11.435 -0.1650  0.4985 -0.4811
  697MOL0     C91908   6.071   1.950  11.343  0.1237  0.9350  0.4747
  697MOL0     C91909   5.991   2.066  11.283 -0.0351 -0.5011  0.0357
  697MOL0     C91910   5.916   2.020  11.157  0.4638  0.6346 -0.2834
  697MOL0     C91911   5.820   2.121  11.092 -0.2846  0.1300  0.8506
  697MOL0     C91912   5.675   2.118  11.132  0.3702 -0.2698 -0.4963
  697MOL0     C91913   5.585   2.183  11.033 -0.1850 -0.0966  0.0764
  697MOL0     C91914   5.623   2.336  11.009  0.0095  0.5385 -0.1547
  697MOL0     C91915   5.503   2.391  10.932 -1.1606 -0.4079  0.8866
  697MOL0    Cl91916   5.514   2.350  10.758 -0.5629  0.0387  0.0738
  697MOL0     C91917   6.380   1.988  11.544  0.4318 -0.3196  0.3915
  697MOL0     C91918   6.488   1.923  11.592  0.0507 -0.3222 -0.0147
  697MOL0     O91919   6.642   1.583  11.410 -0.3806 -0.0880  0.4629
  697MOL0     C91920   6.878   1.648  11.669  0.8542 -0.2669 -0.1469
  697MOL0     C91921   7.000   1.602  11.717  1.0381 -0.2118  0.5262
  697MOL0     N91922   7.701   1.692  11.652  0.1026  0.3534 -0.4548
  697MOL0     N91923   7.803   1.773  11.663 -0.8970  0.1132 -0.0565
  697MOL0     C91924   8.816   2.360  11.621 -0.3991 -0.0524 -0.8824
  697MOL0     C91925   8.870   2.465  11.547  0.0252 -0.4541  0.3364
  697MOL0     C91926   9.087   2.691  11.247  0.3493 -0.0136  0.7932
  697MOL0     C91927   8.992   2.777  11.196  0.1770 -0.2169  0.8826
  697MOL0     C91928   9.026   2.883  11.120 -0.2533  0.0448  1.6988
  697MOL0     C91929   9.163   2.902  11.084 -0.3459 -0.0094  0.3709
  697MOL0     O91930   9.223   3.016  11.028  0.6364  0.1092  0.0950
  697MOL0     C91931   9.130   3.116  10.969 -0.5493  0.0781  0.5266
  697MOL0     C91932   9.193   3.191  10.864 -0.0768  0.2697  0.1418
  697MOL0     C91933   9.090   3.252  10.764 -0.0335  0.1729  0.0773
  697MOL0     C91934   9.157   3.362  10.682  0.4533 -0.7646 -0.1062
  697MOL0     C91935   9.048   3.448  10.634  0.5292  0.2404 -0.5571
  697MOL0     C91936   8.961   3.531  10.602 -0.8353 -0.1015  0.6174
  697MOL0     C91937   9.258   2.806  11.126  0.1507  0.1132  0.3730
  697MOL0     C91938   9.220   2.700  11.213  0.5023  0.4128 -0.2035
  697MOL0     H91939   8.765   2.374  11.234  1.0579  3.8942  0.0101
  697MOL0     H91940   8.668   2.175  11.368  3.4988 -2.2786 -0.4887
  697MOL0     H91941   8.767   1.986  11.708  0.3377  0.8040  0.3646
  697MOL0     H91942   8.869   2.056  11.576  0.6795 -1.3278  1.2114
  697MOL0     H91943   8.800   1.851  11.501  1.3794  1.2422 -1.4433
  697MOL0     H91944   8.724   1.977  11.403 -1.6780  0.0880 -0.5711
  697MOL0     H91945   8.595   1.823  11.633 -0.7725 -1.8653 -0.8781
  697MOL0     H91946   8.604   1.761  11.469  1.1783 -1.7118  2.8492
  697MOL0     H91947   8.460   2.003  11.603  1.1007 -1.6779  0.2460
  697MOL0     H91948   8.460   1.999  11.425  0.0500  0.1421  0.7715
  697MOL0     H91949   8.350   1.802  11.634  0.2066  1.6091 -0.4484
  697MOL0     H91950   8.349   1.776  11.447 -1.2926  0.4294 -1.7192
  697MOL0     H91951   8.211   1.981  11.436  0.1526  1.8280  1.4426
  697MOL0     H91952   8.212   2.000  11.613 -2.5498  0.1745  0.0154
  697MOL0     H91953   8.120   1.744  11.486  1.8517 -1.4783  2.4629
  697MOL0     H91954   8.113   1.778  11.654  0.9511 -2.8407 -1.9957
  697MOL0     H91955   7.960   1.929  11.425  0.4288  0.6663 -0.2140
  697MOL0     H91956   7.953   1.974  11.592 -2.7712  0.2397 -0.6295
  697MOL0     H91957   7.789   1.710  11.347  5.1765  0.2655  0.0814
  697MOL0     H91958   7.644   1.449  11.450  0.8686 -2.1286  3.1765
  697MOL0     H91959   7.542   1.588  11.391 -1.4522 -1.3750 -0.3044
  697MOL0     H91960   7.457   1.613  11.642  3.9672  2.9313 -0.8464
  697MOL0     H91961   7.555   1.484  11.683  0.2863  1.2387 -0.9580
  697MOL0     H91962   7.337   1.472  11.469  0.2243 -1.0692 -0.2669
  697MOL0     H91963   7.435   1.331  11.520 -2.1360 -1.2437  0.8475
  697MOL0     H91964   7.342   1.343  11.746  3.2962  0.5566 -0.6589
  697MOL0     H91965   7.225   1.293  11.625 -2.0454  2.1215  0.3851
  697MOL0     H91966   7.079   1.382  11.482  1.4756  2.1508 -1.2408
  697MOL0     H91967   6.852   1.452  11.400 -0.1806 -0.0558  0.4054
  697MOL0     H91968   6.412   1.620  11.458  0.8586 -0.1500 -0.3588
  697MOL0     H91969   6.223   1.728  11.380 -0.0318 -1.5974  2.4896
  697MOL0     H91970   6.013   1.881  11.405  1.9405  0.6165  1.9018
  697MOL0     H91971   6.124   1.894  11.266  1.8914 -1.0667  2.9858
  697MOL0     H91972   6.053   2.150  11.251 -0.6524 -0.3905 -0.9216
  697MOL0     H91973   5.922   2.099  11.361  2.2615  3.3002  0.7147
  697MOL0     H91974   5.851   1.939  11.192 -2.6409  2.3498 -1.6613
  697MOL0     H91975   5.980   1.991  11.073 -0.3169  3.3984 -1.9578
  697MOL0     H91976   5.866   2.217  11.115 -1.1976  0.4106  1.5757
  697MOL0     H91977   5.830   2.102  10.985  0.4141 -0.2035  0.9706
  697MOL0     H91978   5.657   2.182  11.219  1.4294  2.3629 -2.1144
  697MOL0     H91979   5.653   2.011  11.144  0.6546 -0.3381 -0.5897
  697MOL0     H91980   5.486   2.167  11.076  0.1896 -1.7692  0.3898
  697MOL0     H91981   5.600   2.135  10.936  0.1159  0.5978 -0.2250
  697MOL0     H91982   5.632   2.389  11.104  1.7461  1.4740 -0.7943
  697MOL0     H91983   5.718   2.342  10.955 -0.0172 -1.5926 -0.5513
  697MOL0     H91984   5.520   2.497  10.955  1.2202 -1.1928  3.2551
  697MOL0     H91985   5.411   2.361  10.983  0.1701  0.7215  4.2532
  697MOL0     H91986   6.354   2.091  11.566  1.9792  0.1051  0.2933
  697MOL0     H91987   6.571   1.963  11.648  1.7825 -2.5419 -0.8516
  697MOL0     H91988   6.835   1.721  11.736 -0.2695 -1.2132  0.2036
  697MOL0     H91989   7.033   1.636  11.814  0.7670  2.1473 -0.1499
  697MOL0     H91990   8.813   2.350  11.729 -3.6415  1.9413 -0.6717
  697MOL0     H91991   8.931   2.545  11.588 -0.6207  0.3532 -0.2538
  697MOL0     H91992   8.890   2.754  11.225  0.1425  0.0641  0.9852
  697MOL0     H91993   8.947   2.952  11.094 -1.2632 -1.6092  0.1333
  697MOL0     H91994   9.095   3.187  11.044 -1.3260  1.0039 -0.6864
  697MOL0     H91995   9.043   3.063  10.929 -0.1112 -0.0287 -0.3201
  697MOL0     H91996   9.255   3.272  10.903 -1.7087  2.4074 -1.4608
  697MOL0     H91997   9.268   3.136  10.805  2.1408  3.5918 -0.4088
  697MOL0     H91998   8.998   3.279  10.817 -2.5525 -1.7525 -2.9790
  697MOL0     H91999   9.058   3.180  10.689  0.3246 -0.3013  0.3778
  697MOL0     H92000   9.229   3.424  10.735 -0.2483 -0.9651  1.1018
  697MOL0     H92001   9.205   3.310  10.598 -0.3993 -1.5077 -0.1607
  697MOL0     H92002   8.888   3.604  10.574  0.3091  0.5368 -0.8762
  697MOL0     H92003   9.359   2.820  11.088  0.9712 -3.2310  0.9830
  697MOL0     H92004   9.288   2.629  11.259 -1.3717 -0.0626  2.0047
  698MOL0     O92005   5.140   0.481   0.265  0.1787 -0.0946  0.2927
  698MOL0     C92006   5.027   0.518   0.302 -0.3826 -0.2552 -0.9184
  698MOL0     O92007   4.999   0.621   0.389  0.5361 -0.3718  0.5588
  698MOL0     C92008   5.104   0.682   0.451 -0.1249  0.0666 -0.4105
  698MOL0     C92009   5.205   0.758   0.385  0.3887  0.6561  0.0077
  698MOL0     C92010   5.316   0.808   0.446 -0.9174 -0.2944  0.4704
  698MOL0     C92011   5.333   0.795   0.580  0.1071 -0.8982 -0.3065
  698MOL0     O92012   5.433   0.880   0.631 -0.1090  0.4108  0.1437
  698MOL0     C92013   5.463   0.884   0.765 -0.4785  0.3460  0.1582
  698MOL0     C92014   5.443   1.022   0.838  0.8982  0.2183  1.0530
  698MOL0     C92015   5.525   1.128   0.766  0.7986  0.0456  0.9580
  698MOL0     C92016   5.467   1.260   0.818 -0.2402  0.0636 -0.0755
  698MOL0     C92017   5.538   1.388   0.780  0.8454 -0.2948  0.0992
  698MOL0     C92018   5.534   1.426   0.631  0.0488  0.0670  0.3913
  698MOL0     C92019   5.623   1.542   0.592 -0.4856 -0.2039  0.5045
  698MOL0     C92020   5.590   1.661   0.689  0.0353  0.4588 -0.3272
  698MOL0     N92021   5.447   1.707   0.678 -0.5488 -0.4164  0.1444
  698MOL0     C92022   5.394   1.751   0.560  0.3422 -0.3999  1.0907
  698MOL0     C92023   5.260   1.768   0.571 -0.6013 -0.2980 -0.1384
  698MOL0     C92024   5.157   1.806   0.470 -0.0167  0.7102  0.2532
  698MOL0     C92025   5.070   1.928   0.506  0.1990  0.8822  0.9252
  698MOL0     C92026   5.153   2.049   0.510 -0.1463 -0.5143 -0.3163
  698MOL0     C92027   5.081   2.182   0.554  0.1625 -1.2875 -0.2900
  698MOL0     O92028   4.948   2.209   0.493  1.0084  0.5129  1.1260
  698MOL0     C92029   4.957   2.253   0.357  1.1148 -0.4110 -1.1123
  698MOL0     C92030   5.075   2.279   0.288  0.1187  0.4383 -0.1919
  698MOL0     C92031   5.080   2.299   0.155 -0.0486  0.0468  0.4386
  698MOL0     C92032   4.967   2.296   0.070  0.4253  1.2797 -0.1391
  698MOL0     C92033   4.968   2.312  -0.074 -0.0210  0.1501 -0.5141
  698MOL0     O92034   5.088   2.330  -0.131 -0.3462  0.5465  0.5601
  698MOL0     C92035   5.097   2.378  -0.263 -0.0742  0.5660  1.4015
  698MOL0     C92036   5.100   2.514  -0.285  0.4786  0.5144 -0.1704
  698MOL0     C92037   5.136   2.570  -0.407 -0.5584 -0.6446  0.1887
  698MOL0     C92038   5.165   2.483  -0.516 -0.0056  0.1367  0.2948
  698MOL0     O92039   5.189   2.512  -0.638 -0.0582 -1.4503 -0.0375
  698MOL0     C92040   5.230   2.648  -0.680  0.2383  0.4088  0.3275
  698MOL0     C92041   5.258   2.642  -0.834 -0.3323  0.1766  0.3751
  698MOL0     C92042   5.131   2.629  -0.911 -0.9866 -0.1310  0.7813
  698MOL0     C92043   5.167   2.622  -1.065 -0.0121  0.1458 -0.1225
  698MOL0     C92044   5.043   2.613  -1.147 -0.3781 -0.4749  0.7244
  698MOL0     C92045   5.085   2.602  -1.293  0.1144  0.0415 -0.2960
  698MOL0     C92046   4.955   2.610  -1.364  0.3311 -0.2103  0.0475
  698MOL0     C92047   4.981   2.601  -1.513  1.2339  0.2748  0.2388
  698MOL0    Cl92048   5.093   2.709  -1.595  0.1410  0.0723 -0.4762
  698MOL0     C92049   5.160   2.344  -0.492 -0.4287  0.0816  0.4069
  698MOL0     C92050   5.135   2.300  -0.366 -0.0905  0.1519  0.3153
  698MOL0     O92051   4.865   2.319  -0.136  0.9882  0.4134  0.3521
  698MOL0     C92052   4.847   2.283   0.147  0.1037 -0.4448  0.3052
  698MOL0     C92053   4.839   2.267   0.289 -0.2958  0.4644  0.0007
  698MOL0     N92054   5.234   1.728   0.695  0.4084 -0.1404 -0.7050
  698MOL0     N92055   5.337   1.677   0.759 -0.5718 -0.2662 -0.2497
  698MOL0     C92056   5.236   0.722   0.654  0.5524 -0.1876 -0.0728
  698MOL0     C92057   5.122   0.674   0.592 -0.8472 -0.3691 -0.4334
  698MOL0     C92058   4.918   0.437   0.228 -0.2328  0.5519  0.5086
  698MOL0     C92059   4.948   0.367   0.104  0.5267 -0.7166 -0.5474
  698MOL0     C92060   4.843   0.302   0.031  0.1933  0.3006  0.4543
  698MOL0     C92061   4.726   0.278   0.095  0.1074 -0.2527  0.2487
  698MOL0     O92062   4.641   0.183   0.040 -0.0905 -0.3790 -0.6520
  698MOL0     C92063   4.693   0.046   0.059 -0.4940  0.6031  0.5037
  698MOL0     C92064   4.659  -0.026  -0.071  0.5838 -0.7059 -0.3099
  698MOL0     C92065   4.505  -0.062  -0.087 -0.1678  0.1227  0.3009
  698MOL0     C92066   4.407   0.060  -0.081  0.1638 -0.4025  0.7969
  698MOL0     C92067   4.267   0.014  -0.114 -0.3878  0.0990  0.2003
  698MOL0     C92068   4.163  -0.034  -0.153 -0.4490 -0.6296 -0.4483
  698MOL0     C92069   4.695   0.337   0.219  0.4256  0.3626 -0.3856
  698MOL0     C92070   4.785   0.425   0.282 -0.1448  0.6862 -0.7080
  698MOL0     H92071   5.186   0.772   0.279  1.5720  2.6134  0.0243
  698MOL0     H92072   5.387   0.871   0.394 -2.0677  1.7503  1.2396
  698MOL0     H92073   5.566   0.849   0.774 -1.7305 -3.4025  2.4005
  698MOL0     H92074   5.401   0.814   0.822  1.6631 -0.8724  1.1243
  698MOL0     H92075   5.481   1.006   0.939  2.3472 -2.9596  0.1697
  698MOL0     H92076   5.339   1.054   0.836  0.1345 -2.0454  1.5452
  698MOL0     H92077   5.506   1.133   0.658 -3.2277  2.2414  1.5951
  698MOL0     H92078   5.632   1.114   0.782  0.6878 -0.8301  0.9966
  698MOL0     H92079   5.365   1.258   0.778 -0.7825 -1.7193  1.2932
  698MOL0     H92080   5.466   1.246   0.926 -1.8768 -2.2453 -0.3283
  698MOL0     H92081   5.640   1.372   0.817  0.5629  1.2101  1.6367
  698MOL0     H92082   5.481   1.471   0.823  0.6410  0.0517 -0.8124
  698MOL0     H92083   5.433   1.442   0.594  0.7245  1.2252 -1.0780
  698MOL0     H92084   5.557   1.344   0.561 -2.1289  0.9528 -1.4828
  698MOL0     H92085   5.729   1.519   0.603 -0.9086 -3.5374 -1.2955
  698MOL0     H92086   5.612   1.571   0.487 -2.4792 -0.9199  0.4662
  698MOL0     H92087   5.667   1.737   0.674 -0.8225  1.6551  1.0279
  698MOL0     H92088   5.616   1.623   0.789  0.5426 -3.3743 -1.7565
  698MOL0     H92089   5.458   1.771   0.475  1.4569  3.0809  2.5743
  698MOL0     H92090   5.102   1.717   0.440 -1.3426  1.1148  1.3895
  698MOL0     H92091   5.196   1.839   0.373  0.6219 -1.5703 -0.3353
  698MOL0     H92092   5.025   1.913   0.604 -3.7728 -2.1186 -1.0186
  698MOL0     H92093   4.988   1.935   0.433  0.3885 -3.3236  0.0080
  698MOL0     H92094   5.237   2.026   0.576  1.5664 -3.3694 -3.1750
  698MOL0     H92095   5.197   2.060   0.410  0.1685  0.0579 -0.1153
  698MOL0     H92096   5.140   2.273   0.550 -2.3442  0.4036 -1.7907
  698MOL0     H92097   5.059   2.165   0.660  1.8750 -0.1448  0.2838
  698MOL0     H92098   5.164   2.290   0.350 -0.4017  0.8028  0.5043
  698MOL0     H92099   5.183   2.299   0.121  0.6065  2.0714  2.1941
  698MOL0     H92100   5.064   2.587  -0.214 -1.0734 -0.8988  0.5535
  698MOL0     H92101   5.136   2.679  -0.412 -0.5456 -0.5141  2.1680
  698MOL0     H92102   5.328   2.660  -0.633  0.7600  2.6333 -1.1518
  698MOL0     H92103   5.157   2.723  -0.648 -0.7330 -0.2642 -0.2569
  698MOL0     H92104   5.323   2.554  -0.833 -1.5550 -0.7576  0.3354
  698MOL0     H92105   5.314   2.732  -0.863 -2.6658  1.4759 -0.3623
  698MOL0     H92106   5.066   2.715  -0.894 -0.7027 -0.0224  1.3294
  698MOL0     H92107   5.080   2.535  -0.891 -1.3426 -0.4323 -1.2707
  698MOL0     H92108   5.226   2.711  -1.090  0.6935  0.1594  1.4870
  698MOL0     H92109   5.224   2.532  -1.087  1.1424  0.3173  1.9546
  698MOL0     H92110   4.971   2.694  -1.130 -0.0906  0.2492 -1.2039
  698MOL0     H92111   4.984   2.526  -1.116 -1.5984  0.2218  0.4218
  698MOL0     H92112   5.128   2.503  -1.308  1.2641  0.7269 -1.8038
  698MOL0     H92113   5.143   2.693  -1.313  2.3771 -1.7068 -2.3397
  698MOL0     H92114   4.887   2.528  -1.339 -1.4984  1.1150 -0.3420
  698MOL0     H92115   4.898   2.702  -1.350 -2.8542 -2.2049  1.2751
  698MOL0     H92116   4.884   2.615  -1.562  0.2049  1.3346  2.4366
  698MOL0     H92117   5.023   2.502  -1.532  2.2409  1.0424 -1.8220
  698MOL0     H92118   5.197   2.272  -0.564 -0.1029  1.1514 -0.5336
  698MOL0     H92119   5.140   2.192  -0.350 -2.4528 -0.1182 -0.3953
  698MOL0     H92120   4.752   2.306   0.100  1.2654 -0.4334 -2.1641
  698MOL0     H92121   4.750   2.262   0.351 -0.5217 -2.7770 -0.4517
  698MOL0     H92122   5.234   0.718   0.762  1.8548  4.9155  0.3985
  698MOL0     H92123   5.044   0.638   0.658  0.1403  0.4494  1.2361
  698MOL0     H92124   5.045   0.378   0.056 -0.1899 -2.8059 -2.6452
  698MOL0     H92125   4.860   0.263  -0.069 -1.3471  2.2847 -0.6491
  698MOL0     H92126   4.648   0.002   0.147 -0.3946  0.0498  0.2834
  698MOL0     H92127   4.799   0.030   0.080 -0.5964 -0.2131  0.4260
  698MOL0     H92128   4.675   0.047  -0.152 -3.3136  1.2946  0.4809
  698MOL0     H92129   4.714  -0.119  -0.088  0.3154 -1.1487  1.1401
  698MOL0     H92130   4.470  -0.140  -0.020 -1.1032 -0.0908 -0.4161
  698MOL0     H92131   4.508  -0.114  -0.184  1.8744  1.1192 -0.2322
  698MOL0     H92132   4.405   0.102   0.020 -1.1909 -1.2502  1.1593
  698MOL0     H92133   4.427   0.136  -0.158 -0.7292 -0.3023  0.6435
  698MOL0     H92134   4.076  -0.081  -0.194 -2.2506  2.9230 -1.1151
  698MOL0     H92135   4.598   0.326   0.266 -0.1090  0.5774 -1.4291
  698MOL0     H92136   4.750   0.477   0.370  1.0988 -1.2584  1.0145
  699MOL0     O92137  11.319   8.991   9.899  0.3164  0.0058 -0.7246
  699MOL0     C92138  11.426   8.997   9.957  1.2119 -0.0658 -0.6566
  699MOL0     O92139  11.441   8.982  10.098  1.3015 -0.0213  0.3334
  699MOL0     C92140  11.376   8.888  10.171 -0.4177 -0.4845  0.3356
  699MOL0     C92141  11.312   8.775  10.115  0.6493  0.7481 -0.1465
  699MOL0     C92142  11.228   8.681  10.184 -0.6101 -0.5905 -1.4876
  699MOL0     C92143  11.215   8.720  10.323  0.1046  0.6966  0.3054
  699MOL0     O92144  11.144   8.648  10.415 -0.4357 -0.4165  0.8071
  699MOL0     C92145  11.060   8.538  10.361 -0.8013  0.0427 -0.2241
  699MOL0     C92146  10.955   8.498  10.473  0.3680 -0.1677  0.5950
  699MOL0     C92147  10.850   8.606  10.460  0.2649 -0.6604 -0.5832
  699MOL0     C92148  10.757   8.579  10.573  0.3162  1.4644  0.2519
  699MOL0     C92149  10.650   8.687  10.570 -0.0158  0.2976 -0.2742
  699MOL0     C92150  10.696   8.821  10.610  0.2488  0.2604  0.3926
  699MOL0     C92151  10.583   8.896  10.672 -0.0670 -0.0716 -0.3833
  699MOL0     C92152  10.623   9.035  10.726 -0.0129  0.6574  0.1009
  699MOL0     N92153  10.637   9.139  10.627 -0.1339  0.4152 -0.0823
  699MOL0     C92154  10.615   9.117  10.490 -0.1104  0.5852 -0.6838
  699MOL0     C92155  10.601   9.237  10.440 -0.6657 -0.2817 -0.2291
  699MOL0     C92156  10.580   9.277  10.298 -0.3269  0.9206 -0.6080
  699MOL0     C92157  10.453   9.224  10.237 -0.9045  0.5877 -0.3218
  699MOL0     C92158  10.332   9.257  10.317  0.7353 -0.1608  0.8233
  699MOL0     C92159  10.320   9.405  10.359  0.3223 -0.7279  0.0637
  699MOL0     O92160  10.336   9.485  10.237  0.2121  0.4992 -0.1173
  699MOL0     C92161  10.310   9.618  10.252 -1.9586 -0.2370  0.2254
  699MOL0     C92162  10.242   9.674  10.356 -0.4649  0.4388  1.1787
  699MOL0     C92163  10.211   9.813  10.360 -0.3573 -0.2691  0.3375
  699MOL0     C92164  10.239   9.893  10.247  0.2892 -0.4330  1.1232
  699MOL0     C92165  10.204  10.042  10.253 -0.5297 -0.6494 -0.8248
  699MOL0     O92166  10.198  10.111  10.134  0.1177 -0.0024 -0.2208
  699MOL0     C92167  10.176  10.239  10.121  0.4999 -0.2785 -0.1642
  699MOL0     C92168  10.225  10.331  10.219 -0.2184 -0.4926  0.3036
  699MOL0     C92169  10.201  10.465  10.199  1.3356 -0.5338 -0.3108
  699MOL0     C92170  10.146  10.511  10.077  0.1538 -0.1492  0.1068
  699MOL0     O92171  10.123  10.640  10.067 -0.4534 -0.1097  0.3095
  699MOL0     C92172  10.229  10.706   9.996  0.3427  0.6042  0.1072
  699MOL0     C92173  10.185  10.846  10.009 -0.1430  0.0954  0.0811
  699MOL0     C92174  10.297  10.947   9.975 -0.4283  0.3420  0.6817
  699MOL0     C92175  10.242  11.085  10.002 -0.2061  0.3768 -1.0241
  699MOL0     C92176  10.352  11.182   9.959  0.3554  0.2511 -0.1496
  699MOL0     C92177  10.327  11.322  10.012 -0.9157  0.8141  0.8303
  699MOL0     C92178  10.434  11.421   9.945 -0.1768  0.6360  0.5591
  699MOL0     C92179  10.433  11.555  10.032 -0.7586  0.1401  0.3997
  699MOL0    Cl92180  10.525  11.672   9.949  0.3436 -0.2020  0.0463
  699MOL0     C92181  10.095  10.418   9.986 -0.5464 -0.2476  0.2827
  699MOL0     C92182  10.104  10.284  10.009  0.9324 -0.3912  0.0374
  699MOL0     O92183  10.180  10.084  10.367 -0.4249  0.3542 -0.0053
  699MOL0     C92184  10.320   9.835  10.135  1.2688 -0.2866 -0.5158
  699MOL0     C92185  10.354   9.691  10.141  0.4233 -0.0360 -0.6889
  699MOL0     N92186  10.631   9.335  10.541  0.3998  0.1220 -1.3946
  699MOL0     N92187  10.660   9.265  10.648 -1.4770  0.0980  0.1666
  699MOL0     C92188  11.289   8.819  10.384 -0.7629  0.1434  0.4737
  699MOL0     C92189  11.369   8.912  10.307  0.3511  0.9731 -0.6298
  699MOL0     C92190  11.537   9.040   9.873  0.2746  0.4973 -0.3865
  699MOL0     C92191  11.659   9.075   9.925  0.4178 -0.8991  0.9936
  699MOL0     C92192  11.756   9.126   9.833  0.0214  0.1991 -1.6421
  699MOL0     C92193  11.745   9.120   9.693 -0.6632  0.3489  0.0260
  699MOL0     O92194  11.853   9.167   9.621 -0.6447  0.4729 -0.2224
  699MOL0     C92195  11.846   9.133   9.477 -0.0700  0.2779 -0.0375
  699MOL0     C92196  11.882   8.978   9.462 -0.4213  0.0447  0.4783
  699MOL0     C92197  11.904   8.932   9.313  0.6971  0.0400  0.2963
  699MOL0     C92198  11.977   8.798   9.310 -1.8252  0.9541  0.6464
  699MOL0     C92199  12.118   8.822   9.329  0.5330 -1.0640 -1.5375
  699MOL0     C92200  12.233   8.862   9.331  0.8718 -0.4789 -0.3534
  699MOL0     C92201  11.620   9.070   9.645  0.2329  0.3165  0.1467
  699MOL0     C92202  11.519   9.035   9.736 -0.3233  0.0351  0.4366
  699MOL0     H92203  11.323   8.769  10.007  1.4603  1.7715 -0.1362
  699MOL0     H92204  11.173   8.606  10.128  1.3206 -0.9948 -2.9293
  699MOL0     H92205  11.133   8.457  10.348 -0.7338  0.1876 -0.7606
  699MOL0     H92206  11.011   8.561  10.266  1.2784 -0.3436 -1.4669
  699MOL0     H92207  11.003   8.506  10.570  0.8246  2.8873  0.2239
  699MOL0     H92208  10.925   8.395  10.455  2.8819 -0.5996 -1.8587
  699MOL0     H92209  10.798   8.605  10.364  1.2784  2.1073 -1.2733
  699MOL0     H92210  10.902   8.701  10.479  3.1190 -2.4544  1.5439
  699MOL0     H92211  10.704   8.484  10.562  1.1534  0.8824  1.0477
  699MOL0     H92212  10.808   8.584  10.670 -0.8149 -1.5528  1.1240
  699MOL0     H92213  10.569   8.649  10.633  1.2569 -0.6168  0.8674
  699MOL0     H92214  10.607   8.695  10.470 -1.6011  1.0629  0.4380
  699MOL0     H92215  10.751   8.867  10.527 -0.1122  0.5454  0.3116
  699MOL0     H92216  10.770   8.800  10.688  2.2302 -0.5365 -1.5680
  699MOL0     H92217  10.500   8.907  10.601  0.3375  0.6636 -0.7556
  699MOL0     H92218  10.554   8.835  10.758  1.4266 -0.0731  0.1493
  699MOL0     H92219  10.713   9.010  10.783 -0.2464  0.2379  0.2957
  699MOL0     H92220  10.552   9.082  10.794 -1.1158  2.7074 -2.3216
  699MOL0     H92221  10.581   9.026  10.441  0.2394 -1.6230  2.8520
  699MOL0     H92222  10.668   9.231  10.252  0.4897  3.2779 -1.5271
  699MOL0     H92223  10.591   9.384  10.278  3.1433  0.1206 -4.5208
  699MOL0     H92224  10.458   9.114  10.239 -2.6699  0.4963  0.8823
  699MOL0     H92225  10.447   9.258  10.134  2.3174 -0.9423 -1.1721
  699MOL0     H92226  10.245   9.230  10.255  0.8466  0.1866  0.5101
  699MOL0     H92227  10.318   9.187  10.399 -3.8365  1.9448  2.2089
  699MOL0     H92228  10.382   9.446  10.439 -2.6190  1.6590  1.3196
  699MOL0     H92229  10.220   9.415  10.403  0.2565  1.5744 -0.5178
  699MOL0     H92230  10.198   9.608  10.430 -1.2583 -3.1148 -2.1179
  699MOL0     H92231  10.150   9.859  10.437 -3.4487 -4.5483  0.8375
  699MOL0     H92232  10.271  10.292  10.310 -1.4028 -1.5700  0.4649
  699MOL0     H92233  10.231  10.541  10.270 -1.3786 -0.5180  0.9425
  699MOL0     H92234  10.231  10.691   9.887  1.9874 -2.0098  0.4014
  699MOL0     H92235  10.330  10.697  10.036 -0.1339  0.0756  1.2477
  699MOL0     H92236  10.153  10.878  10.109  1.2133  3.3706 -0.3881
  699MOL0     H92237  10.100  10.873   9.945  1.1211  0.1591 -1.6350
  699MOL0     H92238  10.318  10.944   9.867  1.7320  0.0689  1.0690
  699MOL0     H92239  10.383  10.931  10.040 -1.0470 -0.7967  1.2521
  699MOL0     H92240  10.142  11.101   9.962  0.0853 -1.2556 -2.5310
  699MOL0     H92241  10.245  11.088  10.112  3.9075  0.1587 -0.9783
  699MOL0     H92242  10.349  11.190   9.850 -1.1706  2.0873 -0.0208
  699MOL0     H92243  10.446  11.143  10.000 -1.0833 -2.8471  0.5349
  699MOL0     H92244  10.349  11.319  10.119 -1.6151 -2.5090  0.9711
  699MOL0     H92245  10.225  11.354   9.990 -0.9985  0.2300  0.3337
  699MOL0     H92246  10.538  11.390   9.935 -0.7507 -1.4036  0.2956
  699MOL0     H92247  10.392  11.448   9.848 -2.0667  0.8604  1.3850
  699MOL0     H92248  10.478  11.538  10.131  0.9297 -1.0544 -0.5129
  699MOL0     H92249  10.330  11.591  10.039 -0.2537  1.7822 -0.2344
  699MOL0     H92250  10.064  10.465   9.893  0.3101  0.6390  0.4228
  699MOL0     H92251  10.068  10.210   9.938 -1.6819  1.6403 -0.9181
  699MOL0     H92252  10.344   9.889  10.044  0.8763  2.0187  0.6746
  699MOL0     H92253  10.388   9.633  10.056  0.1105 -1.3590  0.0591
  699MOL0     H92254  11.281   8.848  10.488  1.7110 -1.4806  1.2233
  699MOL0     H92255  11.411   8.998  10.358  3.0547  0.0169 -1.0566
  699MOL0     H92256  11.675   9.076  10.032  1.0577 -0.0488  0.8994
  699MOL0     H92257  11.848   9.158   9.882  1.2830 -2.3312 -2.1669
  699MOL0     H92258  11.928   9.185   9.426 -0.5676  0.8527 -0.2549
  699MOL0     H92259  11.754   9.159   9.424  0.1649  0.9019 -0.1546
  699MOL0     H92260  11.966   8.952   9.527 -0.6346 -0.2298  0.6447
  699MOL0     H92261  11.803   8.913   9.500  0.1224 -0.0157  1.5384
  699MOL0     H92262  11.964   9.001   9.253 -2.8341  2.1020 -1.1673
  699MOL0     H92263  11.812   8.933   9.254  0.5966  2.4185  0.4118
  699MOL0     H92264  11.937   8.717   9.372  0.7190  0.3720  1.6558
  699MOL0     H92265  11.978   8.763   9.206  0.6164 -0.5540  1.0917
  699MOL0     H92266  12.336   8.892   9.340  1.0092 -1.2358  0.8352
  699MOL0     H92267  11.607   9.056   9.538  0.3087 -4.1916  0.5549
  699MOL0     H92268  11.427   9.002   9.687  0.6633  1.9440 -3.0659
  700MOL0     O92269   8.084   5.123   1.224  0.0322  0.4457  0.2413
  700MOL0     C92270   8.073   5.007   1.261  0.5168 -0.7848  1.0423
  700MOL0     O92271   8.101   4.900   1.183 -0.5960 -0.4769 -0.3764
  700MOL0     C92272   8.133   4.916   1.053 -0.5193  0.0030 -0.1145
  700MOL0     C92273   8.049   4.967   0.951 -0.0547 -0.1176 -0.2255
  700MOL0     C92274   8.093   4.985   0.821  0.2333 -0.2060  0.8024
  700MOL0     C92275   8.217   4.949   0.774  0.1550  0.0254 -0.4569
  700MOL0     O92276   8.243   4.958   0.640 -0.4276 -0.2230 -0.9310
  700MOL0     C92277   8.376   4.971   0.592 -0.2586 -0.0139 -0.5512
  700MOL0     C92278   8.373   5.033   0.447  0.2131  0.1770 -0.6773
  700MOL0     C92279   8.337   5.184   0.435  0.0805 -0.0926  0.2278
  700MOL0     C92280   8.343   5.234   0.295  0.0743 -0.6185  0.1139
  700MOL0     C92281   8.333   5.378   0.263  0.2913 -0.2098 -0.1656
  700MOL0     C92282   8.202   5.437   0.297  0.5187 -0.7539 -0.6936
  700MOL0     C92283   8.194   5.566   0.227 -0.4383  0.1584  0.0605
  700MOL0     C92284   8.077   5.649   0.275  0.4805 -0.8830  0.5902
  700MOL0     N92285   8.091   5.714   0.407  0.4812 -0.3185 -0.0855
  700MOL0     C92286   7.981   5.752   0.488 -0.4700 -0.2767 -0.2666
  700MOL0     C92287   8.029   5.823   0.599 -0.8135  0.5162  0.2639
  700MOL0     C92288   7.946   5.890   0.705 -0.0323  0.4072 -0.0846
  700MOL0     C92289   8.027   5.975   0.812 -0.0006 -0.8825 -0.6354
  700MOL0     C92290   8.024   5.901   0.948  0.2786 -0.7949  0.5764
  700MOL0     C92291   8.082   6.004   1.047 -0.3838  0.7573 -0.0443
  700MOL0     O92292   8.064   5.970   1.184 -0.2932  0.0335  0.3786
  700MOL0     C92293   7.935   5.954   1.222 -0.3914  1.4010 -0.6578
  700MOL0     C92294   7.913   5.881   1.341 -0.2354 -1.0766  1.5512
  700MOL0     C92295   7.778   5.875   1.395 -0.6155 -1.1297 -0.6470
  700MOL0     C92296   7.671   5.925   1.329 -0.5772 -0.0708 -0.7793
  700MOL0     C92297   7.534   5.915   1.392 -0.1443 -0.7617 -0.0141
  700MOL0     O92298   7.456   6.021   1.361  0.4489 -0.4266  0.0344
  700MOL0     C92299   7.320   6.014   1.392  0.2600  0.6112  0.7130
  700MOL0     C92300   7.255   6.121   1.448 -0.9436 -0.0533  0.0754
  700MOL0     C92301   7.113   6.129   1.454 -0.0680 -0.5523 -0.5316
  700MOL0     C92302   7.032   6.018   1.433 -0.6154 -0.6062 -1.2014
  700MOL0     O92303   6.897   6.007   1.455  0.0198  0.8863 -0.1169
  700MOL0     C92304   6.815   6.122   1.467  0.5282 -0.2622  0.2548
  700MOL0     C92305   6.664   6.082   1.478  0.0490  0.6765  0.3759
  700MOL0     C92306   6.604   6.044   1.351  0.3051  0.2906  1.0450
  700MOL0     C92307   6.454   6.031   1.369  0.2967 -0.6195 -0.2821
  700MOL0     C92308   6.374   5.955   1.261 -0.5682 -0.5192  0.4541
  700MOL0     C92309   6.361   6.042   1.134  0.5611 -0.1159  0.6963
  700MOL0     C92310   6.240   6.005   1.042 -0.3424  0.0019 -0.9708
  700MOL0     C92311   6.280   5.950   0.906 -0.2982  0.5235 -0.4108
  700MOL0    Cl92312   6.366   6.048   0.787 -0.1032  0.2678 -0.1483
  700MOL0     C92313   7.101   5.906   1.397  0.7249 -0.0728  0.5732
  700MOL0     C92314   7.241   5.901   1.362  0.2152  0.0090 -0.3799
  700MOL0     O92315   7.500   5.819   1.458  0.6158  0.4966  0.7447
  700MOL0     C92316   7.693   5.990   1.213 -0.4670  0.1056 -0.4243
  700MOL0     C92317   7.823   6.014   1.167  0.0799 -0.4118  0.7235
  700MOL0     N92318   8.174   5.816   0.581  0.3114  1.0055 -0.2232
  700MOL0     N92319   8.206   5.752   0.471 -0.7176  0.7534 -0.0276
  700MOL0     C92320   8.306   4.901   0.866 -0.0466 -0.4479 -0.0006
  700MOL0     C92321   8.263   4.889   1.005  0.4477  0.8305 -0.1953
  700MOL0     C92322   8.037   4.986   1.393 -0.0232 -1.1067 -0.2243
  700MOL0     C92323   7.965   5.085   1.461  0.1695 -0.2850  0.8080
  700MOL0     C92324   7.906   5.060   1.584 -0.2426 -0.4477 -0.1455
  700MOL0     C92325   7.934   4.947   1.653 -0.0612  0.4091 -0.5141
  700MOL0     O92326   7.886   4.916   1.777  0.0770 -0.8052  0.0466
  700MOL0     C92327   7.867   5.020   1.868  0.4071  0.5918 -1.0576
  700MOL0     C92328   7.854   4.947   2.010 -0.0706  0.5203 -0.2607
  700MOL0     C92329   7.708   4.936   2.065  0.1246  0.8872  0.2503
  700MOL0     C92330   7.632   4.817   2.003 -0.2209 -0.6435 -0.4518
  700MOL0     C92331   7.686   4.689   2.061  0.0818 -0.9807 -0.1681
  700MOL0     C92332   7.732   4.580   2.086 -0.6435 -0.1631 -0.6584
  700MOL0     C92333   8.011   4.847   1.591 -0.1013 -0.4009  0.3956
  700MOL0     C92334   8.066   4.863   1.462 -0.6382  0.7777 -0.2325
  700MOL0     H92335   7.948   5.000   0.970  0.9001  2.5909  0.7017
  700MOL0     H92336   8.013   5.027   0.760 -0.5103  0.7304  2.3569
  700MOL0     H92337   8.421   4.873   0.579 -0.5402 -0.0968 -0.9113
  700MOL0     H92338   8.442   5.041   0.644 -0.6740 -2.1141  3.1555
  700MOL0     H92339   8.306   4.967   0.391  1.6667 -2.3841  0.4228
  700MOL0     H92340   8.471   5.022   0.400  1.5772  2.8983  1.2521
  700MOL0     H92341   8.419   5.225   0.496  0.6256 -0.0376 -0.5263
  700MOL0     H92342   8.243   5.197   0.489  0.7919  0.2276  1.4513
  700MOL0     H92343   8.443   5.200   0.267 -0.4782 -1.6416 -0.7053
  700MOL0     H92344   8.267   5.183   0.235 -1.5852  1.9002 -0.0216
  700MOL0     H92345   8.341   5.383   0.154  0.4541 -0.8804 -0.1900
  700MOL0     H92346   8.418   5.435   0.303  0.7189 -1.0014  0.0773
  700MOL0     H92347   8.199   5.458   0.404 -0.5305  1.4476 -1.1072
  700MOL0     H92348   8.118   5.373   0.270  1.2165 -1.6567 -0.7917
  700MOL0     H92349   8.287   5.621   0.240  1.6417 -3.1301  0.2836
  700MOL0     H92350   8.184   5.558   0.119 -0.9573 -0.2159  0.1310
  700MOL0     H92351   7.986   5.589   0.279  0.3082 -0.7220 -0.4518
  700MOL0     H92352   8.049   5.730   0.207  2.1834  0.4776  1.4318
  700MOL0     H92353   7.879   5.721   0.468 -1.1151 -0.4135  2.8105
  700MOL0     H92354   7.880   5.818   0.756  2.4448 -0.9360  1.4280
  700MOL0     H92355   7.878   5.955   0.650 -1.7576 -0.3567  1.0295
  700MOL0     H92356   7.976   6.069   0.836 -1.6530 -2.6736  3.6053
  700MOL0     H92357   8.131   5.989   0.779  0.0522 -1.5446 -0.7539
  700MOL0     H92358   7.921   5.875   0.976 -0.0241 -2.9532 -2.1525
  700MOL0     H92359   8.085   5.811   0.937 -0.1846 -0.8213 -2.8768
  700MOL0     H92360   8.041   6.106   1.049 -1.4024  0.3502  0.7957
  700MOL0     H92361   8.189   6.008   1.026 -0.7568  1.6515 -2.1004
  700MOL0     H92362   8.000   5.840   1.391  2.0973  0.4819 -0.9487
  700MOL0     H92363   7.779   5.828   1.493 -0.7700  3.1223  1.6784
  700MOL0     H92364   7.306   6.211   1.481  0.2432 -0.9400  0.7006
  700MOL0     H92365   7.064   6.221   1.484  1.6662 -0.0099  0.8663
  700MOL0     H92366   6.841   6.181   1.379  2.0012  1.3141  1.6642
  700MOL0     H92367   6.848   6.178   1.555  0.2419 -1.7939  1.3866
  700MOL0     H92368   6.612   6.163   1.528 -1.7990 -0.7658  0.9265
  700MOL0     H92369   6.666   5.993   1.542 -0.6878  0.2553 -0.1801
  700MOL0     H92370   6.645   5.948   1.319 -0.6977 -1.2976  4.1719
  700MOL0     H92371   6.625   6.113   1.268  1.8702 -0.0956  1.1051
  700MOL0     H92372   6.441   5.973   1.461  0.2883 -2.1017 -1.1916
  700MOL0     H92373   6.411   6.132   1.368  1.4224 -0.1231  0.0111
  700MOL0     H92374   6.274   5.926   1.294  0.4893 -4.2054  0.8158
  700MOL0     H92375   6.411   5.854   1.242 -3.0287 -1.4379  0.2160
  700MOL0     H92376   6.452   6.031   1.076  1.0824 -1.4690  1.7272
  700MOL0     H92377   6.357   6.149   1.158  0.2041  0.5172 -1.9242
  700MOL0     H92378   6.189   5.918   1.085  2.5085 -1.8429 -1.0306
  700MOL0     H92379   6.183   6.095   1.017  3.0507  3.3531  2.0871
  700MOL0     H92380   6.204   5.905   0.841  0.6105 -0.0952 -1.0694
  700MOL0     H92381   6.355   5.874   0.932  0.0788  0.3606 -1.9351
  700MOL0     H92382   7.050   5.811   1.385  0.0266  0.6163 -3.4720
  700MOL0     H92383   7.287   5.814   1.316  3.5698  1.5863 -0.3664
  700MOL0     H92384   7.604   6.016   1.157 -0.5741  0.4840 -0.0813
  700MOL0     H92385   7.845   6.089   1.091 -1.5720 -0.2087  0.4140
  700MOL0     H92386   8.407   4.872   0.838  0.1476 -1.5490  1.6831
  700MOL0     H92387   8.328   4.832   1.070  0.4381 -2.6941 -2.9962
  700MOL0     H92388   7.921   5.169   1.408 -3.9869 -1.6955  1.5669
  700MOL0     H92389   7.841   5.136   1.628  0.1871 -1.8983  3.3061
  700MOL0     H92390   7.774   5.072   1.845  1.4685  2.8509 -0.5891
  700MOL0     H92391   7.951   5.091   1.876 -0.4781  1.4746  1.0136
  700MOL0     H92392   7.894   4.847   1.992 -1.4217  0.1505 -1.3795
  700MOL0     H92393   7.917   4.991   2.088  2.7490 -3.5948  0.0561
  700MOL0     H92394   7.653   5.031   2.055 -2.4331 -0.4918  0.4420
  700MOL0     H92395   7.726   4.923   2.172  0.3976  2.1609  0.3762
  700MOL0     H92396   7.524   4.831   2.018  0.0286  0.0179  0.8842
  700MOL0     H92397   7.634   4.820   1.893  2.1081  1.6536 -0.4361
  700MOL0     H92398   7.761   4.480   2.111 -1.4185  0.0164  1.1922
  700MOL0     H92399   8.021   4.754   1.646 -3.3114 -3.2616 -3.2237
  700MOL0     H92400   8.121   4.777   1.426 -3.5817 -0.2927 -2.6322
  701MOL0     O92401   4.882   5.234  11.332 -0.2417 -0.1796 -0.2507
  701MOL0     C92402   4.969   5.190  11.403 -0.2986  0.7342 -0.7406
  701MOL0     O92403   5.100   5.183  11.368  0.6702 -0.4515 -0.6858
  701MOL0     C92404   5.148   5.251  11.256 -0.5324  1.4335 -0.3098
  701MOL0     C92405   5.084   5.356  11.187  0.2244 -0.5311  0.7330
  701MOL0     C92406   5.133   5.394  11.058 -0.0715  0.5760 -0.8010
  701MOL0     C92407   5.239   5.325  11.004 -0.9125  0.3021  0.5015
  701MOL0     O92408   5.299   5.361  10.888  0.2560  0.1515  0.3064
  701MOL0     C92409   5.273   5.498  10.837  0.2277  0.0952 -0.2440
  701MOL0     C92410   5.381   5.542  10.734  0.6379 -1.0698  0.3444
  701MOL0     C92411   5.377   5.684  10.677  0.2413  0.9101  1.2198
  701MOL0     C92412   5.498   5.694  10.588 -0.5305  0.3034  0.7710
  701MOL0     C92413   5.498   5.824  10.493 -0.0934  0.2433  0.3862
  701MOL0     C92414   5.455   5.954  10.560  0.3249 -0.2263 -0.0963
  701MOL0     C92415   5.450   6.064  10.453  0.2961 -0.4698  0.9261
  701MOL0     C92416   5.392   6.190  10.522  0.3470 -1.0498  0.5294
  701MOL0     N92417   5.410   6.307  10.422 -0.3068  0.0086 -0.4206
  701MOL0     C92418   5.327   6.339  10.320 -0.5136 -0.1403 -0.4993
  701MOL0     C92419   5.391   6.451  10.270  0.1645  0.9970  0.1609
  701MOL0     C92420   5.369   6.506  10.132 -0.0294 -0.1103 -0.9835
  701MOL0     C92421   5.382   6.664  10.112 -0.5690  0.3852  0.1036
  701MOL0     C92422   5.255   6.731  10.145  0.3646 -0.0912  0.4545
  701MOL0     C92423   5.273   6.882  10.121  1.1422  0.5153 -0.8063
  701MOL0     O92424   5.150   6.950  10.139 -0.0266  0.2359 -0.3492
  701MOL0     C92425   5.096   7.014  10.029  0.1986 -0.0784  1.0693
  701MOL0     C92426   5.136   7.006   9.891 -0.2914 -0.0151  0.4653
  701MOL0     C92427   5.071   7.082   9.792 -0.2286 -0.7402 -0.5777
  701MOL0     C92428   4.965   7.169   9.820 -0.2357 -0.1633 -0.5367
  701MOL0     C92429   4.890   7.243   9.716  0.3311  0.8052  0.1441
  701MOL0     O92430   4.782   7.321   9.745 -0.2285  0.1997 -0.9079
  701MOL0     C92431   4.706   7.376   9.646  0.0804 -1.1361  0.9565
  701MOL0     C92432   4.648   7.504   9.667 -0.4188  0.0536 -0.8823
  701MOL0     C92433   4.576   7.571   9.578 -0.2283  0.1825  0.0583
  701MOL0     C92434   4.537   7.511   9.455 -0.7095 -1.1500  0.6031
  701MOL0     O92435   4.467   7.594   9.373  0.6854  0.2203  0.3304
  701MOL0     C92436   4.345   7.531   9.336 -0.6973 -0.4750 -0.1152
  701MOL0     C92437   4.244   7.627   9.278 -0.2255  1.7101 -0.2250
  701MOL0     C92438   4.248   7.755   9.358 -0.2943 -0.5198  0.2678
  701MOL0     C92439   4.127   7.838   9.326 -0.0040  0.3539  0.0329
  701MOL0     C92440   4.120   7.984   9.382 -0.2217 -0.5978 -0.5996
  701MOL0     C92441   4.146   7.991   9.534 -0.7915 -0.3644 -0.7128
  701MOL0     C92442   4.019   7.944   9.604 -0.4752  0.0325 -0.5487
  701MOL0     C92443   4.020   7.998   9.751  0.4375  0.8603  0.1642
  701MOL0    Cl92444   3.900   7.902   9.853  0.1034 -0.0817 -0.2431
  701MOL0     C92445   4.591   7.387   9.431  0.1071 -0.4346 -0.0748
  701MOL0     C92446   4.680   7.322   9.518  0.9440 -0.4970 -0.4673
  701MOL0     O92447   4.941   7.243   9.608 -0.0140 -0.6116  0.1492
  701MOL0     C92448   4.915   7.167   9.953  0.2824  0.3314  0.6820
  701MOL0     C92449   4.988   7.101  10.056 -0.5607  0.1338  0.7138
  701MOL0     N92450   5.506   6.473  10.331  0.1754 -0.4966  0.0593
  701MOL0     N92451   5.521   6.385  10.420  0.1907 -0.2355  0.0031
  701MOL0     C92452   5.314   5.238  11.086 -0.2052  0.0723  1.3882
  701MOL0     C92453   5.273   5.203  11.216 -0.0951 -0.2533  0.2990
  701MOL0     C92454   4.913   5.134  11.526  0.4864 -0.6764  0.2304
  701MOL0     C92455   5.003   5.086  11.618  0.1739  0.0467 -1.0143
  701MOL0     C92456   4.957   5.043  11.747  0.3965  0.2977  0.9349
  701MOL0     C92457   4.819   5.035  11.767  0.1676 -0.5519  0.3901
  701MOL0     O92458   4.785   4.988  11.891 -0.0462 -0.1590  0.1948
  701MOL0     C92459   4.651   4.997  11.943  0.2643 -0.0889 -0.5625
  701MOL0     C92460   4.646   4.928  12.077  0.1768 -0.0749 -0.8396
  701MOL0     C92461   4.648   5.022  12.185 -0.5781 -0.2621 -0.8029
  701MOL0     C92462   4.775   5.108  12.218 -0.3119 -0.1871  0.0310
  701MOL0     C92463   4.752   5.174  12.351  0.7054 -0.2418  0.3357
  701MOL0     C92464   4.753   5.221  12.462  0.0282  0.3821  0.4347
  701MOL0     C92465   4.729   5.088  11.672  0.4875  0.5156 -0.2293
  701MOL0     C92466   4.776   5.134  11.550 -0.0926 -0.1624  0.2630
  701MOL0     H92467   4.998   5.398  11.238  0.0601 -1.0939  0.9260
  701MOL0     H92468   5.065   5.457  11.003 -3.3019 -0.8120  1.2821
  701MOL0     H92469   5.293   5.563  10.923 -3.4586  0.2210  0.6965
  701MOL0     H92470   5.175   5.501  10.788 -0.4315 -2.6676  0.6977
  701MOL0     H92471   5.384   5.475  10.647  1.9226 -1.0689  0.3709
  701MOL0     H92472   5.478   5.524  10.780  1.4444  0.5029 -0.6633
  701MOL0     H92473   5.377   5.748  10.766 -1.3231 -0.1165  2.0015
  701MOL0     H92474   5.281   5.705  10.628  0.1066 -3.0720 -0.6248
  701MOL0     H92475   5.587   5.717  10.647  1.6926 -2.1505 -1.3393
  701MOL0     H92476   5.522   5.599  10.539 -1.2356  0.6023 -0.1781
  701MOL0     H92477   5.433   5.799  10.408  1.8235 -0.1651 -1.0437
  701MOL0     H92478   5.592   5.847  10.440 -2.0489  3.8367 -1.9132
  701MOL0     H92479   5.531   5.991  10.630 -0.9341  2.6909 -0.1195
  701MOL0     H92480   5.366   5.941  10.622  0.6459 -1.8211  0.0701
  701MOL0     H92481   5.550   6.084  10.413 -1.1430  4.2700 -1.1087
  701MOL0     H92482   5.390   6.024  10.370  1.0904 -3.6316  1.7649
  701MOL0     H92483   5.445   6.209  10.616 -2.2214 -0.0876  1.8659
  701MOL0     H92484   5.291   6.186  10.561 -0.2549  0.6273 -0.7112
  701MOL0     H92485   5.241   6.292  10.274 -1.3099 -0.4244  1.2376
  701MOL0     H92486   5.267   6.478  10.106 -0.3392 -0.4314  0.4686
  701MOL0     H92487   5.430   6.439  10.072 -1.1460 -1.6577 -0.4644
  701MOL0     H92488   5.402   6.680  10.005 -0.9573 -1.1519 -0.2360
  701MOL0     H92489   5.461   6.689  10.183 -1.9540 -1.0228  2.2635
  701MOL0     H92490   5.168   6.688  10.094  1.0044  1.0252 -1.6885
  701MOL0     H92491   5.241   6.717  10.253  2.7001 -1.3158  0.6517
  701MOL0     H92492   5.333   6.904  10.033 -1.0079 -2.1119 -3.1083
  701MOL0     H92493   5.332   6.925  10.202 -0.0510  1.0415 -0.1926
  701MOL0     H92494   5.222   6.948   9.861  0.0124  0.9563 -0.6300
  701MOL0     H92495   5.099   7.078   9.687  3.4698  3.5213 -0.0793
  701MOL0     H92496   4.667   7.551   9.762  0.0468 -0.4106 -0.7370
  701MOL0     H92497   4.529   7.658   9.622 -0.0212 -0.5850  1.8825
  701MOL0     H92498   4.292   7.488   9.422  0.8063  0.2955  1.2545
  701MOL0     H92499   4.362   7.453   9.260  2.5921 -1.2163  1.2283
  701MOL0     H92500   4.144   7.582   9.281  0.6923 -0.4125 -0.0529
  701MOL0     H92501   4.271   7.646   9.173 -0.0819 -0.7506 -0.6937
  701MOL0     H92502   4.332   7.819   9.327  0.9648 -0.0900  4.0293
  701MOL0     H92503   4.251   7.747   9.467  1.9980  3.2178  0.6761
  701MOL0     H92504   4.106   7.849   9.219 -0.5975  1.1310  0.2184
  701MOL0     H92505   4.032   7.796   9.362  0.2721 -2.8568 -2.5150
  701MOL0     H92506   4.032   8.045   9.361 -0.3004 -1.7822 -4.5773
  701MOL0     H92507   4.203   8.024   9.323 -1.6897 -2.0393 -3.9283
  701MOL0     H92508   4.156   8.098   9.556  2.5804 -0.6895 -0.0939
  701MOL0     H92509   4.233   7.932   9.565 -0.2167  1.5917  1.7142
  701MOL0     H92510   3.922   7.964   9.558 -1.6530  0.5279  1.9800
  701MOL0     H92511   4.030   7.835   9.608  0.7728 -0.0391 -3.1401
  701MOL0     H92512   3.983   8.101   9.760 -3.5352 -0.3583 -0.2507
  701MOL0     H92513   4.120   7.995   9.795  0.6321 -0.9030 -0.3316
  701MOL0     H92514   4.563   7.337   9.339  0.0901 -0.5088 -0.0298
  701MOL0     H92515   4.721   7.224   9.494  1.4324  0.1730 -2.5275
  701MOL0     H92516   4.835   7.237   9.974  0.2177  0.4255  0.1239
  701MOL0     H92517   4.959   7.114  10.159 -0.1170  1.4419  0.6877
  701MOL0     H92518   5.398   5.188  11.040 -0.0745 -0.1489  1.8682
  701MOL0     H92519   5.340   5.134  11.267  2.1576  3.6406  3.1920
  701MOL0     H92520   5.109   5.090  11.594 -0.3158 -2.2559 -4.3469
  701MOL0     H92521   5.032   5.020  11.822  2.1948  0.0491 -0.8312
  701MOL0     H92522   4.577   4.951  11.877  0.7048  0.8073 -1.7216
  701MOL0     H92523   4.626   5.103  11.954  0.8134  0.4453 -3.5517
  701MOL0     H92524   4.558   4.863  12.078 -0.4477  0.6493 -2.9291
  701MOL0     H92525   4.726   4.855  12.095 -0.4732 -0.0153  3.2117
  701MOL0     H92526   4.632   4.970  12.280  5.0056 -0.2055  0.5337
  701MOL0     H92527   4.560   5.087  12.179 -0.4732  0.4344  2.8910
  701MOL0     H92528   4.862   5.043  12.223  1.1313  1.4675 -1.9673
  701MOL0     H92529   4.780   5.194  12.151 -0.0094 -0.2742 -0.0594
  701MOL0     H92530   4.759   5.260  12.562  3.9648 -1.6656  1.1972
  701MOL0     H92531   4.623   5.098  11.694  0.4461 -0.4114  0.0235
  701MOL0     H92532   4.705   5.179  11.481  1.6191  1.2479 -0.6467
  702MOL0     O92533   6.479  11.032   5.295 -0.1281 -0.7766  0.2139
  702MOL0     C92534   6.586  10.980   5.317 -0.2854  0.5917  0.5598
  702MOL0     O92535   6.617  10.845   5.311 -0.2103 -0.1208 -0.2788
  702MOL0     C92536   6.533  10.765   5.252  0.4823  0.3858 -0.1510
  702MOL0     C92537   6.579  10.665   5.165  0.8760 -1.2013  0.8179
  702MOL0     C92538   6.494  10.584   5.091 -0.6618  0.3193  0.4233
  702MOL0     C92539   6.355  10.588   5.109  0.8762 -0.9284 -1.6907
  702MOL0     O92540   6.244  10.533   5.043 -0.8297  0.1267 -0.2643
  702MOL0     C92541   6.273  10.484   4.912 -0.7034 -0.0123  0.4901
  702MOL0     C92542   6.154  10.512   4.835 -0.2975 -0.6290 -0.5176
  702MOL0     C92543   6.153  10.435   4.702  0.9168  0.5644  0.1004
  702MOL0     C92544   6.039  10.478   4.607  0.3057  0.0245  0.7168
  702MOL0     C92545   6.059  10.420   4.473 -0.1964 -0.6462  0.6452
  702MOL0     C92546   6.197  10.476   4.406 -0.0961 -0.0499  0.0881
  702MOL0     C92547   6.199  10.482   4.255 -0.6326  0.3656 -0.9705
  702MOL0     C92548   6.287  10.592   4.191 -0.4974 -0.0647 -0.1230
  702MOL0     N92549   6.246  10.725   4.243 -0.0525 -0.3510  0.1282
  702MOL0     C92550   6.117  10.775   4.215 -0.8316 -1.2579  0.8071
  702MOL0     C92551   6.129  10.907   4.217  0.2612  0.9585  1.1197
  702MOL0     C92552   6.026  11.013   4.189 -0.9858  0.5275 -0.0419
  702MOL0     C92553   5.935  11.027   4.307  0.3533  0.8745 -0.1706
  702MOL0     C92554   5.835  11.143   4.320 -0.2506 -0.4184  0.0706
  702MOL0     C92555   5.767  11.172   4.179  0.6995  0.4891 -0.1030
  702MOL0     O92556   5.639  11.243   4.207 -0.4138 -0.6755  0.2476
  702MOL0     C92557   5.637  11.382   4.202  0.1207 -0.6515 -0.5153
  702MOL0     C92558   5.514  11.426   4.242  0.0986 -1.8431  0.9514
  702MOL0     C92559   5.486  11.561   4.248 -0.4058  0.1009  0.1036
  702MOL0     C92560   5.595  11.652   4.231  0.8884  0.6207 -0.4603
  702MOL0     C92561   5.575  11.792   4.280 -0.6380 -0.7577  0.0113
  702MOL0     O92562   5.452  11.820   4.340 -0.5277  0.9146  0.2562
  702MOL0     C92563   5.400  11.942   4.321 -0.4478  0.9293  0.9731
  702MOL0     C92564   5.291  11.943   4.235  0.9817 -0.5119 -0.9102
  702MOL0     C92565   5.233  12.067   4.204 -0.3693  0.5257  0.0436
  702MOL0     C92566   5.284  12.184   4.255  0.0637 -0.6243 -0.5583
  702MOL0     O92567   5.225  12.301   4.228  0.5033 -0.1252 -0.0867
  702MOL0     C92568   5.194  12.330   4.092 -1.0759 -0.1244  0.2867
  702MOL0     C92569   5.108  12.449   4.089  0.3222  0.0054 -0.0192
  702MOL0     C92570   5.058  12.470   3.942  0.5672 -0.1773 -0.4061
  702MOL0     C92571   4.959  12.588   3.954  0.3875  0.2310 -0.0889
  702MOL0     C92572   4.913  12.634   3.813  0.4861  0.2437  0.0893
  702MOL0     C92573   4.810  12.752   3.825 -0.4732  0.1614 -0.0365
  702MOL0     C92574   4.891  12.881   3.857 -0.6826 -0.4060 -0.2878
  702MOL0     C92575   4.824  12.999   3.802 -0.0073  0.4213 -0.1685
  702MOL0    Cl92576   4.933  13.140   3.814 -0.6270  0.4666 -0.0360
  702MOL0     C92577   5.395  12.182   4.337  0.0133 -0.2311  0.6007
  702MOL0     C92578   5.456  12.061   4.373  0.7700 -0.8723 -0.1741
  702MOL0     O92579   5.651  11.876   4.250  0.7332  0.5515  0.4500
  702MOL0     C92580   5.719  11.605   4.188  1.0250 -0.7317 -0.2420
  702MOL0     C92581   5.739  11.471   4.178  0.5393 -0.4207 -1.3396
  702MOL0     N92582   6.258  10.942   4.242  0.7439  0.1800  0.5707
  702MOL0     N92583   6.334  10.831   4.247  0.1968  0.0639 -0.3839
  702MOL0     C92584   6.312  10.675   5.208  0.6205  0.6352 -0.0404
  702MOL0     C92585   6.390  10.759   5.279  0.2351 -0.5761 -0.0776
  702MOL0     C92586   6.690  11.071   5.369 -0.5072 -0.5007  0.9952
  702MOL0     C92587   6.679  11.208   5.342 -1.7051 -0.8447  0.1692
  702MOL0     C92588   6.788  11.291   5.380  0.5074  0.0605  0.4563
  702MOL0     C92589   6.899  11.246   5.441 -0.1409 -0.9396 -0.1684
  702MOL0     O92590   6.999  11.345   5.448  0.1270  0.3376  0.2928
  702MOL0     C92591   7.121  11.335   5.528  1.6845 -0.0552  0.2254
  702MOL0     C92592   7.227  11.269   5.447  0.1969  0.0191 -0.0316
  702MOL0     C92593   7.250  11.354   5.320 -0.2675  0.4467  0.6393
  702MOL0     C92594   7.249  11.267   5.183 -0.6006  0.1000  1.1635
  702MOL0     C92595   7.110  11.265   5.133  0.2947 -0.3010  0.2166
  702MOL0     C92596   6.996  11.260   5.082 -0.9941 -1.3986  0.4496
  702MOL0     C92597   6.904  11.111   5.481 -0.7340  0.4504  0.2947
  702MOL0     C92598   6.800  11.028   5.439 -0.6466  0.9328  0.1874
  702MOL0     H92599   6.685  10.646   5.157  1.2632 -0.3305  3.0209
  702MOL0     H92600   6.537  10.516   5.018  0.3034 -1.0806  2.2131
  702MOL0     H92601   6.294  10.377   4.916  1.8463  0.4784  1.9982
  702MOL0     H92602   6.359  10.529   4.862  1.3400 -4.8270 -0.8911
  702MOL0     H92603   6.146  10.619   4.813  0.9158 -1.1545 -4.4539
  702MOL0     H92604   6.072  10.478   4.898 -0.7909  1.1331 -0.1530
  702MOL0     H92605   6.144  10.327   4.718 -1.9966  0.6088 -0.7583
  702MOL0     H92606   6.249  10.439   4.649  1.2047  1.2067  0.6518
  702MOL0     H92607   5.938  10.450   4.638 -1.2165  1.9514 -2.1210
  702MOL0     H92608   6.054  10.585   4.594  1.2565 -0.4337 -3.1777
  702MOL0     H92609   5.981  10.449   4.402  0.3953  1.3941  0.7616
  702MOL0     H92610   6.054  10.312   4.491 -0.0834 -0.2658  3.4456
  702MOL0     H92611   6.283  10.411   4.424 -0.4098  0.2363  3.0743
  702MOL0     H92612   6.217  10.574   4.450 -1.7828 -0.2671  1.4910
  702MOL0     H92613   6.247  10.395   4.210 -1.3000  0.0671 -1.1259
  702MOL0     H92614   6.095  10.487   4.222 -1.3239  2.5825  1.2340
  702MOL0     H92615   6.268  10.582   4.084 -0.3133  0.9921 -0.2691
  702MOL0     H92616   6.393  10.586   4.217  0.0424  1.9870 -1.5976
  702MOL0     H92617   6.033  10.713   4.184 -0.9547 -0.9098  0.4411
  702MOL0     H92618   5.963  10.982   4.105  1.7779  0.3434 -2.1734
  702MOL0     H92619   6.066  11.111   4.161 -0.0266  0.0657 -0.3291
  702MOL0     H92620   6.008  11.026   4.389  0.9592 -4.8151 -0.3826
  702MOL0     H92621   5.881  10.934   4.325  0.8701  0.7190  0.6581
  702MOL0     H92622   5.760  11.111   4.393 -0.5922 -4.7108 -1.8856
  702MOL0     H92623   5.894  11.232   4.345  3.4386 -2.4185 -0.8439
  702MOL0     H92624   5.747  11.081   4.122  0.3865 -1.0452  2.3643
  702MOL0     H92625   5.837  11.234   4.122 -2.3065  3.0588 -1.3251
  702MOL0     H92626   5.427  11.361   4.245  0.2502 -2.0703  0.4921
  702MOL0     H92627   5.395  11.597   4.296 -0.7368 -1.2011  0.4841
  702MOL0     H92628   5.244  11.849   4.211  0.9886 -0.9102  0.5449
  702MOL0     H92629   5.146  12.061   4.139  0.6749 -1.0129 -1.2884
  702MOL0     H92630   5.141  12.251   4.037 -0.9337  1.8973 -3.0460
  702MOL0     H92631   5.279  12.360   4.030 -0.7166  0.4371  1.0293
  702MOL0     H92632   5.175  12.530   4.119  0.0952  0.3070 -0.3175
  702MOL0     H92633   5.027  12.438   4.162  2.3978 -1.8420  2.1874
  702MOL0     H92634   4.996  12.391   3.899  3.1646 -0.4417 -4.1276
  702MOL0     H92635   5.137  12.506   3.876  0.0022  1.4941 -0.2049
  702MOL0     H92636   4.875  12.552   4.015  1.6657 -0.8464  1.1046
  702MOL0     H92637   5.010  12.669   4.007 -0.0340  0.7370 -0.4484
  702MOL0     H92638   4.866  12.551   3.760  1.1836 -2.4646  3.3512
  702MOL0     H92639   4.995  12.680   3.757  0.3102 -1.3384 -1.5846
  702MOL0     H92640   4.737  12.717   3.899 -3.8943 -0.2402 -3.2710
  702MOL0     H92641   4.756  12.772   3.732  0.4365  1.1787 -0.3602
  702MOL0     H92642   4.924  12.892   3.960  1.7863 -3.3418 -0.6406
  702MOL0     H92643   4.988  12.881   3.806 -0.6800  0.1772 -0.2960
  702MOL0     H92644   4.739  13.026   3.865 -0.2347 -0.7956  0.0614
  702MOL0     H92645   4.793  12.990   3.698  0.8810 -0.1406 -0.4002
  702MOL0     H92646   5.427  12.276   4.379  2.3159 -0.9516  0.6068
  702MOL0     H92647   5.549  12.065   4.429  0.2575 -0.1988  0.6424
  702MOL0     H92648   5.798  11.678   4.177  0.6065 -0.5476 -2.6783
  702MOL0     H92649   5.840  11.431   4.170  0.1918 -1.5239 -0.3963
  702MOL0     H92650   6.204  10.674   5.223  0.6737 -0.1945  0.3466
  702MOL0     H92651   6.337  10.811   5.357 -2.8347 -1.0853 -1.6812
  702MOL0     H92652   6.599  11.263   5.294  1.1690  3.2622 -0.4975
  702MOL0     H92653   6.775  11.397   5.357 -1.3078  0.5361  3.1664
  702MOL0     H92654   7.086  11.275   5.613  0.4825 -0.4762 -0.5305
  702MOL0     H92655   7.155  11.432   5.565 -2.0735  0.5086  2.7509
  702MOL0     H92656   7.318  11.260   5.507  0.8951  0.0104 -1.0555
  702MOL0     H92657   7.195  11.168   5.421  1.2784 -1.1364  2.7391
  702MOL0     H92658   7.347  11.404   5.323  0.6800 -1.2688  3.7007
  702MOL0     H92659   7.175  11.433   5.309 -0.1606  0.6647  1.3915
  702MOL0     H92660   7.309  11.319   5.108 -0.8113 -1.0313  0.1842
  702MOL0     H92661   7.290  11.166   5.192 -1.2818 -0.5319 -1.7701
  702MOL0     H92662   6.896  11.263   5.042 -1.4290  0.0858  1.5666
  702MOL0     H92663   6.993  11.069   5.528 -2.5801 -2.6248  1.2975
  702MOL0     H92664   6.819  10.922   5.451  0.2315  1.0255 -0.3590
  703MOL0     O92665   5.639   7.080   3.216  1.0065 -0.7973  0.0678
  703MOL0     C92666   5.566   6.994   3.269 -0.3455  0.1918 -0.9885
  703MOL0     O92667   5.431   6.991   3.273  0.0066  0.1481 -0.3404
  703MOL0     C92668   5.366   7.064   3.171  0.5702 -0.0989 -0.0137
  703MOL0     C92669   5.253   7.153   3.202  0.3518 -0.5517  0.5842
  703MOL0     C92670   5.191   7.228   3.103  0.0175  0.7165  1.2483
  703MOL0     C92671   5.230   7.220   2.971  0.3707 -0.2109  0.1150
  703MOL0     O92672   5.154   7.296   2.879 -0.3709 -0.6872 -1.1636
  703MOL0     C92673   5.105   7.431   2.907 -1.2285  0.8569 -0.2173
  703MOL0     C92674   5.064   7.482   2.774  0.0259 -0.6516 -0.0551
  703MOL0     C92675   4.925   7.432   2.743  0.8561  0.1275  0.2465
  703MOL0     C92676   4.804   7.491   2.815  0.2532 -0.2315  0.2016
  703MOL0     C92677   4.669   7.447   2.737 -0.7272 -0.6548 -0.0638
  703MOL0     C92678   4.545   7.527   2.772 -0.5968 -0.7441  0.2057
  703MOL0     C92679   4.430   7.506   2.676 -0.4288  0.1905 -0.4914
  703MOL0     C92680   4.447   7.566   2.533  0.0176 -0.4736 -0.8664
  703MOL0     N92681   4.353   7.681   2.513  0.1531 -0.1167  0.2636
  703MOL0     C92682   4.312   7.735   2.392 -0.1682  0.1281  0.0834
  703MOL0     C92683   4.246   7.845   2.433 -0.3643  0.2286  0.2799
  703MOL0     C92684   4.191   7.952   2.350  0.1485 -0.3485  0.2534
  703MOL0     C92685   4.076   7.899   2.257  0.5428  1.0253  0.0906
  703MOL0     C92686   3.982   8.004   2.196 -0.4901  0.1192  0.1723
  703MOL0     C92687   3.861   7.956   2.123  0.5076 -0.6171 -0.8734
  703MOL0     O92688   3.893   7.893   1.998  0.5385 -0.5093  0.6440
  703MOL0     C92689   3.937   7.985   1.900 -0.3757 -0.6261 -0.2275
  703MOL0     C92690   3.947   8.123   1.906 -0.2816 -0.4311  0.5174
  703MOL0     C92691   4.020   8.191   1.805 -1.4165 -0.3519 -0.4492
  703MOL0     C92692   4.063   8.122   1.690 -0.5252  0.5356 -0.7630
  703MOL0     C92693   4.152   8.183   1.590 -0.1613 -0.3205 -0.0070
  703MOL0     O92694   4.170   8.326   1.598 -0.2076 -1.0613 -0.7266
  703MOL0     C92695   4.225   8.399   1.497  0.6352 -0.1967 -0.3858
  703MOL0     C92696   4.273   8.528   1.534  0.5960 -0.3220  0.1757
  703MOL0     C92697   4.337   8.611   1.437 -0.0990  0.9052 -0.4277
  703MOL0     C92698   4.361   8.568   1.309  0.4127  0.5787  0.1134
  703MOL0     O92699   4.409   8.641   1.203  0.7115 -0.0284 -1.0086
  703MOL0     C92700   4.462   8.769   1.224  0.5911 -0.6636  0.3925
  703MOL0     C92701   4.539   8.802   1.095 -0.7068  0.8618 -0.1431
  703MOL0     C92702   4.595   8.937   1.095  0.1312 -0.1308 -0.1671
  703MOL0     C92703   4.695   8.963   0.978 -0.1746  0.8849  0.4379
  703MOL0     C92704   4.774   9.096   0.992  0.3900  0.3434 -0.3287
  703MOL0     C92705   4.910   9.089   0.920 -0.8933  0.3301 -0.4380
  703MOL0     C92706   4.994   9.214   0.953  0.3195 -0.0198 -0.0350
  703MOL0     C92707   5.053   9.277   0.829 -0.2041  0.6546 -0.4937
  703MOL0    Cl92708   5.182   9.164   0.770 -0.0991 -0.2579  0.1618
  703MOL0     C92709   4.318   8.440   1.281 -0.2709 -0.2912 -0.0459
  703MOL0     C92710   4.253   8.358   1.364  0.4298 -0.1567 -0.9929
  703MOL0     O92711   4.198   8.112   1.497 -0.2445  0.5724  0.7577
  703MOL0     C92712   4.024   7.990   1.672  0.2687 -0.2441  0.2575
  703MOL0     C92713   3.971   7.924   1.784 -0.4408 -0.1827 -0.9009
  703MOL0     N92714   4.237   7.852   2.563  0.5194  0.0423  0.4004
  703MOL0     N92715   4.305   7.752   2.614  0.4383  0.8744 -1.2610
  703MOL0     C92716   5.343   7.145   2.947 -0.2452  0.3867 -0.7695
  703MOL0     C92717   5.401   7.064   3.043  0.1493  0.2244 -0.0575
  703MOL0     C92718   5.631   6.877   3.339  0.4212 -0.8296  0.4943
  703MOL0     C92719   5.769   6.872   3.341 -1.2100 -0.1603  0.7708
  703MOL0     C92720   5.827   6.761   3.386  0.1732  0.8167  0.4609
  703MOL0     C92721   5.754   6.646   3.424  0.2493 -0.3439  0.1687
  703MOL0     O92722   5.830   6.544   3.478 -0.4714 -0.8971  0.0434
  703MOL0     C92723   5.770   6.425   3.509  0.4849 -0.0706  0.6125
  703MOL0     C92724   5.873   6.308   3.512 -0.1617  1.0429  0.6079
  703MOL0     C92725   5.998   6.340   3.597  0.0141  0.4329  0.0759
  703MOL0     C92726   6.088   6.219   3.616 -0.7782  0.4370  0.7013
  703MOL0     C92727   6.031   6.106   3.700 -0.0748  0.8629 -1.0439
  703MOL0     C92728   5.984   6.009   3.762 -0.0837 -0.2542 -0.2640
  703MOL0     C92729   5.616   6.658   3.435 -0.5678  0.1320  0.1466
  703MOL0     C92730   5.559   6.771   3.386  0.0163 -1.0371  0.4187
  703MOL0     H92731   5.204   7.152   3.299  1.2133 -1.9330  1.0340
  703MOL0     H92732   5.113   7.295   3.138 -0.0549  1.1098  0.3603
  703MOL0     H92733   5.191   7.491   2.939 -1.4020  1.9028 -1.6322
  703MOL0     H92734   5.022   7.432   2.978 -1.3154  0.2578 -0.3074
  703MOL0     H92735   5.129   7.438   2.697  0.7043 -1.6125  1.0316
  703MOL0     H92736   5.053   7.591   2.771 -1.4619 -0.7108  1.6684
  703MOL0     H92737   4.924   7.323   2.744  1.9816  0.0182  4.3763
  703MOL0     H92738   4.903   7.463   2.640 -3.5872  2.2766  1.6106
  703MOL0     H92739   4.806   7.448   2.916  1.0997 -1.4713 -0.3260
  703MOL0     H92740   4.813   7.600   2.822 -0.7339 -0.2167  1.9222
  703MOL0     H92741   4.644   7.344   2.767  1.8566 -1.1626  0.5818
  703MOL0     H92742   4.682   7.451   2.629 -2.4141 -0.9924 -0.3100
  703MOL0     H92743   4.565   7.635   2.769 -0.0621 -0.8618 -0.9176
  703MOL0     H92744   4.507   7.502   2.872  0.7909 -0.9196  0.7117
  703MOL0     H92745   4.418   7.398   2.662 -0.6658 -0.3392  2.8514
  703MOL0     H92746   4.339   7.532   2.731  0.6936 -1.2671  2.2620
  703MOL0     H92747   4.433   7.493   2.453  2.5280 -1.4421 -0.5048
  703MOL0     H92748   4.549   7.607   2.529  0.0618 -0.6191 -1.2475
  703MOL0     H92749   4.339   7.709   2.291  0.2999 -1.9100  0.6981
  703MOL0     H92750   4.266   7.979   2.275 -1.4225 -1.4928 -1.8453
  703MOL0     H92751   4.160   8.039   2.408  1.9506 -0.4042  1.3897
  703MOL0     H92752   4.023   7.832   2.326 -0.0128  1.7698  0.3985
  703MOL0     H92753   4.109   7.835   2.175 -1.5693 -0.2225  0.1484
  703MOL0     H92754   3.953   8.055   2.289  1.3006  0.7188  0.4394
  703MOL0     H92755   4.039   8.069   2.129  0.5843 -0.2861  0.6745
  703MOL0     H92756   3.798   8.046   2.117 -0.8158 -1.1291  2.6725
  703MOL0     H92757   3.799   7.891   2.186  0.4840  1.2097  1.0949
  703MOL0     H92758   3.923   8.185   1.991 -1.1104  1.3133 -0.9298
  703MOL0     H92759   4.033   8.299   1.812 -1.1331 -0.4315  0.3585
  703MOL0     H92760   4.256   8.559   1.636  0.7359 -0.0520  0.1161
  703MOL0     H92761   4.351   8.715   1.463  0.7482  0.6778  0.0371
  703MOL0     H92762   4.528   8.772   1.311  3.6178 -3.9031 -1.5173
  703MOL0     H92763   4.387   8.848   1.234  0.7550 -0.2912 -1.0380
  703MOL0     H92764   4.471   8.785   1.011  0.1963  1.0022 -0.9249
  703MOL0     H92765   4.619   8.728   1.084  0.7702  2.5119 -1.0822
  703MOL0     H92766   4.644   8.958   1.191  1.5681  1.7694 -1.2435
  703MOL0     H92767   4.517   9.013   1.089  1.2793  1.1663  0.5965
  703MOL0     H92768   4.765   8.880   0.972 -0.4783  0.3584  3.1040
  703MOL0     H92769   4.629   8.957   0.891 -0.7626 -1.2791  0.9786
  703MOL0     H92770   4.803   9.098   1.097 -1.1249  3.5269  0.1466
  703MOL0     H92771   4.719   9.186   0.966 -0.1363  0.2278  0.3624
  703MOL0     H92772   4.895   9.070   0.814  1.1857 -2.0461 -0.3930
  703MOL0     H92773   4.977   9.010   0.954  0.6608  0.0762 -3.7233
  703MOL0     H92774   4.937   9.289   1.008 -1.7400  0.0081 -2.0508
  703MOL0     H92775   5.079   9.180   1.013 -1.5901 -2.9826  1.2657
  703MOL0     H92776   5.102   9.374   0.838 -4.7173  3.3156 -1.5364
  703MOL0     H92777   4.973   9.289   0.755  0.6386 -1.6053 -1.8816
  703MOL0     H92778   4.320   8.405   1.178  2.4405 -1.4876  0.3099
  703MOL0     H92779   4.193   8.271   1.339 -0.8480  0.5703 -0.5738
  703MOL0     H92780   4.046   7.940   1.579 -1.5867  1.0866 -0.9685
  703MOL0     H92781   3.932   7.823   1.779 -1.2876  0.1601 -1.3504
  703MOL0     H92782   5.390   7.145   2.849 -1.4439  3.4398 -1.4623
  703MOL0     H92783   5.490   7.008   3.016 -0.5251  0.3308 -2.6859
  703MOL0     H92784   5.831   6.955   3.307  1.8344 -1.8213  1.7924
  703MOL0     H92785   5.935   6.746   3.391  0.1318 -1.7508 -2.8022
  703MOL0     H92786   5.701   6.404   3.427 -0.2464 -2.2409  1.6975
  703MOL0     H92787   5.707   6.424   3.599  0.4331  1.3833  0.6060
  703MOL0     H92788   5.829   6.211   3.538  0.6129  0.3443 -0.5817
  703MOL0     H92789   5.902   6.297   3.407 -2.9865  0.4544 -0.2064
  703MOL0     H92790   5.969   6.371   3.699 -0.0069  1.6478 -0.2757
  703MOL0     H92791   6.067   6.411   3.549  0.9400  1.1353  2.3008
  703MOL0     H92792   6.103   6.180   3.515 -0.9203  1.7974  0.1343
  703MOL0     H92793   6.176   6.260   3.666 -0.2770  0.5180 -0.2163
  703MOL0     H92794   5.924   5.927   3.797  0.5704 -2.6506 -4.0745
  703MOL0     H92795   5.548   6.583   3.476  0.0257 -0.3490  0.2588
  703MOL0     H92796   5.452   6.790   3.394  0.1161  0.4461 -1.1525
  704MOL0     O92797   8.261   2.485   3.941 -0.3861 -0.1152  0.3168
  704MOL0     C92798   8.159   2.507   3.874 -0.1268 -0.5410 -0.4541
  704MOL0     O92799   8.101   2.628   3.870 -0.3510 -1.3298 -0.3180
  704MOL0     C92800   8.148   2.722   3.964  0.9623  0.4548  1.1575
  704MOL0     C92801   8.191   2.853   3.903  0.5043  0.8433 -0.4565
  704MOL0     C92802   8.251   2.947   3.989  0.5029  0.2350  0.2581
  704MOL0     C92803   8.260   2.922   4.130  0.1024  0.2393 -0.9995
  704MOL0     O92804   8.295   3.016   4.218  1.1673 -0.8696 -0.0869
  704MOL0     C92805   8.247   3.152   4.208  0.3027  0.7652  0.6435
  704MOL0     C92806   8.300   3.229   4.328  0.1706  0.1313  0.0666
  704MOL0     C92807   8.449   3.253   4.332 -0.9796  0.0164  0.6609
  704MOL0     C92808   8.489   3.359   4.221  0.4697 -0.6256  0.0051
  704MOL0     C92809   8.644   3.373   4.222  0.4502 -0.1314  0.1928
  704MOL0     C92810   8.717   3.447   4.346 -0.5097  0.1801 -0.5712
  704MOL0     C92811   8.871   3.432   4.351 -0.4541  0.3921  0.8538
  704MOL0     C92812   8.929   3.501   4.224  0.0419 -0.5048 -0.3768
  704MOL0     N92813   9.068   3.545   4.259  0.2570 -0.0716 -0.2332
  704MOL0     C92814   9.170   3.448   4.273 -0.2508 -0.0192  0.6263
  704MOL0     C92815   9.281   3.529   4.291  0.3294  0.1222 -0.1881
  704MOL0     C92816   9.422   3.472   4.313 -0.5864  0.6283 -1.1279
  704MOL0     C92817   9.434   3.424   4.452 -0.0689  0.7251 -0.3027
  704MOL0     C92818   9.565   3.350   4.477  0.2721 -0.8100 -0.7104
  704MOL0     C92819   9.582   3.311   4.622 -0.5064 -0.3447  0.4108
  704MOL0     O92820   9.472   3.216   4.645  0.0081  0.0687 -0.6698
  704MOL0     C92821   9.448   3.184   4.783  0.3220 -0.1414 -0.5755
  704MOL0     C92822   9.375   3.068   4.809 -0.1095 -1.0710 -0.7939
  704MOL0     C92823   9.332   3.029   4.935 -0.6165  0.5411  0.2150
  704MOL0     C92824   9.368   3.091   5.042 -0.5137  0.3406 -1.3868
  704MOL0     C92825   9.328   3.050   5.180 -0.6709 -0.1838 -0.2178
  704MOL0     O92826   9.301   2.918   5.198  0.9331  0.0252 -0.4162
  704MOL0     C92827   9.235   2.875   5.315 -0.3261  0.3672  1.6319
  704MOL0     C92828   9.290   2.894   5.443  0.8189  0.1371  0.5077
  704MOL0     C92829   9.223   2.847   5.556  0.0291 -0.0997  0.5417
  704MOL0     C92830   9.108   2.771   5.546  0.6640 -0.1771  0.2899
  704MOL0     O92831   9.047   2.715   5.656  0.4832  0.0521 -0.2888
  704MOL0     C92832   9.026   2.800   5.771  0.2567 -0.0621 -0.0531
  704MOL0     C92833   8.916   2.906   5.743 -0.4823  0.1969  0.1272
  704MOL0     C92834   8.883   2.987   5.871 -0.9429  0.7354  0.3840
  704MOL0     C92835   8.861   2.903   5.996 -0.0458  0.9580 -0.0717
  704MOL0     C92836   8.783   2.976   6.093  0.4807 -0.2510 -0.2783
  704MOL0     C92837   8.881   3.057   6.191 -0.5967 -0.1126  1.0410
  704MOL0     C92838   8.794   3.120   6.304  0.1994  0.1469  1.0155
  704MOL0     C92839   8.867   3.247   6.361 -0.2271  1.0673  0.4411
  704MOL0    Cl92840   8.895   3.367   6.227 -0.1634  0.3949  0.2701
  704MOL0     C92841   9.053   2.757   5.416 -0.1006 -0.2591 -0.2505
  704MOL0     C92842   9.120   2.804   5.301  0.1992 -0.3877  0.5838
  704MOL0     O92843   9.310   3.141   5.262 -0.6582  0.7686 -0.5574
  704MOL0     C92844   9.460   3.197   5.031 -0.3296 -0.1462  0.1701
  704MOL0     C92845   9.499   3.250   4.903 -0.3515  0.3397  1.0023
  704MOL0     N92846   9.240   3.665   4.281  0.1438  0.7192 -0.3979
  704MOL0     N92847   9.115   3.670   4.262 -0.3558 -1.0930 -0.9207
  704MOL0     C92848   8.230   2.792   4.177 -0.4876 -0.1701  1.1138
  704MOL0     C92849   8.162   2.703   4.102  0.1239  0.0655  0.1736
  704MOL0     C92850   8.091   2.396   3.799 -0.4921 -0.2145 -0.7607
  704MOL0     C92851   8.185   2.310   3.747  0.8157 -0.3634 -0.2933
  704MOL0     C92852   8.133   2.210   3.664 -0.0207  0.1268  0.1013
  704MOL0     C92853   7.994   2.185   3.640 -0.0029 -0.0784 -0.1847
  704MOL0     O92854   7.958   2.068   3.583  0.8254 -1.0248  0.1183
  704MOL0     C92855   7.818   2.019   3.589 -0.8361 -0.7997 -1.5577
  704MOL0     C92856   7.797   1.894   3.496  0.1970 -0.2307  0.0478
  704MOL0     C92857   7.872   1.764   3.536 -0.5469 -0.2018  0.3894
  704MOL0     C92858   7.975   1.705   3.426  0.0494  0.5390  0.5161
  704MOL0     C92859   8.061   1.814   3.374 -0.1628 -0.0535  0.0537
  704MOL0     C92860   8.122   1.917   3.323 -0.0217  0.3267  0.9963
  704MOL0     C92861   7.895   2.279   3.701 -0.9790  0.5226 -1.1644
  704MOL0     C92862   7.951   2.382   3.790  0.5550  0.7709  0.9578
  704MOL0     H92863   8.191   2.880   3.798 -2.5020  0.5056 -0.6191
  704MOL0     H92864   8.285   3.040   3.945  1.5852  0.1892  0.9486
  704MOL0     H92865   8.139   3.166   4.198  0.5570  1.2441 -2.9468
  704MOL0     H92866   8.289   3.196   4.117 -3.6954 -3.0018 -3.5464
  704MOL0     H92867   8.277   3.167   4.415  2.7053 -0.3605  0.4486
  704MOL0     H92868   8.238   3.319   4.323 -0.9413 -0.4973  1.8189
  704MOL0     H92869   8.507   3.162   4.312  0.9780  0.9791  1.7086
  704MOL0     H92870   8.470   3.292   4.431 -0.6705  3.3560 -0.6018
  704MOL0     H92871   8.458   3.318   4.125 -2.5580  2.4330 -0.5359
  704MOL0     H92872   8.450   3.461   4.233  1.2721 -0.3040 -0.0485
  704MOL0     H92873   8.677   3.430   4.134  0.1703  1.0976  0.8614
  704MOL0     H92874   8.681   3.272   4.203 -4.7952 -2.3398 -0.0194
  704MOL0     H92875   8.690   3.389   4.435 -0.4755 -0.3240 -0.8801
  704MOL0     H92876   8.678   3.548   4.353  0.5080  0.5130  0.7682
  704MOL0     H92877   8.911   3.481   4.440 -0.7295  0.8630  0.7172
  704MOL0     H92878   8.894   3.325   4.346  3.5175  1.1217 -0.5453
  704MOL0     H92879   8.868   3.588   4.196  0.7996  0.5508  1.0855
  704MOL0     H92880   8.920   3.440   4.133 -0.4701 -0.4850 -0.3429
  704MOL0     H92881   9.172   3.339   4.270 -2.2940 -0.0849 -0.1231
  704MOL0     H92882   9.492   3.555   4.294 -1.3768  1.7170  0.5107
  704MOL0     H92883   9.448   3.393   4.242 -2.0971 -4.1393  3.0450
  704MOL0     H92884   9.358   3.348   4.475  1.6180 -1.5244 -1.7542
  704MOL0     H92885   9.438   3.514   4.514  0.0688  0.4107  0.1491
  704MOL0     H92886   9.568   3.268   4.404  0.9473 -2.1774  0.8032
  704MOL0     H92887   9.647   3.420   4.457 -0.0568  0.0705  0.9015
  704MOL0     H92888   9.579   3.403   4.681 -0.1054  0.7677 -1.2481
  704MOL0     H92889   9.679   3.268   4.646  2.5956  5.0727 -0.8550
  704MOL0     H92890   9.340   3.012   4.723  1.2404 -0.6925 -1.6273
  704MOL0     H92891   9.267   2.942   4.936  3.4764 -3.2436 -5.0416
  704MOL0     H92892   9.387   2.938   5.460 -0.5852  2.6417  2.9225
  704MOL0     H92893   9.277   2.858   5.649 -0.3786  1.0075  0.6563
  704MOL0     H92894   9.124   2.841   5.799 -0.2055  0.6640  0.5442
  704MOL0     H92895   8.979   2.735   5.845 -0.2063  0.3406  0.0131
  704MOL0     H92896   8.821   2.860   5.712  0.4821 -1.3577 -0.6635
  704MOL0     H92897   8.946   2.978   5.666  0.2554  1.2951  1.3963
  704MOL0     H92898   8.793   3.048   5.858 -2.0498  0.1146  3.9387
  704MOL0     H92899   8.957   3.064   5.896  1.5757 -1.2594 -0.5383
  704MOL0     H92900   8.823   2.806   5.965  0.9765  0.7246 -0.6562
  704MOL0     H92901   8.956   2.870   6.039 -1.3369 -1.3636  1.1532
  704MOL0     H92902   8.723   2.904   6.150 -0.4945 -0.5907 -1.6856
  704MOL0     H92903   8.719   3.051   6.046  1.0186 -0.1742 -0.8905
  704MOL0     H92904   8.924   3.135   6.127  2.2928 -1.0405  1.6999
  704MOL0     H92905   8.958   2.994   6.236  3.0277  0.3313 -3.7205
  704MOL0     H92906   8.699   3.163   6.270  1.3854  2.2037  0.1184
  704MOL0     H92907   8.771   3.040   6.375  1.4887  0.5706  1.9483
  704MOL0     H92908   8.961   3.209   6.404 -2.1682 -3.0075  1.6011
  704MOL0     H92909   8.810   3.290   6.444 -0.1845 -2.0235  2.2822
  704MOL0     H92910   8.961   2.701   5.403  0.7028 -2.1013  1.5579
  704MOL0     H92911   9.092   2.786   5.197  1.2327  0.8752  0.0647
  704MOL0     H92912   9.481   3.245   5.126 -0.1282 -0.2042  0.1556
  704MOL0     H92913   9.568   3.333   4.896 -1.1546  1.1922  2.6269
  704MOL0     H92914   8.233   2.780   4.284 -2.8585 -0.3697  1.1958
  704MOL0     H92915   8.122   2.611   4.144 -1.3877  0.8942  0.6095
  704MOL0     H92916   8.290   2.319   3.770  1.5270  3.1808 -3.8273
  704MOL0     H92917   8.197   2.133   3.623 -3.0177 -1.3351 -2.2097
  704MOL0     H92918   7.754   2.103   3.563 -1.1865 -0.4926  0.2158
  704MOL0     H92919   7.797   1.997   3.694  0.0172  2.1733 -0.6617
  704MOL0     H92920   7.691   1.867   3.492  0.1796 -0.0576 -1.8818
  704MOL0     H92921   7.818   1.900   3.388 -0.6811 -2.9230 -0.3639
  704MOL0     H92922   7.794   1.693   3.567 -2.9601  0.2612 -3.8724
  704MOL0     H92923   7.941   1.780   3.619  2.1599 -1.1153 -1.5532
  704MOL0     H92924   8.031   1.618   3.460  0.1761 -0.0498 -1.1141
  704MOL0     H92925   7.924   1.673   3.334  1.5201 -1.2863  0.2852
  704MOL0     H92926   8.171   1.997   3.272 -0.8016  0.2842  0.1521
  704MOL0     H92927   7.789   2.266   3.685 -1.7060  3.4127  0.4524
  704MOL0     H92928   7.883   2.454   3.832 -2.7113 -1.8549  0.5884
  705MOL0     O92929   5.420   2.196   5.379 -0.8201 -0.1131  0.4322
  705MOL0     C92930   5.519   2.166   5.312  0.2139  0.6728  0.4049
  705MOL0     O92931   5.560   2.042   5.307  0.0577  1.1491  0.0158
  705MOL0     C92932   5.498   1.943   5.382 -0.1051  0.1047  0.7603
  705MOL0     C92933   5.507   1.954   5.520 -0.2503  0.2013 -0.7234
  705MOL0     C92934   5.423   1.875   5.604  0.6666  0.1055 -0.3871
  705MOL0     C92935   5.337   1.784   5.551 -0.3818  0.0137  0.2492
  705MOL0     O92936   5.269   1.709   5.642  0.5587  0.3630  0.2915
  705MOL0     C92937   5.156   1.629   5.612 -0.2925 -0.1551  0.1573
  705MOL0     C92938   5.144   1.536   5.734  0.4277 -0.2919  0.1542
  705MOL0     C92939   5.102   1.626   5.861 -0.3638 -0.4569  0.4057
  705MOL0     C92940   5.059   1.523   5.978  0.4532  0.3754 -0.1127
  705MOL0     C92941   5.060   1.611   6.112 -0.0210 -0.4922  0.7821
  705MOL0     C92942   4.931   1.707   6.117  0.1997 -0.4880  0.9063
  705MOL0     C92943   4.917   1.801   6.237 -0.5410 -0.4224  0.8315
  705MOL0     C92944   4.934   1.731   6.376  1.1539 -0.0363  0.2081
  705MOL0     N92945   4.843   1.628   6.415 -0.3118 -0.1565 -0.3913
  705MOL0     C92946   4.720   1.665   6.462  0.1189 -0.6025  0.5104
  705MOL0     C92947   4.680   1.549   6.514 -0.1277 -0.2017 -1.0525
  705MOL0     C92948   4.563   1.519   6.601 -0.6351  0.0269 -0.9648
  705MOL0     C92949   4.587   1.577   6.751 -0.3813  0.4754 -0.0552
  705MOL0     C92950   4.685   1.488   6.845 -0.1656 -0.1471  0.1602
  705MOL0     C92951   4.590   1.395   6.925  0.8591  0.4821  0.4378
  705MOL0     O92952   4.514   1.461   7.025  0.5442 -0.4816 -0.4160
  705MOL0     C92953   4.438   1.384   7.112 -0.4128  0.2810 -0.1617
  705MOL0     C92954   4.405   1.247   7.100  0.4728 -0.5512  0.0645
  705MOL0     C92955   4.310   1.184   7.188 -0.0889  0.0877  0.4109
  705MOL0     C92956   4.261   1.261   7.294  0.0378  0.6157  0.0303
  705MOL0     C92957   4.191   1.191   7.399  0.6590  0.0042 -0.1180
  705MOL0     O92958   4.169   1.253   7.523 -0.0465  1.5067 -0.0770
  705MOL0     C92959   4.082   1.197   7.623 -0.3801  0.2771 -0.4271
  705MOL0     C92960   3.992   1.090   7.603  0.4641  0.5313  0.3679
  705MOL0     C92961   3.900   1.061   7.700  0.0604 -0.5024  0.3609
  705MOL0     C92962   3.885   1.147   7.814 -0.1309 -0.2995  0.3788
  705MOL0     O92963   3.779   1.133   7.909 -0.0470 -0.2474 -0.1764
  705MOL0     C92964   3.692   1.016   7.905 -0.6628  0.4465 -0.3482
  705MOL0     C92965   3.616   1.004   8.040 -0.8116 -0.0804 -0.5661
  705MOL0     C92966   3.526   0.880   8.066 -1.0565 -0.1705  0.1548
  705MOL0     C92967   3.406   0.899   7.985  0.0974 -0.6849  0.5541
  705MOL0     C92968   3.307   0.785   8.023  0.1691 -0.1826  0.0740
  705MOL0     C92969   3.181   0.810   7.947 -0.1343 -0.4837 -0.1330
  705MOL0     C92970   3.062   0.741   8.011 -0.0503  0.8654 -0.0253
  705MOL0     C92971   2.943   0.725   7.912 -0.0771 -0.2213  0.3039
  705MOL0    Cl92972   2.997   0.657   7.773 -0.4454  0.1076 -0.0957
  705MOL0     C92973   3.990   1.239   7.837  1.4121 -0.0671  0.0653
  705MOL0     C92974   4.090   1.270   7.740 -0.5454 -0.6497 -0.2647
  705MOL0     O92975   4.164   1.074   7.374  0.4585  0.5256 -0.0778
  705MOL0     C92976   4.299   1.395   7.310  1.8545  0.0098 -0.1253
  705MOL0     C92977   4.383   1.448   7.220  0.0633 -0.7115  1.1720
  705MOL0     N92978   4.771   1.454   6.497 -0.2207  0.1794  0.2735
  705MOL0     N92979   4.880   1.497   6.444  0.3306  0.0055 -0.1127
  705MOL0     C92980   5.332   1.766   5.411 -0.0108  0.1429 -0.2144
  705MOL0     C92981   5.416   1.845   5.328 -0.1544 -0.1383  0.0513
  705MOL0     C92982   5.607   2.268   5.266 -0.3051 -0.0868 -0.7931
  705MOL0     C92983   5.683   2.247   5.144 -0.0708  0.1538 -0.3232
  705MOL0     C92984   5.769   2.348   5.108  0.0385  0.8497 -0.3126
  705MOL0     C92985   5.767   2.475   5.161  0.3074 -0.2744 -0.6472
  705MOL0     O92986   5.819   2.582   5.094 -0.4026  0.0163  0.1033
  705MOL0     C92987   5.731   2.651   5.010  0.2949  0.7882 -1.1967
  705MOL0     C92988   5.792   2.791   4.985 -0.9712 -0.0107  0.3718
  705MOL0     C92989   5.719   2.874   4.880  0.0945  0.1380  0.0191
  705MOL0     C92990   5.825   2.950   4.792 -0.0470  0.6192  0.4120
  705MOL0     C92991   5.760   3.004   4.673  0.1345 -0.1925  0.5549
  705MOL0     C92992   5.706   3.044   4.573  0.0911 -0.2308  0.2745
  705MOL0     C92993   5.705   2.490   5.286  0.1376 -0.1922 -0.6865
  705MOL0     C92994   5.619   2.386   5.340 -0.4361 -0.7398  1.2037
  705MOL0     H92995   5.566   2.035   5.559 -1.7693  0.5198  1.0722
  705MOL0     H92996   5.424   1.891   5.711  4.0501  2.1116 -0.5609
  705MOL0     H92997   5.173   1.576   5.518 -1.5146 -0.6410  0.1852
  705MOL0     H92998   5.061   1.681   5.601 -2.3928 -3.2670  1.9021
  705MOL0     H92999   5.238   1.482   5.752  0.3920 -1.0328 -1.6458
  705MOL0     H93000   5.072   1.456   5.716 -0.6885  0.8325 -0.4999
  705MOL0     H93001   5.010   1.681   5.840  0.9400  0.9470 -2.1984
  705MOL0     H93002   5.189   1.689   5.882  1.6942 -1.3314 -4.2817
  705MOL0     H93003   4.960   1.487   5.952  0.7325  1.2290 -2.6440
  705MOL0     H93004   5.127   1.438   5.988 -0.7171 -0.6004 -0.2490
  705MOL0     H93005   5.152   1.671   6.111 -0.8183  0.8014  1.3316
  705MOL0     H93006   5.053   1.555   6.206  1.1421 -1.7708  0.1339
  705MOL0     H93007   4.844   1.641   6.114  1.9135 -2.8184 -1.3122
  705MOL0     H93008   4.937   1.772   6.029  2.2750 -3.3588 -1.2346
  705MOL0     H93009   5.000   1.872   6.230  0.5987 -1.8779 -3.4829
  705MOL0     H93010   4.831   1.868   6.237 -1.1625 -1.1974  1.6019
  705MOL0     H93011   4.935   1.803   6.458  1.0612 -1.2416  1.2958
  705MOL0     H93012   5.029   1.676   6.373 -0.1162 -2.3578 -0.7799
  705MOL0     H93013   4.669   1.760   6.474 -0.9343 -1.3557  2.5439
  705MOL0     H93014   4.526   1.416   6.609 -1.6423  0.3900 -0.8373
  705MOL0     H93015   4.475   1.574   6.567 -1.1286  0.9265  1.5536
  705MOL0     H93016   4.488   1.585   6.797 -1.0678  1.1395 -1.5818
  705MOL0     H93017   4.633   1.676   6.741  3.6236 -1.3585 -1.8706
  705MOL0     H93018   4.752   1.425   6.786 -0.0371 -0.7845  0.9690
  705MOL0     H93019   4.744   1.544   6.919 -2.3380  3.8914 -0.8279
  705MOL0     H93020   4.657   1.333   6.985 -2.0516 -2.4161  1.0030
  705MOL0     H93021   4.517   1.333   6.872  0.7442  0.6965  0.3427
  705MOL0     H93022   4.429   1.185   7.014 -0.3823  0.3400 -0.8347
  705MOL0     H93023   4.280   1.082   7.170  1.9018 -0.2183 -1.4944
  705MOL0     H93024   3.980   1.037   7.510 -3.2065  0.6885  0.6081
  705MOL0     H93025   3.836   0.976   7.680  0.4048 -1.0076  1.3263
  705MOL0     H93026   3.756   0.929   7.889  1.6673  1.6362  1.7519
  705MOL0     H93027   3.620   1.034   7.824  0.3319  2.6786 -0.7993
  705MOL0     H93028   3.561   1.099   8.036  1.8280  1.5219 -1.4729
  705MOL0     H93029   3.683   0.997   8.126  0.9196  0.7074 -1.8089
  705MOL0     H93030   3.491   0.876   8.170  2.2824  2.0987  1.5406
  705MOL0     H93031   3.584   0.795   8.030  0.2106  0.0793  1.5318
  705MOL0     H93032   3.357   0.996   7.993 -1.7903 -1.5806  0.4745
  705MOL0     H93033   3.446   0.891   7.884 -0.9274  1.9054 -0.1179
  705MOL0     H93034   3.288   0.785   8.131  1.0327  1.7100  0.2713
  705MOL0     H93035   3.353   0.688   8.005  2.1976  0.7761 -0.2704
  705MOL0     H93036   3.198   0.788   7.841 -0.7623 -0.6244 -0.2084
  705MOL0     H93037   3.158   0.917   7.948 -3.2086 -1.0682  1.5414
  705MOL0     H93038   3.091   0.640   8.043  2.9860  1.3952 -0.7756
  705MOL0     H93039   3.026   0.777   8.108 -1.1576 -2.6862  1.0185
  705MOL0     H93040   2.903   0.824   7.892  0.8447 -0.1016 -1.0610
  705MOL0     H93041   2.867   0.657   7.951  0.1504 -1.1535 -0.8240
  705MOL0     H93042   3.988   1.311   7.918  1.4099 -0.1661  0.1523
  705MOL0     H93043   4.159   1.351   7.757 -1.0701 -0.3783  0.6365
  705MOL0     H93044   4.257   1.445   7.396  1.5509 -0.6442  0.1196
  705MOL0     H93045   4.391   1.556   7.218 -2.0940 -0.4957 -1.3814
  705MOL0     H93046   5.274   1.690   5.360  1.2853 -0.3329 -1.0274
  705MOL0     H93047   5.410   1.846   5.220  2.4032  3.6858 -0.2481
  705MOL0     H93048   5.663   2.167   5.074 -3.4593 -0.0774  0.7018
  705MOL0     H93049   5.821   2.342   5.013  0.4619 -1.5837  0.0050
  705MOL0     H93050   5.630   2.658   5.050  0.0161  1.1735 -1.9419
  705MOL0     H93051   5.713   2.595   4.917  0.3016  1.0668 -1.3675
  705MOL0     H93052   5.782   2.849   5.077 -3.7088  5.7637 -2.9958
  705MOL0     H93053   5.899   2.776   4.970 -1.4508 -1.1577 -2.5770
  705MOL0     H93054   5.638   2.935   4.920 -1.1524 -0.9268 -0.7780
  705MOL0     H93055   5.671   2.813   4.802  3.6599 -0.2357 -2.0853
  705MOL0     H93056   5.881   3.028   4.846  1.0190  0.2087 -0.0628
  705MOL0     H93057   5.888   2.864   4.769 -0.8621 -0.9305  3.3892
  705MOL0     H93058   5.656   3.087   4.489  0.8759 -0.9385 -0.5756
  705MOL0     H93059   5.708   2.585   5.339  2.6062  0.9073 -2.6018
  705MOL0     H93060   5.551   2.395   5.425 -3.0454  1.1871 -0.8769
  706MOL0     O93061   1.797   5.242  10.901  0.4129 -0.1617 -0.6794
  706MOL0     C93062   1.843   5.271  11.009 -0.3840 -0.3552  0.5995
  706MOL0     O93063   1.847   5.202  11.130 -0.8402  0.7817 -0.6110
  706MOL0     C93064   1.799   5.076  11.156 -0.6932  0.1771  0.3192
  706MOL0     C93065   1.833   5.038  11.285  0.2834  0.4685 -0.0970
  706MOL0     C93066   1.799   4.908  11.330 -0.9023 -0.4395  0.9697
  706MOL0     C93067   1.728   4.823  11.242 -0.0938 -1.5162  0.7783
  706MOL0     O93068   1.701   4.703  11.303 -0.2673 -0.1297 -0.0586
  706MOL0     C93069   1.661   4.590  11.226 -0.0877 -0.0576 -0.5439
  706MOL0     C93070   1.640   4.468  11.320 -0.4213  0.2028  0.3655
  706MOL0     C93071   1.489   4.460  11.375 -1.4000 -0.2922 -0.6974
  706MOL0     C93072   1.466   4.324  11.447 -0.2016 -0.6307 -0.1078
  706MOL0     C93073   1.319   4.315  11.504  0.4376 -0.0436  0.0418
  706MOL0     C93074   1.283   4.174  11.534 -0.2633  0.0824  0.0550
  706MOL0     C93075   1.379   4.105  11.634  0.4801  0.6960  0.0640
  706MOL0     C93076   1.320   4.000  11.722  0.2694  0.1548  0.5278
  706MOL0     N93077   1.262   3.892  11.634  0.2544  0.0257 -0.3322
  706MOL0     C93078   1.339   3.792  11.581  0.0330  0.1902  0.0258
  706MOL0     C93079   1.250   3.696  11.542 -0.7075  0.2963 -0.3256
  706MOL0     C93080   1.293   3.568  11.474 -0.1636 -0.6745 -0.0773
  706MOL0     C93081   1.184   3.457  11.464 -0.2084  0.3759  1.0596
  706MOL0     C93082   1.141   3.418  11.606  0.1191  0.3108 -0.2574
  706MOL0     C93083   1.056   3.292  11.610 -0.2164 -0.2936  0.9121
  706MOL0     O93084   0.934   3.298  11.556 -0.2045  0.9397 -0.3626
  706MOL0     C93085   0.826   3.289  11.646  0.0657 -0.0262  1.2501
  706MOL0     C93086   0.789   3.402  11.722 -0.4324  0.4670  0.5958
  706MOL0     C93087   0.683   3.402  11.805  0.0819 -0.4958  0.3487
  706MOL0     C93088   0.601   3.287  11.811 -0.5904  0.2502  0.6519
  706MOL0     C93089   0.485   3.284  11.907 -0.8510  0.2117  0.2241
  706MOL0     O93090   0.461   3.403  11.977 -0.2396  0.6220  0.3811
  706MOL0     C93091   0.390   3.388  12.099 -0.5610 -0.0579 -0.0127
  706MOL0     C93092   0.256   3.348  12.116  0.7688  0.3633  0.1416
  706MOL0     C93093   0.205   3.329  12.250  0.7393  0.4476  0.7296
  706MOL0     C93094   0.285   3.349  12.369 -0.2559 -0.2241  0.6725
  706MOL0     O93095   0.222   3.349  12.491 -0.2154  0.1558  0.6963
  706MOL0     C93096   0.289   3.395  12.614  0.8170  0.0978  0.3677
  706MOL0     C93097   0.385   3.298  12.680 -0.5125 -0.0544 -0.0107
  706MOL0     C93098   0.314   3.222  12.792  0.4579  0.4466 -1.0193
  706MOL0     C93099   0.296   3.289  12.925 -0.6002 -0.9965 -0.4383
  706MOL0     C93100   0.430   3.292  13.003  0.3218  0.2058  0.1320
  706MOL0     C93101   0.408   3.326  13.149 -0.4524 -0.6567 -0.3172
  706MOL0     C93102   0.359   3.475  13.162  1.2730  0.6366  0.4972
  706MOL0     C93103   0.370   3.530  13.304  0.7655  0.2745  0.6789
  706MOL0    Cl93104   0.289   3.687  13.317 -0.1957 -0.4076  0.4341
  706MOL0     C93105   0.416   3.406  12.345  0.8684 -0.2669  0.5483
  706MOL0     C93106   0.460   3.415  12.215  0.2753  0.2033 -1.0969
  706MOL0     O93107   0.433   3.177  11.930  0.5327 -0.1879 -0.1339
  706MOL0     C93108   0.636   3.168  11.733 -0.8965 -0.4812  0.4394
  706MOL0     C93109   0.758   3.173  11.652  1.2989 -0.4026 -0.4840
  706MOL0     N93110   1.118   3.736  11.580 -0.8607 -0.5764  0.4346
  706MOL0     N93111   1.133   3.853  11.632  0.8164 -0.5552  0.2887
  706MOL0     C93112   1.681   4.868  11.119 -0.2490 -0.1659  0.1338
  706MOL0     C93113   1.721   4.992  11.068 -0.2288  0.0164 -0.3553
  706MOL0     C93114   1.923   5.407  11.010  0.3191 -1.2213  0.6132
  706MOL0     C93115   1.965   5.476  11.125  0.3329  0.1599  0.4414
  706MOL0     C93116   2.029   5.601  11.112 -1.0640 -0.0629  1.0254
  706MOL0     C93117   2.052   5.663  10.988 -0.5010  0.1510 -0.3104
  706MOL0     O93118   2.121   5.782  10.964 -0.7294  0.0549 -0.2572
  706MOL0     C93119   2.172   5.864  11.069 -0.0732 -0.2287  0.1493
  706MOL0     C93120   2.236   5.997  11.029 -0.2791 -0.8367  0.3884
  706MOL0     C93121   2.161   6.063  10.909  0.6152 -0.3899  0.3728
  706MOL0     C93122   2.005   6.095  10.926  0.2717 -0.5004 -0.9895
  706MOL0     C93123   1.982   6.214  11.005 -0.1319  0.0366  0.0112
  706MOL0     C93124   1.973   6.303  11.088  0.2839 -0.0783  1.1843
  706MOL0     C93125   1.992   5.598  10.873  0.0734 -0.3479  0.2974
  706MOL0     C93126   1.935   5.472  10.884 -0.0201  1.2143  0.2788
  706MOL0     H93127   1.890   5.094  11.358  4.3453 -0.9721 -1.8351
  706MOL0     H93128   1.835   4.868  11.425  2.4639  1.0142  0.4567
  706MOL0     H93129   1.737   4.567  11.151  1.5570  1.1950  0.6701
  706MOL0     H93130   1.564   4.618  11.185 -0.9122 -0.6545  0.9213
  706MOL0     H93131   1.715   4.472  11.400 -0.4233  2.5773  0.2980
  706MOL0     H93132   1.652   4.379  11.257 -0.3980 -0.4696  1.2811
  706MOL0     H93133   1.425   4.471  11.287 -0.8043 -2.3576 -1.4309
  706MOL0     H93134   1.470   4.547  11.440 -1.6862 -2.2668  2.0299
  706MOL0     H93135   1.483   4.239  11.380 -1.5219 -2.6517  1.9638
  706MOL0     H93136   1.539   4.307  11.527  0.1473 -0.2536 -0.3433
  706MOL0     H93137   1.254   4.350  11.424 -3.2094  0.3262  2.9324
  706MOL0     H93138   1.327   4.377  11.594  1.5374  1.6504 -1.1502
  706MOL0     H93139   1.273   4.118  11.441 -0.5597 -0.5004  0.4330
  706MOL0     H93140   1.186   4.172  11.585  0.0649 -3.5764  0.8485
  706MOL0     H93141   1.460   4.052  11.583 -0.0892 -0.5529  0.4429
  706MOL0     H93142   1.442   4.180  11.683  4.9169 -0.5777 -3.0301
  706MOL0     H93143   1.251   4.042  11.796 -0.5668  2.1263 -1.2744
  706MOL0     H93144   1.404   3.944  11.763  1.4529  0.9956 -0.6654
  706MOL0     H93145   1.447   3.800  11.576 -0.1303  2.5987 -1.1012
  706MOL0     H93146   1.389   3.541  11.520  1.8617  3.1090 -1.5755
  706MOL0     H93147   1.323   3.600  11.373 -0.7388 -2.1995 -0.7623
  706MOL0     H93148   1.233   3.369  11.420 -0.2654  1.1449 -0.6207
  706MOL0     H93149   1.097   3.485  11.405  0.2541 -2.7768 -1.3556
  706MOL0     H93150   1.233   3.393  11.659  1.0014  0.7559 -1.5169
  706MOL0     H93151   1.078   3.498  11.646 -0.2844 -0.1115 -0.0428
  706MOL0     H93152   1.052   3.278  11.719 -1.6227 -0.0105  0.9222
  706MOL0     H93153   1.118   3.211  11.572 -2.4846 -1.7296  0.0883
  706MOL0     H93154   0.849   3.493  11.725 -0.2118  0.3121  0.8402
  706MOL0     H93155   0.663   3.492  11.862 -0.3105  0.7919 -1.7261
  706MOL0     H93156   0.192   3.349  12.028  3.1381 -1.5336 -1.7528
  706MOL0     H93157   0.100   3.309  12.264  0.6039  2.3812  3.0041
  706MOL0     H93158   0.214   3.423  12.689 -0.1653  1.6412 -1.1089
  706MOL0     H93159   0.345   3.487  12.596 -1.1793  1.2148 -0.5375
  706MOL0     H93160   0.473   3.352  12.715  0.6664 -2.5446  1.1054
  706MOL0     H93161   0.423   3.234  12.599 -0.9338 -0.7013  0.2887
  706MOL0     H93162   0.387   3.148  12.825  1.9516  3.1264  2.3712
  706MOL0     H93163   0.228   3.174  12.744  0.0606  0.5899 -0.4591
  706MOL0     H93164   0.270   3.393  12.902  2.0764 -0.0338  0.5188
  706MOL0     H93165   0.209   3.242  12.973  1.8053 -2.6185  2.7461
  706MOL0     H93166   0.495   3.368  12.958  2.4919 -1.2063  0.6907
  706MOL0     H93167   0.485   3.197  12.994 -0.7351 -0.2247 -4.2639
  706MOL0     H93168   0.499   3.318  13.210 -2.0143 -0.3497  2.2000
  706MOL0     H93169   0.345   3.255  13.203  1.7348 -2.0058  0.5717
  706MOL0     H93170   0.406   3.545  13.092  0.2126  0.9760  0.0983
  706MOL0     H93171   0.254   3.481  13.132  1.4653  5.2300  0.0784
  706MOL0     H93172   0.477   3.547  13.321  2.0508 -2.4914 -3.3761
  706MOL0     H93173   0.323   3.463  13.376  2.3394  1.1335  2.6207
  706MOL0     H93174   0.476   3.446  12.426 -1.1549 -0.1997  2.1002
  706MOL0     H93175   0.560   3.452  12.196  0.4577 -0.7100 -1.9966
  706MOL0     H93176   0.586   3.074  11.753 -1.4151 -0.3811 -0.3287
  706MOL0     H93177   0.792   3.086  11.598  0.1758 -2.2142  1.5499
  706MOL0     H93178   1.629   4.804  11.048 -0.4025  1.9636 -1.8261
  706MOL0     H93179   1.701   5.020  10.965  1.0749  0.0614 -0.6249
  706MOL0     H93180   1.950   5.433  11.224  0.6585 -1.0464 -0.0291
  706MOL0     H93181   2.060   5.657  11.200  0.2903  3.3548 -1.3888
  706MOL0     H93182   2.250   5.801  11.111  0.7542 -0.2411 -1.3482
  706MOL0     H93183   2.091   5.879  11.141 -0.2051  0.2860 -0.0989
  706MOL0     H93184   2.245   6.076  11.104 -0.9984  1.0694 -1.4205
  706MOL0     H93185   2.341   5.981  11.003 -0.2885  2.5913 -2.4489
  706MOL0     H93186   2.170   5.999  10.820 -4.4288 -2.7193  1.1626
  706MOL0     H93187   2.209   6.161  10.898  0.5714 -0.5950 -2.2091
  706MOL0     H93188   1.962   6.114  10.828  1.9582 -1.0990 -1.8953
  706MOL0     H93189   1.952   6.009  10.969 -0.7463  0.1052 -1.0231
  706MOL0     H93190   1.979   6.388  11.154  2.0171 -0.3638  1.4511
  706MOL0     H93191   1.986   5.624  10.768 -3.3951 -3.0448 -0.3419
  706MOL0     H93192   1.884   5.426  10.799  0.7213 -0.6006  0.7517
  707MOL0     O93193   1.699   8.895   6.338  0.1106  0.3094  0.5305
  707MOL0     C93194   1.781   8.804   6.358  0.0192 -0.0787  0.3831
  707MOL0     O93195   1.777   8.723   6.466  0.5385  0.4239  0.9154
  707MOL0     C93196   1.663   8.728   6.540  0.9281 -0.7201  0.4716
  707MOL0     C93197   1.650   8.776   6.668  0.1432 -0.4680 -1.6647
  707MOL0     C93198   1.527   8.804   6.729  0.1724  0.0826 -0.5955
  707MOL0     C93199   1.408   8.756   6.673  0.4856 -0.4586  0.2963
  707MOL0     O93200   1.291   8.777   6.740 -0.2249 -0.6012  0.7442
  707MOL0     C93201   1.166   8.798   6.673 -0.4387 -0.4615  0.3717
  707MOL0     C93202   1.076   8.680   6.684 -0.3289 -0.5367  0.1439
  707MOL0     C93203   0.937   8.712   6.633 -0.0397  0.4314 -0.2866
  707MOL0     C93204   0.846   8.592   6.665  0.1427 -0.0443  1.0159
  707MOL0     C93205   0.711   8.618   6.612 -0.2353  0.0375 -0.5954
  707MOL0     C93206   0.600   8.511   6.619  0.1164  0.7253 -0.2571
  707MOL0     C93207   0.458   8.558   6.604 -0.0032 -1.0774 -0.0121
  707MOL0     C93208   0.372   8.437   6.623  0.5253  0.0289  0.2658
  707MOL0     N93209   0.228   8.464   6.607 -0.0194 -0.0824  1.1744
  707MOL0     C93210   0.148   8.473   6.491  0.0916 -0.1886 -0.0206
  707MOL0     C93211   0.021   8.467   6.538  0.6832 -0.4725 -0.5330
  707MOL0     C93212  -0.103   8.481   6.445 -0.1640 -0.0366 -0.0090
  707MOL0     C93213  -0.185   8.347   6.423  0.4395  0.2169 -0.1561
  707MOL0     C93214  -0.275   8.357   6.306  0.1502 -0.1258  1.0193
  707MOL0     C93215  -0.361   8.223   6.272 -0.0594  0.3233 -0.1248
  707MOL0     O93216  -0.285   8.116   6.204 -0.1986 -0.4344 -0.1817
  707MOL0     C93217  -0.192   8.041   6.277 -0.6159 -0.2939 -0.0913
  707MOL0     C93218  -0.101   7.955   6.197  0.5168  0.1340  0.3473
  707MOL0     C93219  -0.015   7.861   6.265 -0.4675 -0.0140  0.0675
  707MOL0     C93220  -0.024   7.846   6.404 -0.3711  0.1979  0.0155
  707MOL0     C93221   0.057   7.740   6.471 -0.4614 -0.6162  0.4113
  707MOL0     O93222   0.034   7.730   6.608  0.4325  0.3591  0.1496
  707MOL0     C93223   0.114   7.668   6.697 -0.1611 -0.3433 -0.0933
  707MOL0     C93224   0.056   7.605   6.817 -1.1629 -0.0086  0.4990
  707MOL0     C93225   0.140   7.559   6.916 -0.1529  0.4513 -0.0728
  707MOL0     C93226   0.276   7.584   6.909 -0.7156  0.4379  0.7905
  707MOL0     O93227   0.344   7.527   7.016  0.4489  0.0690  0.1121
  707MOL0     C93228   0.483   7.554   7.029  0.6293  0.2668 -0.1103
  707MOL0     C93229   0.520   7.513   7.174  0.3435  0.7079 -0.3279
  707MOL0     C93230   0.661   7.472   7.194 -0.4317  0.9997  0.3665
  707MOL0     C93231   0.688   7.436   7.333 -0.2087 -1.4970 -0.9565
  707MOL0     C93232   0.809   7.343   7.348 -0.0675  0.5120 -1.0303
  707MOL0     C93233   0.936   7.427   7.343 -0.8150 -0.1138  0.0413
  707MOL0     C93234   1.062   7.346   7.369 -0.6170  1.0292  0.3756
  707MOL0     C93235   1.087   7.248   7.257 -1.0711 -1.1448  1.5464
  707MOL0    Cl93236   1.249   7.189   7.285 -0.2474  0.0947 -0.3034
  707MOL0     C93237   0.332   7.641   6.794  0.3823  0.2613 -0.8662
  707MOL0     C93238   0.253   7.682   6.694  0.1872 -0.1389 -0.0081
  707MOL0     O93239   0.140   7.670   6.408  0.1246  0.2351 -0.1558
  707MOL0     C93240  -0.112   7.922   6.475 -0.3350  0.4964  0.3565
  707MOL0     C93241  -0.185   8.032   6.422  0.6151  0.1637  0.2981
  707MOL0     N93242   0.024   8.470   6.675 -0.3742  0.5701  0.5374
  707MOL0     N93243   0.146   8.470   6.714  0.4791  0.5009  0.1708
  707MOL0     C93244   1.408   8.693   6.545 -1.2322 -0.0259 -0.8335
  707MOL0     C93245   1.538   8.685   6.481  0.1160 -0.4063 -1.1665
  707MOL0     C93246   1.885   8.790   6.251 -0.2409 -0.4935  0.1973
  707MOL0     C93247   1.919   8.663   6.189  0.2730  0.4900 -0.7373
  707MOL0     C93248   2.015   8.661   6.091  0.0066 -0.5657  0.2127
  707MOL0     C93249   2.081   8.786   6.042 -0.3008  0.2222  1.0585
  707MOL0     O93250   2.162   8.791   5.932 -0.3617  0.4269  0.2024
  707MOL0     C93251   2.219   8.671   5.875  0.3944  0.6129  1.1230
  707MOL0     C93252   2.146   8.623   5.753  0.6358 -0.2902 -0.4670
  707MOL0     C93253   2.137   8.737   5.643 -0.3521  0.2234  0.5839
  707MOL0     C93254   2.120   8.673   5.499 -0.8896 -0.4173 -0.8011
  707MOL0     C93255   1.975   8.653   5.481  0.3315 -0.5428 -0.4105
  707MOL0     C93256   1.859   8.639   5.438 -0.8943 -0.5499 -0.2731
  707MOL0     C93257   2.053   8.901   6.104  0.6064  1.2144 -0.6628
  707MOL0     C93258   1.955   8.901   6.205  0.7411 -0.0797 -0.2711
  707MOL0     H93259   1.743   8.807   6.715 -0.3174 -0.5774 -0.6632
  707MOL0     H93260   1.509   8.859   6.821 -2.4451 -0.3152 -0.7990
  707MOL0     H93261   1.185   8.837   6.572 -2.2040  0.8722  0.5087
  707MOL0     H93262   1.114   8.880   6.723  0.6491 -0.7415  2.0645
  707MOL0     H93263   1.063   8.671   6.792  3.2548  0.0353  0.7339
  707MOL0     H93264   1.121   8.590   6.640  3.5213  1.7713 -1.0757
  707MOL0     H93265   0.938   8.735   6.526  4.6958 -2.3078 -1.0862
  707MOL0     H93266   0.891   8.789   6.696  0.7105  1.9034 -1.4842
  707MOL0     H93267   0.874   8.500   6.613 -2.7802 -0.1477 -0.5532
  707MOL0     H93268   0.831   8.581   6.773 -3.6871  1.1174  0.7399
  707MOL0     H93269   0.709   8.638   6.504 -3.3708 -2.1783 -1.1056
  707MOL0     H93270   0.668   8.704   6.665 -3.4396 -1.3054 -0.7794
  707MOL0     H93271   0.617   8.479   6.722 -2.8345  1.2440  0.4853
  707MOL0     H93272   0.620   8.426   6.554  0.9989 -0.4508  1.4849
  707MOL0     H93273   0.429   8.633   6.678 -0.1408 -0.3363 -0.8011
  707MOL0     H93274   0.434   8.591   6.502 -3.6465  1.1465  1.3886
  707MOL0     H93275   0.384   8.395   6.724 -1.7763  1.8649  1.3974
  707MOL0     H93276   0.400   8.353   6.559 -2.2310  1.7104 -3.4625
  707MOL0     H93277   0.188   8.479   6.390 -0.6650 -0.0646 -0.3162
  707MOL0     H93278  -0.059   8.529   6.357  3.9344 -1.9752  0.7454
  707MOL0     H93279  -0.166   8.556   6.493  1.6484 -0.5640  3.5059
  707MOL0     H93280  -0.228   8.306   6.514 -0.6270  0.1130 -0.6928
  707MOL0     H93281  -0.102   8.277   6.407 -1.4012 -2.1664  0.2454
  707MOL0     H93282  -0.342   8.442   6.319  0.9606  0.8731 -0.8596
  707MOL0     H93283  -0.219   8.395   6.220 -0.6891 -1.1949 -0.0385
  707MOL0     H93284  -0.436   8.254   6.198  0.7899  5.3367  0.7646
  707MOL0     H93285  -0.421   8.182   6.355 -0.1310 -1.1410 -0.8651
  707MOL0     H93286  -0.116   7.967   6.091 -0.7767 -0.2997  0.4635
  707MOL0     H93287   0.047   7.793   6.209  0.4831  2.4444 -2.0781
  707MOL0     H93288  -0.052   7.605   6.811 -1.2956  2.5415  1.4858
  707MOL0     H93289   0.111   7.507   7.007  0.4096  1.5942  0.7805
  707MOL0     H93290   0.517   7.652   6.994  1.1304  0.1113 -0.0691
  707MOL0     H93291   0.537   7.481   6.968 -1.5443  1.6223 -4.0169
  707MOL0     H93292   0.451   7.433   7.200 -0.6543  1.3303 -1.0049
  707MOL0     H93293   0.487   7.595   7.239 -0.3491  0.4021 -0.2922
  707MOL0     H93294   0.732   7.541   7.147  1.4236 -1.9943 -1.5940
  707MOL0     H93295   0.676   7.385   7.130 -0.8018 -0.4467  2.1437
  707MOL0     H93296   0.696   7.530   7.388 -2.2872 -2.5905  1.4177
  707MOL0     H93297   0.598   7.380   7.362 -0.4597 -0.9915 -0.7389
  707MOL0     H93298   0.799   7.266   7.270 -1.5123 -0.3376 -0.0584
  707MOL0     H93299   0.802   7.284   7.440 -1.9627 -3.5527 -3.4614
  707MOL0     H93300   0.936   7.507   7.417  1.7690 -0.1180  0.1399
  707MOL0     H93301   0.961   7.467   7.244  1.6438 -1.5935 -0.0275
  707MOL0     H93302   1.146   7.416   7.376  1.5657 -1.2167 -1.2497
  707MOL0     H93303   1.055   7.292   7.464  2.9499  4.7375  3.0872
  707MOL0     H93304   1.083   7.302   7.162  0.1599 -1.5597  1.2398
  707MOL0     H93305   1.014   7.166   7.255 -1.4039 -1.0005 -3.1176
  707MOL0     H93306   0.441   7.646   6.789  0.3231  4.2550 -1.9580
  707MOL0     H93307   0.301   7.745   6.619  1.3629 -1.5120 -0.4490
  707MOL0     H93308  -0.121   7.914   6.583 -1.4493 -0.7076  0.1977
  707MOL0     H93309  -0.248   8.086   6.492 -0.7360  3.8234 -3.3171
  707MOL0     H93310   1.320   8.657   6.493 -3.1696 -0.2698  2.3727
  707MOL0     H93311   1.558   8.641   6.384  0.7833 -2.2227 -0.2674
  707MOL0     H93312   1.881   8.569   6.227  1.0837  0.5156  0.1560
  707MOL0     H93313   2.036   8.565   6.045 -1.7771 -1.2310  0.7212
  707MOL0     H93314   2.216   8.585   5.943 -1.6363 -1.6673 -1.6470
  707MOL0     H93315   2.326   8.677   5.853  1.1107 -1.0746  3.6473
  707MOL0     H93316   2.185   8.524   5.728 -0.7175 -1.2076  0.8851
  707MOL0     H93317   2.041   8.607   5.781  0.5170 -0.2955 -0.8944
  707MOL0     H93318   2.220   8.807   5.652  0.2966  0.0831 -2.9589
  707MOL0     H93319   2.052   8.807   5.645  0.5127  1.3100  0.1270
  707MOL0     H93320   2.161   8.749   5.432 -1.4034  2.3628  1.8071
  707MOL0     H93321   2.171   8.576   5.501  1.5387  0.7832  1.4456
  707MOL0     H93322   1.762   8.627   5.393 -0.7249  0.0039 -0.7972
  707MOL0     H93323   2.105   8.994   6.085  0.5460  1.9560  2.3736
  707MOL0     H93324   1.952   8.994   6.260 -1.2909 -0.5760  0.5260
  708MOL0     O93325   6.634  10.634   2.709  0.4223  0.5485 -0.6810
  708MOL0     C93326   6.664  10.561   2.804  0.0441 -0.2496  1.0502
  708MOL0     O93327   6.584  10.485   2.865  0.7319  0.1519  0.4476
  708MOL0     C93328   6.445  10.496   2.852  0.4630  0.3736 -0.6937
  708MOL0     C93329   6.370  10.611   2.866 -0.5876 -0.9527 -0.2339
  708MOL0     C93330   6.230  10.597   2.868  0.0108  0.0766  0.5206
  708MOL0     C93331   6.168  10.474   2.854 -0.5084  0.3769 -0.5860
  708MOL0     O93332   6.035  10.467   2.861 -0.4312 -0.3887  0.3097
  708MOL0     C93333   5.972  10.411   2.745  0.0737 -0.6426  0.5831
  708MOL0     C93334   5.822  10.427   2.745 -0.2918 -0.9641  0.0696
  708MOL0     C93335   5.760  10.548   2.807 -0.1351  1.1216 -0.0902
  708MOL0     C93336   5.605  10.565   2.767  0.5321 -0.0620 -0.2060
  708MOL0     C93337   5.517  10.431   2.798 -1.1192  0.1974  0.9636
  708MOL0     C93338   5.370  10.456   2.788  0.0267 -1.2706 -0.1690
  708MOL0     C93339   5.312  10.525   2.909  1.1721 -0.4026 -0.4197
  708MOL0     C93340   5.155  10.562   2.887 -0.8083  1.5961  0.0782
  708MOL0     N93341   5.075  10.613   2.997 -0.7096  0.3555  0.3571
  708MOL0     C93342   4.953  10.578   3.034 -0.2670 -0.7603  0.1811
  708MOL0     C93343   4.932  10.662   3.136 -0.6905  0.3319  0.1049
  708MOL0     C93344   4.805  10.674   3.214  1.1543  0.4570  0.1306
  708MOL0     C93345   4.756  10.527   3.249  1.0125 -1.4077 -0.0642
  708MOL0     C93346   4.607  10.529   3.297 -0.3503  0.0639 -0.4552
  708MOL0     C93347   4.583  10.398   3.368  0.3064 -0.0146 -0.1330
  708MOL0     O93348   4.448  10.358   3.361 -0.0101  1.0028 -0.2417
  708MOL0     C93349   4.432  10.227   3.347  1.1121 -0.6034  0.4547
  708MOL0     C93350   4.460  10.132   3.446  0.2481 -0.2770  0.0005
  708MOL0     C93351   4.419  10.002   3.431  0.3933  0.0543 -0.5413
  708MOL0     C93352   4.363   9.952   3.315  0.3332 -1.0571  0.9703
  708MOL0     C93353   4.352   9.805   3.292 -0.7605  0.8284  0.0816
  708MOL0     O93354   4.331   9.759   3.157  0.0080 -0.0619 -0.1525
  708MOL0     C93355   4.291   9.629   3.141  1.8136 -0.9222  0.5020
  708MOL0     C93356   4.153   9.610   3.112  0.0064  0.1905 -0.6113
  708MOL0     C93357   4.106   9.490   3.062  1.3787  0.0553  0.5310
  708MOL0     C93358   4.198   9.383   3.045 -1.3178 -0.5294  0.2431
  708MOL0     O93359   4.147   9.265   2.996 -0.6117  0.4114  0.6123
  708MOL0     C93360   4.229   9.156   2.947 -0.1462 -0.6515 -0.1546
  708MOL0     C93361   4.281   9.176   2.800 -0.2008 -0.1703  0.2556
  708MOL0     C93362   4.148   9.184   2.717 -0.5537 -0.1435 -0.0117
  708MOL0     C93363   4.168   9.197   2.568 -0.2167  0.3831  0.2753
  708MOL0     C93364   4.146   9.346   2.524  0.9944 -0.0664 -0.0064
  708MOL0     C93365   4.164   9.364   2.374  0.3991  0.4955 -0.5005
  708MOL0     C93366   4.215   9.500   2.331 -0.3093 -0.2949  0.3607
  708MOL0     C93367   4.368   9.528   2.355  0.0488  0.8727 -0.4816
  708MOL0    Cl93368   4.458   9.405   2.260 -0.2895 -0.2523 -0.1040
  708MOL0     C93369   4.336   9.404   3.082  0.0642  0.0089  0.2271
  708MOL0     C93370   4.383   9.531   3.122 -0.0531  0.1248 -0.9134
  708MOL0     O93371   4.353   9.727   3.390  0.5061 -0.0441 -0.6564
  708MOL0     C93372   4.347  10.057   3.212  0.2292 -0.0387  0.4026
  708MOL0     C93373   4.375  10.188   3.231 -0.6323  0.8191  0.5246
  708MOL0     N93374   5.027  10.757   3.144  0.2990  0.2134 -0.5713
  708MOL0     N93375   5.122  10.719   3.063  0.7478 -0.3468 -0.3434
  708MOL0     C93376   6.244  10.362   2.829  0.1044 -0.6030 -0.1486
  708MOL0     C93377   6.388  10.369   2.830  1.0615  0.0895  0.2926
  708MOL0     C93378   6.813  10.553   2.826 -1.4709 -0.5648 -0.6289
  708MOL0     C93379   6.901  10.645   2.767  0.0033  0.4679  0.6970
  708MOL0     C93380   7.039  10.611   2.759 -0.3440  0.3000 -0.1875
  708MOL0     C93381   7.089  10.496   2.819  0.9177 -0.7348 -0.5803
  708MOL0     O93382   7.221  10.481   2.810 -1.2154 -0.9814 -0.4630
  708MOL0     C93383   7.291  10.373   2.873 -0.6123 -0.0422 -0.8500
  708MOL0     C93384   7.438  10.344   2.827  1.0174  0.4913 -0.1161
  708MOL0     C93385   7.506  10.251   2.931 -0.0181  0.4243 -0.3508
  708MOL0     C93386   7.635  10.190   2.860 -0.0036 -0.7053  0.2988
  708MOL0     C93387   7.737  10.304   2.881  0.3468  0.8847  0.3305
  708MOL0     C93388   7.820  10.386   2.911  0.4027 -0.4836 -0.5442
  708MOL0     C93389   7.000  10.419   2.903 -0.7764  0.4948  0.2919
  708MOL0     C93390   6.862  10.452   2.908 -0.0359 -0.0195  0.5646
  708MOL0     H93391   6.418  10.707   2.881 -1.4798 -0.7875  1.9602
  708MOL0     H93392   6.158  10.678   2.874  0.8550  0.9324 -0.5686
  708MOL0     H93393   5.975  10.302   2.746  0.3459 -0.6514  2.1311
  708MOL0     H93394   6.017  10.443   2.651 -0.2969 -0.6973  0.3863
  708MOL0     H93395   5.779  10.344   2.801  1.2946  0.4874  3.7683
  708MOL0     H93396   5.794  10.418   2.639  5.2112 -1.2863 -1.6846
  708MOL0     H93397   5.807  10.636   2.761 -0.5601  0.8584 -1.0687
  708MOL0     H93398   5.781  10.535   2.913  1.7330 -0.2483 -0.5785
  708MOL0     H93399   5.557  10.655   2.806 -2.5951 -1.1022 -1.3260
  708MOL0     H93400   5.603  10.578   2.658 -1.5265 -0.0605 -0.2013
  708MOL0     H93401   5.542  10.402   2.901 -1.1788 -2.2309  0.3701
  708MOL0     H93402   5.541  10.363   2.716 -2.9802  1.6181 -0.8551
  708MOL0     H93403   5.316  10.362   2.779 -1.3286 -0.4093 -1.6040
  708MOL0     H93404   5.337  10.497   2.692  0.3054 -2.6601 -0.8825
  708MOL0     H93405   5.316  10.458   2.995 -1.4148 -0.9645 -0.6575
  708MOL0     H93406   5.362  10.619   2.934  1.7505 -0.8159  0.0189
  708MOL0     H93407   5.101  10.480   2.838 -0.1601  0.0365  1.8173
  708MOL0     H93408   5.157  10.639   2.810  0.9553  1.0270 -0.4914
  708MOL0     H93409   4.876  10.514   2.994  0.8898 -2.3668  0.4211
  708MOL0     H93410   4.717  10.715   3.164  1.0104  1.2505  0.9914
  708MOL0     H93411   4.827  10.730   3.306  0.9185  1.6948 -0.5488
  708MOL0     H93412   4.828  10.499   3.325 -0.5926  3.4958  3.7998
  708MOL0     H93413   4.749  10.466   3.158 -1.1580  0.0358 -0.9676
  708MOL0     H93414   4.584  10.606   3.372 -0.3939  0.1279 -0.5329
  708MOL0     H93415   4.545  10.526   3.206 -2.8344 -1.7647  1.1669
  708MOL0     H93416   4.633  10.413   3.465  1.9714 -0.0057 -0.9515
  708MOL0     H93417   4.646  10.322   3.320  0.6692  1.8851 -2.8846
  708MOL0     H93418   4.507  10.169   3.536 -3.2938  2.9880  0.7297
  708MOL0     H93419   4.446   9.932   3.509  1.8321  2.9097  1.7434
  708MOL0     H93420   4.095   9.701   3.111  2.4548  1.8762 -0.0205
  708MOL0     H93421   3.998   9.494   3.049  1.3788  2.0598  0.7304
  708MOL0     H93422   4.178   9.061   2.964  1.2495 -1.5483 -0.7025
  708MOL0     H93423   4.319   9.139   3.007  0.0579 -1.6032 -0.7047
  708MOL0     H93424   4.342   9.088   2.778 -0.3513 -0.1797 -0.1217
  708MOL0     H93425   4.333   9.272   2.804 -2.3988  1.0774  0.2032
  708MOL0     H93426   4.071   9.253   2.755 -1.2020 -1.0187  0.3057
  708MOL0     H93427   4.087   9.094   2.731 -2.7187  1.2622  0.0367
  708MOL0     H93428   4.275   9.176   2.562  0.1460  2.4060 -3.2390
  708MOL0     H93429   4.097   9.128   2.521  3.0690 -2.5775 -0.7666
  708MOL0     H93430   4.212   9.412   2.583  0.6352 -0.0152  0.3414
  708MOL0     H93431   4.048   9.378   2.561  0.7445 -1.8703  0.9781
  708MOL0     H93432   4.073   9.342   2.317 -0.4088  2.8636 -0.2345
  708MOL0     H93433   4.243   9.292   2.351  0.4713  0.5381 -0.3863
  708MOL0     H93434   4.189   9.510   2.225  0.7783  2.2012  0.2468
  708MOL0     H93435   4.158   9.581   2.378 -2.2917 -0.9427 -0.7922
  708MOL0     H93436   4.394   9.523   2.462  1.2951 -0.3604 -0.8070
  708MOL0     H93437   4.390   9.632   2.329  0.2017  1.6858  2.5214
  708MOL0     H93438   4.412   9.328   3.063 -0.5180 -0.9827  1.7067
  708MOL0     H93439   4.488   9.539   3.148 -0.2361  0.0911 -0.1541
  708MOL0     H93440   4.303  10.020   3.120  1.8645 -2.0151  0.3430
  708MOL0     H93441   4.359  10.257   3.149 -1.0574 -2.1466 -2.0990
  708MOL0     H93442   6.204  10.262   2.813  0.8537 -1.0520  0.7432
  708MOL0     H93443   6.450  10.280   2.841 -2.9413 -2.6664  2.7992
  708MOL0     H93444   6.851  10.729   2.721 -3.7127  0.5203  4.2457
  708MOL0     H93445   7.110  10.683   2.719 -0.7413  0.7721 -0.0552
  708MOL0     H93446   7.230  10.282   2.870 -0.5114 -0.4309  3.2051
  708MOL0     H93447   7.297  10.389   2.981 -0.9508 -3.5666 -0.1665
  708MOL0     H93448   7.432  10.290   2.732  3.4084 -0.8454  0.4310
  708MOL0     H93449   7.488  10.441   2.821 -2.2904  2.2866 -1.4181
  708MOL0     H93450   7.436  10.169   2.948 -0.0278 -0.2360 -3.0419
  708MOL0     H93451   7.536  10.287   3.030 -0.6190 -4.5949  1.9677
  708MOL0     H93452   7.669  10.095   2.901  2.2416 -0.3859 -0.6759
  708MOL0     H93453   7.617  10.170   2.754  0.0246  0.4196  0.0641
  708MOL0     H93454   7.898  10.460   2.914  4.8744 -4.7342 -0.3801
  708MOL0     H93455   7.044  10.333   2.954  0.7409  0.4380 -1.0421
  708MOL0     H93456   6.795  10.389   2.967 -0.1548 -0.7091 -0.2801
  709MOL0     O93457  10.968   1.981   3.067  0.6691  0.0934 -0.8375
  709MOL0     C93458  11.013   1.891   3.008  0.3698 -0.5971  0.4394
  709MOL0     O93459  10.938   1.776   2.980  0.2014 -0.1408 -0.0749
  709MOL0     C93460  10.846   1.717   3.063  0.0015 -0.0977  0.3454
  709MOL0     C93461  10.827   1.745   3.196  0.4137  0.4358  0.3579
  709MOL0     C93462  10.733   1.667   3.264 -1.0034  0.3951  0.1399
  709MOL0     C93463  10.668   1.549   3.204 -0.0362  0.4860 -0.6401
  709MOL0     O93464  10.579   1.467   3.267  0.1341  0.3131 -0.5676
  709MOL0     C93465  10.554   1.469   3.409  0.0764  0.2921 -0.5866
  709MOL0     C93466  10.441   1.377   3.465 -0.9374  0.1779 -0.2434
  709MOL0     C93467  10.419   1.376   3.612  0.3779 -0.4135  0.3095
  709MOL0     C93468  10.377   1.504   3.687  0.5222 -0.8705  0.0049
  709MOL0     C93469  10.319   1.484   3.828  1.0041 -0.8585 -0.2284
  709MOL0     C93470  10.312   1.626   3.904  0.3394  0.3856  0.5043
  709MOL0     C93471  10.222   1.744   3.840 -0.4921  0.3761  0.4027
  709MOL0     C93472  10.068   1.731   3.858 -0.0777 -0.7945 -0.3796
  709MOL0     N93473  10.018   1.822   3.971 -0.0162 -0.1631 -0.7867
  709MOL0     C93474  10.040   1.962   3.983 -0.4985 -0.1060  0.5443
  709MOL0     C93475  10.019   1.992   4.113  0.3900  0.7292 -0.1899
  709MOL0     C93476  10.031   2.128   4.177 -0.3970  0.1539 -0.0287
  709MOL0     C93477   9.920   2.219   4.119 -0.7265  0.4549 -0.2452
  709MOL0     C93478   9.966   2.367   4.142  0.3978  0.1953 -0.0404
  709MOL0     C93479   9.876   2.480   4.093 -0.6113  0.2704 -0.4737
  709MOL0     O93480   9.737   2.462   4.125  0.3412  0.0231  0.2840
  709MOL0     C93481   9.715   2.518   4.249 -0.2589 -0.6102  0.2078
  709MOL0     C93482   9.622   2.438   4.320 -0.6638  0.6170  0.1718
  709MOL0     C93483   9.598   2.464   4.456 -0.0433 -0.6126  1.4561
  709MOL0     C93484   9.649   2.585   4.515 -1.0434  0.9087 -0.4019
  709MOL0     C93485   9.628   2.618   4.660 -0.0058  0.5192 -0.0281
  709MOL0     O93486   9.546   2.535   4.737  0.0526 -0.6005  0.1546
  709MOL0     C93487   9.557   2.543   4.877  0.0614  0.2027  1.2723
  709MOL0     C93488   9.524   2.662   4.952  0.0488  0.4751 -0.2812
  709MOL0     C93489   9.533   2.661   5.091 -0.4976  0.4557 -1.1623
  709MOL0     C93490   9.565   2.536   5.159  1.0280 -0.3556 -0.7349
  709MOL0     O93491   9.577   2.528   5.293  0.7917 -0.0557 -0.1063
  709MOL0     C93492   9.564   2.404   5.362  0.5814 -0.5535  0.0810
  709MOL0     C93493   9.560   2.434   5.515  0.3944  0.4960 -0.3975
  709MOL0     C93494   9.434   2.501   5.560  1.5908 -0.1725  0.1262
  709MOL0     C93495   9.304   2.422   5.530 -0.2861 -0.1426 -0.6127
  709MOL0     C93496   9.299   2.306   5.637  0.4399  0.8957 -0.8138
  709MOL0     C93497   9.202   2.181   5.620  1.1684  0.6047  0.3667
  709MOL0     C93498   9.051   2.226   5.598  0.0662 -0.4082 -0.1561
  709MOL0     C93499   8.995   2.309   5.712  0.0133 -0.4855 -0.1041
  709MOL0    Cl93500   8.822   2.340   5.700  0.2233  0.2921 -0.5448
  709MOL0     C93501   9.600   2.425   5.085  0.6859  0.0671 -0.9607
  709MOL0     C93502   9.593   2.428   4.947  0.4336  0.8594  0.0371
  709MOL0     O93503   9.699   2.715   4.699  0.3386  0.0736  1.0147
  709MOL0     C93504   9.728   2.665   4.435  1.2685  0.1502 -0.3682
  709MOL0     C93505   9.762   2.635   4.303  0.0771  0.7597  0.6234
  709MOL0     N93506   9.990   1.869   4.172 -1.2773  0.0308 -0.2169
  709MOL0     N93507   9.981   1.773   4.095 -0.0039 -0.3958  0.3075
  709MOL0     C93508  10.683   1.529   3.069  0.1601  0.4920  0.0078
  709MOL0     C93509  10.761   1.625   3.005 -0.5223  0.0006  0.3543
  709MOL0     C93510  11.154   1.891   2.969  0.2765 -0.5727  0.5804
  709MOL0     C93511  11.218   2.020   2.963 -0.8499 -0.0764  0.1473
  709MOL0     C93512  11.352   2.030   2.920 -0.0180  0.2457 -0.8643
  709MOL0     C93513  11.415   1.914   2.877 -0.3231 -0.2024  0.2289
  709MOL0     O93514  11.543   1.926   2.818 -0.5160 -0.1395 -0.2422
  709MOL0     C93515  11.644   1.868   2.903  0.2182 -0.6757 -0.1925
  709MOL0     C93516  11.726   1.977   2.966 -0.5817  0.1329 -0.0929
  709MOL0     C93517  11.797   1.939   3.107 -0.8271 -0.4442  0.3385
  709MOL0     C93518  11.861   2.069   3.158 -0.0287  0.4268 -1.4117
  709MOL0     C93519  11.957   2.040   3.269 -0.4404 -0.4410  0.1880
  709MOL0     C93520  12.027   2.019   3.365  0.5785  0.3209 -0.5910
  709MOL0     C93521  11.351   1.787   2.880  0.1286  0.4765 -0.0172
  709MOL0     C93522  11.227   1.772   2.938  0.0504  0.2582  0.4621
  709MOL0     H93523  10.895   1.814   3.245  1.6051 -0.9993  0.8033
  709MOL0     H93524  10.719   1.692   3.369  0.1509 -1.2315  0.7232
  709MOL0     H93525  10.537   1.569   3.449  0.9246 -0.2902  1.3647
  709MOL0     H93526  10.652   1.448   3.454 -0.4626  2.2405  1.6724
  709MOL0     H93527  10.450   1.277   3.422 -1.5021  0.4561 -1.0172
  709MOL0     H93528  10.349   1.421   3.426 -2.8756  0.7285  4.2335
  709MOL0     H93529  10.512   1.336   3.654 -0.9658 -0.6862  3.2710
  709MOL0     H93530  10.340   1.304   3.632 -1.4946  1.2885 -0.6282
  709MOL0     H93531  10.461   1.574   3.684 -0.2529  0.2191  1.8980
  709MOL0     H93532  10.302   1.549   3.621  3.5768 -0.1187 -3.2454
  709MOL0     H93533  10.384   1.414   3.881  1.7394 -0.9690 -1.2604
  709MOL0     H93534  10.225   1.428   3.827  0.0893  0.6271 -0.7551
  709MOL0     H93535  10.413   1.659   3.932 -1.4464  4.3199  3.1380
  709MOL0     H93536  10.270   1.605   4.002 -0.8900  1.1224  0.1533
  709MOL0     H93537  10.258   1.826   3.901  2.4616  0.3463 -1.1475
  709MOL0     H93538  10.248   1.764   3.735 -2.7166  4.4764  0.4125
  709MOL0     H93539  10.053   1.628   3.891  3.4458 -1.8424 -1.5439
  709MOL0     H93540  10.002   1.750   3.773 -1.2227 -1.6697  0.2881
  709MOL0     H93541  10.068   2.037   3.909 -2.0074  1.0810  1.1266
  709MOL0     H93542  10.135   2.156   4.157 -0.4821  1.8444  1.5753
  709MOL0     H93543  10.018   2.121   4.285 -0.2689 -2.9855 -0.1290
  709MOL0     H93544   9.826   2.191   4.168 -1.5620  1.9760 -0.9089
  709MOL0     H93545   9.915   2.208   4.010  1.9994 -1.4179 -0.2797
  709MOL0     H93546   9.966   2.382   4.250  3.7746 -0.6057  0.1547
  709MOL0     H93547  10.067   2.369   4.102  1.2829  0.7136  2.0975
  709MOL0     H93548   9.866   2.466   3.985  1.0580 -0.3681 -0.5688
  709MOL0     H93549   9.919   2.579   4.103 -1.0681  0.6848 -2.3317
  709MOL0     H93550   9.591   2.347   4.272  0.7852  0.9924 -1.6217
  709MOL0     H93551   9.523   2.405   4.508 -0.9921 -0.9761 -0.2346
  709MOL0     H93552   9.482   2.753   4.910  1.5667  0.5074 -1.8426
  709MOL0     H93553   9.517   2.747   5.156  0.1797 -2.3970  3.1854
  709MOL0     H93554   9.657   2.348   5.354  1.0545 -0.5473  3.7725
  709MOL0     H93555   9.484   2.337   5.327 -1.9671  0.3032  3.6642
  709MOL0     H93556   9.639   2.507   5.535 -0.2716  1.5034 -1.2824
  709MOL0     H93557   9.564   2.349   5.584 -0.8332  0.7938  0.0842
  709MOL0     H93558   9.420   2.599   5.514  1.4614 -1.5918 -3.1297
  709MOL0     H93559   9.446   2.530   5.665  1.2500 -1.0647  0.4208
  709MOL0     H93560   9.219   2.491   5.539  1.9920  2.6975  1.0216
  709MOL0     H93561   9.311   2.390   5.426  0.7029 -0.1394 -0.5569
  709MOL0     H93562   9.272   2.344   5.736  3.5001 -1.6873  1.2082
  709MOL0     H93563   9.397   2.262   5.657 -0.6195 -1.1337  0.1915
  709MOL0     H93564   9.205   2.108   5.701  0.3050 -0.4492 -0.5069
  709MOL0     H93565   9.228   2.117   5.535  0.6768 -4.3556  3.5418
  709MOL0     H93566   9.056   2.295   5.513  0.0480  4.4734  3.3766
  709MOL0     H93567   8.977   2.146   5.586 -1.4774  1.1136 -1.4092
  709MOL0     H93568   9.041   2.408   5.718 -3.5328  1.3197  0.0840
  709MOL0     H93569   9.026   2.259   5.804  2.0872 -0.4377 -0.7421
  709MOL0     H93570   9.633   2.330   5.125 -0.2750 -1.9319 -4.4615
  709MOL0     H93571   9.623   2.345   4.883 -3.7991 -0.3580 -0.7082
  709MOL0     H93572   9.755   2.765   4.466 -0.0377 -0.3893  2.9359
  709MOL0     H93573   9.823   2.702   4.244  2.1546 -0.4844  1.2441
  709MOL0     H93574  10.647   1.444   3.013 -0.1434 -0.9836  2.2881
  709MOL0     H93575  10.773   1.631   2.898  0.5972  0.8530  0.5168
  709MOL0     H93576  11.159   2.108   2.988  1.0969  1.2576  0.3040
  709MOL0     H93577  11.393   2.131   2.914 -2.6761  1.4880  0.3403
  709MOL0     H93578  11.706   1.811   2.833 -1.6130 -0.8801 -1.7187
  709MOL0     H93579  11.612   1.798   2.981 -2.1684 -0.7069 -1.1208
  709MOL0     H93580  11.789   2.022   2.889 -1.1097 -0.6468 -0.9900
  709MOL0     H93581  11.649   2.049   2.998  0.1597  1.0030 -0.2268
  709MOL0     H93582  11.873   1.865   3.081  0.4085 -0.1181  2.7023
  709MOL0     H93583  11.734   1.893   3.185  0.6304  0.3212  2.0438
  709MOL0     H93584  11.917   2.125   3.083  2.9070  2.4351  1.9692
  709MOL0     H93585  11.787   2.139   3.198  1.6556  0.7909  1.3373
  709MOL0     H93586  12.087   1.995   3.451  0.8387  2.3328 -0.1393
  709MOL0     H93587  11.404   1.697   2.851 -0.0968 -1.0434  3.8247
  709MOL0     H93588  11.187   1.671   2.944  1.2701 -0.4574 -2.0140
  710MOL0     O93589   2.194   9.668   7.119  0.3660 -0.2873 -0.4676
  710MOL0     C93590   2.183   9.694   7.244  0.2205 -0.3301  0.3347
  710MOL0     O93591   2.288   9.688   7.342  0.3899  0.0554 -0.4272
  710MOL0     C93592   2.398   9.613   7.308  0.7425  0.0629  0.7134
  710MOL0     C93593   2.525   9.668   7.318  0.1552 -0.9158  0.0879
  710MOL0     C93594   2.641   9.592   7.294  0.0763  0.1219 -0.4939
  710MOL0     C93595   2.625   9.445   7.282  0.0032  0.5059 -0.4080
  710MOL0     O93596   2.738   9.370   7.286 -0.7577 -0.2274  0.2761
  710MOL0     C93597   2.729   9.237   7.238 -0.3178  0.0240  0.6635
  710MOL0     C93598   2.852   9.165   7.282 -0.7295  0.0341 -0.6513
  710MOL0     C93599   2.979   9.237   7.231  0.4053 -1.1394  0.1373
  710MOL0     C93600   3.103   9.154   7.260 -0.1755 -0.4116  0.2279
  710MOL0     C93601   3.147   9.153   7.407  0.6150 -0.1713  0.0278
  710MOL0     C93602   3.272   9.066   7.416 -0.3523 -1.2757  0.0548
  710MOL0     C93603   3.396   9.158   7.375  0.0713  0.0807 -0.6974
  710MOL0     C93604   3.431   9.278   7.469  0.2595 -0.3349 -0.0001
  710MOL0     N93605   3.544   9.368   7.428  0.1384  0.3688 -0.2808
  710MOL0     C93606   3.565   9.504   7.466 -0.0846  0.4388  0.0823
  710MOL0     C93607   3.684   9.533   7.407 -0.3892  0.0025 -0.5621
  710MOL0     C93608   3.777   9.655   7.404  0.5216  0.5222  0.9472
  710MOL0     C93609   3.766   9.735   7.540  0.0373 -1.1042  0.7514
  710MOL0     C93610   3.848   9.869   7.525 -0.4683  0.8499  0.8907
  710MOL0     C93611   3.998   9.854   7.504 -0.3843 -0.2979  0.7553
  710MOL0     O93612   4.065   9.800   7.623  0.4715 -1.2438 -0.3281
  710MOL0     C93613   4.086   9.877   7.729  0.3889 -0.2434 -0.5243
  710MOL0     C93614   4.072  10.019   7.747  1.1053 -0.6471 -0.3766
  710MOL0     C93615   4.086  10.080   7.878 -0.5019 -1.0859  1.5272
  710MOL0     C93616   4.152  10.011   7.980 -0.4669 -0.3952 -0.0885
  710MOL0     C93617   4.174  10.083   8.107 -0.0374  0.4709  0.3324
  710MOL0     O93618   4.268  10.027   8.178 -0.5380  0.3802  0.7818
  710MOL0     C93619   4.302  10.058   8.307  0.0408 -0.2755  0.2459
  710MOL0     C93620   4.216  10.103   8.408 -0.9984  0.1659  0.9349
  710MOL0     C93621   4.263  10.149   8.533 -1.0031 -0.3102 -0.5992
  710MOL0     C93622   4.399  10.142   8.559  0.2725 -0.6980 -0.7042
  710MOL0     O93623   4.437  10.177   8.682  0.4581  0.0620  0.1175
  710MOL0     C93624   4.573  10.147   8.728  0.2394 -0.0349 -0.1556
  710MOL0     C93625   4.569  10.190   8.872 -1.1586  0.6763 -0.0293
  710MOL0     C93626   4.700  10.163   8.948  0.3168 -0.3757  1.0893
  710MOL0     C93627   4.751  10.026   8.952  0.4209  1.1551 -0.3524
  710MOL0     C93628   4.864  10.008   9.066  0.0759 -0.3224 -0.1180
  710MOL0     C93629   4.809  10.013   9.202  0.4090  0.8984 -0.1301
  710MOL0     C93630   4.895   9.968   9.324 -1.0102  1.2567  0.2811
  710MOL0     C93631   5.040  10.027   9.348  0.6363  0.3811  0.6764
  710MOL0    Cl93632   5.166   9.938   9.259 -0.3515 -0.6244  0.0687
  710MOL0     C93633   4.490  10.093   8.451  0.2344 -0.5614  0.2886
  710MOL0     C93634   4.443  10.058   8.334 -0.4273  0.9840 -0.3706
  710MOL0     O93635   4.096  10.165   8.139  0.2822  0.0751 -0.9085
  710MOL0     C93636   4.173   9.876   7.961 -0.0963 -0.2080 -0.8066
  710MOL0     C93637   4.145   9.808   7.843 -0.1442 -0.0663  0.6161
  710MOL0     N93638   3.736   9.420   7.348 -0.8230 -0.2174 -0.0719
  710MOL0     N93639   3.652   9.320   7.352  0.3495  0.4720 -0.0843
  710MOL0     C93640   2.498   9.387   7.262  0.3567 -0.3140  0.8210
  710MOL0     C93641   2.384   9.477   7.269 -0.4468 -0.3212  0.2648
  710MOL0     C93642   2.058   9.763   7.282  0.0297  0.5595  0.5966
  710MOL0     C93643   2.028   9.777   7.416 -0.3630  0.3326  0.0410
  710MOL0     C93644   1.916   9.850   7.460  0.8146 -0.6395  0.4919
  710MOL0     C93645   1.822   9.903   7.366 -0.6164  0.7771 -0.3816
  710MOL0     O93646   1.698   9.950   7.411  0.6875 -0.2399 -0.3039
  710MOL0     C93647   1.664   9.974   7.544  1.1020 -0.6224  0.4665
  710MOL0     C93648   1.719  10.110   7.588 -1.1448 -0.7203  0.0914
  710MOL0     C93649   1.670  10.152   7.724  0.4051  0.8032  0.2806
  710MOL0     C93650   1.742  10.124   7.857  0.3345 -0.4230 -0.6291
  710MOL0     C93651   1.792   9.991   7.871 -0.3941  0.3512 -1.0666
  710MOL0     C93652   1.844   9.883   7.886  0.6547  0.2855  0.2898
  710MOL0     C93653   1.843   9.874   7.232 -0.5998  0.6049 -0.3229
  710MOL0     C93654   1.961   9.805   7.189 -0.5065 -0.3342 -0.0443
  710MOL0     H93655   2.550   9.771   7.343  0.0530 -0.5175 -1.3703
  710MOL0     H93656   2.743   9.629   7.300  0.8462 -1.7425 -1.3240
  710MOL0     H93657   2.731   9.236   7.128  1.8814  0.8957  0.6546
  710MOL0     H93658   2.645   9.186   7.286 -0.3479 -1.1294 -0.5422
  710MOL0     H93659   2.849   9.060   7.252  0.9480  0.3055 -1.9049
  710MOL0     H93660   2.852   9.168   7.392  0.9605  0.8720 -0.6473
  710MOL0     H93661   2.983   9.340   7.267 -2.6248 -0.9768  0.2456
  710MOL0     H93662   2.961   9.249   7.124 -1.9960  1.9323  0.7645
  710MOL0     H93663   3.064   9.055   7.236  0.4818 -0.6844  0.2543
  710MOL0     H93664   3.179   9.175   7.183 -2.1750 -0.2293 -1.8148
  710MOL0     H93665   3.084   9.095   7.475 -0.1579 -0.7226 -1.1252
  710MOL0     H93666   3.165   9.254   7.446  2.8112 -1.0558  1.4943
  710MOL0     H93667   3.266   8.988   7.340  1.0085 -1.5816  0.2410
  710MOL0     H93668   3.284   9.010   7.509  1.7945 -2.3859 -0.8356
  710MOL0     H93669   3.473   9.082   7.358 -1.3275 -1.2041 -1.6634
  710MOL0     H93670   3.393   9.216   7.282  0.7315  0.7286 -0.3148
  710MOL0     H93671   3.457   9.242   7.569 -2.1151  2.4426  1.7719
  710MOL0     H93672   3.344   9.342   7.486  1.5951  1.3589  0.8057
  710MOL0     H93673   3.496   9.563   7.525 -0.1208  1.1415 -0.6530
  710MOL0     H93674   3.744   9.704   7.312  1.1081 -0.0453  0.4308
  710MOL0     H93675   3.875   9.607   7.397  0.7121  1.1210 -2.0213
  710MOL0     H93676   3.803   9.676   7.625 -1.8543  2.6532  4.5356
  710MOL0     H93677   3.660   9.759   7.549  0.4390  1.1150  0.1552
  710MOL0     H93678   3.811   9.926   7.440  0.9338  1.0471  0.3890
  710MOL0     H93679   3.843   9.932   7.615  2.6187  1.3044  0.8406
  710MOL0     H93680   4.049   9.947   7.475 -0.3906 -0.7186 -0.6885
  710MOL0     H93681   4.028   9.789   7.421  3.1938  0.7838  1.0352
  710MOL0     H93682   4.028  10.059   7.656  0.8767 -1.5173 -0.6578
  710MOL0     H93683   4.067  10.185   7.896  0.5316 -0.6604  0.3608
  710MOL0     H93684   4.109  10.116   8.400 -1.5397 -3.4852  0.7447
  710MOL0     H93685   4.189  10.190   8.602 -0.4018  1.4296 -0.9309
  710MOL0     H93686   4.649  10.206   8.676 -1.4300  1.3340 -1.1503
  710MOL0     H93687   4.587  10.041   8.707 -1.0120 -0.3840  0.7174
  710MOL0     H93688   4.496  10.127   8.923 -0.7358  0.7092  0.6336
  710MOL0     H93689   4.551  10.298   8.871  1.2442  1.1383  0.1423
  710MOL0     H93690   4.682  10.195   9.052  0.8235  0.1634  1.0191
  710MOL0     H93691   4.782  10.226   8.912 -1.0361  0.9415  0.2250
  710MOL0     H93692   4.672   9.954   8.979  1.9859 -1.0110 -1.2448
  710MOL0     H93693   4.812  10.006   8.864  3.8451  2.7844  1.4758
  710MOL0     H93694   4.950  10.072   9.047 -1.1759  2.1431  1.9813
  710MOL0     H93695   4.898   9.904   9.059 -0.4713 -0.7007  1.9572
  710MOL0     H93696   4.729   9.938   9.206 -0.4578  1.8102  0.1828
  710MOL0     H93697   4.780  10.118   9.218  0.3740  0.9446 -0.4948
  710MOL0     H93698   4.835  10.002   9.409 -0.1695  1.0691  0.9592
  710MOL0     H93699   4.907   9.860   9.329  0.0819  1.1812 -2.3771
  710MOL0     H93700   5.083  10.032   9.448  0.8939 -0.5143  0.6234
  710MOL0     H93701   5.037  10.131   9.314  0.4664  0.2449  0.2661
  710MOL0     H93702   4.598  10.097   8.448  0.1808  0.7299 -1.0643
  710MOL0     H93703   4.503  10.037   8.246 -0.1844  1.5669 -0.3538
  710MOL0     H93704   4.222   9.820   8.040  0.8576 -0.0524 -1.2827
  710MOL0     H93705   4.168   9.702   7.838  0.5761  0.1337 -0.5561
  710MOL0     H93706   2.471   9.283   7.245 -0.8062  0.1325 -0.2451
  710MOL0     H93707   2.288   9.428   7.261 -0.6225 -0.0846  0.8465
  710MOL0     H93708   2.080   9.717   7.490 -4.6585 -0.4437  2.7560
  710MOL0     H93709   1.902   9.864   7.567  4.4346  0.3474  0.9899
  710MOL0     H93710   1.702   9.897   7.612  2.5985 -0.2443  0.0948
  710MOL0     H93711   1.555   9.976   7.551  1.1389 -0.4246  1.0577
  710MOL0     H93712   1.827  10.102   7.580 -0.7914  1.1551  2.1110
  710MOL0     H93713   1.690  10.189   7.519 -0.7500  0.5561  1.3420
  710MOL0     H93714   1.570  10.110   7.734  0.7976  0.1742  1.7823
  710MOL0     H93715   1.668  10.262   7.727 -1.4634  0.7876  3.5592
  710MOL0     H93716   1.820  10.201   7.852 -0.5264  0.4526 -0.8274
  710MOL0     H93717   1.677  10.129   7.945  1.9946  0.2589  0.6106
  710MOL0     H93718   1.886   9.785   7.894 -1.3760 -0.9677 -2.6343
  710MOL0     H93719   1.754   9.891   7.172 -1.5599  3.2659  1.6219
  710MOL0     H93720   1.970   9.782   7.083  2.8521 -1.1542  0.3232
  711MOL0     O93721  10.858   0.066   8.453  0.5367 -0.0481 -0.3640
  711MOL0     C93722  10.859   0.181   8.496 -0.8314 -0.1484  0.0270
  711MOL0     O93723  10.966   0.240   8.539 -0.1015 -0.4157 -0.0294
  711MOL0     C93724  11.091   0.177   8.557 -0.1433 -0.2570  0.3731
  711MOL0     C93725  11.144   0.124   8.674 -0.2262  0.0834 -0.4777
  711MOL0     C93726  11.267   0.048   8.669 -0.5068  0.1114 -0.7616
  711MOL0     C93727  11.349   0.055   8.557  0.6267  1.0377  0.1118
  711MOL0     O93728  11.462  -0.021   8.559  0.1022 -0.0187 -0.6753
  711MOL0     C93729  11.576   0.050   8.502  0.8629  0.8001 -0.0533
  711MOL0     C93730  11.713   0.004   8.552  1.1044  0.0654  0.8713
  711MOL0     C93731  11.817   0.110   8.545 -0.6399 -0.8100  0.0704
  711MOL0     C93732  11.958   0.057   8.602  1.4452  0.1372  0.6510
  711MOL0     C93733  12.059   0.168   8.578 -0.4332  1.1252 -0.2846
  711MOL0     C93734  12.203   0.116   8.604  1.1526  0.5580  0.2594
  711MOL0     C93735  12.220   0.070   8.746 -0.2534  0.4632  1.2414
  711MOL0     C93736  12.372   0.090   8.775 -1.4996 -0.6690  0.5909
  711MOL0     N93737  12.430   0.008   8.879 -0.4233  0.4168 -0.1249
  711MOL0     C93738  12.409  -0.132   8.902 -1.1572 -0.3597 -0.0530
  711MOL0     C93739  12.490  -0.175   8.994 -0.8856  0.8491  0.0938
  711MOL0     C93740  12.480  -0.309   9.048 -0.2302 -0.0283  0.6533
  711MOL0     C93741  12.414  -0.318   9.188 -0.1625 -0.1436 -0.7756
  711MOL0     C93742  12.280  -0.247   9.194  0.5638 -1.0244 -0.0449
  711MOL0     C93743  12.278  -0.092   9.222 -1.0742  0.0260  0.3523
  711MOL0     O93744  12.158  -0.071   9.292  0.2395  0.4412 -1.0223
  711MOL0     C93745  12.039  -0.091   9.232 -0.0443  0.5167  0.2030
  711MOL0     C93746  11.926  -0.101   9.307 -1.0700 -0.5551  1.0544
  711MOL0     C93747  11.812  -0.156   9.248 -0.3228 -0.6533 -0.3126
  711MOL0     C93748  11.797  -0.176   9.108 -0.2770  0.4303 -0.2486
  711MOL0     C93749  11.680  -0.242   9.048  0.1630 -0.3958  0.5764
  711MOL0     O93750  11.661  -0.238   8.907  0.0588 -0.3341  0.1112
  711MOL0     C93751  11.531  -0.273   8.853  0.5932 -0.6939 -0.5145
  711MOL0     C93752  11.532  -0.301   8.714 -0.7592  0.1603 -0.6606
  711MOL0     C93753  11.418  -0.337   8.646  0.0385 -0.4939 -0.2052
  711MOL0     C93754  11.295  -0.362   8.711  0.7204  0.2472  0.5620
  711MOL0     O93755  11.183  -0.411   8.645 -0.2754  0.2137  0.8141
  711MOL0     C93756  11.127  -0.326   8.543  0.8534 -0.2753  0.0589
  711MOL0     C93757  11.014  -0.244   8.608  2.0319  0.5765 -0.1385
  711MOL0     C93758  10.890  -0.337   8.638 -0.0323  0.4415 -0.8117
  711MOL0     C93759  10.821  -0.407   8.518 -0.3040 -0.1577 -0.5200
  711MOL0     C93760  10.669  -0.417   8.545  0.1115 -0.7390  0.0202
  711MOL0     C93761  10.597  -0.452   8.414  0.1201  1.0041 -0.0285
  711MOL0     C93762  10.622  -0.591   8.368 -0.8613 -0.2746 -0.3136
  711MOL0     C93763  10.495  -0.651   8.300  0.2521  0.4390  0.0964
  711MOL0    Cl93764  10.448  -0.538   8.164 -0.0813  0.4269  0.1083
  711MOL0     C93765  11.289  -0.333   8.843 -0.2010 -0.1270 -0.4138
  711MOL0     C93766  11.404  -0.291   8.912  0.0863 -0.3477  0.6080
  711MOL0     O93767  11.613  -0.305   9.128 -0.9357 -0.6702  0.3082
  711MOL0     C93768  11.909  -0.144   9.024 -0.2485 -0.4392  0.7501
  711MOL0     C93769  12.025  -0.107   9.090 -0.4653 -0.3225  0.0252
  711MOL0     N93770  12.558  -0.063   9.041  0.5223 -0.2305 -0.3759
  711MOL0     N93771  12.523   0.037   8.969  0.1294 -0.0850  0.1418
  711MOL0     C93772  11.312   0.132   8.449  0.4275 -0.4630 -0.4069
  711MOL0     C93773  11.185   0.188   8.448 -0.2619 -0.0869  0.2675
  711MOL0     C93774  10.736   0.272   8.481  0.4321  0.3999  1.4378
  711MOL0     C93775  10.637   0.247   8.377  0.3029  0.1255 -0.6105
  711MOL0     C93776  10.522   0.330   8.366 -0.8397 -0.2586  0.5907
  711MOL0     C93777  10.508   0.441   8.443 -0.9312  0.6997 -0.5478
  711MOL0     O93778  10.411   0.540   8.415 -0.3277  1.0505 -0.7129
  711MOL0     C93779  10.325   0.518   8.308 -0.4199 -0.3025 -1.0375
  711MOL0     C93780  10.248   0.651   8.287 -0.4173  0.0246  0.0694
  711MOL0     C93781  10.155   0.638   8.165  0.5205 -0.1560 -0.6169
  711MOL0     C93782  10.227   0.661   8.025 -0.3768 -0.0781 -0.2500
  711MOL0     C93783  10.288   0.537   7.975 -0.6476  0.1848 -0.7074
  711MOL0     C93784  10.332   0.424   7.954 -0.1692  0.1942 -0.3617
  711MOL0     C93785  10.604   0.465   8.542 -0.3205 -0.2716 -0.5731
  711MOL0     C93786  10.712   0.382   8.561  0.1736  0.5364 -0.0434
  711MOL0     H93787  11.074   0.131   8.756 -1.7549  1.0110 -1.7954
  711MOL0     H93788  11.303  -0.006   8.756  1.0351 -1.8066 -2.4755
  711MOL0     H93789  11.561   0.155   8.529 -0.4730  0.9407 -1.2361
  711MOL0     H93790  11.561   0.039   8.394  1.9113  0.0898 -0.1365
  711MOL0     H93791  11.737  -0.077   8.483 -0.9697 -2.0180  2.4367
  711MOL0     H93792  11.711  -0.031   8.655 -0.4909  0.3623  0.9762
  711MOL0     H93793  11.789   0.200   8.600  1.3101 -1.2300  1.8912
  711MOL0     H93794  11.821   0.140   8.440 -0.9922 -1.7266 -0.2170
  711MOL0     H93795  11.959   0.026   8.707  0.0521  0.2000  0.7004
  711MOL0     H93796  11.988  -0.036   8.553 -4.7767 -2.0223  0.0204
  711MOL0     H93797  12.050   0.253   8.646  0.7661 -1.3007  3.1860
  711MOL0     H93798  12.051   0.217   8.481 -0.3708 -0.5454 -1.1636
  711MOL0     H93799  12.266   0.202   8.580  0.1256  0.6312 -2.6513
  711MOL0     H93800  12.226   0.041   8.527 -3.7675  0.5360 -1.5327
  711MOL0     H93801  12.173   0.144   8.812  1.5297  3.1027 -0.2379
  711MOL0     H93802  12.187  -0.032   8.766  1.0341  0.2751  2.5200
  711MOL0     H93803  12.394   0.197   8.789 -0.2660 -1.1276  2.5172
  711MOL0     H93804  12.429   0.057   8.687  0.1272 -0.3878  1.4923
  711MOL0     H93805  12.342  -0.200   8.851 -1.6747 -2.6982  3.3705
  711MOL0     H93806  12.584  -0.332   9.071 -0.2159  0.2263  0.8445
  711MOL0     H93807  12.436  -0.387   8.985  0.5460 -2.0913  2.5682
  711MOL0     H93808  12.493  -0.267   9.244  0.9834 -2.4701 -0.1971
  711MOL0     H93809  12.418  -0.421   9.223  1.4943 -0.0847 -0.7247
  711MOL0     H93810  12.219  -0.261   9.104  2.7371  3.1820 -2.5167
  711MOL0     H93811  12.231  -0.299   9.277 -1.7774  2.6606  1.1214
  711MOL0     H93812  12.272  -0.027   9.135 -1.9039  0.7659  0.9361
  711MOL0     H93813  12.360  -0.067   9.290  0.9681 -0.7788 -1.7214
  711MOL0     H93814  11.931  -0.093   9.415 -2.8531  0.1868  1.1072
  711MOL0     H93815  11.733  -0.171   9.320  1.2671 -1.5665  1.3279
  711MOL0     H93816  11.625  -0.288   8.659 -0.1805  0.6110  0.3884
  711MOL0     H93817  11.421  -0.359   8.540  1.1324 -1.3915 -0.0005
  711MOL0     H93818  11.073  -0.375   8.461 -0.1651  1.4949 -0.3747
  711MOL0     H93819  11.199  -0.255   8.500 -3.0077  3.0458 -1.5261
  711MOL0     H93820  10.979  -0.161   8.545 -1.3251 -1.7313 -1.5888
  711MOL0     H93821  11.055  -0.192   8.695  0.1642  0.7049  0.6996
  711MOL0     H93822  10.826  -0.268   8.694 -1.0220  0.0981 -1.4792
  711MOL0     H93823  10.926  -0.414   8.706  1.6020  2.0984  0.2752
  711MOL0     H93824  10.845  -0.347   8.430 -0.2528  1.2964  0.4436
  711MOL0     H93825  10.876  -0.500   8.505  2.6855  1.4384 -0.1088
  711MOL0     H93826  10.626  -0.324   8.585 -1.1331 -1.2647 -0.0365
  711MOL0     H93827  10.656  -0.488   8.627  3.7096 -0.7455  0.7144
  711MOL0     H93828  10.627  -0.373   8.345  2.4810  0.3447  0.1526
  711MOL0     H93829  10.490  -0.439   8.433 -0.2157 -3.6774  3.0751
  711MOL0     H93830  10.714  -0.591   8.309  2.0016  2.3673  3.6022
  711MOL0     H93831  10.651  -0.655   8.452  1.0305 -0.0630 -0.7505
  711MOL0     H93832  10.410  -0.666   8.368  1.5077 -3.2715  1.1088
  711MOL0     H93833  10.518  -0.753   8.268  0.9327  0.7462 -0.4146
  711MOL0     H93834  11.192  -0.326   8.891 -0.0275  2.8993 -0.3300
  711MOL0     H93835  11.398  -0.242   9.009  0.8759  0.3548  0.3095
  711MOL0     H93836  11.909  -0.143   8.916  0.6106  3.8169  0.5892
  711MOL0     H93837  12.104  -0.088   9.017  0.1861  2.0705  1.2534
  711MOL0     H93838  11.380   0.159   8.370  0.3955  4.5676  0.9084
  711MOL0     H93839  11.147   0.250   8.368 -0.4530 -1.1408 -0.4765
  711MOL0     H93840  10.654   0.172   8.300  1.5591 -1.3178  1.0052
  711MOL0     H93841  10.460   0.300   8.282 -0.5786  0.0468  0.2850
  711MOL0     H93842  10.247   0.444   8.329 -3.5033  2.1525 -2.7974
  711MOL0     H93843  10.382   0.503   8.216 -2.8855  1.7845 -3.0628
  711MOL0     H93844  10.181   0.674   8.371 -3.6938 -0.1506 -2.3152
  711MOL0     H93845  10.309   0.742   8.286 -3.3988  2.2024  1.5737
  711MOL0     H93846  10.079   0.712   8.188  1.7029  1.0173 -0.3622
  711MOL0     H93847  10.108   0.539   8.165 -0.7424  0.4027 -1.9138
  711MOL0     H93848  10.149   0.686   7.953 -1.4699 -1.5134  0.3805
  711MOL0     H93849  10.307   0.735   8.038 -0.5130  0.1268 -0.5667
  711MOL0     H93850  10.348   0.320   7.975 -2.5234  0.2386  2.2061
  711MOL0     H93851  10.603   0.558   8.599  2.2121 -1.8769  2.4244
  711MOL0     H93852  10.795   0.397   8.629 -0.2512  1.1041  0.3620
  712MOL0     O93853   9.870   0.697   2.012 -0.6608  0.1803 -0.4304
  712MOL0     C93854   9.971   0.676   1.941  0.0060  0.2033  0.1233
  712MOL0     O93855   9.985   0.570   1.860 -0.1863 -0.2031 -1.2546
  712MOL0     C93856   9.880   0.477   1.830 -0.4530 -1.0206  0.0738
  712MOL0     C93857   9.764   0.514   1.767 -0.2643  0.3796  0.3291
  712MOL0     C93858   9.666   0.423   1.731 -0.5204 -0.6282  0.6781
  712MOL0     C93859   9.684   0.285   1.755  0.4905  0.3153 -0.5358
  712MOL0     O93860   9.584   0.199   1.705  0.2264 -0.1663  0.1769
  712MOL0     C93861   9.607   0.060   1.684  0.4856  0.5821 -0.1993
  712MOL0     C93862   9.473  -0.010   1.661  0.5887  0.8452 -0.1970
  712MOL0     C93863   9.462  -0.168   1.680 -0.6489  0.5153 -0.8910
  712MOL0     C93864   9.522  -0.250   1.570  0.9941 -0.9446  0.0769
  712MOL0     C93865   9.495  -0.394   1.599 -0.3724  0.3816  0.5626
  712MOL0     C93866   9.576  -0.493   1.504  0.3087 -0.8962 -0.5693
  712MOL0     C93867   9.526  -0.630   1.502  0.1188  0.9497 -0.5760
  712MOL0     C93868   9.570  -0.711   1.624  0.3804  0.3440  0.0468
  712MOL0     N93869   9.714  -0.722   1.619 -1.1723 -0.1596  0.4460
  712MOL0     C93870   9.815  -0.688   1.710 -1.7815  0.1877 -0.6959
  712MOL0     C93871   9.929  -0.727   1.650 -0.5893  0.7858 -0.2084
  712MOL0     C93872  10.064  -0.736   1.713  0.6665  0.5562  1.4133
  712MOL0     C93873  10.175  -0.792   1.621 -0.4615  0.6451 -0.1710
  712MOL0     C93874  10.207  -0.705   1.506 -0.0995 -0.1817  0.6412
  712MOL0     C93875  10.300  -0.769   1.405  0.6642  0.0102 -0.3739
  712MOL0     O93876  10.425  -0.792   1.478 -0.2655  0.3052 -0.7579
  712MOL0     C93877  10.535  -0.845   1.429 -0.6598  1.3259  0.5295
  712MOL0     C93878  10.633  -0.886   1.511 -0.3498  0.2799  0.6534
  712MOL0     C93879  10.759  -0.930   1.465  0.4509 -0.3773 -0.1973
  712MOL0     C93880  10.787  -0.942   1.337 -0.7134 -0.4108 -0.4779
  712MOL0     C93881  10.914  -0.983   1.286  1.3966 -0.2952 -0.5724
  712MOL0     O93882  11.016  -0.990   1.378  0.0421  0.2086  0.2926
  712MOL0     C93883  11.141  -1.038   1.342  0.1157  0.2438  0.8403
  712MOL0     C93884  11.202  -1.016   1.219 -0.5466  0.2479  0.7810
  712MOL0     C93885  11.325  -1.073   1.175  0.2636 -0.7753 -0.8436
  712MOL0     C93886  11.386  -1.165   1.266  0.5033 -0.7301  0.2576
  712MOL0     O93887  11.474  -1.248   1.209 -0.0360  0.4720  0.7370
  712MOL0     C93888  11.528  -1.369   1.274 -0.0006  0.6229 -0.4413
  712MOL0     C93889  11.678  -1.354   1.305  0.2166 -0.7934  0.3872
  712MOL0     C93890  11.742  -1.468   1.396 -0.2980 -0.0501 -0.8460
  712MOL0     C93891  11.862  -1.420   1.475  1.0321 -0.0989  0.1575
  712MOL0     C93892  11.832  -1.318   1.586  0.2777 -0.2686  0.7926
  712MOL0     C93893  11.950  -1.300   1.676 -0.3918  0.3058  0.2277
  712MOL0     C93894  11.941  -1.160   1.742  0.6066 -0.1483 -0.0938
  712MOL0     C93895  12.065  -1.111   1.810 -0.1911  0.4333 -0.5852
  712MOL0    Cl93896  12.157  -1.005   1.705 -0.0700  0.4086 -0.1028
  712MOL0     C93897  11.337  -1.172   1.396  0.0664 -0.2222 -0.4459
  712MOL0     C93898  11.214  -1.117   1.435  1.0439 -0.3136  0.3806
  712MOL0     O93899  10.917  -1.024   1.175  0.2416  0.1457  0.1940
  712MOL0     C93900  10.684  -0.904   1.252  0.9628 -0.1030  0.5963
  712MOL0     C93901  10.561  -0.858   1.293  0.6015 -0.2791 -0.7367
  712MOL0     N93902   9.893  -0.790   1.537 -0.2988 -0.6497 -0.6071
  712MOL0     N93903   9.768  -0.792   1.515  0.3002  0.3538  0.7178
  712MOL0     C93904   9.807   0.241   1.819 -0.0672 -0.4193  0.6606
  712MOL0     C93905   9.897   0.341   1.864  0.0139 -0.6484 -0.2870
  712MOL0     C93906  10.082   0.771   1.964 -0.3778  0.0653  0.6387
  712MOL0     C93907  10.205   0.765   1.904  0.4087  0.3317  0.1011
  712MOL0     C93908  10.293   0.867   1.900  0.3784  0.3684  0.1128
  712MOL0     C93909  10.273   0.993   1.956  0.2763 -0.0402 -0.5125
  712MOL0     O93910  10.352   1.102   1.943  0.1953  0.6395 -0.8023
  712MOL0     C93911  10.499   1.090   1.948  0.9645 -0.2679  1.0186
  712MOL0     C93912  10.549   1.148   2.078 -0.1255 -0.1360  1.4868
  712MOL0     C93913  10.554   1.300   2.086 -0.5586  0.3015 -0.5213
  712MOL0     C93914  10.441   1.388   2.029  0.5395  0.3961 -0.0845
  712MOL0     C93915  10.482   1.526   2.060 -0.9140 -0.9177 -0.1745
  712MOL0     C93916  10.518   1.638   2.084 -1.5212  0.1267  0.6353
  712MOL0     C93917  10.146   1.005   2.018 -0.5244 -0.3257 -0.1292
  712MOL0     C93918  10.062   0.891   2.023 -0.9432  0.6105  0.4277
  712MOL0     H93919   9.752   0.614   1.726 -2.7560  1.1168  2.5123
  712MOL0     H93920   9.577   0.445   1.673 -0.0308 -2.5183 -0.9005
  712MOL0     H93921   9.654   0.021   1.775  0.2557  1.1343  0.1602
  712MOL0     H93922   9.670   0.043   1.597  0.3451 -2.5102  0.1904
  712MOL0     H93923   9.428   0.028   1.569 -4.6608  0.3670  1.8016
  712MOL0     H93924   9.405   0.015   1.743  0.1326 -3.5755  1.0589
  712MOL0     H93925   9.357  -0.198   1.689 -0.6037  0.4268 -0.6494
  712MOL0     H93926   9.510  -0.197   1.774 -1.6038  3.6999  0.7193
  712MOL0     H93927   9.466  -0.223   1.481 -0.5959 -3.8813  0.0808
  712MOL0     H93928   9.631  -0.236   1.564  0.8908  0.2693  0.7669
  712MOL0     H93929   9.387  -0.403   1.588 -0.0164 -1.4792 -2.5356
  712MOL0     H93930   9.532  -0.427   1.697 -2.0891 -0.8526  0.8374
  712MOL0     H93931   9.685  -0.490   1.521  0.4355  1.1400 -1.4574
  712MOL0     H93932   9.555  -0.462   1.402 -3.7950 -0.4956  0.2458
  712MOL0     H93933   9.418  -0.634   1.487 -0.0846 -1.6888  1.0098
  712MOL0     H93934   9.569  -0.682   1.416 -4.2706 -0.1221 -2.4136
  712MOL0     H93935   9.524  -0.810   1.626  1.4360 -0.2458 -1.7310
  712MOL0     H93936   9.537  -0.663   1.716  0.6464 -1.5108  1.1606
  712MOL0     H93937   9.794  -0.663   1.814 -1.0889 -1.5369 -0.0913
  712MOL0     H93938  10.057  -0.800   1.801 -1.4115 -3.9196 -1.6446
  712MOL0     H93939  10.100  -0.637   1.743 -0.4694  1.1108  0.9913
  712MOL0     H93940  10.141  -0.886   1.575 -1.5198  1.1164 -0.3807
  712MOL0     H93941  10.256  -0.813   1.692 -0.7611  0.3108  0.0755
  712MOL0     H93942  10.112  -0.676   1.459  1.1063 -1.2504 -2.7831
  712MOL0     H93943  10.259  -0.613   1.535  0.7828 -0.7728  0.9889
  712MOL0     H93944  10.312  -0.702   1.319 -2.2199  0.1957 -0.7438
  712MOL0     H93945  10.264  -0.864   1.365  0.7212 -0.6249  1.0366
  712MOL0     H93946  10.612  -0.876   1.618  0.4925 -0.2108  0.8732
  712MOL0     H93947  10.833  -0.964   1.537  2.0217  3.3188  0.1538
  712MOL0     H93948  11.156  -0.943   1.153 -3.2528 -0.4391  1.7792
  712MOL0     H93949  11.361  -1.038   1.078 -3.2507  2.1049 -1.3375
  712MOL0     H93950  11.515  -1.447   1.199  2.5170 -1.4993  1.1430
  712MOL0     H93951  11.470  -1.401   1.361  0.5536  2.6002  0.7186
  712MOL0     H93952  11.680  -1.259   1.359  2.2667 -1.8412  2.3858
  712MOL0     H93953  11.733  -1.346   1.211 -0.8267 -1.1105 -0.2654
  712MOL0     H93954  11.750  -1.563   1.342  0.0426  0.6691 -2.0967
  712MOL0     H93955  11.667  -1.479   1.474  2.1240  2.0544  1.9866
  712MOL0     H93956  11.911  -1.509   1.517  2.9729  0.1775 -1.3858
  712MOL0     H93957  11.941  -1.389   1.406  0.4971 -0.4872 -0.6451
  712MOL0     H93958  11.743  -1.358   1.636 -0.9129 -2.1546 -2.5141
  712MOL0     H93959  11.801  -1.228   1.533 -0.1171 -1.6208 -1.4371
  712MOL0     H93960  12.048  -1.318   1.631 -0.4035 -0.5131  0.5198
  712MOL0     H93961  11.941  -1.379   1.751 -0.1117  1.6350  1.7247
  712MOL0     H93962  11.894  -1.082   1.682 -2.4804 -1.7073  0.0936
  712MOL0     H93963  11.867  -1.174   1.821 -1.5920  0.8384 -1.8522
  712MOL0     H93964  12.123  -1.197   1.844  4.0875  2.4877 -2.0070
  712MOL0     H93965  12.039  -1.049   1.896 -0.9510 -0.5667 -0.0651
  712MOL0     H93966  11.386  -1.240   1.465  0.0118 -1.0891 -1.2263
  712MOL0     H93967  11.174  -1.117   1.536 -1.0517  0.3479 -0.4145
  712MOL0     H93968  10.709  -0.919   1.147 -0.7435  3.4173 -0.4567
  712MOL0     H93969  10.478  -0.830   1.228 -0.5469  0.4167  0.9719
  712MOL0     H93970   9.839   0.138   1.828 -0.9554 -0.8933 -1.2146
  712MOL0     H93971   9.988   0.307   1.913  1.1853  0.6014 -1.5021
  712MOL0     H93972  10.227   0.677   1.844  5.4582  2.3061 -1.5048
  712MOL0     H93973  10.384   0.850   1.843 -0.4175  1.8584 -1.6956
  712MOL0     H93974  10.543   1.143   1.864  2.2632 -0.4755  1.5449
  712MOL0     H93975  10.527   0.985   1.938 -0.8025 -0.6552 -0.3259
  712MOL0     H93976  10.503   1.099   2.164  0.2620 -1.3436  1.0322
  712MOL0     H93977  10.647   1.104   2.096  0.2315  0.4049  0.8868
  712MOL0     H93978  10.642   1.325   2.025 -0.6124 -0.5717 -0.9687
  712MOL0     H93979  10.576   1.326   2.190  0.7003  0.8592 -0.9013
  712MOL0     H93980  10.439   1.365   1.922  1.9027  1.6426 -0.4168
  712MOL0     H93981  10.348   1.357   2.077  0.0571  3.3950  1.1097
  712MOL0     H93982  10.568   1.730   2.108  1.3551 -1.1715  0.0810
  712MOL0     H93983  10.093   1.095   2.047 -1.8771 -0.9763 -0.4722
  712MOL0     H93984   9.965   0.910   2.068 -0.0583  2.1062  1.8077
  713MOL0     O93985   0.221   9.616   7.607  0.5261  0.0430  0.2870
  713MOL0     C93986   0.306   9.678   7.675 -0.1459  0.7204  0.9395
  713MOL0     O93987   0.424   9.627   7.721  0.3523 -0.9790 -0.0231
  713MOL0     C93988   0.465   9.502   7.714  0.7499  1.0988 -0.1115
  713MOL0     C93989   0.580   9.489   7.791  0.2135 -0.0364  0.5177
  713MOL0     C93990   0.627   9.363   7.819 -0.1605  0.1257  1.1958
  713MOL0     C93991   0.551   9.250   7.777 -0.4438  0.5561 -0.3156
  713MOL0     O93992   0.597   9.132   7.835  0.0809  0.6143 -1.0423
  713MOL0     C93993   0.576   9.003   7.772 -0.5879 -0.0790 -0.3589
  713MOL0     C93994   0.690   8.910   7.825  0.9411 -0.2676 -0.8878
  713MOL0     C93995   0.835   8.946   7.780 -0.7625  0.2005 -0.2317
  713MOL0     C93996   0.843   8.952   7.621  0.3582 -0.0891  0.3097
  713MOL0     C93997   0.979   8.901   7.565 -0.2004  0.2898 -0.8911
  713MOL0     C93998   1.007   8.751   7.585 -0.6485 -0.5813 -0.2229
  713MOL0     C93999   1.157   8.711   7.582  0.4824  0.8418  0.9792
  713MOL0     C94000   1.192   8.564   7.611  1.0618 -0.0721 -0.8034
  713MOL0     N94001   1.138   8.530   7.742  0.2928  0.5100  0.8673
  713MOL0     C94002   1.203   8.568   7.855  0.1243  1.0857  0.4143
  713MOL0     C94003   1.110   8.533   7.950  0.1817 -0.4673 -0.1026
  713MOL0     C94004   1.135   8.538   8.096 -0.2522  0.0686 -0.7432
  713MOL0     C94005   1.104   8.673   8.144 -0.6134  0.0788  0.7732
  713MOL0     C94006   0.949   8.708   8.157  0.2582  0.1605 -0.5174
  713MOL0     C94007   0.929   8.857   8.180 -0.0446 -0.3262 -1.0260
  713MOL0     O94008   0.947   8.867   8.326 -0.0335  0.5705  0.0108
  713MOL0     C94009   0.976   8.993   8.372 -0.8862  0.1256 -0.0149
  713MOL0     C94010   0.877   9.037   8.451 -0.9468 -0.9174 -0.0657
  713MOL0     C94011   0.888   9.165   8.509  0.1680  0.0462 -0.2655
  713MOL0     C94012   1.013   9.237   8.506  0.2344 -0.7207  0.1207
  713MOL0     C94013   1.033   9.359   8.582 -0.3330  0.8862 -0.4842
  713MOL0     O94014   0.942   9.383   8.681  0.4951 -0.0350  0.3900
  713MOL0     C94015   0.922   9.513   8.728 -0.4886 -0.2980  0.0012
  713MOL0     C94016   0.897   9.619   8.639 -0.5430 -0.4064 -0.1488
  713MOL0     C94017   0.871   9.751   8.693 -0.1316 -0.6916  0.5260
  713MOL0     C94018   0.882   9.778   8.829  0.4152 -0.0973 -0.2149
  713MOL0     O94019   0.866   9.902   8.884 -0.5192 -0.1118  0.5365
  713MOL0     C94020   0.739   9.927   8.947  0.2083 -0.2009 -0.1045
  713MOL0     C94021   0.622   9.937   8.848  0.5286 -0.5537 -0.3108
  713MOL0     C94022   0.483   9.962   8.920  0.6218 -1.0004 -0.7796
  713MOL0     C94023   0.471  10.113   8.966  0.7445  0.7231 -0.4677
  713MOL0     C94024   0.333  10.143   9.032 -0.1489  0.1461  0.9144
  713MOL0     C94025   0.345  10.292   9.084 -0.5003  0.5752  0.2184
  713MOL0     C94026   0.207  10.325   9.144  0.0834  0.3287 -0.9019
  713MOL0     C94027   0.200  10.461   9.193  0.3822  0.4260 -0.1224
  713MOL0    Cl94028   0.275  10.470   9.365 -0.1766  0.0898 -0.1355
  713MOL0     C94029   0.916   9.669   8.912 -0.3616  0.6947  0.6664
  713MOL0     C94030   0.930   9.540   8.862  0.3067 -0.5968 -0.0191
  713MOL0     O94031   1.136   9.422   8.575 -1.0674 -0.1900 -0.6371
  713MOL0     C94032   1.118   9.173   8.434  0.3085 -1.1242 -0.2331
  713MOL0     C94033   1.098   9.063   8.364  1.3478 -0.6464  0.0284
  713MOL0     N94034   1.000   8.469   7.893 -0.4574  0.2704 -0.0884
  713MOL0     N94035   1.023   8.472   7.766  0.4093 -0.1079 -0.3286
  713MOL0     C94036   0.441   9.261   7.686  0.8269 -0.9765 -0.4797
  713MOL0     C94037   0.393   9.390   7.654 -0.6412 -0.2290  0.0021
  713MOL0     C94038   0.268   9.806   7.723  0.8329 -0.3683 -0.5724
  713MOL0     C94039   0.131   9.862   7.725 -0.9656  0.1619 -0.0201
  713MOL0     C94040   0.116  10.003   7.749  0.1575  0.9396 -0.2681
  713MOL0     C94041   0.217  10.083   7.783 -0.3927  1.1862 -0.7256
  713MOL0     O94042   0.178  10.219   7.802  0.4236  0.3651 -0.2938
  713MOL0     C94043   0.248  10.295   7.899 -0.7403  1.2042  0.0474
  713MOL0     C94044   0.192  10.392   8.002  1.1892 -0.1777 -0.5677
  713MOL0     C94045   0.045  10.352   8.036 -0.6365 -0.5882 -1.0479
  713MOL0     C94046  -0.011  10.455   8.138 -0.1762 -0.5549  1.7154
  713MOL0     C94047  -0.155  10.437   8.179  0.1489 -0.5607  0.2300
  713MOL0     C94048  -0.276  10.419   8.215 -0.1367 -0.0080  0.1067
  713MOL0     C94049   0.354  10.029   7.787  0.8475 -0.5056  0.7677
  713MOL0     C94050   0.372   9.897   7.755  0.0216 -0.6610  0.9423
  713MOL0     H94051   0.622   9.579   7.835  2.7116 -0.6451 -0.4619
  713MOL0     H94052   0.710   9.342   7.887 -0.9146 -2.9733  1.3354
  713MOL0     H94053   0.581   9.011   7.663  2.5567  1.9020 -0.2072
  713MOL0     H94054   0.479   8.957   7.793 -1.4012  0.6069 -2.3735
  713MOL0     H94055   0.681   8.805   7.795  1.6885 -0.3246 -0.9466
  713MOL0     H94056   0.691   8.907   7.934  0.5911  0.2894 -0.8674
  713MOL0     H94057   0.911   8.880   7.823  0.9576  0.1916 -3.0393
  713MOL0     H94058   0.859   9.050   7.801 -2.4954  0.6401 -0.2728
  713MOL0     H94059   0.764   8.881   7.599  0.5124 -0.3846  0.6851
  713MOL0     H94060   0.815   9.049   7.578 -0.0494 -0.5315 -0.4415
  713MOL0     H94061   1.052   8.972   7.605 -1.1198  0.7118  0.0931
  713MOL0     H94062   0.989   8.913   7.457  0.2651 -1.8904 -1.1362
  713MOL0     H94063   0.943   8.702   7.511 -0.6859 -1.8972  0.6357
  713MOL0     H94064   0.976   8.714   7.683  2.3281 -1.7769  0.3667
  713MOL0     H94065   1.196   8.733   7.483  0.8169 -3.5807 -0.1151
  713MOL0     H94066   1.198   8.775   7.660 -0.3977  0.5648  1.6922
  713MOL0     H94067   1.300   8.554   7.614  2.0517  6.4108 -0.2676
  713MOL0     H94068   1.156   8.486   7.544  0.0107 -0.0210 -0.3343
  713MOL0     H94069   1.299   8.619   7.860 -0.1881  2.2216 -2.7817
  713MOL0     H94070   1.241   8.520   8.116 -0.3188  0.4619  0.0047
  713MOL0     H94071   1.063   8.469   8.142  2.4279 -3.3721 -1.2777
  713MOL0     H94072   1.154   8.741   8.075 -1.4027 -2.7302 -2.9116
  713MOL0     H94073   1.158   8.686   8.239  1.6535 -1.4455 -0.2242
  713MOL0     H94074   0.909   8.684   8.058  1.3046 -0.2028 -0.8722
  713MOL0     H94075   0.912   8.639   8.233 -1.4388  0.4807 -1.0095
  713MOL0     H94076   0.833   8.899   8.146  0.3372  3.3130  1.8187
  713MOL0     H94077   1.012   8.904   8.127  2.0656  0.3220  2.5340
  713MOL0     H94078   0.794   8.968   8.461 -0.5784 -1.1690  1.6185
  713MOL0     H94079   0.798   9.204   8.556  2.8601  3.5707  2.5141
  713MOL0     H94080   0.894   9.614   8.531 -2.1319  0.7517 -0.2125
  713MOL0     H94081   0.857   9.826   8.616  1.1477 -1.1436 -0.1808
  713MOL0     H94082   0.740  10.017   9.009  2.7352  0.3146 -0.7411
  713MOL0     H94083   0.716   9.845   9.015 -2.1021  2.5487  2.6901
  713MOL0     H94084   0.612   9.845   8.789  0.2744 -0.4538 -0.4258
  713MOL0     H94085   0.644  10.019   8.780  1.9523  1.0361  1.9232
  713MOL0     H94086   0.456   9.889   8.997  1.3410  0.1558  0.6216
  713MOL0     H94087   0.401   9.961   8.848 -0.0027 -0.2478 -0.1035
  713MOL0     H94088   0.551  10.135   9.038  0.2682  1.5612 -0.1937
  713MOL0     H94089   0.484  10.175   8.877  0.3225  2.6760  0.7797
  713MOL0     H94090   0.311  10.074   9.114 -0.6823 -1.2104 -0.3184
  713MOL0     H94091   0.247  10.138   8.964 -1.3119 -2.5482  2.4233
  713MOL0     H94092   0.360  10.363   9.003 -1.6876  0.5386 -0.0598
  713MOL0     H94093   0.422  10.297   9.161 -0.3497  0.7465  0.0539
  713MOL0     H94094   0.133  10.321   9.064 -0.5002 -3.1884 -0.3481
  713MOL0     H94095   0.198  10.249   9.223 -1.1052  1.9479  0.5727
  713MOL0     H94096   0.093  10.482   9.196  0.4087  0.5866 -0.2848
  713MOL0     H94097   0.256  10.535   9.134 -0.5973  3.5823  2.6055
  713MOL0     H94098   0.921   9.692   9.018 -0.1409  0.9886  0.5939
  713MOL0     H94099   0.947   9.452   8.923  1.3610 -0.3654  0.0458
  713MOL0     H94100   1.213   9.227   8.433  0.2703 -0.8212  3.1295
  713MOL0     H94101   1.184   9.010   8.324  2.2090 -0.4775  1.5943
  713MOL0     H94102   0.378   9.175   7.665 -1.1528 -0.2600  2.0454
  713MOL0     H94103   0.299   9.395   7.600 -1.8471 -1.6244  1.8662
  713MOL0     H94104   0.039   9.808   7.701  0.2522 -2.1954  0.3096
  713MOL0     H94105   0.018  10.048   7.752  0.4497  1.6907 -1.4708
  713MOL0     H94106   0.330  10.342   7.844 -1.1770 -0.0153 -1.7387
  713MOL0     H94107   0.298  10.219   7.960  1.9402  1.3815 -1.8079
  713MOL0     H94108   0.250  10.407   8.094 -2.0772  0.4428  1.5579
  713MOL0     H94109   0.193  10.490   7.955 -2.1461  0.5022  0.5273
  713MOL0     H94110   0.046  10.252   8.080 -3.4012 -0.0592  0.4676
  713MOL0     H94111  -0.015  10.344   7.945 -1.8609  3.7968 -0.8512
  713MOL0     H94112   0.042  10.442   8.233 -2.9557 -1.0064  3.3017
  713MOL0     H94113  -0.013  10.556   8.097 -1.4620 -1.6650 -1.2057
  713MOL0     H94114  -0.381  10.406   8.234 -0.6553 -0.3721 -2.5772
  713MOL0     H94115   0.433  10.094   7.822 -0.6939  0.6005  2.3318
  713MOL0     H94116   0.467   9.846   7.765 -0.4361 -1.8281 -0.3218
  714MOL0     O94117   4.018   6.081   4.103  1.7948 -0.4918 -0.1837
  714MOL0     C94118   3.953   5.986   4.134  0.3773  0.2700 -0.7995
  714MOL0     O94119   3.921   5.879   4.056 -0.0261  0.4381 -0.5022
  714MOL0     C94120   3.968   5.872   3.926  0.5378 -0.3006  0.5730
  714MOL0     C94121   3.899   5.930   3.824 -0.1824 -0.9174 -0.0747
  714MOL0     C94122   3.953   5.921   3.694 -0.3695 -0.1669  0.2930
  714MOL0     C94123   4.075   5.852   3.668 -0.3918 -0.4734  1.3821
  714MOL0     O94124   4.147   5.869   3.552  0.2500 -0.3374 -0.1691
  714MOL0     C94125   4.076   5.913   3.434  0.5584  0.2567  0.4730
  714MOL0     C94126   4.166   5.874   3.315  0.5603  0.8316  0.8612
  714MOL0     C94127   4.113   5.924   3.174  1.1667 -0.7287 -0.2931
  714MOL0     C94128   4.112   6.071   3.184 -0.6739 -0.5973  0.0638
  714MOL0     C94129   4.148   6.132   3.047  0.2792  0.3425  0.4822
  714MOL0     C94130   4.047   6.097   2.935 -0.3977 -1.4004  0.4510
  714MOL0     C94131   3.904   6.127   2.978  0.7597  0.5422  0.0955
  714MOL0     C94132   3.808   6.163   2.862  0.1717 -0.5691  0.1715
  714MOL0     N94133   3.683   6.181   2.923  0.2589 -0.1421  0.6135
  714MOL0     C94134   3.640   6.293   2.997 -0.2800 -1.0243  0.5700
  714MOL0     C94135   3.515   6.265   3.031  0.0367 -0.3313 -0.8024
  714MOL0     C94136   3.434   6.356   3.122  0.4064 -0.7889 -0.1410
  714MOL0     C94137   3.283   6.302   3.136 -0.2838 -0.2314  0.3622
  714MOL0     C94138   3.278   6.180   3.227  0.7099 -0.4391  0.0790
  714MOL0     C94139   3.151   6.105   3.204  0.5282 -0.1962 -0.3444
  714MOL0     O94140   3.048   6.192   3.243  0.2170 -0.2669  0.5266
  714MOL0     C94141   2.934   6.137   3.263  0.2965  0.6934  0.2218
  714MOL0     C94142   2.887   6.007   3.235  0.2363 -1.1263  0.4293
  714MOL0     C94143   2.754   5.965   3.247 -0.0054 -0.2707 -0.5071
  714MOL0     C94144   2.670   6.048   3.311  0.7241 -0.4843  0.6482
  714MOL0     C94145   2.535   5.996   3.343  0.8180  0.3047  0.3444
  714MOL0     O94146   2.471   5.910   3.252 -0.6694  0.5470  0.3496
  714MOL0     C94147   2.352   5.849   3.273  0.0669 -0.1390  0.8288
  714MOL0     C94148   2.312   5.796   3.391 -0.5217 -0.0788 -0.0986
  714MOL0     C94149   2.185   5.733   3.402 -0.4980 -0.1421 -0.0030
  714MOL0     C94150   2.105   5.712   3.287 -1.5076 -0.5336 -0.4296
  714MOL0     O94151   1.996   5.638   3.303  0.2565  0.0998 -0.0520
  714MOL0     C94152   1.974   5.536   3.199  0.8004  0.0031  0.4075
  714MOL0     C94153   1.870   5.572   3.095 -0.1307 -0.3061 -0.3837
  714MOL0     C94154   1.832   5.453   3.008 -0.6808  0.1986 -0.8052
  714MOL0     C94155   1.934   5.353   2.949  0.3305 -0.0638 -0.8950
  714MOL0     C94156   2.041   5.412   2.862 -0.0218  0.5633 -0.5966
  714MOL0     C94157   2.143   5.294   2.823 -0.0826 -1.0060  0.7660
  714MOL0     C94158   2.254   5.343   2.724 -0.1947 -0.3893 -0.4861
  714MOL0     C94159   2.390   5.366   2.788  0.7625  0.0106 -0.1583
  714MOL0    Cl94160   2.515   5.449   2.681  0.3111 -0.1626 -0.3952
  714MOL0     C94161   2.143   5.772   3.173  0.3375 -0.0338  0.9425
  714MOL0     C94162   2.274   5.840   3.161  0.1500  0.6461 -0.1922
  714MOL0     O94163   2.495   6.023   3.452 -0.4624  1.1499  1.0482
  714MOL0     C94164   2.709   6.178   3.338 -0.4971 -0.3169 -0.1659
  714MOL0     C94165   2.835   6.221   3.301  0.4861 -0.5484  0.5979
  714MOL0     N94166   3.478   6.132   2.984 -0.6489 -1.0204  0.0049
  714MOL0     N94167   3.585   6.082   2.924 -0.5328  0.6841 -0.6257
  714MOL0     C94168   4.138   5.777   3.772  1.1561  0.6339  0.9241
  714MOL0     C94169   4.085   5.793   3.899 -0.3531 -0.2253  0.1980
  714MOL0     C94170   3.905   5.979   4.272 -0.1930  0.7054 -0.8613
  714MOL0     C94171   3.929   6.090   4.363  0.8801 -0.1993 -0.0191
  714MOL0     C94172   3.869   6.084   4.501  0.7870  0.1918  0.6930
  714MOL0     C94173   3.826   5.974   4.555 -0.3702  0.4677  0.7215
  714MOL0     O94174   3.773   5.982   4.680 -0.1674 -0.2828 -0.3947
  714MOL0     C94175   3.685   5.886   4.739  0.6823  0.1583  0.6497
  714MOL0     C94176   3.589   5.958   4.843  0.3548 -0.1311  0.8058
  714MOL0     C94177   3.480   6.040   4.778  0.1437 -0.1341 -0.1756
  714MOL0     C94178   3.394   6.110   4.878 -0.6183 -0.3840  0.1224
  714MOL0     C94179   3.326   6.017   4.973  0.5932  0.3304  0.2217
  714MOL0     C94180   3.267   5.940   5.058  0.7712 -1.1429 -0.8139
  714MOL0     C94181   3.818   5.857   4.477  0.0775 -0.4185 -0.1144
  714MOL0     C94182   3.856   5.857   4.339 -0.1880 -0.3570  0.5371
  714MOL0     H94183   3.820   6.004   3.836 -0.3329 -0.7527 -1.7638
  714MOL0     H94184   3.929   5.992   3.615  3.5040  0.4611 -0.5341
  714MOL0     H94185   4.060   6.021   3.425 -0.7291 -0.0871 -2.2114
  714MOL0     H94186   3.983   5.858   3.422 -0.0434  1.7727 -2.7138
  714MOL0     H94187   4.154   5.766   3.323 -1.4936  0.6840 -2.5128
  714MOL0     H94188   4.271   5.903   3.324  1.5190 -2.6529  2.5116
  714MOL0     H94189   4.008   5.896   3.164  1.0037  0.2772 -1.7585
  714MOL0     H94190   4.169   5.892   3.085  1.8274 -1.9488  0.5388
  714MOL0     H94191   4.016   6.107   3.223 -2.2898 -2.4100 -1.9701
  714MOL0     H94192   4.187   6.095   3.259 -0.7549 -0.1452  0.0053
  714MOL0     H94193   4.239   6.087   3.007  0.0467 -1.1064  1.5054
  714MOL0     H94194   4.166   6.240   3.043  1.7988  0.0579 -1.0967
  714MOL0     H94195   4.055   5.990   2.914  3.2997 -0.7760 -2.2053
  714MOL0     H94196   4.075   6.156   2.847  1.4187 -0.0956  1.8461
  714MOL0     H94197   3.869   6.040   3.035  0.1153  1.1272  0.6190
  714MOL0     H94198   3.905   6.207   3.052 -3.1478 -1.9132  3.2858
  714MOL0     H94199   3.814   6.083   2.788 -1.1758 -0.5708  0.0381
  714MOL0     H94200   3.840   6.253   2.810  1.4820 -0.9166  0.3343
  714MOL0     H94201   3.700   6.380   3.022  2.0021 -2.5270  0.6579
  714MOL0     H94202   3.424   6.454   3.074  0.7566 -0.5300  0.2950
  714MOL0     H94203   3.494   6.380   3.210 -0.2997 -0.8255  0.3610
  714MOL0     H94204   3.242   6.278   3.038  1.8927 -2.7768 -0.0477
  714MOL0     H94205   3.226   6.378   3.191  0.4810  1.4864 -1.1370
  714MOL0     H94206   3.365   6.124   3.191  0.0152 -0.2160 -2.1130
  714MOL0     H94207   3.271   6.210   3.332 -0.5719 -2.0876  0.5092
  714MOL0     H94208   3.156   6.011   3.260  0.8149 -2.5183 -3.9146
  714MOL0     H94209   3.147   6.076   3.099  1.1062 -1.6220 -0.0085
  714MOL0     H94210   2.960   5.930   3.214 -0.4325 -1.2807 -1.5260
  714MOL0     H94211   2.717   5.864   3.232 -1.1749  0.0836 -0.0839
  714MOL0     H94212   2.392   5.809   3.464  1.8485  0.0167 -2.5476
  714MOL0     H94213   2.157   5.679   3.492 -2.2832 -0.1155 -0.5054
  714MOL0     H94214   1.946   5.440   3.242 -2.3484 -1.1362 -3.6096
  714MOL0     H94215   2.072   5.507   3.160  1.1752  0.9647  0.5917
  714MOL0     H94216   1.900   5.655   3.029  1.0381 -0.8521 -0.5665
  714MOL0     H94217   1.777   5.604   3.142 -1.7398 -2.6824 -1.7576
  714MOL0     H94218   1.773   5.495   2.925 -1.0349 -2.6223 -2.0949
  714MOL0     H94219   1.761   5.395   3.068  2.1703 -1.8059  0.8294
  714MOL0     H94220   1.983   5.308   3.036 -1.5728 -1.0584 -0.2842
  714MOL0     H94221   1.879   5.269   2.905 -0.1034 -1.2271  1.6954
  714MOL0     H94222   2.102   5.490   2.909  0.2054 -0.2341  0.4610
  714MOL0     H94223   1.997   5.458   2.773 -1.3487  1.9426  0.7068
  714MOL0     H94224   2.083   5.216   2.775 -1.3844 -1.9655  3.7252
  714MOL0     H94225   2.177   5.242   2.913 -1.7359 -3.1551  0.2297
  714MOL0     H94226   2.255   5.276   2.638 -0.1115 -1.0872  0.0491
  714MOL0     H94227   2.221   5.444   2.695  1.4422  0.6004  0.8659
  714MOL0     H94228   2.420   5.266   2.820  0.5973  0.4391  1.4538
  714MOL0     H94229   2.370   5.424   2.879  3.1160  0.5442  0.0838
  714MOL0     H94230   2.087   5.757   3.081  0.7065 -0.5338  0.7928
  714MOL0     H94231   2.313   5.874   3.066  3.1803 -1.5640  0.1101
  714MOL0     H94232   2.639   6.250   3.378 -0.5749  0.6134 -1.8759
  714MOL0     H94233   2.858   6.327   3.300 -0.4712 -0.3072  1.7631
  714MOL0     H94234   4.217   5.704   3.760  0.5362  0.2600 -1.2089
  714MOL0     H94235   4.128   5.748   3.988  1.5953  0.7598 -0.1768
  714MOL0     H94236   3.977   6.180   4.325 -2.3879  1.3388 -0.8827
  714MOL0     H94237   3.870   6.174   4.561  2.9280  0.5589  0.1852
  714MOL0     H94238   3.747   5.805   4.777 -1.4225 -3.5460 -3.0972
  714MOL0     H94239   3.617   5.834   4.672  2.4314 -2.6960  0.9413
  714MOL0     H94240   3.546   5.882   4.908 -0.0834 -1.4979 -0.9856
  714MOL0     H94241   3.633   6.036   4.905 -1.2703  0.7728  0.8703
  714MOL0     H94242   3.418   5.969   4.723  0.0978  1.0748 -1.7484
  714MOL0     H94243   3.520   6.107   4.701 -0.0806 -0.6356 -0.7301
  714MOL0     H94244   3.436   6.191   4.938 -2.4097  0.0316  0.9034
  714MOL0     H94245   3.320   6.176   4.832  0.7547 -0.3511 -2.1849
  714MOL0     H94246   3.206   5.879   5.121  0.6628  0.0608  0.2983
  714MOL0     H94247   3.786   5.770   4.532 -0.9747  0.2090  0.3017
  714MOL0     H94248   3.846   5.768   4.278 -2.9765  0.6076 -0.5692
  715MOL0     O94249   6.514   4.494   5.313 -0.1973 -0.4713  0.4184
  715MOL0     C94250   6.562   4.573   5.400  0.1544  0.8985  0.1094
  715MOL0     O94251   6.494   4.612   5.514 -0.0546  0.5290 -0.0780
  715MOL0     C94252   6.363   4.576   5.533 -0.4332  0.8419  1.1253
  715MOL0     C94253   6.270   4.672   5.504  0.5928  0.5705  0.3317
  715MOL0     C94254   6.134   4.645   5.536 -0.0248 -0.6038 -0.4994
  715MOL0     C94255   6.090   4.525   5.597 -0.4812 -0.7911 -0.1810
  715MOL0     O94256   5.958   4.492   5.623 -0.1490 -0.0418 -0.1080
  715MOL0     C94257   5.847   4.577   5.576  0.7094  0.6464 -0.5315
  715MOL0     C94258   5.723   4.498   5.577 -0.0369 -0.0562  0.5564
  715MOL0     C94259   5.716   4.414   5.702 -0.1525 -0.8055 -0.8523
  715MOL0     C94260   5.582   4.356   5.730  0.4803 -0.0394  0.6713
  715MOL0     C94261   5.581   4.292   5.863 -0.9809  0.3603 -1.2522
  715MOL0     C94262   5.448   4.231   5.896  0.5433 -1.2753  0.3380
  715MOL0     C94263   5.427   4.213   6.048 -0.2395  0.7447 -0.3371
  715MOL0     C94264   5.291   4.161   6.077 -0.0689  0.1462  0.1700
  715MOL0     N94265   5.186   4.247   6.033  0.4543  0.5517 -0.0964
  715MOL0     C94266   5.159   4.363   6.090 -0.3435 -0.1362  0.2022
  715MOL0     C94267   5.044   4.402   6.036  0.2922 -0.1933  0.2673
  715MOL0     C94268   4.963   4.521   6.065 -0.0405 -0.0088 -0.0284
  715MOL0     C94269   4.947   4.529   6.218  0.4888 -0.5007  0.0515
  715MOL0     C94270   4.860   4.647   6.268  0.8909 -0.0319  0.0443
  715MOL0     C94271   4.900   4.783   6.221  0.5195  0.0117 -0.5624
  715MOL0     O94272   4.994   4.857   6.306 -0.3985 -0.6128  0.2372
  715MOL0     C94273   4.969   4.907   6.433  1.3684  0.0756  0.2956
  715MOL0     C94274   5.066   4.946   6.523  0.6766 -0.8051  0.3575
  715MOL0     C94275   5.034   4.992   6.653 -0.6712  0.1406  0.9471
  715MOL0     C94276   4.903   5.023   6.692 -0.0018  0.3553  0.0990
  715MOL0     C94277   4.874   5.090   6.818  0.6206  0.0775 -0.4891
  715MOL0     O94278   4.749   5.139   6.839 -0.2522 -0.7897 -0.4053
  715MOL0     C94279   4.727   5.194   6.965 -0.3447 -0.2051 -0.7782
  715MOL0     C94280   4.655   5.120   7.053 -0.4139 -0.1585  0.0096
  715MOL0     C94281   4.634   5.165   7.183  1.2924 -0.6085  0.2910
  715MOL0     C94282   4.676   5.289   7.223 -0.6261  0.6561 -0.4845
  715MOL0     O94283   4.639   5.342   7.351 -0.2044 -0.2052 -0.8708
  715MOL0     C94284   4.701   5.293   7.474  0.0034  0.5814 -0.0640
  715MOL0     C94285   4.853   5.327   7.461 -0.2959  1.0745  0.2420
  715MOL0     C94286   4.880   5.481   7.458  0.5846  0.5366 -0.0683
  715MOL0     C94287   5.033   5.502   7.466 -0.1773  0.0009 -0.9706
  715MOL0     C94288   5.062   5.651   7.489 -0.5288 -0.7232 -0.2816
  715MOL0     C94289   5.208   5.691   7.490  0.5829 -0.3603 -0.2910
  715MOL0     C94290   5.245   5.832   7.515  0.9931 -0.3961  0.3970
  715MOL0     C94291   5.390   5.857   7.549  0.1660  0.7346  0.4630
  715MOL0    Cl94292   5.500   5.791   7.414 -0.1034  1.0177 -0.0411
  715MOL0     C94293   4.740   5.369   7.134 -0.7535 -0.1177 -0.1271
  715MOL0     C94294   4.764   5.321   7.003  0.1872  0.3930  0.5225
  715MOL0     O94295   4.961   5.089   6.905  1.0150  0.0554 -0.2129
  715MOL0     C94296   4.802   4.993   6.595  0.0481 -0.8048  0.1607
  715MOL0     C94297   4.834   4.935   6.469 -0.8970 -1.3391  0.5294
  715MOL0     N94298   4.992   4.297   5.958 -1.5585  0.0022 -0.0111
  715MOL0     N94299   5.083   4.203   5.954  0.1885 -0.0430  0.1248
  715MOL0     C94300   6.187   4.430   5.621 -0.8361 -0.7498  0.0623
  715MOL0     C94301   6.326   4.455   5.589 -0.1355 -0.0794  0.2194
  715MOL0     C94302   6.696   4.620   5.388 -0.6336 -0.9977 -0.2313
  715MOL0     C94303   6.772   4.661   5.502 -0.9755 -0.5964  0.3477
  715MOL0     C94304   6.907   4.700   5.480 -0.2138  0.2785 -0.6484
  715MOL0     C94305   6.962   4.704   5.353 -0.1680  1.3572  0.1090
  715MOL0     O94306   7.086   4.748   5.316 -0.2415 -0.4484 -0.4102
  715MOL0     C94307   7.164   4.827   5.416  0.0722  0.4953 -0.1108
  715MOL0     C94308   7.303   4.870   5.376 -0.3014  0.0045  1.1673
  715MOL0     C94309   7.312   4.954   5.249  0.1023  0.6079  0.9307
  715MOL0     C94310   7.464   4.973   5.221  0.2802  0.1195 -0.4227
  715MOL0     C94311   7.545   5.058   5.314 -1.2204 -0.1983 -0.9523
  715MOL0     C94312   7.595   5.137   5.391  0.5972  2.4111  1.1750
  715MOL0     C94313   6.890   4.662   5.247  0.2537 -0.1446  0.6659
  715MOL0     C94314   6.758   4.618   5.265 -0.9811 -1.0602  0.7706
  715MOL0     H94315   6.303   4.760   5.451 -1.5396 -0.1487 -2.4329
  715MOL0     H94316   6.058   4.722   5.525 -1.3416 -1.2453  2.7482
  715MOL0     H94317   5.876   4.614   5.477 -0.0513  1.4751 -0.4585
  715MOL0     H94318   5.842   4.661   5.646  0.6092  1.0252 -0.9842
  715MOL0     H94319   5.721   4.436   5.487  3.0340 -1.8762  1.5968
  715MOL0     H94320   5.637   4.565   5.575 -1.5611 -1.9458  0.1139
  715MOL0     H94321   5.750   4.472   5.788  2.4089 -1.5536 -1.2925
  715MOL0     H94322   5.782   4.327   5.705 -2.8303 -2.9929  1.8466
  715MOL0     H94323   5.501   4.429   5.723 -1.0791 -1.6889  0.8108
  715MOL0     H94324   5.559   4.275   5.660  0.1013  0.3729  0.3077
  715MOL0     H94325   5.616   4.366   5.936  0.1769  0.7596 -2.1764
  715MOL0     H94326   5.664   4.222   5.872 -1.1666  0.2910  0.1109
  715MOL0     H94327   5.445   4.134   5.846 -1.1069 -0.5834 -0.9872
  715MOL0     H94328   5.370   4.287   5.844 -0.6177 -2.6858  0.5054
  715MOL0     H94329   5.507   4.142   6.072  0.7231  2.0748  0.5566
  715MOL0     H94330   5.432   4.304   6.109 -3.1146  0.6621  0.1640
  715MOL0     H94331   5.273   4.141   6.183  1.8348 -3.4767 -0.0241
  715MOL0     H94332   5.264   4.073   6.018 -2.7341  1.5670 -0.8689
  715MOL0     H94333   5.225   4.412   6.161  1.6569  0.6792 -2.1207
  715MOL0     H94334   4.865   4.514   6.017 -1.3587 -0.1165  2.4991
  715MOL0     H94335   5.015   4.611   6.032 -2.0782  2.9819  4.1256
  715MOL0     H94336   5.051   4.552   6.246  0.2745 -1.7108  2.0180
  715MOL0     H94337   4.922   4.434   6.265  3.5415 -1.0205  0.8405
  715MOL0     H94338   4.759   4.630   6.230  0.7850  1.4075 -0.3799
  715MOL0     H94339   4.851   4.654   6.377  2.8103 -2.8308  0.4727
  715MOL0     H94340   4.809   4.842   6.212  0.0299 -0.7949 -1.0470
  715MOL0     H94341   4.941   4.773   6.120 -0.5289  0.7969 -1.0786
  715MOL0     H94342   5.172   4.944   6.498  0.9650 -2.0775  1.5310
  715MOL0     H94343   5.115   5.009   6.724  1.0175 -3.3035  0.0476
  715MOL0     H94344   4.611   5.027   7.017 -2.9677  0.9567  0.0783
  715MOL0     H94345   4.584   5.105   7.259 -0.6822 -0.6204 -0.9507
  715MOL0     H94346   4.710   5.185   7.486  3.6399  0.7661 -0.2364
  715MOL0     H94347   4.648   5.346   7.555 -1.8947  0.8376 -1.3893
  715MOL0     H94348   4.894   5.280   7.371 -0.0836  0.5994  0.5846
  715MOL0     H94349   4.900   5.291   7.552  1.3326  0.6120 -0.7547
  715MOL0     H94350   4.843   5.536   7.545 -1.0396  0.3615 -0.6336
  715MOL0     H94351   4.831   5.536   7.378 -2.4038  2.5220  2.8951
  715MOL0     H94352   5.076   5.441   7.545  0.9035  3.7661  1.6499
  715MOL0     H94353   5.078   5.475   7.370 -1.0007  0.7644 -1.6044
  715MOL0     H94354   5.018   5.681   7.585 -4.1298 -0.7244 -1.7579
  715MOL0     H94355   5.006   5.705   7.412  1.9367 -0.3021 -1.8671
  715MOL0     H94356   5.257   5.655   7.400  0.0428 -2.8867  0.3377
  715MOL0     H94357   5.252   5.638   7.575  1.7676  0.1798 -0.5586
  715MOL0     H94358   5.222   5.889   7.425 -1.6142 -1.1784  0.4698
  715MOL0     H94359   5.183   5.877   7.593  3.1913 -0.4441  2.2965
  715MOL0     H94360   5.421   5.804   7.639 -0.5290 -0.8056 -0.1816
  715MOL0     H94361   5.417   5.962   7.566  0.6660  0.3322  2.3971
  715MOL0     H94362   4.759   5.475   7.152 -0.0654 -0.0133 -1.3417
  715MOL0     H94363   4.821   5.389   6.939  0.1173  0.5791  0.6555
  715MOL0     H94364   4.697   5.012   6.611  0.2588  0.5208  0.1109
  715MOL0     H94365   4.758   4.922   6.393 -0.4208  0.1388 -0.2433
  715MOL0     H94366   6.168   4.326   5.646 -0.3419 -0.3236  2.4529
  715MOL0     H94367   6.402   4.387   5.625  1.6117  2.6702  2.0710
  715MOL0     H94368   6.727   4.672   5.600 -1.7061  1.2025 -0.1453
  715MOL0     H94369   6.968   4.734   5.563 -0.8674  2.7662 -1.1032
  715MOL0     H94370   7.169   4.754   5.498 -3.3155  0.7323  0.4518
  715MOL0     H94371   7.101   4.910   5.450 -1.0196 -0.7312  0.9970
  715MOL0     H94372   7.338   4.930   5.461  0.7614 -0.6186  1.1865
  715MOL0     H94373   7.367   4.783   5.360  0.2762  0.7556 -1.0109
  715MOL0     H94374   7.270   5.054   5.266  1.7386  1.7594 -1.2882
  715MOL0     H94375   7.257   4.903   5.169 -1.0408 -1.8219  3.1246
  715MOL0     H94376   7.521   4.879   5.213 -1.0189 -0.9570  1.9943
  715MOL0     H94377   7.473   5.031   5.129  0.8580  1.3220  0.3648
  715MOL0     H94378   7.634   5.184   5.479 -0.5250  0.2005  2.9547
  715MOL0     H94379   6.922   4.643   5.145 -1.9592 -1.3246  0.1244
  715MOL0     H94380   6.715   4.586   5.170 -1.2629 -0.2274  0.6069
  716MOL0     O94381   3.210  10.111   9.257 -0.0164 -0.8142 -0.6951
  716MOL0     C94382   3.292  10.201   9.244  0.9976 -0.0041 -0.2218
  716MOL0     O94383   3.283  10.308   9.159  0.4083  0.3696  0.5757
  716MOL0     C94384   3.173  10.325   9.075 -0.1278  0.4404  0.9640
  716MOL0     C94385   3.129  10.219   9.000 -0.2398  0.2426 -0.0210
  716MOL0     C94386   3.010  10.239   8.925  0.7678 -0.5587  0.0239
  716MOL0     C94387   2.943  10.364   8.922 -0.8292  0.7520  0.9049
  716MOL0     O94388   2.828  10.369   8.837  0.1104  0.3841  0.5888
  716MOL0     C94389   2.728  10.465   8.860 -0.2466  0.2527  0.3209
  716MOL0     C94390   2.592  10.429   8.792 -0.4778  0.2341 -0.4046
  716MOL0     C94391   2.614  10.403   8.644 -0.6802 -0.6855 -0.2641
  716MOL0     C94392   2.483  10.342   8.575  0.5385 -0.3847 -0.5570
  716MOL0     C94393   2.505  10.306   8.426  0.3972  0.6533  0.8245
  716MOL0     C94394   2.517  10.430   8.334 -0.6563 -0.1103  0.0631
  716MOL0     C94395   2.406  10.519   8.341  0.5163  0.4164  0.5411
  716MOL0     C94396   2.446  10.659   8.368  0.3431  0.4210  0.7622
  716MOL0     N94397   2.428  10.696   8.509  0.0759 -0.2144 -0.2303
  716MOL0     C94398   2.542  10.748   8.569  0.5527 -0.1989 -0.1444
  716MOL0     C94399   2.489  10.804   8.683 -0.3056 -0.2005 -0.5219
  716MOL0     C94400   2.567  10.860   8.788 -0.3343  0.1461  0.2412
  716MOL0     C94401   2.517  10.982   8.865 -0.4227 -0.3474  0.0913
  716MOL0     C94402   2.588  11.015   8.988 -0.4714 -0.1818  0.9688
  716MOL0     C94403   2.728  11.066   8.966 -0.4819 -0.0927 -0.7895
  716MOL0     O94404   2.731  11.169   8.863 -0.4127 -0.4432  0.2275
  716MOL0     C94405   2.856  11.230   8.841  0.7937  0.2030  0.5638
  716MOL0     C94406   2.965  11.222   8.926 -0.0295  0.0074 -0.0797
  716MOL0     C94407   3.079  11.293   8.886 -0.3531 -0.8681  0.8059
  716MOL0     C94408   3.085  11.357   8.763 -0.8638  0.2562 -0.0748
  716MOL0     C94409   3.208  11.398   8.691  0.3112 -0.5803 -0.5468
  716MOL0     O94410   3.200  11.476   8.580  0.3478  0.0528 -0.5014
  716MOL0     C94411   3.317  11.544   8.528  0.8096  0.3161  0.3335
  716MOL0     C94412   3.285  11.645   8.441  0.6138 -0.6515 -0.7307
  716MOL0     C94413   3.380  11.722   8.373  0.2517  0.8622  0.9548
  716MOL0     C94414   3.518  11.716   8.413  0.1383 -0.0941 -0.3883
  716MOL0     O94415   3.605  11.811   8.367 -0.1124  0.6744 -0.3451
  716MOL0     C94416   3.749  11.776   8.379  0.3544 -1.5930  0.1756
  716MOL0     C94417   3.845  11.865   8.307  0.7734  0.2361 -0.5921
  716MOL0     C94418   3.985  11.814   8.312 -0.2758 -0.3311 -0.2426
  716MOL0     C94419   4.073  11.844   8.191 -0.8533 -0.1695  0.1905
  716MOL0     C94420   4.219  11.816   8.201 -1.8410  0.1516  0.2417
  716MOL0     C94421   4.294  11.859   8.072  0.1152  0.9237 -1.0265
  716MOL0     C94422   4.278  11.761   7.959  0.1837 -0.3571 -0.1427
  716MOL0     C94423   4.308  11.817   7.824  0.1352 -0.1835  0.3716
  716MOL0    Cl94424   4.491  11.827   7.821 -0.0461  0.2601 -0.5293
  716MOL0     C94425   3.543  11.618   8.515  0.6198  0.1609  0.7578
  716MOL0     C94426   3.454  11.527   8.557 -0.0044 -1.2795  0.1484
  716MOL0     O94427   3.313  11.353   8.736 -0.3466  0.4603 -0.2205
  716MOL0     C94428   2.971  11.370   8.691 -0.3576 -0.0675 -0.4015
  716MOL0     C94429   2.853  11.311   8.730  1.3155 -0.1774  0.0866
  716MOL0     N94430   2.348  10.794   8.685  0.0471  0.3283  0.1905
  716MOL0     N94431   2.317  10.735   8.574 -0.4921  0.0852 -0.2285
  716MOL0     C94432   2.993  10.467   8.991 -0.0799 -0.2609  0.7187
  716MOL0     C94433   3.106  10.451   9.070  0.6845  0.2544  0.2230
  716MOL0     C94434   3.417  10.191   9.324  0.2187 -0.0448 -0.2457
  716MOL0     C94435   3.541  10.257   9.290  0.7993  0.2476 -0.9218
  716MOL0     C94436   3.635  10.269   9.388  0.1680  0.0015  0.9173
  716MOL0     C94437   3.637  10.206   9.517 -0.4545 -0.1667  0.4285
  716MOL0     O94438   3.747  10.224   9.604  0.3503  0.5644 -0.5716
  716MOL0     C94439   3.759  10.119   9.704  0.4173  0.6599  0.3822
  716MOL0     C94440   3.795   9.982   9.653 -0.0051  0.2048 -0.6073
  716MOL0     C94441   3.899   9.966   9.542 -0.1952  0.3207  0.4855
  716MOL0     C94442   3.967   9.829   9.547 -0.1115 -0.5624  0.1686
  716MOL0     C94443   4.006   9.779   9.419  0.1341 -0.4935  0.1763
  716MOL0     C94444   4.042   9.755   9.305  0.6823 -0.3433  0.2656
  716MOL0     C94445   3.523  10.120   9.539  0.2713 -0.3172 -0.5894
  716MOL0     C94446   3.415  10.130   9.449 -0.3382 -0.9336 -1.4911
  716MOL0     H94447   3.187  10.127   8.996  1.2688  0.8080  4.0270
  716MOL0     H94448   2.979  10.154   8.865  1.7406 -1.5586  0.9011
  716MOL0     H94449   2.747  10.570   8.836  1.3137 -0.6800 -3.1922
  716MOL0     H94450   2.720  10.462   8.969  0.9021 -0.6919  0.4018
  716MOL0     H94451   2.525  10.514   8.807 -0.7326  0.1282 -0.9280
  716MOL0     H94452   2.540  10.342   8.834  0.0008 -0.8574 -1.9607
  716MOL0     H94453   2.693  10.330   8.621 -2.1184 -1.9638 -1.3227
  716MOL0     H94454   2.654  10.495   8.600  0.6300 -1.9861 -1.9083
  716MOL0     H94455   2.459  10.253   8.634  2.8353 -2.2609 -2.2440
  716MOL0     H94456   2.408  10.421   8.582 -0.0001 -0.8882 -0.5743
  716MOL0     H94457   2.429  10.233   8.398  1.5238  0.4725 -2.0853
  716MOL0     H94458   2.598  10.254   8.399 -3.0127 -3.8975 -4.3684
  716MOL0     H94459   2.527  10.380   8.237 -2.0515 -1.3546  0.5272
  716MOL0     H94460   2.613  10.480   8.350 -0.3161 -1.2331  1.8933
  716MOL0     H94461   2.368  10.532   8.240 -0.0735  0.1045  0.7162
  716MOL0     H94462   2.323  10.473   8.395 -1.4291  0.2018 -2.4127
  716MOL0     H94463   2.389  10.722   8.299  0.2128 -1.3316 -0.8183
  716MOL0     H94464   2.548  10.681   8.337 -0.3605  1.8790 -0.6862
  716MOL0     H94465   2.646  10.732   8.540  0.6649  0.0937  0.0944
  716MOL0     H94466   2.661  10.887   8.740  0.0543  0.2759  1.0554
  716MOL0     H94467   2.599  10.780   8.855  2.5429 -0.0334 -1.1961
  716MOL0     H94468   2.416  10.957   8.898 -0.0177 -1.5360  0.4755
  716MOL0     H94469   2.517  11.056   8.784 -0.5880 -0.7626 -0.2991
  716MOL0     H94470   2.525  11.087   9.042 -2.5480 -0.2259 -1.2166
  716MOL0     H94471   2.600  10.931   9.057 -0.1335 -2.6499 -1.9054
  716MOL0     H94472   2.802  10.991   8.938  1.0332  1.0432  0.0233
  716MOL0     H94473   2.764  11.106   9.061 -0.4945 -3.9848  1.0110
  716MOL0     H94474   2.945  11.178   9.023 -4.2471 -1.0432 -1.2193
  716MOL0     H94475   3.163  11.291   8.955  0.8504 -3.5926 -0.5659
  716MOL0     H94476   3.185  11.666   8.403  1.4510  1.8571 -1.7807
  716MOL0     H94477   3.362  11.770   8.277  0.1831 -2.9387 -1.1544
  716MOL0     H94478   3.766  11.669   8.360 -1.0207 -1.8747  0.3636
  716MOL0     H94479   3.763  11.786   8.486 -1.1051  0.2493  0.2474
  716MOL0     H94480   3.833  11.965   8.350  0.4937  0.8137 -1.9794
  716MOL0     H94481   3.815  11.889   8.205 -1.0764 -2.6719 -0.8556
  716MOL0     H94482   3.968  11.706   8.315 -0.2028 -0.3344  0.0773
  716MOL0     H94483   4.028  11.842   8.409  1.0585  3.0094 -1.6341
  716MOL0     H94484   4.039  11.799   8.097  1.0870  1.4218 -1.3458
  716MOL0     H94485   4.065  11.952   8.183  0.9151 -0.1421 -2.1187
  716MOL0     H94486   4.233  11.710   8.224 -4.7467 -0.4942 -0.6171
  716MOL0     H94487   4.259  11.871   8.286  1.8160 -0.1788 -1.0879
  716MOL0     H94488   4.401  11.871   8.090 -0.2298  0.3900  1.7796
  716MOL0     H94489   4.248  11.954   8.043  1.4499  1.8478 -0.2101
  716MOL0     H94490   4.347  11.679   7.980  3.3194  1.1913 -3.2791
  716MOL0     H94491   4.172  11.734   7.958  0.2753 -0.7183 -0.0558
  716MOL0     H94492   4.276  11.921   7.822  4.1784  1.3065  2.3808
  716MOL0     H94493   4.269  11.756   7.743 -1.7052  0.2778  0.8655
  716MOL0     H94494   3.641  11.589   8.552 -1.0606 -0.1813  5.7508
  716MOL0     H94495   3.491  11.456   8.630  1.8412 -0.9262 -0.3996
  716MOL0     H94496   2.967  11.435   8.604  1.6485  0.3573 -0.2283
  716MOL0     H94497   2.766  11.316   8.666  1.5794  1.0073 -0.2035
  716MOL0     H94498   2.954  10.567   9.000  1.6392  0.3694  1.5359
  716MOL0     H94499   3.151  10.529   9.130  3.7784 -2.1397  1.3146
  716MOL0     H94500   3.551  10.307   9.194  0.4913  0.9417 -0.5966
  716MOL0     H94501   3.723  10.329   9.367  0.2605 -0.7937 -1.1061
  716MOL0     H94502   3.665  10.109   9.759 -0.8307  1.1505 -1.5526
  716MOL0     H94503   3.838  10.144   9.775  0.1208 -0.4984  1.1481
  716MOL0     H94504   3.828   9.921   9.738 -0.2130 -0.2182 -0.8260
  716MOL0     H94505   3.709   9.927   9.613 -0.5296  1.6232 -1.5159
  716MOL0     H94506   3.959  10.058   9.542  0.6881 -0.2244 -0.8564
  716MOL0     H94507   3.842   9.968   9.449 -1.5497  0.4774  1.2929
  716MOL0     H94508   4.052   9.838   9.616 -0.5430  3.4698  0.4131
  716MOL0     H94509   3.902   9.749   9.583 -1.3011  0.1144 -0.4372
  716MOL0     H94510   4.066   9.731   9.203  0.6998  0.0923  0.1659
  716MOL0     H94511   3.507  10.058   9.627 -1.5561 -3.0763 -2.6816
  716MOL0     H94512   3.318  10.097   9.485 -0.1679  0.3530  0.2615
  717MOL0     O94513   6.741   1.299  10.614  0.0222 -0.1514  0.1774
  717MOL0     C94514   6.781   1.199  10.554 -0.7678 -0.8721  0.2192
  717MOL0     O94515   6.793   1.175  10.417 -0.3734  0.0438 -0.1551
  717MOL0     C94516   6.725   1.252  10.330 -0.5905 -0.7866  0.2932
  717MOL0     C94517   6.633   1.195  10.239 -0.1276 -0.3577  0.0889
  717MOL0     C94518   6.550   1.275  10.163  0.2232 -0.5402  0.1929
  717MOL0     C94519   6.543   1.415  10.176 -0.4734  0.6103 -0.0993
  717MOL0     O94520   6.460   1.488  10.097  0.3051 -0.1351  0.2029
  717MOL0     C94521   6.391   1.593  10.164 -0.5058  0.0309 -0.2143
  717MOL0     C94522   6.300   1.665  10.069 -0.7355  0.0330  0.2910
  717MOL0     C94523   6.367   1.730   9.946 -0.2427 -0.4308  0.4135
  717MOL0     C94524   6.276   1.763   9.833 -0.2961  1.1973 -0.2247
  717MOL0     C94525   6.344   1.822   9.715 -0.1221  0.2170 -0.9632
  717MOL0     C94526   6.253   1.862   9.595 -0.7692 -0.1527 -0.0585
  717MOL0     C94527   6.124   1.943   9.635 -0.3079  0.9667 -0.5661
  717MOL0     C94528   6.135   2.068   9.721 -0.0907 -0.1704 -0.0715
  717MOL0     N94529   6.030   2.157   9.704 -0.3482  0.0134  0.4470
  717MOL0     C94530   5.914   2.166   9.774 -1.1243  0.2902 -0.5884
  717MOL0     C94531   5.845   2.257   9.715  0.0082  0.0496 -0.3445
  717MOL0     C94532   5.716   2.311   9.773  0.5264  0.0099 -1.3698
  717MOL0     C94533   5.605   2.230   9.722 -0.7836  0.4836 -0.8111
  717MOL0     C94534   5.476   2.253   9.797 -0.7585  0.1623  0.0390
  717MOL0     C94535   5.370   2.170   9.731 -0.0833 -0.7462  0.3521
  717MOL0     O94536   5.246   2.179   9.807  0.3709 -0.7858  0.1153
  717MOL0     C94537   5.157   2.079   9.767 -0.8776 -0.6850  0.1071
  717MOL0     C94538   5.033   2.110   9.708  0.9709  0.7547  0.0639
  717MOL0     C94539   4.949   1.999   9.683 -0.8110 -0.5017  0.1272
  717MOL0     C94540   4.988   1.865   9.705  0.0265 -0.1221 -0.2730
  717MOL0     C94541   4.891   1.758   9.677 -0.2374  0.1463  0.1064
  717MOL0     O94542   4.776   1.806   9.619  0.4579  0.4228  0.3860
  717MOL0     C94543   4.677   1.727   9.561 -0.3589  0.5393  0.8573
  717MOL0     C94544   4.552   1.786   9.557 -0.2522 -0.6137 -0.2979
  717MOL0     C94545   4.436   1.725   9.500 -0.2484  0.4925 -0.0651
  717MOL0     C94546   4.457   1.600   9.437 -0.2623 -0.9422  0.0949
  717MOL0     O94547   4.353   1.547   9.368  0.2185  0.0324  0.4692
  717MOL0     C94548   4.346   1.413   9.311 -0.0255  0.7005 -0.5396
  717MOL0     C94549   4.210   1.368   9.310  0.7651 -0.3912  0.4103
  717MOL0     C94550   4.107   1.450   9.225  0.6398  1.0004  0.5235
  717MOL0     C94551   3.977   1.440   9.303  1.1571  0.0927 -0.0969
  717MOL0     C94552   3.847   1.459   9.208  0.1256 -0.0395 -0.4528
  717MOL0     C94553   3.723   1.401   9.265 -0.2295  0.5835 -0.9377
  717MOL0     C94554   3.591   1.466   9.218 -0.7377  1.2987  0.2042
  717MOL0     C94555   3.476   1.369   9.187  0.6109  0.3267 -1.2356
  717MOL0    Cl94556   3.522   1.244   9.064  0.1159 -0.1130 -0.0436
  717MOL0     C94557   4.582   1.540   9.434 -0.6415 -0.0686  0.4631
  717MOL0     C94558   4.696   1.597   9.498  0.5591  0.5824 -0.8777
  717MOL0     O94559   4.916   1.640   9.704 -0.3496 -0.7594  0.4869
  717MOL0     C94560   5.113   1.838   9.754 -0.1855  0.4607 -0.5022
  717MOL0     C94561   5.192   1.949   9.795  0.4890  0.1354 -0.0077
  717MOL0     N94562   5.915   2.304   9.604 -0.0257  0.2183 -0.2084
  717MOL0     N94563   6.032   2.243   9.599  0.4408 -0.2773 -0.5877
  717MOL0     C94564   6.657   1.467  10.250  0.6062  0.1518  0.9373
  717MOL0     C94565   6.743   1.391  10.330  0.3088 -0.0162  0.5517
  717MOL0     C94566   6.811   1.092  10.664 -0.7325  0.2924 -0.1427
  717MOL0     C94567   6.911   1.004  10.635  0.3059  0.4161 -0.0102
  717MOL0     C94568   6.956   0.910  10.732 -0.4080 -0.4163  0.5502
  717MOL0     C94569   6.920   0.925  10.864 -0.4164  0.6349 -0.8033
  717MOL0     O94570   6.980   0.841  10.953  0.4142  0.5736  0.0812
  717MOL0     C94571   7.007   0.879  11.084  0.8463 -1.3868 -0.0457
  717MOL0     C94572   6.996   0.756  11.182 -0.9214 -0.8878  0.5668
  717MOL0     C94573   7.113   0.650  11.164 -0.4215 -0.7111  0.6015
  717MOL0     C94574   7.260   0.692  11.199 -0.3810 -0.2750  0.1936
  717MOL0     C94575   7.354   0.581  11.189 -0.4594  1.0370  1.1461
  717MOL0     C94576   7.446   0.501  11.190 -0.0493  0.4725 -0.4045
  717MOL0     C94577   6.825   1.022  10.894  0.2212 -1.2304 -0.7496
  717MOL0     C94578   6.765   1.102  10.793  0.8534  0.0794  0.1091
  717MOL0     H94579   6.630   1.086  10.234  3.4481 -0.6568  1.4130
  717MOL0     H94580   6.482   1.230  10.090 -3.3411 -0.0932  2.9585
  717MOL0     H94581   6.456   1.663  10.217 -1.4636  1.3071 -0.6627
  717MOL0     H94582   6.326   1.542  10.236 -3.5114  0.5671 -2.3536
  717MOL0     H94583   6.233   1.728  10.128 -2.4856 -3.0385  1.8644
  717MOL0     H94584   6.232   1.588  10.030 -0.2884 -0.8253  1.1582
  717MOL0     H94585   6.449   1.665   9.917 -0.3091 -0.5569  0.5049
  717MOL0     H94586   6.426   1.819   9.969 -1.1955  0.1714  0.5807
  717MOL0     H94587   6.237   1.667   9.797  2.2977  0.2325 -0.6317
  717MOL0     H94588   6.189   1.823   9.862  0.2403  2.2390 -0.7013
  717MOL0     H94589   6.397   1.733   9.681 -1.9353 -0.8183 -1.2264
  717MOL0     H94590   6.392   1.907   9.765  0.2392 -0.3454 -0.3344
  717MOL0     H94591   6.219   1.781   9.530  0.3538  1.6225 -3.0586
  717MOL0     H94592   6.319   1.916   9.527  1.5147 -3.7478 -1.0207
  717MOL0     H94593   6.099   1.993   9.541 -1.0737  4.5160  1.3203
  717MOL0     H94594   6.045   1.880   9.676  1.5963  0.7217  3.2523
  717MOL0     H94595   6.220   2.124   9.679  1.5662 -0.3518  2.8202
  717MOL0     H94596   6.150   2.047   9.827  1.2764  0.9935 -0.0007
  717MOL0     H94597   5.892   2.107   9.862  3.3204  1.3798  1.5097
  717MOL0     H94598   5.707   2.414   9.737 -0.1738 -0.3890 -2.3713
  717MOL0     H94599   5.722   2.322   9.881  0.4463  2.4904 -1.5579
  717MOL0     H94600   5.625   2.123   9.735  1.8710  1.0008  0.0459
  717MOL0     H94601   5.583   2.252   9.617 -1.4801 -1.2073 -1.0493
  717MOL0     H94602   5.483   2.222   9.902 -1.0958  1.8910  0.6020
  717MOL0     H94603   5.435   2.354   9.802 -0.9669  0.1533 -1.1251
  717MOL0     H94604   5.396   2.064   9.717 -0.7152 -0.7872 -0.5994
  717MOL0     H94605   5.356   2.230   9.640 -0.4027  0.3044  1.0797
  717MOL0     H94606   5.013   2.211   9.676 -1.5794  0.6959  1.2639
  717MOL0     H94607   4.854   2.030   9.642 -2.2872 -1.4178  2.6363
  717MOL0     H94608   4.526   1.887   9.588  1.4845  0.7188 -2.8268
  717MOL0     H94609   4.337   1.769   9.500 -1.5593 -2.1362  2.3256
  717MOL0     H94610   4.404   1.348   9.377 -0.7663  0.5151 -0.0595
  717MOL0     H94611   4.384   1.399   9.209  0.5836 -0.9628 -0.1095
  717MOL0     H94612   4.165   1.372   9.410  0.8441 -1.4555  0.4952
  717MOL0     H94613   4.200   1.267   9.269 -0.4820  0.8302 -2.5918
  717MOL0     H94614   4.090   1.396   9.132  0.8032  1.1408  0.4094
  717MOL0     H94615   4.131   1.555   9.203  2.7832  1.9393  5.7407
  717MOL0     H94616   3.969   1.344   9.356 -0.4889  0.7244  0.8985
  717MOL0     H94617   3.976   1.517   9.381  0.9145 -1.1815  1.2026
  717MOL0     H94618   3.859   1.407   9.112 -0.1382 -0.8859 -0.0381
  717MOL0     H94619   3.842   1.568   9.204  1.0918 -0.0066 -0.9988
  717MOL0     H94620   3.733   1.416   9.373  0.2184  3.0718 -1.2787
  717MOL0     H94621   3.721   1.292   9.255 -1.7919  0.2192  2.0808
  717MOL0     H94622   3.565   1.535   9.299  1.0562  3.6035 -1.0515
  717MOL0     H94623   3.616   1.536   9.137  1.0236  0.7671  0.2598
  717MOL0     H94624   3.389   1.430   9.161 -0.4532 -1.7503 -2.7539
  717MOL0     H94625   3.432   1.322   9.275 -0.0342 -0.1121 -1.7916
  717MOL0     H94626   4.595   1.452   9.372  2.9364  1.5729 -1.4072
  717MOL0     H94627   4.791   1.546   9.501  0.5976  0.3774 -3.2063
  717MOL0     H94628   5.144   1.734   9.761 -0.2915  0.5303  1.5001
  717MOL0     H94629   5.277   1.917   9.855 -0.9660 -0.2972  1.9404
  717MOL0     H94630   6.652   1.575  10.262  1.3852  0.5617 -1.8542
  717MOL0     H94631   6.825   1.432  10.389  2.2124 -0.6801 -1.4768
  717MOL0     H94632   6.945   0.999  10.532 -1.2171  1.0471 -0.5777
  717MOL0     H94633   7.015   0.831  10.685  0.1304 -0.7662  1.7800
  717MOL0     H94634   6.934   0.954  11.115  3.7928  1.2232  1.1298
  717MOL0     H94635   7.110   0.915  11.091  0.3179  0.1047  0.3463
  717MOL0     H94636   6.998   0.788  11.287  0.4327  0.3706  0.1846
  717MOL0     H94637   6.898   0.709  11.173  0.1924 -3.5266  1.4983
  717MOL0     H94638   7.124   0.619  11.059 -1.6450  0.6488  0.0317
  717MOL0     H94639   7.081   0.565  11.225 -3.4304  0.3709  0.6973
  717MOL0     H94640   7.296   0.779  11.142  0.6574  0.2134  1.5443
  717MOL0     H94641   7.270   0.727  11.303 -1.3564 -0.2433  0.2806
  717MOL0     H94642   7.533   0.438  11.189  0.5824  1.3310 -0.2284
  717MOL0     H94643   6.778   1.040  10.990 -0.1848  2.3760 -1.5002
  717MOL0     H94644   6.680   1.167  10.812 -0.4212 -0.4650 -3.1585
  718MOL0     O94645   7.135   9.737   7.982 -0.3266  0.4347  0.1292
  718MOL0     C94646   7.147   9.624   7.932  0.9062 -0.7143 -0.3903
  718MOL0     O94647   7.055   9.519   7.938 -1.0700  0.3559  0.2643
  718MOL0     C94648   6.970   9.531   8.038  0.0496  0.1041 -1.0192
  718MOL0     C94649   6.991   9.450   8.148 -0.1782  0.7634 -0.4746
  718MOL0     C94650   6.909   9.447   8.261  0.0829  0.3199  0.8285
  718MOL0     C94651   6.805   9.536   8.266  0.0282 -0.0956 -0.0363
  718MOL0     O94652   6.726   9.537   8.381  0.5800 -0.3255 -0.3448
  718MOL0     C94653   6.613   9.621   8.398 -0.1076 -0.1464 -0.5742
  718MOL0     C94654   6.585   9.605   8.546  0.8857 -0.9328  0.8945
  718MOL0     C94655   6.705   9.651   8.631 -0.3877  0.4893 -1.1554
  718MOL0     C94656   6.661   9.631   8.778  0.7915 -0.8694  0.2642
  718MOL0     C94657   6.764   9.690   8.872  0.4794  0.1372  1.1829
  718MOL0     C94658   6.712   9.691   9.025  0.0856 -0.1324  0.6214
  718MOL0     C94659   6.684   9.559   9.090 -0.3877  0.6664 -0.2435
  718MOL0     C94660   6.807   9.510   9.161 -0.3493 -0.2674 -1.2047
  718MOL0     N94661   6.919   9.455   9.079  0.6877  0.1230 -0.0799
  718MOL0     C94662   6.911   9.351   8.996  0.4453 -0.2702  1.0002
  718MOL0     C94663   7.014   9.364   8.910  0.2974 -0.7188 -0.2894
  718MOL0     C94664   7.025   9.295   8.774 -0.0531  0.3886  0.5209
  718MOL0     C94665   7.181   9.282   8.742  0.7812 -0.7558 -0.8263
  718MOL0     C94666   7.198   9.189   8.622 -0.3079  0.0575  0.8942
  718MOL0     C94667   7.334   9.209   8.550  0.1780  0.0352  0.9122
  718MOL0     O94668   7.379   9.094   8.484  0.2157  0.3985  0.8373
  718MOL0     C94669   7.342   9.086   8.354  0.4766  0.2278  0.4980
  718MOL0     C94670   7.210   9.051   8.316  0.2517 -0.0411  0.5953
  718MOL0     C94671   7.183   9.068   8.181 -0.2852 -1.1934 -0.4990
  718MOL0     C94672   7.273   9.116   8.081 -0.0708  0.3268  0.4877
  718MOL0     C94673   7.238   9.126   7.935  0.1836 -0.7214  0.6680
  718MOL0     O94674   7.105   9.100   7.902 -0.0221 -0.3377 -0.4063
  718MOL0     C94675   7.070   9.113   7.769  0.8632 -0.4356  0.3370
  718MOL0     C94676   7.077   9.006   7.683  0.6050  0.5175  0.2302
  718MOL0     C94677   7.042   9.022   7.549  0.8698  0.7574 -1.2157
  718MOL0     C94678   7.000   9.146   7.497  0.2742 -0.5835 -0.2815
  718MOL0     O94679   6.948   9.173   7.377 -0.5702 -0.3786 -0.1616
  718MOL0     C94680   6.973   9.079   7.267 -0.0073  0.9940 -0.1688
  718MOL0     C94681   6.936   9.166   7.148  0.3278 -0.4267 -0.1963
  718MOL0     C94682   6.785   9.197   7.135 -1.0394  0.9438 -0.1249
  718MOL0     C94683   6.764   9.315   7.040  0.1229  0.3109  0.8036
  718MOL0     C94684   6.616   9.364   7.043  0.0294 -0.0195  0.5525
  718MOL0     C94685   6.568   9.446   6.920 -0.6687 -0.2550  0.6144
  718MOL0     C94686   6.648   9.570   6.870 -0.6060  0.0754  0.1888
  718MOL0     C94687   6.591   9.618   6.737 -0.7724 -0.1073 -0.6402
  718MOL0    Cl94688   6.654   9.785   6.709 -0.0415  1.0726 -0.3251
  718MOL0     C94689   7.003   9.251   7.585 -0.5180  0.9607  0.5128
  718MOL0     C94690   7.019   9.236   7.724 -0.1924 -1.1800 -0.1760
  718MOL0     O94691   7.323   9.169   7.851 -0.2724  0.0998  0.1309
  718MOL0     C94692   7.407   9.137   8.126  0.0439  0.8298  0.7771
  718MOL0     C94693   7.439   9.128   8.262  0.8452 -0.1490 -0.0078
  718MOL0     N94694   7.095   9.464   8.952 -0.7981 -0.2998  0.1319
  718MOL0     N94695   7.029   9.529   9.047  0.7309  0.1395  0.1349
  718MOL0     C94696   6.778   9.626   8.158  0.2260  0.4005 -0.3727
  718MOL0     C94697   6.865   9.623   8.048 -0.4405  0.7942 -0.6349
  718MOL0     C94698   7.261   9.614   7.838  0.0496  1.3780  0.5933
  718MOL0     C94699   7.257   9.513   7.741  0.2976  0.2467 -0.2377
  718MOL0     C94700   7.363   9.488   7.654  0.2235  0.6188  0.2328
  718MOL0     C94701   7.484   9.549   7.660  0.1845  0.1119 -0.1466
  718MOL0     O94702   7.596   9.532   7.584 -0.1270  0.2597 -0.4950
  718MOL0     C94703   7.601   9.393   7.544  0.8311  0.4165  0.1162
  718MOL0     C94704   7.741   9.335   7.515 -0.1471 -0.2553 -0.1454
  718MOL0     C94705   7.820   9.403   7.401 -0.2735 -0.1546  0.2459
  718MOL0     C94706   7.750   9.370   7.255 -0.2480 -0.9139 -0.1136
  718MOL0     C94707   7.833   9.384   7.136  0.6610 -0.8941  0.3268
  718MOL0     C94708   7.911   9.396   7.052  0.8203 -0.3711  0.0789
  718MOL0     C94709   7.486   9.653   7.753 -0.3357 -0.1899 -0.1045
  718MOL0     C94710   7.384   9.692   7.842  0.6625  0.7604 -0.4147
  718MOL0     H94711   7.066   9.372   8.134  2.1123  3.1333 -2.3238
  718MOL0     H94712   6.931   9.374   8.339  2.7093 -0.1181 -0.2125
  718MOL0     H94713   6.528   9.598   8.333 -1.6004 -0.0601  1.2804
  718MOL0     H94714   6.631   9.729   8.389 -1.9409  0.3004  0.5882
  718MOL0     H94715   6.550   9.502   8.561  0.6724 -1.0871 -0.5627
  718MOL0     H94716   6.508   9.682   8.558  0.6890  0.2630 -5.0989
  718MOL0     H94717   6.728   9.755   8.607  0.3073  0.6032 -0.0560
  718MOL0     H94718   6.786   9.580   8.611 -0.7517 -1.0713  2.1289
  718MOL0     H94719   6.565   9.678   8.800  1.3345 -0.4765  2.0061
  718MOL0     H94720   6.646   9.524   8.796 -2.6650 -0.4956  0.3369
  718MOL0     H94721   6.800   9.788   8.839 -2.7231  0.1603 -2.9343
  718MOL0     H94722   6.854   9.629   8.863  0.6941  0.5068  0.7815
  718MOL0     H94723   6.618   9.745   9.037 -0.3729 -1.2291  2.4365
  718MOL0     H94724   6.767   9.757   9.092  0.7917 -0.4514  0.3626
  718MOL0     H94725   6.614   9.574   9.172 -1.4461  0.6884 -1.1268
  718MOL0     H94726   6.634   9.482   9.030  2.1090 -2.5973  1.4998
  718MOL0     H94727   6.781   9.445   9.245  0.6649 -0.3189 -0.9107
  718MOL0     H94728   6.858   9.581   9.227  0.4023 -2.3423  0.5798
  718MOL0     H94729   6.832   9.277   9.001 -0.5383  0.7260  0.7089
  718MOL0     H94730   6.971   9.350   8.697  1.5460  0.4533 -0.6064
  718MOL0     H94731   6.986   9.194   8.789  0.1472  0.6082  2.9966
  718MOL0     H94732   7.231   9.233   8.826  1.4401  1.8564  0.4011
  718MOL0     H94733   7.220   9.384   8.729 -0.8159  0.1858  1.1943
  718MOL0     H94734   7.189   9.083   8.648  0.6319 -0.1953  0.2527
  718MOL0     H94735   7.128   9.218   8.542  1.3194 -1.9979 -1.4176
  718MOL0     H94736   7.406   9.240   8.626  0.3602 -1.2736  1.2922
  718MOL0     H94737   7.321   9.284   8.471  1.2999 -0.4510  0.2413
  718MOL0     H94738   7.134   9.024   8.389  0.5248 -2.7729 -0.0019
  718MOL0     H94739   7.079   9.056   8.154 -0.3214 -1.8468 -0.1089
  718MOL0     H94740   7.126   8.914   7.713  3.0444  1.7839  0.3055
  718MOL0     H94741   7.058   8.937   7.484  1.0886 -0.7113  0.6969
  718MOL0     H94742   6.911   8.989   7.275  2.1652 -0.3746  3.1924
  718MOL0     H94743   7.074   9.040   7.256 -0.5097 -0.6611  0.8547
  718MOL0     H94744   6.986   9.130   7.058  2.3231  0.5182  0.4611
  718MOL0     H94745   6.987   9.259   7.177 -2.7784  1.2395  0.3604
  718MOL0     H94746   6.753   9.232   7.234 -0.2441 -4.2096  2.2595
  718MOL0     H94747   6.717   9.114   7.112 -2.0269  0.4136  3.9596
  718MOL0     H94748   6.827   9.394   7.082  5.5880 -3.4487  0.6643
  718MOL0     H94749   6.794   9.290   6.937 -0.8122  0.1092  0.5643
  718MOL0     H94750   6.597   9.425   7.132  0.4693  4.1928 -1.9600
  718MOL0     H94751   6.552   9.275   7.041  1.7204 -1.3159 -1.9362
  718MOL0     H94752   6.464   9.466   6.947 -1.4328 -1.5038 -1.1671
  718MOL0     H94753   6.572   9.378   6.834  4.4644  0.1285  0.2290
  718MOL0     H94754   6.628   9.651   6.942 -0.1873  1.7528 -1.4873
  718MOL0     H94755   6.754   9.548   6.859 -0.5983  0.1580  0.0894
  718MOL0     H94756   6.482   9.621   6.743 -0.8858 -2.5021 -0.4603
  718MOL0     H94757   6.598   9.544   6.656 -1.3927 -2.3915  1.2830
  718MOL0     H94758   6.958   9.342   7.546 -2.4676  0.5578  1.6763
  718MOL0     H94759   7.004   9.317   7.795  0.5092 -0.4504 -0.8325
  718MOL0     H94760   7.491   9.168   8.064 -3.8626  4.7357 -3.3808
  718MOL0     H94761   7.537   9.152   8.304  0.1578  2.7872  0.1351
  718MOL0     H94762   6.689   9.689   8.157 -0.1921 -0.1235  1.1055
  718MOL0     H94763   6.831   9.690   7.969  0.0403  1.7704 -0.0340
  718MOL0     H94764   7.166   9.455   7.728 -1.8594  3.9111 -3.6339
  718MOL0     H94765   7.354   9.406   7.583  0.1081  1.7127 -1.0651
  718MOL0     H94766   7.541   9.383   7.453  2.2445 -0.4074 -0.7473
  718MOL0     H94767   7.568   9.324   7.623  2.0283 -0.4339 -0.1162
  718MOL0     H94768   7.788   9.350   7.613 -3.3031  0.7332  1.3570
  718MOL0     H94769   7.727   9.228   7.502 -0.1080 -0.6823  2.7390
  718MOL0     H94770   7.924   9.371   7.400  0.0963  0.9941 -1.2824
  718MOL0     H94771   7.810   9.511   7.417 -1.7235 -0.6088  3.2182
  718MOL0     H94772   7.708   9.269   7.257 -0.1807 -1.0377 -2.3640
  718MOL0     H94773   7.671   9.445   7.245  1.7131  1.9107  3.1156
  718MOL0     H94774   7.988   9.386   6.978  0.2895 -0.5765 -0.4511
  718MOL0     H94775   7.576   9.712   7.750 -0.2758 -0.2842 -3.3222
  718MOL0     H94776   7.404   9.757   7.927  0.8551 -0.6474  0.6590
  719MOL0     O94777   2.934   6.417   5.729  0.1807 -0.1738  0.4825
  719MOL0     C94778   2.887   6.304   5.714  0.0811 -0.7382 -0.4331
  719MOL0     O94779   2.953   6.189   5.708 -0.5215  0.4728  0.0024
  719MOL0     C94780   3.088   6.180   5.694  0.5805 -0.3344 -0.1315
  719MOL0     C94781   3.166   6.288   5.659  0.2872 -0.1122  0.3736
  719MOL0     C94782   3.306   6.289   5.652  0.0965  0.4617  0.0658
  719MOL0     C94783   3.377   6.162   5.675  0.9711 -0.3393 -0.1328
  719MOL0     O94784   3.513   6.158   5.685 -0.2270  0.3636 -0.4344
  719MOL0     C94785   3.586   6.082   5.585  0.1418  0.0412  0.2933
  719MOL0     C94786   3.570   6.154   5.445  0.0280  0.2470  0.2081
  719MOL0     C94787   3.677   6.109   5.338 -0.8388  0.7485  0.5655
  719MOL0     C94788   3.633   6.000   5.238 -0.2732  0.1123  0.6125
  719MOL0     C94789   3.749   5.937   5.162 -0.5409  0.5292  0.8838
  719MOL0     C94790   3.830   6.042   5.081  0.5661 -0.4528  1.3846
  719MOL0     C94791   3.970   6.070   5.142  0.9698 -0.1839 -0.7564
  719MOL0     C94792   4.074   6.136   5.038 -1.0631  0.3579 -0.4951
  719MOL0     N94793   4.027   6.227   4.943  0.1612  0.4700  0.4182
  719MOL0     C94794   4.036   6.357   4.943  0.7561 -0.8178  0.2887
  719MOL0     C94795   3.998   6.397   4.812 -0.3123  0.2389 -1.3266
  719MOL0     C94796   3.975   6.536   4.771 -0.2405 -0.1967  0.0394
  719MOL0     C94797   4.105   6.629   4.773 -0.2402  0.0783 -0.6811
  719MOL0     C94798   4.199   6.634   4.649  0.4896 -0.1357  0.3573
  719MOL0     C94799   4.166   6.721   4.522 -0.2807 -0.8705 -0.4902
  719MOL0     O94800   4.081   6.830   4.545 -0.1413 -0.3589  0.9239
  719MOL0     C94801   4.126   6.950   4.583 -0.2352 -0.8385  0.1548
  719MOL0     C94802   4.035   7.059   4.588 -0.0689  0.1426  0.6524
  719MOL0     C94803   4.075   7.181   4.620  0.5964  0.2387 -0.7808
  719MOL0     C94804   4.209   7.201   4.666  0.1827  0.7398 -0.0734
  719MOL0     C94805   4.248   7.328   4.718 -0.4495 -0.4119 -0.1981
  719MOL0     O94806   4.155   7.428   4.697 -0.4005  0.3998 -0.3588
  719MOL0     C94807   4.178   7.560   4.731 -0.5837  0.3612  0.1090
  719MOL0     C94808   4.071   7.633   4.765  1.1263 -0.7090  0.4057
  719MOL0     C94809   4.079   7.767   4.783  0.6393 -0.6642  0.4128
  719MOL0     C94810   4.204   7.835   4.775 -0.1530  0.7168 -0.4930
  719MOL0     O94811   4.211   7.966   4.817  0.4968 -0.3438  0.3587
  719MOL0     C94812   4.102   8.051   4.831  0.3723 -0.3053  1.2105
  719MOL0     C94813   4.143   8.197   4.845 -0.1438 -0.3038 -0.4701
  719MOL0     C94814   4.041   8.296   4.908 -1.5175  0.3261  0.6770
  719MOL0     C94815   4.122   8.413   4.975 -0.3675 -0.1137 -0.6470
  719MOL0     C94816   4.010   8.519   5.017 -0.2106  0.8450 -0.0623
  719MOL0     C94817   4.089   8.648   5.052 -0.0053  0.6418  0.8028
  719MOL0     C94818   4.008   8.777   5.071  1.2697 -0.9127  0.3307
  719MOL0     C94819   4.103   8.898   5.061 -0.4232 -0.5897 -0.5790
  719MOL0    Cl94820   4.199   8.905   5.221  0.1907  0.1624 -0.1023
  719MOL0     C94821   4.324   7.758   4.762  0.9226 -0.4099 -0.5455
  719MOL0     C94822   4.308   7.621   4.728  1.3719  0.3956  1.2831
  719MOL0     O94823   4.353   7.338   4.782  0.6769 -0.7399 -0.3657
  719MOL0     C94824   4.292   7.096   4.674 -0.5986 -0.1380  0.4301
  719MOL0     C94825   4.256   6.966   4.627  0.3630 -0.7112 -0.5061
  719MOL0     N94826   3.975   6.279   4.736 -0.0565  0.7652 -0.2570
  719MOL0     N94827   4.000   6.175   4.818  0.3717 -0.5479 -0.1365
  719MOL0     C94828   3.301   6.048   5.681  0.2145  0.4184 -0.7173
  719MOL0     C94829   3.153   6.058   5.695  0.6958  0.3928  1.1088
  719MOL0     C94830   2.736   6.292   5.705  1.0196  0.6623  0.4739
  719MOL0     C94831   2.690   6.193   5.626 -0.4288 -0.3543 -0.6535
  719MOL0     C94832   2.544   6.181   5.599 -0.8514  0.0386 -0.3094
  719MOL0     C94833   2.455   6.242   5.688  0.4263 -0.5072 -0.4891
  719MOL0     O94834   2.320   6.200   5.692  0.1569  0.8138  0.0391
  719MOL0     C94835   2.222   6.303   5.702  0.2665 -0.0034 -0.3104
  719MOL0     C94836   2.092   6.264   5.634  0.3400  0.0574 -0.0042
  719MOL0     C94837   2.101   6.221   5.491  0.4491  0.3935 -0.0086
  719MOL0     C94838   1.956   6.171   5.440  0.2676 -0.6531 -0.2572
  719MOL0     C94839   1.895   6.054   5.504  0.4352  0.3265  0.2139
  719MOL0     C94840   1.831   5.957   5.556  0.2531  0.9939  0.1580
  719MOL0     C94841   2.504   6.334   5.783 -1.2989 -0.3614 -0.5836
  719MOL0     C94842   2.647   6.367   5.785  1.5087  1.0503 -0.3615
  719MOL0     H94843   3.134   6.391   5.645  1.7169  0.3888  0.6071
  719MOL0     H94844   3.365   6.377   5.633  1.9707 -0.8413 -0.4789
  719MOL0     H94845   3.555   5.977   5.586 -0.5143  0.2049 -0.9299
  719MOL0     H94846   3.689   6.093   5.620  0.9288  1.5354 -2.2038
  719MOL0     H94847   3.576   6.262   5.461  0.6420 -0.0824  2.6457
  719MOL0     H94848   3.473   6.141   5.397  0.8092 -1.4910 -1.0374
  719MOL0     H94849   3.756   6.046   5.380 -0.7465 -0.5012 -1.3652
  719MOL0     H94850   3.725   6.189   5.281 -0.5722  0.1688 -0.0431
  719MOL0     H94851   3.583   5.929   5.304 -1.2577  0.7935  0.6187
  719MOL0     H94852   3.554   6.039   5.173  0.3659  1.2793  0.5197
  719MOL0     H94853   3.711   5.861   5.093  1.2126 -1.8845  2.3972
  719MOL0     H94854   3.814   5.882   5.231 -0.7748 -0.3613  0.4091
  719MOL0     H94855   3.769   6.128   5.052  0.0287 -2.0465 -2.9568
  719MOL0     H94856   3.857   5.994   4.987  0.7726 -0.6296  1.5338
  719MOL0     H94857   3.957   6.126   5.235 -1.4412  0.5219 -1.4459
  719MOL0     H94858   4.007   5.968   5.152  2.2957  0.4484  1.6517
  719MOL0     H94859   4.130   6.057   4.987  1.4208  0.3486  2.0379
  719MOL0     H94860   4.153   6.184   5.096 -0.2245 -0.3875 -1.0011
  719MOL0     H94861   4.058   6.422   5.028  0.7461  1.7963 -1.5832
  719MOL0     H94862   3.908   6.579   4.846  1.0814  0.6726  0.7528
  719MOL0     H94863   3.921   6.548   4.676  1.2263  3.7130 -0.4633
  719MOL0     H94864   4.160   6.616   4.867 -2.9308  1.2891  1.1905
  719MOL0     H94865   4.070   6.732   4.786  2.5539  1.0920 -0.4703
  719MOL0     H94866   4.294   6.683   4.675  0.0412  0.8298  0.2393
  719MOL0     H94867   4.225   6.533   4.619 -2.6403 -0.3826 -2.0092
  719MOL0     H94868   4.114   6.657   4.450 -0.0760 -2.1229  0.4307
  719MOL0     H94869   4.256   6.749   4.466  0.8002 -0.3102  1.4381
  719MOL0     H94870   3.939   7.036   4.542  0.5783 -1.3668 -0.0068
  719MOL0     H94871   4.003   7.262   4.621 -1.0174 -1.1343  0.3766
  719MOL0     H94872   3.979   7.576   4.766  1.0397 -0.5745  1.0649
  719MOL0     H94873   3.989   7.817   4.818  1.0166 -0.5364  1.2326
  719MOL0     H94874   4.057   8.020   4.925 -1.0193 -1.8891  0.0854
  719MOL0     H94875   4.023   8.036   4.756  2.0545  0.9717 -0.9197
  719MOL0     H94876   4.162   8.237   4.744 -0.4447  0.3499 -0.2733
  719MOL0     H94877   4.231   8.209   4.909 -1.3965  2.3438  0.9082
  719MOL0     H94878   3.981   8.240   4.981 -3.4372 -0.4700 -1.3627
  719MOL0     H94879   3.966   8.333   4.837 -2.2614  2.5023  2.4977
  719MOL0     H94880   4.172   8.365   5.060 -0.1355 -0.6518 -1.0753
  719MOL0     H94881   4.201   8.449   4.908 -1.1051  1.3356 -0.7726
  719MOL0     H94882   3.956   8.471   5.099  1.5507 -0.3385  0.4448
  719MOL0     H94883   3.943   8.535   4.931  0.5746  1.3694 -0.5815
  719MOL0     H94884   4.162   8.659   4.972 -2.1763 -0.1058 -1.3761
  719MOL0     H94885   4.143   8.617   5.142  0.3714 -3.1124 -0.5594
  719MOL0     H94886   3.928   8.768   4.996  0.9437 -2.8038  0.8449
  719MOL0     H94887   3.953   8.782   5.165 -1.1843 -1.7749 -0.9586
  719MOL0     H94888   4.046   8.990   5.044 -1.4550 -0.6647  1.9872
  719MOL0     H94889   4.187   8.890   4.991  0.3174  0.6520  0.1228
  719MOL0     H94890   4.421   7.803   4.780 -1.5697  4.6429  2.6167
  719MOL0     H94891   4.397   7.561   4.712 -1.6026 -3.5498 -3.0844
  719MOL0     H94892   4.391   7.113   4.717 -0.9895 -0.7135  1.5864
  719MOL0     H94893   4.332   6.890   4.638 -1.3900 -2.5382 -0.4546
  719MOL0     H94894   3.351   5.952   5.688 -0.3302  0.1162 -0.9196
  719MOL0     H94895   3.094   5.974   5.730  0.0839  0.4786  0.3002
  719MOL0     H94896   2.757   6.132   5.566 -0.0248 -0.6441  0.0821
  719MOL0     H94897   2.507   6.128   5.512 -1.7699  2.3887 -1.4262
  719MOL0     H94898   2.256   6.389   5.643 -1.7310  1.2643  0.3002
  719MOL0     H94899   2.202   6.336   5.804  2.3920  2.5175 -0.5910
  719MOL0     H94900   2.052   6.194   5.708  4.5590 -0.7945  1.7782
  719MOL0     H94901   2.026   6.350   5.634  2.1014  1.4794  0.5452
  719MOL0     H94902   2.157   6.128   5.504 -0.6407  0.1973  4.9749
  719MOL0     H94903   2.156   6.287   5.423 -0.3384  1.8867  0.7709
  719MOL0     H94904   1.895   6.261   5.446  0.9396 -0.0714 -1.7494
  719MOL0     H94905   1.970   6.168   5.331  3.0279  1.4794 -0.0617
  719MOL0     H94906   1.780   5.878   5.607  3.2990 -0.3246  1.4325
  719MOL0     H94907   2.425   6.382   5.840 -1.5943  0.8874 -2.0009
  719MOL0     H94908   2.672   6.444   5.857 -3.9307  1.2102  1.8469
  720MOL0     O94909   0.257   6.392   3.605  0.4998 -0.3685  0.0269
  720MOL0     C94910   0.254   6.310   3.514  0.4698  0.5985  0.3338
  720MOL0     O94911   0.291   6.180   3.519 -0.4758 -0.3503  0.1538
  720MOL0     C94912   0.348   6.132   3.636 -1.5154  0.3956 -1.0968
  720MOL0     C94913   0.488   6.138   3.646 -0.6055 -0.0534  0.4771
  720MOL0     C94914   0.552   6.077   3.751 -0.4334 -0.0950 -0.2548
  720MOL0     C94915   0.488   5.997   3.847 -0.8025  0.7603  0.5380
  720MOL0     O94916   0.577   5.940   3.933  0.4261  0.0271 -0.2129
  720MOL0     C94917   0.519   5.810   3.980 -0.1004 -0.1070 -0.3931
  720MOL0     C94918   0.524   5.709   3.869  0.8703  0.7740 -0.4866
  720MOL0     C94919   0.655   5.701   3.792 -0.6077  0.2006  0.4270
  720MOL0     C94920   0.615   5.642   3.655 -0.4998  0.6107 -0.0773
  720MOL0     C94921   0.734   5.595   3.586  0.6322 -0.5414 -0.1772
  720MOL0     C94922   0.786   5.465   3.641  0.7043  0.2598 -0.3003
  720MOL0     C94923   0.857   5.384   3.528  0.3404  0.0873  0.3329
  720MOL0     C94924   0.933   5.266   3.584  0.2315  0.2593  0.3654
  720MOL0     N94925   1.013   5.210   3.478  0.8515  0.3614 -0.1190
  720MOL0     C94926   0.975   5.144   3.362 -0.1041 -0.1987  0.2598
  720MOL0     C94927   1.098   5.106   3.303  0.5573 -0.0117  0.4904
  720MOL0     C94928   1.091   5.018   3.180 -0.7082 -0.9871  0.1197
  720MOL0     C94929   1.213   5.030   3.084  0.9909 -0.6752  0.9033
  720MOL0     C94930   1.176   4.975   2.947 -0.3188 -0.0707 -0.1104
  720MOL0     C94931   1.245   5.044   2.836 -0.1798  0.1742  0.2705
  720MOL0     O94932   1.203   5.183   2.831  0.9003  0.5345  0.0771
  720MOL0     C94933   1.234   5.250   2.715  0.2514 -0.4463 -0.2561
  720MOL0     C94934   1.248   5.389   2.738 -0.0182  0.1570  0.4946
  720MOL0     C94935   1.276   5.476   2.634 -0.0134 -0.2888 -0.1573
  720MOL0     C94936   1.268   5.431   2.495 -1.0912 -0.3571 -0.8683
  720MOL0     C94937   1.292   5.526   2.379  0.3227  0.0590 -0.0136
  720MOL0     O94938   1.359   5.636   2.418 -0.1890  0.4657  0.2739
  720MOL0     C94939   1.350   5.749   2.352  0.0027 -0.8006  0.0261
  720MOL0     C94940   1.254   5.774   2.256  0.3829  0.6580  0.3161
  720MOL0     C94941   1.236   5.911   2.209  0.4520 -0.5087  0.3669
  720MOL0     C94942   1.316   6.023   2.258 -0.8804  0.1238 -0.1162
  720MOL0     O94943   1.304   6.155   2.230 -0.3772 -0.1257 -0.5289
  720MOL0     C94944   1.192   6.201   2.161  0.5027 -0.0680 -0.2941
  720MOL0     C94945   1.227   6.337   2.089 -0.8417  0.0192  0.5971
  720MOL0     C94946   1.198   6.469   2.171 -0.1552 -0.5638 -0.6366
  720MOL0     C94947   1.050   6.505   2.184 -0.1821 -0.2777  0.0287
  720MOL0     C94948   1.027   6.647   2.221  0.1969  0.6011  0.2030
  720MOL0     C94949   0.870   6.666   2.248 -0.3812 -0.3384 -0.3623
  720MOL0     C94950   0.844   6.815   2.249 -0.4008  0.1170  0.4467
  720MOL0     C94951   0.798   6.878   2.110  0.3306 -0.2175  0.7902
  720MOL0    Cl94952   0.817   7.055   2.107 -0.4797 -0.0468 -0.2498
  720MOL0     C94953   1.411   5.993   2.363  0.1122 -0.1303  0.0246
  720MOL0     C94954   1.422   5.863   2.403  0.3204 -0.8722  0.4773
  720MOL0     O94955   1.267   5.487   2.265  0.3244 -0.2406  0.2659
  720MOL0     C94956   1.243   5.290   2.478  1.1856  0.2997  0.8922
  720MOL0     C94957   1.234   5.202   2.585  0.4727  0.7022  0.5261
  720MOL0     N94958   1.203   5.144   3.385 -0.1012 -0.3751  0.0136
  720MOL0     N94959   1.147   5.193   3.488 -0.2806 -0.2452  0.6291
  720MOL0     C94960   0.349   5.975   3.824 -0.7502  0.4093 -0.0679
  720MOL0     C94961   0.281   6.049   3.727 -0.2176  0.2356 -0.1082
  720MOL0     C94962   0.218   6.361   3.374  0.9161  0.3675  0.9470
  720MOL0     C94963   0.202   6.281   3.259  0.4611 -0.3572 -0.6998
  720MOL0     C94964   0.184   6.334   3.133 -0.4446  0.1165 -0.6903
  720MOL0     C94965   0.173   6.471   3.116  0.2195  0.0767  0.5939
  720MOL0     O94966   0.154   6.540   2.994  0.1396 -0.3427  0.1372
  720MOL0     C94967   0.167   6.471   2.877  0.0257 -0.0702  1.0002
  720MOL0     C94968   0.131   6.568   2.758 -0.2204  0.5269 -0.1072
  720MOL0     C94969   0.224   6.695   2.775 -0.1394  0.7489  0.0427
  720MOL0     C94970   0.214   6.803   2.673 -1.3348 -0.8906 -0.4296
  720MOL0     C94971   0.328   6.897   2.712  0.2410 -0.8708  1.7629
  720MOL0     C94972   0.418   6.976   2.742 -0.4824  0.4836  0.4674
  720MOL0     C94973   0.181   6.555   3.227  0.2591  0.4119  0.3243
  720MOL0     C94974   0.195   6.501   3.352 -0.3196  0.1967 -0.8777
  720MOL0     H94975   0.553   6.195   3.580  1.5240 -5.3029 -2.6283
  720MOL0     H94976   0.655   6.089   3.783 -1.1859 -0.6160  2.6401
  720MOL0     H94977   0.419   5.822   4.023 -0.4979 -0.6022 -1.1548
  720MOL0     H94978   0.592   5.782   4.057 -1.1846  3.2992  2.1425
  720MOL0     H94979   0.456   5.746   3.792 -0.2389  4.8743  2.2119
  720MOL0     H94980   0.486   5.610   3.895  1.2742  0.5532 -0.7199
  720MOL0     H94981   0.733   5.645   3.843  0.3871  0.7428 -0.4636
  720MOL0     H94982   0.706   5.796   3.776  1.5000 -1.0743 -0.9342
  720MOL0     H94983   0.547   5.559   3.673  3.0802 -2.4615  0.6195
  720MOL0     H94984   0.563   5.723   3.604 -2.6324 -0.8177 -0.3041
  720MOL0     H94985   0.813   5.667   3.562  1.1964 -0.8470  0.7105
  720MOL0     H94986   0.693   5.568   3.488  0.4669  0.6721 -0.4522
  720MOL0     H94987   0.706   5.404   3.684  1.5037 -2.5860 -2.5257
  720MOL0     H94988   0.857   5.491   3.721 -2.5308  2.6661  2.0645
  720MOL0     H94989   0.798   5.336   3.449  1.4278 -2.8082  1.1501
  720MOL0     H94990   0.917   5.463   3.480  0.2529  1.1586  1.9178
  720MOL0     H94991   0.867   5.189   3.628  1.1038  0.3268  1.8606
  720MOL0     H94992   0.999   5.305   3.662 -0.1832  1.6683  0.0396
  720MOL0     H94993   0.873   5.130   3.326 -0.1584  2.7363 -0.9480
  720MOL0     H94994   0.995   5.047   3.136 -0.7340  1.1535  1.4382
  720MOL0     H94995   1.069   4.919   3.222  0.1181 -1.2500 -0.0465
  720MOL0     H94996   1.301   4.972   3.112  2.8641  1.2204 -0.7348
  720MOL0     H94997   1.243   5.135   3.075 -0.7658 -0.2033  0.1299
  720MOL0     H94998   1.199   4.869   2.956  2.9961  0.3488 -1.9832
  720MOL0     H94999   1.068   4.982   2.931 -0.2075  1.8687 -0.3344
  720MOL0     H95000   1.226   4.989   2.743  1.0884  0.7494 -0.3463
  720MOL0     H95001   1.354   5.036   2.838  0.0319  2.6154  1.1018
  720MOL0     H95002   1.253   5.422   2.841  2.4189  2.2231 -0.1987
  720MOL0     H95003   1.308   5.573   2.671 -2.8414  1.0330 -0.9511
  720MOL0     H95004   1.185   5.698   2.219 -1.7573  1.2908  2.6724
  720MOL0     H95005   1.152   5.925   2.142  2.5140 -0.0445 -2.2767
  720MOL0     H95006   1.099   6.213   2.217 -0.4845  2.7112 -2.3102
  720MOL0     H95007   1.166   6.128   2.084  1.9804 -0.1321 -0.7462
  720MOL0     H95008   1.167   6.350   1.999 -1.6027 -1.8413  0.7850
  720MOL0     H95009   1.331   6.325   2.058 -1.4185  1.0447 -1.9119
  720MOL0     H95010   1.252   6.550   2.121 -0.6024 -0.6956 -1.3423
  720MOL0     H95011   1.241   6.463   2.272 -0.5880  0.2342 -0.3914
  720MOL0     H95012   1.013   6.485   2.083 -0.0087  1.0789 -0.3265
  720MOL0     H95013   0.997   6.436   2.250 -2.0896  0.2784 -0.8477
  720MOL0     H95014   1.072   6.707   2.142 -1.3158 -0.9247 -1.9623
  720MOL0     H95015   1.080   6.669   2.313 -2.4614 -0.7253  2.2079
  720MOL0     H95016   0.846   6.627   2.347 -1.4446  1.6124  0.1964
  720MOL0     H95017   0.808   6.613   2.174 -1.3639 -0.2885  0.4157
  720MOL0     H95018   0.779   6.840   2.334  1.5700  0.7930  1.8330
  720MOL0     H95019   0.944   6.856   2.261 -0.1014  0.4483 -2.5075
  720MOL0     H95020   0.693   6.861   2.084  0.2025  3.8938 -2.4100
  720MOL0     H95021   0.860   6.839   2.029  3.2629  2.8957  1.3075
  720MOL0     H95022   1.464   6.079   2.404 -0.5399  0.4901 -0.4222
  720MOL0     H95023   1.491   5.845   2.484 -0.1379 -1.2352  0.7937
  720MOL0     H95024   1.229   5.253   2.377 -0.1507  0.9329  0.8165
  720MOL0     H95025   1.198   5.102   2.559 -1.5906  1.6844 -0.6136
  720MOL0     H95026   0.281   5.922   3.890 -2.7424  0.4157 -2.0188
  720MOL0     H95027   0.172   6.050   3.729 -0.2924 -1.6894 -0.9010
  720MOL0     H95028   0.221   6.175   3.273 -2.0043 -1.0469 -1.8795
  720MOL0     H95029   0.183   6.267   3.048 -1.2842  2.0777 -2.3258
  720MOL0     H95030   0.099   6.385   2.867  1.1144 -1.1377  2.3466
  720MOL0     H95031   0.268   6.429   2.866 -1.0509 -2.5346 -0.4971
  720MOL0     H95032   0.152   6.529   2.658 -1.7693 -1.4077  0.2529
  720MOL0     H95033   0.023   6.585   2.768  0.0716  2.2716  0.3771
  720MOL0     H95034   0.324   6.652   2.774 -1.6427 -3.4819  2.9559
  720MOL0     H95035   0.212   6.740   2.874  1.4321  1.1718  0.0644
  720MOL0     H95036   0.231   6.779   2.568  2.0057  0.9261 -0.4292
  720MOL0     H95037   0.113   6.844   2.686 -0.6381  0.8092  0.0004
  720MOL0     H95038   0.496   7.048   2.754  0.0113  0.6584 -2.7776
  720MOL0     H95039   0.188   6.662   3.214 -0.6511  0.4275 -0.1390
  720MOL0     H95040   0.194   6.568   3.437 -2.6068  0.2677 -0.9022
  721MOL0     O95041   7.625   0.932   7.408  0.8468  0.5182 -0.5232
  721MOL0     C95042   7.684   1.024   7.467 -0.5574 -0.3371 -0.0385
  721MOL0     O95043   7.762   1.124   7.406 -0.1750  0.4916  0.0796
  721MOL0     C95044   7.758   1.135   7.267 -0.1469 -0.5506  0.4947
  721MOL0     C95045   7.874   1.169   7.211  0.6758  0.2286  0.5521
  721MOL0     C95046   7.885   1.198   7.071  0.2750  0.3065 -0.0377
  721MOL0     C95047   7.773   1.185   6.991 -0.5196  0.6171  0.3398
  721MOL0     O95048   7.767   1.190   6.856 -0.7497  0.0122  0.1976
  721MOL0     C95049   7.871   1.120   6.790 -0.4078  0.4684 -0.1730
  721MOL0     C95050   7.820   1.034   6.675 -0.1257 -0.4772 -0.2499
  721MOL0     C95051   7.932   0.953   6.616  0.3654  0.7484 -0.6813
  721MOL0     C95052   7.910   0.886   6.484 -0.8501 -0.2945 -0.1688
  721MOL0     C95053   8.026   0.788   6.458 -0.1019  0.3637 -0.0826
  721MOL0     C95054   8.007   0.636   6.488  0.1705  0.5019  1.2807
  721MOL0     C95055   7.917   0.557   6.389 -0.3068 -0.3612  0.5399
  721MOL0     C95056   7.953   0.585   6.240  1.0820  0.1754 -0.7662
  721MOL0     N95057   7.887   0.497   6.151 -0.1225  0.1302 -0.6258
  721MOL0     C95058   7.940   0.444   6.038 -0.6296  0.5035  0.0905
  721MOL0     C95059   7.847   0.352   6.009 -0.1919 -0.0340 -0.2571
  721MOL0     C95060   7.841   0.279   5.877 -0.4253  0.3936 -0.0280
  721MOL0     C95061   7.932   0.154   5.880 -0.0464  0.2108  0.3567
  721MOL0     C95062   7.920   0.071   5.746 -0.2652 -0.2629  0.2398
  721MOL0     C95063   7.998  -0.067   5.770 -0.3653 -0.8786  0.5438
  721MOL0     O95064   8.135  -0.032   5.797  0.7119  0.0218 -0.4362
  721MOL0     C95065   8.214  -0.002   5.691 -0.3524 -0.3426  0.0634
  721MOL0     C95066   8.324   0.071   5.745 -0.0342 -0.1995  0.0358
  721MOL0     C95067   8.435   0.099   5.657 -0.3926 -0.0706  0.6838
  721MOL0     C95068   8.422   0.075   5.519 -0.4106  0.3468  0.4547
  721MOL0     C95069   8.528   0.126   5.436 -0.6202  0.6301  0.8661
  721MOL0     O95070   8.614   0.213   5.489 -0.3855  0.2471 -0.3415
  721MOL0     C95071   8.695   0.291   5.406  0.3142 -0.9868  0.5436
  721MOL0     C95072   8.638   0.381   5.317 -0.8142 -0.3600 -0.1570
  721MOL0     C95073   8.722   0.447   5.229 -0.1627 -1.0230 -0.0983
  721MOL0     C95074   8.865   0.447   5.238  0.8846 -1.0398 -1.0000
  721MOL0     O95075   8.937   0.529   5.167  0.3823 -0.2935  0.7453
  721MOL0     C95076   9.080   0.522   5.173  0.8027 -0.1051 -0.0855
  721MOL0     C95077   9.150   0.643   5.110  1.0113 -0.4752 -0.2899
  721MOL0     C95078   9.306   0.625   5.102 -0.7743  0.6649  0.1316
  721MOL0     C95079   9.372   0.761   5.074  0.3924 -0.4032  0.1711
  721MOL0     C95080   9.525   0.747   5.034 -0.6735  0.6638 -0.4801
  721MOL0     C95081   9.587   0.876   4.969 -0.3481  0.5372 -0.1196
  721MOL0     C95082   9.542   0.903   4.826 -0.0606  0.4597 -0.0209
  721MOL0     C95083   9.594   1.028   4.758  0.8399 -0.1217 -0.3555
  721MOL0    Cl95084   9.768   1.047   4.773 -0.1867 -0.4024 -0.3806
  721MOL0     C95085   8.917   0.349   5.332  0.0234  0.4165 -0.1061
  721MOL0     C95086   8.827   0.270   5.413  0.3456  0.5491 -0.5577
  721MOL0     O95087   8.519   0.088   5.321  0.4602  0.5772  0.0804
  721MOL0     C95088   8.303   0.020   5.466 -0.1862  0.2245 -0.4548
  721MOL0     C95089   8.198  -0.024   5.549  0.1227 -0.5119 -0.1343
  721MOL0     N95090   7.742   0.345   6.094  1.3723  0.4874 -1.0540
  721MOL0     N95091   7.771   0.441   6.177 -0.0952  0.5536  0.0162
  721MOL0     C95092   7.650   1.163   7.048 -0.4712 -0.8313 -0.5341
  721MOL0     C95093   7.646   1.138   7.181  0.4584  0.4208 -0.5584
  721MOL0     C95094   7.680   1.022   7.627 -0.5288  0.3361  0.8298
  721MOL0     C95095   7.606   0.919   7.691  0.6189  0.3979  0.1645
  721MOL0     C95096   7.594   0.913   7.830 -0.1529 -0.5246 -0.4852
  721MOL0     C95097   7.655   1.013   7.909  0.2102  0.3418  0.0802
  721MOL0     O95098   7.651   1.013   8.047  0.1474 -1.0728  0.1005
  721MOL0     C95099   7.563   0.917   8.116  0.4580  0.0497 -0.8196
  721MOL0     C95100   7.589   0.940   8.265 -1.2892 -1.1900 -0.2774
  721MOL0     C95101   7.484   0.868   8.358  0.7777 -0.1313 -0.6440
  721MOL0     C95102   7.494   0.904   8.507 -1.2359 -1.3410 -0.1028
  721MOL0     C95103   7.439   0.811   8.601  0.5938  1.1191 -0.3824
  721MOL0     C95104   7.384   0.730   8.677 -0.4581 -0.3315 -0.9477
  721MOL0     C95105   7.709   1.122   7.845 -0.1591 -0.5084 -0.5074
  721MOL0     C95106   7.744   1.115   7.709  0.5024  0.6932 -0.1320
  721MOL0     H95107   7.970   1.162   7.262  0.2901  0.1049  1.2721
  721MOL0     H95108   7.979   1.224   7.023  1.0899 -0.9894  0.7598
  721MOL0     H95109   7.930   1.062   6.862 -1.9693  0.6529  1.3095
  721MOL0     H95110   7.940   1.197   6.754 -1.1964  1.2040 -0.1384
  721MOL0     H95111   7.782   1.099   6.595  1.9335  1.7997  0.5097
  721MOL0     H95112   7.734   0.970   6.699  0.3456 -0.0764  3.0043
  721MOL0     H95113   7.956   0.877   6.691  2.3350  3.6008  1.8350
  721MOL0     H95114   8.016   1.018   6.590  0.9276 -0.2396 -1.3860
  721MOL0     H95115   7.809   0.845   6.476 -1.8646  1.8608  0.5962
  721MOL0     H95116   7.910   0.968   6.412 -1.1081 -0.2985 -0.1737
  721MOL0     H95117   8.121   0.817   6.504 -0.1056  0.8051 -0.3457
  721MOL0     H95118   8.049   0.791   6.351 -0.3832 -1.7560 -0.2597
  721MOL0     H95119   7.968   0.621   6.589 -0.8366 -2.3056  0.5523
  721MOL0     H95120   8.102   0.581   6.494  0.5946  0.4506 -2.8713
  721MOL0     H95121   7.918   0.451   6.417 -3.3448 -0.5662  0.2099
  721MOL0     H95122   7.814   0.593   6.401 -1.0349 -2.2059  0.2315
  721MOL0     H95123   8.062   0.578   6.239  1.1329  0.4247  0.7005
  721MOL0     H95124   7.924   0.686   6.210 -1.7093 -0.9901 -2.4393
  721MOL0     H95125   8.027   0.475   5.980 -1.9380  0.5639 -1.9548
  721MOL0     H95126   7.863   0.336   5.787  0.2110 -0.6147 -0.5234
  721MOL0     H95127   7.737   0.247   5.862 -0.4965 -0.1098  1.3291
  721MOL0     H95128   7.910   0.081   5.957  2.7999 -1.2274 -0.0645
  721MOL0     H95129   8.036   0.181   5.902 -0.4762  2.4207 -0.0317
  721MOL0     H95130   7.815   0.043   5.732  0.1865 -1.5570 -0.7260
  721MOL0     H95131   7.956   0.111   5.651 -0.0156  3.1781  1.6672
  721MOL0     H95132   7.976  -0.128   5.681  0.6378  1.0381 -1.1111
  721MOL0     H95133   7.959  -0.126   5.853  0.6029 -3.0211 -0.4498
  721MOL0     H95134   8.312   0.108   5.846  0.2767  2.5879 -0.8772
  721MOL0     H95135   8.522   0.150   5.698  0.2123  0.3514 -1.0683
  721MOL0     H95136   8.532   0.399   5.309 -0.6740  2.1428  2.3129
  721MOL0     H95137   8.674   0.517   5.161 -0.3784 -1.0217  0.0556
  721MOL0     H95138   9.103   0.435   5.111 -0.2779 -0.5401  0.0982
  721MOL0     H95139   9.124   0.504   5.272  3.4175 -3.8714 -1.7029
  721MOL0     H95140   9.124   0.733   5.167  4.3819  0.2542  0.2950
  721MOL0     H95141   9.110   0.644   5.009  3.3602 -0.9590 -1.2878
  721MOL0     H95142   9.317   0.548   5.025 -0.0801  0.8272  0.0581
  721MOL0     H95143   9.339   0.597   5.202 -0.4197  0.3184 -0.0767
  721MOL0     H95144   9.321   0.807   4.989  1.8444  1.8043  0.3944
  721MOL0     H95145   9.357   0.829   5.158 -2.4891  1.3530 -1.6181
  721MOL0     H95146   9.541   0.652   4.983  3.2282  2.2750 -2.7208
  721MOL0     H95147   9.585   0.732   5.124  1.5021  1.5336 -1.7030
  721MOL0     H95148   9.695   0.859   4.975 -0.8882 -4.0286 -0.0357
  721MOL0     H95149   9.551   0.957   5.033 -0.1234 -0.4114  1.2494
  721MOL0     H95150   9.580   0.826   4.758  2.7112  2.3982 -0.8242
  721MOL0     H95151   9.432   0.900   4.820  0.0132  0.2584 -2.0788
  721MOL0     H95152   9.546   1.115   4.806 -1.2777 -0.8598 -1.0133
  721MOL0     H95153   9.574   1.049   4.653  3.2236  1.9377 -0.4870
  721MOL0     H95154   9.021   0.322   5.348 -0.5158 -0.0212  3.7514
  721MOL0     H95155   8.874   0.201   5.482 -1.8023  1.7966  2.3216
  721MOL0     H95156   8.293   0.013   5.358  0.1705 -0.1591 -0.4648
  721MOL0     H95157   8.113  -0.079   5.510 -0.2832  0.0746 -0.0964
  721MOL0     H95158   7.560   1.162   6.986 -1.1578  0.0577  0.4094
  721MOL0     H95159   7.554   1.106   7.230  0.7001  0.9791  0.2945
  721MOL0     H95160   7.546   0.852   7.630  0.2125 -0.9062  1.9255
  721MOL0     H95161   7.548   0.822   7.869  1.2042 -1.6693 -1.4317
  721MOL0     H95162   7.564   0.815   8.075 -4.7534 -0.7069  0.2341
  721MOL0     H95163   7.460   0.941   8.089  0.0311 -2.1341 -1.3182
  721MOL0     H95164   7.688   0.911   8.301 -0.8788 -1.9986 -1.9601
  721MOL0     H95165   7.579   1.049   8.274  2.0648 -0.8742  1.1624
  721MOL0     H95166   7.499   0.761   8.340  2.6887 -0.0745  0.3898
  721MOL0     H95167   7.379   0.890   8.334  0.6681 -0.0547 -0.1072
  721MOL0     H95168   7.596   0.931   8.537 -0.3223 -1.7601 -2.5690
  721MOL0     H95169   7.440   0.998   8.523  0.3306 -0.5743  0.9432
  721MOL0     H95170   7.356   0.650   8.742  1.9142  0.8027  1.7085
  721MOL0     H95171   7.739   1.213   7.895  1.2664  0.0631 -2.2815
  721MOL0     H95172   7.790   1.202   7.664 -0.7253  1.3897 -0.1033
  722MOL0     O95173   0.763  10.026   9.662 -0.5571 -0.6864  0.6626
  722MOL0     C95174   0.886  10.032   9.683 -0.5286 -0.0501 -0.8549
  722MOL0     O95175   0.970  10.077   9.590 -1.2659  0.1070  0.7853
  722MOL0     C95176   0.916  10.137   9.480 -0.4602 -0.3175  0.2714
  722MOL0     C95177   0.956  10.097   9.352  0.4942  0.9128 -0.5266
  722MOL0     C95178   0.911  10.153   9.239 -0.1948 -0.5442  0.1953
  722MOL0     C95179   0.813  10.260   9.248  0.1361 -0.2724  1.1561
  722MOL0     O95180   0.737  10.299   9.139  0.5135 -0.4677  0.0506
  722MOL0     C95181   0.815  10.332   9.019  0.8280  1.3853 -0.0520
  722MOL0     C95182   0.729  10.423   8.935  0.0053 -0.9099 -0.2903
  722MOL0     C95183   0.773  10.407   8.785 -0.3959 -0.4983  0.8042
  722MOL0     C95184   0.724  10.521   8.689 -0.5101 -0.6481 -1.1050
  722MOL0     C95185   0.775  10.504   8.545 -0.0127 -1.5297 -0.4239
  722MOL0     C95186   0.738  10.373   8.478 -0.9585  0.6418 -0.4303
  722MOL0     C95187   0.579  10.353   8.462 -0.6927 -0.4205  0.1046
  722MOL0     C95188   0.542  10.208   8.411  0.6162  0.5616 -0.1455
  722MOL0     N95189   0.570  10.209   8.267 -0.2708 -0.3971 -0.5410
  722MOL0     C95190   0.682  10.182   8.206  0.0410  0.5035 -0.5275
  722MOL0     C95191   0.658  10.196   8.077 -0.7606  1.5140 -0.3774
  722MOL0     C95192   0.757  10.182   7.964 -0.3034  0.1796 -0.7448
  722MOL0     C95193   0.744  10.040   7.895 -0.1190  0.3759  0.1104
  722MOL0     C95194   0.773   9.923   8.000 -0.0562 -0.3675 -0.2458
  722MOL0     C95195   0.718   9.789   7.949  0.8733  0.3712 -0.0974
  722MOL0     O95196   0.755   9.778   7.807 -0.4715 -0.4705  0.2463
  722MOL0     C95197   0.885   9.734   7.791  1.1794  0.6083 -0.7527
  722MOL0     C95198   0.981   9.683   7.884  0.2004 -0.1675 -0.3300
  722MOL0     C95199   1.111   9.648   7.851 -0.3244  0.1197 -0.1279
  722MOL0     C95200   1.153   9.669   7.718 -0.2882  0.3578  0.3089
  722MOL0     C95201   1.297   9.650   7.684  0.2719 -0.8132  0.4401
  722MOL0     O95202   1.332   9.671   7.556  0.0757 -0.1310 -0.9701
  722MOL0     C95203   1.438   9.611   7.505 -0.2486 -0.5489 -0.0451
  722MOL0     C95204   1.551   9.468   7.611 -1.2633  0.5031  0.1488
  722MOL0     C95205   1.715   9.373   7.515  0.4189  0.6117  0.1633
  722MOL0     C95206   1.764   9.421   7.322 -0.2651 -0.3578  0.4030
  722MOL0     O95207   1.872   9.364   7.264  1.1851 -0.0591  1.3050
  722MOL0     C95208   1.886   9.390   7.119  0.2515 -0.0541  0.1795
  722MOL0     C95209   2.024   9.318   7.077  0.3683 -1.1320 -0.0843
  722MOL0     C95210   2.051   9.202   7.166  0.6498 -0.6779  0.0916
  722MOL0     C95211   2.168   9.112   7.147  0.0079  0.4483  0.4127
  722MOL0     C95212   2.165   8.975   7.236  0.5905  0.1694 -0.4313
  722MOL0     C95213   2.244   8.869   7.171 -1.0750  0.1928  0.1237
  722MOL0     C95214   2.208   8.726   7.238 -0.6406  0.1673 -0.4229
  722MOL0     C95215   2.328   8.634   7.267  0.3258 -0.0293 -1.2819
  722MOL0    Cl95216   2.382   8.567   7.108  0.1697  0.5739 -0.1483
  722MOL0     C95217   1.654   9.574   7.216 -1.2171  0.0074  0.4365
  722MOL0     C95218   1.495   9.670   7.309  0.5452 -0.0052 -0.1969
  722MOL0     O95219   1.378   9.625   7.767 -0.0630 -0.0014 -0.4637
  722MOL0     C95220   1.058   9.705   7.625 -0.0431 -0.7659  0.2811
  722MOL0     C95221   0.930   9.743   7.661 -1.0616  1.0184  0.1420
  722MOL0     N95222   0.524  10.207   8.061  0.3947 -0.3426  0.2285
  722MOL0     N95223   0.472  10.224   8.174  0.5492 -0.1696  0.5963
  722MOL0     C95224   0.775  10.302   9.379 -0.4706 -0.4966  1.0702
  722MOL0     C95225   0.844  10.253   9.487 -0.8866 -0.2195 -0.4887
  722MOL0     C95226   0.944  10.011   9.825 -0.6382 -0.7970 -0.3350
  722MOL0     C95227   0.861   9.975   9.927  0.7371  0.3546 -0.7169
  722MOL0     C95228   0.910   9.966  10.056  0.4261 -0.1441 -0.6319
  722MOL0     C95229   1.044   9.998  10.091  0.0102 -0.4972 -1.0169
  722MOL0     O95230   1.113   9.979  10.212  0.3130  0.3995 -0.1082
  722MOL0     C95231   1.052   9.878  10.295  1.0523 -1.1098  0.4736
  722MOL0     C95232   1.143   9.803  10.386 -0.4111 -0.1940 -0.5651
  722MOL0     C95233   1.065   9.722  10.491 -0.3175 -0.9670  0.5200
  722MOL0     C95234   0.979   9.613  10.431 -0.0434  1.3645 -0.4254
  722MOL0     C95235   0.905   9.539  10.533 -0.6179 -0.8191 -0.0291
  722MOL0     C95236   0.868   9.477  10.630 -0.8347  0.0391  0.8243
  722MOL0     C95237   1.132  10.031   9.992 -0.2312 -0.6619  0.0923
  722MOL0     C95238   1.081  10.038   9.858 -0.1495  0.7980  0.0823
  722MOL0     H95239   1.015  10.007   9.353 -3.0937 -1.6842  0.7481
  722MOL0     H95240   0.942  10.111   9.144  1.8313 -0.3996  0.7449
  722MOL0     H95241   0.845  10.242   8.966  0.0257  0.6382  0.7211
  722MOL0     H95242   0.906  10.383   9.052  0.4854  2.1023 -0.1972
  722MOL0     H95243   0.736  10.527   8.968  0.9485 -1.1561  0.3486
  722MOL0     H95244   0.628  10.381   8.942 -0.2889  0.0221  1.7361
  722MOL0     H95245   0.743  10.307   8.750  2.5658 -1.0578 -0.4777
  722MOL0     H95246   0.882  10.397   8.776 -0.6312 -2.0601 -1.5358
  722MOL0     H95247   0.616  10.535   8.698 -0.0630  1.9356  1.8395
  722MOL0     H95248   0.758  10.613   8.737  2.5361 -2.8757  1.3517
  722MOL0     H95249   0.884  10.506   8.546  0.0077  0.1234  1.9175
  722MOL0     H95250   0.741  10.591   8.488 -0.3173  0.8794  3.1314
  722MOL0     H95251   0.788  10.290   8.527  1.4130  1.0091 -2.0548
  722MOL0     H95252   0.783  10.390   8.380  3.0719 -1.2038  0.8993
  722MOL0     H95253   0.536  10.357   8.562 -0.8192 -0.9878  0.0764
  722MOL0     H95254   0.537  10.434   8.402  0.0807  0.1240  0.2904
  722MOL0     H95255   0.435  10.190   8.421  0.7565 -0.0046  0.3532
  722MOL0     H95256   0.601  10.130   8.460 -0.1272 -0.3336 -0.6446
  722MOL0     H95257   0.776  10.171   8.259 -0.9345  2.6326  1.8875
  722MOL0     H95258   0.862  10.186   7.996 -0.0893  0.3761 -1.4573
  722MOL0     H95259   0.743  10.255   7.884  0.5867  1.2973  0.0801
  722MOL0     H95260   0.813  10.014   7.814 -2.6300 -0.0159 -2.0295
  722MOL0     H95261   0.646  10.033   7.847 -1.3135  1.4218  2.2840
  722MOL0     H95262   0.879   9.910   8.022  0.3224  2.9233  0.3505
  722MOL0     H95263   0.731   9.950   8.097 -0.3108  0.2245 -0.5108
  722MOL0     H95264   0.609   9.797   7.959  0.8730  0.2764 -0.0213
  722MOL0     H95265   0.754   9.703   8.006  0.9524  0.9767  0.7902
  722MOL0     H95266   0.959   9.656   7.987 -1.6825  1.6419 -0.1893
  722MOL0     H95267   1.176   9.613   7.930  2.4638  3.8306 -0.4991
  722MOL0     H95268   1.532   9.428   7.710 -3.5630  0.4298 -0.2832
  722MOL0     H95269   1.774   9.297   7.565 -0.0372  0.1759  0.0475
  722MOL0     H95270   1.889   9.494   7.087  2.2483 -0.6872 -1.9773
  722MOL0     H95271   1.803   9.358   7.056  0.8835  1.7835 -1.6872
  722MOL0     H95272   2.108   9.387   7.091  0.3522 -1.0196 -0.5382
  722MOL0     H95273   2.023   9.276   6.977  0.8001 -1.9830  0.2617
  722MOL0     H95274   1.972   9.127   7.154  2.1709 -2.4333  0.5646
  722MOL0     H95275   2.061   9.245   7.266  1.8904  0.5630 -0.5422
  722MOL0     H95276   2.178   9.091   7.040 -1.1672 -3.8427  0.9419
  722MOL0     H95277   2.259   9.167   7.171  0.5533 -0.1041 -0.3273
  722MOL0     H95278   2.062   8.949   7.262  0.1034  3.3168  1.3512
  722MOL0     H95279   2.210   9.003   7.332 -0.8298  4.0094 -0.6707
  722MOL0     H95280   2.352   8.879   7.178 -1.0286 -0.6778  0.9351
  722MOL0     H95281   2.219   8.868   7.065 -1.2224 -0.5847  0.1584
  722MOL0     H95282   2.155   8.754   7.330  1.9712 -0.6128  1.4218
  722MOL0     H95283   2.137   8.681   7.168 -0.7972  1.0657 -0.8533
  722MOL0     H95284   2.278   8.550   7.316 -0.3592 -0.1927 -2.2226
  722MOL0     H95285   2.410   8.674   7.327 -2.0448  0.8196  1.6483
  722MOL0     H95286   1.676   9.594   7.112  0.3318  0.8919  0.9030
  722MOL0     H95287   1.442   9.748   7.255  0.8117  1.1409  1.1242
  722MOL0     H95288   1.085   9.729   7.523 -1.4408 -1.1551 -0.2135
  722MOL0     H95289   0.860   9.785   7.590  1.1208  2.3050 -1.3489
  722MOL0     H95290   0.704  10.378   9.411  2.3630  1.8564  2.1541
  722MOL0     H95291   0.809  10.293   9.582  1.6453  0.8794  0.0586
  722MOL0     H95292   0.754   9.957   9.920  0.4661  1.7308 -0.3825
  722MOL0     H95293   0.837   9.933  10.129  0.1276 -1.1098 -1.3425
  722MOL0     H95294   1.004   9.799  10.236 -1.1623 -2.4039  3.7471
  722MOL0     H95295   0.973   9.920  10.357  1.9106 -0.0981  0.9251
  722MOL0     H95296   1.209   9.746  10.320  0.0656  1.9867 -2.0820
  722MOL0     H95297   1.197   9.880  10.442  1.1018  0.2782 -2.5489
  722MOL0     H95298   1.000   9.790  10.547  1.0917 -0.1419  1.2276
  722MOL0     H95299   1.131   9.675  10.565  0.3611  0.5615  0.9296
  722MOL0     H95300   0.916   9.634  10.344 -2.8374 -4.6244 -0.3624
  722MOL0     H95301   1.058   9.553  10.386 -0.3569 -1.3432  2.2666
  722MOL0     H95302   0.847   9.417  10.717 -2.4628 -0.3077  0.2375
  722MOL0     H95303   1.236  10.061  10.003  0.0307 -1.6114  0.2539
  722MOL0     H95304   1.154  10.077   9.788 -0.0057 -1.4489 -1.1365
  723MOL0     O95305   2.093  10.142   7.544  0.5933  0.1488  0.0890
  723MOL0     C95306   2.182  10.200   7.605 -0.1239 -0.0125  0.6686
  723MOL0     O95307   2.296  10.266   7.543 -0.2218  0.4188 -0.1062
  723MOL0     C95308   2.309  10.267   7.411 -0.0992 -0.2069 -0.2070
  723MOL0     C95309   2.431  10.327   7.354  0.4050 -1.1907  0.4497
  723MOL0     C95310   2.451  10.343   7.217 -1.3073 -0.8338  1.2800
  723MOL0     C95311   2.368  10.283   7.119 -0.8240 -0.6633 -0.2328
  723MOL0     O95312   2.377  10.288   6.979 -0.0296  0.7904 -0.1366
  723MOL0     C95313   2.491  10.359   6.932 -1.2539  0.4858 -1.1681
  723MOL0     C95314   2.505  10.339   6.781  0.4106 -0.3597  1.5872
  723MOL0     C95315   2.618  10.412   6.721  0.6801 -0.2615 -0.6485
  723MOL0     C95316   2.600  10.393   6.568 -0.0123  0.3893  0.1771
  723MOL0     C95317   2.710  10.468   6.500  0.2134 -0.2062  0.1934
  723MOL0     C95318   2.679  10.467   6.341 -0.1603 -0.3122 -0.1846
  723MOL0     C95319   2.795  10.519   6.265  0.0671 -0.2324  0.0834
  723MOL0     C95320   2.787  10.500   6.116 -0.2151  0.6243 -1.1866
  723MOL0     N95321   2.663  10.556   6.061  0.2823 -0.6712 -0.0831
  723MOL0     C95322   2.556  10.486   5.997 -0.1695 -1.1396 -0.1227
  723MOL0     C95323   2.474  10.590   5.958 -1.0579 -0.9368 -0.1980
  723MOL0     C95324   2.357  10.573   5.869  0.8920  0.2038  0.4576
  723MOL0     C95325   2.221  10.577   5.951  0.6592  0.5696 -0.7263
  723MOL0     C95326   2.184  10.434   6.000 -0.0380  0.5325  0.2710
  723MOL0     C95327   2.041  10.437   6.057  0.3917  0.2562 -0.1036
  723MOL0     O95328   1.974  10.313   6.060  0.2824  1.0806  0.3578
  723MOL0     C95329   1.856  10.296   6.129 -1.3692  0.3676  0.0222
  723MOL0     C95330   1.786  10.178   6.114 -0.1648  0.6096 -0.3765
  723MOL0     C95331   1.661  10.160   6.169 -1.0433  0.3253 -0.1312
  723MOL0     C95332   1.605  10.258   6.247  0.4329  0.5065 -0.5098
  723MOL0     C95333   1.476  10.232   6.319  0.5745 -1.3193 -0.5922
  723MOL0     O95334   1.460  10.102   6.358 -0.1049 -0.2104  0.0152
  723MOL0     C95335   1.349  10.083   6.442 -0.8091  0.0002  0.3080
  723MOL0     C95336   1.273   9.967   6.426  1.1391  0.5519 -0.0278
  723MOL0     C95337   1.182   9.930   6.534 -0.8523  0.4176 -0.3469
  723MOL0     C95338   1.161  10.005   6.647 -0.1268 -1.1466  0.3172
  723MOL0     O95339   1.087   9.965   6.750  0.9131  0.5324 -0.2720
  723MOL0     C95340   0.986   9.869   6.723 -0.1523  1.2362 -0.1826
  723MOL0     C95341   0.869   9.871   6.825  0.5807  0.6421  0.4716
  723MOL0     C95342   0.740   9.794   6.786  1.2909  0.2698  0.4756
  723MOL0     C95343   0.620   9.842   6.870 -0.5314  0.3856 -0.4772
  723MOL0     C95344   0.579   9.993   6.858  0.5741 -0.9088 -0.1067
  723MOL0     C95345   0.446  10.024   6.931  0.5159  0.7435  1.0993
  723MOL0     C95346   0.331   9.936   6.874  0.0429  0.2568 -0.2467
  723MOL0     C95347   0.186  10.008   6.889 -1.1882 -0.1405 -0.5216
  723MOL0    Cl95348   0.067   9.881   6.873 -0.2194  0.0773  0.0471
  723MOL0     C95349   1.245  10.115   6.660 -0.6383 -0.7640  0.0153
  723MOL0     C95350   1.339  10.156   6.558  0.2484  0.3436 -0.3514
  723MOL0     O95351   1.399  10.332   6.329 -0.4854  0.2944  0.1518
  723MOL0     C95352   1.659  10.382   6.244  0.3799  0.2840 -0.2795
  723MOL0     C95353   1.791  10.404   6.189  0.8760  0.0520 -0.2156
  723MOL0     N95354   2.526  10.709   5.997  0.2805 -0.4547  0.2416
  723MOL0     N95355   2.634  10.688   6.062  0.3571 -1.4071 -0.8228
  723MOL0     C95356   2.265  10.207   7.170  0.1399 -0.4015 -0.3124
  723MOL0     C95357   2.229  10.203   7.309 -0.4859  0.5460  0.4537
  723MOL0     C95358   2.178  10.205   7.754 -0.6498  0.2968  0.0335
  723MOL0     C95359   2.097  10.109   7.822  0.2449 -0.6403 -0.3687
  723MOL0     C95360   2.102  10.103   7.960  0.4742  0.5326  0.5603
  723MOL0     C95361   2.183  10.198   8.031  0.6270  0.1226  0.0007
  723MOL0     O95362   2.200  10.199   8.166 -0.4974  0.2357 -0.6248
  723MOL0     C95363   2.085  10.167   8.240  0.0271 -0.7659 -0.1233
  723MOL0     C95364   1.962  10.265   8.216  0.4756  0.3484  0.2980
  723MOL0     C95365   1.843  10.198   8.289  0.8623  0.8802  0.4416
  723MOL0     C95366   1.705  10.281   8.300 -0.7286  1.7582 -0.9470
  723MOL0     C95367   1.659  10.354   8.184  0.8103  0.5406  0.0155
  723MOL0     C95368   1.606  10.406   8.092  0.6367  0.1564  0.2614
  723MOL0     C95369   2.247  10.299   7.962 -0.2741 -0.7462 -0.4448
  723MOL0     C95370   2.242  10.306   7.827 -0.6149 -0.8448 -0.6109
  723MOL0     H95371   2.508  10.379   7.410  1.0066  1.6526 -2.6999
  723MOL0     H95372   2.540  10.398   7.190 -4.5692  3.6723 -1.6215
  723MOL0     H95373   2.582  10.320   6.978 -1.6034  0.0414 -0.8504
  723MOL0     H95374   2.483  10.464   6.960 -2.5184 -0.2781  1.6630
  723MOL0     H95375   2.415  10.381   6.737  2.7694  0.8462 -2.6111
  723MOL0     H95376   2.517  10.231   6.774 -2.1747 -0.6172 -0.0830
  723MOL0     H95377   2.710  10.368   6.760  2.0648  3.3812  0.5647
  723MOL0     H95378   2.622  10.520   6.739 -1.2275  0.1425 -2.2351
  723MOL0     H95379   2.600  10.289   6.537  0.4202  0.9805 -1.9340
  723MOL0     H95380   2.508  10.436   6.525  1.0074  1.5521 -0.9101
  723MOL0     H95381   2.810  10.432   6.529  0.9502 -0.4608 -2.3987
  723MOL0     H95382   2.710  10.573   6.530  0.9649  0.1201 -0.8455
  723MOL0     H95383   2.594  10.534   6.328  1.1392  1.8109  1.5361
  723MOL0     H95384   2.651  10.367   6.306 -1.7933  1.5005 -4.8446
  723MOL0     H95385   2.816  10.624   6.287  2.4137 -0.0291 -2.5738
  723MOL0     H95386   2.888  10.472   6.299 -0.2888 -0.1787  1.1931
  723MOL0     H95387   2.782  10.392   6.099 -0.8055 -0.0876  2.6251
  723MOL0     H95388   2.876  10.539   6.064  0.4679 -1.0674 -1.3443
  723MOL0     H95389   2.549  10.379   5.985  2.3240 -1.5197  1.0508
  723MOL0     H95390   2.363  10.485   5.803  0.1571 -1.8284  2.9295
  723MOL0     H95391   2.362  10.667   5.814 -0.1065  0.6553  1.0978
  723MOL0     H95392   2.141  10.621   5.890  1.9187  3.5559 -0.3608
  723MOL0     H95393   2.232  10.637   6.041 -3.2309 -1.7563  1.5754
  723MOL0     H95394   2.189  10.366   5.915 -0.6868  0.3183  0.4020
  723MOL0     H95395   2.259  10.397   6.070 -0.3339  1.6051  1.1921
  723MOL0     H95396   1.984  10.501   5.989  3.4948 -0.8037 -4.0574
  723MOL0     H95397   2.070  10.486   6.150  4.1684  1.3693 -1.6565
  723MOL0     H95398   1.822  10.086   6.068 -0.6776 -1.2870  2.7069
  723MOL0     H95399   1.611  10.065   6.152  1.0261 -0.8407 -0.0850
  723MOL0     H95400   1.285   9.900   6.342 -1.4617  0.2132 -0.2065
  723MOL0     H95401   1.140   9.830   6.528  0.3054 -0.5773  4.1420
  723MOL0     H95402   1.035   9.771   6.714 -1.5836  0.4823  0.0262
  723MOL0     H95403   0.940   9.889   6.626 -1.4356  2.3152  0.6126
  723MOL0     H95404   0.850   9.974   6.856  4.0904  2.8199 -3.7049
  723MOL0     H95405   0.905   9.815   6.912  0.7514  0.7651  0.4801
  723MOL0     H95406   0.754   9.685   6.786  1.5033  0.2826 -1.1810
  723MOL0     H95407   0.729   9.817   6.680  3.2900  0.3970  0.2534
  723MOL0     H95408   0.543   9.767   6.846  0.1090  0.1070 -1.7426
  723MOL0     H95409   0.639   9.835   6.977  0.9063 -0.3055 -0.7614
  723MOL0     H95410   0.568  10.006   6.750  1.7475  1.7298 -0.0061
  723MOL0     H95411   0.659  10.058   6.895  1.1774 -1.6074 -0.1790
  723MOL0     H95412   0.423  10.131   6.924 -2.1748  0.3241  2.2862
  723MOL0     H95413   0.476   9.997   7.033  3.3947  0.4438  0.2505
  723MOL0     H95414   0.344   9.921   6.767 -1.0159  0.9163 -0.4751
  723MOL0     H95415   0.347   9.845   6.933 -1.2237 -1.8303 -2.8846
  723MOL0     H95416   0.164  10.088   6.818 -0.9594 -0.0457 -0.4878
  723MOL0     H95417   0.177  10.050   6.990  1.9743 -2.0915  0.7430
  723MOL0     H95418   1.234  10.169   6.754  0.0008  1.0729 -0.9226
  723MOL0     H95419   1.398  10.242   6.584  1.8950 -0.6567 -0.6565
  723MOL0     H95420   1.612  10.456   6.308 -0.1145 -0.4588  0.2385
  723MOL0     H95421   1.829  10.506   6.192  0.0786  0.3615  3.4286
  723MOL0     H95422   2.197  10.167   7.096  0.5074  3.5412 -3.0897
  723MOL0     H95423   2.141  10.147   7.339 -0.0196  1.5324  4.1883
  723MOL0     H95424   2.033  10.051   7.757 -2.6967  2.9058 -0.9945
  723MOL0     H95425   2.057  10.015   8.005 -2.9109  1.9269  0.2400
  723MOL0     H95426   2.114  10.161   8.345 -0.2419  1.8549  0.1729
  723MOL0     H95427   2.050  10.065   8.226 -1.9982 -0.7090  3.4584
  723MOL0     H95428   1.997  10.362   8.251 -0.3221  1.3265 -1.4726
  723MOL0     H95429   1.932  10.278   8.112 -1.5738  0.5823  0.8773
  723MOL0     H95430   1.872  10.185   8.393  0.8741  0.9826  0.4510
  723MOL0     H95431   1.835  10.097   8.247 -3.4856  1.0857  0.3258
  723MOL0     H95432   1.637  10.220   8.361  1.1495 -0.5407 -0.9816
  723MOL0     H95433   1.718  10.373   8.358 -1.0628  2.5158 -2.0501
  723MOL0     H95434   1.573  10.439   7.996 -1.4761  0.5536  1.0660
  723MOL0     H95435   2.305  10.383   7.998 -0.1703 -0.7199 -0.6779
  723MOL0     H95436   2.302  10.376   7.770 -2.5293  0.5963 -0.9763
  724MOL0     O95437   8.936   1.405   0.030 -0.1608  0.0789  0.4084
  724MOL0     C95438   9.055   1.406   0.074  0.5545  0.5431  0.3782
  724MOL0     O95439   9.101   1.316   0.179 -0.0482  0.0366 -0.0392
  724MOL0     C95440   9.011   1.248   0.261 -0.9023 -0.3542  0.4566
  724MOL0     C95441   9.060   1.247   0.389  1.1462 -0.2957 -1.1218
  724MOL0     C95442   8.987   1.180   0.491 -0.5429  0.3511 -0.4114
  724MOL0     C95443   8.865   1.108   0.458 -0.6018 -0.9714 -0.5578
  724MOL0     O95444   8.798   1.034   0.552  0.1538  0.0433 -0.7415
  724MOL0     C95445   8.661   1.029   0.528  0.0937 -0.7203 -0.2955
  724MOL0     C95446   8.580   0.974   0.647 -0.2207 -0.4331  0.1271
  724MOL0     C95447   8.588   1.077   0.763  0.3161  0.9035  0.5840
  724MOL0     C95448   8.464   1.063   0.852 -0.1659  0.2072  0.3651
  724MOL0     C95449   8.453   0.922   0.900  0.7453 -0.1425 -0.6600
  724MOL0     C95450   8.364   0.917   1.025  0.7342  0.0982  0.5270
  724MOL0     C95451   8.377   0.776   1.080  0.5429  0.5896 -0.0081
  724MOL0     C95452   8.501   0.738   1.163 -0.7203  0.7133  0.8987
  724MOL0     N95453   8.511   0.805   1.288  0.1392  0.7401  0.0227
  724MOL0     C95454   8.583   0.913   1.310 -0.0406 -0.2392  0.1356
  724MOL0     C95455   8.540   0.966   1.430 -0.6780  0.4445  0.7384
  724MOL0     C95456   8.592   1.088   1.500 -0.1902  0.5347 -0.0516
  724MOL0     C95457   8.736   1.078   1.538 -0.3782  0.3068 -0.0613
  724MOL0     C95458   8.817   1.212   1.526  0.6343 -0.1829  0.1046
  724MOL0     C95459   8.772   1.308   1.635 -0.4542  0.0503 -0.4522
  724MOL0     O95460   8.792   1.442   1.591 -0.6953 -0.0715  0.5642
  724MOL0     C95461   8.706   1.485   1.497 -0.4005 -0.3871 -0.2827
  724MOL0     C95462   8.571   1.509   1.529 -0.4084 -1.0126 -0.5494
  724MOL0     C95463   8.476   1.555   1.433 -0.4467 -0.5350  0.1427
  724MOL0     C95464   8.528   1.599   1.311 -0.0560  0.2407 -1.0788
  724MOL0     C95465   8.441   1.651   1.208 -0.0258  0.1744  0.4010
  724MOL0     O95466   8.320   1.707   1.258  0.0031  0.8546  0.1788
  724MOL0     C95467   8.219   1.734   1.175  0.0055  0.0895  0.0790
  724MOL0     C95468   8.126   1.637   1.149 -0.0768  0.4893 -0.1946
  724MOL0     C95469   8.029   1.658   1.054 -0.1700  0.5585 -0.0839
  724MOL0     C95470   8.017   1.771   0.981  0.4253  0.6689 -0.2875
  724MOL0     O95471   7.912   1.775   0.900 -0.3191 -1.1157 -0.2099
  724MOL0     C95472   7.934   1.845   0.779  0.2702  0.7510  0.0989
  724MOL0     C95473   7.839   1.955   0.787 -0.0508 -0.1532 -0.6089
  724MOL0     C95474   7.686   1.931   0.820  0.2495 -0.5069  0.2081
  724MOL0     C95475   7.623   2.061   0.858  0.2255 -0.1220  0.6304
  724MOL0     C95476   7.483   2.069   0.793  0.1295 -0.3192  0.2913
  724MOL0     C95477   7.403   2.201   0.831  0.2349  1.3599 -0.2492
  724MOL0     C95478   7.334   2.184   0.968 -0.8718  0.4771 -0.0711
  724MOL0     C95479   7.196   2.268   0.981 -0.7912 -0.0075  0.3620
  724MOL0    Cl95480   7.157   2.299   1.151 -0.4638  0.0087  0.5999
  724MOL0     C95481   8.115   1.876   0.998 -0.1956  0.5889 -0.5255
  724MOL0     C95482   8.210   1.853   1.103 -0.3376 -0.4049 -1.3902
  724MOL0     O95483   8.467   1.641   1.091  0.7866 -0.9738 -0.5143
  724MOL0     C95484   8.666   1.575   1.283  0.5347  0.0484  0.6315
  724MOL0     C95485   8.752   1.509   1.375 -1.1517  0.0131  0.0220
  724MOL0     N95486   8.445   0.871   1.478 -0.0852  0.4480 -0.0891
  724MOL0     N95487   8.420   0.781   1.388 -0.2774 -1.3008 -0.3338
  724MOL0     C95488   8.818   1.116   0.320 -0.7334 -0.4136 -0.4999
  724MOL0     C95489   8.886   1.200   0.232  0.4830 -0.3215 -0.6351
  724MOL0     C95490   9.153   1.488   0.002 -0.6054  0.6612 -0.3107
  724MOL0     C95491   9.294   1.489   0.044  0.1954  0.4214 -0.0243
  724MOL0     C95492   9.388   1.556  -0.032  0.5045  1.1316 -0.3111
  724MOL0     C95493   9.354   1.615  -0.147 -0.4156 -0.1455 -0.4658
  724MOL0     O95494   9.439   1.673  -0.240  0.6146 -0.0241 -0.7382
  724MOL0     C95495   9.586   1.652  -0.222  0.2501 -0.4084  0.9180
  724MOL0     C95496   9.676   1.720  -0.334  0.1278  0.0066  0.5215
  724MOL0     C95497   9.633   1.663  -0.469 -0.3926  0.2856  1.0477
  724MOL0     C95498   9.717   1.724  -0.584 -0.9463  0.8236  0.2518
  724MOL0     C95499   9.656   1.697  -0.711 -1.0136  0.2381  0.0960
  724MOL0     C95500   9.620   1.670  -0.821  0.6555 -0.7027  0.0758
  724MOL0     C95501   9.221   1.618  -0.195  0.3268 -0.6628 -0.3938
  724MOL0     C95502   9.118   1.553  -0.122 -0.6484  0.2483  0.0103
  724MOL0     H95503   9.154   1.289   0.423  0.2135 -1.1418  3.0944
  724MOL0     H95504   9.027   1.177   0.592  0.4091  0.4861 -0.7695
  724MOL0     H95505   8.625   0.973   0.441 -1.1086  0.9898 -0.9556
  724MOL0     H95506   8.609   1.121   0.501  0.9649  0.1515  0.9193
  724MOL0     H95507   8.624   0.883   0.690  1.7846  1.1751  1.6413
  724MOL0     H95508   8.479   0.955   0.608  0.6962 -1.5692 -1.9302
  724MOL0     H95509   8.588   1.179   0.723  1.3141  1.5947  2.2319
  724MOL0     H95510   8.677   1.052   0.821  0.7228  2.1647  0.5250
  724MOL0     H95511   8.493   1.127   0.936  0.5206 -1.2859  1.3161
  724MOL0     H95512   8.377   1.084   0.790  1.6223  2.7623 -1.4766
  724MOL0     H95513   8.549   0.886   0.938  0.3877 -1.5567 -1.0366
  724MOL0     H95514   8.416   0.861   0.817 -0.2552 -1.0646  0.4178
  724MOL0     H95515   8.261   0.930   0.993  1.5284  1.5586 -1.6396
  724MOL0     H95516   8.372   1.001   1.094 -4.2516  2.0161 -0.7952
  724MOL0     H95517   8.303   0.752   1.157  1.6690 -3.3186  0.0929
  724MOL0     H95518   8.349   0.705   1.002 -1.5916  4.3818 -3.0595
  724MOL0     H95519   8.593   0.761   1.109 -1.8518  1.6279 -0.6862
  724MOL0     H95520   8.494   0.631   1.187 -1.9479  1.1091  2.4782
  724MOL0     H95521   8.651   0.951   1.234  3.2521 -0.1156  2.9146
  724MOL0     H95522   8.527   1.096   1.588 -1.2177 -0.5395 -0.6795
  724MOL0     H95523   8.578   1.170   1.429 -2.6630 -1.5740 -2.2224
  724MOL0     H95524   8.787   1.023   1.459  0.2576  1.1829 -0.2746
  724MOL0     H95525   8.753   1.022   1.630  0.4476 -2.5429 -1.8241
  724MOL0     H95526   8.925   1.196   1.534  0.3743 -2.1010  0.1954
  724MOL0     H95527   8.795   1.241   1.423 -3.9498 -2.4402  0.1861
  724MOL0     H95528   8.835   1.282   1.721 -1.4731 -4.4770 -0.8315
  724MOL0     H95529   8.667   1.287   1.657  0.2088 -1.5908  1.4676
  724MOL0     H95530   8.529   1.481   1.625 -3.6302 -0.4403 -1.6626
  724MOL0     H95531   8.373   1.558   1.466 -0.0822 -0.6280  1.3217
  724MOL0     H95532   8.128   1.544   1.204  1.0807 -0.4247 -1.7148
  724MOL0     H95533   7.970   1.574   1.018 -1.6652  1.4171  0.2820
  724MOL0     H95534   7.897   1.780   0.700  0.5625  0.2289  0.3904
  724MOL0     H95535   8.036   1.880   0.761  0.6127  1.7464  3.3066
  724MOL0     H95536   7.836   2.001   0.688  0.4428 -1.2433 -1.1488
  724MOL0     H95537   7.875   2.035   0.852 -0.7896  1.4672 -2.1023
  724MOL0     H95538   7.665   1.865   0.905  0.2820 -1.3912 -0.4601
  724MOL0     H95539   7.655   1.887   0.725 -0.0098  2.1501 -1.0239
  724MOL0     H95540   7.618   2.072   0.967  3.6036  1.8653  0.7414
  724MOL0     H95541   7.687   2.138   0.814  1.3213 -1.4002 -0.0802
  724MOL0     H95542   7.429   1.978   0.820 -1.9374  0.5928 -0.4740
  724MOL0     H95543   7.498   2.061   0.685  0.7325 -1.8367  0.4723
  724MOL0     H95544   7.338   2.228   0.748 -0.0876  1.9364  0.1829
  724MOL0     H95545   7.467   2.289   0.831 -2.3726  3.3907 -1.8383
  724MOL0     H95546   7.308   2.078   0.981 -1.9212  0.7495  0.1169
  724MOL0     H95547   7.405   2.218   1.044 -0.9884  2.7900 -0.9076
  724MOL0     H95548   7.107   2.219   0.942 -1.1258  1.0163 -0.1832
  724MOL0     H95549   7.214   2.361   0.928  2.3589 -0.0852  1.0382
  724MOL0     H95550   8.099   1.973   0.953 -3.5538  1.5270  2.2221
  724MOL0     H95551   8.280   1.934   1.123  1.7318 -1.9547 -2.0600
  724MOL0     H95552   8.704   1.616   1.190 -2.4968  2.4724  0.3044
  724MOL0     H95553   8.852   1.475   1.350 -0.8522  1.7527 -1.3595
  724MOL0     H95554   8.717   1.092   0.289 -1.9904  2.4001  1.0881
  724MOL0     H95555   8.841   1.196   0.133  0.2491  0.2668 -0.5559
  724MOL0     H95556   9.317   1.438   0.137 -2.2390  0.5803  0.7566
  724MOL0     H95557   9.490   1.569   0.001  0.1270  1.6319  0.6767
  724MOL0     H95558   9.617   1.547  -0.228  3.0330  0.4080 -2.1943
  724MOL0     H95559   9.639   1.687  -0.133  2.6260 -1.5565  0.0560
  724MOL0     H95560   9.667   1.829  -0.334  2.5803  0.2675  1.1881
  724MOL0     H95561   9.779   1.683  -0.330 -0.1561 -1.1277 -1.2054
  724MOL0     H95562   9.530   1.698  -0.476 -0.8793 -0.7532  2.5184
  724MOL0     H95563   9.637   1.554  -0.476  0.0598  0.3855 -0.8155
  724MOL0     H95564   9.738   1.829  -0.561  0.6210  1.0140 -1.7754
  724MOL0     H95565   9.810   1.666  -0.591 -0.7352  1.2552 -5.9307
  724MOL0     H95566   9.587   1.655  -0.921 -2.1851  0.1448  0.7920
  724MOL0     H95567   9.190   1.667  -0.286 -0.4681 -0.3832  0.0256
  724MOL0     H95568   9.017   1.556  -0.162 -0.5449  2.3261 -0.2297
  725MOL0     O95569   3.120   7.096   9.088  1.1387  0.5860 -1.7860
  725MOL0     C95570   2.996   7.088   9.114 -0.7870  0.9885 -0.3605
  725MOL0     O95571   2.898   7.151   9.043 -0.8196 -0.3651 -1.4231
  725MOL0     C95572   2.924   7.271   8.977 -0.1428 -0.7112  0.4687
  725MOL0     C95573   3.031   7.358   9.012  0.3730  0.6313  0.5051
  725MOL0     C95574   3.041   7.485   8.964 -0.1045 -1.8233  0.2839
  725MOL0     C95575   2.955   7.535   8.862  0.4509  0.4197 -0.2821
  725MOL0     O95576   2.976   7.672   8.838  0.8870 -0.0963 -0.6434
  725MOL0     C95577   2.877   7.742   8.764 -0.0568  0.1268  0.2949
  725MOL0     C95578   2.903   7.758   8.616  0.4660 -0.4560  0.4470
  725MOL0     C95579   3.044   7.808   8.585  0.5264  0.0307  0.0257
  725MOL0     C95580   3.055   7.964   8.565  0.1716  0.8384 -0.9518
  725MOL0     C95581   3.194   8.029   8.561  0.0624 -0.5722  0.5043
  725MOL0     C95582   3.168   8.185   8.553 -0.2263  0.3926  0.8157
  725MOL0     C95583   3.306   8.255   8.552 -0.3344 -0.8500  0.0143
  725MOL0     C95584   3.322   8.402   8.504  0.0710 -0.5780  0.7950
  725MOL0     N95585   3.254   8.498   8.590  1.6692 -0.1474 -0.2181
  725MOL0     C95586   3.318   8.583   8.671  0.2325  0.1656 -0.9839
  725MOL0     C95587   3.241   8.697   8.680 -0.9237 -0.8298 -0.2058
  725MOL0     C95588   3.285   8.831   8.733 -0.6687 -0.1825  0.1748
  725MOL0     C95589   3.267   8.853   8.876  0.3733  0.2053  0.4239
  725MOL0     C95590   3.379   8.803   8.971  0.3216  0.3147  0.3368
  725MOL0     C95591   3.364   8.839   9.127 -0.2216 -0.3738  0.0428
  725MOL0     O95592   3.398   8.978   9.136 -0.6455  0.7098 -0.8355
  725MOL0     C95593   3.387   9.036   9.258 -1.2365 -0.4056  0.7122
  725MOL0     C95594   3.502   9.022   9.339  0.5170 -0.5565  0.6257
  725MOL0     C95595   3.504   9.086   9.464  0.4697 -0.0980  0.6260
  725MOL0     C95596   3.386   9.164   9.506  0.3695  0.2045 -0.5525
  725MOL0     C95597   3.401   9.250   9.627 -0.2585 -0.0735 -1.0091
  725MOL0     O95598   3.305   9.342   9.657  0.1949  0.2874  0.1152
  725MOL0     C95599   3.288   9.410   9.780 -0.4706 -0.1915  0.9365
  725MOL0     C95600   3.341   9.355   9.903  0.5345 -1.1233  0.5553
  725MOL0     C95601   3.328   9.429  10.027  0.0675  1.1160 -0.2505
  725MOL0     C95602   3.249   9.536  10.039  1.5592 -0.3784  0.0449
  725MOL0     O95603   3.200   9.570  10.169  0.1934 -0.3474 -0.2560
  725MOL0     C95604   3.060   9.570  10.177  0.7462  0.1196  0.1864
  725MOL0     C95605   3.023   9.614  10.311 -0.1485  0.3511 -0.3563
  725MOL0     C95606   2.869   9.591  10.333  0.0282 -0.3924  0.7873
  725MOL0     C95607   2.821   9.560  10.477  0.2413  0.5951  0.0230
  725MOL0     C95608   2.660   9.566  10.484 -1.0785 -0.2119  0.1099
  725MOL0     C95609   2.599   9.468  10.379  0.2552 -0.8696 -0.2513
  725MOL0     C95610   2.444   9.481  10.402  0.3567 -0.3121 -0.8963
  725MOL0     C95611   2.396   9.626  10.413 -0.1295 -0.0216 -1.2225
  725MOL0    Cl95612   2.418   9.705  10.261  0.1197 -0.4766 -0.8034
  725MOL0     C95613   3.193   9.595   9.921 -0.2029 -0.9019 -0.2160
  725MOL0     C95614   3.217   9.529   9.794  0.0699  0.8338 -0.5870
  725MOL0     O95615   3.483   9.206   9.711  0.0631 -0.2223 -0.0449
  725MOL0     C95616   3.276   9.174   9.424  0.3089  0.1434 -0.1550
  725MOL0     C95617   3.275   9.107   9.300 -0.1880 -0.1544  0.2238
  725MOL0     N95618   3.120   8.677   8.616 -0.1716  1.6585 -0.6160
  725MOL0     N95619   3.134   8.559   8.561 -1.1385  0.1376  0.0819
  725MOL0     C95620   2.858   7.443   8.819 -0.1427  1.0833 -0.4415
  725MOL0     C95621   2.843   7.316   8.872 -0.8310  0.1074 -0.4905
  725MOL0     C95622   2.950   7.026   9.235  0.7038  0.2941 -0.7101
  725MOL0     C95623   3.033   6.948   9.321 -1.2055 -0.4140  0.2850
  725MOL0     C95624   2.984   6.879   9.428 -0.1634 -0.2292 -0.9793
  725MOL0     C95625   2.841   6.879   9.452 -0.0942 -0.6209  0.2957
  725MOL0     O95626   2.775   6.802   9.536  0.9907 -0.5105 -0.5197
  725MOL0     C95627   2.851   6.722   9.623 -0.6905  0.1290  0.4734
  725MOL0     C95628   2.897   6.580   9.570  0.0593 -0.3804 -0.8397
  725MOL0     C95629   2.994   6.505   9.670  0.6322 -0.2185  0.3801
  725MOL0     C95630   3.102   6.429   9.596  0.1712  0.0905 -0.8947
  725MOL0     C95631   3.212   6.514   9.559  0.1361  0.1021  0.8654
  725MOL0     C95632   3.299   6.594   9.539  0.6619 -0.6985 -1.0758
  725MOL0     C95633   2.751   6.962   9.377  0.5970 -0.8762 -0.2775
  725MOL0     C95634   2.812   7.035   9.270 -0.4761 -0.2199  0.2165
  725MOL0     H95635   3.099   7.335   9.094 -0.4088 -2.2875  0.4267
  725MOL0     H95636   3.106   7.559   9.011 -1.5223 -1.5106  1.8657
  725MOL0     H95637   2.883   7.840   8.814  2.0988  0.1479  0.1036
  725MOL0     H95638   2.782   7.689   8.764  0.7695 -1.4053 -0.5757
  725MOL0     H95639   2.825   7.822   8.573  0.5349  2.6019  4.3279
  725MOL0     H95640   2.900   7.662   8.564  2.1997 -0.5409  0.4557
  725MOL0     H95641   3.077   7.766   8.490 -0.1259  2.3093 -1.2830
  725MOL0     H95642   3.113   7.779   8.665  0.3778 -2.7998 -0.7636
  725MOL0     H95643   3.006   7.988   8.470  1.7477  0.7219 -1.8412
  725MOL0     H95644   3.006   8.017   8.646 -1.1643  0.7445 -1.6643
  725MOL0     H95645   3.259   7.989   8.483 -2.5921 -3.4513 -0.4078
  725MOL0     H95646   3.235   8.001   8.659 -3.2088 -3.5816  1.2298
  725MOL0     H95647   3.124   8.209   8.650  0.8943  3.2470  0.6993
  725MOL0     H95648   3.108   8.209   8.464  1.0837 -3.1488 -1.2526
  725MOL0     H95649   3.346   8.249   8.654 -1.2456  0.4760  0.4692
  725MOL0     H95650   3.364   8.193   8.483 -1.1817 -2.6831  0.9012
  725MOL0     H95651   3.266   8.420   8.411 -0.2736  1.3680  1.3239
  725MOL0     H95652   3.424   8.428   8.474 -0.3437 -0.9964 -1.1706
  725MOL0     H95653   3.423   8.579   8.698 -0.0810  1.0785  0.5162
  725MOL0     H95654   3.234   8.910   8.678  0.1233 -0.1529 -0.5397
  725MOL0     H95655   3.392   8.845   8.718 -0.1508  0.8288  3.7960
  725MOL0     H95656   3.177   8.804   8.914  1.0361 -1.5781 -0.1826
  725MOL0     H95657   3.248   8.961   8.881  1.9761  0.6010 -1.1165
  725MOL0     H95658   3.374   8.694   8.963 -0.7430  0.3390  0.5548
  725MOL0     H95659   3.469   8.851   8.930  1.1483 -0.6020  1.0148
  725MOL0     H95660   3.434   8.770   9.177  0.5254 -0.4048 -1.0107
  725MOL0     H95661   3.264   8.815   9.164 -0.3460 -1.1944 -0.7794
  725MOL0     H95662   3.591   8.973   9.301  1.0293  1.6714 -1.2951
  725MOL0     H95663   3.590   9.101   9.528  1.1888 -2.3788  0.2606
  725MOL0     H95664   3.371   9.251   9.909 -2.5698 -2.0132  3.2413
  725MOL0     H95665   3.374   9.379  10.112  1.8213 -1.3850 -2.5015
  725MOL0     H95666   3.022   9.469  10.162  2.4471 -0.1866 -2.8542
  725MOL0     H95667   3.018   9.649  10.113  0.2710 -0.5268 -0.3186
  725MOL0     H95668   3.044   9.721  10.324  3.6720 -0.4106  0.7964
  725MOL0     H95669   3.078   9.554  10.384  1.7452  1.2027 -1.0262
  725MOL0     H95670   2.836   9.506  10.273  1.2657 -2.6615  3.1378
  725MOL0     H95671   2.827   9.684  10.294 -2.3782 -1.3723  0.8569
  725MOL0     H95672   2.857   9.462  10.508 -0.9411  0.2155  0.2659
  725MOL0     H95673   2.847   9.635  10.553  0.3531  0.2851  0.2931
  725MOL0     H95674   2.646   9.668  10.448  4.3540 -0.0777 -2.6728
  725MOL0     H95675   2.613   9.544  10.580 -0.8050 -3.0930 -0.3130
  725MOL0     H95676   2.628   9.363  10.386  0.6636 -0.9465 -2.4363
  725MOL0     H95677   2.625   9.495  10.276  0.3366 -1.8775 -0.5033
  725MOL0     H95678   2.402   9.419  10.322  1.1000 -0.7579 -0.9497
  725MOL0     H95679   2.424   9.423  10.492  1.0991 -2.1478 -1.8556
  725MOL0     H95680   2.439   9.682  10.497 -3.2325  0.0877  0.4098
  725MOL0     H95681   2.291   9.611  10.437  0.0784  1.7157  1.1445
  725MOL0     H95682   3.130   9.681   9.937  0.1523 -0.8054  0.7736
  725MOL0     H95683   3.189   9.589   9.708 -2.8550  0.8200  0.2715
  725MOL0     H95684   3.200   9.246   9.451  0.7611  0.4742  0.2563
  725MOL0     H95685   3.180   9.114   9.247  0.7850  2.2582 -1.4023
  725MOL0     H95686   2.780   7.466   8.746 -0.4667 -1.7647 -1.0856
  725MOL0     H95687   2.766   7.250   8.833  0.5459 -0.2809 -2.7900
  725MOL0     H95688   3.140   6.951   9.307 -1.1404  1.7195  0.7827
  725MOL0     H95689   3.046   6.825   9.499  0.7448 -0.8693 -2.2471
  725MOL0     H95690   2.805   6.699   9.720  1.9438 -1.9529  1.3247
  725MOL0     H95691   2.938   6.778   9.659  0.0481 -1.5441  1.3880
  725MOL0     H95692   2.802   6.526   9.568  1.9666 -4.5825  3.1208
  725MOL0     H95693   2.944   6.579   9.471  1.0990 -3.0029 -0.4158
  725MOL0     H95694   2.934   6.443   9.737 -1.2025  3.0130  1.9743
  725MOL0     H95695   3.038   6.567   9.748  1.2412 -0.6372  0.3776
  725MOL0     H95696   3.142   6.359   9.670 -5.2819  0.4439  3.0293
  725MOL0     H95697   3.064   6.374   9.510 -3.3902  3.0847 -1.4909
  725MOL0     H95698   3.370   6.667   9.507  1.8520 -2.9986 -4.1289
  725MOL0     H95699   2.644   6.960   9.392  0.6393  0.8172  0.4200
  725MOL0     H95700   2.743   7.092   9.209 -0.9736 -0.9219  0.1038
  726MOL0     O95701   0.749   4.550   0.258 -0.2501  0.0643 -0.1465
  726MOL0     C95702   0.630   4.544   0.220 -0.4746 -0.2233 -0.8975
  726MOL0     O95703   0.583   4.561   0.096  0.3392 -0.5985 -0.3038
  726MOL0     C95704   0.658   4.637   0.002 -0.2631  0.7023 -0.6715
  726MOL0     C95705   0.727   4.751   0.029 -0.2602  0.8395 -0.6016
  726MOL0     C95706   0.795   4.825  -0.073  0.3055 -0.0983 -0.4295
  726MOL0     C95707   0.788   4.786  -0.204 -0.1989  0.7154  0.1809
  726MOL0     O95708   0.857   4.856  -0.296 -0.9286 -0.0582 -0.3868
  726MOL0     C95709   0.815   4.852  -0.437 -0.4349  0.4231 -0.8103
  726MOL0     C95710   0.896   4.950  -0.521 -0.2217  0.4992  0.2907
  726MOL0     C95711   0.893   4.923  -0.671 -0.0861 -0.6449 -0.3319
  726MOL0     C95712   0.957   5.039  -0.747 -0.3361 -0.2078  0.2697
  726MOL0     C95713   0.840   5.106  -0.831 -0.2696 -0.4744 -0.7435
  726MOL0     C95714   0.901   5.239  -0.879  0.5193  0.3922 -0.8524
  726MOL0     C95715   1.013   5.219  -0.982 -0.3546  0.7873 -0.4987
  726MOL0     C95716   0.998   5.330  -1.081  1.3444  0.3666  0.1360
  726MOL0     N95717   1.095   5.325  -1.194  0.0024  1.0282  0.7965
  726MOL0     C95718   1.066   5.289  -1.322 -1.1674 -0.5586  1.3717
  726MOL0     C95719   1.191   5.268  -1.384  0.5469 -0.1277 -0.1035
  726MOL0     C95720   1.218   5.194  -1.513 -0.5327 -0.3271  0.2558
  726MOL0     C95721   1.219   5.038  -1.507 -0.1626 -0.5389 -0.5118
  726MOL0     C95722   1.314   4.983  -1.399  1.0400  0.6688  0.3242
  726MOL0     C95723   1.240   4.935  -1.269 -0.8408 -0.1819  0.4478
  726MOL0     O95724   1.340   4.867  -1.192  0.1230 -0.2536  0.0516
  726MOL0     C95725   1.299   4.762  -1.112  0.6808  0.1148 -0.0418
  726MOL0     C95726   1.397   4.667  -1.067 -0.2015  0.9389 -0.9842
  726MOL0     C95727   1.365   4.566  -0.971 -0.2252 -0.4099 -0.1026
  726MOL0     C95728   1.234   4.559  -0.929  0.4330 -0.4232  0.4604
  726MOL0     C95729   1.207   4.441  -0.850 -0.7460  0.3440 -0.1808
  726MOL0     O95730   1.076   4.441  -0.803  0.0420  0.4742 -0.5700
  726MOL0     C95731   1.016   4.315  -0.821 -0.2017 -0.4650  0.4181
  726MOL0     C95732   0.975   4.269  -0.941  0.4320 -1.1532 -0.4532
  726MOL0     C95733   0.914   4.142  -0.955  0.1498 -0.4324  0.2483
  726MOL0     C95734   0.891   4.062  -0.849 -0.5696  0.3705  0.6544
  726MOL0     O95735   0.828   3.934  -0.869  0.2857 -0.9391 -0.8345
  726MOL0     C95736   0.876   3.811  -0.808  0.0058  0.8430 -0.2699
  726MOL0     C95737   0.769   3.749  -0.733  0.3391 -0.4578 -0.2146
  726MOL0     C95738   0.791   3.601  -0.697  0.5256 -0.3330  1.0434
  726MOL0     C95739   0.932   3.559  -0.637 -0.7570 -0.0086  1.3777
  726MOL0     C95740   0.934   3.596  -0.485  0.4470 -0.2464  0.0874
  726MOL0     C95741   1.005   3.732  -0.461  0.1061 -0.7187  1.0421
  726MOL0     C95742   0.975   3.767  -0.317  0.3225 -0.2575 -0.5330
  726MOL0     C95743   1.099   3.774  -0.223 -0.1522 -0.8533  0.2472
  726MOL0    Cl95744   1.185   3.920  -0.253  0.0798 -0.2604 -0.2245
  726MOL0     C95745   0.942   4.098  -0.714  0.1095  0.6383  0.5416
  726MOL0     C95746   1.001   4.234  -0.704  0.0006  0.9019  0.0025
  726MOL0     O95747   1.289   4.356  -0.818  0.5616  0.0149 -0.9417
  726MOL0     C95748   1.135   4.652  -0.971  0.4823 -0.8426 -0.6787
  726MOL0     C95749   1.177   4.762  -1.048  0.4871  0.1409 -0.2692
  726MOL0     N95750   1.289   5.302  -1.296  1.0782  0.1819  0.2358
  726MOL0     N95751   1.229   5.338  -1.183 -0.0309  0.2862 -0.0354
  726MOL0     C95752   0.724   4.661  -0.236  0.0801  0.5039  0.3304
  726MOL0     C95753   0.657   4.589  -0.132 -0.5249  0.6855 -0.4611
  726MOL0     C95754   0.536   4.479   0.325 -0.7589 -0.1548  1.0743
  726MOL0     C95755   0.396   4.470   0.285 -0.0342  0.0004 -0.4545
  726MOL0     C95756   0.306   4.402   0.375 -0.4814  0.2673  0.0625
  726MOL0     C95757   0.350   4.349   0.504 -0.1971  0.3619 -0.5100
  726MOL0     O95758   0.270   4.283   0.582 -0.1863  0.3289 -1.1044
  726MOL0     C95759   0.126   4.265   0.565 -0.1589  0.6090 -0.1163
  726MOL0     C95760   0.079   4.192   0.688  0.1962 -0.3207  0.3365
  726MOL0     C95761   0.044   4.276   0.807  0.1582 -0.8221  0.5843
  726MOL0     C95762  -0.099   4.266   0.842 -0.7639 -0.3454 -0.0683
  726MOL0     C95763  -0.126   4.341   0.963  1.0555  0.6197  0.6796
  726MOL0     C95764  -0.147   4.413   1.063 -0.4011  0.0637  0.9647
  726MOL0     C95765   0.486   4.370   0.538  0.5575  1.0040 -0.9528
  726MOL0     C95766   0.579   4.438   0.444  0.1119  1.1570 -0.0489
  726MOL0     H95767   0.746   4.774   0.134  1.4137 -0.4868 -0.5868
  726MOL0     H95768   0.852   4.913  -0.045  0.1071 -1.0651  3.6137
  726MOL0     H95769   0.708   4.872  -0.451 -0.2401  2.6550  0.3715
  726MOL0     H95770   0.839   4.757  -0.484  0.5792  0.5590 -0.5850
  726MOL0     H95771   0.999   4.931  -0.490 -1.2509  0.4111  4.1335
  726MOL0     H95772   0.862   5.050  -0.492  0.8379 -0.1488  4.3119
  726MOL0     H95773   0.786   4.916  -0.689 -0.9072 -0.0712  3.5021
  726MOL0     H95774   0.933   4.824  -0.696 -1.8248 -1.6318  0.6147
  726MOL0     H95775   1.014   5.107  -0.684  1.2043  3.3540 -4.3290
  726MOL0     H95776   1.024   4.985  -0.815  0.5468  2.0143 -0.7330
  726MOL0     H95777   0.761   5.125  -0.758  0.5019 -0.0651 -0.0026
  726MOL0     H95778   0.799   5.047  -0.914 -2.2139 -0.0277 -0.1574
  726MOL0     H95779   0.947   5.287  -0.792 -0.4760  2.2451 -1.3013
  726MOL0     H95780   0.815   5.293  -0.918 -0.2713 -1.5792 -1.9891
  726MOL0     H95781   1.113   5.202  -0.942  0.2450 -2.8569 -3.0365
  726MOL0     H95782   1.012   5.126  -1.040  3.1407 -0.8019  1.6714
  726MOL0     H95783   0.998   5.417  -1.015 -0.0242  1.1174 -0.8051
  726MOL0     H95784   0.896   5.321  -1.120 -0.4482  0.4781  4.2464
  726MOL0     H95785   0.967   5.263  -1.359 -0.5306  0.6350 -1.4144
  726MOL0     H95786   1.311   5.237  -1.551 -0.7571  0.2008  0.2968
  726MOL0     H95787   1.138   5.226  -1.580  0.7801 -0.2929 -1.3510
  726MOL0     H95788   1.238   5.000  -1.608 -3.5021 -2.3128 -0.6362
  726MOL0     H95789   1.115   5.010  -1.485 -0.8324  1.5732 -0.7075
  726MOL0     H95790   1.375   4.906  -1.446  0.4719  2.4630 -3.7280
  726MOL0     H95791   1.389   5.055  -1.364  0.2210  1.4329  0.5654
  726MOL0     H95792   1.166   4.860  -1.298 -3.1457  0.3753  4.2030
  726MOL0     H95793   1.190   5.014  -1.212 -0.5551 -1.4337  2.5516
  726MOL0     H95794   1.499   4.667  -1.104  0.4746  0.5346  0.7905
  726MOL0     H95795   1.451   4.509  -0.939 -0.9905 -1.7545 -0.3780
  726MOL0     H95796   0.996   4.333  -1.026 -0.3538  1.1400  0.9885
  726MOL0     H95797   0.886   4.100  -1.051 -1.7917 -1.9657  1.4091
  726MOL0     H95798   0.965   3.823  -0.746 -1.0832 -0.7333  1.6997
  726MOL0     H95799   0.908   3.749  -0.892  1.9176  0.6125  0.5776
  726MOL0     H95800   0.677   3.758  -0.792 -2.3584  1.1790  3.7627
  726MOL0     H95801   0.755   3.810  -0.643  1.7421 -3.1145  1.9450
  726MOL0     H95802   0.787   3.547  -0.792  1.9938  5.0304 -2.5005
  726MOL0     H95803   0.710   3.579  -0.627  3.1868 -4.4230  3.2512
  726MOL0     H95804   0.951   3.455  -0.662 -1.7254  0.3904 -1.2782
  726MOL0     H95805   1.021   3.607  -0.678 -1.9931 -1.3906 -3.5112
  726MOL0     H95806   0.983   3.515  -0.430 -0.8247 -3.3042 -2.9456
  726MOL0     H95807   0.830   3.600  -0.453 -0.1793 -1.8171 -1.5520
  726MOL0     H95808   0.947   3.802  -0.522 -0.8310 -0.7038  1.9188
  726MOL0     H95809   1.111   3.717  -0.485  0.7038  2.0692  1.6067
  726MOL0     H95810   0.932   3.867  -0.304  0.7034 -0.3203  1.6227
  726MOL0     H95811   0.902   3.703  -0.266 -2.6515  2.7874 -0.6070
  726MOL0     H95812   1.164   3.686  -0.230  1.8689  0.7627 -2.9767
  726MOL0     H95813   1.053   3.770  -0.123  0.2468 -0.6799  0.4392
  726MOL0     H95814   0.933   4.032  -0.629 -0.4462 -0.6859 -0.5007
  726MOL0     H95815   1.046   4.271  -0.613  2.0433  3.6959 -2.0115
  726MOL0     H95816   1.031   4.635  -0.946  1.2909 -3.5765  1.3935
  726MOL0     H95817   1.104   4.838  -1.077 -0.3200 -0.1480  0.9115
  726MOL0     H95818   0.744   4.625  -0.336  0.3856  2.3985 -0.3247
  726MOL0     H95819   0.630   4.486  -0.155  0.8087  0.0612  0.5819
  726MOL0     H95820   0.357   4.513   0.193  1.8601  0.3940 -1.1137
  726MOL0     H95821   0.209   4.381   0.332  0.7793 -3.8431 -1.2569
  726MOL0     H95822   0.097   4.213   0.474 -0.2758 -3.5775  2.0808
  726MOL0     H95823   0.078   4.363   0.560  0.0344  0.9124  2.4469
  726MOL0     H95824  -0.011   4.135   0.662 -0.5587 -0.7409  3.5216
  726MOL0     H95825   0.151   4.113   0.711  0.2255  0.4133  2.9978
  726MOL0     H95826   0.057   4.384   0.794 -0.5914 -0.3701  3.0841
  726MOL0     H95827   0.109   4.244   0.889  0.1289 -0.6662  0.6701
  726MOL0     H95828  -0.163   4.310   0.765 -0.1262  2.0309  0.6826
  726MOL0     H95829  -0.121   4.162   0.866 -1.6534  0.0327  0.8156
  726MOL0     H95830  -0.175   4.481   1.141 -1.5009  0.4905  0.2235
  726MOL0     H95831   0.521   4.337   0.635 -1.6765  2.4095  0.4327
  726MOL0     H95832   0.678   4.463   0.481  0.9191 -1.5875 -0.1510
  727MOL0     O95833   6.428  10.207  11.243  0.3340 -0.1659  0.5672
  727MOL0     C95834   6.539  10.210  11.282 -0.3993  0.3718  0.5359
  727MOL0     O95835   6.651  10.266  11.219  0.2479  1.0726 -0.2731
  727MOL0     C95836   6.631  10.316  11.092  0.5765 -0.6832  0.4457
  727MOL0     C95837   6.701  10.247  10.988  0.0849 -0.6326 -0.3130
  727MOL0     C95838   6.708  10.308  10.859 -0.8116  1.1578 -0.3128
  727MOL0     C95839   6.654  10.434  10.836  0.0299  0.1114 -0.5077
  727MOL0     O95840   6.661  10.501  10.708 -0.4581 -0.0511 -0.1553
  727MOL0     C95841   6.681  10.417  10.591  0.1138  0.9702 -0.0161
  727MOL0     C95842   6.824  10.427  10.541  0.4923 -0.2650 -0.9696
  727MOL0     C95843   6.841  10.333  10.410 -0.5444 -1.1569  0.1610
  727MOL0     C95844   6.933  10.385  10.303 -0.0725  0.7103  0.7364
  727MOL0     C95845   6.944  10.275  10.201 -0.5265 -0.6647 -0.2872
  727MOL0     C95846   7.052  10.305  10.095 -0.1053  0.3922  0.7305
  727MOL0     C95847   7.043  10.197   9.981 -0.3193  0.5662 -0.1798
  727MOL0     C95848   7.074  10.053  10.024 -0.1668 -0.5095  1.0891
  727MOL0     N95849   7.187  10.051  10.120  0.9197  0.6065 -0.0837
  727MOL0     C95850   7.180  10.044  10.256  0.2365  0.6335  0.0581
  727MOL0     C95851   7.303  10.039  10.302 -0.3131 -0.0026  0.0032
  727MOL0     C95852   7.327  10.004  10.444 -0.2337  0.9283  0.3140
  727MOL0     C95853   7.247  10.086  10.545 -0.6809  0.0268  0.5685
  727MOL0     C95854   7.262  10.018  10.680  1.0027  0.2349  0.0454
  727MOL0     C95855   7.119   9.998  10.744  0.4400  0.2273  0.2552
  727MOL0     O95856   7.068  10.120  10.806 -0.4771 -0.0325 -0.2097
  727MOL0     C95857   7.125  10.183  10.912  0.2895  0.4167  0.4482
  727MOL0     C95858   7.206  10.127  11.015  0.0615 -0.1233 -0.9204
  727MOL0     C95859   7.260  10.212  11.114  0.2220  0.8618  0.1930
  727MOL0     C95860   7.231  10.354  11.104  0.0007  0.5419  1.2430
  727MOL0     C95861   7.289  10.447  11.205 -0.3783 -0.1377 -0.0991
  727MOL0     O95862   7.262  10.581  11.177 -0.3291  0.4621 -0.8933
  727MOL0     C95863   7.308  10.677  11.266  0.2992  0.6160  0.1135
  727MOL0     C95864   7.258  10.679  11.392  0.5418  0.2726  0.2835
  727MOL0     C95865   7.306  10.772  11.495  0.1004  0.2566  0.4465
  727MOL0     C95866   7.401  10.870  11.460  0.1196  0.3183 -1.0573
  727MOL0     O95867   7.434  10.958  11.562 -0.0483  0.3051  0.2502
  727MOL0     C95868   7.559  11.023  11.535  0.2659  0.2457  0.7153
  727MOL0     C95869   7.596  11.117  11.649 -0.4556 -0.3755  0.5544
  727MOL0     C95870   7.701  11.230  11.612 -0.0964 -0.7575 -0.6095
  727MOL0     C95871   7.708  11.334  11.707 -0.4154 -0.8422 -0.4312
  727MOL0     C95872   7.799  11.457  11.667  1.0150  0.6155 -0.1258
  727MOL0     C95873   7.767  11.519  11.534  0.6499 -1.1464 -0.7933
  727MOL0     C95874   7.822  11.666  11.547  0.1988  0.5499 -0.1378
  727MOL0     C95875   7.979  11.684  11.547 -0.3720  0.3390  1.2235
  727MOL0    Cl95876   8.051  11.590  11.412 -0.1427  0.0274 -0.3867
  727MOL0     C95877   7.450  10.867  11.327 -0.3402  0.0726  0.3381
  727MOL0     C95878   7.403  10.771  11.233  0.2358  0.8481 -1.0382
  727MOL0     O95879   7.351  10.401  11.299  0.4616 -0.6627 -0.0416
  727MOL0     C95880   7.132  10.401  11.014 -0.3080  0.8322 -0.3403
  727MOL0     C95881   7.082  10.313  10.919 -0.4362  0.3307  0.7897
  727MOL0     N95882   7.388  10.046  10.198  0.0764 -0.1258 -0.2690
  727MOL0     N95883   7.317  10.062  10.087 -0.0021 -0.4526 -0.8932
  727MOL0     C95884   6.581  10.500  10.935 -0.1000  0.1606 -0.2590
  727MOL0     C95885   6.581  10.444  11.067 -0.1384 -0.9719  0.0263
  727MOL0     C95886   6.572  10.155  11.416 -1.0954  0.2713 -0.9992
  727MOL0     C95887   6.472  10.108  11.503 -0.1541  0.7207 -0.3631
  727MOL0     C95888   6.498  10.055  11.626 -0.3883 -0.6243 -0.2912
  727MOL0     C95889   6.629  10.024  11.662  0.4483 -0.4861  0.7165
  727MOL0     O95890   6.657   9.963  11.779 -0.0152 -0.3136  0.0999
  727MOL0     C95891   6.612  10.033  11.895  0.0233  0.3973 -0.7106
  727MOL0     C95892   6.679  10.008  12.036 -0.2263 -1.0935  0.9480
  727MOL0     C95893   6.679   9.855  12.071 -0.4504  0.7493  0.3161
  727MOL0     C95894   6.790   9.780  11.997  0.6790 -0.9788  0.1685
  727MOL0     C95895   6.915   9.807  12.066 -0.7440 -0.9295  0.2278
  727MOL0     C95896   7.011   9.818  12.144  0.1673 -0.4112 -0.0373
  727MOL0     C95897   6.730  10.064  11.578  0.6044  0.0244 -0.2158
  727MOL0     C95898   6.706  10.142  11.457  0.2357 -0.5351  0.0845
  727MOL0     H95899   6.751  10.154  11.012  0.1763 -0.7532 -0.9478
  727MOL0     H95900   6.756  10.248  10.782 -2.7905  0.0678 -0.7605
  727MOL0     H95901   6.607  10.436  10.512  1.9988 -0.3140 -2.1795
  727MOL0     H95902   6.652  10.315  10.618 -3.4131  1.8080 -0.1488
  727MOL0     H95903   6.891  10.417  10.626 -2.6991  2.4637  2.2027
  727MOL0     H95904   6.834  10.531  10.508  2.5149 -0.5075 -1.2252
  727MOL0     H95905   6.743  10.304  10.372 -0.1846  0.3591 -2.1238
  727MOL0     H95906   6.893  10.243  10.443  0.1228 -1.7639 -2.3143
  727MOL0     H95907   6.888  10.477  10.264  1.8037  1.5033  0.3051
  727MOL0     H95908   7.031  10.395  10.351 -0.3901  1.4161  1.2663
  727MOL0     H95909   6.846  10.268  10.152 -0.7205 -0.1593  0.0195
  727MOL0     H95910   6.973  10.181  10.247 -0.1978  1.0086  3.2365
  727MOL0     H95911   7.153  10.304  10.137  0.7815 -0.4478 -1.2836
  727MOL0     H95912   7.033  10.398  10.040 -0.7342 -2.0470 -3.6500
  727MOL0     H95913   6.940  10.205   9.944 -1.1184 -0.4770  1.7041
  727MOL0     H95914   7.120  10.224   9.908  0.7381 -1.1229  0.2758
  727MOL0     H95915   7.097   9.995   9.933 -1.6593 -0.3963  0.6087
  727MOL0     H95916   6.986  10.003  10.065 -2.3804 -0.6910 -3.2454
  727MOL0     H95917   7.094  10.018  10.318  1.4950 -1.2711  1.1202
  727MOL0     H95918   7.431  10.030  10.466 -0.1674 -0.4091  1.6974
  727MOL0     H95919   7.299   9.900  10.460  1.6017  0.6071  1.8376
  727MOL0     H95920   7.145  10.100  10.510  0.3125  3.9188 -1.4153
  727MOL0     H95921   7.287  10.188  10.550  0.1753 -0.1240 -1.7841
  727MOL0     H95922   7.321   9.927  10.661  1.3334  0.5075 -0.2554
  727MOL0     H95923   7.331  10.072  10.746  3.5542 -0.5990 -1.7879
  727MOL0     H95924   7.129   9.917  10.816  0.6846  0.3874  0.4021
  727MOL0     H95925   7.055   9.964  10.662  2.4849  0.1224 -1.3714
  727MOL0     H95926   7.210  10.018  11.017 -1.6991 -0.2844 -2.7113
  727MOL0     H95927   7.326  10.172  11.191  1.6380  1.9800 -0.3853
  727MOL0     H95928   7.185  10.605  11.424 -0.8272  0.0210 -3.0568
  727MOL0     H95929   7.278  10.763  11.599  0.2991 -2.2750  0.3398
  727MOL0     H95930   7.540  11.081  11.444  1.3956 -1.6681 -0.8076
  727MOL0     H95931   7.634  10.946  11.517 -0.4585  0.0528 -2.0425
  727MOL0     H95932   7.641  11.056  11.728  1.2451  1.8562  1.3959
  727MOL0     H95933   7.503  11.165  11.680 -1.2721 -0.5881 -1.4483
  727MOL0     H95934   7.658  11.280  11.525 -1.7474  3.0240  2.1178
  727MOL0     H95935   7.797  11.188  11.581 -1.3427 -2.4255 -2.4701
  727MOL0     H95936   7.609  11.376  11.727  0.7518  1.9988 -0.2043
  727MOL0     H95937   7.744  11.302  11.805 -0.5754 -3.8962 -1.2811
  727MOL0     H95938   7.903  11.427  11.678  0.3554 -0.9611  3.6429
  727MOL0     H95939   7.779  11.527  11.750 -2.6404 -0.7962  0.3893
  727MOL0     H95940   7.662  11.526  11.502  1.2370  0.5484 -2.5511
  727MOL0     H95941   7.811  11.468  11.449  1.3839  2.2181 -2.6142
  727MOL0     H95942   7.778  11.721  11.464  0.6208 -0.7389 -1.2671
  727MOL0     H95943   7.785  11.705  11.642  1.8077  0.5918  0.5116
  727MOL0     H95944   8.014  11.644  11.643 -2.7482 -0.4214  1.8465
  727MOL0     H95945   7.994  11.792  11.542 -0.2818  0.2786 -0.4766
  727MOL0     H95946   7.532  10.933  11.302 -0.3998  0.8138  2.0014
  727MOL0     H95947   7.447  10.785  11.135 -2.1220 -1.2210 -2.5235
  727MOL0     H95948   7.116  10.509  11.016  1.3571  1.1882  3.6156
  727MOL0     H95949   7.025  10.354  10.836  0.5556 -0.9064 -0.5563
  727MOL0     H95950   6.533  10.593  10.904 -0.4020  0.3907  0.8535
  727MOL0     H95951   6.531  10.493  11.151  0.7494 -0.2334  0.1337
  727MOL0     H95952   6.372  10.122  11.464 -0.3527 -1.8499 -0.9596
  727MOL0     H95953   6.418  10.045  11.699  0.0819  2.1225  0.7404
  727MOL0     H95954   6.506  10.008  11.903 -0.5646  2.7836 -0.2266
  727MOL0     H95955   6.617  10.142  11.882 -1.9768  0.2830 -3.2087
  727MOL0     H95956   6.781  10.046  12.043 -0.6301  0.6237 -1.2470
  727MOL0     H95957   6.619  10.055  12.115 -0.8048 -2.1208  1.1309
  727MOL0     H95958   6.581   9.815  12.045 -0.4324 -0.6101  2.1516
  727MOL0     H95959   6.682   9.860  12.180  0.1590 -2.2299  0.5194
  727MOL0     H95960   6.763   9.673  11.996  1.9101 -1.3903 -3.4968
  727MOL0     H95961   6.800   9.813  11.894 -1.3474  1.6219  0.7108
  727MOL0     H95962   7.096   9.841  12.206  1.2343 -0.0631 -1.5667
  727MOL0     H95963   6.830  10.040  11.612 -1.8254 -3.9100  5.8946
  727MOL0     H95964   6.788  10.164  11.389 -0.5375 -1.4280 -1.1873
  728MOL0     O95965   5.186  10.119  10.077 -1.1898 -0.0759 -0.0387
  728MOL0     C95966   5.252  10.050  10.004 -0.6810 -0.4752 -0.8750
  728MOL0     O95967   5.253  10.051   9.872  0.5165  0.1413  0.3205
  728MOL0     C95968   5.159  10.125   9.804  0.7736  0.3656 -0.5242
  728MOL0     C95969   5.025  10.139   9.842  0.5567  0.0567  0.2177
  728MOL0     C95970   4.933  10.207   9.761  0.0611 -1.5165 -0.3446
  728MOL0     C95971   4.983  10.278   9.649 -0.5240  0.1158  0.3409
  728MOL0     O95972   4.900  10.368   9.593  0.0597  0.1548  0.0777
  728MOL0     C95973   4.826  10.335   9.474  0.1212 -0.0377  0.6710
  728MOL0     C95974   4.708  10.250   9.503  0.4672  0.6592  0.0744
  728MOL0     C95975   4.595  10.320   9.579 -0.9344 -0.3691  0.1869
  728MOL0     C95976   4.462  10.236   9.583  0.3025  0.7045  0.2135
  728MOL0     C95977   4.338  10.307   9.639  0.0945  0.1891 -1.3896
  728MOL0     C95978   4.370  10.383   9.774  0.0227 -0.1948 -0.1129
  728MOL0     C95979   4.243  10.443   9.831 -0.1584 -0.4954 -0.5993
  728MOL0     C95980   4.258  10.565   9.921 -0.2193 -0.1322  0.2756
  728MOL0     N95981   4.274  10.533  10.063  0.1047 -0.2434  0.2438
  728MOL0     C95982   4.388  10.461  10.100 -0.1927 -0.0253  0.0084
  728MOL0     C95983   4.356  10.401  10.214  0.2840 -0.1494  0.8717
  728MOL0     C95984   4.432  10.289  10.288  0.7365  0.5328  0.3557
  728MOL0     C95985   4.531  10.360  10.376 -0.6243  0.1910 -0.6191
  728MOL0     C95986   4.477  10.455  10.479 -0.3879 -0.8434 -0.0686
  728MOL0     C95987   4.382  10.398  10.576  0.1194 -1.0225  0.2928
  728MOL0     O95988   4.332  10.493  10.665  0.6292 -0.7488  0.3725
  728MOL0     C95989   4.394  10.499  10.792  0.9172  0.2845 -0.8600
  728MOL0     C95990   4.526  10.446  10.810  0.5502  0.4990 -0.8437
  728MOL0     C95991   4.585  10.458  10.933  0.6040  1.4192 -1.0613
  728MOL0     C95992   4.528  10.515  11.047 -0.2736  1.1664  0.2646
  728MOL0     C95993   4.592  10.514  11.180  0.4498 -0.1899 -0.8407
  728MOL0     O95994   4.721  10.477  11.183  0.3655  0.9086  0.3741
  728MOL0     C95995   4.782  10.451  11.302 -0.0742  0.5999 -0.2836
  728MOL0     C95996   4.915  10.489  11.334  0.5499 -0.5468  0.1824
  728MOL0     C95997   4.984  10.438  11.442  0.0683 -0.4441  0.9096
  728MOL0     C95998   4.918  10.350  11.535 -0.4724  0.5822  0.4925
  728MOL0     O95999   4.992  10.292  11.637  0.5179 -1.5396 -0.0675
  728MOL0     C96000   5.115  10.231  11.604  0.6839  0.2369  0.5454
  728MOL0     C96001   5.166  10.175  11.738 -0.0662 -0.3940  0.1031
  728MOL0     C96002   5.182  10.021  11.729 -0.5770 -0.6315 -0.5032
  728MOL0     C96003   5.248   9.973  11.864 -0.1776  0.2249  0.6036
  728MOL0     C96004   5.307   9.829  11.855 -0.2091  0.1055  0.0624
  728MOL0     C96005   5.201   9.733  11.864  0.1409  0.3529  0.0103
  728MOL0     C96006   5.256   9.597  11.857  0.1854  0.2807  0.7595
  728MOL0     C96007   5.156   9.489  11.820  0.9449 -0.1565 -0.5522
  728MOL0    Cl96008   5.033   9.493  11.947 -0.3312  0.4275 -0.3047
  728MOL0     C96009   4.793  10.314  11.507  0.2373  0.3824  0.7443
  728MOL0     C96010   4.726  10.356  11.388  0.0500  0.2461  0.8389
  728MOL0     O96011   4.523  10.551  11.273 -0.4769  0.6596 -0.1388
  728MOL0     C96012   4.394  10.566  11.030  0.3300 -0.0127 -0.2092
  728MOL0     C96013   4.334  10.560  10.897  0.4242  0.2683 -0.5248
  728MOL0     N96014   4.227  10.434  10.245 -0.2635 -0.2167 -0.0583
  728MOL0     N96015   4.175  10.503  10.147  0.4713 -0.4663 -0.4403
  728MOL0     C96016   5.117  10.277   9.613  0.2332 -0.1497  0.5933
  728MOL0     C96017   5.205  10.196   9.692  0.8021  0.4526  0.7659
  728MOL0     C96018   5.338   9.953  10.077 -0.7993 -0.2804 -0.2222
  728MOL0     C96019   5.320   9.920  10.214 -0.1492 -0.9171 -0.4912
  728MOL0     C96020   5.382   9.806  10.271  0.2579 -0.3011 -0.0783
  728MOL0     C96021   5.481   9.736  10.203  0.9671  0.1320  0.6056
  728MOL0     O96022   5.548   9.626  10.232  0.6432 -0.3950 -0.1302
  728MOL0     C96023   5.489   9.554  10.341  0.2035  0.6286 -0.4537
  728MOL0     C96024   5.562   9.433  10.360 -0.8534  0.2251  0.5760
  728MOL0     C96025   5.524   9.336  10.473 -0.6421 -1.1177  0.6651
  728MOL0     C96026   5.603   9.212  10.444  0.6256 -0.1258 -0.7666
  728MOL0     C96027   5.580   9.112  10.551 -0.2901  0.1634 -0.1317
  728MOL0     C96028   5.571   9.029  10.643  0.0677 -0.8664  0.2810
  728MOL0     C96029   5.504   9.764  10.065  0.0496 -1.0876 -0.5030
  728MOL0     C96030   5.430   9.869  10.009  0.2675 -1.2287 -0.0477
  728MOL0     H96031   4.981  10.088   9.926  2.1113 -2.0274 -0.1575
  728MOL0     H96032   4.830  10.224   9.789  0.2626  1.5586 -1.1606
  728MOL0     H96033   4.895  10.284   9.406 -1.0938 -3.7991  2.0412
  728MOL0     H96034   4.796  10.425   9.419 -1.2905  0.1234  1.6756
  728MOL0     H96035   4.729  10.160   9.562 -0.5557  0.9502  0.9027
  728MOL0     H96036   4.670  10.222   9.404  0.6494 -1.6494  0.5911
  728MOL0     H96037   4.586  10.420   9.536 -2.4884 -0.5595 -0.0006
  728MOL0     H96038   4.629  10.337   9.682 -0.8044 -4.7391  1.0497
  728MOL0     H96039   4.437  10.195   9.485  3.0185  3.8770 -2.0135
  728MOL0     H96040   4.482  10.153   9.652 -2.0588  1.1344  1.5630
  728MOL0     H96041   4.273  10.226   9.671  2.0176 -1.1670 -0.7601
  728MOL0     H96042   4.294  10.378   9.568 -1.7421  1.8269  1.2154
  728MOL0     H96043   4.448  10.457   9.758  3.4957 -3.8614 -2.1197
  728MOL0     H96044   4.405  10.309   9.847 -1.0905  2.9130  3.9125
  728MOL0     H96045   4.182  10.484   9.750 -0.3604  0.3412 -0.0343
  728MOL0     H96046   4.180  10.365   9.875 -2.7332  1.7727 -0.0247
  728MOL0     H96047   4.172  10.632   9.912 -0.2246 -0.4600 -3.2990
  728MOL0     H96048   4.342  10.620   9.877 -0.9112  0.4070 -0.3953
  728MOL0     H96049   4.477  10.433  10.044 -0.9950 -0.4574 -1.0834
  728MOL0     H96050   4.484  10.224  10.217 -0.4623  0.5120 -0.5260
  728MOL0     H96051   4.368  10.236  10.360 -0.2400 -0.5047 -1.2138
  728MOL0     H96052   4.584  10.416  10.298 -2.3515 -0.8744 -2.6389
  728MOL0     H96053   4.587  10.279  10.424  1.0374  2.1927  1.0392
  728MOL0     H96054   4.565  10.500  10.525  0.5764  0.2200 -2.7735
  728MOL0     H96055   4.435  10.546  10.435 -3.9179 -0.8504  2.8069
  728MOL0     H96056   4.436  10.317  10.625  2.3969 -0.2300 -0.7375
  728MOL0     H96057   4.295  10.359  10.522  1.1141  0.0619 -2.2286
  728MOL0     H96058   4.578  10.388  10.734  0.6103 -3.2806  1.7681
  728MOL0     H96059   4.678  10.402  10.938 -0.8414 -1.0211  0.9801
  728MOL0     H96060   4.967  10.553  11.263 -0.7399 -0.5471 -0.8064
  728MOL0     H96061   5.090  10.459  11.445 -0.1108  0.5793  4.5021
  728MOL0     H96062   5.194  10.298  11.568  1.8439 -0.2520  2.0766
  728MOL0     H96063   5.102  10.151  11.530  1.0597 -0.1351  0.8742
  728MOL0     H96064   5.087  10.181  11.814 -1.8087  1.1562 -1.7091
  728MOL0     H96065   5.255  10.236  11.755  0.1213  0.7332 -3.9953
  728MOL0     H96066   5.246   9.990  11.646  0.7944  1.3113 -0.2389
  728MOL0     H96067   5.080   9.984  11.720 -1.2298  0.7642  0.6734
  728MOL0     H96068   5.331  10.042  11.881 -1.2364  1.4939  0.7807
  728MOL0     H96069   5.179   9.978  11.949 -0.2512 -1.2738  0.6672
  728MOL0     H96070   5.364   9.821  11.948 -0.2951 -0.8071  0.0375
  728MOL0     H96071   5.379   9.823  11.772 -0.9812 -0.6325 -0.5675
  728MOL0     H96072   5.144   9.755  11.774  1.0264 -3.0343 -1.5438
  728MOL0     H96073   5.146   9.736  11.958 -1.3201  3.3711 -0.8328
  728MOL0     H96074   5.348   9.606  11.799  0.0076  1.1212  0.5905
  728MOL0     H96075   5.295   9.565  11.954  5.7996  0.6170 -1.0355
  728MOL0     H96076   5.189   9.386  11.803 -0.7060 -1.2167  2.1703
  728MOL0     H96077   5.109   9.516  11.724  1.2662 -1.1359 -0.9917
  728MOL0     H96078   4.735  10.249  11.573  1.0428 -1.1829 -0.0463
  728MOL0     H96079   4.630  10.309  11.370  0.1406  0.8384 -1.4762
  728MOL0     H96080   4.345  10.624  11.107  1.3951 -0.8039  1.1129
  728MOL0     H96081   4.232  10.596  10.893 -0.2740 -0.7973  3.3112
  728MOL0     H96082   5.165  10.322   9.527  0.4841 -0.7403  0.4187
  728MOL0     H96083   5.307  10.185   9.657  1.4083 -0.7069  2.7538
  728MOL0     H96084   5.269   9.988  10.282  2.7998  0.1651  0.8164
  728MOL0     H96085   5.367   9.792  10.378  4.4704  0.2642  0.7301
  728MOL0     H96086   5.383   9.548  10.314 -0.8118  4.5909  1.7682
  728MOL0     H96087   5.483   9.613  10.433 -1.4718 -0.8718  0.4665
  728MOL0     H96088   5.560   9.377  10.266  0.9087 -0.9526  1.1897
  728MOL0     H96089   5.665   9.461  10.383 -0.9035 -1.2682  3.0628
  728MOL0     H96090   5.417   9.315  10.478 -1.5046  2.3332 -0.2357
  728MOL0     H96091   5.544   9.380  10.572 -1.2053 -1.8474  1.1164
  728MOL0     H96092   5.581   9.163  10.349 -0.5992  0.4876 -0.8097
  728MOL0     H96093   5.711   9.231  10.434  1.4775 -3.8228 -0.3925
  728MOL0     H96094   5.551   8.964  10.725  0.1498  3.6859  4.3611
  728MOL0     H96095   5.579   9.713  10.006  1.2314 -3.9131  3.1652
  728MOL0     H96096   5.432   9.892   9.903  0.9791 -1.0267  0.0057
  729MOL0     O96097   1.005   7.099   9.656 -0.3851 -0.1750 -0.0483
  729MOL0     C96098   1.046   6.992   9.701 -0.8400  0.2315 -0.2462
  729MOL0     O96099   0.995   6.875   9.664 -0.1792 -0.4121  0.0205
  729MOL0     C96100   0.897   6.869   9.564  0.1098 -0.4317 -0.4379
  729MOL0     C96101   0.917   6.921   9.441 -0.4589  0.0037  0.4485
  729MOL0     C96102   0.823   6.908   9.339  0.0480 -0.8876 -0.9641
  729MOL0     C96103   0.714   6.832   9.362 -0.1852  0.2236 -0.0007
  729MOL0     O96104   0.634   6.823   9.252  0.1828 -0.7785 -0.5699
  729MOL0     C96105   0.492   6.809   9.275  0.3490 -0.6455  0.2412
  729MOL0     C96106   0.406   6.844   9.155 -0.8585 -0.4025 -0.1409
  729MOL0     C96107   0.428   6.740   9.050 -0.6936  0.6520 -0.3673
  729MOL0     C96108   0.348   6.606   9.068  0.7694 -0.3410 -0.1638
  729MOL0     C96109   0.285   6.566   8.937  0.3116  0.7621 -0.4898
  729MOL0     C96110   0.238   6.419   8.928  0.4464 -0.1682  0.6001
  729MOL0     C96111   0.128   6.374   9.034 -0.0973  0.7884 -0.0832
  729MOL0     C96112   0.102   6.222   9.028  0.3722 -0.0510 -0.9063
  729MOL0     N96113   0.060   6.195   8.895 -0.5818 -0.3445 -0.3287
  729MOL0     C96114  -0.066   6.229   8.841 -0.2941  0.5927  0.3018
  729MOL0     C96115  -0.072   6.161   8.727 -0.2348 -1.1360  0.5409
  729MOL0     C96116  -0.178   6.193   8.629  0.2381 -0.8500 -0.3687
  729MOL0     C96117  -0.116   6.180   8.486  0.9065  0.3499 -0.7133
  729MOL0     C96118  -0.224   6.219   8.396  0.6520 -0.4999 -0.2802
  729MOL0     C96119  -0.166   6.233   8.262 -0.1529  0.6069 -0.3205
  729MOL0     O96120  -0.095   6.118   8.212  0.6848 -0.8094 -0.1461
  729MOL0     C96121  -0.168   6.030   8.137  0.5009 -0.4849 -0.0245
  729MOL0     C96122  -0.097   5.950   8.038  0.7638 -0.0829 -0.0379
  729MOL0     C96123  -0.162   5.857   7.949 -0.3443 -0.7166 -0.5940
  729MOL0     C96124  -0.297   5.832   7.974 -0.8447  1.5582 -0.1165
  729MOL0     C96125  -0.377   5.720   7.912  0.2943  0.5295  0.0114
  729MOL0     O96126  -0.320   5.638   7.827  0.2076 -0.0248  0.2353
  729MOL0     C96127  -0.411   5.558   7.768  0.0865 -0.1550  0.1732
  729MOL0     C96128  -0.481   5.452   7.839 -0.1848  0.0283  0.2639
  729MOL0     C96129  -0.536   5.342   7.779 -0.1008 -0.4523  0.4120
  729MOL0     C96130  -0.533   5.341   7.632 -0.4696  0.8116 -0.1470
  729MOL0     O96131  -0.609   5.254   7.553 -0.1863  0.7921  0.0124
  729MOL0     C96132  -0.708   5.157   7.610  1.4403  0.1740 -0.1268
  729MOL0     C96133  -0.632   5.031   7.614 -0.2063  0.5740  0.8583
  729MOL0     C96134  -0.655   4.936   7.731  0.0362 -0.0581  0.3055
  729MOL0     C96135  -0.541   4.836   7.750 -0.0930  0.1630  0.2620
  729MOL0     C96136  -0.568   4.732   7.854 -0.1427 -1.0111  0.3189
  729MOL0     C96137  -0.701   4.658   7.841 -0.7537  0.2240  0.5338
  729MOL0     C96138  -0.700   4.536   7.937  0.1822  0.2705 -0.4363
  729MOL0     C96139  -0.836   4.475   7.933 -0.3462  0.2683 -0.2316
  729MOL0    Cl96140  -0.945   4.554   8.039  0.8080  0.0555 -0.3953
  729MOL0     C96141  -0.461   5.437   7.559  0.8463  0.1654  0.2599
  729MOL0     C96142  -0.410   5.548   7.623  0.0685 -0.0474 -0.3028
  729MOL0     O96143  -0.498   5.717   7.948  0.1556 -0.0724  0.5221
  729MOL0     C96144  -0.365   5.915   8.066  0.0497 -0.3414  1.1180
  729MOL0     C96145  -0.305   6.012   8.138  0.3252  0.4622  0.1493
  729MOL0     N96146   0.046   6.087   8.716 -0.8156  0.0757  0.0722
  729MOL0     N96147   0.123   6.100   8.818 -0.0708 -1.3040  0.9279
  729MOL0     C96148   0.690   6.779   9.491  1.0143  0.8554  0.5519
  729MOL0     C96149   0.785   6.797   9.588  1.3762  0.1834 -0.0430
  729MOL0     C96150   1.146   6.997   9.798  0.1227 -0.7232 -0.0238
  729MOL0     C96151   1.223   7.121   9.812 -1.3572  0.3332  0.2470
  729MOL0     C96152   1.328   7.138   9.914  0.7464  0.8191  0.6293
  729MOL0     C96153   1.357   7.029   9.996  0.0613  0.1522  0.0535
  729MOL0     O96154   1.453   7.024  10.095  0.1598 -0.6773  0.5505
  729MOL0     C96155   1.533   7.143  10.116  0.2819  0.1546  0.5345
  729MOL0     C96156   1.636   7.168  10.007 -0.8925  0.2868 -0.7248
  729MOL0     C96157   1.711   7.303  10.003  0.3844  0.0942 -1.9060
  729MOL0     C96158   1.866   7.297   9.976 -0.2120  0.5154  0.2722
  729MOL0     C96159   1.941   7.218  10.071 -0.2960  0.2588  0.6715
  729MOL0     C96160   2.005   7.164  10.160  0.5081  0.0021 -0.7899
  729MOL0     C96161   1.290   6.907   9.974 -0.4517  0.0270  0.3526
  729MOL0     C96162   1.191   6.890   9.874 -0.6368 -0.3731  0.6086
  729MOL0     H96163   1.002   6.987   9.427  0.5117 -1.4478 -0.8691
  729MOL0     H96164   0.825   6.954   9.241 -2.1180 -1.9309 -1.5654
  729MOL0     H96165   0.462   6.879   9.354 -1.9028 -3.7913  2.4119
  729MOL0     H96166   0.467   6.709   9.311  1.1835 -1.4663 -1.3919
  729MOL0     H96167   0.449   6.938   9.120  0.0116 -0.8909 -0.4169
  729MOL0     H96168   0.300   6.870   9.166 -0.5263  3.1279 -3.1794
  729MOL0     H96169   0.534   6.713   9.041 -0.4221  2.2525 -4.7177
  729MOL0     H96170   0.388   6.790   8.960 -2.0879  0.0975 -0.0810
  729MOL0     H96171   0.416   6.525   9.096  0.9458 -0.5723 -1.2112
  729MOL0     H96172   0.273   6.607   9.148  1.1079 -0.8996  0.1603
  729MOL0     H96173   0.354   6.575   8.853  1.8943  0.5889  0.7460
  729MOL0     H96174   0.193   6.620   8.917 -1.1710 -1.1281  0.8371
  729MOL0     H96175   0.317   6.344   8.929 -0.4847 -1.3482 -2.4900
  729MOL0     H96176   0.193   6.416   8.828  0.4465  1.9139  0.4952
  729MOL0     H96177   0.164   6.399   9.134 -1.1164  2.4047 -0.0954
  729MOL0     H96178   0.033   6.424   9.015  1.0064  2.4096 -1.6359
  729MOL0     H96179   0.034   6.183   9.104  0.7773  0.1785 -0.4177
  729MOL0     H96180   0.196   6.169   9.046  0.1753 -0.1211 -0.0067
  729MOL0     H96181  -0.129   6.305   8.887  0.9820  1.1236  1.2316
  729MOL0     H96182  -0.224   6.291   8.646 -1.9706 -1.6200 -1.4414
  729MOL0     H96183  -0.259   6.119   8.634 -2.6441  2.0941  0.5310
  729MOL0     H96184  -0.078   6.081   8.460 -0.2080 -0.0321 -0.9468
  729MOL0     H96185  -0.032   6.249   8.483  0.4214  1.0695  0.8791
  729MOL0     H96186  -0.291   6.133   8.385  2.1374 -1.6404 -0.8097
  729MOL0     H96187  -0.284   6.307   8.422  0.7373 -0.7003  0.6285
  729MOL0     H96188  -0.102   6.321   8.272 -0.4449  0.6550  1.5894
  729MOL0     H96189  -0.244   6.258   8.190  0.0497  0.2890 -0.6491
  729MOL0     H96190   0.010   5.970   8.033  0.5802  0.9763 -0.0165
  729MOL0     H96191  -0.099   5.808   7.877  2.6212  0.3221  1.1191
  729MOL0     H96192  -0.501   5.458   7.945  2.1330  1.6282  0.6961
  729MOL0     H96193  -0.573   5.264   7.845  1.5740 -0.4970  1.3376
  729MOL0     H96194  -0.803   5.148   7.557 -0.1238  0.6782  2.4430
  729MOL0     H96195  -0.737   5.188   7.711  2.6213  0.5644  0.1126
  729MOL0     H96196  -0.529   5.061   7.630 -0.4064  1.0699  1.2240
  729MOL0     H96197  -0.642   4.971   7.523 -2.2996  0.5576  1.0433
  729MOL0     H96198  -0.751   4.884   7.720  0.4589 -0.4418 -2.3989
  729MOL0     H96199  -0.651   4.996   7.823 -1.8701 -0.7544  0.8853
  729MOL0     H96200  -0.532   4.778   7.659 -3.6011 -0.8364  0.4123
  729MOL0     H96201  -0.449   4.884   7.787  0.1614 -0.2850  0.2144
  729MOL0     H96202  -0.569   4.776   7.954 -3.3584 -1.9634  0.8124
  729MOL0     H96203  -0.484   4.663   7.865 -0.8061 -1.6353  1.7717
  729MOL0     H96204  -0.707   4.628   7.736  1.0368  1.3846  0.0551
  729MOL0     H96205  -0.787   4.720   7.869 -1.4472  0.1643 -1.3171
  729MOL0     H96206  -0.617   4.473   7.904  0.7348  1.8619 -2.2387
  729MOL0     H96207  -0.678   4.557   8.042 -1.9482  0.1235  0.1024
  729MOL0     H96208  -0.823   4.373   7.971  1.4654  0.8506  0.8303
  729MOL0     H96209  -0.881   4.476   7.833 -4.0748  1.7652  1.2796
  729MOL0     H96210  -0.478   5.434   7.452 -0.0569 -0.2533  0.4103
  729MOL0     H96211  -0.355   5.623   7.567  0.9280  2.4786  3.5108
  729MOL0     H96212  -0.473   5.909   8.077 -0.5399  1.9784 -2.0058
  729MOL0     H96213  -0.367   6.087   8.184 -2.4465 -1.1638 -0.7150
  729MOL0     H96214   0.614   6.706   9.520 -0.6292  1.4380 -1.9766
  729MOL0     H96215   0.763   6.747   9.682  3.7836  0.0160  0.5009
  729MOL0     H96216   1.204   7.208   9.750 -4.1545 -1.4892 -1.7185
  729MOL0     H96217   1.372   7.238   9.917  0.7960  0.7918  0.8662
  729MOL0     H96218   1.580   7.125  10.213  4.5479  0.3952 -1.2462
  729MOL0     H96219   1.469   7.231  10.115  1.7736  1.3131 -0.8414
  729MOL0     H96220   1.705   7.084   9.996 -4.0849 -2.8178  1.1271
  729MOL0     H96221   1.582   7.158   9.913 -2.4170 -1.4004  0.2710
  729MOL0     H96222   1.702   7.356  10.098  3.0444  1.6338 -2.4101
  729MOL0     H96223   1.663   7.359   9.922 -2.7660 -2.3634 -1.9261
  729MOL0     H96224   1.890   7.245   9.882  1.3505  0.1985  0.8243
  729MOL0     H96225   1.909   7.397   9.986  1.6671 -0.3011  0.8959
  729MOL0     H96226   2.056   7.115  10.240  0.1607 -1.4310 -1.4111
  729MOL0     H96227   1.311   6.811  10.019 -2.8742 -0.4390  0.6160
  729MOL0     H96228   1.144   6.796   9.849  2.4581 -1.6276 -1.0427
  730MOL0     O96229  10.163   8.989   3.729  0.4692  0.9799  1.0239
  730MOL0     C96230  10.225   8.994   3.620 -0.8071  0.3182 -0.5178
  730MOL0     O96231  10.353   8.954   3.608 -0.8247  0.7455  0.8870
  730MOL0     C96232  10.415   8.867   3.689 -0.8778  0.0330 -0.2075
  730MOL0     C96233  10.477   8.753   3.643 -0.2424 -0.0169  0.7058
  730MOL0     C96234  10.556   8.669   3.717  0.2508  0.9536  0.2854
  730MOL0     C96235  10.558   8.693   3.857 -0.1021 -0.2773 -0.1851
  730MOL0     O96236  10.647   8.612   3.929  0.4365 -0.6333 -0.0088
  730MOL0     C96237  10.584   8.545   4.033 -0.3907 -0.0300  0.3065
  730MOL0     C96238  10.570   8.400   3.972  0.8782  0.4561 -0.1386
  730MOL0     C96239  10.523   8.290   4.082  0.4143  0.6982 -0.6330
  730MOL0     C96240  10.363   8.299   4.110 -0.8767  0.4604 -0.4010
  730MOL0     C96241  10.327   8.309   4.266 -0.1702  0.5351 -0.4664
  730MOL0     C96242  10.368   8.174   4.336  0.1164  0.4988  0.0010
  730MOL0     C96243  10.347   8.206   4.487  0.2287 -0.4511  0.5665
  730MOL0     C96244  10.206   8.221   4.540 -0.3092  0.4111 -0.6650
  730MOL0     N96245  10.126   8.103   4.514  1.8335 -0.2977 -0.0103
  730MOL0     C96246  10.077   8.059   4.391 -0.3150 -0.1373  0.4400
  730MOL0     C96247  10.049   7.930   4.409  0.2427 -0.0984 -0.4588
  730MOL0     C96248  10.002   7.829   4.297 -0.0637 -0.1493 -0.9253
  730MOL0     C96249   9.977   7.891   4.167  0.7859 -0.5398 -0.1560
  730MOL0     C96250  10.108   7.908   4.087  0.3398  0.0892  0.9513
  730MOL0     C96251  10.092   8.000   3.965 -0.8981  0.6272  0.6182
  730MOL0     O96252   9.977   7.966   3.875 -0.6500  0.2011  0.4840
  730MOL0     C96253   9.959   8.034   3.757  0.0142 -0.1221  1.0677
  730MOL0     C96254  10.021   8.159   3.731 -0.9578  0.3987  0.1125
  730MOL0     C96255   9.989   8.225   3.617 -0.4006  0.5388  1.0804
  730MOL0     C96256   9.911   8.183   3.513 -0.8937  0.5945  0.3020
  730MOL0     C96257   9.903   8.256   3.381  0.1542 -0.0189  0.2194
  730MOL0     O96258   9.889   8.179   3.261  0.7737  0.3505  0.6631
  730MOL0     C96259   9.863   8.249   3.146 -0.8287  0.0188  1.4152
  730MOL0     C96260   9.938   8.222   3.031  0.1214  0.2136  0.6026
  730MOL0     C96261   9.915   8.283   2.909 -0.1733 -0.5821 -0.9186
  730MOL0     C96262   9.808   8.375   2.904 -0.2690  0.6833  0.9140
  730MOL0     O96263   9.759   8.443   2.795  0.5365 -0.0720  0.0172
  730MOL0     C96264   9.864   8.501   2.720  0.6650 -0.0629 -0.4657
  730MOL0     C96265   9.829   8.515   2.573  0.3097 -0.3294  0.4366
  730MOL0     C96266   9.686   8.580   2.549  0.3065  0.1566  0.1654
  730MOL0     C96267   9.653   8.709   2.627  0.2858  0.6355  0.1577
  730MOL0     C96268   9.511   8.747   2.608  0.7007 -0.6401  0.0965
  730MOL0     C96269   9.416   8.664   2.701 -0.2187  0.6486  0.0566
  730MOL0     C96270   9.280   8.736   2.743  0.2861 -0.6508 -0.5680
  730MOL0     C96271   9.187   8.638   2.813  0.1953 -0.7029 -0.8120
  730MOL0    Cl96272   9.137   8.493   2.709  0.4410 -0.1305  0.7671
  730MOL0     C96273   9.739   8.413   3.018 -0.1659 -0.0228  0.4999
  730MOL0     C96274   9.766   8.350   3.140  0.1457 -0.0453  0.1876
  730MOL0     O96275   9.914   8.380   3.386  0.3549 -0.3929  0.1760
  730MOL0     C96276   9.858   8.055   3.534  0.1330 -0.7384 -0.3551
  730MOL0     C96277   9.883   7.983   3.654 -0.7686  0.6589  0.7899
  730MOL0     N96278  10.093   7.893   4.539 -0.8952 -0.7075  0.8103
  730MOL0     N96279  10.137   7.996   4.596  0.1716 -0.2073  0.2720
  730MOL0     C96280  10.496   8.801   3.909 -0.1632 -0.7361 -0.9917
  730MOL0     C96281  10.424   8.889   3.828 -0.7080 -0.2918 -0.1567
  730MOL0     C96282  10.153   9.064   3.509  0.6298 -0.3206 -0.2757
  730MOL0     C96283  10.019   9.108   3.512 -0.3285 -0.6654  0.3566
  730MOL0     C96284   9.960   9.166   3.405  0.2518  1.6892  0.5729
  730MOL0     C96285  10.019   9.178   3.279 -0.6483 -0.7034  0.7162
  730MOL0     O96286   9.965   9.243   3.167 -0.5366 -0.8321  0.0639
  730MOL0     C96287   9.839   9.279   3.166  0.6647 -0.6013 -0.7090
  730MOL0     C96288   9.804   9.362   3.037 -0.0649  0.4887  0.0270
  730MOL0     C96289   9.662   9.323   3.017  1.0292 -0.5316 -0.4391
  730MOL0     C96290   9.591   9.392   2.899  0.0737  0.3334 -0.1087
  730MOL0     C96291   9.490   9.304   2.848  0.3088  0.5233 -0.1042
  730MOL0     C96292   9.412   9.221   2.799 -0.3805  0.9987 -0.3167
  730MOL0     C96293  10.142   9.103   3.268  0.5953 -0.7897 -0.3979
  730MOL0     C96294  10.211   9.062   3.381 -0.1167  0.6275 -0.2641
  730MOL0     H96295  10.460   8.742   3.536  0.8663 -1.7520  0.6709
  730MOL0     H96296  10.616   8.588   3.676  2.3439  2.7102 -0.2888
  730MOL0     H96297  10.484   8.588   4.047 -0.9509 -0.5733 -1.7347
  730MOL0     H96298  10.640   8.539   4.127  0.5973  2.2169 -0.0806
  730MOL0     H96299  10.652   8.373   3.905 -2.0315 -1.7814 -3.1115
  730MOL0     H96300  10.487   8.408   3.901  0.8889 -0.0710 -0.2146
  730MOL0     H96301  10.583   8.292   4.174  0.3388  1.8058 -0.6003
  730MOL0     H96302  10.544   8.191   4.039 -0.2339 -1.0043  2.5777
  730MOL0     H96303  10.320   8.386   4.059 -4.1318 -0.5728  0.3717
  730MOL0     H96304  10.305   8.216   4.070 -0.1084 -0.8859  1.1532
  730MOL0     H96305  10.218   8.319   4.266 -0.1534  0.7153 -0.7953
  730MOL0     H96306  10.378   8.398   4.302  0.1491 -0.1452  0.8228
  730MOL0     H96307  10.473   8.151   4.317 -0.0171  1.5046 -2.2964
  730MOL0     H96308  10.310   8.094   4.290  2.4652 -0.8286 -0.8262
  730MOL0     H96309  10.400   8.119   4.529  0.9812 -0.4814 -0.4069
  730MOL0     H96310  10.415   8.286   4.519  0.7528 -0.2193 -1.0253
  730MOL0     H96311  10.160   8.314   4.506 -0.3957  0.8144  0.4882
  730MOL0     H96312  10.221   8.228   4.648 -0.2475 -1.9442 -0.4722
  730MOL0     H96313  10.068   8.114   4.298 -0.3341 -0.8593  0.0071
  730MOL0     H96314   9.906   7.790   4.332 -0.2044 -0.7902 -1.9821
  730MOL0     H96315  10.068   7.741   4.293 -1.5761 -1.2781 -4.5725
  730MOL0     H96316   9.926   7.987   4.175 -4.2610 -2.9171  0.0666
  730MOL0     H96317   9.901   7.836   4.111 -0.6001 -0.0127  1.1539
  730MOL0     H96318  10.191   7.940   4.150  0.0640 -1.0348  1.9232
  730MOL0     H96319  10.130   7.811   4.042  0.6651 -0.8401  2.9937
  730MOL0     H96320  10.179   7.985   3.900 -2.4806 -0.0342 -1.4575
  730MOL0     H96321  10.088   8.103   4.004  2.4493  1.2007 -0.2115
  730MOL0     H96322  10.085   8.208   3.804 -0.9586  1.2332 -0.4317
  730MOL0     H96323  10.038   8.321   3.601  0.1746 -0.0726 -1.2568
  730MOL0     H96324  10.014   8.145   3.038  0.1168  0.2232  0.7675
  730MOL0     H96325   9.978   8.264   2.822  2.3677 -0.0461  0.7128
  730MOL0     H96326   9.960   8.452   2.736  1.3700  1.8351  1.6728
  730MOL0     H96327   9.884   8.600   2.762  4.2017  0.0067 -2.0189
  730MOL0     H96328   9.840   8.419   2.522 -0.3906 -0.1880  0.0148
  730MOL0     H96329   9.912   8.578   2.541  1.4944 -2.4307 -0.8286
  730MOL0     H96330   9.610   8.502   2.562  0.0174 -0.7410 -4.9805
  730MOL0     H96331   9.674   8.611   2.445 -0.8256 -0.8451 -0.0266
  730MOL0     H96332   9.671   8.697   2.735 -3.7774 -1.4879  0.7961
  730MOL0     H96333   9.722   8.787   2.593  0.3237  0.1385 -0.9353
  730MOL0     H96334   9.489   8.737   2.501  2.2255  0.1250 -0.3242
  730MOL0     H96335   9.505   8.855   2.628  2.6614 -0.4161 -0.2845
  730MOL0     H96336   9.464   8.637   2.795 -0.6068 -0.3570 -0.0097
  730MOL0     H96337   9.397   8.566   2.656 -0.4011  0.7398 -0.0686
  730MOL0     H96338   9.304   8.812   2.818 -3.9021  0.8030 -0.4459
  730MOL0     H96339   9.233   8.768   2.650  2.0526 -1.1690 -1.6960
  730MOL0     H96340   9.102   8.695   2.853  0.6984 -1.5152  1.5621
  730MOL0     H96341   9.236   8.593   2.900  0.4964 -1.2449 -1.2640
  730MOL0     H96342   9.677   8.502   3.017 -0.2219 -0.0531 -0.9418
  730MOL0     H96343   9.714   8.386   3.227  0.9234 -2.4176  1.7468
  730MOL0     H96344   9.792   8.010   3.460 -0.5090  3.0993 -2.4013
  730MOL0     H96345   9.833   7.892   3.685 -0.6779 -0.1841 -1.3565
  730MOL0     H96346  10.519   8.831   4.011 -0.1945  3.5815 -2.0768
  730MOL0     H96347  10.371   8.974   3.868 -2.0719 -1.0411 -0.3289
  730MOL0     H96348   9.987   9.108   3.616  2.4157  1.2160  1.3375
  730MOL0     H96349   9.862   9.211   3.420 -0.3540  1.0453 -1.2125
  730MOL0     H96350   9.812   9.337   3.255 -4.5641 -0.3117 -2.1616
  730MOL0     H96351   9.781   9.186   3.171 -3.5342  1.8137  1.2460
  730MOL0     H96352   9.796   9.471   3.051 -3.2814  0.3167  0.2833
  730MOL0     H96353   9.870   9.346   2.951  2.5440  3.8356  1.1650
  730MOL0     H96354   9.600   9.337   3.106 -0.4238  3.5827 -1.8586
  730MOL0     H96355   9.661   9.214   3.005  0.7715 -0.6528  0.6310
  730MOL0     H96356   9.544   9.488   2.924 -1.0603  0.2489 -1.7731
  730MOL0     H96357   9.669   9.398   2.821  1.7552 -0.3461  1.4495
  730MOL0     H96358   9.339   9.157   2.753  0.5287 -0.9401  0.8377
  730MOL0     H96359  10.193   9.105   3.173  1.4559  1.7180  0.0263
  730MOL0     H96360  10.312   9.023   3.371  0.9103  2.8412  0.8066
  731MOL0     O96361   2.114   7.508   3.026 -0.1078 -0.4219 -0.5671
  731MOL0     C96362   2.058   7.462   3.129  0.5364 -0.5197 -0.9399
  731MOL0     O96363   1.939   7.515   3.182 -0.0604 -0.6165  0.9778
  731MOL0     C96364   1.881   7.609   3.097 -0.3534 -0.0634  0.5142
  731MOL0     C96365   1.860   7.744   3.135  0.3869  0.2275 -0.1115
  731MOL0     C96366   1.802   7.831   3.051  0.6547 -0.8558 -0.7807
  731MOL0     C96367   1.761   7.798   2.926 -0.1078 -0.2026  0.7212
  731MOL0     O96368   1.683   7.882   2.854  0.2460 -0.5673 -0.4534
  731MOL0     C96369   1.710   7.914   2.720 -0.0434 -0.3596 -0.6130
  731MOL0     C96370   1.599   8.004   2.673 -1.4481  0.7446  0.2672
  731MOL0     C96371   1.615   8.087   2.546  0.1044  0.1138  1.0693
  731MOL0     C96372   1.514   8.211   2.548 -0.4155  0.4212 -0.3509
  731MOL0     C96373   1.505   8.280   2.413  0.8629 -0.4739 -0.2883
  731MOL0     C96374   1.627   8.361   2.383 -0.0875  0.6981 -1.4878
  731MOL0     C96375   1.612   8.446   2.255 -0.3738  0.4173 -0.5876
  731MOL0     C96376   1.740   8.516   2.219 -0.3455 -0.3442 -0.1061
  731MOL0     N96377   1.798   8.602   2.330 -0.0806 -0.5357  0.0559
  731MOL0     C96378   1.721   8.704   2.392  0.1776 -0.0085  1.0940
  731MOL0     C96379   1.807   8.772   2.476 -0.5948  0.1461 -0.4439
  731MOL0     C96380   1.793   8.902   2.544  0.3075 -0.8397 -0.9307
  731MOL0     C96381   1.727   9.011   2.458 -1.0130  0.6417 -0.1068
  731MOL0     C96382   1.730   9.138   2.541  0.4944  0.1764  0.2187
  731MOL0     C96383   1.674   9.262   2.469 -0.7070  0.9177  0.2508
  731MOL0     O96384   1.530   9.256   2.463 -0.1983  0.4423 -0.0526
  731MOL0     C96385   1.467   9.327   2.569  0.5533  1.4160 -0.1352
  731MOL0     C96386   1.475   9.465   2.566  0.4535  0.1582 -0.6456
  731MOL0     C96387   1.408   9.543   2.665  0.9988 -0.0333 -0.8479
  731MOL0     C96388   1.356   9.482   2.780  0.3766  0.3635  0.3600
  731MOL0     C96389   1.297   9.555   2.888  0.1083 -0.3926 -0.6009
  731MOL0     O96390   1.206   9.485   2.967 -0.8007  0.0373 -0.2391
  731MOL0     C96391   1.182   9.529   3.090  1.0970  0.6183 -0.2975
  731MOL0     C96392   1.059   9.577   3.123 -0.1254 -0.0497 -0.0833
  731MOL0     C96393   1.038   9.644   3.252  0.3899  0.2942  0.5095
  731MOL0     C96394   1.139   9.649   3.348  0.1160  0.0960  0.8916
  731MOL0     O96395   1.122   9.695   3.482  0.0639 -0.4652 -0.3163
  731MOL0     C96396   0.991   9.744   3.527 -1.0158  0.1419  1.1079
  731MOL0     C96397   1.017   9.839   3.640  0.5572  0.0222  0.1003
  731MOL0     C96398   0.907   9.847   3.749  0.4496 -0.4081 -0.1629
  731MOL0     C96399   0.757   9.854   3.711 -0.4272 -0.0918 -0.3291
  731MOL0     C96400   0.669   9.850   3.836  1.2615  0.6963 -0.1179
  731MOL0     C96401   0.511   9.833   3.809 -0.6052  0.3243 -0.2920
  731MOL0     C96402   0.457   9.692   3.791 -0.8936  0.5661 -0.4416
  731MOL0     C96403   0.476   9.599   3.912  0.5418 -0.0803 -0.3419
  731MOL0    Cl96404   0.634   9.521   3.907  0.7449 -0.1552 -0.1956
  731MOL0     C96405   1.263   9.594   3.316  0.3072  0.3911  0.4006
  731MOL0     C96406   1.275   9.530   3.188  1.0287  0.2144 -0.4425
  731MOL0     O96407   1.350   9.669   2.917 -0.6360 -0.6678 -0.2232
  731MOL0     C96408   1.356   9.336   2.783 -0.4676 -0.1190 -0.0598
  731MOL0     C96409   1.398   9.265   2.667  0.6916 -0.2324 -0.5212
  731MOL0     N96410   1.922   8.698   2.479 -0.0039 -0.3375 -0.0518
  731MOL0     N96411   1.918   8.596   2.394  0.7345  0.3837  0.0546
  731MOL0     C96412   1.775   7.660   2.881  0.4367 -0.4255 -0.1848
  731MOL0     C96413   1.835   7.570   2.967  0.0405 -1.3964  0.7624
  731MOL0     C96414   2.126   7.350   3.208  0.5033 -0.5727  0.2646
  731MOL0     C96415   2.255   7.308   3.169  1.0982 -0.2529  0.5845
  731MOL0     C96416   2.316   7.198   3.228  0.6428  0.7134 -0.2915
  731MOL0     C96417   2.241   7.119   3.318 -0.6374  0.3163  0.4301
  731MOL0     O96418   2.299   7.004   3.373  0.5213 -0.0772 -0.6596
  731MOL0     C96419   2.231   6.927   3.482  0.4711  0.5736 -0.1887
  731MOL0     C96420   2.317   6.799   3.525  0.0351 -0.6750 -0.5013
  731MOL0     C96421   2.236   6.703   3.616 -0.6655 -0.7317  0.2255
  731MOL0     C96422   2.335   6.612   3.702 -0.0033  0.0134  0.3394
  731MOL0     C96423   2.261   6.511   3.772  0.0177  0.1718 -0.5449
  731MOL0     C96424   2.203   6.434   3.843  0.4708 -0.2859  0.5968
  731MOL0     C96425   2.108   7.161   3.348  0.3581 -0.4674 -0.0861
  731MOL0     C96426   2.054   7.275   3.306 -0.2454 -0.0459 -0.0461
  731MOL0     H96427   1.892   7.784   3.231 -0.1990 -0.7546  0.5045
  731MOL0     H96428   1.744   7.905   3.104  4.6273 -0.1688  3.2283
  731MOL0     H96429   1.719   7.823   2.659  2.3609 -1.1611  0.8002
  731MOL0     H96430   1.804   7.967   2.703  1.6800 -3.4262 -1.6093
  731MOL0     H96431   1.584   8.074   2.756 -2.9047  1.8553 -0.8759
  731MOL0     H96432   1.508   7.944   2.674 -0.4600 -0.9879  3.8035
  731MOL0     H96433   1.590   8.021   2.463  1.8939 -1.3182  1.5984
  731MOL0     H96434   1.719   8.123   2.543 -0.0866  0.6263 -1.7433
  731MOL0     H96435   1.421   8.166   2.583 -0.8483  2.6436  1.6348
  731MOL0     H96436   1.552   8.281   2.624 -2.3449 -0.3401  1.4174
  731MOL0     H96437   1.422   8.349   2.395  2.1595  0.6894 -2.2073
  731MOL0     H96438   1.490   8.205   2.335 -0.4348 -1.4318  0.8359
  731MOL0     H96439   1.707   8.287   2.376  0.1793  0.8665 -0.3473
  731MOL0     H96440   1.645   8.432   2.464 -0.2647  1.4707 -2.1123
  731MOL0     H96441   1.580   8.382   2.172  0.0008  1.1495 -1.3024
  731MOL0     H96442   1.525   8.513   2.249  0.9683  2.1910 -0.8752
  731MOL0     H96443   1.721   8.581   2.133 -3.1627  0.5369  1.0681
  731MOL0     H96444   1.818   8.445   2.191 -2.4280 -3.0735  0.5019
  731MOL0     H96445   1.625   8.748   2.369  1.0853  1.1177 -0.8292
  731MOL0     H96446   1.893   8.938   2.569 -0.6660 -0.7038  3.7705
  731MOL0     H96447   1.739   8.884   2.638  2.2868 -2.8176 -0.0839
  731MOL0     H96448   1.623   8.984   2.437 -1.1548  2.1310 -1.4545
  731MOL0     H96449   1.786   9.023   2.366 -5.3870  0.4370 -3.2495
  731MOL0     H96450   1.682   9.116   2.637 -0.9761 -1.0931 -0.7639
  731MOL0     H96451   1.836   9.160   2.557  1.0668 -2.3362  0.3241
  731MOL0     H96452   1.725   9.259   2.372  0.5100 -2.4967  0.8661
  731MOL0     H96453   1.697   9.351   2.528  1.8411  2.2759 -2.5154
  731MOL0     H96454   1.524   9.513   2.482 -1.3026  3.0879 -0.1806
  731MOL0     H96455   1.422   9.650   2.651  0.8896  0.6564  3.2283
  731MOL0     H96456   0.976   9.583   3.053 -3.3222 -1.5346  3.2359
  731MOL0     H96457   0.938   9.671   3.283 -0.2946 -1.3487 -0.1241
  731MOL0     H96458   0.925   9.659   3.547 -3.7189  1.7822 -0.3027
  731MOL0     H96459   0.936   9.800   3.450  1.9271 -0.0025 -1.2890
  731MOL0     H96460   1.016   9.937   3.592  1.8550 -1.4302 -3.1778
  731MOL0     H96461   1.114   9.810   3.681  1.4439  0.7601 -1.4141
  731MOL0     H96462   0.938   9.936   3.805  0.5225  0.6928 -1.8847
  731MOL0     H96463   0.908   9.762   3.818 -2.4551  0.2808  0.8820
  731MOL0     H96464   0.748   9.952   3.663  0.0041  0.1368  0.0589
  731MOL0     H96465   0.734   9.768   3.647  0.6984 -1.9940  1.6806
  731MOL0     H96466   0.676   9.943   3.893  0.4048  2.5717 -2.8612
  731MOL0     H96467   0.698   9.776   3.911 -0.9520 -2.1673 -1.8750
  731MOL0     H96468   0.472   9.886   3.721 -0.4440 -3.3329 -2.7815
  731MOL0     H96469   0.469   9.876   3.900  0.1437 -0.2896  0.3597
  731MOL0     H96470   0.352   9.706   3.764 -0.3598  2.6522 -1.7561
  731MOL0     H96471   0.508   9.652   3.702  1.9908  3.0444 -0.0928
  731MOL0     H96472   0.396   9.526   3.928  0.5739  0.2313  1.5392
  731MOL0     H96473   0.487   9.662   4.001 -2.6078 -0.5823  0.5435
  731MOL0     H96474   1.346   9.565   3.380  0.6464 -1.3041 -0.7333
  731MOL0     H96475   1.375   9.493   3.167  1.4292 -1.1657  3.1873
  731MOL0     H96476   1.323   9.283   2.872 -0.1599 -2.4686 -1.2923
  731MOL0     H96477   1.384   9.158   2.673  1.0973 -0.4128 -2.3023
  731MOL0     H96478   1.745   7.621   2.785  2.6182 -1.8857 -0.3257
  731MOL0     H96479   1.855   7.471   2.929  2.0318 -0.1476 -1.7516
  731MOL0     H96480   2.299   7.349   3.079  1.4855  2.8467  2.0508
  731MOL0     H96481   2.416   7.170   3.196  0.0237 -2.1910  0.0479
  731MOL0     H96482   2.131   6.891   3.459 -0.6072  1.5312  2.5967
  731MOL0     H96483   2.224   6.998   3.565 -1.0376  1.2592 -0.8793
  731MOL0     H96484   2.351   6.737   3.441 -1.3858 -0.2910 -1.3975
  731MOL0     H96485   2.399   6.838   3.586 -1.4914 -2.5293  3.0133
  731MOL0     H96486   2.166   6.643   3.557 -1.4037 -1.6382  1.9305
  731MOL0     H96487   2.178   6.764   3.687  3.5708  2.1936  1.5654
  731MOL0     H96488   2.398   6.563   3.627 -2.6487 -2.4061 -0.4802
  731MOL0     H96489   2.387   6.677   3.773  0.2867 -1.8758  1.9309
  731MOL0     H96490   2.134   6.378   3.903 -1.1350  0.9742  0.0190
  731MOL0     H96491   2.047   7.096   3.410 -1.8268  1.1778 -0.4227
  731MOL0     H96492   1.956   7.316   3.327  0.2510  1.4939 -0.5724
  732MOL0     O96493   1.785   7.890   5.069 -0.3161 -0.0742  0.1223
  732MOL0     C96494   1.675   7.936   5.046  0.4867  0.5474  0.0559
  732MOL0     O96495   1.578   7.958   5.140  0.5529 -0.2211 -0.3171
  732MOL0     C96496   1.600   7.910   5.265 -0.2572 -0.4827  0.0847
  732MOL0     C96497   1.587   7.771   5.294 -0.0154  0.0890 -0.2862
  732MOL0     C96498   1.614   7.711   5.416 -0.5009 -0.4071 -0.1704
  732MOL0     C96499   1.661   7.794   5.521  0.5473  0.2288 -0.0520
  732MOL0     O96500   1.685   7.732   5.638 -0.3701  0.8062 -0.0348
  732MOL0     C96501   1.765   7.805   5.728 -0.0768  0.9340  0.0845
  732MOL0     C96502   1.799   7.716   5.854  0.3448 -0.4204 -0.2103
  732MOL0     C96503   1.690   7.706   5.951 -0.9482  0.0992 -0.2129
  732MOL0     C96504   1.664   7.837   6.025  0.5796 -0.0727 -0.1326
  732MOL0     C96505   1.790   7.903   6.083 -0.5201 -0.1152 -0.2558
  732MOL0     C96506   1.763   8.015   6.188 -0.3920 -0.4674 -0.3097
  732MOL0     C96507   1.670   7.988   6.305  0.1517  0.3235  0.7556
  732MOL0     C96508   1.680   8.097   6.409 -0.5071  0.0317  0.1486
  732MOL0     N96509   1.632   8.222   6.354  0.0534  0.0594  0.1591
  732MOL0     C96510   1.507   8.257   6.329 -0.7770  0.0151  0.8470
  732MOL0     C96511   1.522   8.391   6.278  0.5703  0.0394 -1.2623
  732MOL0     C96512   1.405   8.473   6.221 -1.1872  0.5263  0.4897
  732MOL0     C96513   1.271   8.425   6.266  0.4689  0.1977 -0.3445
  732MOL0     C96514   1.154   8.517   6.207 -0.0027 -0.2901 -0.7577
  732MOL0     C96515   1.014   8.506   6.263  0.5656 -0.6324 -0.7816
  732MOL0     O96516   0.960   8.406   6.185 -0.3553 -0.4345  0.7043
  732MOL0     C96517   0.824   8.398   6.177  0.0424  0.5673  0.1366
  732MOL0     C96518   0.727   8.463   6.264 -0.6572 -0.2875 -0.6298
  732MOL0     C96519   0.590   8.462   6.243 -0.7099 -0.5369  0.1768
  732MOL0     C96520   0.535   8.396   6.130 -0.3811 -1.1734  0.5495
  732MOL0     C96521   0.392   8.403   6.088  0.0676  0.7481 -0.5995
  732MOL0     O96522   0.348   8.286   6.029 -0.3492 -0.0682 -0.0263
  732MOL0     C96523   0.212   8.267   5.992 -1.1702  0.4023  0.5766
  732MOL0     C96524   0.183   8.171   5.897  0.4876  0.7935 -0.5745
  732MOL0     C96525   0.057   8.137   5.837  0.1450 -0.6033  0.9856
  732MOL0     C96526  -0.053   8.206   5.883  0.1390 -0.4750  0.9035
  732MOL0     O96527  -0.168   8.167   5.826  0.5968  0.2512  0.5818
  732MOL0     C96528  -0.283   8.262   5.834  0.7369  0.3593 -0.6707
  732MOL0     C96529  -0.411   8.208   5.764 -1.2659  0.1294  0.3280
  732MOL0     C96530  -0.403   8.232   5.613 -0.6037  0.4054 -0.6000
  732MOL0     C96531  -0.548   8.226   5.551 -0.9926  0.3434  1.0480
  732MOL0     C96532  -0.520   8.251   5.398 -0.5318 -0.3865  0.0375
  732MOL0     C96533  -0.645   8.204   5.310 -0.5283  0.2075 -0.4790
  732MOL0     C96534  -0.657   8.255   5.166 -0.1616 -0.0521  0.1625
  732MOL0     C96535  -0.528   8.253   5.090  0.0950 -1.0087  0.3616
  732MOL0    Cl96536  -0.425   8.110   5.102  0.5541  0.4149  0.2779
  732MOL0     C96537  -0.033   8.315   5.981 -0.5176  1.2891  1.6429
  732MOL0     C96538   0.096   8.338   6.035  0.6920  0.9914  0.7493
  732MOL0     O96539   0.335   8.512   6.086 -0.3883  0.4470 -0.6015
  732MOL0     C96540   0.627   8.324   6.046 -0.1309 -0.3702 -0.3713
  732MOL0     C96541   0.769   8.331   6.067  0.1495  0.4947 -0.0255
  732MOL0     N96542   1.660   8.419   6.275  0.3871 -0.4998  1.0430
  732MOL0     N96543   1.718   8.322   6.331 -0.9221  0.0113 -0.6163
  732MOL0     C96544   1.657   7.941   5.499 -1.1128  0.2925 -0.2744
  732MOL0     C96545   1.632   7.991   5.374 -0.7446 -1.0196  0.9011
  732MOL0     C96546   1.628   7.968   4.904  1.0566 -1.4416  0.2407
  732MOL0     C96547   1.724   7.982   4.804 -0.5241 -0.1242  0.4400
  732MOL0     C96548   1.694   7.994   4.668 -0.0544  0.6945  0.1709
  732MOL0     C96549   1.556   7.994   4.631 -0.8675 -1.0185 -0.7483
  732MOL0     O96550   1.521   8.009   4.500 -0.4371 -0.3402 -1.0583
  732MOL0     C96551   1.385   7.964   4.456 -0.0308  0.6462  0.0649
  732MOL0     C96552   1.394   7.832   4.398 -0.8503  1.2046  0.5464
  732MOL0     C96553   1.263   7.759   4.372 -0.0634  0.1039  0.2341
  732MOL0     C96554   1.303   7.616   4.318 -0.0346 -0.2407  0.3669
  732MOL0     C96555   1.182   7.525   4.287  0.7503 -0.7865 -0.1815
  732MOL0     C96556   1.083   7.460   4.271  1.3303  0.0213 -0.1773
  732MOL0     C96557   1.461   7.994   4.736 -0.6561  0.4736 -1.5454
  732MOL0     C96558   1.497   7.982   4.871 -1.0145 -0.0175 -0.0296
  732MOL0     H96559   1.556   7.700   5.219  2.3547  0.1150 -1.3624
  732MOL0     H96560   1.617   7.604   5.432 -1.9537 -0.3490  0.6894
  732MOL0     H96561   1.733   7.907   5.752 -2.3249  0.6684 -1.4870
  732MOL0     H96562   1.860   7.816   5.675  1.2195 -0.6559  1.9127
  732MOL0     H96563   1.891   7.752   5.902  1.4581 -1.4076 -1.4897
  732MOL0     H96564   1.821   7.612   5.824  0.5151 -0.6040  0.5289
  732MOL0     H96565   1.734   7.636   6.023  1.9382  0.8015 -1.1570
  732MOL0     H96566   1.593   7.669   5.916 -0.2913 -1.1318 -0.7900
  732MOL0     H96567   1.619   7.908   5.956 -0.0696  2.1141  2.3922
  732MOL0     H96568   1.597   7.819   6.109  3.3501  1.6498  2.6740
  732MOL0     H96569   1.845   7.942   5.997 -1.0362 -1.8853 -1.4478
  732MOL0     H96570   1.837   7.820   6.136  0.9024 -0.5085 -2.0049
  732MOL0     H96571   1.728   8.105   6.137  2.4923  1.3041  0.6381
  732MOL0     H96572   1.860   8.052   6.220 -0.0921  0.8998 -2.5512
  732MOL0     H96573   1.569   7.973   6.264  1.0873 -4.4544 -0.4311
  732MOL0     H96574   1.697   7.893   6.352  1.7546  0.4698  0.1880
  732MOL0     H96575   1.787   8.099   6.432 -0.5210 -0.3992  0.2562
  732MOL0     H96576   1.626   8.083   6.503 -0.1891  0.4280  0.3947
  732MOL0     H96577   1.415   8.200   6.340 -2.6257  1.6081 -3.6916
  732MOL0     H96578   1.418   8.484   6.113  0.2161  0.6691  0.6548
  732MOL0     H96579   1.422   8.575   6.256  1.9819 -1.1896  4.8245
  732MOL0     H96580   1.246   8.417   6.372 -1.4346  0.1704 -0.7527
  732MOL0     H96581   1.258   8.324   6.226 -1.0064  1.6306 -3.9724
  732MOL0     H96582   1.177   8.623   6.221 -2.2984  0.2493 -0.7540
  732MOL0     H96583   1.160   8.493   6.101  1.8581 -4.1499  0.0358
  732MOL0     H96584   0.965   8.602   6.248  0.5319 -0.2552  1.4837
  732MOL0     H96585   1.001   8.491   6.370  1.2326 -0.6604 -0.7014
  732MOL0     H96586   0.763   8.530   6.341 -1.4475 -1.9985  1.3245
  732MOL0     H96587   0.530   8.540   6.288 -1.2723  0.3765 -2.0364
  732MOL0     H96588   0.266   8.118   5.851  0.0920  0.0966 -0.4949
  732MOL0     H96589   0.050   8.074   5.749 -0.4442  0.8948 -0.0862
  732MOL0     H96590  -0.252   8.360   5.796  2.7171 -0.2031 -0.6114
  732MOL0     H96591  -0.313   8.281   5.938  2.6680 -2.3375  0.4882
  732MOL0     H96592  -0.500   8.256   5.804 -0.4174  2.9386 -0.9291
  732MOL0     H96593  -0.430   8.104   5.795  0.3145 -0.3134 -0.1113
  732MOL0     H96594  -0.340   8.151   5.576  0.9983 -0.0731  2.7556
  732MOL0     H96595  -0.340   8.320   5.592 -2.2215  2.2041  1.4916
  732MOL0     H96596  -0.611   8.137   5.564 -2.0299  0.9714  0.4862
  732MOL0     H96597  -0.603   8.306   5.602 -4.1592 -1.5433  0.9117
  732MOL0     H96598  -0.424   8.218   5.357 -0.3284 -4.7668  3.2940
  732MOL0     H96599  -0.510   8.359   5.388  1.0521 -0.6697 -2.3017
  732MOL0     H96600  -0.736   8.223   5.367 -0.1804  0.2923  0.0635
  732MOL0     H96601  -0.640   8.094   5.306 -6.8677 -0.4060 -3.9447
  732MOL0     H96602  -0.738   8.209   5.110 -1.0161 -3.5123  3.8595
  732MOL0     H96603  -0.682   8.361   5.177  0.1366 -0.2698  4.3210
  732MOL0     H96604  -0.473   8.343   5.118  0.5456 -1.0611 -0.3345
  732MOL0     H96605  -0.546   8.270   4.983  1.2257 -0.0726  0.3094
  732MOL0     H96606  -0.114   8.381   6.011 -1.3857  0.5781  0.9150
  732MOL0     H96607   0.095   8.413   6.113 -0.4468 -0.5299  2.2804
  732MOL0     H96608   0.593   8.271   5.958  0.5552 -1.7137  0.1448
  732MOL0     H96609   0.829   8.289   5.987  2.0890  1.1885  0.9963
  732MOL0     H96610   1.694   8.006   5.578  0.9418 -0.7236 -0.3469
  732MOL0     H96611   1.646   8.096   5.348 -2.9449 -0.8714  0.0897
  732MOL0     H96612   1.827   7.991   4.837  0.4600  5.2387 -2.8114
  732MOL0     H96613   1.766   7.996   4.586  1.0622  0.7762  1.1255
  732MOL0     H96614   1.354   8.039   4.383  1.5873  0.1405 -1.2225
  732MOL0     H96615   1.309   7.956   4.534 -0.5840  2.5575 -0.2424
  732MOL0     H96616   1.452   7.831   4.305 -2.9457  0.6906 -0.8276
  732MOL0     H96617   1.454   7.771   4.466 -3.1259 -1.0264  0.7266
  732MOL0     H96618   1.213   7.823   4.299  2.1375  0.5249 -1.0034
  732MOL0     H96619   1.192   7.742   4.454 -0.2598 -0.9700 -0.1398
  732MOL0     H96620   1.377   7.624   4.238  0.4899  0.4630  0.9106
  732MOL0     H96621   1.332   7.568   4.412 -0.2744  0.6245  0.8940
  732MOL0     H96622   1.001   7.392   4.260  0.4748  0.7411  1.4825
  732MOL0     H96623   1.354   8.002   4.720 -1.2714  0.5488  1.8495
  732MOL0     H96624   1.428   7.985   4.954  0.5547 -1.1524  1.3899
  733MOL0     O96625   3.051   5.523   5.206 -0.4264 -0.6423 -0.7890
  733MOL0     C96626   2.991   5.629   5.185 -0.6246 -0.0118 -1.3156
  733MOL0     O96627   2.986   5.686   5.071  0.1291  0.4302  0.2844
  733MOL0     C96628   3.013   5.610   4.959 -0.0715 -0.4580 -0.2521
  733MOL0     C96629   3.136   5.631   4.892  0.2414  0.2418 -0.2868
  733MOL0     C96630   3.165   5.571   4.770 -0.3838 -0.5825 -0.7153
  733MOL0     C96631   3.069   5.497   4.710 -0.1828  1.1266 -0.4446
  733MOL0     O96632   3.081   5.466   4.577 -0.0596 -0.0928  0.2011
  733MOL0     C96633   3.187   5.393   4.530 -0.0226  0.8802  0.1831
  733MOL0     C96634   3.170   5.369   4.380 -0.3946  0.5124 -0.3658
  733MOL0     C96635   3.198   5.500   4.302  0.4878  0.5756 -0.2300
  733MOL0     C96636   3.227   5.483   4.155 -0.0379 -0.2052  0.1582
  733MOL0     C96637   3.147   5.594   4.084 -0.9351  0.5922  0.3662
  733MOL0     C96638   3.167   5.591   3.929 -0.1622 -0.4821 -0.1902
  733MOL0     C96639   3.115   5.470   3.846  0.4245  0.0600 -1.0384
  733MOL0     C96640   3.199   5.471   3.713  1.2000  0.6736 -1.3361
  733MOL0     N96641   3.145   5.372   3.614  0.5730  0.2407 -0.4500
  733MOL0     C96642   3.203   5.249   3.593 -0.9744  0.0765  0.3798
  733MOL0     C96643   3.128   5.213   3.488  0.6745  0.3882  1.2504
  733MOL0     C96644   3.141   5.082   3.407 -0.7040 -0.4768 -1.0235
  733MOL0     C96645   3.273   5.054   3.345 -0.1178 -0.3169 -0.7486
  733MOL0     C96646   3.323   5.160   3.243  0.1617  0.1085  0.4565
  733MOL0     C96647   3.450   5.120   3.180 -0.1543 -0.2463  0.0770
  733MOL0     O96648   3.468   5.221   3.080 -0.0604  0.9427  0.2458
  733MOL0     C96649   3.575   5.208   2.996 -0.2379  0.4571  0.2402
  733MOL0     C96650   3.678   5.299   2.987  0.6077  0.0829 -0.9863
  733MOL0     C96651   3.793   5.274   2.925 -1.0396  0.8310 -0.3121
  733MOL0     C96652   3.824   5.150   2.873 -0.6613 -1.2611 -0.1991
  733MOL0     C96653   3.953   5.124   2.807 -0.3576  0.0128 -0.8699
  733MOL0     O96654   3.966   4.994   2.766  0.2459  0.4040  0.3327
  733MOL0     C96655   4.081   4.963   2.696 -0.6472 -0.7625  0.2085
  733MOL0     C96656   4.213   4.989   2.742 -0.5021  0.7519 -0.0410
  733MOL0     C96657   4.332   4.968   2.667 -0.4151  0.8686 -0.3410
  733MOL0     C96658   4.323   4.912   2.536  0.4185  0.9281 -0.9278
  733MOL0     O96659   4.438   4.898   2.471  0.6250 -0.0812  0.0642
  733MOL0     C96660   4.437   4.853   2.330  1.0471 -0.4227 -0.6984
  733MOL0     C96661   4.398   4.970   2.244 -0.4669  0.2804 -0.3099
  733MOL0     C96662   4.495   5.088   2.257 -0.1505 -0.4649 -1.4178
  733MOL0     C96663   4.502   5.185   2.141  0.5146  0.5929  0.2411
  733MOL0     C96664   4.599   5.130   2.030  0.3371 -0.1729  0.1116
  733MOL0     C96665   4.611   5.232   1.918 -0.3540 -0.0039  0.7791
  733MOL0     C96666   4.679   5.176   1.790  0.2372  0.1305  0.5959
  733MOL0     C96667   4.593   5.158   1.667 -0.2369 -0.2174  0.1911
  733MOL0    Cl96668   4.472   5.036   1.687  0.1297  0.1023 -0.5148
  733MOL0     C96669   4.189   4.883   2.493 -0.6482  0.1180 -0.4132
  733MOL0     C96670   4.070   4.904   2.571 -0.6770  0.4105  0.4953
  733MOL0     O96671   4.036   5.212   2.800  0.5633 -0.1696  0.5463
  733MOL0     C96672   3.724   5.057   2.880  0.3995 -0.0536 -0.1917
  733MOL0     C96673   3.597   5.084   2.939  0.2451  0.0756  0.2795
  733MOL0     N96674   3.042   5.305   3.443 -0.6286 -0.8111  0.2025
  733MOL0     N96675   3.052   5.401   3.520 -0.0813 -0.2852 -0.4874
  733MOL0     C96676   2.938   5.482   4.760 -1.2612 -0.1610 -0.2496
  733MOL0     C96677   2.917   5.533   4.890 -0.9517 -0.0446  0.1299
  733MOL0     C96678   2.928   5.689   5.311  0.9790  0.7410 -0.9360
  733MOL0     C96679   2.965   5.640   5.441  0.5937  0.6108 -1.2053
  733MOL0     C96680   2.887   5.675   5.553 -0.6686  0.4111  0.1304
  733MOL0     C96681   2.788   5.771   5.548 -1.0834  0.2813  0.0452
  733MOL0     O96682   2.715   5.815   5.657  0.1107 -0.0710 -0.7490
  733MOL0     C96683   2.783   5.822   5.780 -0.1571  0.3806 -0.1292
  733MOL0     C96684   2.683   5.877   5.889 -0.4322 -0.2552  0.0341
  733MOL0     C96685   2.756   5.949   5.999  0.2520 -0.0905 -0.2238
  733MOL0     C96686   2.702   6.086   6.048  0.7279  0.5765 -0.1807
  733MOL0     C96687   2.776   6.150   6.164  0.5242  0.4173  0.1688
  733MOL0     C96688   2.844   6.192   6.253 -0.3758 -0.0727  0.0555
  733MOL0     C96689   2.763   5.821   5.422 -0.6103 -0.6403 -0.2451
  733MOL0     C96690   2.828   5.784   5.307 -0.7504  0.0020 -0.1676
  733MOL0     H96691   3.207   5.692   4.946 -1.6450 -1.8290  5.3260
  733MOL0     H96692   3.256   5.592   4.714 -0.2964 -0.0259 -0.3717
  733MOL0     H96693   3.194   5.288   4.561 -0.8209  1.1421  1.3429
  733MOL0     H96694   3.276   5.455   4.546  0.3963  0.1779  0.6320
  733MOL0     H96695   3.074   5.323   4.354 -2.0946  2.5445  1.9023
  733MOL0     H96696   3.253   5.304   4.349  0.3614  1.3459 -0.1452
  733MOL0     H96697   3.284   5.555   4.342 -0.7463  0.5945  2.6683
  733MOL0     H96698   3.112   5.567   4.305  0.6660  0.8176 -0.5288
  733MOL0     H96699   3.333   5.508   4.144  1.0494 -2.9635  3.1115
  733MOL0     H96700   3.219   5.385   4.107  1.5246  0.6647 -2.0700
  733MOL0     H96701   3.185   5.687   4.126  0.4410  1.0249 -1.6794
  733MOL0     H96702   3.041   5.600   4.110 -0.4263 -0.6963  3.1630
  733MOL0     H96703   3.273   5.602   3.903 -0.4925 -2.1387 -2.4952
  733MOL0     H96704   3.104   5.677   3.903  0.4832  0.1819  0.3719
  733MOL0     H96705   3.145   5.376   3.893  1.1399 -0.2360 -2.0580
  733MOL0     H96706   3.011   5.490   3.818  0.9831  2.4823 -1.6834
  733MOL0     H96707   3.306   5.468   3.736  1.0221  2.5255  0.0357
  733MOL0     H96708   3.174   5.573   3.682 -1.2005  0.7569  0.5879
  733MOL0     H96709   3.289   5.198   3.635  0.5410  2.7021  0.6783
  733MOL0     H96710   3.074   5.097   3.322  0.4034 -0.0604 -1.8326
  733MOL0     H96711   3.109   4.997   3.468  2.1520 -0.6364  0.3898
  733MOL0     H96712   3.268   4.959   3.290  1.5801 -0.1946 -1.1817
  733MOL0     H96713   3.352   5.031   3.417  1.6160  1.6399 -1.9021
  733MOL0     H96714   3.246   5.161   3.165 -1.5628 -0.5054  2.0929
  733MOL0     H96715   3.331   5.253   3.300  1.4553  0.0587  0.3831
  733MOL0     H96716   3.453   5.019   3.138  1.1733 -0.0639 -0.3005
  733MOL0     H96717   3.535   5.121   3.249  2.6416 -3.4754 -2.9142
  733MOL0     H96718   3.653   5.398   3.026 -0.7522 -1.3528  2.2413
  733MOL0     H96719   3.867   5.353   2.932  0.6102 -0.8282  3.7309
  733MOL0     H96720   4.241   5.047   2.830  0.0589  0.6501 -0.1433
  733MOL0     H96721   4.428   4.998   2.708 -0.8968  1.8469  0.0997
  733MOL0     H96722   4.374   4.765   2.313  3.3856 -1.9670 -1.7473
  733MOL0     H96723   4.538   4.824   2.300  0.3338 -2.6383 -1.1067
  733MOL0     H96724   4.304   5.018   2.269 -0.5083  1.1053 -1.9174
  733MOL0     H96725   4.390   4.927   2.144  0.7898 -2.1457  0.5456
  733MOL0     H96726   4.598   5.067   2.287 -1.4001 -4.3846  0.7423
  733MOL0     H96727   4.458   5.142   2.345  1.7318  0.6823 -1.2727
  733MOL0     H96728   4.401   5.186   2.098  0.4597  5.9842 -0.1482
  733MOL0     H96729   4.529   5.287   2.169 -0.3544  0.5898  1.1413
  733MOL0     H96730   4.560   5.034   1.994  3.2308 -1.6245  0.5263
  733MOL0     H96731   4.701   5.118   2.068  0.5403 -0.1588 -0.4175
  733MOL0     H96732   4.666   5.318   1.955  0.1084 -0.8802  2.2051
  733MOL0     H96733   4.513   5.278   1.903 -0.3000 -0.1677 -0.1328
  733MOL0     H96734   4.762   5.242   1.764 -0.7572  1.9820  1.8365
  733MOL0     H96735   4.720   5.078   1.813  0.8452  0.1684 -0.2871
  733MOL0     H96736   4.659   5.136   1.582 -0.9699 -0.5022 -0.3181
  733MOL0     H96737   4.545   5.252   1.641 -0.4764 -0.1105  1.0058
  733MOL0     H96738   4.171   4.838   2.395 -3.1249 -1.3673  0.6426
  733MOL0     H96739   3.974   4.875   2.528  0.0799 -1.9413  0.2601
  733MOL0     H96740   3.744   4.958   2.841 -0.3089  0.2308 -1.3177
  733MOL0     H96741   3.533   4.996   2.950  1.7458 -0.9273  1.3573
  733MOL0     H96742   2.875   5.418   4.699 -1.8083  0.0866  0.0456
  733MOL0     H96743   2.817   5.532   4.931 -0.9465 -1.4394  0.1280
  733MOL0     H96744   3.050   5.572   5.445  1.5001  1.7527 -0.2757
  733MOL0     H96745   2.894   5.614   5.643  0.9649 -1.0256 -0.9008
  733MOL0     H96746   2.868   5.887   5.758 -0.9004  0.6144 -2.5959
  733MOL0     H96747   2.807   5.724   5.823 -1.3637  0.2762  0.3603
  733MOL0     H96748   2.604   5.941   5.847  1.1665  0.5873 -1.8860
  733MOL0     H96749   2.630   5.793   5.935 -1.7208  0.0450 -0.8384
  733MOL0     H96750   2.855   5.975   5.961 -0.8360 -0.5730 -3.8094
  733MOL0     H96751   2.764   5.882   6.085 -0.1433 -1.2667 -1.0728
  733MOL0     H96752   2.676   6.157   5.969 -2.2033  0.6627  0.7489
  733MOL0     H96753   2.616   6.050   6.105  1.5118  1.1621  1.4345
  733MOL0     H96754   2.890   6.221   6.345 -3.7495 -0.7366  2.1483
  733MOL0     H96755   2.695   5.905   5.416  1.2343  0.8885 -0.7127
  733MOL0     H96756   2.806   5.841   5.217  0.9957  1.3829  0.2203
  734MOL0     O96757  10.592   0.659   7.005 -0.2266  0.5268 -0.9318
  734MOL0     C96758  10.534   0.753   6.954  0.0366  0.6564 -0.0242
  734MOL0     O96759  10.513   0.771   6.819  0.4331  0.3195 -0.0527
  734MOL0     C96760  10.547   0.670   6.731 -0.5172  0.9182  0.5170
  734MOL0     C96761  10.450   0.609   6.653  1.3147  0.4643  0.5665
  734MOL0     C96762  10.471   0.505   6.560  0.0464  0.5316 -0.1621
  734MOL0     C96763  10.600   0.457   6.543 -0.1371 -0.1441  0.9382
  734MOL0     O96764  10.614   0.363   6.449 -0.3827 -0.4848 -0.9712
  734MOL0     C96765  10.737   0.296   6.426 -1.3574 -0.1629  0.5219
  734MOL0     C96766  10.709   0.217   6.292 -0.8872  0.5481 -0.7556
  734MOL0     C96767  10.800   0.093   6.286  0.3286 -0.1784 -0.2540
  734MOL0     C96768  10.785   0.007   6.163  0.1985  0.7650  0.3465
  734MOL0     C96769  10.677  -0.101   6.151 -0.2846 -0.5984  0.0662
  734MOL0     C96770  10.664  -0.181   6.025  0.1267  0.5501 -0.0347
  734MOL0     C96771  10.594  -0.110   5.907  0.0489  0.4843  0.5053
  734MOL0     C96772  10.438  -0.076   5.930 -0.5650 -0.4005 -0.0805
  734MOL0     N96773  10.410   0.038   6.022  0.2639  0.5598  0.2501
  734MOL0     C96774  10.435   0.170   5.989 -0.1917  0.2369 -0.6061
  734MOL0     C96775  10.383   0.237   6.094 -0.0524  0.3188  0.3016
  734MOL0     C96776  10.421   0.378   6.126 -0.2727 -0.2468  0.1046
  734MOL0     C96777  10.294   0.458   6.156 -0.6098  0.1210 -0.0561
  734MOL0     C96778  10.295   0.608   6.142  0.1290  0.3622 -0.0281
  734MOL0     C96779  10.189   0.683   6.224 -0.5810 -1.0501 -0.2907
  734MOL0     O96780  10.212   0.675   6.365  0.5229  0.0879 -0.8521
  734MOL0     C96781  10.188   0.790   6.439  0.0390  0.8907  0.3449
  734MOL0     C96782  10.282   0.884   6.458 -0.5513 -0.8316 -0.7598
  734MOL0     C96783  10.263   0.992   6.551  0.6695 -0.8957 -0.9772
  734MOL0     C96784  10.131   1.017   6.603 -0.1279 -0.1040 -0.7760
  734MOL0     C96785  10.102   1.131   6.693  0.3220 -0.1623  0.1051
  734MOL0     O96786   9.986   1.118   6.766  0.1163  0.0476 -0.5641
  734MOL0     C96787   9.973   1.225   6.854  0.2835  0.1163  0.1601
  734MOL0     C96788   9.973   1.195   6.986  0.9755  0.0206 -0.0811
  734MOL0     C96789   9.961   1.301   7.083 -1.4969  1.0726  0.6397
  734MOL0     C96790   9.933   1.427   7.043  0.5400  0.1033  0.0361
  734MOL0     O96791   9.937   1.528   7.141 -0.1990  0.2152  0.6073
  734MOL0     C96792  10.048   1.617   7.144 -0.4215  0.1792  0.0095
  734MOL0     C96793  10.180   1.573   7.215 -0.7508  0.1888 -1.0619
  734MOL0     C96794  10.242   1.688   7.289 -0.5436 -1.0681  0.4116
  734MOL0     C96795  10.392   1.666   7.315  0.3271 -0.8508 -0.3424
  734MOL0     C96796  10.436   1.774   7.421 -0.5932  0.6088 -0.6309
  734MOL0     C96797  10.556   1.733   7.498  0.1348 -0.4369 -0.0111
  734MOL0     C96798  10.602   1.837   7.594 -0.6838 -0.0365 -0.1322
  734MOL0     C96799  10.513   1.862   7.709 -0.1820 -0.5092  0.1616
  734MOL0    Cl96800  10.602   1.942   7.838 -0.0506  0.6996  0.6787
  734MOL0     C96801   9.917   1.457   6.908 -0.3532 -0.3650  0.8337
  734MOL0     C96802   9.935   1.353   6.811  0.0657 -0.6807 -0.1113
  734MOL0     O96803  10.184   1.219   6.697 -0.1257 -0.5730 -0.3010
  734MOL0     C96804  10.031   0.918   6.570  0.9566  0.4546 -0.4699
  734MOL0     C96805  10.055   0.803   6.492  0.3762 -1.1007  0.8160
  734MOL0     N96806  10.331   0.149   6.194  0.9816  0.1556  0.7814
  734MOL0     N96807  10.350   0.034   6.144  0.2868 -0.5529  0.5347
  734MOL0     C96808  10.705   0.515   6.615  0.1069 -0.7385 -1.8201
  734MOL0     C96809  10.675   0.617   6.708 -1.2578 -0.3205 -0.1767
  734MOL0     C96810  10.480   0.843   7.067 -0.2868 -0.2665  0.3104
  734MOL0     C96811  10.395   0.952   7.021  0.1824  0.8380  0.3678
  734MOL0     C96812  10.340   1.039   7.111  0.1776 -0.2061 -0.3879
  734MOL0     C96813  10.377   1.044   7.247  0.3044  0.0402 -0.0768
  734MOL0     O96814  10.344   1.144   7.337 -1.4065 -1.0127 -0.4423
  734MOL0     C96815  10.373   1.277   7.286  0.2346  0.0276 -0.1588
  734MOL0     C96816  10.517   1.301   7.232  0.5081  0.0362 -0.6252
  734MOL0     C96817  10.634   1.297   7.327  0.6811 -0.5306  0.4923
  734MOL0     C96818  10.763   1.296   7.259 -0.5635  0.0834 -0.2137
  734MOL0     C96819  10.782   1.159   7.207  0.4118  0.0670  0.7892
  734MOL0     C96820  10.797   1.053   7.153 -0.1856  0.5872  0.5342
  734MOL0     C96821  10.448   0.930   7.293  0.2001 -0.3042  0.6202
  734MOL0     C96822  10.497   0.833   7.207 -0.7221 -1.2181 -0.8539
  734MOL0     H96823  10.355   0.660   6.664  1.5790  1.0575  0.1945
  734MOL0     H96824  10.387   0.460   6.507  0.4865 -2.3483  1.3877
  734MOL0     H96825  10.772   0.243   6.515  2.4796  2.5062  0.8270
  734MOL0     H96826  10.819   0.367   6.411 -1.6169  0.1780  0.7064
  734MOL0     H96827  10.737   0.274   6.203 -0.9990  2.8909  0.6236
  734MOL0     H96828  10.606   0.182   6.285 -0.2339 -1.0690 -3.6338
  734MOL0     H96829  10.791   0.033   6.378  0.4125  1.2723  0.7355
  734MOL0     H96830  10.903   0.130   6.288  0.2746  0.1603 -2.3345
  734MOL0     H96831  10.770   0.078   6.081  0.6118  0.8025  0.3038
  734MOL0     H96832  10.879  -0.046   6.148  0.1164  0.2292  1.5756
  734MOL0     H96833  10.587  -0.063   6.199  0.2126  0.5914  0.0972
  734MOL0     H96834  10.707  -0.174   6.227 -1.1661 -2.0768 -0.9548
  734MOL0     H96835  10.626  -0.283   6.036 -1.5274  1.0584 -0.7025
  734MOL0     H96836  10.772  -0.193   6.007  0.5400  1.3311  1.7462
  734MOL0     H96837  10.644  -0.015   5.886  0.0869  0.7400  1.6674
  734MOL0     H96838  10.603  -0.176   5.821  0.6224  0.2286  0.7546
  734MOL0     H96839  10.397  -0.167   5.975  0.6330 -1.2591 -0.6652
  734MOL0     H96840  10.396  -0.040   5.835  1.2083  1.1201 -0.3400
  734MOL0     H96841  10.486   0.218   5.907  1.2211 -1.0884 -0.5511
  734MOL0     H96842  10.466   0.430   6.041  1.7587  1.4795  2.1218
  734MOL0     H96843  10.487   0.383   6.213 -0.1758 -1.1234  0.0864
  734MOL0     H96844  10.271   0.449   6.262 -2.1092  0.9278 -0.2791
  734MOL0     H96845  10.218   0.423   6.085 -1.8900  0.8435  0.9173
  734MOL0     H96846  10.380   0.642   6.202  0.7119 -3.1526  1.4130
  734MOL0     H96847  10.292   0.634   6.036 -1.9617 -1.0542 -0.3797
  734MOL0     H96848  10.088   0.648   6.200 -0.1819 -0.0077 -4.1631
  734MOL0     H96849  10.202   0.788   6.197 -1.8566 -0.1399  2.2847
  734MOL0     H96850  10.380   0.865   6.415  0.0193  1.2201 -0.4967
  734MOL0     H96851  10.355   1.048   6.566  1.3988 -1.9315 -1.4321
  734MOL0     H96852  10.007   1.098   7.019 -2.1596 -1.3336 -0.4435
  734MOL0     H96853   9.977   1.280   7.188 -1.8105 -1.0987  0.3075
  734MOL0     H96854  10.011   1.696   7.210 -3.2003 -1.6298  0.7689
  734MOL0     H96855  10.067   1.660   7.045 -1.1204  1.4917  0.4292
  734MOL0     H96856  10.250   1.528   7.144  0.1936 -2.3822  1.3423
  734MOL0     H96857  10.138   1.498   7.282 -3.7977  1.5861 -1.2399
  734MOL0     H96858  10.182   1.717   7.376 -0.9073  0.5218 -0.3310
  734MOL0     H96859  10.236   1.776   7.224 -0.3828  0.0052  1.8073
  734MOL0     H96860  10.404   1.561   7.343  0.0656 -0.5567  0.9498
  734MOL0     H96861  10.444   1.693   7.223  0.7090 -1.0696 -0.1912
  734MOL0     H96862  10.355   1.794   7.491  0.2082 -1.0937  0.8837
  734MOL0     H96863  10.461   1.863   7.363 -0.1970  1.0060  0.1479
  734MOL0     H96864  10.637   1.714   7.428 -1.2984 -3.7193 -0.9774
  734MOL0     H96865  10.533   1.640   7.551  0.4015 -1.0836 -1.0171
  734MOL0     H96866  10.697   1.814   7.642 -0.5839  1.6442  0.5717
  734MOL0     H96867  10.623   1.930   7.540 -2.4488  1.0851  0.9985
  734MOL0     H96868  10.471   1.764   7.734  1.9050 -1.6219 -0.4513
  734MOL0     H96869  10.430   1.928   7.683  0.5875  0.0783 -0.8797
  734MOL0     H96870   9.896   1.555   6.867  2.7262  0.5855  1.2527
  734MOL0     H96871   9.913   1.363   6.705 -0.0690 -0.4627 -0.0630
  734MOL0     H96872   9.928   0.941   6.595  0.8350 -1.1457  0.5754
  734MOL0     H96873   9.979   0.728   6.472  1.1651 -1.1281 -2.6119
  734MOL0     H96874  10.809   0.489   6.593  1.5221  1.6122  1.2826
  734MOL0     H96875  10.749   0.673   6.763 -0.7893 -1.4622  0.3820
  734MOL0     H96876  10.360   0.962   6.919 -2.9812  1.8830  1.4217
  734MOL0     H96877  10.274   1.117   7.073  1.6260  1.3217  0.0854
  734MOL0     H96878  10.344   1.346   7.366 -2.0400 -3.0106  1.9040
  734MOL0     H96879  10.305   1.308   7.206  0.5005 -0.8728 -0.7449
  734MOL0     H96880  10.541   1.231   7.152 -0.2044  0.1107 -0.9082
  734MOL0     H96881  10.515   1.395   7.176 -2.0458  1.0253  0.9322
  734MOL0     H96882  10.613   1.216   7.399  2.2332 -1.8300 -0.4424
  734MOL0     H96883  10.631   1.384   7.393 -0.3982 -0.0550 -0.1489
  734MOL0     H96884  10.775   1.379   7.187 -1.5422  0.0356 -0.4438
  734MOL0     H96885  10.846   1.311   7.328 -0.7601 -1.1567  0.3184
  734MOL0     H96886  10.816   0.955   7.114 -2.9879  0.0181  0.4119
  734MOL0     H96887  10.468   0.918   7.399  2.2723 -1.1022  0.1998
  734MOL0     H96888  10.554   0.751   7.250 -0.9727 -0.6260  0.6348
  735MOL0     O96889   3.461  10.761   1.545 -1.2677 -0.5393  0.3936
  735MOL0     C96890   3.459  10.649   1.583 -0.2452  0.9708 -0.5228
  735MOL0     O96891   3.395  10.544   1.514 -0.5007 -0.1139 -0.8036
  735MOL0     C96892   3.350  10.562   1.381  0.5810  0.1492  0.7654
  735MOL0     C96893   3.333  10.446   1.304 -0.6362 -0.0638 -0.9929
  735MOL0     C96894   3.264  10.447   1.183 -0.0160  0.5252 -0.1380
  735MOL0     C96895   3.224  10.567   1.124 -0.1636 -0.3935  0.7344
  735MOL0     O96896   3.161  10.554   1.001 -0.0829  0.3939  0.5286
  735MOL0     C96897   3.226  10.629   0.899  1.3474  0.1256  0.2187
  735MOL0     C96898   3.156  10.591   0.771  0.0876 -0.5640  0.4609
  735MOL0     C96899   3.203  10.457   0.695  0.2478 -1.4025  0.2240
  735MOL0     C96900   3.160  10.322   0.761 -0.1855 -0.2322  0.1946
  735MOL0     C96901   3.010  10.303   0.768 -0.3942  0.4325  0.5331
  735MOL0     C96902   2.980  10.182   0.854  0.3556 -0.3814 -1.0302
  735MOL0     C96903   2.842  10.171   0.887 -0.4383 -0.5583  1.0244
  735MOL0     C96904   2.771  10.283   0.965 -0.2999 -0.2000 -0.8823
  735MOL0     N96905   2.788  10.271   1.114 -0.5290 -0.0726  0.8456
  735MOL0     C96906   2.901  10.317   1.187  0.0132 -0.6887 -0.2912
  735MOL0     C96907   2.889  10.283   1.315 -0.5887 -0.0470  0.7664
  735MOL0     C96908   2.981  10.293   1.429  0.4485 -1.2094 -0.1608
  735MOL0     C96909   2.940  10.288   1.580 -0.8048 -0.0193  0.8543
  735MOL0     C96910   3.065  10.302   1.673  0.6878  0.8567  0.5693
  735MOL0     C96911   3.006  10.298   1.815  0.6342  0.7191  0.1396
  735MOL0     O96912   3.091  10.337   1.919 -0.1034 -0.2677 -0.0734
  735MOL0     C96913   3.196  10.252   1.947  0.9117  0.5529  0.3614
  735MOL0     C96914   3.310  10.315   1.989  0.6125  0.8003  0.2838
  735MOL0     C96915   3.431  10.241   1.987  0.2745  0.2190 -0.5870
  735MOL0     C96916   3.433  10.099   1.982 -0.0939  0.0835  0.2971
  735MOL0     C96917   3.555  10.020   1.989 -1.4749  0.1842  0.1950
  735MOL0     O96918   3.562   9.884   2.015  0.5069  0.2281  0.2660
  735MOL0     C96919   3.669   9.803   1.986 -0.0884 -0.2979  0.5736
  735MOL0     C96920   3.765   9.828   1.887 -0.1905 -0.0827  0.3420
  735MOL0     C96921   3.877   9.751   1.861  0.3979  0.6576 -0.3708
  735MOL0     C96922   3.883   9.633   1.930 -0.1889 -0.1639 -0.3654
  735MOL0     O96923   3.982   9.544   1.912  0.0408  0.1813 -0.1143
  735MOL0     C96924   4.110   9.589   1.862  0.2370 -0.9132  0.3205
  735MOL0     C96925   4.137   9.559   1.716 -0.5000 -0.4619 -0.0961
  735MOL0     C96926   4.286   9.600   1.684  1.1803  0.0267 -0.2157
  735MOL0     C96927   4.312   9.581   1.538 -0.1881  0.2083 -0.5500
  735MOL0     C96928   4.462   9.606   1.505 -1.0328  0.9349 -0.1987
  735MOL0     C96929   4.511   9.631   1.372  0.5103  0.5685  0.2872
  735MOL0     C96930   4.445   9.529   1.282 -0.8150 -0.3448  0.2444
  735MOL0     C96931   4.519   9.500   1.151  0.6337  0.1705 -0.7344
  735MOL0    Cl96932   4.608   9.351   1.165 -0.0416  0.0018 -0.0945
  735MOL0     C96933   3.787   9.592   2.022  0.1425  0.3310  0.3600
  735MOL0     C96934   3.680   9.679   2.048  0.3586  1.3044  0.2488
  735MOL0     O96935   3.655  10.095   1.981 -0.1342  0.2552  0.3049
  735MOL0     C96936   3.312  10.042   1.951 -0.3801  0.1315 -0.1205
  735MOL0     C96937   3.190  10.112   1.935  0.9110  0.2216 -0.2450
  735MOL0     N96938   2.757  10.236   1.322 -0.0443 -0.2389 -0.6427
  735MOL0     N96939   2.700  10.229   1.204 -0.1809 -0.1117 -0.6577
  735MOL0     C96940   3.226  10.685   1.199 -0.5081 -0.1284 -0.0823
  735MOL0     C96941   3.289  10.679   1.323  0.1741 -0.2633 -0.5961
  735MOL0     C96942   3.544  10.610   1.700 -0.3552  0.1059  0.2441
  735MOL0     C96943   3.603  10.477   1.707 -0.4917 -1.1085 -0.0453
  735MOL0     C96944   3.685  10.440   1.807  0.1979 -0.3106 -0.1626
  735MOL0     C96945   3.713  10.528   1.917 -0.0092 -1.0324  0.8301
  735MOL0     O96946   3.787  10.486   2.020 -0.3892 -0.4791 -0.3249
  735MOL0     C96947   3.915  10.422   1.989  0.7057  0.1014 -0.5280
  735MOL0     C96948   4.021  10.463   2.097 -0.3730  0.1359 -0.0570
  735MOL0     C96949   3.974  10.435   2.244 -0.4247  0.3223 -0.1714
  735MOL0     C96950   4.071  10.506   2.341  1.2597  0.8155 -0.7997
  735MOL0     C96951   4.006  10.510   2.470 -0.5157  0.5097  0.5364
  735MOL0     C96952   3.974  10.530   2.584 -0.5404 -0.4634  0.2267
  735MOL0     C96953   3.670  10.667   1.900  0.2976  0.1195 -0.4330
  735MOL0     C96954   3.582  10.701   1.802 -0.4370 -0.4087  0.2689
  735MOL0     H96955   3.332  10.351   1.357 -1.4459  1.7488  2.5291
  735MOL0     H96956   3.284  10.352   1.135  2.5731  0.8856  0.0894
  735MOL0     H96957   3.331  10.598   0.895  1.7347  1.4830 -2.1278
  735MOL0     H96958   3.203  10.733   0.922  2.1147  0.6196 -1.1103
  735MOL0     H96959   3.170  10.668   0.695  2.2562 -1.6295 -0.2952
  735MOL0     H96960   3.048  10.581   0.787  0.1050  0.0695  1.0134
  735MOL0     H96961   3.313  10.461   0.697  0.3785 -2.0743 -2.1428
  735MOL0     H96962   3.163  10.437   0.595 -4.1223 -1.7863  1.8407
  735MOL0     H96963   3.197  10.241   0.696  1.3787 -1.3493  2.3489
  735MOL0     H96964   3.207  10.310   0.859  0.8958  1.6325 -0.0539
  735MOL0     H96965   2.970  10.294   0.666 -1.8209  1.8574  0.9416
  735MOL0     H96966   2.955  10.391   0.802  0.6054  2.1990 -2.1169
  735MOL0     H96967   3.045  10.173   0.942  4.5792 -0.2976 -3.8884
  735MOL0     H96968   2.998  10.098   0.787  3.3989 -0.1461 -0.6381
  735MOL0     H96969   2.796  10.160   0.788  1.1054  0.5164  0.1448
  735MOL0     H96970   2.840  10.080   0.947  0.8844 -2.5535 -1.7488
  735MOL0     H96971   2.667  10.255   0.943 -0.6779  0.6060 -0.1425
  735MOL0     H96972   2.789  10.383   0.925 -0.6149  0.1827 -0.0890
  735MOL0     H96973   2.989  10.358   1.138  0.2187 -3.1557 -2.2091
  735MOL0     H96974   3.027  10.392   1.417  1.4510 -1.2295  2.6971
  735MOL0     H96975   3.051  10.211   1.410 -1.0914 -2.0839 -2.4865
  735MOL0     H96976   2.889  10.191   1.588 -1.6000  0.1692 -1.1951
  735MOL0     H96977   2.858  10.359   1.595 -0.3498  0.9816 -1.0367
  735MOL0     H96978   3.130  10.214   1.667 -0.9400 -0.3892  0.4108
  735MOL0     H96979   3.121  10.393   1.650 -1.0256  1.1933 -3.0221
  735MOL0     H96980   2.968  10.196   1.831  2.7004 -0.0272  0.5898
  735MOL0     H96981   2.927  10.371   1.834  0.4275  0.2668  1.1124
  735MOL0     H96982   3.313  10.424   1.992  4.7928  0.9947 -2.4859
  735MOL0     H96983   3.519  10.302   2.007 -1.3040  2.1911  0.7428
  735MOL0     H96984   3.769   9.925   1.838 -0.5877 -0.8543 -1.3004
  735MOL0     H96985   3.948   9.787   1.787 -0.5182 -1.0627 -2.1978
  735MOL0     H96986   4.183   9.545   1.931  1.4954 -0.3104 -0.5755
  735MOL0     H96987   4.129   9.695   1.882  0.1322 -0.7276 -0.5191
  735MOL0     H96988   4.073   9.617   1.649  1.0559  1.0500 -0.3336
  735MOL0     H96989   4.135   9.450   1.706  2.7768 -0.8187  1.7960
  735MOL0     H96990   4.359   9.535   1.735  1.1798 -0.7815 -1.1993
  735MOL0     H96991   4.297   9.702   1.722  2.5909 -0.5199  0.9594
  735MOL0     H96992   4.288   9.480   1.503 -0.8482  0.6223 -1.3496
  735MOL0     H96993   4.252   9.663   1.498 -0.7937  0.0311 -0.0190
  735MOL0     H96994   4.510   9.511   1.530  1.6251  2.7422  2.2134
  735MOL0     H96995   4.500   9.687   1.568  0.6961 -2.1131  3.0317
  735MOL0     H96996   4.620   9.625   1.366  0.5646  2.3436 -1.1785
  735MOL0     H96997   4.484   9.731   1.339  1.6834  1.4029  1.7153
  735MOL0     H96998   4.440   9.430   1.330  0.8024  0.4417  2.1529
  735MOL0     H96999   4.345   9.568   1.260  1.0588  4.3993 -1.0324
  735MOL0     H97000   4.593   9.577   1.125  0.6761 -1.0015 -4.7165
  735MOL0     H97001   4.448   9.499   1.068  2.1494 -2.8184 -2.1433
  735MOL0     H97002   3.789   9.501   2.082 -0.3102  0.2208  0.2156
  735MOL0     H97003   3.605   9.651   2.122 -0.5755  0.8619 -0.8232
  735MOL0     H97004   3.311   9.935   1.930  1.4455  0.1845 -0.6183
  735MOL0     H97005   3.094  10.071   1.906  2.4326 -3.7992 -0.3490
  735MOL0     H97006   3.195  10.778   1.153 -0.7769 -1.6355 -3.2660
  735MOL0     H97007   3.296  10.775   1.373 -3.5911  0.9604 -2.0552
  735MOL0     H97008   3.588  10.400   1.632  0.0727 -1.4287  0.1634
  735MOL0     H97009   3.737  10.345   1.801  2.8569  1.1509 -1.8646
  735MOL0     H97010   3.952  10.436   1.887  0.7913  0.1044 -0.4969
  735MOL0     H97011   3.894  10.315   2.005  0.4000  0.3391  0.8272
  735MOL0     H97012   4.118  10.416   2.082 -0.7232 -1.9939  3.2735
  735MOL0     H97013   4.040  10.571   2.101  2.8178 -0.3727  1.6292
  735MOL0     H97014   3.972  10.327   2.262 -1.4644  0.5506  1.2322
  735MOL0     H97015   3.873  10.469   2.267  1.0724  3.2930  2.9664
  735MOL0     H97016   4.159  10.442   2.356 -0.7973 -1.9727  0.3839
  735MOL0     H97017   4.104  10.604   2.308  0.6241  1.5879  0.7506
  735MOL0     H97018   3.945  10.559   2.683  0.1739  0.9650  0.0441
  735MOL0     H97019   3.669  10.741   1.980 -1.1172  0.0642 -0.3785
  735MOL0     H97020   3.536  10.798   1.815 -1.6681 -1.2995  3.5854
  736MOL0     O97021   3.612   2.174   3.944  0.4126  0.4939 -1.5370
  736MOL0     C97022   3.493   2.145   3.956  0.2247 -0.3361 -0.1140
  736MOL0     O97023   3.438   2.019   3.995 -0.6593  0.2627  0.6268
  736MOL0     C97024   3.500   1.893   4.009 -0.1207 -0.2035 -0.1625
  736MOL0     C97025   3.623   1.868   3.946  0.0653 -0.2629 -1.3195
  736MOL0     C97026   3.681   1.742   3.967 -0.4569 -0.4962  0.2338
  736MOL0     C97027   3.626   1.658   4.065 -0.4322 -0.2989  0.7639
  736MOL0     O97028   3.703   1.546   4.098 -0.3647 -0.9466 -0.1664
  736MOL0     C97029   3.731   1.539   4.236 -0.4340 -0.0980  0.6824
  736MOL0     C97030   3.852   1.446   4.241 -0.3213 -0.1270  1.7969
  736MOL0     C97031   3.844   1.314   4.151  0.5690 -0.1926 -0.9470
  736MOL0     C97032   3.967   1.225   4.193 -0.2568 -0.2898 -0.6753
  736MOL0     C97033   3.982   1.117   4.098 -0.1345 -0.1049  0.4674
  736MOL0     C97034   4.097   1.017   4.121 -0.5491 -0.2989  0.1061
  736MOL0     C97035   4.092   0.933   4.241  0.7042 -0.1565 -0.4814
  736MOL0     C97036   4.050   0.789   4.209  0.4347  0.4480 -0.7034
  736MOL0     N97037   4.131   0.715   4.121 -0.1358 -0.6722  0.2017
  736MOL0     C97038   4.108   0.708   3.985 -0.5640  0.3688 -0.1594
  736MOL0     C97039   4.230   0.658   3.927 -0.0649  0.1671 -0.7119
  736MOL0     C97040   4.256   0.630   3.770  0.4058 -0.5415  0.6886
  736MOL0     C97041   4.141   0.557   3.711  0.0367  1.1440  0.0566
  736MOL0     C97042   4.127   0.412   3.746 -0.2944 -0.1062  0.3219
  736MOL0     C97043   3.990   0.355   3.697  0.5419  0.0639  0.2492
  736MOL0     O97044   3.872   0.437   3.718  0.2150 -0.8127  0.1358
  736MOL0     C97045   3.847   0.491   3.844 -0.4882 -0.2146 -0.4594
  736MOL0     C97046   3.757   0.594   3.837  0.4131  0.0951  0.4937
  736MOL0     C97047   3.708   0.661   3.946  0.2026 -0.0789 -0.0137
  736MOL0     C97048   3.753   0.624   4.074  0.4526  0.0983  0.1120
  736MOL0     C97049   3.705   0.691   4.193 -0.3027  0.4102  0.0156
  736MOL0     O97050   3.647   0.812   4.166 -0.9720 -0.5761 -0.4368
  736MOL0     C97051   3.597   0.867   4.279  0.6859  0.2558 -0.8614
  736MOL0     C97052   3.471   0.822   4.320  1.2015 -0.1155  0.0819
  736MOL0     C97053   3.425   0.860   4.450  0.3496  0.1490  0.8781
  736MOL0     C97054   3.487   0.952   4.523  0.1927 -1.0623  0.3177
  736MOL0     O97055   3.443   1.004   4.640  0.0316 -0.0515  0.2604
  736MOL0     C97056   3.319   0.958   4.692 -0.1890 -0.2627  0.6326
  736MOL0     C97057   3.288   1.057   4.812  0.2342 -0.3715  0.0318
  736MOL0     C97058   3.298   0.990   4.949 -0.0572 -0.9686  0.4635
  736MOL0     C97059   3.446   0.963   4.986  0.2299  0.3449 -0.1131
  736MOL0     C97060   3.493   1.024   5.123  0.8001  0.2528  0.5734
  736MOL0     C97061   3.646   1.050   5.123  0.0367  0.0706 -0.0081
  736MOL0     C97062   3.694   1.050   5.265 -0.8184 -0.4699  0.5377
  736MOL0     C97063   3.854   1.053   5.276 -0.2777 -1.0437  0.9497
  736MOL0    Cl97064   3.916   0.907   5.213  0.6018 -0.1639 -0.5808
  736MOL0     C97065   3.605   1.013   4.486 -0.8448  0.0971  0.1427
  736MOL0     C97066   3.669   0.956   4.369 -0.1548 -0.1944 -0.2375
  736MOL0     O97067   3.720   0.625   4.293  0.3108 -1.2243 -0.4380
  736MOL0     C97068   3.835   0.510   4.080  0.3585 -0.4690  0.2659
  736MOL0     C97069   3.883   0.446   3.970  0.2188  0.3629 -0.0083
  736MOL0     N97070   4.303   0.628   4.041 -0.6457  0.2352  0.8213
  736MOL0     N97071   4.254   0.658   4.149  1.1974  0.3187 -0.6021
  736MOL0     C97072   3.504   1.685   4.115  1.1971 -0.9946  0.1181
  736MOL0     C97073   3.437   1.796   4.081  1.2871 -0.3385 -0.2369
  736MOL0     C97074   3.400   2.257   3.925  0.2590 -0.3249  1.0922
  736MOL0     C97075   3.453   2.391   3.922  0.6325  0.4804 -0.7416
  736MOL0     C97076   3.369   2.496   3.901 -0.0222  0.3857  0.3083
  736MOL0     C97077   3.231   2.491   3.874 -0.6501  0.1629  0.4845
  736MOL0     O97078   3.163   2.609   3.851  0.7547  0.4838  0.5219
  736MOL0     C97079   3.055   2.605   3.748  0.2839 -0.5320  0.9407
  736MOL0     C97080   2.980   2.739   3.765  0.3038 -0.0979  0.4039
  736MOL0     C97081   3.076   2.852   3.742  0.1755 -1.0621 -0.2911
  736MOL0     C97082   3.021   2.981   3.695 -0.4628  1.1477 -0.7487
  736MOL0     C97083   2.973   2.988   3.564 -0.0633  0.9194  0.0222
  736MOL0     C97084   2.929   3.001   3.457 -0.5519 -0.3237  0.5097
  736MOL0     C97085   3.185   2.359   3.879  0.2745 -0.2405  0.9401
  736MOL0     C97086   3.267   2.240   3.895  0.6779 -0.2386  0.1433
  736MOL0     H97087   3.677   1.938   3.884  1.7749  1.3634  1.7594
  736MOL0     H97088   3.773   1.720   3.914  1.1358 -0.2462  2.7531
  736MOL0     H97089   3.640   1.496   4.280 -1.5601  0.8993 -0.5985
  736MOL0     H97090   3.752   1.634   4.286 -0.2009 -0.6396  1.6557
  736MOL0     H97091   3.856   1.403   4.341  0.5094 -1.3435  1.2718
  736MOL0     H97092   3.944   1.501   4.221 -0.3801  0.0382  1.9828
  736MOL0     H97093   3.855   1.345   4.046  0.3851  1.3578 -0.5288
  736MOL0     H97094   3.750   1.262   4.169 -1.3093  3.0166 -0.6628
  736MOL0     H97095   4.068   1.267   4.196 -0.0128 -0.8906  0.0444
  736MOL0     H97096   3.975   1.192   4.297  1.1603  1.0002 -0.3287
  736MOL0     H97097   3.992   1.156   3.996  1.6867 -1.1987  0.1807
  736MOL0     H97098   3.884   1.068   4.098 -0.5687  0.6659 -1.8511
  736MOL0     H97099   4.184   1.082   4.122 -0.6859 -0.0463 -1.6576
  736MOL0     H97100   4.097   0.973   4.021 -3.9197  1.7766 -0.9786
  736MOL0     H97101   4.190   0.938   4.289  0.8691  1.5054 -0.9289
  736MOL0     H97102   4.017   0.980   4.305 -1.4785 -1.3149 -2.0394
  736MOL0     H97103   3.953   0.797   4.158  1.0016  2.1397 -1.6089
  736MOL0     H97104   4.038   0.735   4.303  4.0244 -1.8842 -1.3657
  736MOL0     H97105   4.013   0.728   3.936  0.1870  2.3195 -0.9086
  736MOL0     H97106   4.346   0.569   3.765  1.4944  0.9817  1.0607
  736MOL0     H97107   4.267   0.724   3.714  3.7049 -0.1125  1.8357
  736MOL0     H97108   4.149   0.562   3.602 -0.3641  1.0093  0.0171
  736MOL0     H97109   4.046   0.608   3.735  1.1097  2.8783  0.8471
  736MOL0     H97110   4.197   0.345   3.695 -1.3694 -2.1985  1.4583
  736MOL0     H97111   4.135   0.399   3.854 -0.3772 -0.6296  0.2720
  736MOL0     H97112   3.991   0.259   3.750  4.9664  0.2839  0.9128
  736MOL0     H97113   3.987   0.330   3.590  1.9396 -0.4889  0.3206
  736MOL0     H97114   3.721   0.627   3.740  0.6450  1.7937  0.9554
  736MOL0     H97115   3.652   0.753   3.931  0.7898  0.2510 -0.1920
  736MOL0     H97116   3.414   0.745   4.270  0.8377 -0.4174  0.9472
  736MOL0     H97117   3.329   0.822   4.482  0.2067 -2.0822 -1.7923
  736MOL0     H97118   3.334   0.856   4.729  0.4818 -0.2312  0.4647
  736MOL0     H97119   3.239   0.950   4.618  2.0721 -0.3254 -1.9688
  736MOL0     H97120   3.184   1.091   4.809  0.2475 -0.3558 -0.3857
  736MOL0     H97121   3.352   1.145   4.805  0.0142 -0.3308 -2.3410
  736MOL0     H97122   3.232   0.904   4.967  0.6811 -1.2699  1.8622
  736MOL0     H97123   3.249   1.054   5.021  0.1966  0.4250 -0.5630
  736MOL0     H97124   3.457   0.854   4.986 -0.3770  0.2713 -1.1396
  736MOL0     H97125   3.514   1.009   4.914  0.0256  2.7085  1.1134
  736MOL0     H97126   3.462   0.952   5.199  1.1866 -1.8824 -1.2063
  736MOL0     H97127   3.435   1.116   5.134 -1.2465 -0.2750 -3.8584
  736MOL0     H97128   3.683   1.138   5.071 -0.9228  0.2255 -0.4616
  736MOL0     H97129   3.687   0.959   5.077 -1.3452 -1.0831  0.9252
  736MOL0     H97130   3.665   1.143   5.314  2.7016  1.6749 -1.0620
  736MOL0     H97131   3.655   0.966   5.324 -0.3852 -1.8192 -1.0139
  736MOL0     H97132   3.883   1.080   5.377 -0.4692  1.1587  0.4728
  736MOL0     H97133   3.886   1.137   5.214  1.4603 -2.3441 -0.0082
  736MOL0     H97134   3.651   1.092   4.544  0.9246  1.3487 -2.7516
  736MOL0     H97135   3.757   1.011   4.336  0.8482 -1.9247 -0.5513
  736MOL0     H97136   3.881   0.481   4.174  2.5002  1.2869 -0.1569
  736MOL0     H97137   3.957   0.366   3.977  0.0119  0.2573  1.0684
  736MOL0     H97138   3.446   1.617   4.177 -1.0296 -1.5123 -2.3412
  736MOL0     H97139   3.338   1.801   4.124  1.4752  1.0627  0.0926
  736MOL0     H97140   3.551   2.425   3.954 -0.6775  2.4539  1.5259
  736MOL0     H97141   3.409   2.596   3.919  3.6087 -1.2017  2.0282
  736MOL0     H97142   2.993   2.515   3.749  0.1879 -0.5315  3.5832
  736MOL0     H97143   3.111   2.601   3.654  0.7303  2.5279  0.9821
  736MOL0     H97144   2.902   2.739   3.688  0.4160 -1.8233  0.2354
  736MOL0     H97145   2.934   2.742   3.864 -4.1285 -1.8198 -1.3525
  736MOL0     H97146   3.151   2.820   3.669  0.9366  0.1273 -0.0523
  736MOL0     H97147   3.125   2.859   3.840  1.8391 -0.4401 -1.1356
  736MOL0     H97148   2.940   3.008   3.763 -1.8444  0.4941 -2.0905
  736MOL0     H97149   3.108   3.047   3.706  1.5992 -1.6873  2.3789
  736MOL0     H97150   2.908   3.024   3.354  0.1734 -0.8032  0.2446
  736MOL0     H97151   3.077   2.354   3.876  0.1163  2.1646  1.1953
  736MOL0     H97152   3.215   2.145   3.900  1.4466 -0.9239 -2.6864
  737MOL0     O97153   7.740   0.393   4.728 -0.0041 -0.3835  0.4037
  737MOL0     C97154   7.723   0.351   4.839 -0.1131 -0.1156  0.0461
  737MOL0     O97155   7.698   0.221   4.870  0.1897  0.1051  1.2421
  737MOL0     C97156   7.664   0.127   4.768  0.4186  0.8286  0.6851
  737MOL0     C97157   7.618   0.146   4.624 -0.5786 -0.2007 -0.4256
  737MOL0     C97158   7.594   0.034   4.537 -0.2006 -0.6905 -0.3308
  737MOL0     C97159   7.608  -0.091   4.586 -0.0411  0.1582  0.4202
  737MOL0     O97160   7.613  -0.199   4.498 -0.7389 -0.3832 -0.2591
  737MOL0     C97161   7.750  -0.248   4.501  0.5827 -0.6588  0.4180
  737MOL0     C97162   7.783  -0.332   4.379  0.2367  0.7135 -0.7275
  737MOL0     C97163   7.709  -0.469   4.369 -0.3635  0.5467 -0.5736
  737MOL0     C97164   7.707  -0.524   4.229  0.0892  0.1606 -0.2294
  737MOL0     C97165   7.581  -0.608   4.200 -0.2172 -0.5587  0.3434
  737MOL0     C97166   7.562  -0.732   4.288 -0.7353 -0.1919  0.0402
  737MOL0     C97167   7.449  -0.823   4.241 -0.5694  0.1810 -0.0111
  737MOL0     C97168   7.313  -0.787   4.295  0.5953  0.9959  0.1932
  737MOL0     N97169   7.312  -0.782   4.441 -0.0695  0.2856  0.4183
  737MOL0     C97170   7.266  -0.889   4.517  0.3538  0.8236 -0.4805
  737MOL0     C97171   7.213  -0.829   4.637 -0.1427  0.1056  0.0833
  737MOL0     C97172   7.141  -0.906   4.754  0.3758 -0.2179  0.5444
  737MOL0     C97173   7.020  -0.990   4.708 -0.5116 -0.6810 -0.8423
  737MOL0     C97174   6.977  -1.068   4.833 -0.6688 -1.0600  0.6619
  737MOL0     C97175   6.858  -1.158   4.794  0.1933  0.0954  0.5675
  737MOL0     O97176   6.894  -1.255   4.695 -0.4981 -0.1395 -0.0298
  737MOL0     C97177   6.961  -1.369   4.736 -0.0244 -0.2926  1.2083
  737MOL0     C97178   7.008  -1.396   4.857 -0.4540 -0.3001 -0.6269
  737MOL0     C97179   7.090  -1.504   4.889  1.1180 -0.6195 -0.3862
  737MOL0     C97180   7.116  -1.598   4.782  1.0937 -0.2934 -0.5458
  737MOL0     C97181   7.199  -1.721   4.816  0.3099  1.6695 -0.7341
  737MOL0     O97182   7.198  -1.831   4.730  0.5385 -0.4432 -0.0054
  737MOL0     C97183   7.275  -1.938   4.763 -0.7036  0.6215  0.6852
  737MOL0     C97184   7.226  -2.017   4.871 -1.1963  0.9315 -0.4815
  737MOL0     C97185   7.293  -2.136   4.905 -0.1091 -0.3127 -0.3368
  737MOL0     C97186   7.424  -2.154   4.859  0.3431  0.9545  0.0755
  737MOL0     O97187   7.480  -2.275   4.884  0.2620  0.7573 -0.7799
  737MOL0     C97188   7.618  -2.297   4.850  0.2633 -0.0115 -1.0964
  737MOL0     C97189   7.659  -2.443   4.893  0.6603 -0.0796 -0.6991
  737MOL0     C97190   7.815  -2.463   4.884  0.2109 -0.4989  0.4746
  737MOL0     C97191   7.847  -2.608   4.876 -0.3599  0.6865 -0.1492
  737MOL0     C97192   7.998  -2.622   4.857 -1.5270  0.0459  0.1755
  737MOL0     C97193   8.030  -2.777   4.878  0.6754  0.5798  0.1414
  737MOL0     C97194   8.173  -2.812   4.856 -0.5842 -0.1277  0.9719
  737MOL0     C97195   8.175  -2.941   4.758  0.5295 -0.3810 -0.0340
  737MOL0    Cl97196   8.343  -2.978   4.715 -0.2981 -0.5002  0.0549
  737MOL0     C97197   7.483  -2.060   4.769 -0.2107 -0.4729  0.2954
  737MOL0     C97198   7.407  -1.961   4.720 -0.7105  0.6664  0.7559
  737MOL0     O97199   7.267  -1.708   4.915  0.1390 -1.4331 -0.3937
  737MOL0     C97200   7.061  -1.575   4.650 -0.0710  0.0689 -0.7555
  737MOL0     C97201   6.981  -1.460   4.623  0.5626 -0.4425 -0.3544
  737MOL0     N97202   7.245  -0.696   4.635  0.0284  0.4318 -0.0229
  737MOL0     N97203   7.300  -0.670   4.521 -0.6923 -1.2744 -0.4641
  737MOL0     C97204   7.652  -0.114   4.720 -0.6714 -0.4859 -0.9436
  737MOL0     C97205   7.684  -0.008   4.808  0.1777  0.5183  0.5569
  737MOL0     C97206   7.759   0.447   4.943 -0.3422  1.4406  0.0909
  737MOL0     C97207   7.820   0.569   4.907  1.5804 -0.0184  0.0697
  737MOL0     C97208   7.849   0.660   5.011 -0.4390 -0.1211 -0.4898
  737MOL0     C97209   7.828   0.630   5.144 -0.2946  0.1497  0.1184
  737MOL0     O97210   7.878   0.708   5.250 -0.6058  0.1470  0.9240
  737MOL0     C97211   7.951   0.826   5.215  0.7011 -0.0748 -0.3137
  737MOL0     C97212   7.992   0.901   5.340 -1.3193 -0.4199  1.0112
  737MOL0     C97213   7.872   0.981   5.410 -0.3959 -0.9297  0.8567
  737MOL0     C97214   7.924   1.099   5.501 -0.9106 -0.5991  0.7957
  737MOL0     C97215   7.807   1.166   5.565 -0.4207  0.5445  0.3936
  737MOL0     C97216   7.689   1.206   5.588  0.8656 -0.7805 -0.0248
  737MOL0     C97217   7.784   0.501   5.176  1.0230 -0.6166  0.0493
  737MOL0     C97218   7.745   0.415   5.081  0.5656 -0.3434  0.2014
  737MOL0     H97219   7.584   0.246   4.596 -0.7666 -1.0556 -3.6724
  737MOL0     H97220   7.553   0.043   4.437  0.0847 -1.2800 -0.5095
  737MOL0     H97221   7.766  -0.310   4.590  0.5929  1.2404  1.7901
  737MOL0     H97222   7.822  -0.165   4.503 -1.0497  0.8877 -1.3517
  737MOL0     H97223   7.890  -0.354   4.383  0.5144  2.0746 -0.0936
  737MOL0     H97224   7.767  -0.275   4.287  2.8204  0.2825 -1.5277
  737MOL0     H97225   7.608  -0.449   4.405 -1.2686 -3.2167 -0.6293
  737MOL0     H97226   7.756  -0.542   4.435  1.1652 -0.9088 -3.1041
  737MOL0     H97227   7.701  -0.437   4.164 -1.6701  0.3385  0.1178
  737MOL0     H97228   7.804  -0.573   4.218  0.3506  0.4780  0.5633
  737MOL0     H97229   7.582  -0.630   4.093 -2.3646 -0.0409  0.1745
  737MOL0     H97230   7.499  -0.540   4.225 -0.2414 -0.1408 -0.8125
  737MOL0     H97231   7.557  -0.715   4.396  0.0677 -3.1201  0.6302
  737MOL0     H97232   7.652  -0.794   4.282 -0.9620 -0.4552 -0.7187
  737MOL0     H97233   7.437  -0.809   4.133 -0.4570  1.0790  0.0821
  737MOL0     H97234   7.482  -0.922   4.274  2.3800  0.6855 -1.1127
  737MOL0     H97235   7.254  -0.874   4.266  3.3065  0.1926 -3.6310
  737MOL0     H97236   7.269  -0.697   4.250 -0.6895 -0.9037 -2.6183
  737MOL0     H97237   7.253  -0.990   4.480 -1.8669  0.0507  2.0910
  737MOL0     H97238   7.111  -0.835   4.831 -1.2848 -1.5189  1.1476
  737MOL0     H97239   7.216  -0.982   4.782  0.1718 -1.3622 -1.7946
  737MOL0     H97240   7.068  -1.049   4.630 -1.1384 -2.6382  0.1885
  737MOL0     H97241   6.937  -0.940   4.659  2.9153  1.9134 -4.7260
  737MOL0     H97242   7.056  -1.133   4.873 -0.1574 -2.2065 -1.9989
  737MOL0     H97243   6.941  -0.997   4.908 -2.3265 -2.3045  1.1023
  737MOL0     H97244   6.779  -1.091   4.760  0.2322  0.5570  1.3596
  737MOL0     H97245   6.817  -1.212   4.880 -1.1092  1.9637  1.1700
  737MOL0     H97246   7.002  -1.332   4.944  0.9828  0.4614 -1.0458
  737MOL0     H97247   7.132  -1.530   4.985  0.5594 -0.8562 -0.2018
  737MOL0     H97248   7.134  -1.981   4.916  0.7609  1.8346  3.1745
  737MOL0     H97249   7.249  -2.212   4.969 -1.0158  0.8078  0.4225
  737MOL0     H97250   7.683  -2.230   4.907 -0.0489 -0.6187 -0.0038
  737MOL0     H97251   7.640  -2.291   4.743  1.4348 -0.0326 -0.8735
  737MOL0     H97252   7.610  -2.521   4.833  0.0829  0.1364 -0.5113
  737MOL0     H97253   7.630  -2.455   4.998  0.6422 -1.6255 -0.8562
  737MOL0     H97254   7.877  -2.407   4.954  1.4573 -0.0864 -0.9107
  737MOL0     H97255   7.855  -2.415   4.794  1.5202  0.5508  1.5780
  737MOL0     H97256   7.822  -2.652   4.973 -0.7104 -1.4729 -1.1730
  737MOL0     H97257   7.801  -2.664   4.795  2.2232  0.7265 -1.7503
  737MOL0     H97258   8.059  -2.564   4.926 -1.5655 -2.5830  2.5860
  737MOL0     H97259   8.019  -2.597   4.752  0.8080 -1.6192  0.1647
  737MOL0     H97260   7.969  -2.840   4.812  1.9134 -3.0338  2.1404
  737MOL0     H97261   7.995  -2.814   4.975 -1.3779 -0.8522 -1.0670
  737MOL0     H97262   8.236  -2.729   4.824 -1.6096  0.4641  0.4543
  737MOL0     H97263   8.211  -2.843   4.955 -0.3639  0.7031  1.1524
  737MOL0     H97264   8.115  -2.933   4.666 -0.5784 -3.1974  0.3431
  737MOL0     H97265   8.139  -3.028   4.812 -0.0380  1.2665  2.4117
  737MOL0     H97266   7.586  -2.069   4.735  1.0140  1.0455  3.2444
  737MOL0     H97267   7.449  -1.894   4.646 -2.8376  1.0076 -0.1974
  737MOL0     H97268   7.075  -1.652   4.575 -3.7335 -1.1334 -0.3887
  737MOL0     H97269   6.936  -1.436   4.528 -2.6095 -1.4333  0.7584
  737MOL0     H97270   7.678  -0.214   4.753  0.1032 -0.8556 -2.5632
  737MOL0     H97271   7.702  -0.034   4.912  1.6652 -0.0394  0.1729
  737MOL0     H97272   7.830   0.611   4.807  1.5673 -0.7543 -0.2463
  737MOL0     H97273   7.890   0.757   4.987  0.9443  0.4861  3.5859
  737MOL0     H97274   7.896   0.896   5.151  2.7030  0.5253 -1.4520
  737MOL0     H97275   8.037   0.784   5.162 -0.9438 -0.9965 -2.4459
  737MOL0     H97276   8.035   0.827   5.407  0.7172  0.1467  0.3885
  737MOL0     H97277   8.068   0.977   5.324  1.0659 -2.3774  2.4304
  737MOL0     H97278   7.808   0.911   5.464  2.7081 -4.1098  0.7189
  737MOL0     H97279   7.812   1.031   5.333  1.2889 -0.4132 -0.1601
  737MOL0     H97280   7.993   1.064   5.579 -0.4625  0.3028  0.8211
  737MOL0     H97281   7.972   1.169   5.432  0.8913 -1.4433  1.1103
  737MOL0     H97282   7.599   1.251   5.623  0.5619  1.2632 -3.0579
  737MOL0     H97283   7.776   0.476   5.281 -4.1570  5.2666  1.6439
  737MOL0     H97284   7.696   0.322   5.110 -1.9732 -0.0626 -2.6981
  738MOL0     O97285   8.899  11.263   0.473 -0.0968 -0.5495 -0.6631
  738MOL0     C97286   8.977  11.170   0.441  0.6475  0.0780 -0.1155
  738MOL0     O97287   8.974  11.106   0.325  0.0872  0.4267 -0.6478
  738MOL0     C97288   8.890  11.145   0.233 -0.0117 -0.7524  0.2878
  738MOL0     C97289   8.792  11.049   0.225  0.3836  0.1764  0.3166
  738MOL0     C97290   8.682  11.073   0.137  1.2117  0.8204  1.0202
  738MOL0     C97291   8.686  11.181   0.046 -0.7656  0.3152  0.2835
  738MOL0     O97292   8.575  11.190  -0.039 -0.5569 -0.3150  0.6382
  738MOL0     C97293   8.571  11.275  -0.156 -0.5119 -1.3326  0.0268
  738MOL0     C97294   8.484  11.217  -0.264  1.0180  0.5036  0.1550
  738MOL0     C97295   8.406  11.314  -0.361 -0.4904  0.7760  0.5935
  738MOL0     C97296   8.368  11.238  -0.488  0.4766  0.0822 -0.1778
  738MOL0     C97297   8.273  11.326  -0.583 -0.0679 -0.6060  0.7804
  738MOL0     C97298   8.336  11.459  -0.634  0.3474  0.8772  1.3090
  738MOL0     C97299   8.226  11.542  -0.709 -0.5633  0.2035 -0.8180
  738MOL0     C97300   8.286  11.662  -0.766  0.0712 -0.2488 -0.0084
  738MOL0     N97301   8.196  11.713  -0.872  0.3574 -0.6860  0.2245
  738MOL0     C97302   8.228  11.730  -1.005 -0.6268  0.0134 -0.9054
  738MOL0     C97303   8.122  11.784  -1.066  0.1335  0.9009  0.6719
  738MOL0     C97304   8.099  11.791  -1.210 -1.0282 -0.0862  0.5401
  738MOL0     C97305   8.111  11.931  -1.268  0.9184 -0.0237  0.5473
  738MOL0     C97306   8.259  11.973  -1.261 -0.2320 -0.2903  0.6127
  738MOL0     C97307   8.287  12.113  -1.314 -0.4821  0.0044 -0.7686
  738MOL0     O97308   8.227  12.133  -1.447  0.6046 -1.1993 -0.2853
  738MOL0     C97309   8.170  12.256  -1.474 -0.4722 -0.0303  0.3933
  738MOL0     C97310   8.042  12.279  -1.421 -0.3631  0.4143 -0.3239
  738MOL0     C97311   7.983  12.404  -1.430 -0.2375 -0.5191  0.7309
  738MOL0     C97312   8.039  12.500  -1.514  0.1347 -0.2474  0.4238
  738MOL0     C97313   7.962  12.628  -1.549 -1.0613  1.0692  0.6251
  738MOL0     O97314   7.844  12.651  -1.489 -0.2472  0.0353 -0.4591
  738MOL0     C97315   7.769  12.764  -1.515  0.5256  0.6662 -0.8232
  738MOL0     C97316   7.766  12.841  -1.633  0.0607  0.2311 -0.6901
  738MOL0     C97317   7.686  12.950  -1.646 -1.3582  0.1305  0.6385
  738MOL0     C97318   7.593  12.984  -1.545 -0.3867 -0.3167 -0.1798
  738MOL0     O97319   7.524  13.092  -1.569 -0.1577 -0.1845 -0.0976
  738MOL0     C97320   7.391  13.088  -1.520  0.0853  0.4638 -0.0565
  738MOL0     C97321   7.322  13.222  -1.574 -0.5645  0.6501  0.2628
  738MOL0     C97322   7.181  13.192  -1.595  0.2026  0.4727  0.4744
  738MOL0     C97323   7.111  13.302  -1.668  0.2235 -0.5442  1.0176
  738MOL0     C97324   6.966  13.318  -1.617  0.8918  0.3982  0.0899
  738MOL0     C97325   6.910  13.444  -1.684  0.6588 -0.5718  0.6260
  738MOL0     C97326   6.772  13.491  -1.628 -0.5388  0.8398  0.2859
  738MOL0     C97327   6.649  13.423  -1.676  1.0210  0.1274 -0.1284
  738MOL0    Cl97328   6.625  13.402  -1.851  0.1960 -0.4010  0.0342
  738MOL0     C97329   7.581  12.898  -1.431 -0.5575  1.0422 -0.4315
  738MOL0     C97330   7.670  12.787  -1.417  0.1853 -0.1324 -0.0159
  738MOL0     O97331   8.027  12.709  -1.618  0.6651 -0.3665  0.7150
  738MOL0     C97332   8.166  12.481  -1.582  0.3958  0.1867 -0.1316
  738MOL0     C97333   8.233  12.350  -1.559 -0.0799 -0.8480 -0.2774
  738MOL0     N97334   8.040  11.834  -0.971 -0.2539 -0.0257  0.5535
  738MOL0     N97335   8.079  11.785  -0.856 -0.5253  1.1414 -0.5831
  738MOL0     C97336   8.791  11.275   0.063  0.2506  0.4420  0.9945
  738MOL0     C97337   8.890  11.253   0.156  0.0282  0.3030  0.1644
  738MOL0     C97338   9.074  11.126   0.546 -0.3715  1.0490  0.7525
  738MOL0     C97339   9.157  11.016   0.520 -0.4170  0.3374  0.5364
  738MOL0     C97340   9.230  10.956   0.626  0.3831 -0.2071  0.3855
  738MOL0     C97341   9.245  11.024   0.747 -0.7488  0.3802  0.1788
  738MOL0     O97342   9.327  10.975   0.849  0.6748  0.2860 -0.0831
  738MOL0     C97343   9.328  11.035   0.975 -0.2740  0.9596  0.1210
  738MOL0     C97344   9.422  11.149   0.976 -0.1914 -0.5126 -1.2657
  738MOL0     C97345   9.447  11.205   1.124  0.8028 -0.0733 -0.4945
  738MOL0     C97346   9.326  11.277   1.196 -0.3870  0.6026 -0.0701
  738MOL0     C97347   9.274  11.399   1.127 -0.2833  0.0361 -0.5222
  738MOL0     C97348   9.245  11.500   1.064  0.2183  0.0284 -0.4891
  738MOL0     C97349   9.177  11.147   0.761  0.1138 -0.3774  0.1689
  738MOL0     C97350   9.095  11.197   0.658 -0.2851  0.4417 -0.8795
  738MOL0     H97351   8.792  10.952   0.273  2.5432  0.3038  0.6766
  738MOL0     H97352   8.603  10.999   0.132  0.8292  1.2766 -0.2547
  738MOL0     H97353   8.671  11.293  -0.197 -0.6842  1.1917  0.5300
  738MOL0     H97354   8.527  11.372  -0.131 -0.9236 -1.8915  1.6059
  738MOL0     H97355   8.402  11.157  -0.224  0.4423 -0.2392 -2.0242
  738MOL0     H97356   8.544  11.147  -0.322  0.6862 -0.2474  0.7113
  738MOL0     H97357   8.463  11.406  -0.374 -1.9428  1.8697  1.5877
  738MOL0     H97358   8.315  11.345  -0.308 -2.0596 -0.9299 -0.9087
  738MOL0     H97359   8.457  11.217  -0.549  0.6419  2.1663 -0.7365
  738MOL0     H97360   8.312  11.145  -0.472 -2.6918  1.6978 -1.1696
  738MOL0     H97361   8.177  11.347  -0.536 -0.2744  0.5973 -0.1378
  738MOL0     H97362   8.247  11.258  -0.664 -0.1131 -0.2992  0.5328
  738MOL0     H97363   8.409  11.437  -0.712  0.2910  2.1876  0.8612
  738MOL0     H97364   8.383  11.521  -0.558  0.9652  2.3905 -0.2393
  738MOL0     H97365   8.191  11.488  -0.797  1.1371 -0.2607 -1.2532
  738MOL0     H97366   8.149  11.575  -0.639 -0.8146 -1.9048 -0.0251
  738MOL0     H97367   8.382  11.631  -0.808  0.0618  1.3621 -1.2811
  738MOL0     H97368   8.310  11.733  -0.686  2.6011  0.7740 -1.5971
  738MOL0     H97369   8.310  11.674  -1.048 -2.1729 -2.0757 -1.3325
  738MOL0     H97370   8.003  11.747  -1.239 -0.3045 -0.1682 -1.9126
  738MOL0     H97371   8.177  11.737  -1.265 -0.8132 -0.0121  0.7712
  738MOL0     H97372   8.053  11.992  -1.198 -0.2722  1.1818 -1.4315
  738MOL0     H97373   8.077  11.939  -1.371  2.6499  0.8844  0.0109
  738MOL0     H97374   8.295  11.950  -1.160 -1.0739 -5.6065  0.0134
  738MOL0     H97375   8.317  11.898  -1.316  0.1563 -0.5245  1.3207
  738MOL0     H97376   8.394  12.132  -1.314 -0.9962  3.7370  0.2930
  738MOL0     H97377   8.258  12.191  -1.243 -1.2130 -0.9940  0.0698
  738MOL0     H97378   7.999  12.195  -1.368 -1.0265 -0.6742 -2.4681
  738MOL0     H97379   7.888  12.427  -1.383 -0.0157  4.2790 -0.6268
  738MOL0     H97380   7.837  12.825  -1.714 -0.5875 -4.1243 -0.6365
  738MOL0     H97381   7.709  13.019  -1.726 -3.0271 -1.6707 -1.5314
  738MOL0     H97382   7.388  13.075  -1.412  2.8159 -1.4358 -0.1096
  738MOL0     H97383   7.341  12.996  -1.553 -3.9564  1.6514  2.0628
  738MOL0     H97384   7.381  13.245  -1.664  0.5030  0.5299  0.9244
  738MOL0     H97385   7.340  13.300  -1.499  2.8313  3.6278 -3.1439
  738MOL0     H97386   7.129  13.173  -1.501  0.1851 -0.2407  0.3267
  738MOL0     H97387   7.179  13.101  -1.656  1.3509  2.1711 -2.2729
  738MOL0     H97388   7.156  13.402  -1.662  0.8813 -0.8462  1.3080
  738MOL0     H97389   7.100  13.265  -1.770 -1.2730 -0.1632  1.0208
  738MOL0     H97390   6.975  13.335  -1.509  1.8730  1.9869 -0.2202
  738MOL0     H97391   6.912  13.224  -1.633  1.4745 -0.0841  0.8665
  738MOL0     H97392   6.911  13.420  -1.791  0.7121 -0.4588  0.6019
  738MOL0     H97393   6.975  13.528  -1.660 -2.8286  3.3638 -2.3020
  738MOL0     H97394   6.770  13.475  -1.520 -0.4819  1.3709  0.3699
  738MOL0     H97395   6.764  13.598  -1.650  1.1502  0.7011 -1.2387
  738MOL0     H97396   6.567  13.486  -1.641  1.4593 -0.0719  1.3508
  738MOL0     H97397   6.652  13.330  -1.618  1.7875  1.4986  2.1669
  738MOL0     H97398   7.520  12.929  -1.347 -0.1935 -3.2917  1.7141
  738MOL0     H97399   7.657  12.710  -1.342 -1.2644 -0.7450 -0.8422
  738MOL0     H97400   8.213  12.553  -1.649  2.3925 -2.0190 -1.2648
  738MOL0     H97401   8.318  12.326  -1.621  0.9386 -1.8578  1.4277
  738MOL0     H97402   8.795  11.357  -0.008  1.4404 -0.8745 -0.5553
  738MOL0     H97403   8.975  11.320   0.151 -1.0961  2.1010  2.8329
  738MOL0     H97404   9.150  10.974   0.420  1.0094 -0.2113  0.6414
  738MOL0     H97405   9.285  10.864   0.609  0.1132 -0.0803 -1.3114
  738MOL0     H97406   9.360  10.966   1.055 -2.1999  0.0233  0.1359
  738MOL0     H97407   9.227  11.070   0.996 -1.3004 -1.3694 -0.5935
  738MOL0     H97408   9.518  11.113   0.939  0.6699  0.4429 -0.0616
  738MOL0     H97409   9.391  11.238   0.919  3.0220  4.3369  3.5128
  738MOL0     H97410   9.541  11.258   1.135  0.9182 -0.4899  0.7246
  738MOL0     H97411   9.464  11.112   1.179  0.0253 -0.8785 -1.5588
  738MOL0     H97412   9.247  11.202   1.213 -1.8026  1.4662 -2.3983
  738MOL0     H97413   9.354  11.311   1.296  0.8400 -2.3949  0.7214
  738MOL0     H97414   9.221  11.593   1.019 -1.3328 -1.6969 -3.5410
  738MOL0     H97415   9.185  11.216   0.845 -1.4502  2.8440 -2.1101
  738MOL0     H97416   9.034  11.286   0.674 -2.1390 -1.0855  1.0132
  739MOL0     O97417  11.317   2.468   3.011  0.6785  0.9666 -0.9463
  739MOL0     C97418  11.279   2.516   3.122 -0.3036  0.1393 -0.0546
  739MOL0     O97419  11.291   2.446   3.240  0.1617 -1.0422 -0.0890
  739MOL0     C97420  11.332   2.320   3.240 -0.4199  0.4795 -1.3147
  739MOL0     C97421  11.459   2.295   3.270  0.2742 -0.4672 -0.0515
  739MOL0     C97422  11.506   2.171   3.285 -0.3969  0.2751 -0.0029
  739MOL0     C97423  11.415   2.059   3.274 -0.3163  0.8292 -1.0366
  739MOL0     O97424  11.476   1.941   3.277 -0.6150 -0.4620 -0.0331
  739MOL0     C97425  11.440   1.851   3.380  0.4424 -0.2969 -0.5094
  739MOL0     C97426  11.552   1.835   3.493 -0.7122  0.1731  0.5900
  739MOL0     C97427  11.680   1.766   3.458 -0.9747  0.7019  0.7317
  739MOL0     C97428  11.667   1.614   3.422 -0.2297 -1.1720 -0.1952
  739MOL0     C97429  11.798   1.549   3.378  0.9485  0.2612  0.0256
  739MOL0     C97430  11.781   1.406   3.336 -0.4929  1.1336  0.0841
  739MOL0     C97431  11.922   1.343   3.303 -0.2813 -0.1452  0.0088
  739MOL0     C97432  12.020   1.426   3.210  1.2189  0.6556  1.0556
  739MOL0     N97433  11.965   1.480   3.085 -0.0709  0.5271 -0.0014
  739MOL0     C97434  11.889   1.406   2.993  0.4454  0.2536 -0.1519
  739MOL0     C97435  11.844   1.499   2.905  0.6682  0.3324  0.5238
  739MOL0     C97436  11.773   1.472   2.776  0.5508 -0.2117 -0.0563
  739MOL0     C97437  11.623   1.477   2.790  0.4230  0.2819 -0.4790
  739MOL0     C97438  11.552   1.467   2.658  0.3129 -0.2576  0.6317
  739MOL0     C97439  11.523   1.326   2.606  0.5171  0.8005  0.3457
  739MOL0     O97440  11.435   1.329   2.494 -0.5205 -0.6056 -0.3512
  739MOL0     C97441  11.411   1.225   2.420  0.4438  0.4836  1.1687
  739MOL0     C97442  11.419   1.098   2.465  0.8561 -0.0573  0.6816
  739MOL0     C97443  11.377   0.983   2.387 -0.4396 -0.0131 -0.9838
  739MOL0     C97444  11.344   0.996   2.251  0.1410 -0.8312 -0.0136
  739MOL0     C97445  11.298   0.874   2.175  0.3057  0.2571  0.3793
  739MOL0     O97446  11.342   0.751   2.213 -0.4597  0.2768  0.4695
  739MOL0     C97447  11.299   0.630   2.167 -0.3547 -0.7888 -0.3153
  739MOL0     C97448  11.165   0.604   2.132  0.2912 -0.5344 -0.1442
  739MOL0     C97449  11.128   0.463   2.111  0.1760 -0.0212 -0.6831
  739MOL0     C97450  11.227   0.369   2.117  0.4254 -0.2983  0.5843
  739MOL0     O97451  11.190   0.238   2.099 -0.2146 -0.9348  0.7515
  739MOL0     C97452  11.228   0.176   1.975  0.1899  0.2389  0.1523
  739MOL0     C97453  11.179   0.035   1.974  0.1843 -0.1958  0.9371
  739MOL0     C97454  11.039   0.024   1.918  0.2149  0.0136  0.3055
  739MOL0     C97455  11.002  -0.122   1.916 -0.0913  0.3606  0.0777
  739MOL0     C97456  10.846  -0.133   1.911 -0.7634 -0.0208 -1.0759
  739MOL0     C97457  10.797  -0.280   1.906 -0.6732 -0.7268 -1.3022
  739MOL0     C97458  10.643  -0.273   1.907 -0.0097 -0.4864  0.2272
  739MOL0     C97459  10.588  -0.246   2.045 -0.0818  0.5984  0.7020
  739MOL0    Cl97460  10.414  -0.271   2.043 -0.2536 -0.6227  0.2390
  739MOL0     C97461  11.358   0.401   2.163  0.2976 -0.3223 -0.5226
  739MOL0     C97462  11.397   0.537   2.176  0.2496  0.0083 -0.0086
  739MOL0     O97463  11.214   0.897   2.085 -0.3191 -0.3304  0.1787
  739MOL0     C97464  11.333   1.129   2.207  0.3061 -0.5369  0.5724
  739MOL0     C97465  11.370   1.240   2.287  0.3249  0.3906 -0.4491
  739MOL0     N97466  11.888   1.618   2.947 -0.6078  0.5435  0.2856
  739MOL0     N97467  11.964   1.605   3.048  0.2501 -0.7264  0.0988
  739MOL0     C97468  11.284   2.085   3.231  0.3685  0.6090 -0.3509
  739MOL0     C97469  11.246   2.220   3.214  0.7541  0.4803  0.4387
  739MOL0     C97470  11.213   2.652   3.125  0.0477 -1.0197 -0.8074
  739MOL0     C97471  11.172   2.709   3.247 -0.2861 -0.1051  0.1222
  739MOL0     C97472  11.127   2.836   3.243 -0.8385 -0.2894  0.1867
  739MOL0     C97473  11.114   2.922   3.137  0.1252 -0.6244 -0.5544
  739MOL0     O97474  11.075   3.057   3.144 -0.3368  0.1173 -0.4010
  739MOL0     C97475  11.105   3.132   3.265  0.3128 -0.1519 -0.4997
  739MOL0     C97476  11.070   3.281   3.249  0.6741  0.0395  0.3709
  739MOL0     C97477  10.924   3.311   3.240  0.6696  0.3412 -0.6701
  739MOL0     C97478  10.890   3.455   3.220  0.1486 -0.4610 -0.2579
  739MOL0     C97479  10.747   3.460   3.188  0.1659  0.3071 -0.5527
  739MOL0     C97480  10.630   3.493   3.184 -0.5262  0.3382 -1.0320
  739MOL0     C97481  11.153   2.866   3.016 -0.2376  0.4330 -0.2030
  739MOL0     C97482  11.201   2.736   3.008  0.1390  0.4318 -0.4929
  739MOL0     H97483  11.515   2.386   3.287  0.5958 -0.5078 -0.8408
  739MOL0     H97484  11.613   2.156   3.298 -0.0746  2.2248 -0.1024
  739MOL0     H97485  11.415   1.753   3.339  4.6029 -1.1893 -1.4070
  739MOL0     H97486  11.355   1.890   3.436  1.2858  0.1455  0.5195
  739MOL0     H97487  11.501   1.780   3.572 -0.7418  1.5173  1.5316
  739MOL0     H97488  11.582   1.933   3.533  0.4430  0.9709 -1.9894
  739MOL0     H97489  11.753   1.774   3.540  2.9414 -0.6811 -2.3085
  739MOL0     H97490  11.740   1.826   3.389 -0.3283  1.4535  1.9068
  739MOL0     H97491  11.628   1.555   3.506  2.6549 -3.5840 -0.3827
  739MOL0     H97492  11.597   1.610   3.338  0.3044 -0.3970 -0.6842
  739MOL0     H97493  11.860   1.559   3.467 -1.0205 -2.7453  1.9044
  739MOL0     H97494  11.825   1.609   3.290 -1.6876  5.6592  2.4671
  739MOL0     H97495  11.736   1.414   3.237 -0.7801  0.7979  0.1873
  739MOL0     H97496  11.718   1.348   3.404 -2.1891  1.1855 -1.3933
  739MOL0     H97497  11.977   1.321   3.394  0.0711 -0.7405 -0.3391
  739MOL0     H97498  11.894   1.251   3.249  3.0663 -1.0542 -0.4121
  739MOL0     H97499  12.107   1.360   3.198  2.0481  1.0019  4.2925
  739MOL0     H97500  12.061   1.508   3.270 -1.2365  1.9835  1.0423
  739MOL0     H97501  11.880   1.298   2.997  1.0779  0.2028  0.2407
  739MOL0     H97502  11.804   1.375   2.738  1.2525  1.3467 -3.8734
  739MOL0     H97503  11.799   1.545   2.699  1.8850 -1.4152 -0.7984
  739MOL0     H97504  11.597   1.572   2.838  0.0344 -0.7721  1.4442
  739MOL0     H97505  11.587   1.394   2.851 -0.9216 -1.3792 -3.3070
  739MOL0     H97506  11.457   1.519   2.668  1.5417  2.1865  0.3510
  739MOL0     H97507  11.606   1.519   2.578 -1.0403  1.6845  0.9195
  739MOL0     H97508  11.475   1.286   2.696 -0.6649 -2.5315 -1.6210
  739MOL0     H97509  11.613   1.269   2.582  0.2789  0.4617  0.2524
  739MOL0     H97510  11.455   1.085   2.567  2.6924 -1.7972 -0.1343
  739MOL0     H97511  11.371   0.882   2.426  2.2161  1.0736  2.8893
  739MOL0     H97512  11.080   0.670   2.147 -2.2009 -3.1034 -1.7941
  739MOL0     H97513  11.023   0.446   2.090 -0.5323  0.2310  2.3282
  739MOL0     H97514  11.337   0.173   1.969  0.1554  0.5717 -4.2079
  739MOL0     H97515  11.197   0.232   1.886  0.1540  1.5752  0.9759
  739MOL0     H97516  11.179  -0.018   2.070 -3.1538 -3.4886 -0.6114
  739MOL0     H97517  11.240  -0.021   1.903 -3.9070 -0.0839 -3.1659
  739MOL0     H97518  11.034   0.065   1.817 -0.9630  1.5836  0.9626
  739MOL0     H97519  10.970   0.075   1.985 -0.3198 -0.4501  0.1176
  739MOL0     H97520  11.053  -0.157   1.825 -0.0753  1.8228 -0.5101
  739MOL0     H97521  11.037  -0.165   2.009 -1.8759  2.3934  1.8057
  739MOL0     H97522  10.808  -0.087   1.820 -5.0305 -0.7883  0.0807
  739MOL0     H97523  10.803  -0.078   1.996 -2.7444 -0.3970 -1.7725
  739MOL0     H97524  10.852  -0.326   1.989  0.0440  2.4420  0.1309
  739MOL0     H97525  10.833  -0.328   1.814  2.7391  0.9765 -1.0286
  739MOL0     H97526  10.611  -0.198   1.834 -0.6502 -0.8744  0.1018
  739MOL0     H97527  10.591  -0.363   1.871  1.1412 -0.6937 -1.0339
  739MOL0     H97528  10.597  -0.138   2.064 -1.4800  0.6942  0.9716
  739MOL0     H97529  10.644  -0.307   2.116 -2.1228 -1.2298  0.8529
  739MOL0     H97530  11.435   0.324   2.160  0.7015  0.1148 -2.1647
  739MOL0     H97531  11.491   0.576   2.213  0.3363  0.8591 -1.0690
  739MOL0     H97532  11.295   1.150   2.108  3.0599 -5.6316 -1.9486
  739MOL0     H97533  11.371   1.342   2.249  2.5313  0.5692 -0.0276
  739MOL0     H97534  11.214   2.002   3.240 -1.1905  1.4760 -3.3066
  739MOL0     H97535  11.143   2.252   3.200 -0.0858 -1.8709  0.7211
  739MOL0     H97536  11.187   2.665   3.345 -1.3847  2.4373  1.5606
  739MOL0     H97537  11.092   2.880   3.335 -0.5512  1.3683 -0.4649
  739MOL0     H97538  11.214   3.139   3.266  0.2184  1.7539  1.0473
  739MOL0     H97539  11.078   3.088   3.361 -0.4802  1.2235 -0.0731
  739MOL0     H97540  11.117   3.311   3.343  2.8227 -2.3673  0.1533
  739MOL0     H97541  11.130   3.329   3.172 -2.0783  3.0537 -0.1457
  739MOL0     H97542  10.875   3.292   3.336 -0.5876  2.2782 -0.8602
  739MOL0     H97543  10.883   3.257   3.154  2.3769 -0.7897 -0.8199
  739MOL0     H97544  10.900   3.506   3.316  1.8812 -0.4861 -0.3884
  739MOL0     H97545  10.960   3.480   3.139 -0.0445  0.1919 -0.2283
  739MOL0     H97546  10.529   3.523   3.165 -2.0070 -2.9031  0.8168
  739MOL0     H97547  11.153   2.926   2.926 -1.5318  1.1833  0.2686
  739MOL0     H97548  11.247   2.702   2.916  1.7300  0.2013  0.3411
  740MOL0     O97549   1.202   8.264   6.773  0.5302  0.0261 -0.1577
  740MOL0     C97550   1.305   8.288   6.708  0.2240  0.5219 -0.4282
  740MOL0     O97551   1.313   8.261   6.575  0.1584 -0.4813 -0.2007
  740MOL0     C97552   1.224   8.181   6.519  0.6456  0.0685  0.2655
  740MOL0     C97553   1.086   8.232   6.503 -0.1787  0.1331  0.0027
  740MOL0     C97554   0.985   8.162   6.419 -0.0182 -0.4556  0.7154
  740MOL0     C97555   1.020   8.030   6.379  0.4615  0.9863 -0.6476
  740MOL0     O97556   0.937   7.941   6.312  0.2375 -1.0032  0.4680
  740MOL0     C97557   0.806   7.995   6.275 -0.2269  0.5003 -0.9951
  740MOL0     C97558   0.715   7.886   6.224 -0.5249  0.4983  0.8128
  740MOL0     C97559   0.679   7.780   6.339 -0.0506  0.3847 -0.0510
  740MOL0     C97560   0.552   7.711   6.338  0.2848  0.0043 -1.2382
  740MOL0     C97561   0.523   7.616   6.454 -0.1017  0.4921  0.2307
  740MOL0     C97562   0.630   7.503   6.469 -0.3484  0.0609 -0.4272
  740MOL0     C97563   0.593   7.402   6.583  0.0889 -0.7194 -0.4497
  740MOL0     C97564   0.480   7.309   6.554 -0.7549 -0.3492  0.4626
  740MOL0     N97565   0.447   7.225   6.664 -0.5356  0.8118 -0.6187
  740MOL0     C97566   0.395   7.275   6.778  0.6792  0.0811 -0.4297
  740MOL0     C97567   0.397   7.174   6.871  0.3893 -0.4689 -0.5388
  740MOL0     C97568   0.351   7.165   7.020 -0.5715 -0.6726 -0.5368
  740MOL0     C97569   0.241   7.053   7.030  0.2083 -0.7805 -0.7176
  740MOL0     C97570   0.154   7.065   7.162  0.6557 -0.0500  0.6286
  740MOL0     C97571   0.052   7.178   7.156 -0.2383 -0.7701 -0.7571
  740MOL0     O97572  -0.034   7.174   7.042 -0.0571  0.5431  0.9362
  740MOL0     C97573  -0.112   7.279   7.008  0.0199 -0.4266  0.0788
  740MOL0     C97574  -0.166   7.272   6.878 -0.5047 -0.7191 -0.8739
  740MOL0     C97575  -0.247   7.384   6.835  0.3760 -0.5341 -0.2844
  740MOL0     C97576  -0.271   7.504   6.916  0.2547  0.2341 -0.6841
  740MOL0     C97577  -0.356   7.608   6.857 -0.7619  0.1477  0.9044
  740MOL0     O97578  -0.342   7.625   6.720  0.7947  0.4886 -0.1544
  740MOL0     C97579  -0.402   7.729   6.640  1.7266 -0.1766  0.0083
  740MOL0     C97580  -0.429   7.688   6.513  0.5465  0.0032 -0.3152
  740MOL0     C97581  -0.490   7.770   6.420 -0.5111  0.5223 -0.8201
  740MOL0     C97582  -0.535   7.898   6.449 -0.7004  0.4093  0.0032
  740MOL0     O97583  -0.590   7.980   6.353 -0.1964  0.0672 -0.7413
  740MOL0     C97584  -0.604   7.935   6.213  1.0650 -0.0402 -0.0601
  740MOL0     C97585  -0.728   7.854   6.192  0.5199 -0.8661  0.3460
  740MOL0     C97586  -0.739   7.804   6.046  0.4353 -0.1832 -0.9340
  740MOL0     C97587  -0.808   7.902   5.944  0.6854  0.0956 -0.1532
  740MOL0     C97588  -0.788   7.864   5.805  0.2065  0.1878  0.1470
  740MOL0     C97589  -0.844   7.957   5.697 -0.7464  0.8135  0.0527
  740MOL0     C97590  -1.001   7.977   5.705 -0.8083 -0.0488 -0.1213
  740MOL0     C97591  -1.053   8.039   5.576  0.3345  0.5048  0.1638
  740MOL0    Cl97592  -0.966   8.187   5.524  0.7106 -0.4843 -0.0003
  740MOL0     C97593  -0.518   7.944   6.578  0.1702  0.0758 -0.1305
  740MOL0     C97594  -0.448   7.858   6.675  0.5171 -0.1678  0.3846
  740MOL0     O97595  -0.394   7.698   6.932  0.5453 -0.2968  0.2676
  740MOL0     C97596  -0.212   7.503   7.039 -0.2374 -0.1597 -0.2885
  740MOL0     C97597  -0.139   7.391   7.085 -0.1559 -0.0742 -0.2325
  740MOL0     N97598   0.444   7.062   6.809 -0.1623  0.0546  0.8036
  740MOL0     N97599   0.479   7.094   6.685 -0.1818 -1.0607 -0.2046
  740MOL0     C97600   1.145   7.974   6.410 -0.3927  0.4666  0.3137
  740MOL0     C97601   1.244   8.050   6.471 -0.4613 -1.2741  0.5156
  740MOL0     C97602   1.425   8.326   6.784  0.0923 -0.5383  0.5202
  740MOL0     C97603   1.436   8.297   6.916 -0.4345 -0.0476 -0.3268
  740MOL0     C97604   1.554   8.331   6.990  1.3738 -0.4401 -0.6703
  740MOL0     C97605   1.653   8.407   6.920 -0.2361  1.1171  0.1757
  740MOL0     O97606   1.767   8.437   6.986 -0.5453 -0.6224  0.0372
  740MOL0     C97607   1.828   8.564   6.975 -0.0382  0.1341  0.2378
  740MOL0     C97608   1.752   8.668   7.054  0.5820  0.2329 -0.2141
  740MOL0     C97609   1.799   8.817   7.031  0.2211 -0.2022 -1.8180
  740MOL0     C97610   1.703   8.913   7.105  0.1246 -0.2162 -0.3635
  740MOL0     C97611   1.710   8.927   7.250 -0.9198  0.5324  0.0443
  740MOL0     C97612   1.729   8.963   7.368 -1.2084  0.6536 -0.1639
  740MOL0     C97613   1.643   8.428   6.778  0.2429  0.1530  0.0796
  740MOL0     C97614   1.534   8.382   6.707 -1.1381  0.8311  0.0454
  740MOL0     H97615   1.064   8.321   6.560  2.3531 -0.5884  2.3006
  740MOL0     H97616   0.882   8.193   6.413  0.1027 -0.2753 -0.6636
  740MOL0     H97617   0.817   8.070   6.196 -0.9311 -0.6680 -2.2326
  740MOL0     H97618   0.761   8.025   6.370 -1.5469 -1.1860 -1.0306
  740MOL0     H97619   0.770   7.834   6.145  2.3478 -0.0391  2.9752
  740MOL0     H97620   0.620   7.932   6.198 -0.9512  1.4860  3.7558
  740MOL0     H97621   0.676   7.830   6.437 -3.1589  0.2256  0.0506
  740MOL0     H97622   0.758   7.705   6.348 -1.4108 -0.8550  3.1120
  740MOL0     H97623   0.466   7.778   6.347 -0.8208 -1.5243  0.0184
  740MOL0     H97624   0.551   7.650   6.247  1.5375 -0.5878 -0.8705
  740MOL0     H97625   0.428   7.564   6.449  0.5841 -0.6658 -3.3208
  740MOL0     H97626   0.534   7.677   6.545  1.9704 -0.8703  0.9873
  740MOL0     H97627   0.727   7.545   6.494 -1.2701  0.1972  3.6942
  740MOL0     H97628   0.649   7.454   6.373  0.8622 -0.6567  0.1512
  740MOL0     H97629   0.675   7.341   6.622  0.6236 -0.1056 -0.5922
  740MOL0     H97630   0.556   7.465   6.664 -3.3892  1.2100 -3.2671
  740MOL0     H97631   0.523   7.256   6.469  0.1605  0.8824  0.1192
  740MOL0     H97632   0.399   7.363   6.505 -0.8316  0.8218  1.7815
  740MOL0     H97633   0.370   7.377   6.804  3.0809  0.1105  2.2086
  740MOL0     H97634   0.319   7.267   7.046 -0.3208 -1.4164  3.3073
  740MOL0     H97635   0.442   7.137   7.074  0.9194  0.3088 -2.3959
  740MOL0     H97636   0.283   6.953   7.039 -1.6465 -1.6966 -1.5403
  740MOL0     H97637   0.169   7.065   6.948 -3.7465 -2.7359  2.1142
  740MOL0     H97638   0.101   6.969   7.161 -2.7043  1.6517  0.0060
  740MOL0     H97639   0.214   7.082   7.252 -1.1498 -0.3625  1.9679
  740MOL0     H97640   0.100   7.273   7.132 -1.4013 -0.3933 -1.7396
  740MOL0     H97641   0.007   7.197   7.254  0.6276  4.7098 -1.1017
  740MOL0     H97642  -0.129   7.186   6.824 -2.8229 -2.0180 -0.5442
  740MOL0     H97643  -0.274   7.387   6.730 -0.7093  3.5507 -0.0399
  740MOL0     H97644  -0.403   7.595   6.466 -0.0010  1.4295 -3.7290
  740MOL0     H97645  -0.505   7.737   6.318  3.1891  2.0174 -2.0122
  740MOL0     H97646  -0.520   7.880   6.170  1.3705 -2.1207  2.8917
  740MOL0     H97647  -0.628   8.029   6.163 -0.9553 -0.6714 -0.3393
  740MOL0     H97648  -0.812   7.915   6.226 -0.5236 -2.0373 -0.0657
  740MOL0     H97649  -0.719   7.770   6.261  5.5944 -0.1410  0.9549
  740MOL0     H97650  -0.804   7.716   6.048  1.2433 -0.8693  3.0909
  740MOL0     H97651  -0.641   7.766   6.016  1.7155 -1.0718  3.6281
  740MOL0     H97652  -0.915   7.909   5.963  0.7146 -0.5751  0.3229
  740MOL0     H97653  -0.766   8.002   5.954  1.2607 -0.0808 -0.7287
  740MOL0     H97654  -0.840   7.771   5.784 -1.5174  1.5594 -2.2326
  740MOL0     H97655  -0.685   7.857   5.768 -0.3501 -1.3978 -1.2107
  740MOL0     H97656  -0.835   7.907   5.600 -0.6119 -1.8189  1.3290
  740MOL0     H97657  -0.790   8.051   5.696  1.7046 -0.4523 -3.0530
  740MOL0     H97658  -1.047   7.885   5.741  1.7742 -1.4207 -0.0539
  740MOL0     H97659  -1.018   8.049   5.785  2.5847 -1.6643  2.3069
  740MOL0     H97660  -1.160   8.061   5.574 -0.7360 -3.6883  0.5430
  740MOL0     H97661  -1.032   7.974   5.491 -1.6677  1.8122 -1.4282
  740MOL0     H97662  -0.558   8.037   6.617  1.1527  0.7129 -0.5993
  740MOL0     H97663  -0.443   7.887   6.780 -2.2481 -0.2277  0.6124
  740MOL0     H97664  -0.219   7.592   7.101 -0.9573 -1.8329  2.1654
  740MOL0     H97665  -0.109   7.381   7.189  1.6330 -0.2101 -0.7205
  740MOL0     H97666   1.165   7.871   6.381  3.3787  0.3824  2.6034
  740MOL0     H97667   1.339   8.007   6.501 -1.3731 -1.7539  2.9461
  740MOL0     H97668   1.353   8.243   6.960  1.9281 -2.6049  1.3705
  740MOL0     H97669   1.563   8.303   7.095  0.6076 -0.0655 -0.5005
  740MOL0     H97670   1.822   8.593   6.869 -1.9049 -1.5426 -0.1743
  740MOL0     H97671   1.931   8.567   7.012 -0.2637  1.9677  0.8428
  740MOL0     H97672   1.647   8.651   7.030  0.5693 -2.4428  1.3486
  740MOL0     H97673   1.778   8.643   7.157 -0.2721 -2.0346 -0.4931
  740MOL0     H97674   1.802   8.843   6.925 -2.1931  2.7102 -1.3073
  740MOL0     H97675   1.899   8.837   7.070  0.1766 -1.8060 -0.8124
  740MOL0     H97676   1.729   9.008   7.058 -0.2364  0.6323  1.0897
  740MOL0     H97677   1.599   8.882   7.092 -0.1565  1.4897 -2.9212
  740MOL0     H97678   1.752   8.994   7.468 -1.6284  3.9230 -0.9902
  740MOL0     H97679   1.725   8.475   6.725  0.6320 -0.6700 -0.0686
  740MOL0     H97680   1.535   8.399   6.600 -4.1463  3.4341  0.2954
  741MOL0     O97681   3.774   2.918  11.000  0.0165 -0.2018  0.3641
  741MOL0     C97682   3.826   2.870  10.902  0.0566 -0.0095 -0.0238
  741MOL0     O97683   3.767   2.818  10.791  0.8850  0.6339 -0.1263
  741MOL0     C97684   3.630   2.844  10.789 -0.4718  0.5416  0.1660
  741MOL0     C97685   3.587   2.961  10.735  0.1674 -0.2596 -1.0691
  741MOL0     C97686   3.444   2.977  10.709 -0.6676  0.1285 -0.0274
  741MOL0     C97687   3.352   2.880  10.748  0.5107  0.2380 -0.5910
  741MOL0     O97688   3.226   2.898  10.721  0.6621  0.5133 -0.4127
  741MOL0     C97689   3.127   2.834  10.811  0.5789  0.1430  0.2931
  741MOL0     C97690   2.983   2.881  10.767 -0.4038 -0.5706 -0.1008
  741MOL0     C97691   2.967   3.028  10.777 -0.3854 -0.1391 -0.3275
  741MOL0     C97692   2.824   3.068  10.735 -0.9291  0.6242 -0.2242
  741MOL0     C97693   2.806   3.221  10.714 -0.2482 -0.3021  0.3048
  741MOL0     C97694   2.685   3.266  10.788  0.0768 -0.6630 -0.9330
  741MOL0     C97695   2.683   3.419  10.779  0.4272  0.5654 -0.2124
  741MOL0     C97696   2.580   3.486  10.880  1.0208  0.4346 -0.2493
  741MOL0     N97697   2.628   3.458  11.020  0.3280  1.1995  0.7072
  741MOL0     C97698   2.720   3.523  11.097  0.3852 -0.8777 -0.1428
  741MOL0     C97699   2.721   3.467  11.218 -0.5799 -0.6579  0.2439
  741MOL0     C97700   2.832   3.503  11.315 -0.2136 -0.3273 -0.8756
  741MOL0     C97701   2.954   3.399  11.302  1.3031  0.1323 -0.2291
  741MOL0     C97702   3.073   3.430  11.387 -0.2137 -0.1937 -0.3855
  741MOL0     C97703   3.044   3.466  11.531 -0.1198  0.1757  0.1782
  741MOL0     O97704   2.986   3.589  11.554  0.3952  0.2100 -0.7364
  741MOL0     C97705   2.942   3.620  11.680  0.0103  0.4810 -0.3573
  741MOL0     C97706   2.824   3.683  11.689 -0.7487 -0.0134  0.6073
  741MOL0     C97707   2.785   3.727  11.810  0.6744 -0.1193 -1.1437
  741MOL0     C97708   2.841   3.675  11.929 -0.1714 -0.0986 -0.5330
  741MOL0     C97709   2.795   3.724  12.067  0.2734  0.1367 -0.0672
  741MOL0     O97710   2.863   3.681  12.179 -1.0804  0.2899 -0.0426
  741MOL0     C97711   2.814   3.702  12.304  0.7164  0.6393  0.2351
  741MOL0     C97712   2.783   3.587  12.384  0.9299  0.4824 -0.2259
  741MOL0     C97713   2.718   3.610  12.502  0.1096 -0.2737  0.1268
  741MOL0     C97714   2.698   3.748  12.548  0.1833  0.6153  0.2102
  741MOL0     O97715   2.640   3.775  12.663 -0.1999  0.4229 -0.0123
  741MOL0     C97716   2.739   3.754  12.768  0.3429  0.5133 -0.0326
  741MOL0     C97717   2.680   3.838  12.883 -0.6214 -0.2092 -0.0392
  741MOL0     C97718   2.691   3.994  12.846 -0.2479  0.0467 -0.3318
  741MOL0     C97719   2.619   4.074  12.956 -0.1702  0.1601  0.8077
  741MOL0     C97720   2.673   4.037  13.087  0.2120  0.0640 -0.2418
  741MOL0     C97721   2.822   4.056  13.118  0.6470 -0.3301  0.2239
  741MOL0     C97722   2.854   4.014  13.261 -0.2348 -0.0606  0.3126
  741MOL0     C97723   2.996   4.064  13.310  0.1921 -0.8101  0.1237
  741MOL0    Cl97724   3.132   4.001  13.206 -0.2141  0.3655 -0.0415
  741MOL0     C97725   2.726   3.852  12.466  0.1351 -0.8109 -0.4656
  741MOL0     C97726   2.780   3.827  12.340 -0.1572 -0.2043  0.6716
  741MOL0     O97727   2.692   3.790  12.066 -0.2134 -0.4226 -0.2165
  741MOL0     C97728   2.948   3.595  11.922 -0.9979  0.0431  0.0394
  741MOL0     C97729   3.000   3.566  11.798 -0.1330 -0.5910 -1.5963
  741MOL0     N97730   2.639   3.357  11.209  0.1364 -0.0472  0.1964
  741MOL0     N97731   2.575   3.355  11.099 -0.1965  0.0658  0.1974
  741MOL0     C97732   3.395   2.761  10.810 -0.5804 -0.0645  0.4448
  741MOL0     C97733   3.541   2.740  10.833  0.8575 -0.5249 -0.2159
  741MOL0     C97734   3.966   2.855  10.905  0.2706 -0.1541  1.0590
  741MOL0     C97735   4.036   2.914  11.005 -0.5724 -0.2952 -0.6296
  741MOL0     C97736   4.172   2.881  11.023 -0.6607  1.2975 -0.7242
  741MOL0     C97737   4.237   2.788  10.927  0.1292 -0.4861 -0.1409
  741MOL0     O97738   4.372   2.769  10.916  1.5343 -0.6982 -0.3203
  741MOL0     C97739   4.443   2.781  11.041  1.0779 -0.3231 -0.5938
  741MOL0     C97740   4.578   2.721  11.014  0.2104  0.0885  0.6254
  741MOL0     C97741   4.562   2.571  11.012 -0.4968 -2.1092  0.0891
  741MOL0     C97742   4.693   2.507  11.031 -0.9456  0.9478  0.5736
  741MOL0     C97743   4.686   2.360  11.034 -0.4090 -0.3369 -0.1300
  741MOL0     C97744   4.693   2.240  11.019 -0.1493 -0.0867 -0.1276
  741MOL0     C97745   4.166   2.732  10.831  0.4574 -0.1359  0.9450
  741MOL0     C97746   4.030   2.770  10.811  0.2328 -0.3422  0.1016
  741MOL0     H97747   3.664   3.035  10.716  0.6527 -0.3286  0.5008
  741MOL0     H97748   3.405   3.066  10.660  0.2518  0.5033 -0.1155
  741MOL0     H97749   3.143   2.874  10.911  1.7790  1.3725 -0.3656
  741MOL0     H97750   3.132   2.724  10.812  0.7601  0.0596 -2.3226
  741MOL0     H97751   2.910   2.834  10.834 -2.1911  0.7494 -1.0319
  741MOL0     H97752   2.954   2.847  10.667 -1.2430  1.0947 -0.4514
  741MOL0     H97753   3.035   3.080  10.708 -2.3452  1.5702 -1.0862
  741MOL0     H97754   2.990   3.059  10.879  0.4081  0.9365 -0.8119
  741MOL0     H97755   2.817   3.030  10.633 -0.1216 -1.4089  0.4264
  741MOL0     H97756   2.751   3.022  10.803 -1.7891  2.1931 -0.0416
  741MOL0     H97757   2.791   3.245  10.608  0.4420 -1.4371 -0.0725
  741MOL0     H97758   2.892   3.272  10.758 -2.2639  2.9272  0.8395
  741MOL0     H97759   2.682   3.221  10.888  1.8788  0.9447 -0.1034
  741MOL0     H97760   2.609   3.229  10.719 -1.7044  1.4065 -0.2273
  741MOL0     H97761   2.783   3.450  10.811  1.3717 -1.4765 -1.0276
  741MOL0     H97762   2.677   3.447  10.673  1.8863  2.1300  0.0692
  741MOL0     H97763   2.477   3.451  10.873 -0.2508  3.9137 -0.8236
  741MOL0     H97764   2.589   3.593  10.860  2.8112  0.1399 -1.2335
  741MOL0     H97765   2.784   3.606  11.070  2.3825 -2.4260 -0.4142
  741MOL0     H97766   2.803   3.504  11.421  1.0428 -0.5987 -0.5192
  741MOL0     H97767   2.858   3.606  11.289 -1.3709  0.4467  0.8340
  741MOL0     H97768   3.001   3.382  11.204  2.5084 -3.3357  0.8025
  741MOL0     H97769   2.914   3.299  11.319 -0.3748  0.8433  0.2245
  741MOL0     H97770   3.143   3.346  11.395  0.9027  0.8738  2.4090
  741MOL0     H97771   3.136   3.508  11.342  5.1653 -5.1560 -2.7567
  741MOL0     H97772   3.142   3.474  11.580  1.0887 -3.3138 -1.3436
  741MOL0     H97773   2.988   3.386  11.579  1.3178  0.8370  3.1908
  741MOL0     H97774   2.791   3.724  11.593  2.9487  2.1181  0.0584
  741MOL0     H97775   2.703   3.797  11.819 -0.5718 -1.6695  0.2897
  741MOL0     H97776   2.802   3.486  12.349  0.9159  0.6236 -0.6455
  741MOL0     H97777   2.685   3.534  12.572 -0.0779  0.2188  0.5778
  741MOL0     H97778   2.839   3.775  12.730  0.5809 -1.4880 -0.6281
  741MOL0     H97779   2.744   3.651  12.806  3.6455  1.5022  2.7432
  741MOL0     H97780   2.751   3.808  12.960  0.0013 -2.4617 -1.3888
  741MOL0     H97781   2.577   3.812  12.906 -0.9566  0.4748 -0.7187
  741MOL0     H97782   2.638   4.021  12.754  1.5603 -1.2459 -1.8300
  741MOL0     H97783   2.797   4.021  12.840 -0.5271  1.2107 -0.2413
  741MOL0     H97784   2.632   4.181  12.938  2.1184 -0.3077 -0.6727
  741MOL0     H97785   2.513   4.047  12.953 -0.0813 -0.0597 -1.2492
  741MOL0     H97786   2.651   3.934  13.117  3.6374 -0.2966  1.5035
  741MOL0     H97787   2.619   4.095  13.162 -0.7281 -2.5062  1.1799
  741MOL0     H97788   2.841   4.161  13.096 -0.7500  0.1447  1.0990
  741MOL0     H97789   2.888   3.996  13.055  4.5492  2.4307  1.3086
  741MOL0     H97790   2.778   4.051  13.330 -3.0051 -0.7528 -2.1712
  741MOL0     H97791   2.863   3.906  13.269  1.6441  0.0074 -0.2838
  741MOL0     H97792   3.018   4.039  13.414 -0.2566  2.3939  1.1042
  741MOL0     H97793   2.989   4.173  13.316 -1.6393 -0.8696 -0.3474
  741MOL0     H97794   2.693   3.947  12.506 -5.1262 -2.0616 -1.0643
  741MOL0     H97795   2.795   3.909  12.270 -2.2110  0.4674  0.9518
  741MOL0     H97796   2.993   3.555  12.012 -2.1269 -0.0607  0.5682
  741MOL0     H97797   3.074   3.488  11.783 -0.8580 -0.9246 -3.7017
  741MOL0     H97798   3.325   2.685  10.841 -2.0821  1.7587  1.8047
  741MOL0     H97799   3.596   2.651  10.862  1.5732  0.1914  0.6950
  741MOL0     H97800   3.986   2.979  11.076  2.5675  3.1095 -1.1641
  741MOL0     H97801   4.237   2.922  11.100  0.4677 -0.9070 -0.4257
  741MOL0     H97802   4.409   2.727  11.129 -2.4154  0.1763 -1.4748
  741MOL0     H97803   4.452   2.888  11.065 -1.8774 -0.2469  0.5301
  741MOL0     H97804   4.607   2.762  10.917  0.2753 -0.3760  0.4483
  741MOL0     H97805   4.651   2.753  11.089  4.0186  0.2537 -2.7966
  741MOL0     H97806   4.514   2.539  10.919  0.5922 -1.4831 -0.7108
  741MOL0     H97807   4.493   2.545  11.093  1.0802 -0.3091  2.1116
  741MOL0     H97808   4.761   2.544  10.954 -0.3437  0.3091  0.7884
  741MOL0     H97809   4.744   2.541  11.122 -1.6636 -2.6842  2.5355
  741MOL0     H97810   4.709   2.134  11.020  0.9021 -0.1125 -3.7311
  741MOL0     H97811   4.207   2.666  10.755 -0.9248  1.6274 -1.4639
  741MOL0     H97812   3.981   2.726  10.725 -2.1132  2.8236 -0.3608
  742MOL0     O97813   6.116   0.309   5.517  0.0538  0.4637  0.7386
  742MOL0     C97814   6.220   0.260   5.475 -0.6514 -0.9144 -0.2723
  742MOL0     O97815   6.348   0.292   5.502  0.4620 -0.9050 -0.0943
  742MOL0     C97816   6.373   0.414   5.572 -0.4712 -0.3232  0.5120
  742MOL0     C97817   6.307   0.532   5.553  0.6527  0.5946  0.3078
  742MOL0     C97818   6.344   0.648   5.622 -0.3115 -0.2562  0.7058
  742MOL0     C97819   6.454   0.652   5.706 -0.0222  0.8457  0.0079
  742MOL0     O97820   6.501   0.766   5.767 -0.4019 -0.5287 -1.2959
  742MOL0     C97821   6.407   0.875   5.784 -0.8170 -0.2505 -0.2763
  742MOL0     C97822   6.461   0.983   5.874  0.0586 -0.0496  0.2161
  742MOL0     C97823   6.598   1.029   5.823  0.3265 -0.0162  0.3534
  742MOL0     C97824   6.642   1.144   5.908  0.1995 -0.4056  0.8841
  742MOL0     C97825   6.757   1.211   5.844 -0.8604  0.6641  0.9143
  742MOL0     C97826   6.815   1.336   5.902  1.0649 -0.3148 -0.9680
  742MOL0     C97827   6.949   1.374   5.854 -1.3464 -0.1739 -0.4249
  742MOL0     C97828   7.059   1.273   5.911  0.0857 -0.0818  0.5248
  742MOL0     N97829   7.115   1.328   6.034  0.0260 -0.6307 -0.7894
  742MOL0     C97830   7.205   1.433   6.053 -0.3265  0.3303 -0.1834
  742MOL0     C97831   7.227   1.436   6.188 -0.7430  0.5995 -1.2961
  742MOL0     C97832   7.337   1.518   6.257  0.0205 -0.4458  0.1902
  742MOL0     C97833   7.303   1.664   6.237  1.1222  0.0786 -0.6708
  742MOL0     C97834   7.386   1.723   6.119  0.3991  0.8792  0.1686
  742MOL0     C97835   7.530   1.760   6.159 -0.0424  0.9384  0.1820
  742MOL0     O97836   7.545   1.879   6.236 -0.4299  0.3748  0.0641
  742MOL0     C97837   7.530   2.010   6.189 -0.5123 -0.2756 -0.2820
  742MOL0     C97838   7.483   2.044   6.060 -0.5463  0.6483 -0.0807
  742MOL0     C97839   7.472   2.177   6.007  0.1378 -0.1415  0.4675
  742MOL0     C97840   7.512   2.279   6.089 -0.4390  0.4470 -0.2033
  742MOL0     C97841   7.499   2.414   6.043 -0.0748 -0.6125  0.8542
  742MOL0     O97842   7.552   2.513   6.123 -0.1200  0.3765  0.0999
  742MOL0     C97843   7.533   2.644   6.093  0.4741  1.7090 -0.4106
  742MOL0     C97844   7.424   2.701   6.021 -0.8388  0.0442  0.3373
  742MOL0     C97845   7.409   2.834   6.000  0.8278 -0.3429 -0.2688
  742MOL0     C97846   7.488   2.922   6.060  0.0100  0.1637  0.8869
  742MOL0     O97847   7.456   3.048   6.035  0.8107  0.5838 -0.2839
  742MOL0     C97848   7.525   3.155   6.107  0.5141  0.5105 -0.2602
  742MOL0     C97849   7.439   3.280   6.099 -0.4942  0.2199 -0.9416
  742MOL0     C97850   7.517   3.399   6.163 -0.6514  0.5666  0.2979
  742MOL0     C97851   7.423   3.521   6.155  0.6121  0.0659 -0.5652
  742MOL0     C97852   7.501   3.652   6.199  0.0624 -0.0159  0.6562
  742MOL0     C97853   7.411   3.766   6.147 -0.3427 -1.2061 -0.3499
  742MOL0     C97854   7.478   3.904   6.152  0.0631 -0.5012 -0.0352
  742MOL0     C97855   7.615   3.917   6.227  0.7019 -0.4202 -0.5422
  742MOL0    Cl97856   7.595   3.902   6.416  0.2131 -0.1479  0.2339
  742MOL0     C97857   7.602   2.871   6.125 -1.1370  0.2612 -0.1105
  742MOL0     C97858   7.629   2.736   6.147  0.0587 -0.2231  0.4295
  742MOL0     O97859   7.453   2.431   5.925 -0.2806  0.6933 -0.0649
  742MOL0     C97860   7.554   2.253   6.225 -0.0007 -0.1301 -0.3792
  742MOL0     C97861   7.557   2.122   6.274  0.5506 -0.2757 -0.2177
  742MOL0     N97862   7.174   1.321   6.245 -0.3493 -0.4312  0.6556
  742MOL0     N97863   7.098   1.263   6.156 -0.8002 -0.3906  0.3723
  742MOL0     C97864   6.532   0.534   5.720 -0.8280  0.9139  0.2952
  742MOL0     C97865   6.494   0.420   5.652  0.5468  1.5161  0.0754
  742MOL0     C97866   6.215   0.153   5.385  0.7690  0.0993 -0.2601
  742MOL0     C97867   6.306   0.041   5.390  0.2696 -1.2158  0.4482
  742MOL0     C97868   6.302  -0.060   5.295 -0.6018  0.4455 -0.2422
  742MOL0     C97869   6.201  -0.060   5.195 -0.7810  0.3657  0.3683
  742MOL0     O97870   6.201  -0.155   5.099 -0.3270  0.4289 -1.0866
  742MOL0     C97871   6.154  -0.282   5.140  0.4976 -0.2237  0.2538
  742MOL0     C97872   6.001  -0.288   5.135  0.1626  0.1891  0.0611
  742MOL0     C97873   5.925  -0.380   5.244  0.3963 -0.6978  1.3189
  742MOL0     C97874   5.990  -0.519   5.264 -0.3351  0.5797  0.2806
  742MOL0     C97875   5.983  -0.595   5.136 -1.1655  0.5685 -0.4348
  742MOL0     C97876   5.975  -0.653   5.028 -0.1457  0.2700  0.2766
  742MOL0     C97877   6.112   0.043   5.181  0.1048  0.3123 -0.8629
  742MOL0     C97878   6.119   0.146   5.277 -0.1887 -0.1945  1.0640
  742MOL0     H97879   6.234   0.541   5.473  0.9121  2.2270  0.2262
  742MOL0     H97880   6.301   0.743   5.592 -3.1495 -1.9011 -0.9004
  742MOL0     H97881   6.315   0.828   5.822 -1.7735  0.3721 -1.7514
  742MOL0     H97882   6.376   0.912   5.686 -0.8617 -4.4621 -2.0570
  742MOL0     H97883   6.475   0.932   5.969 -2.0838 -0.6456  0.2488
  742MOL0     H97884   6.388   1.058   5.907 -0.7517 -0.3124 -0.8958
  742MOL0     H97885   6.585   1.044   5.715 -2.1585 -2.5517  0.1698
  742MOL0     H97886   6.680   0.957   5.819 -0.7358 -1.2800  0.1630
  742MOL0     H97887   6.558   1.214   5.921  0.1635 -0.2132 -0.2786
  742MOL0     H97888   6.659   1.089   6.001  1.8789 -4.0162 -1.3217
  742MOL0     H97889   6.749   1.235   5.737  0.5552  0.8857  0.8335
  742MOL0     H97890   6.844   1.144   5.842  0.5269  2.3229  2.2925
  742MOL0     H97891   6.823   1.339   6.011  2.0099 -0.9683 -1.0045
  742MOL0     H97892   6.748   1.418   5.876  1.0915 -0.0356 -0.1930
  742MOL0     H97893   6.939   1.371   5.745 -2.5370  0.9884 -0.3643
  742MOL0     H97894   6.981   1.477   5.873  1.5904 -0.8221 -1.2409
  742MOL0     H97895   7.146   1.257   5.847  1.3231  2.3503  1.4780
  742MOL0     H97896   7.022   1.170   5.922 -2.4486  0.2314 -3.0937
  742MOL0     H97897   7.258   1.488   5.976  0.4130  0.1960  0.2180
  742MOL0     H97898   7.440   1.517   6.222  1.9485  4.0195  4.4234
  742MOL0     H97899   7.340   1.487   6.362 -0.2494  0.8968  0.6080
  742MOL0     H97900   7.332   1.717   6.328 -0.1390  1.5453 -1.0693
  742MOL0     H97901   7.195   1.679   6.226  0.6748 -1.9408  0.4465
  742MOL0     H97902   7.386   1.653   6.034  0.6286 -1.3968  1.9531
  742MOL0     H97903   7.337   1.813   6.080 -1.1222 -1.0551 -2.7872
  742MOL0     H97904   7.584   1.769   6.064  0.2279  0.5344  0.2990
  742MOL0     H97905   7.581   1.678   6.211  0.9122  2.2315  1.3784
  742MOL0     H97906   7.452   1.964   5.994 -3.5825  1.6175  0.0166
  742MOL0     H97907   7.460   2.192   5.900  0.3225 -0.5841  0.3821
  742MOL0     H97908   7.355   2.641   5.963 -0.5084  2.2680 -2.5431
  742MOL0     H97909   7.326   2.868   5.938  1.0716 -1.0258 -0.9822
  742MOL0     H97910   7.627   3.177   6.074  1.9960 -3.6500  0.8970
  742MOL0     H97911   7.532   3.124   6.212 -0.0093 -0.9738 -0.6454
  742MOL0     H97912   7.342   3.261   6.145  1.1296 -0.8582  2.3403
  742MOL0     H97913   7.433   3.297   5.991 -1.9713 -0.7070 -1.0397
  742MOL0     H97914   7.615   3.412   6.116 -1.1093 -0.4251 -0.9835
  742MOL0     H97915   7.546   3.375   6.265  1.6720  1.0901 -0.1780
  742MOL0     H97916   7.390   3.536   6.051 -0.2444  0.0847 -0.3027
  742MOL0     H97917   7.334   3.497   6.214  1.4269 -0.8288  0.3388
  742MOL0     H97918   7.602   3.650   6.156  0.0271  3.6893  0.1247
  742MOL0     H97919   7.512   3.659   6.307 -0.0330  4.6727  0.5640
  742MOL0     H97920   7.316   3.764   6.202 -0.2371 -0.2897 -0.1213
  742MOL0     H97921   7.377   3.752   6.044  0.1321 -2.7787 -0.3246
  742MOL0     H97922   7.491   3.933   6.047  0.4494  0.6864  0.3309
  742MOL0     H97923   7.406   3.981   6.179 -0.5235 -1.2407  0.5452
  742MOL0     H97924   7.654   4.018   6.209  1.5684 -0.6632 -0.0560
  742MOL0     H97925   7.693   3.852   6.186  2.2254 -1.1303  3.1567
  742MOL0     H97926   7.662   2.952   6.165 -2.4184  2.5273 -2.4569
  742MOL0     H97927   7.706   2.692   6.208 -2.0021 -2.4684  1.5767
  742MOL0     H97928   7.570   2.334   6.296  0.9781  0.2376 -0.9859
  742MOL0     H97929   7.566   2.101   6.380 -2.0791  1.1356  0.3644
  742MOL0     H97930   6.615   0.546   5.789  2.3177 -1.6879 -2.5821
  742MOL0     H97931   6.542   0.323   5.663 -0.1546  1.1994  0.4460
  742MOL0     H97932   6.377   0.044   5.472 -2.6170 -1.2512  3.1137
  742MOL0     H97933   6.379  -0.137   5.290 -0.1306  0.8864  0.1225
  742MOL0     H97934   6.194  -0.297   5.241  0.3921 -2.9266 -0.0457
  742MOL0     H97935   6.198  -0.350   5.067  1.1975  2.2680 -1.8042
  742MOL0     H97936   5.961  -0.187   5.143  1.2537  0.6565 -0.2272
  742MOL0     H97937   5.982  -0.318   5.032  2.4242 -3.2123  0.4778
  742MOL0     H97938   5.822  -0.390   5.210  1.6092 -2.9589 -2.2437
  742MOL0     H97939   5.925  -0.323   5.337  0.2754 -0.1465  0.9849
  742MOL0     H97940   6.096  -0.509   5.288 -0.0316  1.6418 -1.3306
  742MOL0     H97941   5.948  -0.571   5.351  1.5416  2.3374  2.3471
  742MOL0     H97942   5.970  -0.703   4.933 -4.0052  0.2339  0.3373
  742MOL0     H97943   6.043   0.039   5.097  1.5664 -0.1595 -2.0965
  742MOL0     H97944   6.055   0.233   5.273  1.1035  0.7330 -0.4043
  743MOL0     O97945   6.289   1.895   1.180  0.2546  0.2830  0.0801
  743MOL0     C97946   6.274   1.777   1.212 -0.1919  0.2865  0.3596
  743MOL0     O97947   6.154   1.713   1.226 -0.2388  0.5958 -0.5002
  743MOL0     C97948   6.049   1.762   1.165  0.2462 -0.5467 -0.2697
  743MOL0     C97949   5.974   1.667   1.087 -0.3526 -0.7426  0.6661
  743MOL0     C97950   5.860   1.711   1.010 -0.4417 -0.6058  0.6943
  743MOL0     C97951   5.819   1.847   1.019  0.4065  0.7562  0.8767
  743MOL0     O97952   5.711   1.896   0.947  0.1004  0.5719 -0.3002
  743MOL0     C97953   5.687   2.031   0.940 -0.1259 -1.0296  0.1206
  743MOL0     C97954   5.563   2.049   0.865  0.6213  0.3819  0.4779
  743MOL0     C97955   5.530   2.190   0.868  0.6010  0.3571  0.6724
  743MOL0     C97956   5.440   2.232   0.744 -1.5866  0.4440  0.0476
  743MOL0     C97957   5.361   2.355   0.753  0.8377  0.6573  0.0038
  743MOL0     C97958   5.234   2.337   0.835 -0.2429  0.2052 -0.3078
  743MOL0     C97959   5.155   2.473   0.859  0.3035 -1.1029 -0.7477
  743MOL0     C97960   5.011   2.475   0.796  0.0985  1.6358 -0.8364
  743MOL0     N97961   4.992   2.555   0.675 -0.4398  1.1916  0.2482
  743MOL0     C97962   4.899   2.522   0.587  0.6583 -0.3460  0.2365
  743MOL0     C97963   4.906   2.618   0.489  0.0606  0.1464  1.0477
  743MOL0     C97964   4.828   2.648   0.369  0.3755  0.0390 -0.0823
  743MOL0     C97965   4.690   2.594   0.400  0.2990 -0.3956  1.1340
  743MOL0     C97966   4.601   2.590   0.276 -0.2424 -0.0792  0.5368
  743MOL0     C97967   4.464   2.522   0.306  0.0317 -1.0277  0.6978
  743MOL0     O97968   4.458   2.393   0.367  0.2513 -1.0228 -0.4106
  743MOL0     C97969   4.484   2.296   0.273 -0.2213 -0.2152  0.1642
  743MOL0     C97970   4.462   2.175   0.332 -0.1465 -1.7753  0.0377
  743MOL0     C97971   4.468   2.061   0.259 -0.1472 -0.0873  0.1336
  743MOL0     C97972   4.473   2.070   0.114 -0.0339  0.2135  0.5523
  743MOL0     C97973   4.464   1.937   0.042  0.1834  0.3454 -0.2945
  743MOL0     O97974   4.416   1.825   0.108 -0.3244 -0.2694  0.6899
  743MOL0     C97975   4.407   1.700   0.054 -0.0543 -0.4408  0.3963
  743MOL0     C97976   4.345   1.685  -0.073 -0.0997  1.6483 -0.4538
  743MOL0     C97977   4.343   1.552  -0.127  0.2815 -0.5062 -0.2866
  743MOL0     C97978   4.393   1.435  -0.059 -0.6629  0.6338  0.4382
  743MOL0     O97979   4.395   1.308  -0.113  0.0743 -0.1373  0.6148
  743MOL0     C97980   4.292   1.261  -0.200 -0.0068  0.1358 -1.6466
  743MOL0     C97981   4.168   1.196  -0.141  1.0782  0.2548  0.8987
  743MOL0     C97982   4.222   1.067  -0.080  0.4501  0.4121 -0.5848
  743MOL0     C97983   4.106   1.010  -0.008 -0.7246 -0.4754 -0.6525
  743MOL0     C97984   4.152   0.885   0.062  0.1007  0.6331 -0.4438
  743MOL0     C97985   4.083   0.747   0.027 -0.5433 -0.8629  0.2655
  743MOL0     C97986   3.932   0.724   0.032 -0.5016 -0.1870 -0.4752
  743MOL0     C97987   3.859   0.739   0.167  0.5804 -0.3385  1.2273
  743MOL0    Cl97988   3.909   0.613   0.290 -0.2253  0.5151  0.4297
  743MOL0     C97989   4.458   1.458   0.067 -0.4624 -0.1529  0.1614
  743MOL0     C97990   4.456   1.585   0.121 -0.7698  0.1796 -0.0811
  743MOL0     O97991   4.497   1.939  -0.072  0.2693 -0.5156  0.0476
  743MOL0     C97992   4.498   2.191   0.051  1.5863 -0.0529  0.4514
  743MOL0     C97993   4.498   2.307   0.137  0.3242 -0.7050  0.4642
  743MOL0     N97994   5.005   2.715   0.525 -0.6622  0.0190 -0.5611
  743MOL0     N97995   5.054   2.674   0.635  0.8268  0.2863  0.2573
  743MOL0     C97996   5.892   1.926   1.107  0.0229 -0.3883  0.2726
  743MOL0     C97997   5.998   1.888   1.188  0.1054 -1.0123  0.8045
  743MOL0     C97998   6.396   1.693   1.230 -0.0586  0.2655 -0.3427
  743MOL0     C97999   6.523   1.750   1.227 -1.5186  0.1020 -0.4317
  743MOL0     C98000   6.644   1.671   1.241 -0.3772 -0.8250 -0.1297
  743MOL0     C98001   6.645   1.539   1.249 -0.5912 -0.6342  0.5973
  743MOL0     O98002   6.756   1.453   1.275 -0.5642 -0.1480 -0.3831
  743MOL0     C98003   6.871   1.483   1.196 -0.3888  0.3127  0.7582
  743MOL0     C98004   6.997   1.511   1.280  0.0979 -0.3580  0.3045
  743MOL0     C98005   7.031   1.404   1.382  0.2075 -0.7768 -0.3649
  743MOL0     C98006   7.124   1.438   1.496 -0.3939  0.7533 -0.7761
  743MOL0     C98007   7.270   1.424   1.465  0.0295 -0.3645  0.8830
  743MOL0     C98008   7.387   1.416   1.439 -0.0211 -0.2595  0.2764
  743MOL0     C98009   6.517   1.481   1.246  0.4462 -0.4167 -0.1400
  743MOL0     C98010   6.401   1.557   1.226  0.2433 -0.4306  0.0651
  743MOL0     H98011   6.014   1.567   1.087 -2.2355 -1.5737  2.5392
  743MOL0     H98012   5.805   1.637   0.952  0.2332  0.0609 -0.8635
  743MOL0     H98013   5.778   2.084   0.911 -1.1400  0.2430 -0.8386
  743MOL0     H98014   5.670   2.068   1.042 -1.6686 -2.5040  0.4374
  743MOL0     H98015   5.478   1.989   0.902 -0.8600  0.2801 -2.7275
  743MOL0     H98016   5.569   2.008   0.764 -0.9334  2.5865 -0.5944
  743MOL0     H98017   5.613   2.260   0.857  0.2162  1.0184  1.8546
  743MOL0     H98018   5.484   2.204   0.966 -1.2437 -1.6592  0.1721
  743MOL0     H98019   5.510   2.254   0.663 -3.2821  2.4511 -0.9669
  743MOL0     H98020   5.377   2.146   0.719  2.5081 -3.7753  2.5765
  743MOL0     H98021   5.325   2.386   0.655 -3.9114  0.5284  1.4642
  743MOL0     H98022   5.424   2.430   0.802 -0.7805  2.7036 -0.9139
  743MOL0     H98023   5.262   2.308   0.936 -3.6529  1.5949  1.1842
  743MOL0     H98024   5.177   2.264   0.776 -1.7151  2.2233 -1.4972
  743MOL0     H98025   5.151   2.499   0.965  2.7664  2.2668 -1.3218
  743MOL0     H98026   5.201   2.555   0.803 -1.4903 -0.6864 -1.6783
  743MOL0     H98027   4.951   2.522   0.874  1.1354  1.5969  0.0102
  743MOL0     H98028   4.980   2.372   0.775  4.4463  0.2214 -1.2681
  743MOL0     H98029   4.838   2.432   0.586 -1.8011  1.1419 -3.2270
  743MOL0     H98030   4.877   2.607   0.281  3.0180 -0.7739  1.6572
  743MOL0     H98031   4.817   2.757   0.358 -1.8087 -0.0372  0.9301
  743MOL0     H98032   4.647   2.660   0.476  1.1527  2.9744 -1.0465
  743MOL0     H98033   4.684   2.492   0.439  2.5622 -0.2761  1.9661
  743MOL0     H98034   4.588   2.690   0.234 -0.3796  0.1839  1.1874
  743MOL0     H98035   4.659   2.534   0.202  0.3906  2.0666 -0.6748
  743MOL0     H98036   4.406   2.523   0.213  0.9570 -1.0366  0.1097
  743MOL0     H98037   4.414   2.598   0.367  0.7422  2.9093 -3.1585
  743MOL0     H98038   4.448   2.167   0.439  2.8372  1.0004  0.7770
  743MOL0     H98039   4.467   1.965   0.310  1.9801  0.1668  0.7489
  743MOL0     H98040   4.296   1.768  -0.124 -1.2525 -0.3563 -2.8377
  743MOL0     H98041   4.298   1.545  -0.225 -4.2259 -0.3914  1.5381
  743MOL0     H98042   4.342   1.184  -0.261 -2.8008 -1.8791 -1.5925
  743MOL0     H98043   4.255   1.341  -0.265  0.9692 -0.2878 -2.7807
  743MOL0     H98044   4.104   1.166  -0.225  0.2289  1.1441  1.2133
  743MOL0     H98045   4.105   1.261  -0.080  0.8771  0.6382  0.2982
  743MOL0     H98046   4.306   1.082  -0.011  4.4641 -2.0462 -4.4235
  743MOL0     H98047   4.246   0.991  -0.154 -1.5546 -0.5392 -0.3062
  743MOL0     H98048   4.051   1.087   0.047 -3.1553 -1.3653 -1.6761
  743MOL0     H98049   4.033   0.974  -0.082 -2.0167  2.7134 -1.0675
  743MOL0     H98050   4.136   0.906   0.169 -0.3646 -0.8529 -0.1995
  743MOL0     H98051   4.260   0.871   0.058  0.8849  4.8327  0.5413
  743MOL0     H98052   4.113   0.671   0.100 -0.2390 -0.1311  0.9146
  743MOL0     H98053   4.123   0.727  -0.072  0.3902  3.3875 -0.4032
  743MOL0     H98054   3.889   0.791  -0.042  0.6429  1.8465  0.5995
  743MOL0     H98055   3.901   0.626  -0.005 -1.9247  0.1807 -0.3096
  743MOL0     H98056   3.755   0.724   0.136  0.3870  1.0570  1.1462
  743MOL0     H98057   3.875   0.840   0.206  0.8653 -0.9601  2.7794
  743MOL0     H98058   4.508   1.371   0.108 -0.5327 -2.1993 -3.6137
  743MOL0     H98059   4.487   1.608   0.223  2.4253 -0.8179 -0.7111
  743MOL0     H98060   4.520   2.209  -0.053  0.1501  0.4067  0.2053
  743MOL0     H98061   4.519   2.399   0.084 -1.0657 -0.9277 -0.5336
  743MOL0     H98062   5.847   2.024   1.120 -2.8631 -1.3748 -1.4366
  743MOL0     H98063   6.035   1.969   1.250  1.6436  1.5054 -3.0379
  743MOL0     H98064   6.551   1.855   1.218  1.4313 -0.3268  2.2000
  743MOL0     H98065   6.738   1.724   1.234 -0.5076 -0.6077 -0.2685
  743MOL0     H98066   6.856   1.566   1.125  3.9228  2.4667  1.9837
  743MOL0     H98067   6.889   1.402   1.125 -0.5229  0.9513 -0.0216
  743MOL0     H98068   7.084   1.528   1.216 -1.1477 -1.4966 -1.7899
  743MOL0     H98069   6.964   1.597   1.340 -0.3200 -0.6319  0.4684
  743MOL0     H98070   7.073   1.321   1.325 -1.0930 -0.7127 -1.4447
  743MOL0     H98071   6.941   1.366   1.430  0.4453 -1.1082 -0.1749
  743MOL0     H98072   7.105   1.541   1.528  0.7813  0.9989 -0.8331
  743MOL0     H98073   7.105   1.368   1.579  0.0334  2.0980  0.5077
  743MOL0     H98074   7.492   1.403   1.423 -0.2741 -2.8251  0.2295
  743MOL0     H98075   6.519   1.374   1.262  1.2895 -0.1828  1.6404
  743MOL0     H98076   6.305   1.507   1.214 -1.7438  2.4756  2.2419
  744MOL0     O98077   9.478   9.285   3.532  0.0377 -0.0346 -0.4350
  744MOL0     C98078   9.444   9.404   3.539  0.8790  0.3463  0.2241
  744MOL0     O98079   9.333   9.452   3.604 -0.2014 -0.3526 -0.2854
  744MOL0     C98080   9.221   9.379   3.621  0.5998  0.8514 -0.8301
  744MOL0     C98081   9.214   9.238   3.654  0.4020  0.1549  0.9936
  744MOL0     C98082   9.084   9.176   3.625 -0.1317 -0.6154 -0.3911
  744MOL0     C98083   8.967   9.245   3.600  0.1500  1.0145  0.4480
  744MOL0     O98084   8.851   9.166   3.583  0.1873 -1.1149 -0.0144
  744MOL0     C98085   8.729   9.214   3.634 -0.4943 -0.9248  0.3061
  744MOL0     C98086   8.644   9.094   3.681  1.4475 -0.1683 -0.8256
  744MOL0     C98087   8.510   9.160   3.710 -0.2163  0.3898 -0.6268
  744MOL0     C98088   8.419   9.063   3.781  0.4918  1.1274 -0.4425
  744MOL0     C98089   8.325   9.119   3.894  1.0454  0.2288  0.3872
  744MOL0     C98090   8.214   9.204   3.829  0.3287 -0.3121  0.5584
  744MOL0     C98091   8.092   9.233   3.913  0.1112 -0.2098 -0.1338
  744MOL0     C98092   8.131   9.268   4.063  0.0867  0.1486  0.3306
  744MOL0     N98093   8.014   9.308   4.133 -1.0772 -0.2874  0.0095
  744MOL0     C98094   7.910   9.230   4.168 -0.9036 -0.1863  0.4313
  744MOL0     C98095   7.834   9.312   4.246 -0.5023  0.0420  0.2301
  744MOL0     C98096   7.723   9.263   4.338 -0.3945 -0.2430  0.3088
  744MOL0     C98097   7.666   9.387   4.430  0.3940  0.0777 -0.2012
  744MOL0     C98098   7.593   9.503   4.359  0.0864 -0.3117 -0.8612
  744MOL0     C98099   7.510   9.459   4.237 -0.8520 -0.4332 -0.1366
  744MOL0     O98100   7.412   9.373   4.267  0.4917  0.9326 -0.9349
  744MOL0     C98101   7.304   9.405   4.336  0.2103 -0.0879  0.9141
  744MOL0     C98102   7.231   9.298   4.388 -0.4314 -0.4700  0.8653
  744MOL0     C98103   7.122   9.320   4.474  0.5574  0.3668 -0.1691
  744MOL0     C98104   7.071   9.447   4.506 -0.0078 -0.2670  0.0842
  744MOL0     C98105   6.958   9.466   4.583  1.3887  0.1414 -0.3729
  744MOL0     O98106   6.927   9.380   4.679  0.2448 -0.0052  1.1109
  744MOL0     C98107   6.823   9.411   4.756  0.4632  0.0924  0.7005
  744MOL0     C98108   6.833   9.503   4.863 -0.9218 -1.1773 -0.1420
  744MOL0     C98109   6.718   9.524   4.940 -0.7403 -0.7333  0.4623
  744MOL0     C98110   6.594   9.460   4.911 -0.3075  0.7220 -0.1963
  744MOL0     O98111   6.483   9.492   4.988  0.1502  0.6309  0.4342
  744MOL0     C98112   6.460   9.628   5.024 -0.8682  0.3513 -0.3893
  744MOL0     C98113   6.323   9.666   5.060 -0.8635  0.2426 -0.0078
  744MOL0     C98114   6.234   9.564   5.128 -0.5048 -0.5055 -0.1464
  744MOL0     C98115   6.235   9.561   5.278 -0.2370 -0.5840  0.1090
  744MOL0     C98116   6.097   9.525   5.328  0.2337 -0.0036  0.3873
  744MOL0     C98117   6.086   9.485   5.477  0.3344 -0.2024  0.9208
  744MOL0     C98118   6.168   9.566   5.579 -1.3233 -0.8981  0.3263
  744MOL0     C98119   6.115   9.589   5.725  0.2347 -0.0190 -0.9416
  744MOL0    Cl98120   6.184   9.468   5.841  0.0287 -0.7092  0.2919
  744MOL0     C98121   6.592   9.353   4.815 -1.2117  0.0743  0.3437
  744MOL0     C98122   6.703   9.333   4.735  0.0909 -0.2724  0.4643
  744MOL0     O98123   6.882   9.564   4.554 -0.0705 -0.2528  0.2623
  744MOL0     C98124   7.143   9.558   4.440  0.3289 -0.0801  0.5460
  744MOL0     C98125   7.256   9.537   4.355 -0.2206 -0.8187 -0.5508
  744MOL0     N98126   7.902   9.435   4.258 -0.4792 -0.0298  0.1716
  744MOL0     N98127   8.014   9.428   4.199  0.3562  0.0987  0.7951
  744MOL0     C98128   8.979   9.379   3.590 -0.6136 -0.2055  0.8724
  744MOL0     C98129   9.104   9.446   3.584 -0.0832  0.0348 -0.0146
  744MOL0     C98130   9.540   9.515   3.503  0.1185  0.5712 -0.0969
  744MOL0     C98131   9.669   9.487   3.523 -0.2649  0.5966  0.1977
  744MOL0     C98132   9.774   9.579   3.488  0.6452 -0.3408  0.0796
  744MOL0     C98133   9.730   9.700   3.432 -0.6755  0.1955 -0.0828
  744MOL0     O98134   9.821   9.803   3.394  0.8211 -0.4466  0.2239
  744MOL0     C98135   9.809   9.907   3.487 -0.2271 -0.5913 -0.5950
  744MOL0     C98136   9.951   9.960   3.527  0.5756 -0.6889 -0.5935
  744MOL0     C98137  10.042   9.996   3.408 -0.4197  0.4003 -1.7762
  744MOL0     C98138  10.052  10.146   3.359  0.7070  0.6512 -0.4298
  744MOL0     C98139  10.087  10.238   3.471 -0.2018  0.8608  0.3876
  744MOL0     C98140  10.115  10.319   3.558 -0.1874  1.4357 -1.0572
  744MOL0     C98141   9.588   9.716   3.407 -0.2049 -0.3873 -0.0064
  744MOL0     C98142   9.494   9.627   3.444  0.7191 -0.8288 -0.4808
  744MOL0     H98143   9.300   9.181   3.688  2.0062  2.2552  0.6177
  744MOL0     H98144   9.087   9.067   3.624  0.0033 -0.6140 -0.2379
  744MOL0     H98145   8.673   9.267   3.556 -1.3363 -2.6132 -0.3008
  744MOL0     H98146   8.749   9.287   3.713  5.5768 -0.4812 -1.0784
  744MOL0     H98147   8.692   9.051   3.769 -1.8490  2.2219  2.4743
  744MOL0     H98148   8.632   9.018   3.604 -0.2160  0.2463 -1.0164
  744MOL0     H98149   8.470   9.206   3.619 -1.9830 -0.1681 -0.1809
  744MOL0     H98150   8.511   9.243   3.781  0.1329  1.6907 -2.0922
  744MOL0     H98151   8.355   9.021   3.703  1.4064  1.0466 -1.1620
  744MOL0     H98152   8.466   8.987   3.844 -2.3917 -0.1839  0.2890
  744MOL0     H98153   8.384   9.171   3.970  0.7195 -1.5500  1.9233
  744MOL0     H98154   8.275   9.033   3.940  0.4287  0.3699 -0.0001
  744MOL0     H98155   8.176   9.156   3.739 -0.0087 -0.9525  1.0330
  744MOL0     H98156   8.246   9.303   3.793  0.6659  0.1749  2.1214
  744MOL0     H98157   8.030   9.315   3.876  0.6118  0.2496  0.0172
  744MOL0     H98158   8.030   9.144   3.925 -0.1788  0.2532  2.7196
  744MOL0     H98159   8.216   9.336   4.074  1.5804 -1.9507  2.8814
  744MOL0     H98160   8.166   9.177   4.113  2.4372  0.2617 -0.9884
  744MOL0     H98161   7.880   9.129   4.144  0.9896  0.1586 -4.3715
  744MOL0     H98162   7.761   9.189   4.409 -0.9182 -0.4947  0.3358
  744MOL0     H98163   7.637   9.222   4.284 -1.4986 -0.6207  2.2453
  744MOL0     H98164   7.738   9.441   4.492 -3.5415  2.4301  2.8354
  744MOL0     H98165   7.590   9.339   4.493 -0.8802 -0.8387 -2.3595
  744MOL0     H98166   7.524   9.544   4.434  3.1355 -1.8220  3.1100
  744MOL0     H98167   7.672   9.575   4.341 -1.0389  0.8176 -1.4184
  744MOL0     H98168   7.571   9.409   4.161 -3.6745 -0.2275 -2.7102
  744MOL0     H98169   7.477   9.544   4.178 -0.5747 -1.3592 -1.6907
  744MOL0     H98170   7.261   9.197   4.362 -3.3423 -0.8411 -1.6378
  744MOL0     H98171   7.082   9.235   4.527  2.1972  0.4224  1.2722
  744MOL0     H98172   6.923   9.559   4.886 -1.6586  0.6935 -1.6157
  744MOL0     H98173   6.723   9.600   5.017  0.0252 -2.0850  1.7966
  744MOL0     H98174   6.495   9.695   4.945  0.1066  0.6922  0.3141
  744MOL0     H98175   6.524   9.656   5.108 -1.3445  2.3143 -0.6343
  744MOL0     H98176   6.268   9.714   4.978 -1.3849  1.4685  1.0353
  744MOL0     H98177   6.350   9.741   5.135 -0.8460 -1.3582  1.6661
  744MOL0     H98178   6.273   9.467   5.095  3.0124  1.1865 -1.5942
  744MOL0     H98179   6.134   9.589   5.090 -0.5231  0.1726  0.3323
  744MOL0     H98180   6.317   9.493   5.305  0.3042 -0.7648 -1.8472
  744MOL0     H98181   6.270   9.655   5.323 -0.3013 -0.0163 -1.0104
  744MOL0     H98182   6.056   9.436   5.279  1.8389  1.2365 -3.7024
  744MOL0     H98183   6.033   9.607   5.293 -1.2298 -2.0201 -2.0083
  744MOL0     H98184   6.135   9.387   5.480  0.1689 -0.2846  0.9421
  744MOL0     H98185   5.980   9.463   5.495  0.2051 -0.9443 -0.6090
  744MOL0     H98186   6.260   9.509   5.595  0.5064  0.8965 -2.7881
  744MOL0     H98187   6.195   9.666   5.545 -0.9840 -0.8274  0.7818
  744MOL0     H98188   6.006   9.576   5.722  0.1668  0.4577 -0.6539
  744MOL0     H98189   6.149   9.685   5.765  3.2972 -1.4013  0.0002
  744MOL0     H98190   6.508   9.286   4.809 -1.8448  0.8899 -0.0733
  744MOL0     H98191   6.694   9.248   4.668 -3.9020 -1.9117  2.6956
  744MOL0     H98192   7.080   9.647   4.439  1.0136  0.4193 -1.0068
  744MOL0     H98193   7.295   9.619   4.296  0.7601 -2.2368 -1.9543
  744MOL0     H98194   8.894   9.444   3.571  0.3178  0.4362 -1.3227
  744MOL0     H98195   9.116   9.551   3.562 -0.4658  0.2192  0.6401
  744MOL0     H98196   9.691   9.399   3.583  4.5302  3.0576  2.6554
  744MOL0     H98197   9.878   9.554   3.505  0.6013 -3.2272 -2.9118
  744MOL0     H98198   9.765   9.877   3.582  3.1354  0.4196  1.4699
  744MOL0     H98199   9.746   9.979   3.434  1.0438 -0.3708 -1.8873
  744MOL0     H98200   9.923  10.048   3.585 -2.9603 -1.3375 -1.1368
  744MOL0     H98201   9.994   9.901   3.609 -0.9120  1.2005  1.6699
  744MOL0     H98202  10.017   9.939   3.318  0.4722  1.1696 -2.5245
  744MOL0     H98203  10.147   9.980   3.435 -1.0147  0.5175  0.8647
  744MOL0     H98204  10.117  10.161   3.272  0.0554  0.5077 -0.9469
  744MOL0     H98205   9.952  10.169   3.322  0.3672 -2.4220 -1.6557
  744MOL0     H98206  10.140  10.386   3.638  1.1605  0.4180 -0.6010
  744MOL0     H98207   9.555   9.809   3.363 -0.6279 -1.3790 -1.9089
  744MOL0     H98208   9.387   9.646   3.439  1.0749  2.5687  1.8136
  745MOL0     O98209   8.958  10.521   6.305  0.3256  0.0105  0.3909
  745MOL0     C98210   8.878  10.610   6.287 -0.9389 -0.3978  0.6972
  745MOL0     O98211   8.876  10.698   6.180 -0.8885 -0.1539  1.1405
  745MOL0     C98212   8.955  10.674   6.066 -1.0424  0.1792 -0.1804
  745MOL0     C98213   8.989  10.544   6.021  0.6872 -0.4472  0.5321
  745MOL0     C98214   9.093  10.522   5.925 -1.1285  0.1484 -1.4408
  745MOL0     C98215   9.165  10.627   5.876 -0.4302  0.8904  0.1868
  745MOL0     O98216   9.257  10.603   5.780  0.3847 -0.2927 -0.5632
  745MOL0     C98217   9.379  10.558   5.830 -0.7952 -0.5507  1.0405
  745MOL0     C98218   9.490  10.598   5.725  0.0031  0.2147 -0.8350
  745MOL0     C98219   9.631  10.602   5.784 -0.1018  0.2765 -0.8239
  745MOL0     C98220   9.733  10.611   5.665 -0.1373  0.1402 -0.7327
  745MOL0     C98221   9.852  10.706   5.701  0.7040  0.4857 -0.1410
  745MOL0     C98222   9.966  10.689   5.601 -0.3008  0.2782 -0.4441
  745MOL0     C98223  10.095  10.776   5.632 -0.1024 -0.0112 -0.3479
  745MOL0     C98224  10.219  10.744   5.541 -0.0745  0.4056  0.9320
  745MOL0     N98225  10.197  10.761   5.395  0.2725  0.5466  0.6014
  745MOL0     C98226  10.165  10.874   5.325 -0.3910 -0.5837 -1.1567
  745MOL0     C98227  10.179  10.854   5.193 -0.6150  0.0775 -0.9685
  745MOL0     C98228  10.129  10.964   5.099 -0.1403 -0.9738  0.3424
  745MOL0     C98229   9.995  10.924   5.014 -0.0237 -0.0782 -0.8849
  745MOL0     C98230   9.872  10.934   5.112  0.9578  0.4036  0.5791
  745MOL0     C98231   9.829  11.079   5.149  0.5693 -0.1773 -1.3783
  745MOL0     O98232   9.779  11.087   5.289 -0.6191 -0.6173  0.6782
  745MOL0     C98233   9.661  11.047   5.335  0.3207  0.5100 -0.4710
  745MOL0     C98234   9.553  11.004   5.254 -0.0230  0.1647 -0.1374
  745MOL0     C98235   9.430  10.988   5.308 -0.3254 -0.6547  0.6048
  745MOL0     C98236   9.404  10.993   5.445  1.0770 -0.3396  0.7244
  745MOL0     C98237   9.272  10.963   5.508  0.5585 -0.4392  0.2609
  745MOL0     O98238   9.162  10.932   5.428 -0.5513 -0.4759  0.3374
  745MOL0     C98239   9.030  10.909   5.466 -0.3069 -0.2504  0.3223
  745MOL0     C98240   8.933  10.944   5.374 -0.1990 -0.5400  0.2567
  745MOL0     C98241   8.795  10.919   5.396 -0.2294  1.2689  1.3567
  745MOL0     C98242   8.749  10.874   5.520  0.2967  0.3664  0.2638
  745MOL0     O98243   8.608  10.882   5.534 -0.3850 -0.1969  0.2152
  745MOL0     C98244   8.556  10.797   5.645 -0.2171 -1.2650  0.0148
  745MOL0     C98245   8.406  10.791   5.634  0.3492  0.6221 -0.0565
  745MOL0     C98246   8.341  10.717   5.514  0.5008 -0.2375 -0.3211
  745MOL0     C98247   8.183  10.750   5.519 -0.3170 -0.3068  1.1958
  745MOL0     C98248   8.117  10.671   5.407 -0.0578  0.0843  0.4947
  745MOL0     C98249   7.967  10.660   5.399 -0.4284 -0.0375 -0.0113
  745MOL0     C98250   7.943  10.540   5.304 -0.3561 -0.1793  0.7485
  745MOL0     C98251   7.809  10.566   5.245 -0.2733  0.3764 -0.2760
  745MOL0    Cl98252   7.676  10.570   5.357  0.0463  0.3152 -0.0723
  745MOL0     C98253   8.849  10.847   5.611  0.8283  0.5130 -0.6955
  745MOL0     C98254   8.985  10.871   5.587  0.6938  0.7702 -0.1061
  745MOL0     O98255   9.267  10.995   5.626  0.2750  0.4050 -0.8930
  745MOL0     C98256   9.512  11.029   5.534 -0.9933 -0.0775  0.7361
  745MOL0     C98257   9.638  11.053   5.475  0.9172 -0.2009  0.3500
  745MOL0     N98258  10.220  10.722   5.182  0.2743 -0.7283 -0.9004
  745MOL0     N98259  10.228  10.667   5.295  0.1849 -0.1668 -0.0011
  745MOL0     C98260   9.141  10.756   5.927  0.2743 -0.3281  0.3004
  745MOL0     C98261   9.044  10.783   6.019  0.2226  0.0106 -0.4555
  745MOL0     C98262   8.800  10.642   6.411 -0.5858  0.3663 -0.0531
  745MOL0     C98263   8.678  10.695   6.388  0.7693  0.7278  0.1254
  745MOL0     C98264   8.579  10.704   6.494  1.4329 -0.3201  0.5539
  745MOL0     C98265   8.615  10.657   6.626  0.3779  0.6183  0.0846
  745MOL0     O98266   8.508  10.651   6.709 -0.0391 -0.0929 -0.1579
  745MOL0     C98267   8.489  10.528   6.787 -0.5146 -0.0034 -0.5077
  745MOL0     C98268   8.478  10.544   6.933  0.0511 -0.5472  0.0816
  745MOL0     C98269   8.617  10.596   6.985 -0.3754 -0.4257  0.1850
  745MOL0     C98270   8.606  10.662   7.118  0.4522 -0.4744 -1.3227
  745MOL0     C98271   8.562  10.568   7.222  0.6088 -0.1756  0.5877
  745MOL0     C98272   8.520  10.491   7.305  0.0650 -0.2123 -0.5198
  745MOL0     C98273   8.739  10.594   6.645 -0.4920 -0.8844 -0.5366
  745MOL0     C98274   8.833  10.587   6.541 -0.0248  0.1524 -0.3693
  745MOL0     H98275   8.930  10.462   6.061 -4.3449  2.2395 -0.5304
  745MOL0     H98276   9.113  10.419   5.897 -0.6741  0.4014 -2.0658
  745MOL0     H98277   9.381  10.449   5.840  0.5983 -0.5543  0.9204
  745MOL0     H98278   9.410  10.597   5.928  1.8526  0.4009 -0.0893
  745MOL0     H98279   9.461  10.703   5.707 -1.1965  0.1730  0.7008
  745MOL0     H98280   9.485  10.541   5.632 -1.0152  0.3651 -0.8860
  745MOL0     H98281   9.652  10.521   5.854 -0.6127  0.6266 -0.2547
  745MOL0     H98282   9.642  10.700   5.830 -0.7960  1.7113 -3.4806
  745MOL0     H98283   9.777  10.512   5.651 -2.0324 -1.1300  1.4662
  745MOL0     H98284   9.680  10.654   5.579 -2.2426  2.7080  1.6706
  745MOL0     H98285   9.892  10.685   5.801  2.0743 -1.0923 -0.9665
  745MOL0     H98286   9.811  10.807   5.700 -4.1985 -1.1350  1.5849
  745MOL0     H98287   9.927  10.713   5.502  0.3865  1.7582 -0.3882
  745MOL0     H98288   9.988  10.582   5.608 -0.6099  0.2833  1.1842
  745MOL0     H98289  10.081  10.885   5.636  3.6379  0.5873  0.9056
  745MOL0     H98290  10.129  10.754   5.734  1.2904  2.3234 -0.2202
  745MOL0     H98291  10.250  10.641   5.560  0.3305  0.1673 -0.8437
  745MOL0     H98292  10.298  10.808   5.582  0.4041  0.1295  0.4400
  745MOL0     H98293  10.129  10.965   5.371  1.6232 -0.9246  1.3362
  745MOL0     H98294  10.204  10.988   5.023 -2.0667  1.3351 -0.9862
  745MOL0     H98295  10.104  11.057   5.151  0.9575  0.8675 -2.2417
  745MOL0     H98296  10.016  10.820   4.987 -0.7826  0.2440 -2.8982
  745MOL0     H98297   9.977  10.987   4.926 -1.2273  3.0159  1.4143
  745MOL0     H98298   9.794  10.868   5.075  2.8883 -1.2861 -0.7062
  745MOL0     H98299   9.911  10.894   5.207  2.5111 -0.2485 -0.2918
  745MOL0     H98300   9.753  11.123   5.084  0.2224  4.1137  1.5151
  745MOL0     H98301   9.921  11.137   5.149  2.6947 -3.2469  0.2964
  745MOL0     H98302   9.568  10.995   5.147  2.7244  1.4011  0.0573
  745MOL0     H98303   9.352  10.976   5.233 -0.9053  2.0541  0.6835
  745MOL0     H98304   8.977  10.988   5.285 -1.3112 -1.3261 -0.7023
  745MOL0     H98305   8.722  10.935   5.317 -1.8821 -1.9862  2.0714
  745MOL0     H98306   8.582  10.835   5.744  1.1997 -2.8650  0.3068
  745MOL0     H98307   8.590  10.693   5.649 -1.3457 -1.6034  2.1337
  745MOL0     H98308   8.360  10.890   5.639  0.5331  0.8848 -2.3006
  745MOL0     H98309   8.376  10.741   5.726  1.7943  2.9118  1.7567
  745MOL0     H98310   8.356  10.609   5.529 -1.7390 -0.3118  1.9825
  745MOL0     H98311   8.381  10.736   5.414  1.7462  0.0719  0.2116
  745MOL0     H98312   8.124  10.723   5.607 -3.3901 -1.3102 -0.9822
  745MOL0     H98313   8.176  10.857   5.501  2.0886  0.0094  1.7993
  745MOL0     H98314   8.157  10.575   5.440  5.3735  2.2279  1.0839
  745MOL0     H98315   8.164  10.696   5.311  3.1232  4.2326  2.7988
  745MOL0     H98316   7.935  10.756   5.357 -1.4802 -0.1255  0.5626
  745MOL0     H98317   7.921  10.642   5.497 -2.0557  0.3520 -0.6617
  745MOL0     H98318   8.016  10.527   5.223 -1.2945 -1.5529  0.0909
  745MOL0     H98319   7.942  10.447   5.361  4.4200 -1.7784 -1.2793
  745MOL0     H98320   7.776  10.475   5.194  0.5546 -1.6691  2.5908
  745MOL0     H98321   7.820  10.658   5.187 -0.0742  0.0573 -0.7542
  745MOL0     H98322   8.810  10.815   5.707 -1.9813 -2.0775 -2.5003
  745MOL0     H98323   9.044  10.837   5.672 -0.0375 -2.9983 -0.9260
  745MOL0     H98324   9.523  11.048   5.640  0.7239 -0.0874  0.5984
  745MOL0     H98325   9.723  11.071   5.540  2.2162  1.1471 -1.5978
  745MOL0     H98326   9.213  10.825   5.884  0.7125 -0.1558  1.2708
  745MOL0     H98327   9.025  10.880   6.063  0.3891 -0.0731 -0.2016
  745MOL0     H98328   8.644  10.735   6.293  0.5950 -1.9698 -1.0323
  745MOL0     H98329   8.476  10.739   6.493  0.6174 -2.5662  0.5086
  745MOL0     H98330   8.569  10.455   6.771  0.8269  1.4801 -0.7671
  745MOL0     H98331   8.392  10.493   6.751 -0.7085  1.3200 -1.3310
  745MOL0     H98332   8.392  10.612   6.940  0.3190  0.2459 -2.8157
  745MOL0     H98333   8.453  10.448   6.978  0.2484 -0.1165  1.1280
  745MOL0     H98334   8.671  10.661   6.916  1.4772 -1.7595  0.3231
  745MOL0     H98335   8.691  10.517   6.994  2.1997  1.4206 -2.8032
  745MOL0     H98336   8.708  10.689   7.147  0.2609  0.4657 -1.5020
  745MOL0     H98337   8.555  10.758   7.111 -0.9409 -1.1663 -1.0668
  745MOL0     H98338   8.481  10.432   7.386  2.8283  0.2024  1.2677
  745MOL0     H98339   8.752  10.535   6.734 -1.2686 -1.0644 -0.5318
  745MOL0     H98340   8.915  10.517   6.555 -1.8073 -1.7679  1.1134
  746MOL0     O98341   4.625   3.543  10.846 -0.4124 -0.2676 -0.4410
  746MOL0     C98342   4.641   3.425  10.829 -0.2021  0.2305  0.3992
  746MOL0     O98343   4.587   3.362  10.719 -0.2881 -0.3239  0.4329
  746MOL0     C98344   4.511   3.429  10.623 -0.6264 -0.0978 -1.0710
  746MOL0     C98345   4.394   3.506  10.664 -1.1092  0.4298  0.0091
  746MOL0     C98346   4.303   3.543  10.568  0.3566  0.3315  0.6708
  746MOL0     C98347   4.305   3.498  10.445 -0.5061  0.0105 -0.1809
  746MOL0     O98348   4.201   3.499  10.351 -0.2599 -0.8460 -0.1826
  746MOL0     C98349   4.081   3.579  10.389 -1.1882  0.8891  0.1913
  746MOL0     C98350   3.997   3.605  10.262  0.0905  0.9367  0.4649
  746MOL0     C98351   3.868   3.683  10.282 -0.3196 -0.2664 -0.1703
  746MOL0     C98352   3.764   3.672  10.168 -0.4399  0.1941  0.4964
  746MOL0     C98353   3.625   3.728  10.198 -0.2902 -0.0439  0.7712
  746MOL0     C98354   3.647   3.877  10.241  0.0270 -0.0883  0.3548
  746MOL0     C98355   3.519   3.962  10.238 -0.8891 -0.2101  0.6020
  746MOL0     C98356   3.531   4.092  10.319  0.3409 -0.1290  0.0981
  746MOL0     N98357   3.410   4.165  10.295 -0.4959 -0.7794  0.4418
  746MOL0     C98358   3.385   4.295  10.257 -0.1376  0.4822  0.9758
  746MOL0     C98359   3.256   4.314  10.254  0.3582  0.3561 -0.1897
  746MOL0     C98360   3.194   4.443  10.211 -0.5494 -0.6207  1.4423
  746MOL0     C98361   3.250   4.514  10.084  0.1848 -0.7037 -0.2375
  746MOL0     C98362   3.191   4.456   9.952 -0.5331  0.3776 -0.5221
  746MOL0     C98363   3.267   4.327   9.911 -0.9323  0.2750 -0.2584
  746MOL0     O98364   3.409   4.356   9.883 -0.6412 -0.0170 -0.2752
  746MOL0     C98365   3.496   4.251   9.886 -0.1193  0.5161  1.0428
  746MOL0     C98366   3.463   4.114   9.871 -0.5536 -0.1168 -0.1362
  746MOL0     C98367   3.565   4.017   9.858  0.3408  0.2201 -0.6914
  746MOL0     C98368   3.698   4.049   9.881  0.1620  0.1097  0.0039
  746MOL0     C98369   3.801   3.942   9.864 -0.1464 -0.3597  0.4163
  746MOL0     O98370   3.932   3.977   9.902  0.3466  0.9707 -0.1321
  746MOL0     C98371   4.043   3.905   9.863  0.6417 -0.8315  0.7658
  746MOL0     C98372   4.158   3.974   9.811  0.1949 -0.3200 -0.2228
  746MOL0     C98373   4.262   3.901   9.777  0.4495  0.6875  0.0833
  746MOL0     C98374   4.287   3.763   9.789  0.2185 -1.3138 -0.1187
  746MOL0     O98375   4.405   3.707   9.751 -0.4152 -0.1755 -0.6566
  746MOL0     C98376   4.388   3.579   9.703 -0.2043  0.8022 -0.7050
  746MOL0     C98377   4.511   3.540   9.625  0.6708  0.0541  0.7132
  746MOL0     C98378   4.556   3.396   9.646  0.0157 -0.5656  0.0603
  746MOL0     C98379   4.662   3.363   9.548 -1.2290 -0.2419 -0.0824
  746MOL0     C98380   4.743   3.236   9.578  0.0826 -0.4789 -0.5046
  746MOL0     C98381   4.665   3.103   9.556 -0.0467 -0.0104 -0.8170
  746MOL0     C98382   4.745   2.971   9.599 -0.0884  0.4598 -1.0688
  746MOL0     C98383   4.775   2.959   9.753  0.2915 -0.4462 -1.1392
  746MOL0    Cl98384   4.627   2.957   9.853  0.2252  0.2449 -0.1656
  746MOL0     C98385   4.177   3.701   9.850 -0.1882 -0.3467 -1.4781
  746MOL0     C98386   4.058   3.768   9.892  0.0902 -0.5415  0.3821
  746MOL0     O98387   3.772   3.835   9.820  1.2405 -0.0448  0.1698
  746MOL0     C98388   3.736   4.189   9.891  0.0798  0.2226 -0.6566
  746MOL0     C98389   3.636   4.286   9.887 -0.0912 -0.3488  0.3295
  746MOL0     N98390   3.194   4.190  10.292  0.0181 -0.5814  0.4805
  746MOL0     N98391   3.291   4.106  10.312  0.9949  0.2100  0.5517
  746MOL0     C98392   4.419   3.431  10.399 -1.3465 -1.4077 -0.5537
  746MOL0     C98393   4.524   3.396  10.489 -0.4998 -0.6331  0.9855
  746MOL0     C98394   4.702   3.335  10.926  0.5438 -0.2223  0.2635
  746MOL0     C98395   4.826   3.354  10.990  0.1442  0.2646  1.2022
  746MOL0     C98396   4.882   3.258  11.070 -1.0246  0.8915  0.6172
  746MOL0     C98397   4.813   3.134  11.090  1.2701  0.0677 -0.3708
  746MOL0     O98398   4.849   3.024  11.165 -0.2985  0.2462 -0.4439
  746MOL0     C98399   4.963   3.042  11.253 -0.5117  1.0763  0.4846
  746MOL0     C98400   4.988   2.923  11.344  1.0523  0.7470  0.9023
  746MOL0     C98401   4.870   2.920  11.444  0.3509  0.2023 -0.2119
  746MOL0     C98402   4.843   2.788  11.505 -1.2541 -0.3119 -0.1601
  746MOL0     C98403   4.756   2.696  11.430 -1.3199  0.2651  1.0139
  746MOL0     C98404   4.712   2.595  11.379 -0.1182 -0.3038 -1.0556
  746MOL0     C98405   4.689   3.118  11.035  0.7141  0.4705 -0.2127
  746MOL0     C98406   4.635   3.214  10.956 -0.2576 -0.3847 -0.0767
  746MOL0     H98407   4.385   3.536  10.768  0.1546 -3.6069  1.4574
  746MOL0     H98408   4.219   3.610  10.588  1.0122  1.6126 -0.6502
  746MOL0     H98409   4.114   3.680  10.413  0.9151  0.7944 -1.9218
  746MOL0     H98410   4.024   3.529  10.468  1.6065 -2.1369  0.4874
  746MOL0     H98411   3.975   3.504  10.226  1.5309  0.1368  1.7101
  746MOL0     H98412   4.057   3.659  10.188  0.2209  2.1643  1.4364
  746MOL0     H98413   3.895   3.788  10.300  3.2070 -1.0354 -0.2427
  746MOL0     H98414   3.814   3.646  10.370  1.9582  1.4777  2.1460
  746MOL0     H98415   3.793   3.721  10.075 -0.7225 -0.7364 -0.1030
  746MOL0     H98416   3.750   3.571  10.127 -3.2995  1.5070 -2.1900
  746MOL0     H98417   3.580   3.679  10.285  1.3849 -3.3076 -0.0686
  746MOL0     H98418   3.557   3.724  10.113  1.3370 -0.6170 -0.5530
  746MOL0     H98419   3.713   3.912  10.161  0.5698  1.6343  1.5142
  746MOL0     H98420   3.704   3.866  10.333  1.8569 -0.5805 -0.7846
  746MOL0     H98421   3.488   3.975  10.134  0.6512  0.7804  0.2243
  746MOL0     H98422   3.446   3.904  10.296  0.7936 -0.6071  2.4421
  746MOL0     H98423   3.626   4.145  10.308  1.3252 -1.6738  0.7783
  746MOL0     H98424   3.537   4.060  10.424 -2.3250 -1.4177 -0.0604
  746MOL0     H98425   3.456   4.373  10.231  1.9971 -1.9253 -0.9133
  746MOL0     H98426   3.203   4.511  10.296  3.2303 -1.3425  1.8269
  746MOL0     H98427   3.087   4.426  10.200 -0.7696 -0.3341  2.8902
  746MOL0     H98428   3.359   4.515  10.094  0.1570  3.5217  1.5352
  746MOL0     H98429   3.230   4.621  10.090  1.3608 -0.4036 -1.2435
  746MOL0     H98430   3.083   4.444   9.964 -0.7380 -1.2931 -3.1100
  746MOL0     H98431   3.212   4.533   9.877  0.3932  0.0216 -0.6505
  746MOL0     H98432   3.202   4.290   9.831 -0.6662 -1.0865  0.1329
  746MOL0     H98433   3.267   4.256   9.994  1.2098 -0.3417 -0.7083
  746MOL0     H98434   3.356   4.097   9.871 -0.5917 -0.3149  2.8925
  746MOL0     H98435   3.545   3.911   9.854  1.6961 -0.2673  2.7109
  746MOL0     H98436   4.140   4.081   9.802  0.9123 -0.1272  0.5572
  746MOL0     H98437   4.347   3.944   9.725  1.5735  0.7857  1.9121
  746MOL0     H98438   4.307   3.559   9.632 -1.9973 -4.2658  2.2156
  746MOL0     H98439   4.363   3.518   9.791  0.3479  0.5462 -0.7262
  746MOL0     H98440   4.588   3.613   9.651  2.1310 -1.4275  0.7015
  746MOL0     H98441   4.484   3.564   9.521 -1.6612  0.6261  1.3754
  746MOL0     H98442   4.469   3.333   9.628 -1.0704  0.8715  0.1136
  746MOL0     H98443   4.586   3.373   9.749  1.3461 -1.7424 -0.5576
  746MOL0     H98444   4.624   3.344   9.447  0.0695 -1.1625 -0.4245
  746MOL0     H98445   4.732   3.446   9.559 -0.1015 -1.4627  2.8698
  746MOL0     H98446   4.780   3.246   9.681  0.3712 -1.6151 -0.4848
  746MOL0     H98447   4.833   3.232   9.516  1.6045  0.4470  1.5097
  746MOL0     H98448   4.635   3.093   9.451 -0.6942 -2.4236 -0.4587
  746MOL0     H98449   4.576   3.105   9.620  1.8649  1.4365  2.0148
  746MOL0     H98450   4.687   2.882   9.576 -0.8477  0.5278  0.4663
  746MOL0     H98451   4.837   2.967   9.539 -0.5373  2.5890 -2.0213
  746MOL0     H98452   4.830   3.044   9.795 -0.9077 -1.4547  2.9392
  746MOL0     H98453   4.830   2.865   9.757  0.8494 -0.2016 -2.4153
  746MOL0     H98454   4.177   3.595   9.873 -4.0786 -0.1454  0.3278
  746MOL0     H98455   3.977   3.707   9.930 -1.3234  0.9696 -0.0915
  746MOL0     H98456   3.842   4.214   9.887  0.2401 -0.5798 -1.8353
  746MOL0     H98457   3.660   4.389   9.912 -0.5997 -0.8534  3.2953
  746MOL0     H98458   4.422   3.391  10.298  0.7145 -2.2187 -0.2142
  746MOL0     H98459   4.609   3.358  10.435 -1.9244  1.2728 -2.9829
  746MOL0     H98460   4.880   3.446  10.973 -2.8811  1.8949 -0.5130
  746MOL0     H98461   4.978   3.285  11.114 -0.4960  2.9918 -1.6100
  746MOL0     H98462   4.960   3.140  11.303  1.6225 -0.0112  2.9720
  746MOL0     H98463   5.055   3.041  11.193 -0.8611 -0.3641 -0.0580
  746MOL0     H98464   4.994   2.830  11.288 -1.7270  0.0639  1.5596
  746MOL0     H98465   5.080   2.944  11.399  0.3783  3.6139  1.0911
  746MOL0     H98466   4.776   2.945  11.394  0.0944 -0.6350 -0.1604
  746MOL0     H98467   4.881   3.002  11.516 -5.3969 -1.2568  3.0116
  746MOL0     H98468   4.933   2.736  11.538 -0.7887  0.4552 -0.2021
  746MOL0     H98469   4.791   2.813  11.598 -2.5347  3.3098 -1.6642
  746MOL0     H98470   4.695   2.503  11.327  3.6519 -0.3165 -2.6725
  746MOL0     H98471   4.645   3.023  11.064  0.7616 -0.1177 -1.9239
  746MOL0     H98472   4.547   3.199  10.895  0.9702 -1.0070 -1.7904
  747MOL0     O98473   2.745   1.137   5.196 -0.1571  0.4731  0.0959
  747MOL0     C98474   2.743   1.031   5.259  0.2870 -0.3350  0.1579
  747MOL0     O98475   2.629   0.973   5.304 -0.9953 -0.0741  0.3206
  747MOL0     C98476   2.640   0.855   5.374 -0.0187 -0.6759  0.1657
  747MOL0     C98477   2.715   0.841   5.493 -0.0279  0.0302  0.5606
  747MOL0     C98478   2.716   0.725   5.572 -0.5920 -0.3336  0.4058
  747MOL0     C98479   2.664   0.610   5.513  0.2546  0.0188  0.2972
  747MOL0     O98480   2.653   0.490   5.575  0.7865  0.5722 -0.2581
  747MOL0     C98481   2.780   0.440   5.611  0.9575  0.2130  0.3879
  747MOL0     C98482   2.774   0.290   5.653  1.5225 -0.0431  0.8895
  747MOL0     C98483   2.659   0.254   5.761  0.2035 -1.2030 -0.6911
  747MOL0     C98484   2.653   0.116   5.803  0.0319 -0.3208 -0.6244
  747MOL0     C98485   2.517   0.087   5.878 -0.0202  0.0895 -0.8462
  747MOL0     C98486   2.544  -0.006   6.004  0.5878 -0.0622  0.0330
  747MOL0     C98487   2.615  -0.139   5.979  1.1425 -0.9977  0.4726
  747MOL0     C98488   2.632  -0.227   6.093  0.8598  0.2575  0.1686
  747MOL0     N98489   2.748  -0.311   6.064 -0.3987  0.1222 -0.8067
  747MOL0     C98490   2.800  -0.357   5.948  0.2944 -0.4768  0.6827
  747MOL0     C98491   2.927  -0.391   5.972 -0.7872 -0.0592 -0.5264
  747MOL0     C98492   3.024  -0.446   5.869 -0.4788  0.4353  0.6579
  747MOL0     C98493   2.957  -0.560   5.787 -0.4867  0.6169  0.1840
  747MOL0     C98494   2.856  -0.645   5.862  0.2566 -0.9260 -0.6307
  747MOL0     C98495   2.834  -0.774   5.782 -0.1431  0.7544  0.4540
  747MOL0     O98496   2.811  -0.726   5.655  0.5849 -0.7209 -0.4245
  747MOL0     C98497   2.758  -0.807   5.555  1.0533  0.3401 -0.7384
  747MOL0     C98498   2.760  -0.951   5.537 -0.2453 -0.3619 -0.0062
  747MOL0     C98499   2.682  -1.009   5.435 -0.3758  0.3698  0.4345
  747MOL0     C98500   2.602  -0.928   5.347  0.5070  0.6221 -1.3461
  747MOL0     C98501   2.529  -0.971   5.233 -0.2246  0.4201 -0.5447
  747MOL0     O98502   2.442  -0.893   5.172  0.4780 -0.3716  0.5690
  747MOL0     C98503   2.379  -0.924   5.053  0.0776 -0.4621  0.1152
  747MOL0     C98504   2.455  -0.969   4.944 -0.2249 -0.2473  0.4531
  747MOL0     C98505   2.391  -1.000   4.824 -0.7102 -0.1721  0.6030
  747MOL0     C98506   2.245  -0.991   4.820  0.4861  0.6159 -0.8745
  747MOL0     O98507   2.170  -1.038   4.719  0.4206 -0.2130 -0.6444
  747MOL0     C98508   2.230  -1.114   4.610  0.3421  1.0003  0.5901
  747MOL0     C98509   2.275  -1.021   4.503  0.5019  0.4878 -1.0256
  747MOL0     C98510   2.320  -1.103   4.377 -0.1783 -0.5468  0.3606
  747MOL0     C98511   2.360  -0.991   4.267  0.4897  0.7060  0.4055
  747MOL0     C98512   2.459  -0.874   4.297 -0.1868  0.0594  0.3712
  747MOL0     C98513   2.594  -0.915   4.336  0.5425 -0.5935 -1.0819
  747MOL0     C98514   2.688  -0.797   4.362 -0.4414  1.0892 -0.0420
  747MOL0     C98515   2.832  -0.852   4.389 -0.1930 -0.2110  0.3121
  747MOL0    Cl98516   2.829  -0.939   4.548 -0.0567 -0.0292 -0.3243
  747MOL0     C98517   2.175  -0.956   4.935  0.3449  0.0661 -1.0294
  747MOL0     C98518   2.238  -0.910   5.052 -0.4405  0.7240 -0.3830
  747MOL0     O98519   2.560  -1.086   5.202 -0.4293 -0.1143  0.0187
  747MOL0     C98520   2.604  -0.788   5.371 -0.1892 -0.5377  0.0156
  747MOL0     C98521   2.680  -0.730   5.469  0.7991 -0.4808  0.2590
  747MOL0     N98522   2.938  -0.394   6.106  0.6451  0.5413  0.3468
  747MOL0     N98523   2.834  -0.342   6.156  0.1476 -0.6393 -0.4146
  747MOL0     C98524   2.603   0.615   5.386  0.0667 -0.0210 -0.5347
  747MOL0     C98525   2.583   0.740   5.323  0.1096 -0.3416 -0.5358
  747MOL0     C98526   2.875   0.967   5.250 -0.9579 -0.1165  0.6023
  747MOL0     C98527   2.989   1.039   5.291  0.2724 -0.0767 -0.2073
  747MOL0     C98528   3.116   0.986   5.309 -0.2685  0.9885 -0.9323
  747MOL0     C98529   3.134   0.850   5.279 -0.9767 -0.5512  0.5534
  747MOL0     O98530   3.262   0.803   5.304 -0.5970  0.3763  0.2059
  747MOL0     C98531   3.279   0.683   5.229  0.3267  0.3313  0.1735
  747MOL0     C98532   3.434   0.649   5.238 -0.3447 -0.6772  0.0342
  747MOL0     C98533   3.483   0.556   5.121 -0.5956  0.1256 -0.9031
  747MOL0     C98534   3.630   0.506   5.126 -0.0081  0.5056 -0.3508
  747MOL0     C98535   3.643   0.423   5.254 -0.2312 -0.6593  0.4848
  747MOL0     C98536   3.668   0.354   5.348 -0.0463 -0.1913  0.4342
  747MOL0     C98537   3.025   0.776   5.236 -0.5074  0.7016  0.5689
  747MOL0     C98538   2.904   0.835   5.217  0.2515  0.3188  0.6024
  747MOL0     H98539   2.748   0.936   5.533  4.3348 -0.7491 -0.6417
  747MOL0     H98540   2.760   0.722   5.671  0.3546  1.7962  0.1163
  747MOL0     H98541   2.828   0.489   5.696  0.7359  1.4576 -0.1778
  747MOL0     H98542   2.854   0.443   5.530 -1.2814 -3.0398 -2.0601
  747MOL0     H98543   2.867   0.243   5.685  1.9687 -0.7637 -1.2535
  747MOL0     H98544   2.745   0.234   5.563 -1.1440 -1.3916  2.4652
  747MOL0     H98545   2.564   0.296   5.725  1.9369  3.3265 -0.6148
  747MOL0     H98546   2.686   0.312   5.849  1.2365 -2.5255 -0.0972
  747MOL0     H98547   2.669   0.038   5.728  0.5955  0.4892 -1.3668
  747MOL0     H98548   2.731   0.122   5.879 -0.1746  0.7579 -0.4880
  747MOL0     H98549   2.437   0.046   5.817 -0.4171  1.4881 -1.3122
  747MOL0     H98550   2.466   0.181   5.902  0.2985  1.1424 -3.8554
  747MOL0     H98551   2.447  -0.030   6.051 -0.3286 -0.6586 -2.0435
  747MOL0     H98552   2.604   0.042   6.082  2.5430 -2.3242  0.0318
  747MOL0     H98553   2.556  -0.197   5.908 -2.0930 -0.4881  2.5079
  747MOL0     H98554   2.712  -0.106   5.942 -1.0347  2.4567 -2.8551
  747MOL0     H98555   2.545  -0.286   6.123  0.0722  1.1641 -0.3048
  747MOL0     H98556   2.652  -0.162   6.179 -0.5138  0.7131  0.1693
  747MOL0     H98557   2.764  -0.340   5.847  4.0750  0.6175 -0.6537
  747MOL0     H98558   3.103  -0.501   5.922 -1.8938 -1.1913  1.1865
  747MOL0     H98559   3.051  -0.368   5.798 -0.8714 -0.4812 -0.5466
  747MOL0     H98560   3.027  -0.637   5.754 -2.1562 -0.7021 -0.4609
  747MOL0     H98561   2.902  -0.512   5.706 -0.5648 -1.0362 -0.7837
  747MOL0     H98562   2.896  -0.669   5.961  3.4881 -0.4589 -1.7045
  747MOL0     H98563   2.756  -0.599   5.864 -1.6572 -4.6998 -1.1071
  747MOL0     H98564   2.750  -0.835   5.816 -2.7168  2.5901 -2.1018
  747MOL0     H98565   2.923  -0.837   5.790 -1.1700 -0.9598 -0.8658
  747MOL0     H98566   2.826  -1.001   5.607 -0.5645  1.6411  1.8300
  747MOL0     H98567   2.694  -1.116   5.426  0.6565  0.4720  0.5131
  747MOL0     H98568   2.563  -0.961   4.953 -0.2706  2.4867 -0.5278
  747MOL0     H98569   2.449  -1.041   4.742 -2.4708  2.0330 -1.9084
  747MOL0     H98570   2.153  -1.182   4.571 -0.6877  1.3167  2.0094
  747MOL0     H98571   2.308  -1.178   4.651  0.9143  2.3360  1.6476
  747MOL0     H98572   2.349  -0.947   4.537 -2.7742  2.7491  1.8589
  747MOL0     H98573   2.193  -0.955   4.473  0.6310  0.3236 -1.7598
  747MOL0     H98574   2.234  -1.168   4.356 -0.1792 -2.8432  5.8919
  747MOL0     H98575   2.401  -1.172   4.400 -1.1853 -0.7536  3.8081
  747MOL0     H98576   2.395  -1.044   4.177 -1.1598 -5.2576  2.8207
  747MOL0     H98577   2.266  -0.942   4.241  0.2479  0.2497  0.4309
  747MOL0     H98578   2.412  -0.800   4.361 -3.1988  0.6249 -2.2438
  747MOL0     H98579   2.476  -0.836   4.196 -2.3891 -3.3141 -1.4753
  747MOL0     H98580   2.637  -0.973   4.254 -2.9021 -1.5884 -2.3578
  747MOL0     H98581   2.584  -0.981   4.423  1.5790  1.0646  0.3835
  747MOL0     H98582   2.693  -0.719   4.285  1.1144  3.4938  2.3290
  747MOL0     H98583   2.655  -0.738   4.448 -3.2697  0.1280 -0.3444
  747MOL0     H98584   2.898  -0.764   4.394 -0.4386  0.5123 -4.4993
  747MOL0     H98585   2.862  -0.915   4.305 -3.0270 -0.1267 -0.8795
  747MOL0     H98586   2.067  -0.948   4.930  0.3626  0.6941 -0.5954
  747MOL0     H98587   2.181  -0.896   5.143 -1.0763  1.8339 -0.9322
  747MOL0     H98588   2.548  -0.717   5.312  1.5276 -0.1139 -1.1784
  747MOL0     H98589   2.692  -0.625   5.489  1.3564  0.3322 -3.6071
  747MOL0     H98590   2.553   0.536   5.330 -0.6686  0.5575 -0.7175
  747MOL0     H98591   2.528   0.747   5.230 -0.7120  0.7161  0.0133
  747MOL0     H98592   2.978   1.143   5.320 -0.3645 -0.8367  2.5450
  747MOL0     H98593   3.195   1.054   5.339  1.4379 -0.8461 -1.0880
  747MOL0     H98594   3.249   0.720   5.131  0.4089 -1.1929 -0.4487
  747MOL0     H98595   3.223   0.599   5.270  4.3862 -1.8655  1.8642
  747MOL0     H98596   3.486   0.746   5.241 -1.5301 -0.0434  2.0340
  747MOL0     H98597   3.462   0.602   5.333 -1.6111 -0.5491  0.4865
  747MOL0     H98598   3.471   0.595   5.020 -3.1413 -1.5320 -1.3504
  747MOL0     H98599   3.417   0.468   5.123  1.1027 -1.1911  0.2160
  747MOL0     H98600   3.647   0.441   5.040 -2.6759  1.3442 -1.6366
  747MOL0     H98601   3.702   0.587   5.134  0.4558  0.2976 -2.1669
  747MOL0     H98602   3.678   0.317   5.448 -0.4672  0.7935  0.8517
  747MOL0     H98603   3.026   0.671   5.210 -1.1492  0.9616 -0.5619
  747MOL0     H98604   2.831   0.771   5.169  2.0398 -0.0179 -1.8911
  748MOL0     O98605  10.770   9.020   2.201  0.0892  0.4343  0.4554
  748MOL0     C98606  10.661   9.077   2.213 -0.5084 -0.9160  0.2433
  748MOL0     O98607  10.640   9.190   2.278  0.5889 -0.6320  0.4097
  748MOL0     C98608  10.753   9.242   2.343 -0.6305 -0.2339  0.4807
  748MOL0     C98609  10.807   9.182   2.456 -0.0937  0.3672  0.0641
  748MOL0     C98610  10.922   9.234   2.519  0.9990 -0.1197 -0.7116
  748MOL0     C98611  10.969   9.353   2.477 -0.0159  0.2140  0.7112
  748MOL0     O98612  11.068   9.415   2.550 -0.1346 -0.2946  0.7031
  748MOL0     C98613  11.022   9.449   2.680 -0.0355 -0.5195  0.7189
  748MOL0     C98614  11.113   9.378   2.778  0.7946 -0.3043  0.5499
  748MOL0     C98615  11.244   9.449   2.779  0.1864  0.1086 -0.2226
  748MOL0     C98616  11.357   9.399   2.854  0.0067  0.5199  0.1542
  748MOL0     C98617  11.418   9.280   2.777  0.1896  0.1543 -0.5746
  748MOL0     C98618  11.499   9.184   2.867 -0.1343  0.4802 -0.5047
  748MOL0     C98619  11.646   9.232   2.885 -0.2206  0.2516 -0.1626
  748MOL0     C98620  11.729   9.198   2.758 -0.6992  0.0093  0.6015
  748MOL0     N98621  11.871   9.214   2.783  0.3296 -0.0477  0.5209
  748MOL0     C98622  11.940   9.241   2.904  0.1050  0.3770 -0.3023
  748MOL0     C98623  12.064   9.261   2.864  0.6663  0.4883 -0.0333
  748MOL0     C98624  12.191   9.288   2.955  0.3707  0.4856 -0.3447
  748MOL0     C98625  12.267   9.160   2.976 -0.8599  0.2374  0.7807
  748MOL0     C98626  12.190   9.056   3.041 -0.8386  0.0501  0.0192
  748MOL0     C98627  12.279   8.929   3.072 -0.4709 -0.2510  0.6008
  748MOL0     O98628  12.181   8.835   3.120  0.3175 -0.3379 -0.1674
  748MOL0     C98629  12.207   8.703   3.130 -0.2438 -0.5833 -0.5073
  748MOL0     C98630  12.332   8.638   3.100  0.0232  0.0660  0.0812
  748MOL0     C98631  12.336   8.497   3.101 -1.0433  0.8917  0.5090
  748MOL0     C98632  12.221   8.426   3.137 -0.0636 -0.6495 -0.5920
  748MOL0     C98633  12.230   8.273   3.138 -0.5218  0.4787  0.0588
  748MOL0     O98634  12.353   8.218   3.154 -0.5508  0.7031  0.0477
  748MOL0     C98635  12.359   8.077   3.163  0.4272  0.2651 -0.9718
  748MOL0     C98636  12.383   8.012   3.045 -0.0777 -0.0143  0.5027
  748MOL0     C98637  12.395   7.870   3.050 -0.7827 -0.2816  0.1376
  748MOL0     C98638  12.381   7.802   3.161  0.5495  0.1201 -1.5777
  748MOL0     O98639  12.399   7.670   3.172 -0.4741 -0.2508  0.1149
  748MOL0     C98640  12.347   7.602   3.060 -0.2166  0.6778  0.0389
  748MOL0     C98641  12.330   7.455   3.120  0.0483  0.0190  0.9791
  748MOL0     C98642  12.279   7.363   3.008 -0.2912 -0.3970 -0.2117
  748MOL0     C98643  12.253   7.220   3.050  0.4632  0.5807 -0.0701
  748MOL0     C98644  12.212   7.128   2.936 -0.1136 -0.3331 -0.2173
  748MOL0     C98645  12.183   6.979   2.949 -0.5226  0.2800 -0.5704
  748MOL0     C98646  12.059   6.959   3.032  0.4288  0.3883  0.4130
  748MOL0     C98647  12.057   6.824   3.101  0.6793 -0.3232 -0.3038
  748MOL0    Cl98648  12.069   6.705   2.975 -0.0709  0.3219 -0.0541
  748MOL0     C98649  12.352   7.863   3.285  0.5647 -0.1291 -0.0688
  748MOL0     C98650  12.344   8.003   3.276 -0.1377 -1.4909 -0.0635
  748MOL0     O98651  12.122   8.209   3.131 -0.2861 -0.3274 -0.5443
  748MOL0     C98652  12.099   8.486   3.172 -0.3638 -0.0245  0.0256
  748MOL0     C98653  12.101   8.624   3.170  0.7426  0.3131 -0.0391
  748MOL0     N98654  12.077   9.232   2.732  0.0171  0.3744 -0.0404
  748MOL0     N98655  11.964   9.207   2.682  0.4476 -0.5555 -0.2425
  748MOL0     C98656  10.907   9.422   2.372 -0.2594  1.1628  0.3647
  748MOL0     C98657  10.801   9.370   2.305  0.4189  0.9765 -1.5048
  748MOL0     C98658  10.548   9.013   2.130  1.2258  0.1287  0.1496
  748MOL0     C98659  10.434   9.096   2.096  0.2512 -0.5704 -0.2733
  748MOL0     C98660  10.322   9.031   2.028 -0.1929 -0.5776  0.3054
  748MOL0     C98661  10.313   8.890   1.990 -0.4677 -0.7589  0.3369
  748MOL0     O98662  10.215   8.836   1.914 -0.2404  0.1819  0.0695
  748MOL0     C98663  10.085   8.873   1.960  0.7331  0.5626 -1.0958
  748MOL0     C98664   9.987   8.758   1.955 -0.7683  0.3890 -0.3043
  748MOL0     C98665  10.026   8.648   2.046 -1.0061  1.3147 -0.7353
  748MOL0     C98666   9.930   8.644   2.163 -0.3408  0.4520  0.0618
  748MOL0     C98667   9.945   8.771   2.235  0.5570  0.4088  0.6540
  748MOL0     C98668   9.934   8.879   2.287 -0.5721 -0.4423 -0.0402
  748MOL0     C98669  10.436   8.827   2.008  0.2739 -0.5535 -0.0867
  748MOL0     C98670  10.543   8.880   2.080 -0.5617 -1.1767  0.0057
  748MOL0     H98671  10.765   9.092   2.499 -3.7280  1.6127 -0.5383
  748MOL0     H98672  10.967   9.199   2.611 -3.5775  1.0177  2.2609
  748MOL0     H98673  10.917   9.431   2.706 -0.4314  1.4665  0.6452
  748MOL0     H98674  11.039   9.556   2.693 -0.3778 -0.3573 -0.0880
  748MOL0     H98675  11.119   9.270   2.765  2.5548 -0.4906  2.3277
  748MOL0     H98676  11.079   9.397   2.881  2.4792  4.3663  0.4931
  748MOL0     H98677  11.220   9.545   2.827 -3.2784 -0.4128 -0.6118
  748MOL0     H98678  11.282   9.466   2.678  2.2713 -1.7165  0.1732
  748MOL0     H98679  11.428   9.482   2.866  2.8308 -1.7066 -0.0602
  748MOL0     H98680  11.336   9.383   2.960  1.6106 -0.4450  0.3502
  748MOL0     H98681  11.489   9.323   2.706 -0.3758  2.3652  0.1267
  748MOL0     H98682  11.335   9.231   2.727 -1.5980  1.8357  0.6036
  748MOL0     H98683  11.495   9.086   2.820 -3.2065 -0.2311  0.9905
  748MOL0     H98684  11.452   9.168   2.965  2.2367  0.9100  0.7720
  748MOL0     H98685  11.664   9.336   2.915  1.3464  0.3813 -1.4525
  748MOL0     H98686  11.692   9.159   2.953  0.3642 -1.6757 -2.4916
  748MOL0     H98687  11.708   9.262   2.672  1.4722 -0.5456 -0.3954
  748MOL0     H98688  11.717   9.092   2.736  0.6568  0.0455 -0.4487
  748MOL0     H98689  11.914   9.225   3.008  2.5073  0.6787  0.4057
  748MOL0     H98690  12.155   9.330   3.049 -1.9609  0.2320 -1.0460
  748MOL0     H98691  12.260   9.366   2.921  3.0766 -1.8221 -0.4895
  748MOL0     H98692  12.360   9.165   3.034  0.6924 -0.1963 -1.4861
  748MOL0     H98693  12.296   9.132   2.874 -2.2240  1.4979  0.0147
  748MOL0     H98694  12.160   9.102   3.136 -0.7126 -0.5096  0.3379
  748MOL0     H98695  12.099   9.031   2.986  0.1440 -0.8864 -1.2489
  748MOL0     H98696  12.354   8.955   3.148  2.5836 -1.9763 -1.5893
  748MOL0     H98697  12.328   8.903   2.978  1.0529 -0.5414  1.4259
  748MOL0     H98698  12.424   8.695   3.087  0.3706  0.1128  2.3885
  748MOL0     H98699  12.422   8.435   3.076 -0.7781  0.0983  3.0672
  748MOL0     H98700  12.410   8.075   2.961  1.1891  1.0261  1.6221
  748MOL0     H98701  12.430   7.820   2.960  1.4409  2.3189 -0.5603
  748MOL0     H98702  12.413   7.607   2.973 -1.7192 -0.3746 -1.2230
  748MOL0     H98703  12.250   7.640   3.026  0.8451  2.8922 -0.7454
  748MOL0     H98704  12.254   7.437   3.196 -3.5438  0.9807 -2.0924
  748MOL0     H98705  12.426   7.410   3.146  1.4175  1.3367 -1.3817
  748MOL0     H98706  12.359   7.362   2.934 -2.7614  0.7792 -3.1527
  748MOL0     H98707  12.191   7.405   2.959  0.2767 -0.6743 -1.5073
  748MOL0     H98708  12.344   7.186   3.100  0.1866  1.1185  0.8182
  748MOL0     H98709  12.171   7.211   3.122 -0.1855 -3.6208 -1.0541
  748MOL0     H98710  12.298   7.137   2.869 -1.2753 -1.1138 -1.8967
  748MOL0     H98711  12.145   7.178   2.865  1.1285 -0.2537 -1.3841
  748MOL0     H98712  12.271   6.933   2.995  2.0913  2.4620 -3.0488
  748MOL0     H98713  12.174   6.941   2.847 -1.5481  0.3087 -0.5062
  748MOL0     H98714  12.038   7.035   3.108 -3.6207  0.4835 -0.5583
  748MOL0     H98715  11.978   6.987   2.964  1.2509  1.9716  0.0360
  748MOL0     H98716  11.959   6.805   3.147  0.8125 -2.1416 -0.6822
  748MOL0     H98717  12.139   6.805   3.170 -0.7976 -1.5422  1.2017
  748MOL0     H98718  12.357   7.810   3.380  2.0775  1.2327  0.6576
  748MOL0     H98719  12.337   8.060   3.368 -1.0814 -0.6173 -0.6495
  748MOL0     H98720  12.011   8.431   3.202  1.6555 -2.8482  1.1244
  748MOL0     H98721  12.006   8.663   3.205 -1.1104 -3.6172 -0.2359
  748MOL0     H98722  10.956   9.509   2.329  1.1024 -0.2355 -1.0220
  748MOL0     H98723  10.772   9.420   2.213 -1.5554  0.1637 -1.3649
  748MOL0     H98724  10.416   9.199   2.125  2.9903  1.0508 -3.5446
  748MOL0     H98725  10.231   9.088   2.014  1.3229  2.0678  0.3886
  748MOL0     H98726  10.050   8.955   1.896  0.1438 -0.9970 -2.8320
  748MOL0     H98727  10.092   8.900   2.066 -2.1563 -0.8959 -0.4360
  748MOL0     H98728   9.884   8.791   1.973 -1.1298 -1.9776  2.9400
  748MOL0     H98729   9.986   8.723   1.852 -2.6576  2.0238 -0.9012
  748MOL0     H98730  10.125   8.643   2.092 -0.2361 -2.0441 -2.4420
  748MOL0     H98731  10.024   8.550   1.998 -0.9322  1.1263 -0.3607
  748MOL0     H98732   9.829   8.643   2.119 -1.0337 -1.2218  1.5852
  748MOL0     H98733   9.947   8.560   2.231  0.1640  1.5248  1.2997
  748MOL0     H98734   9.923   8.971   2.342 -1.9954 -2.0903  2.6347
  748MOL0     H98735  10.438   8.724   1.973 -3.9051 -2.2441  3.6818
  748MOL0     H98736  10.625   8.812   2.105 -2.5621 -2.9909  2.0959
  749MOL0     O98737   9.482   7.167  10.711 -0.2186  0.2242  0.6243
  749MOL0     C98738   9.507   7.186  10.585 -0.9442  0.0269 -0.7280
  749MOL0     O98739   9.445   7.268  10.498  0.0486  0.3859  0.5834
  749MOL0     C98740   9.343   7.344  10.561  0.6094  0.4816  0.0346
  749MOL0     C98741   9.232   7.299  10.640  0.3601  0.2752 -0.2726
  749MOL0     C98742   9.142   7.389  10.695 -0.3430  0.4702 -0.4655
  749MOL0     C98743   9.162   7.525  10.679  0.5314 -0.0092  0.1668
  749MOL0     O98744   9.083   7.610  10.753  0.3104 -0.0397  0.4221
  749MOL0     C98745   9.079   7.740  10.710  0.2061 -0.2441  1.2544
  749MOL0     C98746   9.015   7.823  10.810 -0.3103 -0.5288 -0.1852
  749MOL0     C98747   9.109   7.859  10.928  0.7703 -0.7404 -0.3978
  749MOL0     C98748   9.033   7.959  11.032  0.2570 -0.0235 -0.5365
  749MOL0     C98749   9.101   7.986  11.167 -0.4644 -0.2611 -0.3053
  749MOL0     C98750   9.109   7.858  11.254 -0.5661  0.5323 -0.1656
  749MOL0     C98751   9.188   7.872  11.388 -0.2378  0.4986  1.0548
  749MOL0     C98752   9.139   7.977  11.482  0.0417  0.6139 -0.7840
  749MOL0     N98753   8.999   7.947  11.531 -0.1626  0.1831  0.1143
  749MOL0     C98754   8.967   7.834  11.615  0.6476 -0.1995  0.5039
  749MOL0     C98755   8.826   7.836  11.613 -0.0932  0.3018  0.7898
  749MOL0     C98756   8.721   7.750  11.683 -1.0880  0.1694  0.2345
  749MOL0     C98757   8.733   7.602  11.665 -0.8933 -0.6016  0.1780
  749MOL0     C98758   8.848   7.523  11.738 -0.2215 -0.1835  0.5043
  749MOL0     C98759   8.844   7.374  11.710 -0.1199 -0.1731 -0.5407
  749MOL0     O98760   8.710   7.327  11.720 -0.4663  1.1536 -0.3630
  749MOL0     C98761   8.675   7.253  11.832 -1.6584 -0.8791 -1.1827
  749MOL0     C98762   8.681   7.315  11.966 -0.4789  0.2749  0.5997
  749MOL0     C98763   8.620   7.247  12.079  0.0296  0.1859  1.1642
  749MOL0     C98764   8.579   7.110  12.062  0.7081 -0.0183  0.1907
  749MOL0     C98765   8.527   7.028  12.171  0.4913 -0.4456 -0.8166
  749MOL0     O98766   8.412   6.955  12.147  0.1311 -0.2647  1.1844
  749MOL0     C98767   8.355   6.899  12.256  0.4839 -0.1374  0.3136
  749MOL0     C98768   8.222   6.922  12.288  0.8996 -1.3964 -0.7876
  749MOL0     C98769   8.154   6.855  12.395 -0.9659  0.4742  0.6437
  749MOL0     C98770   8.226   6.745  12.454 -0.6409 -0.4591  0.2082
  749MOL0     O98771   8.162   6.673  12.550 -0.4232 -0.7886  0.6151
  749MOL0     C98772   8.189   6.538  12.553 -0.4694  0.2028 -0.0294
  749MOL0     C98773   8.072   6.472  12.621 -0.3478  0.0101  0.8600
  749MOL0     C98774   8.104   6.333  12.664 -0.1648 -0.0810 -0.5518
  749MOL0     C98775   8.217   6.317  12.770 -0.4485  0.2713 -0.3922
  749MOL0     C98776   8.205   6.188  12.850 -0.0596  0.6455  0.4547
  749MOL0     C98777   8.310   6.183  12.965 -0.2762  0.1963  0.6693
  749MOL0     C98778   8.361   6.035  12.998 -0.2182 -1.2518  0.3313
  749MOL0     C98779   8.438   6.028  13.128 -0.7480  0.0951  0.3914
  749MOL0    Cl98780   8.389   6.156  13.254  0.6620  0.4176  0.0695
  749MOL0     C98781   8.360   6.728  12.421 -0.7696 -0.5082 -2.0175
  749MOL0     C98782   8.421   6.800  12.326 -0.0879 -0.1912  1.0759
  749MOL0     O98783   8.568   7.069  12.281 -0.8187  0.1913 -0.9206
  749MOL0     C98784   8.578   7.054  11.930 -0.6120 -0.5822  0.2123
  749MOL0     C98785   8.615   7.131  11.818  0.2981  0.6123 -1.4317
  749MOL0     N98786   8.779   7.942  11.530 -0.0617  0.1323  0.8317
  749MOL0     N98787   8.887   8.006  11.475  0.0858  0.3763  0.3205
  749MOL0     C98788   9.265   7.570  10.598  0.4616 -0.2038 -0.2168
  749MOL0     C98789   9.349   7.477  10.537  0.4977 -0.2548  0.0404
  749MOL0     C98790   9.616   7.106  10.528 -0.1640  0.8473  1.0489
  749MOL0     C98791   9.607   7.031  10.406  0.3552  0.0522 -0.4972
  749MOL0     C98792   9.736   6.990  10.348  0.2362 -0.2402 -0.1318
  749MOL0     C98793   9.854   6.993  10.419 -0.2655 -0.2308  0.5837
  749MOL0     O98794   9.958   6.951  10.343 -0.4012  0.2343  0.0190
  749MOL0     C98795  10.076   7.025  10.376 -0.1785  0.1384  0.9109
  749MOL0     C98796  10.150   6.941  10.484 -1.0508  0.0696  0.9598
  749MOL0     C98797  10.274   7.029  10.524  0.2378  0.0285  0.1064
  749MOL0     C98798  10.328   6.993  10.660 -0.2153  0.2587 -0.8960
  749MOL0     C98799  10.415   6.874  10.657 -0.8193 -0.7237  0.4243
  749MOL0     C98800  10.480   6.773  10.663  0.0696 -0.5953  0.5729
  749MOL0     C98801   9.855   7.061  10.544 -0.4019  0.8798  0.3505
  749MOL0     C98802   9.735   7.118  10.596 -0.2365 -1.6464  0.3561
  749MOL0     H98803   9.234   7.192  10.659 -0.1483  0.3023 -0.0571
  749MOL0     H98804   9.071   7.347  10.766  2.2078 -1.0490  1.3833
  749MOL0     H98805   9.031   7.753  10.612  1.4796  3.2573  0.9205
  749MOL0     H98806   9.180   7.782  10.705  1.4704 -3.1664 -1.9266
  749MOL0     H98807   8.940   7.756  10.854  0.8799  0.3303  3.5740
  749MOL0     H98808   8.988   7.923  10.775  2.9734  0.6865  0.3702
  749MOL0     H98809   9.209   7.898  10.907 -0.0345  2.8350  1.5203
  749MOL0     H98810   9.130   7.767  10.982 -0.2573 -0.1066  1.1412
  749MOL0     H98811   9.017   8.058  10.986 -0.2549 -0.0238 -0.3645
  749MOL0     H98812   8.934   7.919  11.053 -0.0668  0.5625 -0.9235
  749MOL0     H98813   9.040   8.062  11.217 -0.1913  0.3422 -0.8761
  749MOL0     H98814   9.207   8.013  11.155 -0.4156 -0.7383 -0.9626
  749MOL0     H98815   9.152   7.775  11.197 -1.7022  0.5330 -1.0575
  749MOL0     H98816   9.004   7.836  11.273 -1.1217  1.9164 -1.4218
  749MOL0     H98817   9.165   7.780  11.443  0.0372 -1.2238 -1.5213
  749MOL0     H98818   9.295   7.885  11.371 -0.1702 -1.6021 -0.5351
  749MOL0     H98819   9.131   8.077  11.438 -1.2805  0.3190 -1.2468
  749MOL0     H98820   9.209   7.975  11.566  1.6424  0.5687 -2.0600
  749MOL0     H98821   9.035   7.765  11.663  2.1829 -0.3816 -1.7416
  749MOL0     H98822   8.628   7.782  11.635  0.8307  3.1142 -1.8548
  749MOL0     H98823   8.711   7.778  11.788 -4.0483  1.9342 -0.3916
  749MOL0     H98824   8.735   7.596  11.556  3.5918  0.4618 -0.0111
  749MOL0     H98825   8.639   7.560  11.701  0.1458 -2.1157  1.2704
  749MOL0     H98826   8.944   7.554  11.696 -1.1357 -0.1213 -1.6793
  749MOL0     H98827   8.847   7.538  11.846  1.5854  2.1420  0.2848
  749MOL0     H98828   8.911   7.316  11.774  1.8068  1.8259 -0.5972
  749MOL0     H98829   8.876   7.347  11.609  1.3299  0.3466 -0.2459
  749MOL0     H98830   8.725   7.413  11.984  0.7394  0.2851 -1.8720
  749MOL0     H98831   8.608   7.285  12.180 -4.6553 -1.9316  1.6769
  749MOL0     H98832   8.163   6.996  12.235  1.0883 -2.5268 -2.6900
  749MOL0     H98833   8.047   6.865  12.405 -0.8845 -0.0179  2.2714
  749MOL0     H98834   8.283   6.518  12.604 -0.6313 -0.0970  0.1552
  749MOL0     H98835   8.211   6.493  12.456  4.2937  2.3649 -0.2158
  749MOL0     H98836   7.991   6.468  12.549 -1.4872 -0.4538  2.1255
  749MOL0     H98837   8.032   6.541  12.696 -2.5170 -0.3199  0.0489
  749MOL0     H98838   8.143   6.275  12.580  3.7153  0.3414  0.7792
  749MOL0     H98839   8.007   6.296  12.700 -0.6826  3.1909  1.8341
  749MOL0     H98840   8.315   6.332  12.724  1.0122  4.5445  3.3586
  749MOL0     H98841   8.205   6.397  12.843  1.2886  0.1127  0.1234
  749MOL0     H98842   8.225   6.108  12.778  2.9972 -0.8573  2.7308
  749MOL0     H98843   8.103   6.167  12.883  0.9816 -1.6426  2.5090
  749MOL0     H98844   8.271   6.236  13.052 -1.2755 -0.4747  0.6473
  749MOL0     H98845   8.389   6.255  12.940 -0.2892  0.3325  1.0217
  749MOL0     H98846   8.273   5.970  13.004 -0.6576 -0.5559  2.1337
  749MOL0     H98847   8.425   5.991  12.921  2.2254 -0.0633  1.5661
  749MOL0     H98848   8.545   6.039  13.109 -0.1312 -4.3084  0.0543
  749MOL0     H98849   8.428   5.932  13.181 -0.7359  1.5835  3.2908
  749MOL0     H98850   8.411   6.638  12.454  0.4730  0.0816 -2.2743
  749MOL0     H98851   8.522   6.775  12.296 -0.0690 -0.3031  1.2313
  749MOL0     H98852   8.534   6.958  11.907 -1.7954  0.1433 -0.6655
  749MOL0     H98853   8.597   7.080  11.724  1.6160 -0.7528 -0.9890
  749MOL0     H98854   9.283   7.674  10.576 -3.6663  0.7103 -0.0499
  749MOL0     H98855   9.437   7.511  10.483 -1.4249  2.0100 -1.9052
  749MOL0     H98856   9.509   7.010  10.363  0.1745 -4.5490  1.4914
  749MOL0     H98857   9.736   6.944  10.250  0.1453 -0.5936  0.0338
  749MOL0     H98858  10.050   7.128  10.402  0.3779  0.0960  1.6531
  749MOL0     H98859  10.147   7.020  10.293 -1.8754 -1.4088 -0.5434
  749MOL0     H98860  10.090   6.903  10.568 -1.0003 -1.8114  0.1763
  749MOL0     H98861  10.192   6.847  10.447  2.8693  2.3962 -1.1298
  749MOL0     H98862  10.246   7.135  10.529 -2.1243 -0.5123 -0.1442
  749MOL0     H98863  10.346   7.021  10.441  1.2387  1.3970  0.8194
  749MOL0     H98864  10.387   7.078  10.694  1.3579 -1.6701  1.5545
  749MOL0     H98865  10.249   6.963  10.730 -0.4825  0.5135 -1.0883
  749MOL0     H98866  10.523   6.676  10.679 -0.0594 -1.2302 -2.3181
  749MOL0     H98867   9.941   7.067  10.609  1.8339 -0.4980 -2.2283
  749MOL0     H98868   9.736   7.164  10.695  1.1663 -4.0178  1.5470
  750MOL0     O98869  10.660   8.237   3.054 -0.6495 -0.7531 -0.1283
  750MOL0     C98870  10.737   8.241   3.154  0.5422  0.0994 -0.7067
  750MOL0     O98871  10.789   8.143   3.231 -0.1848  0.1532 -0.4490
  750MOL0     C98872  10.754   8.016   3.187  0.1826 -0.7928 -0.1589
  750MOL0     C98873  10.846   7.957   3.108  0.7392  0.5993  0.3071
  750MOL0     C98874  10.828   7.825   3.076 -0.4476  0.2942  0.5684
  750MOL0     C98875  10.723   7.752   3.134  0.2470 -0.5046  0.4310
  750MOL0     O98876  10.713   7.617   3.135 -0.1378 -0.2274  0.4131
  750MOL0     C98877  10.780   7.548   3.027  0.1485 -0.1544  1.1243
  750MOL0     C98878  10.764   7.400   3.014  0.7604  1.3802 -0.1290
  750MOL0     C98879  10.761   7.355   2.864  0.6005  0.3799 -0.0185
  750MOL0     C98880  10.895   7.350   2.799  1.0701 -0.2177 -0.9461
  750MOL0     C98881  10.883   7.284   2.663  0.4350 -0.7059  0.8220
  750MOL0     C98882  11.025   7.292   2.581 -0.2890  0.6833 -0.8508
  750MOL0     C98883  11.046   7.422   2.527  0.6160 -1.0320  0.1863
  750MOL0     C98884  10.987   7.451   2.387  0.4359 -0.5184  0.4427
  750MOL0     N98885  11.046   7.386   2.273  0.6644  0.2871  0.0706
  750MOL0     C98886  10.991   7.302   2.187  0.1967 -0.1064  0.2617
  750MOL0     C98887  11.083   7.280   2.092 -0.4373 -1.2047 -0.4582
  750MOL0     C98888  11.053   7.198   1.968  0.3312 -0.1797 -0.8084
  750MOL0     C98889  11.182   7.184   1.870  0.8951  0.3215  0.6020
  750MOL0     C98890  11.180   7.290   1.760  0.2756  0.6527 -0.4315
  750MOL0     C98891  11.171   7.441   1.806  0.4944  0.3479 -0.1586
  750MOL0     O98892  11.180   7.536   1.691 -0.1737 -0.4607 -0.3672
  750MOL0     C98893  11.193   7.675   1.719 -0.0245 -0.7214 -0.6010
  750MOL0     C98894  11.224   7.747   1.607 -0.1637  0.2219 -0.9600
  750MOL0     C98895  11.235   7.889   1.627 -0.1369  0.1389  0.5800
  750MOL0     C98896  11.192   7.957   1.741  0.8825 -0.4235 -1.0788
  750MOL0     C98897  11.184   8.103   1.747 -0.2704 -0.0050  0.0852
  750MOL0     O98898  11.168   8.159   1.869 -0.0982  0.0135  0.1011
  750MOL0     C98899  11.133   8.292   1.869 -0.0977  0.2694  0.2709
  750MOL0     C98900  11.000   8.321   1.859  0.0223  0.4486  0.3711
  750MOL0     C98901  10.972   8.458   1.828  1.2891 -0.5684 -0.1837
  750MOL0     C98902  11.075   8.557   1.820  0.6716 -0.0743 -0.2360
  750MOL0     O98903  11.035   8.683   1.782 -0.7009 -0.1278 -0.5213
  750MOL0     C98904  11.127   8.785   1.764 -0.4219 -0.4169  0.2590
  750MOL0     C98905  11.044   8.907   1.718 -0.0724 -1.3996 -0.4367
  750MOL0     C98906  11.134   9.013   1.663  0.0558 -0.9328  0.4806
  750MOL0     C98907  11.067   9.152   1.665 -0.4776 -0.2678 -0.8526
  750MOL0     C98908  11.120   9.261   1.563 -0.3663 -0.3499 -0.4132
  750MOL0     C98909  11.262   9.309   1.603 -0.0738 -0.7056  0.6776
  750MOL0     C98910  11.337   9.345   1.471 -0.1785  0.3123 -1.0824
  750MOL0     C98911  11.398   9.219   1.399 -0.5450  0.3780 -0.6764
  750MOL0    Cl98912  11.516   9.135   1.487 -0.2356  0.2527  0.0116
  750MOL0     C98913  11.200   8.515   1.849 -0.3211 -0.1337  0.3190
  750MOL0     C98914  11.236   8.382   1.873 -1.0616 -0.1104 -0.2223
  750MOL0     O98915  11.200   8.165   1.643 -0.0509  0.1350  0.9328
  750MOL0     C98916  11.163   7.879   1.855  0.3788 -0.0655  0.7127
  750MOL0     C98917  11.163   7.736   1.839 -0.5767 -0.1492 -0.6040
  750MOL0     N98918  11.198   7.343   2.128  0.0671  1.0430 -0.7065
  750MOL0     N98919  11.176   7.408   2.233  0.0249  0.0801  0.6110
  750MOL0     C98920  10.626   7.818   3.210  0.2748 -0.3873 -0.1270
  750MOL0     C98921  10.641   7.953   3.241  0.2611 -0.4741 -0.9208
  750MOL0     C98922  10.766   8.372   3.211 -0.6267  0.0115  0.4078
  750MOL0     C98923  10.815   8.400   3.337 -0.2635  0.0073 -0.3910
  750MOL0     C98924  10.832   8.532   3.384  0.3361 -1.2760 -0.4430
  750MOL0     C98925  10.802   8.645   3.310 -0.5732 -0.3533  0.5601
  750MOL0     O98926  10.811   8.779   3.342  0.2502 -0.6018  0.0069
  750MOL0     C98927  10.881   8.830   3.460 -0.1755  1.0292  0.2127
  750MOL0     C98928  11.036   8.823   3.436  0.0293  0.5797  0.9972
  750MOL0     C98929  11.106   8.921   3.341 -0.0250 -0.2538  0.1629
  750MOL0     C98930  11.101   8.893   3.191  0.9389  0.3996 -0.0060
  750MOL0     C98931  11.208   8.801   3.157  0.5686 -0.1467  0.0644
  750MOL0     C98932  11.286   8.719   3.116  0.0739  0.6355  0.3134
  750MOL0     C98933  10.766   8.619   3.176  0.4933 -0.7373  0.2182
  750MOL0     C98934  10.757   8.490   3.132 -0.6821 -0.2157  0.0874
  750MOL0     H98935  10.933   8.016   3.079  0.8812 -0.1973 -0.9568
  750MOL0     H98936  10.889   7.768   3.006  1.5999  1.4369  1.3280
  750MOL0     H98937  10.888   7.565   3.032  0.2427 -0.0972 -0.5714
  750MOL0     H98938  10.740   7.587   2.934  2.5802  1.0703  0.5043
  750MOL0     H98939  10.670   7.374   3.064 -1.5386  2.0286 -3.7644
  750MOL0     H98940  10.844   7.347   3.066 -0.4593 -2.0099 -1.3891
  750MOL0     H98941  10.699   7.420   2.803  0.0185 -2.7242 -3.0408
  750MOL0     H98942  10.710   7.259   2.854  3.5287 -1.1604 -1.6531
  750MOL0     H98943  10.929   7.454   2.791  0.2820  0.1304  0.0370
  750MOL0     H98944  10.966   7.290   2.856 -0.0447  1.6500  2.7783
  750MOL0     H98945  10.801   7.333   2.609 -0.1445 -1.4841  0.9884
  750MOL0     H98946  10.862   7.178   2.674 -2.2584 -0.1156  2.2052
  750MOL0     H98947  11.023   7.218   2.500 -1.2704 -1.7139  1.2183
  750MOL0     H98948  11.105   7.260   2.648 -1.7160  0.7760  0.9758
  750MOL0     H98949  11.010   7.493   2.602 -0.9647 -0.0264 -1.4292
  750MOL0     H98950  11.152   7.446   2.514  0.6637 -1.2317  0.1966
  750MOL0     H98951  10.998   7.557   2.362  0.2619 -0.7124 -0.5099
  750MOL0     H98952  10.881   7.424   2.391  0.5454 -0.9491  0.5360
  750MOL0     H98953  10.886   7.275   2.178 -0.5387  3.0622 -3.1813
  750MOL0     H98954  10.971   7.240   1.908  1.2829 -2.2761 -3.7784
  750MOL0     H98955  11.026   7.097   2.001  4.5828 -0.5862  2.2831
  750MOL0     H98956  11.184   7.083   1.828  0.9352  2.0723 -4.2610
  750MOL0     H98957  11.271   7.197   1.933  2.6540 -2.0592 -1.2035
  750MOL0     H98958  11.272   7.262   1.708  1.2138  0.7796  1.0837
  750MOL0     H98959  11.100   7.266   1.689 -1.8504 -0.9943  2.3287
  750MOL0     H98960  11.256   7.468   1.869  1.9481  0.9308 -2.2693
  750MOL0     H98961  11.078   7.460   1.861  2.4037 -1.1498  4.0633
  750MOL0     H98962  11.243   7.696   1.513 -1.5917  0.7340 -1.5487
  750MOL0     H98963  11.263   7.945   1.539 -1.3110 -1.1984 -0.7049
  750MOL0     H98964  10.924   8.244   1.846  0.1619  0.6119 -1.7404
  750MOL0     H98965  10.869   8.485   1.810 -0.0585 -4.4007  0.6830
  750MOL0     H98966  11.204   8.762   1.690 -0.5447  0.3559 -0.1259
  750MOL0     H98967  11.175   8.812   1.859  0.6242  0.9358 -0.6009
  750MOL0     H98968  10.987   8.950   1.801 -1.2475  2.3531 -2.9436
  750MOL0     H98969  10.973   8.888   1.636 -1.1125  3.5280 -0.9478
  750MOL0     H98970  11.144   8.982   1.558 -0.7333  0.4975 -0.0533
  750MOL0     H98971  11.226   9.003   1.720  0.8518 -4.9770 -1.1309
  750MOL0     H98972  10.960   9.139   1.650 -0.5937  0.2679 -0.5231
  750MOL0     H98973  11.079   9.185   1.769  0.1111 -2.4671 -0.1715
  750MOL0     H98974  11.065   9.355   1.555 -2.0570 -1.2922 -0.4915
  750MOL0     H98975  11.126   9.204   1.469  2.3559 -2.9928  1.1752
  750MOL0     H98976  11.316   9.228   1.652  4.1963  1.3486 -0.1990
  750MOL0     H98977  11.250   9.393   1.672 -2.5592  0.1234 -0.6121
  750MOL0     H98978  11.279   9.401   1.397  1.7466  2.1045 -1.3055
  750MOL0     H98979  11.417   9.410   1.507 -0.1653 -0.7077  0.8847
  750MOL0     H98980  11.446   9.264   1.312 -0.3484  0.1254 -0.6990
  750MOL0     H98981  11.321   9.147   1.368 -1.3086  1.4775 -1.4198
  750MOL0     H98982  11.286   8.582   1.846  0.4886 -0.8565 -5.8168
  750MOL0     H98983  11.340   8.365   1.897 -0.8652  2.9114  1.4783
  750MOL0     H98984  11.130   7.922   1.949 -0.4949 -0.4097  0.5669
  750MOL0     H98985  11.130   7.680   1.926  2.2612  1.4782  1.7133
  750MOL0     H98986  10.536   7.762   3.234  0.4768 -1.7185 -2.2518
  750MOL0     H98987  10.570   8.006   3.304 -0.4184 -0.1423 -1.9378
  750MOL0     H98988  10.851   8.323   3.405  2.2649  0.6748 -0.8752
  750MOL0     H98989  10.865   8.553   3.485  0.0619  0.7813 -0.7199
  750MOL0     H98990  10.856   8.784   3.556 -0.0751 -0.1608 -0.3202
  750MOL0     H98991  10.838   8.930   3.476  2.7392  2.1549  1.6616
  750MOL0     H98992  11.068   8.825   3.540 -0.9332 -0.3940  1.3272
  750MOL0     H98993  11.065   8.721   3.410  4.4383  1.1713  2.7982
  750MOL0     H98994  11.212   8.925   3.368 -0.2273  3.0121  0.8218
  750MOL0     H98995  11.066   9.016   3.376  0.3111  0.1375 -0.5063
  750MOL0     H98996  11.002   8.860   3.158  1.3053 -0.5214 -0.2194
  750MOL0     H98997  11.130   8.988   3.146  1.7165 -0.7306 -2.0377
  750MOL0     H98998  11.353   8.656   3.062 -0.5240  0.1312  0.1467
  750MOL0     H98999  10.743   8.703   3.111  2.2940 -0.3094  0.0815
  750MOL0     H99000  10.715   8.475   3.033 -1.8039 -0.4549  0.5857
  751MOL0     O99001   2.682   1.720  10.991 -0.1564 -1.0304 -0.0211
  751MOL0     C99002   2.592   1.653  10.950 -0.1990 -0.2028  0.2632
  751MOL0     O99003   2.598   1.566  10.839 -0.4728  0.3874  0.2559
  751MOL0     C99004   2.701   1.576  10.748 -0.2984  1.0699  0.1133
  751MOL0     C99005   2.743   1.460  10.692 -0.1165 -0.1997 -0.2200
  751MOL0     C99006   2.843   1.476  10.603 -0.2191 -0.0683  0.6220
  751MOL0     C99007   2.892   1.598  10.551 -0.5582 -0.6951 -0.4459
  751MOL0     O99008   2.994   1.592  10.457  0.0813 -0.0631  0.0338
  751MOL0     C99009   3.077   1.706  10.436  0.5549  1.0174  0.2797
  751MOL0     C99010   3.180   1.698  10.544 -0.6664  0.5232 -0.2754
  751MOL0     C99011   3.325   1.749  10.499 -0.7974 -0.0686  0.5713
  751MOL0     C99012   3.423   1.744  10.611  0.6901  0.3975 -0.3158
  751MOL0     C99013   3.553   1.674  10.584  0.0122  0.8933  0.8103
  751MOL0     C99014   3.521   1.527  10.546  0.8283 -0.0337  0.3815
  751MOL0     C99015   3.653   1.459  10.522 -0.2181  0.7102 -0.8847
  751MOL0     C99016   3.645   1.311  10.495 -0.2670  0.3148  0.0242
  751MOL0     N99017   3.785   1.239  10.487  1.0941 -0.4857  0.0630
  751MOL0     C99018   3.898   1.308  10.454 -0.6565 -0.1187 -0.6251
  751MOL0     C99019   3.997   1.219  10.475 -1.1044  0.6281  0.7955
  751MOL0     C99020   4.142   1.245  10.446 -0.9519 -0.2874 -0.4446
  751MOL0     C99021   4.187   1.245  10.299  1.4763  0.2258 -0.5722
  751MOL0     C99022   4.331   1.212  10.268 -0.5882 -0.2176  0.0039
  751MOL0     C99023   4.376   1.165  10.129  0.9215  0.1745 -0.3874
  751MOL0     O99024   4.508   1.207  10.109  1.1518 -0.6546  0.2731
  751MOL0     C99025   4.614   1.174  10.192  0.7696 -0.3176  0.4442
  751MOL0     C99026   4.701   1.279  10.204  0.5527  0.6345  0.2549
  751MOL0     C99027   4.827   1.265  10.273  0.7138 -0.9463  1.3774
  751MOL0     C99028   4.861   1.135  10.323  1.3370  0.0567  0.6530
  751MOL0     C99029   4.968   1.114  10.418 -0.3389 -0.6509 -0.5812
  751MOL0     O99030   5.031   1.228  10.444  0.2697 -0.1327  0.2119
  751MOL0     C99031   5.124   1.236  10.540  0.0544  0.9440 -0.2979
  751MOL0     C99032   5.086   1.210  10.672 -0.6363 -0.1554 -0.8097
  751MOL0     C99033   5.179   1.204  10.779  0.0267 -0.1227  0.2586
  751MOL0     C99034   5.305   1.255  10.748  0.3072 -0.0361  0.0214
  751MOL0     O99035   5.380   1.278  10.863 -0.4486  0.4700  0.3187
  751MOL0     C99036   5.506   1.346  10.850 -0.8549  0.0192 -0.6547
  751MOL0     C99037   5.571   1.333  10.994 -0.1746  0.0629 -0.4171
  751MOL0     C99038   5.666   1.208  11.018 -0.0945  0.4282 -0.4814
  751MOL0     C99039   5.733   1.214  11.154  0.1738  0.2340 -1.0004
  751MOL0     C99040   5.625   1.205  11.267 -0.9550 -1.1728 -0.1042
  751MOL0     C99041   5.687   1.198  11.412 -0.2532 -0.6767 -0.1352
  751MOL0     C99042   5.575   1.144  11.513 -0.1135  0.6645  0.4136
  751MOL0     C99043   5.632   1.106  11.649 -0.3599 -0.4225 -0.2493
  751MOL0    Cl99044   5.642   1.260  11.745  0.0859 -0.2942  0.0433
  751MOL0     C99045   5.353   1.285  10.619  1.2187 -0.1182  0.3261
  751MOL0     C99046   5.256   1.258  10.516 -0.4356  0.3687  0.3078
  751MOL0     O99047   4.993   1.002  10.472 -0.1651 -0.2156  0.0781
  751MOL0     C99048   4.774   1.031  10.299  0.3581 -0.4980  0.0648
  751MOL0     C99049   4.643   1.051  10.233 -0.1862  0.2213 -0.4724
  751MOL0     N99050   3.944   1.103  10.527 -0.1888  0.1807  0.4840
  751MOL0     N99051   3.816   1.116  10.532  0.6408  0.4836 -0.1818
  751MOL0     C99052   2.842   1.716  10.607  0.3197 -0.0193 -1.1943
  751MOL0     C99053   2.746   1.703  10.713  0.2319  0.7227  0.3985
  751MOL0     C99054   2.459   1.674  11.018 -0.2668  0.4103  0.2426
  751MOL0     C99055   2.452   1.755  11.133  0.4879 -0.2461  0.4967
  751MOL0     C99056   2.327   1.765  11.199 -0.7051 -0.5808  0.2796
  751MOL0     C99057   2.208   1.692  11.161 -0.8326 -1.1563  0.7215
  751MOL0     O99058   2.096   1.694  11.228  0.4594 -0.8037  0.0442
  751MOL0     C99059   1.992   1.586  11.210  0.4681 -0.9700 -0.3775
  751MOL0     C99060   1.882   1.623  11.105  0.2090 -0.0956 -0.0072
  751MOL0     C99061   1.794   1.513  11.059  0.3570 -0.0568  0.3821
  751MOL0     C99062   1.690   1.559  10.960  0.1206  0.3875  0.5995
  751MOL0     C99063   1.735   1.594  10.822  0.9904  1.6932  0.0456
  751MOL0     C99064   1.770   1.617  10.710  0.7613 -0.4851  0.0903
  751MOL0     C99065   2.222   1.612  11.043 -0.9156 -0.1421  0.0608
  751MOL0     C99066   2.351   1.609  10.972  0.0127  0.0562 -0.8361
  751MOL0     H99067   2.697   1.365  10.718  0.0698  0.4025  2.5616
  751MOL0     H99068   2.888   1.391  10.553 -1.4654  0.3811 -1.4068
  751MOL0     H99069   3.035   1.807  10.433  2.4263  1.8547  0.8686
  751MOL0     H99070   3.128   1.690  10.341 -0.8688 -1.6940 -0.1273
  751MOL0     H99071   3.190   1.591  10.560 -0.8531  0.3506 -1.2397
  751MOL0     H99072   3.148   1.753  10.633 -0.8869 -2.5311  1.6765
  751MOL0     H99073   3.320   1.854  10.470 -1.5572  0.1140  1.3422
  751MOL0     H99074   3.352   1.686  10.414 -3.3543  0.6781 -0.8964
  751MOL0     H99075   3.437   1.848  10.642 -0.4452  1.0715 -1.9084
  751MOL0     H99076   3.382   1.685  10.694  1.3744 -1.2000 -1.0870
  751MOL0     H99077   3.607   1.676  10.680  0.1152 -1.5948  0.8618
  751MOL0     H99078   3.610   1.724  10.505  0.8763 -0.1322  0.7619
  751MOL0     H99079   3.455   1.514  10.460  1.4867 -0.7619 -0.0292
  751MOL0     H99080   3.465   1.474  10.623 -2.4611  1.9469 -0.4751
  751MOL0     H99081   3.707   1.515  10.446 -2.2839  3.6477 -0.3587
  751MOL0     H99082   3.708   1.475  10.616  1.2737 -1.8454 -1.2333
  751MOL0     H99083   3.590   1.292  10.403 -1.4254 -0.0983  0.7786
  751MOL0     H99084   3.583   1.264  10.571  1.2877 -0.7016  0.7110
  751MOL0     H99085   3.913   1.407  10.413  0.3994 -0.7892 -1.9598
  751MOL0     H99086   4.205   1.175  10.502 -1.7431 -0.6179  0.0493
  751MOL0     H99087   4.164   1.345  10.483 -0.9959  0.1243 -1.4983
  751MOL0     H99088   4.162   1.343  10.256  1.0346 -0.7844 -2.7973
  751MOL0     H99089   4.127   1.163  10.257  1.4968  0.5944 -1.3546
  751MOL0     H99090   4.392   1.299  10.296  0.9542 -0.9692 -0.8960
  751MOL0     H99091   4.358   1.137  10.342  0.7867  0.2125 -0.0329
  751MOL0     H99092   4.311   1.219  10.059 -2.3416 -1.3827  1.2285
  751MOL0     H99093   4.353   1.060  10.108  1.9657 -0.4603  1.4425
  751MOL0     H99094   4.679   1.378  10.167  3.0529 -0.0429 -3.6251
  751MOL0     H99095   4.896   1.349  10.284  3.4731 -2.9790  0.6322
  751MOL0     H99096   4.982   1.185  10.692 -0.8472  1.9036  1.0259
  751MOL0     H99097   5.134   1.188  10.877 -0.2145 -1.5765 -0.0594
  751MOL0     H99098   5.486   1.449  10.818  3.5427  2.7405  3.7450
  751MOL0     H99099   5.576   1.307  10.777  0.6020 -1.8351  1.5869
  751MOL0     H99100   5.500   1.337  11.078 -0.7377  0.0866 -0.8863
  751MOL0     H99101   5.636   1.417  11.018  0.2170 -0.3928  0.1314
  751MOL0     H99102   5.740   1.211  10.938 -0.6408 -2.7200 -1.2595
  751MOL0     H99103   5.602   1.120  11.008 -0.8950  0.6784  1.7951
  751MOL0     H99104   5.809   1.136  11.162  3.5764  3.1432 -2.3388
  751MOL0     H99105   5.783   1.311  11.158 -1.6193  1.1583  1.8045
  751MOL0     H99106   5.571   1.110  11.258  0.3406 -2.2961  2.8412
  751MOL0     H99107   5.574   1.301  11.259  0.2309  0.1915  5.1776
  751MOL0     H99108   5.718   1.296  11.449  0.9884 -1.5495  1.2764
  751MOL0     H99109   5.770   1.127  11.411 -0.2155 -0.6296 -0.8662
  751MOL0     H99110   5.487   1.209  11.518 -0.4287  0.3484 -0.6947
  751MOL0     H99111   5.536   1.050  11.472  1.4330 -0.0355  0.4921
  751MOL0     H99112   5.732   1.062  11.641  0.7216  2.0114 -1.1409
  751MOL0     H99113   5.572   1.039  11.710 -0.2447 -1.4158 -1.2029
  751MOL0     H99114   5.453   1.322  10.599  0.8097  0.8709  0.0286
  751MOL0     H99115   5.280   1.266  10.410  1.9685 -0.2035  0.7436
  751MOL0     H99116   4.815   0.938  10.338  0.0765 -0.1720  1.1790
  751MOL0     H99117   4.578   0.967  10.212  0.4982 -0.5566  0.4399
  751MOL0     H99118   2.864   1.818  10.576  2.7443  0.3041  1.1897
  751MOL0     H99119   2.706   1.786  10.771  0.8043  0.8508  0.6148
  751MOL0     H99120   2.532   1.805  11.188 -0.1088 -0.4818  1.5932
  751MOL0     H99121   2.328   1.822  11.292 -0.9615 -1.6382  0.9515
  751MOL0     H99122   1.962   1.567  11.314  0.8738  1.5948  0.2967
  751MOL0     H99123   2.054   1.504  11.175  3.4287  0.6723  0.6149
  751MOL0     H99124   1.819   1.701  11.147  0.1685 -0.1627  0.0563
  751MOL0     H99125   1.938   1.659  11.018  0.1255  0.2365  0.0743
  751MOL0     H99126   1.724   1.483  11.137 -1.3708  1.0934 -0.6481
  751MOL0     H99127   1.843   1.424  11.018 -1.3695 -0.2337 -1.4482
  751MOL0     H99128   1.608   1.487  10.956 -0.3139  0.3853  5.0006
  751MOL0     H99129   1.649   1.656  10.988  1.3892  1.2126 -0.2938
  751MOL0     H99130   1.810   1.624  10.611 -2.5666 -5.1780 -2.0151
  751MOL0     H99131   2.146   1.550  10.997  1.5721 -3.1021 -0.4273
  751MOL0     H99132   2.354   1.539  10.889 -0.4423 -1.0728  0.0710
  752MOL0     O99133   0.929   3.253   8.077 -0.0076 -0.0175 -0.0379
  752MOL0     C99134   0.838   3.171   8.069 -0.4375 -0.4957 -1.1236
  752MOL0     O99135   0.723   3.188   8.024  0.2330 -0.8268 -0.3797
  752MOL0     C99136   0.696   3.309   7.961 -0.1297  0.0114 -0.5873
  752MOL0     C99137   0.772   3.366   7.854 -0.0936 -0.2584 -0.5688
  752MOL0     C99138   0.737   3.487   7.792 -0.1309  0.5468 -0.2697
  752MOL0     C99139   0.633   3.561   7.843  1.3341 -0.3456  0.1698
  752MOL0     O99140   0.612   3.685   7.783 -0.2123  0.7849  0.2569
  752MOL0     C99141   0.478   3.723   7.768 -0.6063  0.3811  0.3021
  752MOL0     C99142   0.436   3.811   7.646 -0.0681 -0.1103  0.1460
  752MOL0     C99143   0.388   3.727   7.522  0.0785  0.3987  0.3065
  752MOL0     C99144   0.315   3.811   7.420 -0.2430 -0.1822  0.7512
  752MOL0     C99145   0.259   3.730   7.302 -0.2231 -0.7305  0.5512
  752MOL0     C99146   0.151   3.817   7.230 -0.5206  0.1858 -0.1855
  752MOL0     C99147   0.012   3.797   7.298 -0.0533 -1.1160  0.2289
  752MOL0     C99148  -0.049   3.665   7.258 -0.0861 -0.4854 -0.9406
  752MOL0     N99149  -0.084   3.653   7.114 -1.1484  0.0717  0.0700
  752MOL0     C99150  -0.204   3.704   7.051  0.2482 -0.2647 -0.4676
  752MOL0     C99151  -0.183   3.657   6.922 -0.0354 -0.0318 -0.2298
  752MOL0     C99152  -0.283   3.669   6.822  0.3560 -0.1081  0.3786
  752MOL0     C99153  -0.235   3.714   6.684  0.0421 -0.1993  0.6480
  752MOL0     C99154  -0.158   3.601   6.606  0.9726  0.0489  1.0911
  752MOL0     C99155  -0.177   3.627   6.458 -0.5014 -0.0964 -0.1745
  752MOL0     O99156  -0.112   3.524   6.376  0.0004 -0.5555  0.0283
  752MOL0     C99157  -0.161   3.503   6.251 -0.4430 -0.2695  0.3121
  752MOL0     C99158  -0.217   3.606   6.177 -0.6413 -0.1731 -0.2926
  752MOL0     C99159  -0.271   3.586   6.049  0.2373 -0.5655 -0.2689
  752MOL0     C99160  -0.268   3.460   5.979  0.1316  0.3264  0.8175
  752MOL0     C99161  -0.289   3.450   5.835 -0.1812  0.7087 -0.1969
  752MOL0     O99162  -0.375   3.538   5.782  0.0395 -0.5242 -0.5232
  752MOL0     C99163  -0.356   3.561   5.650  0.7345  0.1758  0.6126
  752MOL0     C99164  -0.377   3.455   5.560  0.5145 -0.5073  1.1604
  752MOL0     C99165  -0.381   3.470   5.415 -0.1575 -0.0268 -0.3005
  752MOL0     C99166  -0.345   3.597   5.368 -0.1781 -0.1901 -0.0599
  752MOL0     O99167  -0.348   3.617   5.229 -0.5519 -0.8632 -0.1017
  752MOL0     C99168  -0.349   3.755   5.179  0.0474  1.0893 -0.5266
  752MOL0     C99169  -0.316   3.750   5.025 -0.2438  0.1570 -0.9043
  752MOL0     C99170  -0.298   3.882   4.947 -1.2160 -0.1370 -0.0378
  752MOL0     C99171  -0.437   3.940   4.917 -1.0410  0.4277 -0.3049
  752MOL0     C99172  -0.441   4.084   4.925  0.6254 -0.2494 -0.1518
  752MOL0     C99173  -0.565   4.164   4.853  0.2386  0.3524  0.2103
  752MOL0     C99174  -0.530   4.313   4.819 -0.8684  0.0351  0.1810
  752MOL0     C99175  -0.646   4.389   4.752  0.3432  0.7595 -0.2831
  752MOL0    Cl99176  -0.746   4.500   4.869 -0.4287  0.6285 -0.2540
  752MOL0     C99177  -0.336   3.707   5.458  0.3526  0.1855  0.5660
  752MOL0     C99178  -0.341   3.677   5.594  0.7586  0.3373 -0.0815
  752MOL0     O99179  -0.195   3.387   5.783  0.3148 -0.0373 -0.3436
  752MOL0     C99180  -0.202   3.354   6.057  0.6143 -0.2850  0.3264
  752MOL0     C99181  -0.175   3.370   6.193  0.6296 -0.0098 -0.1745
  752MOL0     N99182  -0.062   3.598   6.908  0.3429 -0.3714 -0.6556
  752MOL0     N99183   0.001   3.605   7.021 -0.2167 -0.0626  0.1990
  752MOL0     C99184   0.558   3.503   7.946 -0.2788 -0.5648  1.1156
  752MOL0     C99185   0.583   3.381   8.004  0.0421 -0.1746  0.6939
  752MOL0     C99186   0.865   3.036   8.121 -0.2913  0.3839 -0.9181
  752MOL0     C99187   0.794   2.933   8.066 -0.1848  0.1620  0.2875
  752MOL0     C99188   0.823   2.800   8.094  0.3343 -0.0254  0.7476
  752MOL0     C99189   0.929   2.761   8.176  0.0214 -0.6718  0.2587
  752MOL0     O99190   0.970   2.633   8.186  0.2863  0.1959  0.7680
  752MOL0     C99191   1.071   2.594   8.277 -0.0685 -0.5139 -0.1489
  752MOL0     C99192   1.063   2.442   8.295 -0.5783  0.7463  0.2165
  752MOL0     C99193   0.912   2.405   8.315  0.3181 -0.3930 -0.0553
  752MOL0     C99194   0.897   2.291   8.416  0.5178 -1.0180 -0.4801
  752MOL0     C99195   0.961   2.164   8.371 -0.5059  0.0023 -0.2034
  752MOL0     C99196   1.012   2.054   8.343 -0.0034 -0.2923  0.4041
  752MOL0     C99197   1.005   2.863   8.230 -0.0847  0.1656 -1.2290
  752MOL0     C99198   0.970   3.000   8.202  0.6664  0.3896 -0.9536
  752MOL0     H99199   0.852   3.309   7.808  0.0644 -1.0375  0.6329
  752MOL0     H99200   0.799   3.511   7.706  0.8172  0.7896  0.4669
  752MOL0     H99201   0.458   3.782   7.858  1.2761  1.4705  0.0694
  752MOL0     H99202   0.411   3.637   7.764  1.9197 -1.7311  0.1608
  752MOL0     H99203   0.524   3.872   7.622  1.4706 -2.0962  0.4860
  752MOL0     H99204   0.358   3.879   7.682  1.0292  0.5973  1.3033
  752MOL0     H99205   0.326   3.640   7.546  1.3541 -0.2024  1.5792
  752MOL0     H99206   0.486   3.696   7.484 -0.1300 -0.1464  0.2105
  752MOL0     H99207   0.236   3.860   7.478 -1.7810 -0.8326 -0.6969
  752MOL0     H99208   0.369   3.899   7.384  0.9823 -1.4053 -0.4968
  752MOL0     H99209   0.224   3.632   7.335  0.9661 -1.0653  0.8764
  752MOL0     H99210   0.351   3.727   7.243 -0.9890  4.7744 -1.4577
  752MOL0     H99211   0.151   3.780   7.127  1.8160 -4.5471  1.2682
  752MOL0     H99212   0.196   3.917   7.234  0.5158 -0.2026 -1.3966
  752MOL0     H99213   0.019   3.796   7.407  0.8056  0.1677  0.2097
  752MOL0     H99214  -0.060   3.874   7.268 -0.9494 -1.2063  2.0438
  752MOL0     H99215  -0.140   3.657   7.319  0.7327 -0.9648  0.2511
  752MOL0     H99216   0.016   3.582   7.289  1.5656 -0.3626 -3.7148
  752MOL0     H99217  -0.282   3.762   7.100  3.1766  2.8426  0.8517
  752MOL0     H99218  -0.349   3.751   6.852  2.1219  0.8998  1.6522
  752MOL0     H99219  -0.338   3.575   6.815 -0.2404  0.1525  1.3500
  752MOL0     H99220  -0.176   3.805   6.691 -0.1690  0.2142 -1.9333
  752MOL0     H99221  -0.314   3.747   6.616  0.7972  1.9594  0.7594
  752MOL0     H99222  -0.050   3.607   6.614  1.0845  0.2083 -0.2422
  752MOL0     H99223  -0.200   3.506   6.638 -1.0056  0.3362 -0.4011
  752MOL0     H99224  -0.139   3.728   6.443  3.6358 -1.3624  0.6766
  752MOL0     H99225  -0.282   3.625   6.426  0.0621  0.0880 -2.2061
  752MOL0     H99226  -0.211   3.706   6.219 -5.1201  0.7480 -1.2925
  752MOL0     H99227  -0.301   3.683   6.010 -0.3576 -0.6482 -0.0283
  752MOL0     H99228  -0.387   3.360   5.612  3.4271 -0.4157  2.0455
  752MOL0     H99229  -0.403   3.392   5.344 -0.4629  2.8124 -3.6057
  752MOL0     H99230  -0.271   3.818   5.223 -1.7321  1.7163  1.9751
  752MOL0     H99231  -0.447   3.803   5.190 -1.0374 -0.8157 -1.3692
  752MOL0     H99232  -0.403   3.702   4.978 -0.3167  2.5584 -3.4361
  752MOL0     H99233  -0.220   3.698   5.026  0.7172  1.7128  2.3557
  752MOL0     H99234  -0.238   3.875   4.856 -2.2031  2.2048 -0.9531
  752MOL0     H99235  -0.237   3.948   5.009  1.4812 -1.2814 -1.3081
  752MOL0     H99236  -0.455   3.889   4.822  1.9026 -0.7784 -0.3431
  752MOL0     H99237  -0.519   3.903   4.979  0.8339 -2.4452  0.7153
  752MOL0     H99238  -0.355   4.143   4.893  0.4782  1.1161  1.7778
  752MOL0     H99239  -0.448   4.095   5.034 -0.4359  1.6366 -0.3642
  752MOL0     H99240  -0.641   4.169   4.932  1.9396  1.1813  1.8834
  752MOL0     H99241  -0.598   4.122   4.758 -0.4421  2.8275 -0.7003
  752MOL0     H99242  -0.500   4.374   4.905 -2.0361 -0.6791  1.1227
  752MOL0     H99243  -0.450   4.306   4.745  0.1040  0.6685  1.1292
  752MOL0     H99244  -0.714   4.322   4.699 -0.2726  0.6683  0.6012
  752MOL0     H99245  -0.608   4.456   4.674  3.8573  0.8609  1.2899
  752MOL0     H99246  -0.339   3.813   5.437 -0.0261  0.4701  1.9591
  752MOL0     H99247  -0.342   3.771   5.648  0.4069  1.6172 -2.2098
  752MOL0     H99248  -0.199   3.254   6.015 -1.8716  0.0345 -0.7969
  752MOL0     H99249  -0.127   3.286   6.242 -0.7708  0.8890  3.0656
  752MOL0     H99250   0.476   3.557   7.992  1.0190  1.6376  0.9973
  752MOL0     H99251   0.519   3.354   8.088 -1.2929 -0.6944 -0.4612
  752MOL0     H99252   0.719   2.959   7.991  0.5465 -1.7209 -1.1845
  752MOL0     H99253   0.768   2.724   8.041  3.4623 -2.0261  0.1352
  752MOL0     H99254   1.054   2.642   8.373 -0.1782 -2.2193  0.7274
  752MOL0     H99255   1.165   2.620   8.227 -1.5229  0.9963 -2.3022
  752MOL0     H99256   1.113   2.382   8.219 -0.1924 -0.7751  1.6145
  752MOL0     H99257   1.118   2.431   8.388 -1.9273 -1.2057  0.8413
  752MOL0     H99258   0.874   2.369   8.219  0.5455  0.6765 -0.5531
  752MOL0     H99259   0.872   2.499   8.354  3.1590  1.5911 -1.5005
  752MOL0     H99260   0.961   2.310   8.503  1.2343  2.0133 -1.5380
  752MOL0     H99261   0.794   2.282   8.454  0.6003 -0.4407 -0.1048
  752MOL0     H99262   1.062   1.964   8.314  0.9788  0.6665 -0.9966
  752MOL0     H99263   1.091   2.852   8.295  0.9709 -0.6631 -2.6746
  752MOL0     H99264   1.036   3.080   8.234 -0.2465 -0.0531  2.4348
  753MOL0     O99265   7.185   9.457   9.679  0.1851  0.2338  0.6704
  753MOL0     C99266   7.309   9.453   9.644  0.4180  0.4193  0.7035
  753MOL0     O99267   7.358   9.388   9.534  0.5042 -0.8555 -0.3913
  753MOL0     C99268   7.287   9.288   9.480  0.3390 -0.0749 -0.3632
  753MOL0     C99269   7.307   9.154   9.518  0.8338  0.3756 -0.2556
  753MOL0     C99270   7.219   9.062   9.459 -0.0550 -0.1823 -0.1196
  753MOL0     C99271   7.126   9.095   9.360 -0.5840  0.6303  0.6842
  753MOL0     O99272   7.062   8.996   9.294 -0.2765 -0.3672 -0.1563
  753MOL0     C99273   7.017   9.006   9.154 -0.3967 -0.5637 -0.2149
  753MOL0     C99274   7.052   8.887   9.062  0.4379  0.5073  0.2643
  753MOL0     C99275   6.938   8.784   9.083 -0.9006 -1.0060  0.4635
  753MOL0     C99276   6.979   8.652   9.023 -0.0614  0.6184 -0.4720
  753MOL0     C99277   6.861   8.560   8.998 -0.8363 -0.0620 -0.8986
  753MOL0     C99278   6.763   8.592   8.884 -0.7541 -0.2068 -0.2954
  753MOL0     C99279   6.653   8.479   8.871 -0.6314 -0.3517 -0.6123
  753MOL0     C99280   6.603   8.398   8.990  0.0138 -0.3580 -0.8254
  753MOL0     N99281   6.474   8.329   8.971  0.1833 -0.5533 -1.1731
  753MOL0     C99282   6.435   8.205   8.915 -0.7605  0.3409 -0.1556
  753MOL0     C99283   6.313   8.182   8.948  0.2490  0.8465  0.5791
  753MOL0     C99284   6.222   8.060   8.915  0.6205 -0.5254 -0.4458
  753MOL0     C99285   6.284   7.929   8.976  0.8222 -0.0084 -0.4411
  753MOL0     C99286   6.256   7.920   9.127  0.9582 -0.3111 -1.0695
  753MOL0     C99287   6.352   7.820   9.189  0.2249 -0.2876 -0.1161
  753MOL0     O99288   6.327   7.785   9.327 -0.8946  0.0035  0.5962
  753MOL0     C99289   6.426   7.711   9.390 -1.1858 -0.5236 -0.9480
  753MOL0     C99290   6.444   7.739   9.526 -0.1588  0.2563 -0.5185
  753MOL0     C99291   6.548   7.674   9.596  0.0078 -0.1943 -0.5955
  753MOL0     C99292   6.630   7.575   9.539  0.3237  0.6191  0.9467
  753MOL0     C99293   6.744   7.511   9.607 -0.6950  0.3408 -0.2660
  753MOL0     O99294   6.817   7.418   9.543 -0.4171 -0.3520  0.0511
  753MOL0     C99295   6.932   7.382   9.614  1.5723 -1.5127  0.0240
  753MOL0     C99296   7.048   7.431   9.561  0.3952 -0.2518 -0.4622
  753MOL0     C99297   7.171   7.383   9.613 -0.0846  0.8061  0.0343
  753MOL0     C99298   7.169   7.288   9.725  0.5440  1.0830  0.9483
  753MOL0     O99299   7.277   7.249   9.791 -0.3324 -0.2671 -0.1462
  753MOL0     C99300   7.383   7.206   9.703 -0.0390  0.2254  0.0065
  753MOL0     C99301   7.480   7.128   9.791 -0.2369  1.0072 -0.7454
  753MOL0     C99302   7.424   6.994   9.841  0.7293 -1.0060 -0.4179
  753MOL0     C99303   7.384   6.899   9.722  0.4031  0.0451 -0.5989
  753MOL0     C99304   7.427   6.760   9.744 -0.7899 -0.1300 -0.8017
  753MOL0     C99305   7.577   6.730   9.737 -0.6443 -0.2035 -0.3460
  753MOL0     C99306   7.623   6.586   9.752 -0.1145  0.4690  0.5259
  753MOL0     C99307   7.771   6.583   9.802 -0.7831 -0.5796  0.1876
  753MOL0    Cl99308   7.844   6.432   9.755 -0.5231  0.2656  0.6329
  753MOL0     C99309   7.051   7.242   9.780  0.4105  0.0046 -0.5734
  753MOL0     C99310   6.933   7.280   9.711  0.1751 -0.3812  0.8246
  753MOL0     O99311   6.768   7.555   9.720 -0.5587 -0.2052 -0.2248
  753MOL0     C99312   6.608   7.550   9.397  0.0444 -0.7933 -0.5838
  753MOL0     C99313   6.504   7.613   9.330  0.7926 -0.4746 -0.4074
  753MOL0     N99314   6.268   8.300   9.010  0.0272 -0.4826  0.0535
  753MOL0     N99315   6.363   8.386   9.018 -0.4945 -0.0433  0.3266
  753MOL0     C99316   7.110   9.230   9.328 -0.1588  0.5835  0.5325
  753MOL0     C99317   7.195   9.320   9.381  0.0040  0.2284 -0.4338
  753MOL0     C99318   7.414   9.515   9.720  0.0909 -0.9523  0.0370
  753MOL0     C99319   7.547   9.483   9.711 -0.1398  0.3053  0.6529
  753MOL0     C99320   7.649   9.540   9.779 -0.2073 -0.5768 -1.0247
  753MOL0     C99321   7.620   9.643   9.869  0.0024  0.7920  0.6771
  753MOL0     O99322   7.730   9.699   9.929 -0.4996  0.4847 -0.7391
  753MOL0     C99323   7.721   9.840   9.955  0.5773  0.2718  0.2632
  753MOL0     C99324   7.866   9.896   9.970  0.1934  0.0620  0.0483
  753MOL0     C99325   7.869  10.045   9.929 -0.1446 -0.0459 -0.3855
  753MOL0     C99326   7.993  10.127   9.960 -0.4171 -0.5945 -0.7500
  753MOL0     C99327   7.996  10.217  10.079  0.1672  0.2733 -0.0652
  753MOL0     C99328   7.994  10.268  10.194 -0.8456  0.0254  0.8238
  753MOL0     C99329   7.483   9.680   9.893 -0.7099  0.2127 -0.4429
  753MOL0     C99330   7.381   9.617   9.819  0.3761  0.3799  0.2211
  753MOL0     H99331   7.379   9.119   9.591  0.2649  2.1073  1.2002
  753MOL0     H99332   7.244   8.956   9.466  3.3340  0.1833 -3.4207
  753MOL0     H99333   7.062   9.093   9.105  2.5586 -1.1360  1.2782
  753MOL0     H99334   6.910   9.028   9.159 -0.5962 -1.2787 -1.1467
  753MOL0     H99335   7.147   8.836   9.076  0.6366  0.0520 -2.2753
  753MOL0     H99336   7.049   8.915   8.956 -2.3444 -0.8202 -0.1204
  753MOL0     H99337   6.855   8.825   9.025 -1.3231  1.0181  2.3433
  753MOL0     H99338   6.908   8.781   9.188  1.2510  2.8339  1.3918
  753MOL0     H99339   7.031   8.672   8.929 -0.2972 -3.5316 -1.6376
  753MOL0     H99340   7.049   8.610   9.096 -2.4699  0.8826  2.1568
  753MOL0     H99341   6.805   8.567   9.092  1.0548  0.3861  0.2508
  753MOL0     H99342   6.911   8.463   8.985  3.6764  1.5509  1.9673
  753MOL0     H99343   6.826   8.602   8.795  0.4787 -1.7103  0.3515
  753MOL0     H99344   6.696   8.678   8.890 -2.7832 -1.7798  0.8853
  753MOL0     H99345   6.576   8.527   8.811  0.8356  1.7563 -0.9222
  753MOL0     H99346   6.704   8.404   8.810 -2.1244 -0.1000 -2.2489
  753MOL0     H99347   6.586   8.470   9.070 -1.7395 -2.3751  0.7318
  753MOL0     H99348   6.672   8.318   9.020 -0.0454 -0.4949 -1.0469
  753MOL0     H99349   6.496   8.132   8.863 -0.4407 -0.3313  1.1275
  753MOL0     H99350   6.215   8.040   8.808  2.7592 -5.6981  0.1031
  753MOL0     H99351   6.125   8.080   8.961  1.6886  3.7841  0.4434
  753MOL0     H99352   6.391   7.945   8.964  0.9603 -1.0134 -0.5978
  753MOL0     H99353   6.251   7.837   8.927  1.2527  1.0518 -2.8535
  753MOL0     H99354   6.261   8.021   9.168  1.6270 -0.2991 -1.1655
  753MOL0     H99355   6.154   7.895   9.159  0.5189  3.0654  0.6262
  753MOL0     H99356   6.452   7.863   9.184  0.0707  0.2739  1.3006
  753MOL0     H99357   6.365   7.731   9.126  4.7697  0.6990 -0.9223
  753MOL0     H99358   6.381   7.817   9.567 -1.1785 -0.1479 -1.2791
  753MOL0     H99359   6.567   7.697   9.701 -2.1151 -1.4536  0.1197
  753MOL0     H99360   7.053   7.509   9.486 -2.2158 -0.4879 -0.9899
  753MOL0     H99361   7.266   7.404   9.565  0.5272  1.0304  1.3039
  753MOL0     H99362   7.437   7.286   9.652  0.4104 -1.2077 -1.8654
  753MOL0     H99363   7.349   7.142   9.621  0.0349 -1.1294  0.9954
  753MOL0     H99364   7.517   7.202   9.863 -2.2975  1.9260 -0.5471
  753MOL0     H99365   7.570   7.103   9.736 -2.0246  1.8974 -4.3734
  753MOL0     H99366   7.332   7.008   9.899 -0.6227  1.4559 -2.9005
  753MOL0     H99367   7.488   6.938   9.910 -1.8261 -1.3639  1.8331
  753MOL0     H99368   7.275   6.889   9.730  0.4500  0.9475  1.8895
  753MOL0     H99369   7.407   6.930   9.619 -1.1589 -3.1005 -2.0346
  753MOL0     H99370   7.373   6.696   9.674 -1.5901 -0.0286 -0.2915
  753MOL0     H99371   7.387   6.729   9.841 -3.0810  1.2051 -1.2423
  753MOL0     H99372   7.623   6.789   9.817 -3.6639 -0.2582  1.5976
  753MOL0     H99373   7.597   6.763   9.634 -2.1575 -0.3899 -0.7251
  753MOL0     H99374   7.565   6.523   9.820 -2.6456  0.0950 -1.8114
  753MOL0     H99375   7.608   6.539   9.654 -1.3387 -1.4674  1.5660
  753MOL0     H99376   7.779   6.577   9.911 -0.6520  0.0105  0.2135
  753MOL0     H99377   7.830   6.668   9.766 -0.6696  0.8658  3.4472
  753MOL0     H99378   7.048   7.162   9.853 -0.2580  0.2090 -0.3647
  753MOL0     H99379   6.838   7.237   9.742 -0.0216 -0.9076 -0.4639
  753MOL0     H99380   6.655   7.466   9.346  0.6201 -0.2211 -1.0154
  753MOL0     H99381   6.504   7.597   9.223  0.4949 -0.7807 -0.3613
  753MOL0     H99382   7.036   9.272   9.261  0.9452  2.4798  0.4136
  753MOL0     H99383   7.177   9.422   9.349  1.3199  0.0416 -1.8963
  753MOL0     H99384   7.583   9.405   9.644  0.9402  1.4957 -0.2102
  753MOL0     H99385   7.754   9.515   9.766  0.7856  0.4704  3.2967
  753MOL0     H99386   7.657   9.882  10.033 -1.0294  1.6712 -1.7092
  753MOL0     H99387   7.681   9.878   9.861 -0.4720 -0.3877  0.4285
  753MOL0     H99388   7.897   9.887  10.074 -1.1367 -0.6073  0.4057
  753MOL0     H99389   7.938   9.838   9.911  1.6364  1.8841 -0.0706
  753MOL0     H99390   7.777  10.085   9.974  0.4490 -1.7231  2.6365
  753MOL0     H99391   7.867  10.044   9.820  1.8440 -1.7295 -0.4697
  753MOL0     H99392   8.082  10.065   9.971 -0.9364 -1.6761 -2.3511
  753MOL0     H99393   8.000  10.197   9.876 -0.0826 -1.4251 -1.4244
  753MOL0     H99394   8.005  10.293  10.297 -1.5376  3.4017  0.1883
  753MOL0     H99395   7.460   9.764   9.957 -3.0004  0.6033 -1.6619
  753MOL0     H99396   7.281   9.652   9.842 -1.0398 -1.8688 -2.0054
  754MOL0     O99397   7.446   1.107  11.190 -0.1378 -0.4801 -0.2294
  754MOL0     C99398   7.450   1.228  11.205  0.2010 -0.4662  0.7826
  754MOL0     O99399   7.339   1.305  11.237  0.0730  0.4302  0.7937
  754MOL0     C99400   7.214   1.241  11.252 -0.0169  0.2965 -0.6184
  754MOL0     C99401   7.115   1.302  11.178  0.0764  0.1372  0.8650
  754MOL0     C99402   6.984   1.266  11.207  0.3365  0.6760  0.5647
  754MOL0     C99403   6.939   1.174  11.307  0.5683 -0.4578  0.0166
  754MOL0     O99404   6.808   1.148  11.341  0.0856  0.8605 -0.4627
  754MOL0     C99405   6.696   1.178  11.257 -0.5019 -0.5547 -0.6409
  754MOL0     C99406   6.582   1.085  11.284 -0.4650  0.0499 -0.6280
  754MOL0     C99407   6.603   0.940  11.230 -0.3018  0.0050 -0.6094
  754MOL0     C99408   6.524   0.846  11.310 -0.0584  0.8886 -0.0877
  754MOL0     C99409   6.385   0.806  11.239  0.8552  0.0670 -0.1746
  754MOL0     C99410   6.428   0.720  11.115 -0.3208  0.1209 -0.6081
  754MOL0     C99411   6.313   0.672  11.010  0.4880 -0.1541 -0.6551
  754MOL0     C99412   6.297   0.769  10.894 -0.3747 -0.4776  0.1036
  754MOL0     N99413   6.278   0.914  10.918  0.3253  0.8145  0.5017
  754MOL0     C99414   6.164   0.988  10.955  1.0338  0.9095 -0.2103
  754MOL0     C99415   6.213   1.114  10.967  0.2164  0.3948 -0.8276
  754MOL0     C99416   6.136   1.237  11.014 -0.3444  0.1951 -0.0223
  754MOL0     C99417   6.051   1.295  10.885  0.5054 -0.5436  0.2034
  754MOL0     C99418   5.972   1.428  10.913  0.4955  0.6643  0.3844
  754MOL0     C99419   5.864   1.458  10.821 -0.2676  0.5045  0.9543
  754MOL0     O99420   5.926   1.464  10.689 -0.5554 -0.2874 -0.4104
  754MOL0     C99421   5.849   1.496  10.588 -0.0897 -0.3838  0.4066
  754MOL0     C99422   5.901   1.470  10.461 -0.4261 -0.9313  0.1415
  754MOL0     C99423   5.829   1.486  10.342 -0.1280  1.0277 -0.3245
  754MOL0     C99424   5.697   1.523  10.354 -0.5208 -0.0619  0.4420
  754MOL0     C99425   5.611   1.521  10.228 -0.0270 -0.0708 -0.2424
  754MOL0     O99426   5.676   1.540  10.110 -0.0919  0.1807  0.5052
  754MOL0     C99427   5.603   1.509   9.991  0.7417  0.5731  1.5098
  754MOL0     C99428   5.669   1.430   9.890  0.1651  0.3079  0.1060
  754MOL0     C99429   5.604   1.386   9.779 -0.0001 -0.6127  0.8483
  754MOL0     C99430   5.477   1.425   9.750  0.3459  1.2636 -0.7236
  754MOL0     O99431   5.416   1.375   9.639  0.9460 -0.0493 -0.8856
  754MOL0     C99432   5.321   1.460   9.572  0.6851  0.3529  0.0613
  754MOL0     C99433   5.236   1.364   9.483 -0.1387 -0.3328 -0.0275
  754MOL0     C99434   5.161   1.255   9.560  0.3686  0.3815  0.3079
  754MOL0     C99435   5.091   1.155   9.465  0.9956 -0.1609 -0.4897
  754MOL0     C99436   4.962   1.207   9.398 -0.6520  0.4026 -0.4643
  754MOL0     C99437   4.908   1.125   9.284 -0.0824  0.0379  0.1130
  754MOL0     C99438   4.764   1.183   9.262  0.5657  0.2286  0.6933
  754MOL0     C99439   4.700   1.116   9.140  0.2173 -0.2633 -0.2484
  754MOL0    Cl99440   4.525   1.160   9.155  0.0351  0.0613 -0.2190
  754MOL0     C99441   5.405   1.516   9.845 -0.5391 -1.3550  0.6749
  754MOL0     C99442   5.471   1.558   9.957 -0.1725 -0.6807  0.3675
  754MOL0     O99443   5.490   1.522  10.241 -0.0507  0.6862 -0.1044
  754MOL0     C99444   5.639   1.549  10.483  0.0565  0.0314 -0.5200
  754MOL0     C99445   5.715   1.538  10.596 -0.9135 -0.2371 -0.4659
  754MOL0     N99446   6.339   1.117  10.919 -0.1041 -0.1484 -0.6394
  754MOL0     N99447   6.379   1.002  10.895  0.1270  0.6362 -0.3074
  754MOL0     C99448   7.044   1.117  11.380  0.0674  0.1583  0.3340
  754MOL0     C99449   7.179   1.149  11.356 -0.5807 -0.5386  0.5305
  754MOL0     C99450   7.575   1.297  11.173  0.8799 -0.6373  0.5552
  754MOL0     C99451   7.695   1.225  11.181  0.0443  0.0724 -0.5333
  754MOL0     C99452   7.818   1.281  11.140  0.3839  0.0111 -0.1147
  754MOL0     C99453   7.821   1.404  11.091 -0.1959 -1.2306  0.6130
  754MOL0     O99454   7.938   1.467  11.050  0.7234  0.7025 -0.0121
  754MOL0     C99455   8.008   1.537  11.154 -0.7054 -0.4152  0.7123
  754MOL0     C99456   8.157   1.485  11.153 -0.0803 -0.4062  0.0550
  754MOL0     C99457   8.172   1.369  11.255 -0.5358 -0.1220 -0.7039
  754MOL0     C99458   8.271   1.261  11.190 -0.4296  0.3366 -0.1077
  754MOL0     C99459   8.396   1.324  11.144  0.7745 -0.3852 -0.1177
  754MOL0     C99460   8.490   1.383  11.094 -0.0790  0.2162  0.1163
  754MOL0     C99461   7.698   1.480  11.085  0.0866  0.5131 -0.9193
  754MOL0     C99462   7.567   1.433  11.128 -0.0390  0.7576 -0.1146
  754MOL0     H99463   7.135   1.367  11.093 -2.7094  0.7457  0.5749
  754MOL0     H99464   6.915   1.299  11.130 -3.4275  2.3386  4.2293
  754MOL0     H99465   6.729   1.177  11.153 -1.4728 -0.2590 -0.9557
  754MOL0     H99466   6.658   1.277  11.284  2.0329  0.5264 -0.6960
  754MOL0     H99467   6.481   1.112  11.253 -1.7393 -2.2339  1.1937
  754MOL0     H99468   6.577   1.088  11.394  0.6279  3.1688 -0.5565
  754MOL0     H99469   6.706   0.905  11.236 -0.6456 -0.8349  0.7961
  754MOL0     H99470   6.567   0.934  11.126 -1.1130 -1.2019 -0.2822
  754MOL0     H99471   6.589   0.762  11.335 -0.2925  1.8561  5.0354
  754MOL0     H99472   6.506   0.881  11.413 -0.5680 -1.8120  0.8333
  754MOL0     H99473   6.324   0.893  11.213 -0.2868 -0.6895 -0.1566
  754MOL0     H99474   6.304   0.758  11.295  1.9439 -2.2549 -0.4728
  754MOL0     H99475   6.471   0.629  11.159  2.5156  2.5898  2.2378
  754MOL0     H99476   6.491   0.775  11.044 -2.0661 -1.6035 -3.7091
  754MOL0     H99477   6.321   0.573  10.965 -2.7462 -0.2952 -1.1587
  754MOL0     H99478   6.214   0.668  11.057  1.1366  1.1594  0.9426
  754MOL0     H99479   6.215   0.734  10.831 -0.0726 -1.8030  0.4141
  754MOL0     H99480   6.387   0.755  10.833 -1.1639  1.3805 -1.5765
  754MOL0     H99481   6.073   0.932  10.975  1.8963  0.5897  3.4328
  754MOL0     H99482   6.206   1.314  11.047 -0.0147 -0.1115 -0.0056
  754MOL0     H99483   6.062   1.212  11.090 -0.7360 -1.4985 -0.9221
  754MOL0     H99484   5.981   1.219  10.849  2.9111 -1.3016 -3.4442
  754MOL0     H99485   6.113   1.304  10.796  1.4132  0.8120  0.9294
  754MOL0     H99486   5.922   1.420  11.010  1.3824 -1.5602  0.6984
  754MOL0     H99487   6.051   1.505  10.915  0.9745  0.1794  0.4103
  754MOL0     H99488   5.817   1.554  10.846 -0.3291  1.5169 -2.4636
  754MOL0     H99489   5.789   1.379  10.816 -2.0101  2.0153  1.8979
  754MOL0     H99490   6.003   1.435  10.454 -1.2889 -3.3825 -1.9652
  754MOL0     H99491   5.883   1.477  10.248  1.7749 -1.7635  0.9064
  754MOL0     H99492   5.770   1.395   9.911  1.2264  1.5204 -2.5724
  754MOL0     H99493   5.657   1.312   9.721 -0.2865  0.7628 -1.3030
  754MOL0     H99494   5.368   1.535   9.509  2.8209 -0.1411  0.9799
  754MOL0     H99495   5.251   1.512   9.637 -0.9535  1.0897 -2.1574
  754MOL0     H99496   5.309   1.315   9.418  0.3060  1.7895 -1.2388
  754MOL0     H99497   5.159   1.419   9.427  1.0391 -0.7295 -2.1480
  754MOL0     H99498   5.084   1.300   9.624  0.6506 -1.0733  1.7359
  754MOL0     H99499   5.223   1.198   9.630 -1.0106  1.0926  2.2076
  754MOL0     H99500   5.153   1.131   9.378  0.5560  0.0228 -0.8603
  754MOL0     H99501   5.073   1.058   9.511 -1.3960 -0.2470 -1.4619
  754MOL0     H99502   4.973   1.316   9.394 -3.0554  0.9748  3.1458
  754MOL0     H99503   4.895   1.184   9.482  4.4056 -3.5142  3.1518
  754MOL0     H99504   4.898   1.017   9.302 -0.5969  0.3802  2.1624
  754MOL0     H99505   4.970   1.132   9.195 -0.1193  2.3977  0.2069
  754MOL0     H99506   4.704   1.160   9.351 -2.2933  0.9512 -0.9471
  754MOL0     H99507   4.767   1.292   9.253 -1.2809  0.4029  1.7519
  754MOL0     H99508   4.723   1.009   9.132  2.3298  0.2414 -1.4435
  754MOL0     H99509   4.751   1.159   9.053  2.8276  0.7344  1.6751
  754MOL0     H99510   5.302   1.549   9.831 -1.0788 -3.3387 -0.4074
  754MOL0     H99511   5.422   1.625  10.027  2.1391  0.4184  1.0376
  754MOL0     H99512   5.538   1.584  10.502  0.1911 -0.2574  0.9108
  754MOL0     H99513   5.670   1.564  10.691 -1.2760 -0.6113 -0.5313
  754MOL0     H99514   7.024   1.044  11.458 -2.8709  0.5788  0.0644
  754MOL0     H99515   7.263   1.117  11.417  0.0953  3.4747  1.9986
  754MOL0     H99516   7.697   1.122  11.218  0.5879  0.4576  0.5817
  754MOL0     H99517   7.907   1.219  11.137  0.4726  0.0324  1.4649
  754MOL0     H99518   7.945   1.523  11.243 -1.4754 -0.6245  0.1442
  754MOL0     H99519   8.010   1.644  11.136  1.1092 -1.0346 -4.3384
  754MOL0     H99520   8.184   1.449  11.053 -0.6868  0.6198 -0.4942
  754MOL0     H99521   8.226   1.558  11.198 -0.9949 -0.1389  1.0692
  754MOL0     H99522   8.078   1.317  11.276  0.4060 -2.3551 -1.6428
  754MOL0     H99523   8.218   1.411  11.345 -0.7136 -2.1192  0.3729
  754MOL0     H99524   8.295   1.189  11.269  1.8648  1.4890  0.3296
  754MOL0     H99525   8.223   1.212  11.104  1.2020  0.5020 -1.1508
  754MOL0     H99526   8.557   1.449  11.043 -1.0194  1.9643  1.0425
  754MOL0     H99527   7.691   1.582  11.050 -0.6890  1.1388  0.9611
  754MOL0     H99528   7.486   1.504  11.122 -0.6309  0.1119  0.0936
  755MOL0     O99529   5.118   2.842   8.623  0.6723 -0.6828  0.6179
  755MOL0     C99530   5.160   2.896   8.724 -0.3327 -0.3559 -0.4070
  755MOL0     O99531   5.288   2.877   8.782 -0.1008  0.2288 -0.6422
  755MOL0     C99532   5.374   2.791   8.717  0.9978 -0.1376 -0.4568
  755MOL0     C99533   5.487   2.842   8.657  0.4360  0.7107  0.2708
  755MOL0     C99534   5.589   2.757   8.625  0.8636 -0.6437  0.0407
  755MOL0     C99535   5.578   2.619   8.635  0.8175  0.3875 -0.0151
  755MOL0     O99536   5.668   2.523   8.598  0.4102  0.0647  0.2727
  755MOL0     C99537   5.786   2.562   8.520  0.0769 -0.5553  0.1386
  755MOL0     C99538   5.864   2.441   8.469 -0.0444 -0.4142  1.0722
  755MOL0     C99539   5.903   2.334   8.568 -0.5319  0.1252  0.4524
  755MOL0     C99540   5.909   2.187   8.503 -0.9898  0.6434  0.2459
  755MOL0     C99541   5.956   2.181   8.362 -0.1784 -1.0779 -0.3801
  755MOL0     C99542   6.094   2.241   8.348 -0.5425 -0.5456 -0.1256
  755MOL0     C99543   6.153   2.222   8.213 -0.8621  0.6672 -0.2631
  755MOL0     C99544   6.269   2.316   8.180  0.4314 -0.6618 -0.4972
  755MOL0     N99545   6.358   2.270   8.076  0.2905 -1.1247 -0.3464
  755MOL0     C99546   6.433   2.159   8.086  0.0774  0.0051 -0.8014
  755MOL0     C99547   6.511   2.165   7.976  0.2746  0.0641  0.1193
  755MOL0     C99548   6.612   2.060   7.933  0.5112  0.5863 -0.4215
  755MOL0     C99549   6.761   2.057   7.972  0.6204  0.1300  0.3899
  755MOL0     C99550   6.833   2.172   7.891  0.2105 -0.1394  0.2497
  755MOL0     C99551   6.874   2.134   7.748  0.0500  0.2576 -0.0079
  755MOL0     O99552   6.965   2.237   7.685  0.4298  0.8080 -0.1775
  755MOL0     C99553   6.907   2.334   7.623  0.6333 -0.0839 -0.3138
  755MOL0     C99554   6.777   2.378   7.627 -0.2520 -0.0944 -0.6016
  755MOL0     C99555   6.730   2.487   7.555 -0.0053 -0.2905  0.1359
  755MOL0     C99556   6.814   2.545   7.463  0.1405 -0.6656  0.2704
  755MOL0     C99557   6.774   2.649   7.362 -0.7918  0.1660  0.2161
  755MOL0     O99558   6.874   2.709   7.293  0.1293  0.2232  0.3967
  755MOL0     C99559   6.845   2.820   7.223 -0.8773  0.6705  0.7331
  755MOL0     C99560   6.838   2.818   7.078 -0.0370  0.1152  0.6095
  755MOL0     C99561   6.816   2.933   7.009 -0.5099 -0.6478  0.9011
  755MOL0     C99562   6.799   3.059   7.074  0.6199 -1.0923 -0.9244
  755MOL0     O99563   6.806   3.177   7.003 -0.4690 -0.3504  1.1523
  755MOL0     C99564   6.756   3.292   7.056  1.0199  0.1834  0.1013
  755MOL0     C99565   6.739   3.406   6.956  0.2400 -0.2905  0.0269
  755MOL0     C99566   6.869   3.404   6.874  0.2642 -0.5841  0.9688
  755MOL0     C99567   6.872   3.531   6.794  0.6573 -0.3071  0.4402
  755MOL0     C99568   6.996   3.519   6.705  0.0215 -0.7865  0.7593
  755MOL0     C99569   7.038   3.656   6.650 -0.6805 -0.0624 -0.4455
  755MOL0     C99570   7.157   3.659   6.552  0.6504 -0.4544  0.1994
  755MOL0     C99571   7.299   3.657   6.607  0.5508 -0.0612  0.2042
  755MOL0    Cl99572   7.329   3.529   6.722 -0.0752 -0.5420  0.3219
  755MOL0     C99573   6.784   3.059   7.211  0.5932 -0.6001 -0.5509
  755MOL0     C99574   6.806   2.935   7.282  0.6334 -0.8608  0.7089
  755MOL0     O99575   6.653   2.669   7.337 -0.3496 -0.8189  0.3135
  755MOL0     C99576   6.946   2.501   7.447  0.5472  0.2419 -0.0864
  755MOL0     C99577   6.984   2.397   7.530  0.5293  0.5922 -0.1546
  755MOL0     N99578   6.490   2.282   7.895  0.1491  0.7255  0.5234
  755MOL0     N99579   6.384   2.336   7.954  0.4386  0.6136  0.2597
  755MOL0     C99580   5.468   2.562   8.694  0.3706 -0.4684  0.2457
  755MOL0     C99581   5.369   2.655   8.742  0.6135  0.7933 -0.7878
  755MOL0     C99582   5.083   2.988   8.802 -1.3098 -0.4044 -0.2235
  755MOL0     C99583   4.954   3.004   8.767  0.7967  0.5120  1.1345
  755MOL0     C99584   4.855   3.070   8.842  0.0439 -0.4902  0.4020
  755MOL0     C99585   4.894   3.136   8.954  0.3588 -0.4117 -0.9115
  755MOL0     O99586   4.820   3.212   9.043  0.4199 -0.1103 -0.1404
  755MOL0     C99587   4.687   3.249   9.007 -0.4926  0.6386 -0.2487
  755MOL0     C99588   4.622   3.330   9.115  0.2466 -0.1120  0.7149
  755MOL0     C99589   4.660   3.476   9.106 -0.5277 -0.1170  0.4904
  755MOL0     C99590   4.595   3.555   9.219  1.0249  0.5489  0.7429
  755MOL0     C99591   4.461   3.568   9.167 -0.2528 -0.2516  0.2398
  755MOL0     C99592   4.352   3.575   9.117  0.3919 -0.5058 -0.2582
  755MOL0     C99593   5.027   3.113   8.998  0.4710  0.0641  0.2216
  755MOL0     C99594   5.119   3.042   8.927  0.3633 -0.9890 -0.0136
  755MOL0     H99595   5.491   2.950   8.641 -1.3123  0.6502 -0.7621
  755MOL0     H99596   5.668   2.797   8.562 -0.5176  0.2325 -1.2238
  755MOL0     H99597   5.863   2.622   8.570  1.7526 -1.6803 -1.0144
  755MOL0     H99598   5.763   2.609   8.424  2.5114 -0.2130 -0.3297
  755MOL0     H99599   5.954   2.479   8.419 -0.2082 -2.0830 -0.5816
  755MOL0     H99600   5.814   2.400   8.382  1.8834 -0.7082  0.0403
  755MOL0     H99601   5.835   2.335   8.654  1.0996  1.1501  1.7932
  755MOL0     H99602   6.004   2.361   8.601 -0.9491  1.0757  0.9833
  755MOL0     H99603   5.990   2.144   8.563  1.4502  2.4718 -1.4901
  755MOL0     H99604   5.815   2.133   8.513 -1.0235 -0.1799 -3.4208
  755MOL0     H99605   5.874   2.211   8.296 -0.3787 -2.0108 -0.5685
  755MOL0     H99606   5.973   2.078   8.330 -1.3250 -0.8502 -1.8457
  755MOL0     H99607   6.163   2.217   8.429 -2.3768 -2.8273  0.8497
  755MOL0     H99608   6.081   2.350   8.344 -0.5587 -0.5628 -3.9959
  755MOL0     H99609   6.193   2.120   8.201 -1.3481  0.6770 -2.4324
  755MOL0     H99610   6.076   2.240   8.138 -0.3060  1.8880 -0.5645
  755MOL0     H99611   6.333   2.305   8.268  0.7175 -0.6569 -0.7056
  755MOL0     H99612   6.239   2.419   8.156 -1.5077 -0.8680  0.7567
  755MOL0     H99613   6.429   2.077   8.157 -0.0081  0.5223 -0.1980
  755MOL0     H99614   6.608   2.081   7.826  1.1975  2.3961 -0.1265
  755MOL0     H99615   6.568   1.965   7.966 -1.6869  2.1566  1.5704
  755MOL0     H99616   6.800   1.959   7.941 -3.1240 -1.2675 -0.4938
  755MOL0     H99617   6.769   2.078   8.079 -0.8883  0.7508  0.3936
  755MOL0     H99618   6.770   2.261   7.891 -0.2763 -0.4687  1.1568
  755MOL0     H99619   6.924   2.197   7.946  1.7264 -1.4730 -1.5336
  755MOL0     H99620   6.786   2.120   7.683 -0.0943  5.1983 -1.2906
  755MOL0     H99621   6.921   2.035   7.743 -0.4552 -0.0888  1.4474
  755MOL0     H99622   6.705   2.334   7.696  0.5060 -1.7228 -0.8226
  755MOL0     H99623   6.624   2.512   7.552  0.7141  3.2995  0.1285
  755MOL0     H99624   6.855   2.726   7.022  2.8413 -1.0862  3.1131
  755MOL0     H99625   6.812   2.928   6.901  0.9114  1.9212  0.6346
  755MOL0     H99626   6.827   3.333   7.128 -0.4220 -0.2097  1.8263
  755MOL0     H99627   6.659   3.281   7.105  1.3124  2.4152  1.3148
  755MOL0     H99628   6.738   3.500   7.013 -0.4647 -0.5431  0.4347
  755MOL0     H99629   6.648   3.378   6.902 -0.9255 -0.5620  2.0203
  755MOL0     H99630   6.875   3.313   6.815 -0.9540 -1.5313  2.2471
  755MOL0     H99631   6.949   3.408   6.948 -1.6224 -1.5651  3.1620
  755MOL0     H99632   6.783   3.550   6.734  0.6467  2.2962  1.1223
  755MOL0     H99633   6.892   3.614   6.863  0.6528 -0.4089  0.5645
  755MOL0     H99634   6.955   3.456   6.626  1.2348  0.4051 -0.8714
  755MOL0     H99635   7.075   3.470   6.763  1.9834  1.3767  0.0411
  755MOL0     H99636   7.054   3.734   6.725 -0.1063  1.0938 -1.7423
  755MOL0     H99637   6.955   3.687   6.587 -1.5328 -1.7285 -0.1960
  755MOL0     H99638   7.147   3.575   6.483  0.3505 -0.3489  0.1117
  755MOL0     H99639   7.130   3.747   6.493 -2.6727 -1.0692  0.6092
  755MOL0     H99640   7.297   3.751   6.664 -1.4762  0.3535 -0.4768
  755MOL0     H99641   7.380   3.655   6.533 -0.3181 -2.8826 -0.7827
  755MOL0     H99642   6.768   3.153   7.265  1.6396 -1.0001  0.5091
  755MOL0     H99643   6.786   2.946   7.388 -2.8614 -0.4373  0.1145
  755MOL0     H99644   7.016   2.534   7.371  0.2090 -1.8054 -1.3872
  755MOL0     H99645   7.087   2.365   7.519  0.3123 -0.3063  0.3063
  755MOL0     H99646   5.456   2.459   8.727  0.2273 -0.9751 -1.2802
  755MOL0     H99647   5.286   2.617   8.800  0.7169 -1.9585 -2.2563
  755MOL0     H99648   4.906   2.951   8.685  0.7660 -1.5104  2.3687
  755MOL0     H99649   4.756   3.075   8.797  0.2050  0.6343  0.1524
  755MOL0     H99650   4.628   3.158   8.994 -1.0675  1.1742 -1.5461
  755MOL0     H99651   4.697   3.305   8.914  2.5081  0.5309 -0.0766
  755MOL0     H99652   4.513   3.319   9.116  0.0339  1.3939  3.1918
  755MOL0     H99653   4.669   3.289   9.205  1.1662 -1.1306 -0.2038
  755MOL0     H99654   4.639   3.523   9.009 -1.2307  0.0577  0.7193
  755MOL0     H99655   4.769   3.480   9.103 -0.5536  0.3308 -1.8592
  755MOL0     H99656   4.612   3.516   9.320  1.7993  0.1464  0.4682
  755MOL0     H99657   4.622   3.661   9.209  0.2188  0.5138 -5.8584
  755MOL0     H99658   4.252   3.558   9.083  0.1829  1.0414 -0.4864
  755MOL0     H99659   5.057   3.172   9.084  0.5185  0.1605  0.1389
  755MOL0     H99660   5.214   3.022   8.977  0.7688  2.2788  0.8069
  756MOL0     O99661  11.038   6.977   6.382 -0.0240 -0.0093  0.3906
  756MOL0     C99662  10.963   6.883   6.404  0.3061  0.5311 -0.1364
  756MOL0     O99663  11.010   6.758   6.411  0.4004 -0.5853 -0.4415
  756MOL0     C99664  11.135   6.745   6.350  0.2582  0.4747  0.9958
  756MOL0     C99665  11.253   6.709   6.419 -0.2209 -0.3766  0.4291
  756MOL0     C99666  11.369   6.673   6.344  0.5768 -0.3652 -0.5771
  756MOL0     C99667  11.377   6.693   6.213  0.3893  0.9533  0.1601
  756MOL0     O99668  11.484   6.654   6.143 -0.4077  0.3806  0.9678
  756MOL0     C99669  11.477   6.547   6.047 -0.2728 -0.2660  0.4947
  756MOL0     C99670  11.561   6.587   5.921 -0.1909  0.0732 -0.2399
  756MOL0     C99671  11.507   6.712   5.857  0.1636  0.3685  0.2477
  756MOL0     C99672  11.580   6.740   5.720  0.4847  0.0384  0.2792
  756MOL0     C99673  11.488   6.855   5.651 -0.5099 -0.1543 -0.0494
  756MOL0     C99674  11.538   6.884   5.505 -0.9519  0.9061 -0.2607
  756MOL0     C99675  11.515   6.756   5.410  0.9781 -0.3492  0.3447
  756MOL0     C99676  11.520   6.813   5.269  0.7024 -0.5267 -0.5098
  756MOL0     N99677  11.489   6.714   5.162 -0.5175 -0.1246  0.5138
  756MOL0     C99678  11.518   6.583   5.161 -0.3812  0.8697  0.3480
  756MOL0     C99679  11.465   6.535   5.045 -0.3241  0.4325 -1.0555
  756MOL0     C99680  11.475   6.392   5.005  0.9578  0.2819  0.2769
  756MOL0     C99681  11.618   6.330   5.015  0.1820 -0.1262  1.2332
  756MOL0     C99682  11.668   6.275   5.154  0.8693 -1.3409 -1.3213
  756MOL0     C99683  11.621   6.130   5.185  0.5012 -0.1593  0.0465
  756MOL0     O99684  11.481   6.124   5.205 -0.6563  0.0200  0.2530
  756MOL0     C99685  11.434   5.994   5.214 -0.5142  0.2965  0.5813
  756MOL0     C99686  11.302   5.990   5.187  0.0578 -0.2181  0.2786
  756MOL0     C99687  11.221   5.879   5.210 -0.5568  0.1706 -0.5141
  756MOL0     C99688  11.279   5.760   5.260  0.8266  0.2872 -0.4772
  756MOL0     C99689  11.187   5.638   5.269 -0.0888 -0.1152 -0.6574
  756MOL0     O99690  11.053   5.651   5.297  0.3487 -0.0972  0.1012
  756MOL0     C99691  10.964   5.539   5.312  0.3572 -0.1848  0.1381
  756MOL0     C99692  10.970   5.438   5.404  0.5258  0.3958 -0.0163
  756MOL0     C99693  10.869   5.339   5.425  0.0400 -1.2631  0.2917
  756MOL0     C99694  10.759   5.338   5.343 -1.0743 -0.0750  0.5532
  756MOL0     O99695  10.666   5.236   5.330 -0.2343 -0.4234 -0.7721
  756MOL0     C99696  10.707   5.108   5.299 -0.5625  0.3543 -0.4865
  756MOL0     C99697  10.799   5.091   5.178 -0.1590  0.6542 -0.3278
  756MOL0     C99698  10.741   5.138   5.049  0.4710 -0.0058 -0.5096
  756MOL0     C99699  10.817   5.087   4.927 -0.1168  0.0918  0.6174
  756MOL0     C99700  10.824   4.936   4.916 -0.8397  0.2344 -0.0548
  756MOL0     C99701  10.871   4.892   4.772  0.0200 -0.4264  0.0621
  756MOL0     C99702  11.014   4.922   4.734  0.3112 -0.1335  0.3607
  756MOL0     C99703  11.070   4.850   4.614 -0.3499  0.5053  0.5149
  756MOL0    Cl99704  11.053   4.673   4.615 -0.1891 -0.0303 -0.0604
  756MOL0     C99705  10.746   5.444   5.244  0.5628  0.4799 -0.7058
  756MOL0     C99706  10.845   5.542   5.239 -0.1678  1.1163 -0.7812
  756MOL0     O99707  11.249   5.535   5.275 -0.5198  0.9016  0.0799
  756MOL0     C99708  11.418   5.765   5.283 -0.6020  0.2476  0.4326
  756MOL0     C99709  11.497   5.884   5.266 -0.2316  0.4095  0.3290
  756MOL0     N99710  11.395   6.636   4.981  0.4565 -0.3139  0.4206
  756MOL0     N99711  11.406   6.741   5.057  0.4088  0.0180  0.2101
  756MOL0     C99712  11.267   6.732   6.140 -0.6193 -0.8225 -0.4746
  756MOL0     C99713  11.149   6.749   6.210  1.0449  0.4322 -0.1624
  756MOL0     C99714  10.827   6.923   6.444  0.1972 -0.0600  0.4706
  756MOL0     C99715  10.783   7.059   6.471  0.3122 -0.0375  0.6034
  756MOL0     C99716  10.653   7.089   6.503  0.3599  0.2163 -1.2626
  756MOL0     C99717  10.553   6.994   6.520 -0.3197 -0.6881 -0.1038
  756MOL0     O99718  10.417   7.001   6.552 -0.5740 -0.3415  1.3391
  756MOL0     C99719  10.355   7.123   6.508  0.0430  0.2612 -0.1181
  756MOL0     C99720  10.319   7.202   6.634 -0.0850  0.7418 -0.6320
  756MOL0     C99721  10.233   7.118   6.732 -0.0049  0.1842  0.1070
  756MOL0     C99722  10.086   7.139   6.704  0.6415 -0.4568 -0.4735
  756MOL0     C99723  10.040   7.101   6.569  0.2638 -0.4466  0.6644
  756MOL0     C99724   9.993   7.075   6.461 -0.2177 -0.5620 -0.7829
  756MOL0     C99725  10.597   6.860   6.490  0.2642 -0.4898  0.0720
  756MOL0     C99726  10.730   6.822   6.457  0.2353 -0.0265  0.8823
  756MOL0     H99727  11.238   6.694   6.526 -0.6582 -2.6893  0.0835
  756MOL0     H99728  11.459   6.648   6.399  0.6389  1.8889  0.4312
  756MOL0     H99729  11.376   6.523   6.011 -0.0808 -0.6084  0.1744
  756MOL0     H99730  11.509   6.457   6.100  2.0243  0.3845  0.2948
  756MOL0     H99731  11.552   6.502   5.852  2.8772 -1.4865  1.0475
  756MOL0     H99732  11.660   6.607   5.965 -0.3017 -0.9877  0.5488
  756MOL0     H99733  11.535   6.799   5.917 -0.3212  1.7357 -1.4201
  756MOL0     H99734  11.398   6.708   5.841  0.3928  2.4179 -2.8058
  756MOL0     H99735  11.687   6.760   5.730  0.2242  1.7576 -0.0328
  756MOL0     H99736  11.555   6.650   5.663  2.8224  0.0642 -0.8717
  756MOL0     H99737  11.492   6.945   5.713 -1.0432 -1.7006  2.3950
  756MOL0     H99738  11.380   6.836   5.647 -0.6889  1.0186 -1.8363
  756MOL0     H99739  11.642   6.919   5.501 -0.9780  1.6690  3.0360
  756MOL0     H99740  11.470   6.957   5.459 -2.4157 -1.1438 -1.5205
  756MOL0     H99741  11.583   6.677   5.443  2.2944  1.9004  3.5141
  756MOL0     H99742  11.409   6.732   5.415  0.8682 -0.4106 -1.4727
  756MOL0     H99743  11.623   6.849   5.267  1.1330 -1.6486  0.4433
  756MOL0     H99744  11.454   6.900   5.263  0.7832 -0.3804  0.5191
  756MOL0     H99745  11.557   6.522   5.242 -3.5851  1.5118  2.5533
  756MOL0     H99746  11.426   6.363   4.912 -0.7480 -1.1021  1.5368
  756MOL0     H99747  11.408   6.347   5.079  0.7444  0.9439  0.4938
  756MOL0     H99748  11.695   6.396   4.972 -0.8861 -0.3705 -1.1946
  756MOL0     H99749  11.617   6.249   4.942  1.1586  0.5290  0.4646
  756MOL0     H99750  11.777   6.268   5.153  1.1442 -0.3810  3.3298
  756MOL0     H99751  11.653   6.347   5.234  3.6801 -1.1489 -0.8712
  756MOL0     H99752  11.670   6.096   5.277  0.5841  3.4496  1.4837
  756MOL0     H99753  11.655   6.068   5.101  3.0820  1.1372  0.0317
  756MOL0     H99754  11.251   6.080   5.153 -0.2633 -0.7835 -0.8004
  756MOL0     H99755  11.117   5.888   5.181 -0.7475  1.9975  0.5171
  756MOL0     H99756  11.055   5.441   5.471 -0.6131  2.3666  1.4436
  756MOL0     H99757  10.884   5.261   5.500 -0.5066 -1.6693 -0.0151
  756MOL0     H99758  10.607   5.066   5.282  0.7136 -3.6121  0.6968
  756MOL0     H99759  10.741   5.059   5.390 -1.5983 -0.3802 -0.4781
  756MOL0     H99760  10.796   4.982   5.169 -0.5803  0.6376 -0.0652
  756MOL0     H99761  10.899   5.131   5.195  0.3320 -0.6620 -0.0519
  756MOL0     H99762  10.748   5.247   5.042 -4.3129  0.4696 -1.1409
  756MOL0     H99763  10.634   5.115   5.045  0.8247 -1.5244 -1.9216
  756MOL0     H99764  10.765   5.131   4.842  0.4227 -1.8551 -0.7791
  756MOL0     H99765  10.915   5.135   4.927 -0.2657  0.4541 -1.3807
  756MOL0     H99766  10.726   4.891   4.929 -0.6658 -0.1399 -0.0131
  756MOL0     H99767  10.885   4.886   4.991 -1.5525 -0.0155  0.3656
  756MOL0     H99768  10.805   4.929   4.693  0.2716 -0.3384 -0.1082
  756MOL0     H99769  10.868   4.783   4.773  0.3874 -0.4555 -0.9827
  756MOL0     H99770  11.007   5.026   4.704 -3.0149 -0.1471  0.6806
  756MOL0     H99771  11.086   4.922   4.816 -1.6954  2.6512  2.3177
  756MOL0     H99772  11.177   4.870   4.614 -0.7548  3.3805 -1.7852
  756MOL0     H99773  11.037   4.881   4.515  1.8860 -1.7583 -1.0554
  756MOL0     H99774  10.661   5.430   5.178 -0.6795 -0.2067  0.9419
  756MOL0     H99775  10.811   5.631   5.188 -4.1070 -0.5331 -1.3415
  756MOL0     H99776  11.454   5.669   5.318 -1.1698 -0.8302 -1.8205
  756MOL0     H99777  11.602   5.894   5.292 -0.6589  6.0205  1.2174
  756MOL0     H99778  11.295   6.758   6.038  0.9493 -1.1161 -0.1473
  756MOL0     H99779  11.064   6.771   6.146  2.8417  1.1963 -2.4402
  756MOL0     H99780  10.849   7.143   6.459 -2.6165  2.1070 -2.7032
  756MOL0     H99781  10.623   7.194   6.509 -1.6131 -0.0803 -4.1463
  756MOL0     H99782  10.276   7.082   6.445  0.6913 -0.4811 -0.4631
  756MOL0     H99783  10.420   7.185   6.446 -1.2041  2.5744  0.7589
  756MOL0     H99784  10.410   7.248   6.673  1.2861 -1.9073 -0.4950
  756MOL0     H99785  10.268   7.288   6.590  0.7953  0.6631 -1.8480
  756MOL0     H99786  10.236   7.163   6.832 -2.3200  1.2738 -0.2629
  756MOL0     H99787  10.272   7.016   6.740 -0.1756 -0.1980 -2.9622
  756MOL0     H99788  10.022   7.086   6.775 -3.3103 -1.2475 -4.2091
  756MOL0     H99789  10.055   7.243   6.722  2.9052  0.3609 -0.9812
  756MOL0     H99790   9.970   7.059   6.357 -0.3091  0.1459 -0.8719
  756MOL0     H99791  10.519   6.785   6.492 -1.5360  1.2166 -1.5169
  756MOL0     H99792  10.755   6.717   6.443 -2.3988 -0.7412  1.0821
  757MOL0     O99793   5.921   6.092   0.870 -0.7112 -0.1671 -0.4455
  757MOL0     C99794   5.875   6.193   0.926  0.0059  0.3173  0.4755
  757MOL0     O99795   5.796   6.282   0.866  0.0426 -0.2962 -0.2105
  757MOL0     C99796   5.748   6.246   0.738 -1.2230  0.4805  1.7829
  757MOL0     C99797   5.839   6.219   0.632  0.4140  0.0792 -0.5493
  757MOL0     C99798   5.790   6.195   0.506  0.3129 -1.3235 -0.2749
  757MOL0     C99799   5.650   6.205   0.479  0.1289 -0.4383  0.4934
  757MOL0     O99800   5.615   6.196   0.346  0.3465 -0.4824 -0.2542
  757MOL0     C99801   5.476   6.180   0.312  0.4398  0.0616  0.1909
  757MOL0     C99802   5.475   6.174   0.159 -0.2148  0.1945 -0.1133
  757MOL0     C99803   5.459   6.316   0.104 -0.4539 -0.5058  1.0843
  757MOL0     C99804   5.465   6.313  -0.051 -0.7736  0.9386 -0.2194
  757MOL0     C99805   5.336   6.232  -0.106 -0.3605 -0.1154  0.5901
  757MOL0     C99806   5.332   6.247  -0.261  0.1190 -0.2159  0.2700
  757MOL0     C99807   5.228   6.346  -0.311  0.3154 -0.2830  0.3353
  757MOL0     C99808   5.091   6.290  -0.364 -0.3867  0.1560  0.0858
  757MOL0     N99809   5.019   6.203  -0.274  0.4993  0.5343  0.3428
  757MOL0     C99810   4.945   6.247  -0.162 -0.0513  0.1212 -0.4423
  757MOL0     C99811   4.887   6.137  -0.109 -0.2339 -0.1331  0.8940
  757MOL0     C99812   4.803   6.141   0.008 -0.3210  0.8464 -1.0590
  757MOL0     C99813   4.659   6.188  -0.002  0.2869  0.5525  0.8818
  757MOL0     C99814   4.642   6.332  -0.029  0.0691 -0.7651  0.5704
  757MOL0     C99815   4.491   6.353  -0.066 -0.3143  0.7186 -0.2066
  757MOL0     O99816   4.467   6.484  -0.110 -0.3619 -0.9860  1.0542
  757MOL0     C99817   4.349   6.515  -0.175  0.7841 -1.1427  0.3856
  757MOL0     C99818   4.335   6.647  -0.229  0.0206  0.3223 -0.0389
  757MOL0     C99819   4.228   6.668  -0.322 -0.3673 -0.1932 -1.5835
  757MOL0     C99820   4.134   6.578  -0.347 -0.0729  0.3031  0.5672
  757MOL0     C99821   4.030   6.598  -0.456  0.3135 -0.0227 -0.1175
  757MOL0     O99822   4.049   6.702  -0.547  0.0258 -0.2582  0.1235
  757MOL0     C99823   3.935   6.754  -0.609 -0.1044  0.4877 -0.1817
  757MOL0     C99824   3.951   6.815  -0.737  1.0748  1.4058 -0.7584
  757MOL0     C99825   3.854   6.889  -0.801 -0.6483 -0.2066 -0.3285
  757MOL0     C99826   3.717   6.890  -0.751 -1.5111 -0.3919  0.9873
  757MOL0     O99827   3.621   6.953  -0.814 -0.2175  0.1708  0.6265
  757MOL0     C99828   3.476   6.929  -0.776 -0.2663  0.6503  0.4540
  757MOL0     C99829   3.430   6.821  -0.868 -1.6104  0.3031 -0.8498
  757MOL0     C99830   3.332   6.853  -0.986  0.8843 -0.3951 -0.0846
  757MOL0     C99831   3.212   6.922  -0.948  0.3410  0.4062 -1.2340
  757MOL0     C99832   3.107   6.941  -1.058  0.1658 -0.3801  0.2799
  757MOL0     C99833   2.975   7.024  -1.013 -0.1374 -0.1244  0.2191
  757MOL0     C99834   2.853   6.999  -1.108 -0.6082 -0.2243 -0.3765
  757MOL0     C99835   2.868   7.078  -1.245 -0.4133 -0.4018 -0.3326
  757MOL0    Cl99836   2.952   7.239  -1.225  0.0032  0.4391 -0.4289
  757MOL0     C99837   3.705   6.856  -0.616  0.2710  0.3024  0.4438
  757MOL0     C99838   3.809   6.788  -0.554  0.1901 -0.2255 -0.2908
  757MOL0     O99839   3.931   6.537  -0.446 -0.1119  0.3844 -0.7254
  757MOL0     C99840   4.146   6.460  -0.278 -0.8963  1.2666  0.8049
  757MOL0     C99841   4.251   6.422  -0.195  0.3973 -0.2966 -0.4791
  757MOL0     N99842   4.916   6.033  -0.194 -0.0893  0.4886  0.4066
  757MOL0     N99843   5.011   6.066  -0.282 -0.0208  0.2850  0.6474
  757MOL0     C99844   5.563   6.227   0.579 -0.0747  0.1239  0.3470
  757MOL0     C99845   5.607   6.242   0.707 -1.0377 -1.2360  0.1813
  757MOL0     C99846   5.909   6.216   1.062  0.9065  0.8171  0.6953
  757MOL0     C99847   5.895   6.345   1.123  0.0588  0.3196 -1.3707
  757MOL0     C99848   5.932   6.368   1.252 -1.2799  0.1297  0.4663
  757MOL0     C99849   5.973   6.259   1.329  0.6189  0.1852 -0.5774
  757MOL0     O99850   6.007   6.276   1.456 -0.0153 -0.8351  0.3830
  757MOL0     C99851   6.144   6.275   1.499  0.8561 -0.0718 -0.6325
  757MOL0     C99852   6.143   6.300   1.655  1.3812 -0.2205  0.0821
  757MOL0     C99853   6.142   6.171   1.734 -0.1842 -1.0278 -0.5707
  757MOL0     C99854   6.000   6.129   1.761 -0.7927 -1.1588  0.6992
  757MOL0     C99855   5.989   5.993   1.810 -0.5813  0.4618 -0.0274
  757MOL0     C99856   5.973   5.876   1.852  0.9306 -0.6910  0.1492
  757MOL0     C99857   5.972   6.133   1.273 -0.7685 -0.3053 -0.1657
  757MOL0     C99858   5.942   6.113   1.144 -0.8621  0.2153  0.0244
  757MOL0     H99859   5.945   6.218   0.653  0.3760  0.6944 -0.3004
  757MOL0     H99860   5.860   6.191   0.422  1.2935  0.9558  0.3674
  757MOL0     H99861   5.410   6.262   0.344 -0.8756 -0.8061 -0.2156
  757MOL0     H99862   5.431   6.085   0.341 -0.5693  1.4173  3.5384
  757MOL0     H99863   5.384   6.119   0.132 -0.2389  0.3265 -0.3000
  757MOL0     H99864   5.562   6.126   0.114  0.5085 -0.2770  1.6750
  757MOL0     H99865   5.543   6.376   0.140  1.3215 -0.6666 -2.3365
  757MOL0     H99866   5.365   6.366   0.127 -1.8524  0.0261 -4.2812
  757MOL0     H99867   5.472   6.414  -0.091 -3.7700  1.7329  1.0038
  757MOL0     H99868   5.541   6.241  -0.083 -1.8544 -2.2222  3.5626
  757MOL0     H99869   5.248   6.285  -0.068 -0.9626 -1.5552  1.2528
  757MOL0     H99870   5.326   6.129  -0.072 -4.2295  0.3358  1.3350
  757MOL0     H99871   5.322   6.151  -0.313 -0.5608  0.1216 -0.2294
  757MOL0     H99872   5.430   6.286  -0.290  0.2256 -1.5039 -1.2475
  757MOL0     H99873   5.211   6.419  -0.231 -4.2717 -0.3130 -0.3650
  757MOL0     H99874   5.272   6.406  -0.392  2.8736  1.4211  2.7946
  757MOL0     H99875   5.086   6.251  -0.466 -2.0005  2.5878 -0.8739
  757MOL0     H99876   5.034   6.383  -0.376 -0.0959  0.3957  0.5293
  757MOL0     H99877   4.922   6.347  -0.127 -2.4830  0.9154 -3.7874
  757MOL0     H99878   4.850   6.199   0.088  0.8669  0.2313 -1.2897
  757MOL0     H99879   4.804   6.038   0.045  1.9069  0.1608 -2.8073
  757MOL0     H99880   4.588   6.158   0.076 -2.5785  1.4672 -1.1787
  757MOL0     H99881   4.625   6.126  -0.086  1.1390  0.1301  0.8437
  757MOL0     H99882   4.661   6.381   0.067 -3.1716  1.2969  0.3048
  757MOL0     H99883   4.697   6.369  -0.116 -1.5818  3.2010  0.9903
  757MOL0     H99884   4.427   6.341   0.022 -3.4472  1.9808 -2.1266
  757MOL0     H99885   4.462   6.268  -0.129 -0.1917 -0.7277  1.5982
  757MOL0     H99886   4.416   6.718  -0.221  0.0839  0.0781  2.2020
  757MOL0     H99887   4.225   6.767  -0.367  2.6156  1.7145  1.8179
  757MOL0     H99888   4.051   6.797  -0.776  1.2395 -1.4506  0.6766
  757MOL0     H99889   3.876   6.939  -0.895  0.8467 -3.2996 -1.7506
  757MOL0     H99890   3.421   7.019  -0.804 -1.3400 -0.2300 -0.3693
  757MOL0     H99891   3.452   6.916  -0.670  0.0613 -0.9449  0.3593
  757MOL0     H99892   3.392   6.741  -0.804 -0.6055  1.1810  0.9001
  757MOL0     H99893   3.519   6.778  -0.914 -0.6428  2.3114 -0.9859
  757MOL0     H99894   3.307   6.756  -1.030 -2.2549 -0.6238  1.8759
  757MOL0     H99895   3.381   6.926  -1.050 -0.5670  0.8853  0.1822
  757MOL0     H99896   3.172   6.860  -0.866 -0.4607  3.6964  1.0839
  757MOL0     H99897   3.240   7.018  -0.905  1.5794 -0.8344  0.9282
  757MOL0     H99898   3.075   6.843  -1.097  0.2780  0.7861 -3.0199
  757MOL0     H99899   3.155   6.987  -1.145 -0.6838 -1.6872 -0.9296
  757MOL0     H99900   3.013   7.126  -1.005  1.0381 -0.5816  0.5902
  757MOL0     H99901   2.937   6.988  -0.917 -0.0689 -0.8119 -0.0067
  757MOL0     H99902   2.840   6.893  -1.130 -2.2031  0.2707 -2.1008
  757MOL0     H99903   2.762   7.037  -1.059 -0.0258  0.3756  0.2605
  757MOL0     H99904   2.773   7.091  -1.297 -0.9635 -0.9538  0.5136
  757MOL0     H99905   2.922   7.021  -1.321 -3.5321 -1.7430 -1.7436
  757MOL0     H99906   3.614   6.869  -0.559  0.5952  3.1350  0.4211
  757MOL0     H99907   3.781   6.771  -0.450 -2.3238  2.9748 -0.2809
  757MOL0     H99908   4.073   6.381  -0.293  0.3690  0.6836 -3.9920
  757MOL0     H99909   4.259   6.320  -0.158 -0.4247 -0.8349 -1.7397
  757MOL0     H99910   5.455   6.214   0.573  0.0075 -2.7883  2.7934
  757MOL0     H99911   5.535   6.255   0.787 -1.1823 -0.5159 -0.0567
  757MOL0     H99912   5.880   6.438   1.069  0.6887  2.6547  2.0881
  757MOL0     H99913   5.926   6.465   1.301 -1.6470 -1.2251  3.3203
  757MOL0     H99914   6.205   6.350   1.446  1.0811 -0.0481 -0.3438
  757MOL0     H99915   6.185   6.175   1.480 -2.3979 -1.3364 -1.5946
  757MOL0     H99916   6.234   6.352   1.688  1.9608  0.1922 -2.0317
  757MOL0     H99917   6.056   6.359   1.682  0.1862 -2.8703  2.6899
  757MOL0     H99918   6.196   6.183   1.828 -1.6805  0.0059  0.2085
  757MOL0     H99919   6.184   6.088   1.677 -2.1040 -1.1201 -1.9863
  757MOL0     H99920   5.960   6.186   1.845  4.0179 -0.3141  2.7290
  757MOL0     H99921   5.939   6.139   1.670  0.3348  3.1232  0.2031
  757MOL0     H99922   5.941   5.781   1.888  0.5000 -0.3031  0.8303
  757MOL0     H99923   5.978   6.048   1.340 -3.0525  0.5091  1.1910
  757MOL0     H99924   5.949   6.014   1.100 -0.1705  0.1626  0.2515
  758MOL0     O99925   4.282   5.206  11.358  0.2116 -0.1835  0.7050
  758MOL0     C99926   4.232   5.142  11.267  0.2271  0.5463 -0.7079
  758MOL0     O99927   4.280   5.135  11.132  0.2683 -0.2823 -0.3211
  758MOL0     C99928   4.373   5.224  11.097 -0.2247 -0.2735  0.4660
  758MOL0     C99929   4.338   5.304  10.986 -0.1159  1.2406  0.4176
  758MOL0     C99930   4.428   5.383  10.934  0.0824 -1.0958  0.1226
  758MOL0     C99931   4.565   5.399  10.977  0.0426  0.8934 -0.1863
  758MOL0     O99932   4.643   5.479  10.903  0.1730  0.4374  0.8022
  758MOL0     C99933   4.786   5.468  10.915 -0.4485 -0.0824  0.0381
  758MOL0     C99934   4.854   5.538  10.794 -0.1564 -0.1388  0.1011
  758MOL0     C99935   4.840   5.694  10.803  0.3872 -0.3484  0.0461
  758MOL0     C99936   4.918   5.772  10.703  0.8667  0.2498 -0.9297
  758MOL0     C99937   4.865   5.914  10.691 -0.2516 -0.2547  0.2034
  758MOL0     C99938   4.952   6.000  10.596 -0.7681  0.0474 -0.3085
  758MOL0     C99939   4.909   5.995  10.444  0.5123 -0.0702 -1.4381
  758MOL0     C99940   5.026   6.051  10.364 -1.0844 -0.7781  0.4251
  758MOL0     N99941   5.014   6.194  10.349 -0.5898  0.1781  0.0285
  758MOL0     C99942   5.021   6.285  10.449  0.9119 -0.1352  0.5315
  758MOL0     C99943   4.997   6.401  10.374  0.3999  0.3262  0.4800
  758MOL0     C99944   5.009   6.545  10.432 -0.5777  0.3283 -0.2147
  758MOL0     C99945   4.896   6.607  10.498 -0.2573 -0.2404  0.2964
  758MOL0     C99946   4.763   6.583  10.425  0.3222  0.8220 -0.2944
  758MOL0     C99947   4.732   6.653  10.293  0.4903  0.0305  0.0536
  758MOL0     O99948   4.769   6.794  10.308 -0.3823  0.5712  0.2093
  758MOL0     C99949   4.678   6.890  10.259  0.0399 -0.9960 -0.1123
  758MOL0     C99950   4.550   6.870  10.203 -0.5550  0.5330 -0.1821
  758MOL0     C99951   4.460   6.956  10.151  0.2533  0.0270 -0.4565
  758MOL0     C99952   4.500   7.087  10.161  0.4360  1.0939  0.3005
  758MOL0     C99953   4.405   7.188  10.107 -0.0404  0.6818 -0.8767
  758MOL0     O99954   4.272   7.150  10.081  0.3050  0.8736  0.3604
  758MOL0     C99955   4.180   7.249  10.067 -0.0327  0.8206  0.4443
  758MOL0     C99956   4.128   7.279   9.937  0.0592 -0.8010 -0.1246
  758MOL0     C99957   4.037   7.375   9.926  0.3728  0.0343 -0.2729
  758MOL0     C99958   3.984   7.442  10.044  0.7398 -0.3283 -0.3650
  758MOL0     O99959   3.886   7.544  10.020 -0.5764  0.2851 -0.1529
  758MOL0     C99960   3.855   7.649  10.112  0.5907  0.0217 -0.3078
  758MOL0     C99961   3.721   7.640  10.196  0.2172 -0.0530  0.1695
  758MOL0     C99962   3.694   7.772  10.277  0.7801  0.1328 -0.3862
  758MOL0     C99963   3.645   7.888  10.196  0.6415 -0.4206 -0.0634
  758MOL0     C99964   3.494   7.865  10.153 -0.0810  0.5146  0.1203
  758MOL0     C99965   3.459   7.949  10.018 -0.7237 -0.5234  0.6090
  758MOL0     C99966   3.312   7.941   9.979  0.0737 -0.1421  0.1278
  758MOL0     C99967   3.297   7.982   9.836 -0.0549 -0.3774  0.7375
  758MOL0    Cl99968   3.134   7.966   9.784 -0.0459 -0.6524  0.1635
  758MOL0     C99969   4.047   7.416  10.165  0.7084  0.2622  0.0779
  758MOL0     C99970   4.146   7.322  10.176 -0.5582  0.8099 -0.0340
  758MOL0     O99971   4.450   7.304  10.112 -0.1177  0.3809 -0.0160
  758MOL0     C99972   4.627   7.123  10.216  1.6873 -0.7180 -0.3757
  758MOL0     C99973   4.719   7.023  10.261 -0.0559  0.5931  0.0154
  758MOL0     N99974   4.981   6.372  10.238  0.6002 -0.6365 -0.2257
  758MOL0     N99975   4.996   6.243  10.227  0.6631  0.3487  0.6322
  758MOL0     C99976   4.601   5.323  11.088 -0.4035 -0.3253  0.0602
  758MOL0     C99977   4.506   5.230  11.134 -0.2114 -0.3241 -0.5143
  758MOL0     C99978   4.108   5.069  11.273 -0.4393  0.3851  0.4548
  758MOL0     C99979   4.095   4.943  11.210  0.1633 -0.3065  0.5246
  758MOL0     C99980   3.980   4.867  11.221  0.3733 -1.0826  0.7954
  758MOL0     C99981   3.875   4.928  11.299 -0.4636  0.4147  0.2073
  758MOL0     O99982   3.763   4.848  11.312  0.0133 -0.1953  0.7353
  758MOL0     C99983   3.676   4.891  11.409  0.6251  0.5991 -1.1107
  758MOL0     C99984   3.570   4.780  11.447 -0.1050  0.2891  0.3291
  758MOL0     C99985   3.616   4.638  11.431  0.3905  0.1918  0.1664
  758MOL0     C99986   3.614   4.577  11.282 -0.0632  0.1766 -0.8413
  758MOL0     C99987   3.491   4.500  11.253  0.1037  0.0516  0.0633
  758MOL0     C99988   3.382   4.446  11.229  0.2903 -0.3082 -0.5772
  758MOL0     C99989   3.885   5.059  11.357 -0.1733  0.6712 -1.2188
  758MOL0     C99990   4.005   5.119  11.354 -0.5511  0.1524  1.5178
  758MOL0     H99991   4.238   5.307  10.946  0.0608  0.4961 -0.0951
  758MOL0     H99992   4.394   5.449  10.855 -0.1807 -0.4822  0.7395
  758MOL0     H99993   4.814   5.362  10.911 -1.5187 -0.3827  0.1039
  758MOL0     H99994   4.816   5.518  11.007 -1.2885 -0.7566  0.7059
  758MOL0     H99995   4.820   5.490  10.701  1.3249 -1.7157  0.3146
  758MOL0     H99996   4.962   5.519  10.804  0.3763  1.0402 -2.5800
  758MOL0     H99997   4.867   5.719  10.906 -2.0502  1.0133  0.4500
  758MOL0     H99998   4.738   5.728  10.779  1.1761  0.1710 -3.0972
  758MOL0     H99999   5.022   5.779  10.737  0.0262 -0.3393  2.0165
  758MOL0     H    0   4.921   5.728  10.603 -1.2126 -1.9444 -0.1272
  758MOL0     H    1   4.864   5.962  10.789 -4.5355  2.3591 -0.8713
  758MOL0     H    2   4.759   5.918  10.665 -1.3934  0.4801  4.2397
  758MOL0     H    3   5.055   5.973  10.621 -1.1474 -0.0162  1.3019
  758MOL0     H    4   4.943   6.107  10.620  0.8648  0.9908 -3.3854
  758MOL0     H    5   4.884   5.891  10.421 -5.3968 -0.3210  3.4384
  758MOL0     H    6   4.812   6.046  10.435  1.2062  1.3207 -1.2791
  758MOL0     H    7   5.018   6.014  10.261  1.4867  2.0789 -0.9542
  758MOL0     H    8   5.122   6.025  10.410 -1.2592 -2.7540 -0.2354
  758MOL0     H    9   5.060   6.294  10.550  0.5020  1.1868  0.5903
  758MOL0     H   10   5.031   6.610  10.347 -0.0072  0.3209 -0.0712
  758MOL0     H   11   5.095   6.543  10.498 -0.9689  1.1054  0.3214
  758MOL0     H   12   4.918   6.713  10.510  1.5450 -0.5828  0.3592
  758MOL0     H   13   4.901   6.554  10.594  0.6894 -1.4865 -0.4074
  758MOL0     H   14   4.749   6.475  10.413  1.6471  0.4618  1.1204
  758MOL0     H   15   4.684   6.624  10.489  0.2332  2.2108 -1.2544
  758MOL0     H   16   4.633   6.638  10.249  1.4245 -0.2246 -2.1030
  758MOL0     H   17   4.799   6.600  10.224  1.2881 -1.1671  1.6886
  758MOL0     H   18   4.512   6.769  10.187  0.1530  0.6458 -3.2208
  758MOL0     H   19   4.359   6.923  10.131 -0.2493  2.4988 -2.5567
  758MOL0     H   20   4.151   7.208   9.859  0.1003  0.9954 -1.8168
  758MOL0     H   21   3.999   7.391   9.825 -1.9236 -0.3094  0.4832
  758MOL0     H   22   3.830   7.725  10.037 -1.0418 -1.9247 -1.8569
  758MOL0     H   23   3.939   7.678  10.175 -0.4323 -0.9041  1.5531
  758MOL0     H   24   3.725   7.558  10.269  1.1162  0.8612  1.1891
  758MOL0     H   25   3.635   7.612  10.134 -1.2923  1.5132  1.4470
  758MOL0     H   26   3.789   7.801  10.323 -0.2895  3.7681 -0.1796
  758MOL0     H   27   3.616   7.739  10.346  0.1407 -1.1290 -1.6456
  758MOL0     H   28   3.645   7.982  10.253 -3.3531  0.5105 -1.3110
  758MOL0     H   29   3.707   7.897  10.107 -0.7146  0.6220 -0.9493
  758MOL0     H   30   3.434   7.908  10.234  0.0245  1.8510 -0.4674
  758MOL0     H   31   3.474   7.760  10.134  0.1008  0.5949 -0.5375
  758MOL0     H   32   3.524   7.892   9.950 -2.7471 -0.6627 -1.3205
  758MOL0     H   33   3.490   8.054  10.019  0.5257 -0.8428 -0.5240
  758MOL0     H   34   3.281   7.837   9.987 -0.2409 -0.3499 -2.7144
  758MOL0     H   35   3.238   8.003  10.031  0.8630  2.0566 -1.1927
  758MOL0     H   36   3.363   7.914   9.781  1.9668  2.4576 -0.5872
  758MOL0     H   37   3.326   8.087   9.820  1.0118 -1.1224 -3.6122
  758MOL0     H   38   4.019   7.484  10.245 -2.9587  0.5679 -1.2742
  758MOL0     H   39   4.199   7.316  10.270  3.0684  2.0052 -1.8245
  758MOL0     H   40   4.665   7.223  10.233 -1.7815  0.3569  2.3311
  758MOL0     H   41   4.811   7.069  10.296 -0.1532  2.3799 -1.8573
  758MOL0     H   42   4.706   5.316  11.116  0.1084  1.8552 -1.0811
  758MOL0     H   43   4.538   5.166  11.216  0.5395  2.9539  1.9347
  758MOL0     H   44   4.181   4.907  11.154 -1.9320 -2.4237 -1.5645
  758MOL0     H   45   3.972   4.777  11.163 -1.0604 -0.0476 -0.7071
  758MOL0     H   46   3.610   4.973  11.381 -1.5539 -0.7865 -0.3381
  758MOL0     H   47   3.736   4.923  11.495 -1.5432 -2.5574  1.8416
  758MOL0     H   48   3.547   4.787  11.554  1.4730  0.4298  0.6958
  758MOL0     H   49   3.478   4.800  11.393 -1.2238 -1.1902  1.5864
  758MOL0     H   50   3.562   4.573  11.501  1.6945 -0.5677  0.4900
  758MOL0     H   51   3.719   4.622  11.463  0.7813 -1.6472 -1.8207
  758MOL0     H   52   3.621   4.666  11.218 -2.0268  0.4963 -0.6750
  758MOL0     H   53   3.701   4.512  11.273  0.8783  1.2754 -0.0199
  758MOL0     H   54   3.285   4.406  11.207  0.3617 -2.2828  2.2509
  758MOL0     H   55   3.815   5.121  11.413  1.5021  3.7232 -2.2950
  758MOL0     H   56   4.014   5.221  11.389 -0.9511  1.0480 -0.8014
  759MOL0     O   57   0.457   7.812  10.708  0.7170 -0.3197  0.6854
  759MOL0     C   58   0.448   7.694  10.656 -0.0885  0.1362  0.6794
  759MOL0     O   59   0.521   7.585  10.694  0.0057 -0.6015 -0.3145
  759MOL0     C   60   0.642   7.603  10.766  0.0634 -0.1722  0.2231
  759MOL0     C   61   0.684   7.712  10.839  0.5012  0.9222 -0.2505
  759MOL0     C   62   0.807   7.708  10.895 -0.1669 -0.8583  0.3365
  759MOL0     C   63   0.886   7.599  10.891  0.3570  0.1433 -0.4783
  759MOL0     O   64   1.004   7.621  10.948 -0.1111  0.2027 -0.1531
  759MOL0     C   65   1.093   7.505  10.974  0.3245 -0.1413 -0.1633
  759MOL0     C   66   1.226   7.539  11.037  0.7647 -0.2178 -1.2263
  759MOL0     C   67   1.222   7.617  11.164 -0.5071 -0.0009 -0.2308
  759MOL0     C   68   1.226   7.533  11.289 -0.6766  0.6358 -0.3919
  759MOL0     C   69   1.288   7.609  11.405 -0.4635  0.3150  0.2473
  759MOL0     C   70   1.443   7.601  11.414  0.2065 -1.0789  0.3970
  759MOL0     C   71   1.495   7.714  11.496 -0.7011  0.5119 -0.6183
  759MOL0     C   72   1.640   7.712  11.524  0.0743  0.6764  0.3426
  759MOL0     N   73   1.675   7.824  11.607  0.6817 -0.3184 -0.6119
  759MOL0     C   74   1.692   7.830  11.739 -0.1253 -0.7574 -0.3946
  759MOL0     C   75   1.732   7.954  11.760  0.0161 -0.0460 -0.2025
  759MOL0     C   76   1.785   8.006  11.898  0.2354  0.2706  0.5326
  759MOL0     C   77   1.814   8.157  11.906  0.6056 -0.0183 -0.0351
  759MOL0     C   78   1.942   8.207  11.974 -0.5649 -0.2212  0.2427
  759MOL0     C   79   1.979   8.123  12.096  0.4321  0.2511 -0.5036
  759MOL0     O   80   1.866   8.129  12.195  0.6037  0.4558  0.3363
  759MOL0     C   81   1.845   8.254  12.250 -0.3487  0.0151  0.4088
  759MOL0     C   82   1.708   8.305  12.262  0.8387 -0.3642 -0.1697
  759MOL0     C   83   1.686   8.437  12.303 -0.1384  0.6374 -0.2543
  759MOL0     C   84   1.793   8.512  12.357 -0.4116 -0.4947  0.8880
  759MOL0     C   85   1.767   8.648  12.404 -0.1347  0.0492 -0.2766
  759MOL0     O   86   1.884   8.725  12.408  0.5256 -0.2229  0.4791
  759MOL0     C   87   1.871   8.863  12.409 -0.0723  0.0785  0.0857
  759MOL0     C   88   1.969   8.929  12.335  0.3739 -0.0607  1.2883
  759MOL0     C   89   1.994   9.064  12.343 -0.5997  0.2961  0.5069
  759MOL0     C   90   1.919   9.139  12.432 -0.5949  0.0263  0.0317
  759MOL0     O   91   1.953   9.273  12.449  0.2846 -0.1547  0.6726
  759MOL0     C   92   1.867   9.363  12.520  1.0275 -0.2692 -0.4736
  759MOL0     C   93   1.932   9.491  12.565  0.1736 -0.4134  1.0079
  759MOL0     C   94   1.935   9.586  12.447  0.3227  0.4334 -0.9048
  759MOL0     C   95   1.950   9.740  12.476  0.9396 -0.4885 -0.1210
  759MOL0     C   96   1.922   9.815  12.348  0.9069  1.0815  0.2390
  759MOL0     C   97   2.009   9.939  12.322  0.6792  0.4628 -0.4596
  759MOL0     C   98   1.936  10.078  12.356 -0.3730  0.1349 -0.3710
  759MOL0     C   99   1.911  10.108  12.513 -0.0499 -0.1897 -0.2573
  759MOL0    Cl  100   1.756  10.030  12.567  0.2236 -0.1375  0.2980
  759MOL0     C  101   1.812   9.079  12.507 -0.5994 -0.2307 -0.3041
  759MOL0     C  102   1.789   8.937  12.498 -0.8377  0.1491 -0.4589
  759MOL0     O  103   1.655   8.686  12.429  0.1026  0.4259 -0.0123
  759MOL0     C  104   1.917   8.453  12.362 -0.5488 -0.1089  0.2683
  759MOL0     C  105   1.951   8.329  12.308  0.1637  0.8547 -0.3999
  759MOL0     N  106   1.735   8.022  11.646 -0.5179 -0.2113  0.7249
  759MOL0     N  107   1.702   7.949  11.548  0.4050 -0.3466  0.4471
  759MOL0     C  108   0.836   7.477  10.844  0.8496  0.1136  0.1916
  759MOL0     C  109   0.718   7.485  10.773  0.7317  0.3009  0.6719
  759MOL0     C  110   0.337   7.666  10.559 -0.1287  0.2753 -0.5989
  759MOL0     C  111   0.249   7.764  10.520  1.1850  1.2268 -0.7478
  759MOL0     C  112   0.150   7.734  10.430  0.4905  0.3470  0.2497
  759MOL0     C  113   0.133   7.609  10.384 -0.3040  0.3448 -0.0899
  759MOL0     O  114   0.027   7.589  10.290 -1.0689  0.8262  0.1348
  759MOL0     C  115  -0.016   7.456  10.251 -0.6316  0.6090 -0.1100
  759MOL0     C  116  -0.129   7.392  10.326 -0.1916  0.2450 -0.3161
  759MOL0     C  117  -0.251   7.483  10.334  0.7472 -0.7104  0.5480
  759MOL0     C  118  -0.362   7.415  10.409  0.3392  0.3313 -0.1731
  759MOL0     C  119  -0.342   7.396  10.552 -0.3113 -0.5447 -0.6264
  759MOL0     C  120  -0.324   7.390  10.669 -0.5862  0.5155 -0.2290
  759MOL0     C  121   0.217   7.507  10.426 -0.6618  0.4997 -0.3349
  759MOL0     C  122   0.322   7.529  10.506 -0.5371 -0.1012 -0.3105
  759MOL0     H  123   0.633   7.808  10.835 -0.9723  0.2111 -5.3462
  759MOL0     H  124   0.855   7.795  10.941 -0.6963 -1.5084  2.2258
  759MOL0     H  125   1.118   7.450  10.882 -0.2904 -1.2561  0.3128
  759MOL0     H  126   1.045   7.450  11.055 -0.2379 -1.2063 -1.1840
  759MOL0     H  127   1.294   7.585  10.965  1.8968 -1.6865 -1.1541
  759MOL0     H  128   1.285   7.450  11.060  0.3031  0.4457  3.6099
  759MOL0     H  129   1.140   7.689  11.158 -3.0334 -2.8071 -3.5367
  759MOL0     H  130   1.311   7.679  11.153 -0.3916 -0.3963 -1.8703
  759MOL0     H  131   1.122   7.511  11.317 -0.4452 -1.6434 -1.0959
  759MOL0     H  132   1.288   7.444  11.276  1.5430  2.0680 -0.1074
  759MOL0     H  133   1.244   7.577  11.499 -2.3290  0.5415 -0.5095
  759MOL0     H  134   1.261   7.712  11.381 -1.6515 -0.3667 -1.5031
  759MOL0     H  135   1.487   7.583  11.315  0.4720 -0.2621  0.3662
  759MOL0     H  136   1.480   7.514  11.470  1.5746  0.2522  1.6395
  759MOL0     H  137   1.484   7.807  11.440  2.4542  1.3631 -0.0015
  759MOL0     H  138   1.437   7.728  11.588  0.6980  3.5929 -0.0844
  759MOL0     H  139   1.702   7.718  11.434  1.7463 -0.2918  1.3799
  759MOL0     H  140   1.674   7.626  11.583  2.8678  1.8134  0.5510
  759MOL0     H  141   1.684   7.752  11.815  0.8405 -0.0567  0.4612
  759MOL0     H  142   1.878   7.948  11.911 -1.1785 -2.2959 -0.0286
  759MOL0     H  143   1.722   7.972  11.980 -1.4440 -0.0943 -0.8487
  759MOL0     H  144   1.720   8.189  11.952 -0.5798 -0.5490 -1.9509
  759MOL0     H  145   1.811   8.207  11.809 -0.2498  1.4579  0.7135
  759MOL0     H  146   2.022   8.206  11.900 -0.2035  2.0737  0.5297
  759MOL0     H  147   1.926   8.311  12.004 -1.2241  0.0618 -1.0047
  759MOL0     H  148   2.070   8.172  12.132 -1.0533  2.3008  0.6830
  759MOL0     H  149   1.997   8.017  12.077  0.0522  0.0485  0.2244
  759MOL0     H  150   1.618   8.245  12.259 -2.0879  3.3744  2.4002
  759MOL0     H  151   1.590   8.485  12.290  0.4877  2.1263  0.4382
  759MOL0     H  152   2.027   8.875  12.260 -0.5720 -2.7943  2.3721
  759MOL0     H  153   2.064   9.123  12.284 -1.9893 -0.0246 -1.6071
  759MOL0     H  154   1.843   9.318  12.617 -3.3639 -0.3924 -1.4088
  759MOL0     H  155   1.776   9.369  12.459  0.5251  0.2446  0.3041
  759MOL0     H  156   2.036   9.473  12.596 -0.0606  0.6604  2.4912
  759MOL0     H  157   1.868   9.540  12.638 -2.3729 -1.3800 -0.4567
  759MOL0     H  158   1.838   9.577  12.398  1.0883 -0.6024 -2.3113
  759MOL0     H  159   2.020   9.559  12.383 -0.2955  0.8739 -1.9341
  759MOL0     H  160   1.881   9.781  12.550 -1.3956 -0.7199 -2.0454
  759MOL0     H  161   2.054   9.749  12.508  1.4608 -1.2860 -1.4953
  759MOL0     H  162   1.815   9.830  12.333  0.9626  0.4173 -0.9278
  759MOL0     H  163   1.956   9.747  12.270 -0.1581  0.3608  0.3902
  759MOL0     H  164   2.044   9.934  12.218  1.5734 -0.1530 -0.1437
  759MOL0     H  165   2.102   9.936  12.380  0.3030  1.4711  0.2210
  759MOL0     H  166   1.998  10.161  12.321 -2.6035  3.7539  3.2793
  759MOL0     H  167   1.842  10.080  12.301 -1.6274  0.5932  1.6775
  759MOL0     H  168   1.906  10.216  12.527 -0.6067 -0.3923  1.3077
  759MOL0     H  169   1.999  10.070  12.566  0.6950 -1.2277 -2.1260
  759MOL0     H  170   1.745   9.137  12.570  1.8176  1.3684  0.9731
  759MOL0     H  171   1.719   8.893  12.568  1.2987  0.5373  2.0880
  759MOL0     H  172   2.009   8.493  12.404  0.1773 -1.8975  0.5103
  759MOL0     H  173   2.055   8.296  12.306 -0.0517 -0.2971  2.5092
  759MOL0     H  174   0.892   7.384  10.850  0.9269 -0.0347 -2.1114
  759MOL0     H  175   0.688   7.402  10.709  1.3513 -0.8166  1.7848
  759MOL0     H  176   0.238   7.860  10.569 -1.9345 -0.1443  1.6010
  759MOL0     H  177   0.070   7.802  10.400 -0.6115 -1.2642 -0.5978
  759MOL0     H  178   0.071   7.389  10.249 -0.8247  0.3262  0.7296
  759MOL0     H  179  -0.049   7.468  10.147  2.1083  1.1031 -1.0328
  759MOL0     H  180  -0.162   7.302  10.274  1.1146 -1.0885  1.0737
  759MOL0     H  181  -0.095   7.373  10.429 -3.3845 -2.9014  0.3497
  759MOL0     H  182  -0.284   7.506  10.233 -1.1956  0.5043  1.3900
  759MOL0     H  183  -0.224   7.576  10.385  0.0903  1.2444 -2.4537
  759MOL0     H  184  -0.452   7.475  10.389 -0.7081 -1.7856 -2.2667
  759MOL0     H  185  -0.380   7.315  10.368 -1.9772  1.1893 -1.4275
  759MOL0     H  186  -0.307   7.393  10.775  1.5442  2.2994 -0.5391
  759MOL0     H  187   0.186   7.407  10.397 -0.4096 -0.3846  2.1742
  759MOL0     H  188   0.392   7.449  10.528  0.5989  0.7160 -0.8270
  760MOL0     O  189   5.342  11.150  10.157 -0.2224 -0.1529 -0.6912
  760MOL0     C  190   5.364  11.070  10.061 -0.1147 -0.3496  0.8624
  760MOL0     O  191   5.290  11.064   9.944  0.5724 -0.0538 -0.4653
  760MOL0     C  192   5.174  11.147   9.927 -0.2071  0.3729  0.2591
  760MOL0     C  193   5.093  11.084   9.836  0.2632  1.1710 -0.3417
  760MOL0     C  194   4.960  11.125   9.810 -0.6563  0.1028  0.3965
  760MOL0     C  195   4.909  11.228   9.893 -0.2341 -0.1285  0.0852
  760MOL0     O  196   4.772  11.257   9.902  0.0421  0.7984  0.7081
  760MOL0     C  197   4.685  11.258   9.778 -0.7065 -0.1528  0.5086
  760MOL0     C  198   4.693  11.382   9.692 -0.4789 -0.0877 -0.3336
  760MOL0     C  199   4.620  11.492   9.764  0.5390  0.0609  0.1775
  760MOL0     C  200   4.625  11.626   9.701  0.0509  0.3166 -0.6363
  760MOL0     C  201   4.768  11.672   9.659 -0.0007 -0.9373  0.4080
  760MOL0     C  202   4.877  11.673   9.774  1.1546 -0.7425 -0.4248
  760MOL0     C  203   4.827  11.751   9.892 -0.0198 -0.5242  0.7626
  760MOL0     C  204   4.940  11.726  10.013  0.7806 -0.3778  1.1904
  760MOL0     N  205   5.072  11.790   9.975 -0.2501  0.5880  0.8883
  760MOL0     C  206   5.106  11.920   9.996  0.8826  0.1508 -0.6969
  760MOL0     C  207   5.238  11.931   9.985  0.5212 -0.5054  0.6593
  760MOL0     C  208   5.325  12.049  10.005 -1.0986  0.8274  0.0565
  760MOL0     C  209   5.343  12.065  10.154  0.0527  0.2715 -0.9053
  760MOL0     C  210   5.228  12.149  10.225 -0.2994  0.0580  0.7643
  760MOL0     C  211   5.257  12.189  10.361 -0.3039  0.5601  0.3431
  760MOL0     O  212   5.252  12.068  10.446 -0.0162 -0.0300  0.8472
  760MOL0     C  213   5.295  12.071  10.577  0.3068 -1.6456 -0.2866
  760MOL0     C  214   5.381  11.970  10.620 -0.0092 -0.3243 -0.1698
  760MOL0     C  215   5.414  11.956  10.761  0.4233 -0.5484  0.4368
  760MOL0     C  216   5.363  12.047  10.858  0.2001 -1.3388  0.1253
  760MOL0     C  217   5.411  12.045  10.991  0.4891 -0.1693 -0.3732
  760MOL0     O  218   5.400  12.163  11.056 -0.1900  1.0285 -0.0542
  760MOL0     C  219   5.433  12.153  11.188 -0.0238  0.1072  0.3384
  760MOL0     C  220   5.563  12.191  11.228  0.7793 -0.4947 -0.0889
  760MOL0     C  221   5.595  12.186  11.364  0.6985  0.1266 -0.8955
  760MOL0     C  222   5.496  12.135  11.454 -0.6123  0.3646  0.9371
  760MOL0     O  223   5.550  12.113  11.575 -0.4372  0.0511 -0.4928
  760MOL0     C  224   5.522  11.987  11.647 -0.1972 -0.0907 -0.0770
  760MOL0     C  225   5.644  11.976  11.735 -1.2255 -1.0267 -0.7707
  760MOL0     C  226   5.623  12.065  11.860 -0.6169 -0.1183 -0.2463
  760MOL0     C  227   5.744  12.053  11.967 -0.0031  0.3681  0.3650
  760MOL0     C  228   5.804  12.182  12.006 -0.7005 -0.1057  0.9576
  760MOL0     C  229   5.879  12.265  11.893  0.0659  0.3793 -0.0483
  760MOL0     C  230   5.926  12.405  11.935  0.8466  0.9125 -0.9614
  760MOL0     C  231   5.825  12.495  11.987 -0.2976  0.9035  0.1307
  760MOL0    Cl  232   5.877  12.663  12.000  0.0112  0.1344 -0.3581
  760MOL0     C  233   5.362  12.101  11.416 -0.3166  0.3589 -0.2425
  760MOL0     C  234   5.331  12.098  11.276 -0.9897  0.4735 -0.2298
  760MOL0     O  235   5.456  11.942  11.043  0.6774  0.0863 -0.3132
  760MOL0     C  236   5.267  12.144  10.810 -0.8312  1.1525  0.5897
  760MOL0     C  237   5.237  12.154  10.672 -1.0954 -0.1399  0.3198
  760MOL0     N  238   5.292  11.815   9.933  0.4016 -1.0030 -0.0880
  760MOL0     N  239   5.194  11.726   9.931  0.1042  0.5082  0.3117
  760MOL0     C  240   4.991  11.305   9.977 -0.5696  0.2251 -0.1627
  760MOL0     C  241   5.127  11.263   9.996  0.0174 -0.3466 -0.1882
  760MOL0     C  242   5.472  10.983  10.073 -0.1938 -0.8512 -0.2497
  760MOL0     C  243   5.489  10.875   9.988  1.1766  0.8665 -0.0021
  760MOL0     C  244   5.608  10.806   9.975  0.4038 -0.3213 -0.3138
  760MOL0     C  245   5.716  10.838  10.054 -0.1891 -0.2477 -0.2096
  760MOL0     O  246   5.840  10.783  10.047  0.7398 -0.2335 -0.3309
  760MOL0     C  247   5.871  10.679   9.945  0.2440 -0.1088 -0.0503
  760MOL0     C  248   6.011  10.630   9.947  0.0204 -0.7403 -0.1125
  760MOL0     C  249   6.030  10.518  10.052 -0.0405 -0.3940 -0.5771
  760MOL0     C  250   6.179  10.487  10.089  0.9632 -0.1309  0.6803
  760MOL0     C  251   6.191  10.364  10.167  0.8090  0.0118 -0.1967
  760MOL0     C  252   6.181  10.263  10.241  0.4517  0.4815  0.6175
  760MOL0     C  253   5.696  10.934  10.156  0.0606 -0.9316  0.1209
  760MOL0     C  254   5.569  10.996  10.173  0.3200  0.1613 -1.1663
  760MOL0     H  255   5.116  10.990   9.786 -5.6192  0.4612 -2.6388
  760MOL0     H  256   4.909  11.068   9.733  1.1154 -0.7186 -0.2215
  760MOL0     H  257   4.584  11.247   9.819 -0.2254  0.6949  2.0309
  760MOL0     H  258   4.707  11.173   9.713 -1.2820 -2.0552  2.6586
  760MOL0     H  259   4.668  11.371   9.586  0.4860  1.4165 -0.7513
  760MOL0     H  260   4.796  11.421   9.688  0.0866 -1.0454  2.6690
  760MOL0     H  261   4.670  11.515   9.859 -0.2282  0.3773  0.5135
  760MOL0     H  262   4.520  11.458   9.794  1.7268 -2.5033  1.6004
  760MOL0     H  263   4.559  11.632   9.614 -2.2067  2.2110  1.0715
  760MOL0     H  264   4.596  11.695   9.781 -1.5866  2.6470 -3.0660
  760MOL0     H  265   4.746  11.778   9.645  0.3335 -0.8716  0.3622
  760MOL0     H  266   4.801  11.618   9.569  0.9381  0.6288 -0.2343
  760MOL0     H  267   4.970  11.722   9.743  0.8678  0.9172  1.1579
  760MOL0     H  268   4.909  11.575   9.808  0.2361 -0.4807  1.2846
  760MOL0     H  269   4.812  11.853   9.857  4.6138  0.1137  0.0698
  760MOL0     H  270   4.731  11.714   9.930 -1.7255  4.2599  1.7421
  760MOL0     H  271   4.943  11.622  10.047  1.0458 -0.3529  1.2424
  760MOL0     H  272   4.911  11.786  10.100  2.1816  2.4358 -0.1788
  760MOL0     H  273   5.039  12.001  10.022  2.8745  1.4995  0.4773
  760MOL0     H  274   5.283  12.137   9.954  1.0710 -0.2872 -4.1058
  760MOL0     H  275   5.425  12.036   9.963 -1.2016  2.6975 -0.8889
  760MOL0     H  276   5.444  12.108  10.154  1.1561 -2.0661 -3.2657
  760MOL0     H  277   5.346  11.965  10.196  1.9888  1.0143  0.9172
  760MOL0     H  278   5.204  12.234  10.161  2.1177 -0.5004 -1.0071
  760MOL0     H  279   5.136  12.091  10.214  0.5413 -0.9961 -1.0020
  760MOL0     H  280   5.180  12.263  10.387 -0.2875  1.9046 -2.9408
  760MOL0     H  281   5.361  12.224  10.362  1.2292 -3.3859 -1.7418
  760MOL0     H  282   5.434  11.899  10.557 -0.2796  0.0293 -0.8090
  760MOL0     H  283   5.495  11.890  10.789  0.6205  0.1015  1.4636
  760MOL0     H  284   5.636  12.229  11.156 -0.3376 -0.4852 -1.2492
  760MOL0     H  285   5.696  12.213  11.393  0.3673  2.4303 -1.6973
  760MOL0     H  286   5.506  11.900  11.582 -0.8509  0.1781 -0.2845
  760MOL0     H  287   5.434  11.997  11.711  1.1217  2.6352  1.4793
  760MOL0     H  288   5.733  12.018  11.689  0.0931  1.8480  3.7791
  760MOL0     H  289   5.665  11.870  11.755  0.7848 -0.4686  0.3788
  760MOL0     H  290   5.528  12.039  11.908  0.2827 -2.5865  0.3441
  760MOL0     H  291   5.614  12.171  11.833  0.6750 -0.4243 -2.0839
  760MOL0     H  292   5.704  12.005  12.057 -2.0625 -0.1294 -0.7418
  760MOL0     H  293   5.827  12.003  11.916 -1.9626 -0.5937 -2.0982
  760MOL0     H  294   5.879  12.161  12.082 -1.3763  0.5279  1.8146
  760MOL0     H  295   5.728  12.245  12.053 -2.1821  1.5109 -3.1103
  760MOL0     H  296   5.800  12.277  11.818 -2.4969  0.4800  2.4569
  760MOL0     H  297   5.963  12.212  11.847 -1.2672  0.5974 -2.9863
  760MOL0     H  298   5.993  12.393  12.021 -1.0033  0.0700  0.4452
  760MOL0     H  299   5.973  12.454  11.849  2.5478  0.6029 -0.2571
  760MOL0     H  300   5.789  12.457  12.083 -2.6213  0.3925 -0.8721
  760MOL0     H  301   5.744  12.477  11.915  0.9123 -2.0781 -0.6030
  760MOL0     H  302   5.295  12.065  11.494 -3.7757  6.2064  0.0932
  760MOL0     H  303   5.232  12.066  11.247 -0.7511  0.6066 -1.2338
  760MOL0     H  304   5.218  12.211  10.881 -0.5514 -0.7634  2.7121
  760MOL0     H  305   5.161  12.226  10.641 -3.0905 -2.2534 -0.0059
  760MOL0     H  306   4.948  11.386  10.037 -0.9760  0.6230 -0.9752
  760MOL0     H  307   5.184  11.337  10.051 -0.6221  0.7843 -0.9995
  760MOL0     H  308   5.408  10.845   9.922 -1.3583  1.8960  2.4407
  760MOL0     H  309   5.627  10.721   9.909  1.9746 -1.7531  1.8372
  760MOL0     H  310   5.849  10.721   9.846  1.8514 -0.6332 -0.6619
  760MOL0     H  311   5.800  10.600   9.973  0.6483 -0.5596 -0.2795
  760MOL0     H  312   6.029  10.589   9.848 -0.2224 -0.9527 -0.0675
  760MOL0     H  313   6.083  10.712   9.960 -0.6465 -0.1667  0.0707
  760MOL0     H  314   5.989  10.423  10.015  1.7343 -1.1665 -0.6572
  760MOL0     H  315   5.985  10.542  10.149  0.6320  0.5365 -0.4888
  760MOL0     H  316   6.225  10.462   9.993  0.0893  1.1821 -0.1152
  760MOL0     H  317   6.229  10.573  10.134  0.7764  1.4657 -1.9411
  760MOL0     H  318   6.165  10.182  10.309  0.7899 -1.3711 -1.3940
  760MOL0     H  319   5.790  10.966  10.201  0.5599 -0.7782 -0.9814
  760MOL0     H  320   5.567  11.074  10.249  1.6691 -0.6882 -0.2064
  761MOL0     O  321   8.346  11.106   2.866 -0.1926 -0.3772 -0.7050
  761MOL0     C  322   8.388  11.189   2.950  0.0238  0.2007 -0.0152
  761MOL0     O  323   8.362  11.324   2.956  0.0616  0.0395 -0.1033
  761MOL0     C  324   8.274  11.390   2.875  0.2415  0.1585 -1.0505
  761MOL0     C  325   8.178  11.340   2.781  0.6351  0.4750  0.2775
  761MOL0     C  326   8.101  11.427   2.701 -0.2312  0.8541 -0.8929
  761MOL0     C  327   8.122  11.569   2.716  0.4199 -0.4034 -0.2336
  761MOL0     O  328   8.035  11.660   2.668  0.2052 -0.5048 -0.1505
  761MOL0     C  329   7.972  11.637   2.536 -0.5658  0.4036 -0.9484
  761MOL0     C  330   7.822  11.621   2.554  1.1048  0.1589  0.4888
  761MOL0     C  331   7.756  11.598   2.418 -0.9087  0.2134 -0.6897
  761MOL0     C  332   7.611  11.575   2.443 -0.2137 -0.7773 -0.3858
  761MOL0     C  333   7.535  11.553   2.305  0.7134  0.3899  0.3114
  761MOL0     C  334   7.403  11.473   2.341 -0.0616 -0.2659  0.3062
  761MOL0     C  335   7.340  11.388   2.219  0.0548  0.0196  0.2128
  761MOL0     C  336   7.400  11.243   2.200  0.2369  1.2270 -0.8825
  761MOL0     N  337   7.342  11.153   2.301  0.4489 -0.4888  0.0864
  761MOL0     C  338   7.207  11.134   2.311  0.7615 -0.3945 -0.6063
  761MOL0     C  339   7.195  11.063   2.427  0.1771 -1.4420 -0.6324
  761MOL0     C  340   7.071  11.023   2.501  0.3657  0.1024 -0.4231
  761MOL0     C  341   6.984  11.143   2.530 -0.0740  0.1550  0.1629
  761MOL0     C  342   6.902  11.114   2.654  0.8753  0.4573  0.6061
  761MOL0     C  343   6.801  10.999   2.628 -0.4099  0.7720  0.0935
  761MOL0     O  344   6.728  10.957   2.749 -0.2683  0.8277  0.0810
  761MOL0     C  345   6.601  10.959   2.723 -0.1904 -0.4183  0.2135
  761MOL0     C  346   6.540  10.907   2.612  0.5459 -0.2094  0.3871
  761MOL0     C  347   6.399  10.901   2.611  0.9579  0.0515 -0.4434
  761MOL0     C  348   6.324  10.961   2.706  0.7877 -0.7162 -0.3311
  761MOL0     C  349   6.168  10.953   2.696  0.6185  0.4111 -0.6150
  761MOL0     O  350   6.122  10.888   2.585 -1.0790 -0.1556 -0.3595
  761MOL0     C  351   5.987  10.887   2.563  0.3875  0.2991  0.2239
  761MOL0     C  352   5.901  10.997   2.546 -0.2437 -0.4455 -0.1423
  761MOL0     C  353   5.764  10.982   2.516  0.0066 -0.5205  0.1496
  761MOL0     C  354   5.709  10.850   2.504  0.0257 -1.0588 -0.4050
  761MOL0     O  355   5.577  10.831   2.476 -0.1659 -0.9954  0.3685
  761MOL0     C  356   5.542  10.729   2.386  0.4559 -0.1352  1.3914
  761MOL0     C  357   5.411  10.765   2.320  0.4987  0.4126 -0.8213
  761MOL0     C  358   5.303  10.779   2.414  0.5116 -0.3066 -0.7902
  761MOL0     C  359   5.188  10.675   2.387 -0.3878  0.4037  0.3549
  761MOL0     C  360   5.083  10.667   2.492  0.7935  0.2341 -0.1528
  761MOL0     C  361   4.955  10.600   2.441  0.2612 -0.4566  0.7668
  761MOL0     C  362   4.980  10.478   2.354  0.4009  0.4822 -0.1787
  761MOL0     C  363   4.858  10.393   2.335  0.8316  0.7879  0.1787
  761MOL0    Cl  364   4.852  10.301   2.486  0.3994 -0.3452  0.2901
  761MOL0     C  365   5.794  10.746   2.502  1.1947  0.3057 -0.7267
  761MOL0     C  366   5.929  10.767   2.535 -0.2991  0.8199  0.8772
  761MOL0     O  367   6.097  11.022   2.772 -0.1103  0.1876 -0.2962
  761MOL0     C  368   6.394  11.006   2.825  0.2732 -0.4942 -0.8807
  761MOL0     C  369   6.532  10.999   2.834 -0.2759  0.1720  0.8492
  761MOL0     N  370   7.320  11.048   2.495  0.0216  0.0851  0.7544
  761MOL0     N  371   7.403  11.107   2.416  0.6396 -0.0966 -0.2319
  761MOL0     C  372   8.217  11.613   2.810  1.0756  0.3776 -0.2725
  761MOL0     C  373   8.298  11.528   2.877  1.2743  0.0956 -1.3226
  761MOL0     C  374   8.488  11.155   3.057 -0.5421 -0.1504  0.4785
  761MOL0     C  375   8.531  11.032   3.081 -0.1344  0.3138 -0.3070
  761MOL0     C  376   8.615  10.996   3.191 -0.8308  0.2545 -0.4920
  761MOL0     C  377   8.648  11.095   3.280 -0.6817  0.0637  0.2768
  761MOL0     O  378   8.747  11.051   3.373  0.4175  0.6467  0.4015
  761MOL0     C  379   8.746  11.116   3.500 -0.8691  0.1818  0.2739
  761MOL0     C  380   8.861  11.062   3.592  0.5973  0.6495  0.7316
  761MOL0     C  381   8.847  10.911   3.622  0.4740  0.2106 -0.2812
  761MOL0     C  382   8.704  10.865   3.673 -0.1947  0.3635 -0.4571
  761MOL0     C  383   8.613  10.850   3.564  0.6782 -0.4137 -0.0333
  761MOL0     C  384   8.531  10.824   3.484 -0.0981  1.4376 -0.8629
  761MOL0     C  385   8.604  11.223   3.255  0.1426  0.0437 -0.3835
  761MOL0     C  386   8.525  11.252   3.148 -0.1126 -0.6592 -0.2295
  761MOL0     H  387   8.161  11.236   2.758  1.0009  0.8822 -2.1277
  761MOL0     H  388   8.029  11.388   2.630 -0.7645 -0.1122  0.1311
  761MOL0     H  389   8.015  11.560   2.470 -0.0163  1.3329 -1.7072
  761MOL0     H  390   7.997  11.734   2.492 -0.0997  0.2767 -0.9695
  761MOL0     H  391   7.791  11.716   2.599  0.9990 -0.3713  1.5725
  761MOL0     H  392   7.805  11.530   2.613  2.8308  0.9236  2.2745
  761MOL0     H  393   7.801  11.508   2.376  1.7650  0.4559  1.4199
  761MOL0     H  394   7.774  11.681   2.348  0.7681  1.1642  0.7965
  761MOL0     H  395   7.615  11.482   2.501  2.0636 -0.8550 -0.5949
  761MOL0     H  396   7.562  11.650   2.505  1.2217  0.7917 -1.0830
  761MOL0     H  397   7.604  11.498   2.240  2.2527  1.4799  0.9605
  761MOL0     H  398   7.506  11.651   2.269 -0.8024 -1.1542 -3.1014
  761MOL0     H  399   7.333  11.552   2.373  0.2421  0.4170 -0.6486
  761MOL0     H  400   7.426  11.408   2.425 -1.5877 -1.5577 -0.2295
  761MOL0     H  401   7.233  11.373   2.237 -0.1750  0.8482 -0.3737
  761MOL0     H  402   7.355  11.444   2.126 -2.5779 -0.3361 -0.5292
  761MOL0     H  403   7.502  11.246   2.238  0.5799  0.1612 -1.6652
  761MOL0     H  404   7.398  11.203   2.098 -2.5511  1.6274 -1.0579
  761MOL0     H  405   7.128  11.184   2.256  1.0405  0.0525 -0.6008
  761MOL0     H  406   7.100  10.965   2.589  1.4468  1.5664  0.2304
  761MOL0     H  407   7.013  10.952   2.441 -1.1756  0.1789  0.9078
  761MOL0     H  408   6.918  11.168   2.446 -2.9362 -2.8258  1.3224
  761MOL0     H  409   7.049  11.226   2.561 -0.2407 -0.5652  2.6090
  761MOL0     H  410   6.972  11.088   2.734  0.3750  2.3827  1.7495
  761MOL0     H  411   6.844  11.199   2.692  0.5808  1.1743 -1.3214
  761MOL0     H  412   6.851  10.913   2.581 -1.9531  0.1383 -0.4385
  761MOL0     H  413   6.743  11.029   2.540  0.7017 -0.9972 -1.3273
  761MOL0     H  414   6.586  10.882   2.517  1.6654  3.2573 -0.1152
  761MOL0     H  415   6.345  10.875   2.520  0.2217  1.5579 -0.4637
  761MOL0     H  416   5.945  11.094   2.568 -1.2907  0.4845 -1.9117
  761MOL0     H  417   5.690  11.058   2.495 -2.1646 -2.7393 -0.7065
  761MOL0     H  418   5.543  10.625   2.418  0.6859 -1.2774 -1.9645
  761MOL0     H  419   5.609  10.741   2.300 -0.0888 -0.3917  0.9226
  761MOL0     H  420   5.373  10.688   2.252  0.0699  0.7916 -1.0150
  761MOL0     H  421   5.416  10.859   2.264  1.0647 -0.0998 -1.6600
  761MOL0     H  422   5.260  10.879   2.404 -0.0343 -0.7422 -3.7891
  761MOL0     H  423   5.329  10.772   2.520 -1.0025  1.8411 -0.2157
  761MOL0     H  424   5.139  10.714   2.297 -0.5232  0.9819  0.6693
  761MOL0     H  425   5.234  10.577   2.373  4.2382  2.2147  1.1437
  761MOL0     H  426   5.059  10.771   2.517  1.1146 -0.2329  2.2758
  761MOL0     H  427   5.128  10.611   2.574 -1.6181 -0.1348  1.0048
  761MOL0     H  428   4.913  10.670   2.367  2.4745  0.0508 -0.0753
  761MOL0     H  429   4.880  10.582   2.519  0.1665  1.5013  1.2014
  761MOL0     H  430   5.010  10.519   2.258  0.1151  2.6983  0.6247
  761MOL0     H  431   5.050  10.409   2.403 -0.6139 -1.5024 -1.3728
  761MOL0     H  432   4.871  10.325   2.250 -1.8206  1.7527 -1.1188
  761MOL0     H  433   4.771  10.457   2.317  0.8401  0.4575 -1.1476
  761MOL0     H  434   5.751  10.646   2.500 -2.3231  1.5612  1.7345
  761MOL0     H  435   5.998  10.683   2.538  2.3761  2.8984  1.3923
  761MOL0     H  436   6.333  11.042   2.907  1.7998 -1.3218  0.6615
  761MOL0     H  437   6.586  11.028   2.923  3.7820  0.1825 -1.3667
  761MOL0     H  438   8.233  11.719   2.829 -0.0346  0.8870 -1.9045
  761MOL0     H  439   8.374  11.566   2.945  1.2871 -0.2301 -1.1546
  761MOL0     H  440   8.496  10.952   3.016  2.1840  0.2456 -1.5605
  761MOL0     H  441   8.663  10.901   3.210 -0.3528  0.3699 -1.1033
  761MOL0     H  442   8.646  11.106   3.544 -1.5425  1.1167 -0.9742
  761MOL0     H  443   8.771  11.221   3.485  0.7160 -0.0499  1.1484
  761MOL0     H  444   8.963  11.082   3.558  0.1822 -0.8945 -1.6563
  761MOL0     H  445   8.854  11.128   3.680  1.3950  1.0974  0.4690
  761MOL0     H  446   8.936  10.880   3.678  0.0538  1.2700  1.0246
  761MOL0     H  447   8.854  10.855   3.528  1.7909 -1.0590  0.5314
  761MOL0     H  448   8.702  10.768   3.723  1.9874  0.3201 -0.3618
  761MOL0     H  449   8.656  10.931   3.746  2.4206  1.4199  0.4307
  761MOL0     H  450   8.453  10.797   3.416  0.9199 -2.5403 -0.7022
  761MOL0     H  451   8.647  11.298   3.321 -0.7409  2.2102 -2.1455
  761MOL0     H  452   8.484  11.352   3.144 -0.8002 -0.9604 -1.0663
  762MOL0     O  453   3.885   1.756   2.649  0.1094 -0.4402 -0.0485
  762MOL0     C  454   3.884   1.845   2.729 -0.1871  0.1611 -0.9025
  762MOL0     O  455   3.768   1.879   2.800 -0.5949 -0.3232 -0.5023
  762MOL0     C  456   3.650   1.883   2.725 -0.5978 -1.4381 -0.1717
  762MOL0     C  457   3.535   1.846   2.798 -0.2131 -0.4671 -0.0871
  762MOL0     C  458   3.410   1.850   2.736  0.7504  0.8157 -0.7568
  762MOL0     C  459   3.393   1.897   2.602  0.2141  0.4043  0.4472
  762MOL0     O  460   3.263   1.899   2.549 -0.3367 -0.2254  0.4594
  762MOL0     C  461   3.195   2.015   2.575 -0.4635 -0.0892  0.3938
  762MOL0     C  462   3.047   1.989   2.553 -0.2298 -0.2920 -0.7784
  762MOL0     C  463   2.972   2.127   2.550  0.0949  0.8068  0.2975
  762MOL0     C  464   2.838   2.125   2.481 -0.5623 -0.0280 -0.0858
  762MOL0     C  465   2.762   2.253   2.497  0.3026  0.3767 -0.2994
  762MOL0     C  466   2.647   2.231   2.594  0.3759 -0.2116  0.0579
  762MOL0     C  467   2.532   2.148   2.533  0.2976  0.2800 -0.2261
  762MOL0     C  468   2.431   2.229   2.450  0.6914 -0.0414 -0.6908
  762MOL0     N  469   2.302   2.163   2.429  0.5966  0.5046 -0.1801
  762MOL0     C  470   2.287   2.033   2.402 -0.6547  0.6079 -0.1798
  762MOL0     C  471   2.160   2.012   2.384  0.0618  0.2047  0.9829
  762MOL0     C  472   2.081   1.886   2.356  0.9540 -0.4738 -0.9564
  762MOL0     C  473   2.011   1.843   2.482  0.2952 -0.4072  0.3162
  762MOL0     C  474   1.880   1.754   2.462 -0.4299 -0.1628  1.1106
  762MOL0     C  475   1.898   1.628   2.552  0.6347 -0.2466 -0.5155
  762MOL0     O  476   1.997   1.546   2.518 -0.1587  0.7436  0.6789
  762MOL0     C  477   2.085   1.499   2.615  0.6707 -0.5580 -0.2410
  762MOL0     C  478   2.129   1.560   2.730  0.4819  0.0494  0.3361
  762MOL0     C  479   2.229   1.514   2.810 -1.4430  0.9156 -0.0391
  762MOL0     C  480   2.292   1.400   2.774 -0.3728  0.1971  0.1689
  762MOL0     C  481   2.393   1.333   2.860  0.1500 -0.0388  0.4763
  762MOL0     O  482   2.434   1.211   2.814 -0.6311 -0.2095  0.5394
  762MOL0     C  483   2.538   1.141   2.874 -0.2189  0.3396 -0.3119
  762MOL0     C  484   2.539   1.008   2.850 -0.0831 -0.0946  0.8802
  762MOL0     C  485   2.633   0.919   2.902 -1.0618  0.0347 -1.0197
  762MOL0     C  486   2.742   0.963   2.982 -0.2492 -0.6916  0.3773
  762MOL0     O  487   2.828   0.873   3.024 -0.3798 -0.5835  0.2280
  762MOL0     C  488   2.777   0.755   3.080 -0.5741 -0.0740 -0.6737
  762MOL0     C  489   2.898   0.665   3.072 -0.2371 -0.0388  0.3817
  762MOL0     C  490   2.864   0.512   3.097  0.4612 -0.2497  0.4036
  762MOL0     C  491   2.844   0.491   3.254 -0.5686 -0.1314  0.5140
  762MOL0     C  492   2.833   0.345   3.292  0.0249 -0.2896 -1.0454
  762MOL0     C  493   2.960   0.271   3.267  0.4030 -0.1199 -0.6417
  762MOL0     C  494   2.974   0.157   3.374  0.2994  0.6253  0.3600
  762MOL0     C  495   3.039   0.034   3.312  0.5575 -0.4980 -0.5230
  762MOL0    Cl  496   3.029  -0.093   3.440 -0.0621  0.2018  0.0650
  762MOL0     C  497   2.728   1.099   3.030 -0.4606  0.2309 -0.6597
  762MOL0     C  498   2.623   1.181   2.979 -1.1779 -0.0924 -0.3632
  762MOL0     O  499   2.413   1.384   2.971  0.4442  0.1276 -0.0685
  762MOL0     C  500   2.255   1.327   2.654  0.3495  0.3937  0.5860
  762MOL0     C  501   2.146   1.371   2.586  0.2471  0.1353  0.2695
  762MOL0     N  502   2.091   2.138   2.396 -0.8631 -0.0490 -0.0981
  762MOL0     N  503   2.183   2.225   2.430 -0.0801 -0.4573  0.1211
  762MOL0     C  504   3.502   1.937   2.535 -0.7212  0.0612  0.4191
  762MOL0     C  505   3.631   1.935   2.589  0.0099  0.5067  0.3614
  762MOL0     C  506   4.011   1.892   2.799  1.1710  0.3078  0.1591
  762MOL0     C  507   4.143   1.868   2.748  1.0932  0.0748  0.0451
  762MOL0     C  508   4.251   1.905   2.827  0.6506  0.3222  0.4674
  762MOL0     C  509   4.237   1.978   2.956 -0.1726  0.2131  0.3951
  762MOL0     O  510   4.346   2.015   3.035 -0.7156 -0.5365 -0.1596
  762MOL0     C  511   4.483   2.016   2.983  0.2936 -0.2544  0.7691
  762MOL0     C  512   4.576   1.944   3.066 -0.6411  0.5994 -0.9093
  762MOL0     C  513   4.713   1.891   3.001  0.6020  0.7634 -0.6208
  762MOL0     C  514   4.822   1.860   3.109  0.1483 -1.3825  0.7334
  762MOL0     C  515   4.950   1.831   3.056 -0.5321 -0.5181  0.0760
  762MOL0     C  516   5.055   1.824   2.999 -0.8032  0.4243 -0.3933
  762MOL0     C  517   4.111   2.003   3.000  0.2732 -0.2605 -0.9349
  762MOL0     C  518   4.002   1.962   2.920 -0.0295 -0.9191  0.1121
  762MOL0     H  519   3.542   1.811   2.900  0.1726 -2.8495 -0.8785
  762MOL0     H  520   3.324   1.813   2.791 -0.8048  0.9891 -2.9029
  762MOL0     H  521   3.227   2.087   2.499  2.2215 -0.5467  0.9754
  762MOL0     H  522   3.221   2.062   2.670 -0.6463  1.2726 -0.2185
  762MOL0     H  523   3.013   1.919   2.630 -2.7984  1.2410 -0.4207
  762MOL0     H  524   3.033   1.937   2.458 -2.1671 -1.9367  0.3282
  762MOL0     H  525   3.035   2.204   2.505 -4.1716  3.5380 -1.7001
  762MOL0     H  526   2.959   2.171   2.650 -0.5456 -0.3297  0.7277
  762MOL0     H  527   2.860   2.118   2.374  1.4702  1.0364  0.2178
  762MOL0     H  528   2.795   2.039   2.533 -1.9725  0.7555  0.1082
  762MOL0     H  529   2.713   2.270   2.401 -0.7825  0.1297  0.1994
  762MOL0     H  530   2.823   2.342   2.516 -1.5494  1.7892 -0.7473
  762MOL0     H  531   2.623   2.335   2.621 -0.3441 -0.5168  0.6109
  762MOL0     H  532   2.693   2.191   2.684  1.6535  1.4465  0.1850
  762MOL0     H  533   2.571   2.074   2.461 -2.2121 -2.1666  0.7470
  762MOL0     H  534   2.488   2.106   2.624  4.5850 -2.9770  0.6662
  762MOL0     H  535   2.482   2.256   2.357  1.4631  1.3250  0.0993
  762MOL0     H  536   2.406   2.326   2.495 -0.4217  0.2369 -1.8490
  762MOL0     H  537   2.359   1.952   2.406  1.7621  2.6717  1.7205
  762MOL0     H  538   2.155   1.808   2.337 -1.7009 -2.9898 -1.6876
  762MOL0     H  539   2.010   1.896   2.273 -1.3578 -1.3685  0.8065
  762MOL0     H  540   1.974   1.935   2.526  2.4891  0.9117 -0.4235
  762MOL0     H  541   2.076   1.794   2.555 -0.4169  0.9364  1.9186
  762MOL0     H  542   1.790   1.805   2.498 -0.3489 -0.9815  2.5494
  762MOL0     H  543   1.859   1.732   2.357 -2.3312  1.8586  0.9902
  762MOL0     H  544   1.803   1.574   2.536 -1.5359  3.5516 -1.6454
  762MOL0     H  545   1.904   1.652   2.658 -2.7737 -1.3622  0.0747
  762MOL0     H  546   2.096   1.656   2.769  2.0587  1.1446 -0.9222
  762MOL0     H  547   2.256   1.568   2.901  0.1426  2.8190 -1.5594
  762MOL0     H  548   2.480   0.961   2.772  1.2242  0.5744 -0.5413
  762MOL0     H  549   2.629   0.814   2.875 -0.4790 -0.8179  1.8592
  762MOL0     H  550   2.688   0.707   3.039  0.1710 -1.6541 -0.5225
  762MOL0     H  551   2.745   0.779   3.182 -3.3879  1.0535 -1.7300
  762MOL0     H  552   2.975   0.697   3.143 -2.5362  0.5101  2.8143
  762MOL0     H  553   2.937   0.691   2.973 -1.2944  2.1847  0.4772
  762MOL0     H  554   2.944   0.453   3.052 -1.2909 -1.4449 -1.2938
  762MOL0     H  555   2.772   0.489   3.043 -0.2379  0.8344  1.0925
  762MOL0     H  556   2.937   0.522   3.302 -0.4622  0.6865 -0.1916
  762MOL0     H  557   2.757   0.541   3.297 -0.6776 -1.0975  1.4361
  762MOL0     H  558   2.748   0.300   3.240 -2.5326  3.3071 -0.3819
  762MOL0     H  559   2.811   0.339   3.399  1.1300  3.4422 -0.4839
  762MOL0     H  560   3.044   0.341   3.271  1.2917 -1.2179  0.4923
  762MOL0     H  561   2.965   0.231   3.166 -0.5372 -1.7860 -0.0652
  762MOL0     H  562   3.042   0.195   3.451 -1.3752 -0.6134  2.5694
  762MOL0     H  563   2.874   0.136   3.412  0.1434  0.0651 -0.3277
  762MOL0     H  564   3.137   0.054   3.269  0.3571  3.3341  0.4639
  762MOL0     H  565   2.973   0.004   3.230 -0.1141 -0.2612 -0.0723
  762MOL0     H  566   2.792   1.130   3.111  2.2358 -1.8003 -1.8509
  762MOL0     H  567   2.617   1.279   3.024  1.2424 -0.0320 -0.0270
  762MOL0     H  568   2.312   1.241   2.621  1.3014  1.1624  0.1672
  762MOL0     H  569   2.124   1.309   2.500 -0.2592  1.1049 -0.3238
  762MOL0     H  570   3.485   1.986   2.440  3.7421  4.4247  1.4415
  762MOL0     H  571   3.714   1.957   2.523 -1.4600 -0.3397 -1.8814
  762MOL0     H  572   4.159   1.835   2.646  0.4003 -2.3461  0.6397
  762MOL0     H  573   4.345   1.873   2.782 -1.3430 -2.2557 -2.2339
  762MOL0     H  574   4.522   2.114   2.953  0.2869 -0.4703  0.0419
  762MOL0     H  575   4.493   1.962   2.889  0.2670 -0.8044  1.0802
  762MOL0     H  576   4.597   2.019   3.143  0.1094 -0.2715 -0.2519
  762MOL0     H  577   4.523   1.862   3.115  0.8880  0.3768  0.4327
  762MOL0     H  578   4.759   1.959   2.928  1.5684 -2.3079 -3.1404
  762MOL0     H  579   4.695   1.800   2.942 -2.2765  0.1333  1.0841
  762MOL0     H  580   4.844   1.948   3.170 -2.5360  0.1990 -0.3972
  762MOL0     H  581   4.779   1.786   3.177  2.3532 -1.1528  2.5239
  762MOL0     H  582   5.149   1.841   2.951  0.7228 -0.1025  2.2048
  762MOL0     H  583   4.090   2.053   3.094  3.2232  0.7354 -0.6919
  762MOL0     H  584   3.902   1.996   2.945 -1.1209  0.0267 -4.5834
  763MOL0     O  585   7.974   9.579  10.240  0.5176 -0.2257 -1.0948
  763MOL0     C  586   7.882   9.502  10.198 -0.5859 -0.0514 -0.1505
  763MOL0     O  587   7.905   9.389  10.112  1.0772 -0.1556 -1.2819
  763MOL0     C  588   8.022   9.397  10.030 -0.4186 -0.3905 -0.1106
  763MOL0     C  589   8.045   9.486   9.930 -0.3538  0.0198 -0.2692
  763MOL0     C  590   8.180   9.517   9.893  0.0938 -0.5076  0.1458
  763MOL0     C  591   8.284   9.450   9.950 -0.1202 -0.1977  0.2230
  763MOL0     O  592   8.415   9.467   9.942 -0.7901 -0.0592 -0.7732
  763MOL0     C  593   8.462   9.594   9.916 -0.5182 -0.3975 -0.0489
  763MOL0     C  594   8.603   9.609   9.973  0.3308  0.1684 -0.2070
  763MOL0     C  595   8.695   9.731   9.933  0.5329  0.0446 -0.4201
  763MOL0     C  596   8.694   9.760   9.778 -0.0821  0.2127 -0.5352
  763MOL0     C  597   8.802   9.861   9.737 -0.5273  0.4978 -0.0637
  763MOL0     C  598   8.766   9.935   9.596  0.4545  0.6807 -1.0167
  763MOL0     C  599   8.810   9.843   9.483  0.5741  0.2429  0.8943
  763MOL0     C  600   8.728   9.859   9.346 -0.3338 -0.7680 -0.3719
  763MOL0     N  601   8.692  10.003   9.308 -0.0927  0.6574 -0.7026
  763MOL0     C  602   8.563  10.059   9.332 -0.0139  0.5194  1.2261
  763MOL0     C  603   8.569  10.175   9.269  0.3132 -0.8754  0.4323
  763MOL0     C  604   8.476  10.285   9.251 -0.5053 -0.6984 -0.7539
  763MOL0     C  605   8.499  10.393   9.364  0.2383  0.3692 -1.5181
  763MOL0     C  606   8.603  10.498   9.319  0.4229  0.6920 -0.0295
  763MOL0     C  607   8.707  10.539   9.430  0.8415 -0.2888 -0.3539
  763MOL0     O  608   8.625  10.588   9.532 -0.1405  0.2184 -0.4468
  763MOL0     C  609   8.677  10.591   9.658 -0.0396 -0.2999 -0.6238
  763MOL0     C  610   8.601  10.565   9.767 -0.3784  0.5145  1.0687
  763MOL0     C  611   8.653  10.550   9.891 -0.9866  0.3183 -0.7342
  763MOL0     C  612   8.792  10.567   9.913  0.7205 -0.7909 -0.3193
  763MOL0     C  613   8.855  10.535  10.047  0.5782 -0.0873 -1.1684
  763MOL0     O  614   8.763  10.532  10.149 -1.0599  0.3884 -0.2099
  763MOL0     C  615   8.799  10.548  10.275 -0.0335  0.1007 -0.3967
  763MOL0     C  616   8.858  10.455  10.350  0.3305  0.6546 -0.4140
  763MOL0     C  617   8.882  10.471  10.488  1.0737 -0.3004  0.0461
  763MOL0     C  618   8.845  10.588  10.551 -0.1307 -0.4145  0.2858
  763MOL0     O  619   8.827  10.586  10.689  0.4146  0.5285 -0.1964
  763MOL0     C  620   8.930  10.521  10.754  0.2417 -0.8229 -0.7308
  763MOL0     C  621   8.968  10.620  10.867  0.4334  0.4526 -0.4143
  763MOL0     C  622   9.076  10.566  10.957 -0.2356  0.8411 -0.2815
  763MOL0     C  623   9.122  10.661  11.065  0.4238  0.3780  0.6915
  763MOL0     C  624   9.271  10.652  11.084  0.1831  0.0787  0.1153
  763MOL0     C  625   9.325  10.532  11.152 -0.4337 -0.5314  0.7644
  763MOL0     C  626   9.476  10.525  11.153  0.5661  0.3953 -0.2234
  763MOL0     C  627   9.510  10.405  11.251  0.2144 -0.4337  0.6029
  763MOL0    Cl  628   9.690  10.373  11.238 -0.7124 -0.2560 -0.3172
  763MOL0     C  629   8.785  10.683  10.471 -0.4349  0.4390 -0.2179
  763MOL0     C  630   8.763  10.664  10.339  0.3330 -0.2748 -0.6319
  763MOL0     O  631   8.980  10.539  10.068 -0.1654 -0.1419 -0.0954
  763MOL0     C  632   8.876  10.605   9.800  0.0721  0.6457 -0.1737
  763MOL0     C  633   8.820  10.616   9.673  0.9019 -0.0649  0.0975
  763MOL0     N  634   8.691  10.180   9.201 -0.5239 -0.4811  1.1240
  763MOL0     N  635   8.770  10.078   9.223  0.0372 -0.2861  0.1374
  763MOL0     C  636   8.259   9.343  10.052  0.4072  0.5683  0.4858
  763MOL0     C  637   8.124   9.321  10.078  0.7294  0.0085  0.2319
  763MOL0     C  638   7.741   9.531  10.237 -0.1639  0.8538  1.0437
  763MOL0     C  639   7.644   9.428  10.211  0.8234  0.0215 -0.2994
  763MOL0     C  640   7.516   9.452  10.262 -0.1216  0.6956  0.0490
  763MOL0     C  641   7.476   9.566  10.329 -0.2732  0.2498  0.1478
  763MOL0     O  642   7.356   9.594  10.379  0.4401  0.5487 -0.6005
  763MOL0     C  643   7.260   9.486  10.382  0.3084  0.2843  0.0469
  763MOL0     C  644   7.190   9.473  10.244 -0.3825  0.0263  0.6045
  763MOL0     C  645   7.068   9.564  10.242  0.6409 -0.3668 -1.1791
  763MOL0     C  646   7.082   9.715  10.267 -0.3909  0.9048  0.0106
  763MOL0     C  647   6.953   9.781  10.253  0.4395  0.2217 -0.3429
  763MOL0     C  648   6.857   9.850  10.230  0.4417  0.0611 -0.9592
  763MOL0     C  649   7.581   9.664  10.347 -1.4786  0.3753  0.6386
  763MOL0     C  650   7.711   9.649  10.309 -0.9457  0.3721 -0.8372
  763MOL0     H  651   7.964   9.550   9.898  0.9835  1.4937 -0.8521
  763MOL0     H  652   8.195   9.598   9.821  1.3256 -2.3312 -1.7789
  763MOL0     H  653   8.391   9.671   9.948 -0.0509  1.6153 -3.2949
  763MOL0     H  654   8.466   9.611   9.808 -1.8461 -3.1744 -0.6244
  763MOL0     H  655   8.660   9.518   9.952 -3.7604 -3.0273  1.1306
  763MOL0     H  656   8.608   9.618  10.082  2.3378  0.6573 -0.2938
  763MOL0     H  657   8.798   9.715   9.967  1.2506  1.2088 -1.8966
  763MOL0     H  658   8.677   9.825   9.986 -1.9927 -0.5519 -0.1138
  763MOL0     H  659   8.699   9.665   9.724  0.4942  1.1674 -2.2312
  763MOL0     H  660   8.605   9.817   9.748 -0.2979 -0.8440 -2.0236
  763MOL0     H  661   8.904   9.822   9.732 -0.7494 -0.1585 -5.2491
  763MOL0     H  662   8.798   9.937   9.815  1.0224 -0.5144  1.0612
  763MOL0     H  663   8.814  10.033   9.583  3.3290 -0.7021 -1.5762
  763MOL0     H  664   8.657   9.948   9.588 -0.0281 -2.2872 -0.1765
  763MOL0     H  665   8.920   9.847   9.479  0.9171 -3.5981  2.4086
  763MOL0     H  666   8.799   9.737   9.507 -0.4392  0.3271  0.8071
  763MOL0     H  667   8.641   9.793   9.339 -0.3476 -0.7366 -0.5131
  763MOL0     H  668   8.795   9.821   9.268  0.1330 -2.6191  0.8792
  763MOL0     H  669   8.477  10.012   9.379  0.8385 -0.6238  1.6562
  763MOL0     H  670   8.370  10.257   9.254 -0.5434 -0.4961  0.0974
  763MOL0     H  671   8.491  10.317   9.148  0.8416 -0.5343 -0.5162
  763MOL0     H  672   8.528  10.370   9.467  0.8703  4.0786 -0.7267
  763MOL0     H  673   8.411  10.459   9.368 -0.1557 -0.1992  0.7001
  763MOL0     H  674   8.669  10.452   9.245  0.3759  0.3576  0.1368
  763MOL0     H  675   8.547  10.582   9.276 -2.1371 -0.0783  1.6002
  763MOL0     H  676   8.775  10.611   9.384  1.7731 -3.0063 -3.5591
  763MOL0     H  677   8.766  10.452   9.459 -0.5914 -1.2043 -0.0627
  763MOL0     H  678   8.495  10.543   9.754 -0.3330 -0.1865  1.7983
  763MOL0     H  679   8.591  10.550   9.980  1.1064 -0.7733  0.8118
  763MOL0     H  680   8.868  10.361  10.296  0.4528  1.1607 -1.2943
  763MOL0     H  681   8.910  10.390  10.554  1.7950  2.4164  3.3997
  763MOL0     H  682   9.023  10.512  10.697  1.5392 -0.1284  1.1779
  763MOL0     H  683   8.912  10.422  10.796  0.3656 -0.1533  0.9915
  763MOL0     H  684   8.889  10.666  10.927 -0.6503  2.0538 -2.9372
  763MOL0     H  685   9.018  10.701  10.814  0.1037  1.5255  0.8499
  763MOL0     H  686   9.158  10.550  10.886  0.6346  1.6087  0.5242
  763MOL0     H  687   9.063  10.462  10.988  4.2235 -0.4795 -1.9890
  763MOL0     H  688   9.103  10.765  11.040  1.0768 -0.0177 -1.7181
  763MOL0     H  689   9.071  10.635  11.158 -1.2663  0.7864 -0.0879
  763MOL0     H  690   9.309  10.739  11.138  0.1351  0.5378 -0.5694
  763MOL0     H  691   9.316  10.643  10.984  0.6458 -2.4243  0.4802
  763MOL0     H  692   9.295  10.443  11.096 -0.7852  0.4686 -0.6707
  763MOL0     H  693   9.283  10.523  11.253 -0.0656 -1.4121  0.8483
  763MOL0     H  694   9.515  10.502  11.053  0.6555 -0.2469 -0.0425
  763MOL0     H  695   9.520  10.616  11.194  1.5632 -0.5053  0.7605
  763MOL0     H  696   9.456  10.316  11.217 -0.9672  0.3398  0.3940
  763MOL0     H  697   9.486  10.432  11.354 -0.2329  1.2875  0.0924
  763MOL0     H  698   8.751  10.771  10.526 -3.6664 -1.3317  0.9222
  763MOL0     H  699   8.720  10.745  10.281 -0.0564 -1.5676 -2.2293
  763MOL0     H  700   8.982  10.615   9.822  0.2625 -5.1063  4.0687
  763MOL0     H  701   8.878  10.638   9.584 -0.1946  1.4839 -0.2699
  763MOL0     H  702   8.337   9.292  10.107  0.5036  0.0893 -0.0780
  763MOL0     H  703   8.086   9.248  10.147 -2.5671 -0.9321 -2.3106
  763MOL0     H  704   7.672   9.339  10.157  1.3202 -0.9426  1.4707
  763MOL0     H  705   7.452   9.367  10.240  1.2610 -1.3915  3.3997
  763MOL0     H  706   7.188   9.507  10.462  1.1632  1.6445  0.5052
  763MOL0     H  707   7.309   9.390  10.399 -0.5651 -1.3683 -5.1104
  763MOL0     H  708   7.256   9.499  10.161 -0.9173  0.1811  0.2239
  763MOL0     H  709   7.164   9.368  10.229 -0.5495  0.1569 -0.0388
  763MOL0     H  710   7.011   9.520  10.325  2.7644  1.8573  1.6522
  763MOL0     H  711   7.012   9.534  10.153 -2.1389 -1.2983  0.7004
  763MOL0     H  712   7.129   9.737  10.363  0.3965 -1.4884  0.2323
  763MOL0     H  713   7.151   9.754  10.192  1.4279 -0.4255  0.9323
  763MOL0     H  714   6.785   9.926  10.208 -0.9157 -0.3068  1.7477
  763MOL0     H  715   7.556   9.749  10.410  1.5469  0.6671  1.6079
  763MOL0     H  716   7.788   9.715  10.345  0.8709 -0.7920 -2.3581
  764MOL0     O  717   7.231   0.217   2.752 -0.5740  0.7617  0.9220
  764MOL0     C  718   7.268   0.114   2.691  0.0223 -0.6509  0.1013
  764MOL0     O  719   7.193   0.039   2.609  0.1587 -0.1074  0.0161
  764MOL0     C  720   7.061   0.034   2.603 -0.1369 -0.1748  0.4589
  764MOL0     C  721   6.984   0.038   2.718  0.5544  0.9057 -0.4760
  764MOL0     C  722   6.839   0.034   2.718 -0.0589  0.0472  0.4678
  764MOL0     C  723   6.779   0.036   2.587 -1.0446 -0.0597 -0.0145
  764MOL0     O  724   6.651   0.066   2.569 -0.8183 -0.7502  0.4753
  764MOL0     C  725   6.556   0.001   2.657  0.0644  0.0525  0.3815
  764MOL0     C  726   6.560  -0.151   2.635  0.7264  0.2666  0.4033
  764MOL0     C  727   6.501  -0.209   2.500  0.5854 -0.4362  0.7924
  764MOL0     C  728   6.356  -0.171   2.496  0.4081  0.4275 -0.0723
  764MOL0     C  729   6.308  -0.230   2.368  1.0249  0.8524  1.2211
  764MOL0     C  730   6.158  -0.191   2.357 -0.3247  0.0796 -0.4010
  764MOL0     C  731   6.085  -0.270   2.241 -0.2744 -0.1462 -0.2935
  764MOL0     C  732   5.956  -0.208   2.192 -0.8261  0.6630 -1.2796
  764MOL0     N  733   5.868  -0.320   2.148 -0.0755  0.5937  0.3933
  764MOL0     C  734   5.883  -0.395   2.045 -0.2951  0.1156  1.2259
  764MOL0     C  735   5.770  -0.456   2.026  0.0769  0.7935  0.1880
  764MOL0     C  736   5.722  -0.534   1.908  0.6028 -0.0714  0.3215
  764MOL0     C  737   5.592  -0.605   1.936  0.2478 -0.3246  0.4020
  764MOL0     C  738   5.469  -0.516   1.902  0.5637  0.2602  0.0602
  764MOL0     C  739   5.343  -0.573   1.939 -0.1857 -0.1064  0.2452
  764MOL0     O  740   5.231  -0.506   1.879 -0.0358 -0.8104  0.6639
  764MOL0     C  741   5.118  -0.572   1.920  0.3228  0.2665  0.3779
  764MOL0     C  742   5.061  -0.562   2.054 -0.2622 -0.9480 -0.2200
  764MOL0     C  743   4.955  -0.644   2.077  0.0701  0.2462  0.0097
  764MOL0     C  744   4.895  -0.732   1.983  0.1089 -0.8845 -0.2258
  764MOL0     C  745   4.792  -0.824   2.020  0.2200 -0.3236 -0.5256
  764MOL0     O  746   4.744  -0.903   1.919 -0.8427  0.3649  0.6304
  764MOL0     C  747   4.624  -0.980   1.923 -0.7780 -0.1671 -0.3475
  764MOL0     C  748   4.558  -1.023   2.038 -0.6238 -0.3159 -0.0404
  764MOL0     C  749   4.447  -1.110   2.025 -0.1454 -1.1972 -0.2992
  764MOL0     C  750   4.392  -1.141   1.903  0.3593 -0.0539 -0.3528
  764MOL0     O  751   4.272  -1.220   1.907 -0.2034 -0.0907  0.9475
  764MOL0     C  752   4.212  -1.238   1.776  0.3547  0.1839  0.2995
  764MOL0     C  753   4.109  -1.349   1.772  0.2096  0.2278 -0.1037
  764MOL0     C  754   4.104  -1.427   1.640 -0.1650 -0.1361  0.1425
  764MOL0     C  755   4.100  -1.337   1.522  1.0501 -0.2583 -0.5874
  764MOL0     C  756   4.061  -1.407   1.395  0.0934  0.7951  0.0336
  764MOL0     C  757   4.095  -1.313   1.277 -0.0090  0.1926  0.4139
  764MOL0     C  758   4.040  -1.371   1.146 -0.2777  0.4067  0.0659
  764MOL0     C  759   4.136  -1.317   1.037  0.2805  1.0202  0.3089
  764MOL0    Cl  760   4.165  -1.143   1.054 -0.0029 -0.3256 -0.3802
  764MOL0     C  761   4.457  -1.109   1.791  0.3930 -0.1853  0.4633
  764MOL0     C  762   4.574  -1.029   1.800  0.2713  1.0261  0.4307
  764MOL0     O  763   4.728  -0.797   2.119  0.2081 -0.4134 -0.9694
  764MOL0     C  764   4.949  -0.740   1.859 -0.6373  0.2013  0.6378
  764MOL0     C  765   5.066  -0.666   1.831 -0.2823 -0.9906  0.0198
  764MOL0     N  766   5.681  -0.413   2.130 -0.1397  0.2268 -0.3597
  764MOL0     N  767   5.741  -0.335   2.198 -0.3024 -1.0844 -0.3200
  764MOL0     C  768   6.856   0.026   2.471  1.1406 -0.5598 -0.3949
  764MOL0     C  769   6.996   0.023   2.480 -0.2447  1.0523 -0.9765
  764MOL0     C  770   7.390   0.048   2.741 -0.0851  0.2984  0.7917
  764MOL0     C  771   7.419  -0.087   2.705  0.8334  0.1450 -1.2503
  764MOL0     C  772   7.540  -0.147   2.731  0.3855 -0.3500 -0.7661
  764MOL0     C  773   7.634  -0.076   2.808  0.4359  1.0598  0.0358
  764MOL0     O  774   7.744  -0.146   2.840 -0.2269 -0.0295  0.3613
  764MOL0     C  775   7.838  -0.096   2.932 -0.9657 -0.2696  0.0149
  764MOL0     C  776   7.797  -0.107   3.078  0.5132  0.4655 -0.2226
  764MOL0     C  777   7.884  -0.015   3.170 -0.6810  0.2482  0.0777
  764MOL0     C  778   8.039  -0.027   3.165 -0.5120  0.1429 -0.4909
  764MOL0     C  779   8.081  -0.165   3.184 -0.3062 -0.3684  0.6471
  764MOL0     C  780   8.112  -0.277   3.222 -0.0564  0.1233  0.6646
  764MOL0     C  781   7.604   0.054   2.858  0.5972  0.4039  0.4087
  764MOL0     C  782   7.490   0.117   2.820 -0.5153  0.2431  0.0237
  764MOL0     H  783   7.048   0.056   2.804  0.6532 -0.6535 -0.1924
  764MOL0     H  784   6.778   0.036   2.808 -3.2087  1.4574 -1.5111
  764MOL0     H  785   6.456   0.042   2.640  0.5734  0.6471 -1.3384
  764MOL0     H  786   6.583   0.027   2.760  1.1417  0.3112  0.0409
  764MOL0     H  787   6.494  -0.191   2.712 -0.2080  2.5649  0.8533
  764MOL0     H  788   6.665  -0.181   2.641  0.6093 -0.1088  0.5995
  764MOL0     H  789   6.508  -0.318   2.497 -1.7013 -0.6379 -2.4711
  764MOL0     H  790   6.551  -0.173   2.409 -2.4149 -0.9014 -1.1729
  764MOL0     H  791   6.303  -0.198   2.587 -1.2634  3.8696  0.1237
  764MOL0     H  792   6.349  -0.062   2.489  2.0486  0.5055 -1.2123
  764MOL0     H  793   6.334  -0.336   2.369  0.8929  0.7777 -0.7035
  764MOL0     H  794   6.370  -0.173   2.299 -0.7591 -0.5216 -1.6954
  764MOL0     H  795   6.147  -0.084   2.337 -2.1893  0.0014  0.0612
  764MOL0     H  796   6.110  -0.212   2.453 -2.6392  1.8409 -1.0878
  764MOL0     H  797   6.151  -0.277   2.154  2.6089  0.4693  1.6974
  764MOL0     H  798   6.069  -0.372   2.277  2.9426  0.0913  2.4056
  764MOL0     H  799   5.971  -0.125   2.122 -2.6365 -0.2089 -2.8343
  764MOL0     H  800   5.909  -0.167   2.281  1.1273 -1.6752  0.9769
  764MOL0     H  801   5.973  -0.388   1.984 -1.4834  0.7154 -0.5493
  764MOL0     H  802   5.808  -0.592   1.874  0.8281  0.7164 -0.5126
  764MOL0     H  803   5.700  -0.468   1.823  0.0362 -0.5179  0.1099
  764MOL0     H  804   5.582  -0.627   2.043  0.5162  0.9158  0.7049
  764MOL0     H  805   5.587  -0.700   1.882  1.2773 -0.2316  0.1288
  764MOL0     H  806   5.482  -0.415   1.941  0.3981  0.8624 -1.3577
  764MOL0     H  807   5.458  -0.505   1.793 -0.0627 -1.7604 -0.1269
  764MOL0     H  808   5.337  -0.555   2.047  0.9376 -1.7809  0.6137
  764MOL0     H  809   5.342  -0.680   1.919 -0.0836  0.0216 -0.4777
  764MOL0     H  810   5.104  -0.499   2.131 -0.2759 -3.2957  1.8269
  764MOL0     H  811   4.906  -0.637   2.173 -1.0460  0.8583 -0.5830
  764MOL0     H  812   4.576  -0.974   2.134 -2.2179  2.0106 -0.8452
  764MOL0     H  813   4.403  -1.168   2.105  1.1029 -3.0115 -0.8760
  764MOL0     H  814   4.284  -1.269   1.699 -2.4255  1.9887 -3.3777
  764MOL0     H  815   4.169  -1.154   1.721  1.0357 -1.3036 -2.7687
  764MOL0     H  816   4.012  -1.301   1.782 -0.6752 -1.5913  0.6034
  764MOL0     H  817   4.125  -1.424   1.850 -0.3003 -1.0428 -1.1827
  764MOL0     H  818   4.010  -1.483   1.641 -0.7263  0.7875  0.1193
  764MOL0     H  819   4.183  -1.503   1.630 -0.8179 -0.4831 -3.7513
  764MOL0     H  820   4.034  -1.254   1.547  1.4306 -0.5899  1.7613
  764MOL0     H  821   4.201  -1.297   1.510  0.5636  0.5614 -2.2417
  764MOL0     H  822   3.955  -1.433   1.398 -0.2684  2.1985  0.4803
  764MOL0     H  823   4.119  -1.500   1.391 -3.9560 -2.1238  2.0508
  764MOL0     H  824   4.200  -1.286   1.286  0.0216 -0.3500  1.8974
  764MOL0     H  825   4.043  -1.219   1.294 -0.0996  0.7615 -2.4365
  764MOL0     H  826   4.043  -1.480   1.134  1.2902  0.5415 -1.0564
  764MOL0     H  827   3.937  -1.345   1.122 -1.9403 -4.4341  0.7285
  764MOL0     H  828   4.099  -1.326   0.934  1.7733 -4.7067 -0.0462
  764MOL0     H  829   4.230  -1.373   1.032 -0.7576 -0.9405  1.6119
  764MOL0     H  830   4.425  -1.136   1.691 -0.5021 -1.3403  1.0338
  764MOL0     H  831   4.639  -1.017   1.714  0.3644  3.4923  0.7607
  764MOL0     H  832   4.899  -0.779   1.770 -0.4155  2.5590 -0.5972
  764MOL0     H  833   5.109  -0.655   1.732 -1.3861 -0.6949 -0.4510
  764MOL0     H  834   6.802   0.057   2.382 -1.1981  0.7618  1.3855
  764MOL0     H  835   7.064   0.033   2.396  2.7126 -3.2880  0.5292
  764MOL0     H  836   7.342  -0.140   2.650  0.0373  0.6495 -0.6432
  764MOL0     H  837   7.560  -0.245   2.691 -1.1956 -0.4585 -1.3638
  764MOL0     H  838   7.868   0.002   2.894  0.3009 -1.7106 -3.0827
  764MOL0     H  839   7.926  -0.157   2.912  0.6984  2.0620 -0.1787
  764MOL0     H  840   7.703  -0.052   3.092  3.0158  4.5798  2.7933
  764MOL0     H  841   7.791  -0.208   3.119  4.1862  0.1091 -0.2398
  764MOL0     H  842   7.852  -0.034   3.273 -1.8207  3.4229  0.4202
  764MOL0     H  843   7.849   0.086   3.145 -0.8603  0.7518  2.1187
  764MOL0     H  844   8.071   0.016   3.069 -2.1590  0.1858 -1.0546
  764MOL0     H  845   8.084   0.031   3.246 -1.0856 -3.1379  2.4120
  764MOL0     H  846   8.143  -0.376   3.250  2.0187  0.7403  0.7697
  764MOL0     H  847   7.679   0.118   2.904  1.6800  1.3660 -2.4554
  764MOL0     H  848   7.479   0.216   2.862 -1.7152  0.3146 -0.4135
  765MOL0     O  849   7.996   7.210   8.643  0.0070  0.4407  0.7361
  765MOL0     C  850   7.891   7.169   8.691 -0.2832 -0.2110 -0.2699
  765MOL0     O  851   7.858   7.039   8.708 -0.0156  0.3331 -0.1564
  765MOL0     C  852   7.940   6.938   8.665  0.2989 -0.2427 -0.5032
  765MOL0     C  853   8.083   6.932   8.666  0.0663 -0.2222 -0.1281
  765MOL0     C  854   8.147   6.819   8.618  0.1258  0.0299 -0.2766
  765MOL0     C  855   8.077   6.716   8.562  0.6807  0.0697 -0.3199
  765MOL0     O  856   8.153   6.617   8.506 -0.2945 -0.2473 -0.5671
  765MOL0     C  857   8.098   6.478   8.489 -0.1604  0.5009 -0.9441
  765MOL0     C  858   8.185   6.403   8.390 -0.4593 -0.9702 -0.5503
  765MOL0     C  859   8.115   6.268   8.372 -0.5103 -0.1175 -0.4033
  765MOL0     C  860   8.197   6.179   8.283 -0.9489  0.4717  0.3275
  765MOL0     C  861   8.131   6.037   8.291  0.1458  0.0931 -0.1641
  765MOL0     C  862   8.213   5.933   8.230 -0.4401 -0.1675 -0.1526
  765MOL0     C  863   8.160   5.790   8.259 -0.1736 -0.5962  1.0087
  765MOL0     C  864   8.022   5.750   8.201  0.6599 -0.4241  0.4067
  765MOL0     N  865   7.909   5.787   8.288  0.6320 -0.1038 -0.2934
  765MOL0     C  866   7.888   5.750   8.413 -0.7097  0.8488 -0.0805
  765MOL0     C  867   7.779   5.813   8.454  0.6406 -1.2191 -0.0976
  765MOL0     C  868   7.723   5.810   8.596  0.1275 -0.4909 -0.2744
  765MOL0     C  869   7.733   5.957   8.648 -0.0310  0.8459 -0.6396
  765MOL0     C  870   7.880   6.000   8.677 -0.1714 -0.0223 -0.3683
  765MOL0     C  871   7.896   6.134   8.751  0.7690 -0.0668 -0.2816
  765MOL0     O  872   7.827   6.233   8.677  0.1097  0.1425  0.1727
  765MOL0     C  873   7.809   6.358   8.736 -0.6295  0.4183  0.2583
  765MOL0     C  874   7.894   6.421   8.835  0.5754  0.2456 -0.0965
  765MOL0     C  875   7.868   6.550   8.886 -0.2992 -0.6956  0.0186
  765MOL0     C  876   7.760   6.621   8.838  0.0907 -0.0244 -0.4475
  765MOL0     C  877   7.722   6.765   8.891  0.1044 -0.2736  0.3804
  765MOL0     O  878   7.611   6.825   8.850 -0.2329 -1.0386 -0.9112
  765MOL0     C  879   7.536   6.913   8.934 -0.5164 -0.3480 -1.0550
  765MOL0     C  880   7.443   6.996   8.880  0.7711 -0.4510 -0.4007
  765MOL0     C  881   7.359   7.081   8.951  0.6560  0.4066  0.6831
  765MOL0     C  882   7.376   7.090   9.091  0.2141 -0.3185  0.4857
  765MOL0     O  883   7.296   7.167   9.169  0.0616  0.3373  0.0108
  765MOL0     C  884   7.230   7.295   9.119 -0.4711  1.1906  0.0307
  765MOL0     C  885   7.209   7.394   9.237 -0.5872 -0.3976  0.2416
  765MOL0     C  886   7.167   7.531   9.193 -0.2360 -0.4525 -0.6699
  765MOL0     C  887   7.020   7.540   9.156  0.1352  1.2733  0.7219
  765MOL0     C  888   6.978   7.678   9.092 -0.4247  0.7223 -0.8507
  765MOL0     C  889   6.826   7.705   9.118  0.3355  0.5139  0.6452
  765MOL0     C  890   6.764   7.822   9.028 -0.5059  0.2925  0.8098
  765MOL0     C  891   6.796   7.963   9.058  0.1750 -0.0349  0.9546
  765MOL0    Cl  892   6.747   7.981   9.225 -0.3756  0.1904 -0.0469
  765MOL0     C  893   7.462   6.993   9.157 -0.4902 -0.8411  1.1028
  765MOL0     C  894   7.543   6.906   9.081  0.0206 -0.3740  0.3142
  765MOL0     O  895   7.800   6.814   8.979  0.1699  0.2054 -0.1502
  765MOL0     C  896   7.680   6.561   8.738 -0.6039 -0.5679  0.7203
  765MOL0     C  897   7.707   6.430   8.698 -0.8749 -0.4551  0.2316
  765MOL0     N  898   7.717   5.876   8.338 -0.7869  0.5925  0.0358
  765MOL0     N  899   7.795   5.848   8.240 -0.0520  1.5287  0.8060
  765MOL0     C  900   7.936   6.720   8.577  0.4149 -0.6467  0.0679
  765MOL0     C  901   7.866   6.832   8.614  0.3497  0.3487 -0.8713
  765MOL0     C  902   7.807   7.277   8.749  0.3903  0.0567 -0.3661
  765MOL0     C  903   7.721   7.245   8.852  0.5017  0.5828  0.4581
  765MOL0     C  904   7.616   7.334   8.885 -0.6739  0.2145 -0.7885
  765MOL0     C  905   7.611   7.464   8.834  0.2123 -0.7556  0.5100
  765MOL0     O  906   7.511   7.548   8.880  0.5616  0.1958  0.7502
  765MOL0     C  907   7.504   7.686   8.828  0.0780 -0.0269  0.7923
  765MOL0     C  908   7.446   7.783   8.929  0.9152  0.5566 -0.1967
  765MOL0     C  909   7.287   7.801   8.922 -0.7137  0.7201  0.3299
  765MOL0     C  910   7.225   7.903   8.826 -0.0028 -0.8068 -0.6350
  765MOL0     C  911   7.179   7.849   8.703 -0.0489  0.6576  0.2055
  765MOL0     C  912   7.147   7.805   8.594 -0.1477  0.5389  0.0212
  765MOL0     C  913   7.710   7.496   8.739  0.6669  0.3233  0.8468
  765MOL0     C  914   7.810   7.409   8.699 -1.0767  0.8766 -0.0861
  765MOL0     H  915   8.143   7.013   8.705  0.9384 -0.2360 -1.3702
  765MOL0     H  916   8.256   6.823   8.614  0.1094  3.3131 -0.9769
  765MOL0     H  917   7.994   6.492   8.459 -0.3691  0.4134 -0.2896
  765MOL0     H  918   8.090   6.420   8.582 -0.0980  0.4747 -0.9554
  765MOL0     H  919   8.286   6.388   8.430 -1.9579 -1.4239  3.5312
  765MOL0     H  920   8.179   6.455   8.294  2.4465 -1.5481 -1.1605
  765MOL0     H  921   8.014   6.279   8.330 -1.0214  0.8925  1.0035
  765MOL0     H  922   8.117   6.226   8.473  0.0659 -0.5673 -0.5976
  765MOL0     H  923   8.205   6.210   8.179  1.7630 -2.2015 -0.3858
  765MOL0     H  924   8.298   6.168   8.324 -1.3993  0.6512  1.5229
  765MOL0     H  925   8.035   6.045   8.239  0.5358  1.6813 -0.6994
  765MOL0     H  926   8.107   6.026   8.398 -1.2505 -0.1409 -0.4829
  765MOL0     H  927   8.316   5.942   8.265 -0.3725  1.6067 -0.6700
  765MOL0     H  928   8.208   5.955   8.122  1.8056  2.4850  0.1519
  765MOL0     H  929   8.237   5.726   8.213 -0.9274 -0.1538 -0.9809
  765MOL0     H  930   8.170   5.765   8.365 -0.4930 -0.2451  1.1206
  765MOL0     H  931   8.012   5.641   8.197 -0.1905 -0.4540  2.2610
  765MOL0     H  932   8.017   5.799   8.104 -1.2314 -0.0319  0.6623
  765MOL0     H  933   7.952   5.686   8.474 -1.3496 -0.7232 -0.9986
  765MOL0     H  934   7.774   5.740   8.664  1.3905  1.2330  0.6269
  765MOL0     H  935   7.622   5.773   8.580 -0.0142 -0.4843  0.5528
  765MOL0     H  936   7.665   5.965   8.733 -1.0788 -1.5747 -1.1787
  765MOL0     H  937   7.690   6.029   8.576  0.7037  1.3879 -0.5515
  765MOL0     H  938   7.928   5.933   8.749  0.3722  1.8566  1.1027
  765MOL0     H  939   7.938   6.017   8.586  3.3824  1.8728  2.0087
  765MOL0     H  940   7.998   6.174   8.756  0.3082  1.0038  1.9480
  765MOL0     H  941   7.854   6.114   8.850  1.2300 -1.1541 -0.2881
  765MOL0     H  942   7.967   6.362   8.891 -0.2500 -3.9198 -2.9355
  765MOL0     H  943   7.928   6.591   8.966 -0.5698 -4.0167  2.1239
  765MOL0     H  944   7.440   6.989   8.772  0.3894 -1.2360 -0.3450
  765MOL0     H  945   7.285   7.138   8.896  1.2453  0.6245  0.0986
  765MOL0     H  946   7.139   7.276   9.060  0.1536 -0.6688 -0.4091
  765MOL0     H  947   7.301   7.336   9.046  0.8085  0.2386  0.6959
  765MOL0     H  948   7.312   7.395   9.272 -0.4657 -3.7710  0.2356
  765MOL0     H  949   7.141   7.355   9.313  0.1329 -0.5628  0.8122
  765MOL0     H  950   7.234   7.558   9.110  1.7544  0.0972  1.0444
  765MOL0     H  951   7.175   7.599   9.278 -4.0711 -0.2645 -0.3191
  765MOL0     H  952   6.981   7.457   9.096 -2.2751  1.4043  2.0089
  765MOL0     H  953   6.964   7.532   9.250  1.4123  2.2497  1.6035
  765MOL0     H  954   6.994   7.682   8.983  0.5027  2.0200 -0.6902
  765MOL0     H  955   7.045   7.753   9.133  2.9214 -1.7545 -1.3293
  765MOL0     H  956   6.808   7.718   9.225 -1.7773  1.2373  0.2722
  765MOL0     H  957   6.773   7.615   9.085  2.8885 -0.8860  0.1294
  765MOL0     H  958   6.785   7.797   8.923  2.2582 -0.2741  1.4178
  765MOL0     H  959   6.655   7.824   9.034 -0.6759 -2.5150 -0.0239
  765MOL0     H  960   6.726   8.023   8.998 -2.9508 -2.1453  2.2126
  765MOL0     H  961   6.898   8.000   9.044 -1.1861  2.8283 -4.0045
  765MOL0     H  962   7.449   6.991   9.265  1.1117 -1.4972  1.3092
  765MOL0     H  963   7.596   6.827   9.133 -0.1509  0.7973  2.3421
  765MOL0     H  964   7.595   6.602   8.684  0.5439 -0.4473 -1.0426
  765MOL0     H  965   7.649   6.381   8.621  1.2431 -3.1745  0.1713
  765MOL0     H  966   7.864   6.647   8.540 -0.1022 -1.8652  3.1749
  765MOL0     H  967   7.758   6.840   8.611  0.3806  0.9210 -0.5735
  765MOL0     H  968   7.716   7.145   8.895 -1.0832  0.6950  0.5807
  765MOL0     H  969   7.523   7.318   8.939 -1.7775 -1.1712 -2.9060
  765MOL0     H  970   7.442   7.686   8.738 -1.4413 -0.6302  1.8047
  765MOL0     H  971   7.600   7.735   8.808 -0.8978  2.0790  0.9832
  765MOL0     H  972   7.476   7.747   9.028 -4.8792  2.3271  2.7027
  765MOL0     H  973   7.487   7.885   8.934  0.7288  0.5915  3.5202
  765MOL0     H  974   7.262   7.842   9.020  1.3554  2.2504  0.2798
  765MOL0     H  975   7.239   7.704   8.902 -1.9769  1.2902  0.5293
  765MOL0     H  976   7.151   7.965   8.877  2.9811  1.6466  1.0788
  765MOL0     H  977   7.301   7.975   8.793  1.1475  1.4390  5.6067
  765MOL0     H  978   7.136   7.766   8.495 -1.7781  3.6584 -1.1396
  765MOL0     H  979   7.710   7.594   8.693 -2.8880 -0.1485 -0.4979
  765MOL0     H  980   7.877   7.438   8.619 -0.1471 -1.0822 -0.0913
  766MOL0     O  981   8.353  10.655   1.276  0.0507  0.1377 -0.7054
  766MOL0     C  982   8.426  10.724   1.214 -0.1728 -0.0624  0.1861
  766MOL0     O  983   8.560  10.716   1.219  0.6322 -0.1553  0.1047
  766MOL0     C  984   8.610  10.705   1.344  1.6612  0.0662  0.6229
  766MOL0     C  985   8.563  10.771   1.462  0.2290  0.4831 -0.2678
  766MOL0     C  986   8.640  10.787   1.588  0.0977  0.0019 -0.5766
  766MOL0     C  987   8.764  10.719   1.602  0.6921 -0.4440  0.2049
  766MOL0     O  988   8.834  10.716   1.722  0.1753 -0.0693  0.5900
  766MOL0     C  989   8.804  10.813   1.818 -0.0954  0.4082 -0.0640
  766MOL0     C  990   8.880  10.793   1.944  0.6487  0.1564  1.1099
  766MOL0     C  991   8.807  10.690   2.023 -0.0927  0.2364  0.2376
  766MOL0     C  992   8.895  10.643   2.140 -0.2423 -0.3473  0.7048
  766MOL0     C  993   8.830  10.548   2.245  0.2070  0.4019 -0.1143
  766MOL0     C  994   8.920  10.536   2.369  0.4273 -0.2150  0.0612
  766MOL0     C  995   8.837  10.454   2.473  0.4543  0.5732 -0.4574
  766MOL0     C  996   8.937  10.366   2.550  0.2445  0.0782  0.3375
  766MOL0     N  997   8.855  10.275   2.640  0.3293 -0.4973  0.9584
  766MOL0     C  998   8.770  10.175   2.599  0.0061 -0.0519  0.1219
  766MOL0     C  999   8.747  10.105   2.714 -0.6779 -0.7376 -0.2476
  766MOL0     C 1000   8.671   9.967   2.710 -0.2748  0.1356  0.0008
  766MOL0     C 1001   8.753   9.838   2.685  0.2090  0.3457 -0.1190
  766MOL0     C 1002   8.901   9.847   2.699  0.2120 -0.5310  0.0992
  766MOL0     C 1003   8.949   9.699   2.690 -0.0101  0.1230 -0.1763
  766MOL0     O 1004   8.905   9.618   2.579 -0.1411 -0.4904 -0.2862
  766MOL0     C 1005   8.932   9.480   2.593  0.2601  0.9068  0.4847
  766MOL0     C 1006   8.892   9.397   2.494  1.3059 -0.2345 -0.0920
  766MOL0     C 1007   8.926   9.269   2.482 -0.5552 -0.1260 -0.5985
  766MOL0     C 1008   9.009   9.199   2.577  0.5792 -0.8469 -0.1636
  766MOL0     C 1009   9.050   9.066   2.554 -0.4559 -0.1979 -0.0014
  766MOL0     O 1010   9.004   9.002   2.448 -0.5783 -1.0773 -0.3664
  766MOL0     C 1011   9.058   8.879   2.412 -0.4026 -0.1515  0.4032
  766MOL0     C 1012   9.140   8.876   2.292 -0.0139  0.1010 -0.1148
  766MOL0     C 1013   9.210   8.766   2.247  0.2639 -0.3763 -0.6143
  766MOL0     C 1014   9.197   8.639   2.314 -0.6486  0.1992 -1.0354
  766MOL0     O 1015   9.265   8.525   2.284 -0.0978  0.6853 -0.5426
  766MOL0     C 1016   9.390   8.532   2.217  0.5062  0.1386 -1.1536
  766MOL0     C 1017   9.456   8.403   2.217 -0.1682  0.0670 -0.1940
  766MOL0     C 1018   9.606   8.410   2.180 -0.1674 -0.3006 -0.0258
  766MOL0     C 1019   9.662   8.259   2.184  0.0737  0.3641 -0.5135
  766MOL0     C 1020   9.815   8.260   2.145  0.7250 -1.0007  0.5639
  766MOL0     C 1021   9.883   8.122   2.153 -0.3024 -0.1178 -0.5437
  766MOL0     C 1022   9.947   8.083   2.291  0.9093 -0.2595 -0.8788
  766MOL0     C 1023  10.032   8.191   2.372  0.2549 -0.9610  0.1068
  766MOL0    Cl 1024  10.163   8.234   2.255  0.0259  0.7270 -0.5824
  766MOL0     C 1025   9.099   8.638   2.422 -0.5760 -0.3177  0.3278
  766MOL0     C 1026   9.044   8.759   2.469 -0.2128  0.6211  0.4940
  766MOL0     O 1027   9.139   9.025   2.627 -0.5150  0.8503 -0.2788
  766MOL0     C 1028   9.043   9.278   2.682 -0.6745 -0.6257 -0.7867
  766MOL0     C 1029   9.007   9.411   2.697 -0.1714  0.2415  0.8104
  766MOL0     N 1030   8.818  10.164   2.814  0.0532  0.0566  0.3110
  766MOL0     N 1031   8.891  10.266   2.771 -0.3612  0.1208 -0.5502
  766MOL0     C 1032   8.809  10.648   1.489  0.4476  0.6837  0.4970
  766MOL0     C 1033   8.738  10.639   1.363  0.1384  0.0248 -0.3033
  766MOL0     C 1034   8.369  10.800   1.089 -0.0286 -0.0129 -0.2443
  766MOL0     C 1035   8.439  10.889   1.010  0.6324 -0.1262 -0.3897
  766MOL0     C 1036   8.389  10.953   0.897 -0.3349  0.3416 -0.6386
  766MOL0     C 1037   8.256  10.927   0.854 -0.9363 -0.1504 -0.4248
  766MOL0     O 1038   8.202  11.010   0.755  0.6744 -0.6180 -0.1802
  766MOL0     C 1039   8.282  11.090   0.674  0.1327 -0.4625 -0.2131
  766MOL0     C 1040   8.191  11.157   0.567  0.5699  0.5768 -0.9442
  766MOL0     C 1041   8.143  11.056   0.459 -0.5612 -0.1528 -1.0154
  766MOL0     C 1042   8.042  11.110   0.360 -0.1579  0.5839  0.1171
  766MOL0     C 1043   8.094  11.212   0.268 -0.8090  0.1894  0.0365
  766MOL0     C 1044   8.139  11.287   0.179 -0.8878  0.6798  1.2853
  766MOL0     C 1045   8.180  10.835   0.929 -0.0635  0.4640  0.1905
  766MOL0     C 1046   8.228  10.777   1.050 -0.2113 -0.4170  0.9188
  766MOL0     H 1047   8.471  10.827   1.445 -0.3329  0.0380  1.2280
  766MOL0     H 1048   8.599  10.854   1.662  0.2766 -1.3502  0.8120
  766MOL0     H 1049   8.697  10.826   1.835 -0.1440  1.2180 -0.8832
  766MOL0     H 1050   8.834  10.908   1.771 -1.7011 -0.0054 -2.0661
  766MOL0     H 1051   8.866  10.881   2.008  1.7154  1.3738 -0.2722
  766MOL0     H 1052   8.984  10.761   1.938  0.4425 -1.4104  3.9299
  766MOL0     H 1053   8.780  10.609   1.954  0.8532  1.0128 -1.1185
  766MOL0     H 1054   8.710  10.728   2.055 -0.3432  1.1072 -1.4228
  766MOL0     H 1055   8.990  10.605   2.099  1.0328  2.2930  0.9802
  766MOL0     H 1056   8.935  10.731   2.192  2.8274 -1.9632  1.3374
  766MOL0     H 1057   8.809  10.448   2.204 -0.0239  0.3454  0.1318
  766MOL0     H 1058   8.738  10.601   2.270 -0.2312 -0.0690 -0.6796
  766MOL0     H 1059   8.951  10.612   2.440 -0.3716 -0.4049  0.6261
  766MOL0     H 1060   9.009  10.480   2.339  0.4414 -1.6777  2.5873
  766MOL0     H 1061   8.779  10.518   2.539 -0.9494  1.1593 -2.1695
  766MOL0     H 1062   8.772  10.388   2.415  0.1356  1.5921 -1.2957
  766MOL0     H 1063   8.996  10.430   2.616 -0.4551  2.1906 -0.9758
  766MOL0     H 1064   8.990  10.305   2.477 -1.3277 -0.3006 -0.5383
  766MOL0     H 1065   8.738  10.148   2.499 -1.5209  1.0132  0.2967
  766MOL0     H 1066   8.595   9.980   2.633 -0.0421  1.8437  0.0233
  766MOL0     H 1067   8.615   9.959   2.803  1.6798 -0.7841  1.1764
  766MOL0     H 1068   8.719   9.791   2.592  0.2217 -2.8492  1.3304
  766MOL0     H 1069   8.703   9.777   2.762  0.0277  0.6264 -0.0116
  766MOL0     H 1070   8.944   9.915   2.624  0.5193 -0.7146  0.1090
  766MOL0     H 1071   8.930   9.885   2.798 -0.9288 -0.9377  0.6057
  766MOL0     H 1072   8.906   9.638   2.770 -2.2609 -1.4520 -2.4252
  766MOL0     H 1073   9.058   9.692   2.685 -0.1093 -1.2698 -0.6571
  766MOL0     H 1074   8.833   9.444   2.415  3.8664 -0.1882 -2.1198
  766MOL0     H 1075   8.883   9.204   2.407  2.3718 -3.0016 -0.0280
  766MOL0     H 1076   9.156   8.963   2.230  2.4941 -0.6919 -0.7059
  766MOL0     H 1077   9.267   8.778   2.155 -1.9072 -3.0082 -2.4541
  766MOL0     H 1078   9.461   8.604   2.259 -0.1179 -0.1827  0.5215
  766MOL0     H 1079   9.379   8.549   2.109 -1.8470 -2.6266 -1.4679
  766MOL0     H 1080   9.403   8.335   2.150 -0.9260 -0.7070  1.1466
  766MOL0     H 1081   9.452   8.367   2.320 -0.3846 -1.1490 -0.6083
  766MOL0     H 1082   9.662   8.471   2.250  1.3806 -1.3737 -0.2803
  766MOL0     H 1083   9.619   8.448   2.078  3.0115  1.5427  0.9315
  766MOL0     H 1084   9.647   8.222   2.286  1.3861  0.7179 -0.1836
  766MOL0     H 1085   9.600   8.195   2.120  1.6646 -0.1275 -1.6400
  766MOL0     H 1086   9.867   8.340   2.198  0.8315 -0.3025 -0.5552
  766MOL0     H 1087   9.815   8.294   2.041 -1.7681  0.3331  0.9151
  766MOL0     H 1088   9.959   8.118   2.074 -1.0762  0.5919 -1.3347
  766MOL0     H 1089   9.805   8.051   2.124 -2.4607  2.1742 -0.6587
  766MOL0     H 1090   9.865   8.051   2.356 -0.2070 -0.0159 -2.1219
  766MOL0     H 1091   9.995   7.985   2.284 -2.4000 -2.0073 -1.1572
  766MOL0     H 1092  10.059   8.154   2.471 -0.9965 -1.8293  0.1426
  766MOL0     H 1093   9.962   8.274   2.384 -0.1954 -1.6155  2.5148
  766MOL0     H 1094   9.071   8.537   2.450 -2.1936 -1.6949 -5.0218
  766MOL0     H 1095   8.990   8.761   2.563  0.2086 -1.6404  0.8322
  766MOL0     H 1096   9.102   9.234   2.762  0.7717  2.4569 -0.0180
  766MOL0     H 1097   9.052   9.471   2.775  2.2381  0.7188 -0.8380
  766MOL0     H 1098   8.910  10.609   1.487 -0.3581 -1.7742  2.6052
  766MOL0     H 1099   8.793  10.598   1.279  0.2334  1.7285 -1.1154
  766MOL0     H 1100   8.542  10.907   1.040 -0.0675 -0.1610  2.3202
  766MOL0     H 1101   8.462  11.018   0.848  0.1862  0.7889  0.6765
  766MOL0     H 1102   8.353  11.029   0.618 -1.2276 -2.3825  0.0405
  766MOL0     H 1103   8.327  11.170   0.733 -0.2301 -2.2165  2.6571
  766MOL0     H 1104   8.100  11.187   0.621  1.0961 -1.9835  1.6388
  766MOL0     H 1105   8.248  11.233   0.514  2.9792 -3.0531 -4.1428
  766MOL0     H 1106   8.109  10.966   0.511  1.5017  0.2257  1.1832
  766MOL0     H 1107   8.228  11.011   0.408  2.0113  2.3539  0.7365
  766MOL0     H 1108   7.998  11.022   0.312  0.3676  0.0686  0.5736
  766MOL0     H 1109   7.960  11.158   0.414 -0.7299  0.1902 -0.3901
  766MOL0     H 1110   8.171  11.346   0.096 -0.8201 -4.4835 -2.8893
  766MOL0     H 1111   8.077  10.819   0.899 -0.4812  0.7584  1.3956
  766MOL0     H 1112   8.172  10.694   1.091 -1.8839  0.9104  1.4290
  767MOL0     O 1113   5.136   2.290   5.970 -0.0738 -0.1805  0.2352
  767MOL0     C 1114   5.176   2.176   5.991  0.6372  0.6395  0.7297
  767MOL0     O 1115   5.195   2.085   5.891  0.0696 -0.4003 -0.6814
  767MOL0     C 1116   5.133   2.104   5.773  0.1103  0.4378  0.5524
  767MOL0     C 1117   5.199   2.162   5.658  0.6709 -0.3508 -0.8935
  767MOL0     C 1118   5.128   2.160   5.531  0.0133 -0.1806 -0.8932
  767MOL0     C 1119   5.003   2.097   5.510 -0.3666 -0.5647 -0.0176
  767MOL0     O 1120   4.932   2.074   5.392  0.2952 -0.0271 -0.1134
  767MOL0     C 1121   4.997   2.105   5.262  0.1894  0.2041 -0.2565
  767MOL0     C 1122   4.892   2.180   5.176 -0.8518 -0.3853  0.3808
  767MOL0     C 1123   4.927   2.174   5.021 -0.3216  0.5280 -0.3445
  767MOL0     C 1124   4.865   2.290   4.937 -0.8757  0.3463 -0.4474
  767MOL0     C 1125   4.904   2.273   4.792 -0.2637  0.3337 -0.0531
  767MOL0     C 1126   4.839   2.391   4.702  0.3682  0.0852 -0.2475
  767MOL0     C 1127   4.891   2.371   4.550  0.2180 -0.0518 -0.4757
  767MOL0     C 1128   4.997   2.474   4.527  0.1551 -0.0396 -0.0834
  767MOL0     N 1129   5.042   2.480   4.389  0.4150  0.5885 -0.1063
  767MOL0     C 1130   5.126   2.379   4.338 -0.0876 -0.4338 -0.0348
  767MOL0     C 1131   5.104   2.376   4.205 -0.7346  1.3511 -0.4913
  767MOL0     C 1132   5.195   2.302   4.117  0.7797  0.3545  0.3352
  767MOL0     C 1133   5.228   2.164   4.154 -0.5110 -0.7932  0.4468
  767MOL0     C 1134   5.337   2.145   4.252 -0.4436 -0.5239  0.1190
  767MOL0     C 1135   5.323   2.021   4.333  0.4533 -0.7748  0.3984
  767MOL0     O 1136   5.230   2.023   4.438 -0.7479 -0.3191 -0.3663
  767MOL0     C 1137   5.217   1.910   4.515  0.1941 -0.0409  0.1884
  767MOL0     C 1138   5.314   1.805   4.505  0.0742  0.3149  1.4811
  767MOL0     C 1139   5.286   1.681   4.569 -1.3986 -0.4319  0.2726
  767MOL0     C 1140   5.175   1.673   4.665 -0.2856  0.5374 -0.5611
  767MOL0     C 1141   5.138   1.538   4.714  0.0436 -0.1141 -0.2731
  767MOL0     O 1142   5.061   1.552   4.828 -0.3451  0.8291 -0.1118
  767MOL0     C 1143   5.026   1.440   4.897  0.2707  0.3321 -0.5412
  767MOL0     C 1144   5.000   1.463   5.035 -0.4612  0.2301 -0.9429
  767MOL0     C 1145   4.945   1.367   5.120 -0.2776 -0.7477 -0.7552
  767MOL0     C 1146   4.912   1.238   5.070  0.2090 -0.4316  0.1399
  767MOL0     O 1147   4.868   1.154   5.164  0.2355 -0.1349  0.2669
  767MOL0     C 1148   4.751   1.070   5.132 -0.7895 -0.7438 -0.0287
  767MOL0     C 1149   4.626   1.138   5.157  0.7256  0.0548 -0.3093
  767MOL0     C 1150   4.520   1.035   5.133 -0.1063 -0.0427 -0.7992
  767MOL0     C 1151   4.388   1.081   5.194  0.0637 -0.8606  0.2786
  767MOL0     C 1152   4.280   0.983   5.194 -0.2397  0.2226  0.2483
  767MOL0     C 1153   4.281   0.882   5.307  1.7913  0.0444  0.2963
  767MOL0     C 1154   4.232   0.937   5.439  0.0692  1.8084  0.4287
  767MOL0     C 1155   4.196   0.822   5.523  0.2578 -1.2444  0.0070
  767MOL0    Cl 1156   4.075   0.876   5.629 -0.0940 -0.0654  0.1827
  767MOL0     C 1157   4.948   1.210   4.936 -0.2752  0.0703  0.0588
  767MOL0     C 1158   4.999   1.310   4.846 -0.2060 -0.9522 -0.0184
  767MOL0     O 1159   5.181   1.442   4.662  0.0936  0.2649  0.0041
  767MOL0     C 1160   5.088   1.783   4.678  0.5240  1.4860  0.7082
  767MOL0     C 1161   5.111   1.903   4.615 -0.8222  0.1373  0.3331
  767MOL0     N 1162   4.996   2.456   4.176  0.0185  0.6773 -0.9146
  767MOL0     N 1163   4.960   2.521   4.280 -0.3276  0.0232 -0.9709
  767MOL0     C 1164   4.942   2.040   5.627 -0.8570 -1.2404 -0.8153
  767MOL0     C 1165   5.004   2.046   5.756  0.0689 -0.1352  0.6477
  767MOL0     C 1166   5.214   2.136   6.126  0.4018 -0.1538 -1.0413
  767MOL0     C 1167   5.231   2.003   6.146  0.5764 -0.4882  0.6693
  767MOL0     C 1168   5.262   1.957   6.275 -0.5444 -0.2147 -1.5154
  767MOL0     C 1169   5.267   2.050   6.377  0.0746 -0.2317 -0.2987
  767MOL0     O 1170   5.291   2.015   6.506 -0.1523  0.0976 -0.0847
  767MOL0     C 1171   5.293   1.874   6.532  0.3061 -0.5954 -0.9970
  767MOL0     C 1172   5.322   1.876   6.679  1.1092 -0.3078  0.4926
  767MOL0     C 1173   5.211   1.942   6.770  0.6820  0.4705 -1.1695
  767MOL0     C 1174   5.069   1.887   6.754  0.4771 -0.2327 -0.4661
  767MOL0     C 1175   5.072   1.731   6.752 -0.5018 -0.1024 -0.0758
  767MOL0     C 1176   5.057   1.610   6.762 -0.6179  0.3829 -0.2385
  767MOL0     C 1177   5.265   2.184   6.359  0.8958 -0.0308 -0.3222
  767MOL0     C 1178   5.231   2.235   6.228  0.2074  0.2886 -1.2293
  767MOL0     H 1179   5.297   2.210   5.657  2.5039 -3.6705  1.4965
  767MOL0     H 1180   5.175   2.201   5.442 -2.9512  1.8480 -1.6852
  767MOL0     H 1181   5.029   2.011   5.215  0.0097 -0.8201  1.5912
  767MOL0     H 1182   5.089   2.165   5.261  0.3039  0.2251  3.0680
  767MOL0     H 1183   4.891   2.284   5.211  2.4299  1.7358 -4.6409
  767MOL0     H 1184   4.806   2.115   5.189  2.6231 -4.9696  3.5019
  767MOL0     H 1185   4.889   2.083   4.972 -0.1507  1.3301 -2.0420
  767MOL0     H 1186   5.034   2.184   5.002  0.2251 -3.3713 -0.1844
  767MOL0     H 1187   4.756   2.291   4.940 -0.8786  2.2217 -0.3070
  767MOL0     H 1188   4.895   2.389   4.973 -3.5322  1.3961 -0.9285
  767MOL0     H 1189   4.863   2.182   4.749 -0.5715  0.4654 -0.0395
  767MOL0     H 1190   5.013   2.260   4.786 -0.5191 -4.5283  1.4779
  767MOL0     H 1191   4.878   2.484   4.745  0.1860 -1.2139  2.9882
  767MOL0     H 1192   4.731   2.395   4.712  0.4139  1.2797 -0.0797
  767MOL0     H 1193   4.928   2.270   4.529  4.7509  0.1180  4.4144
  767MOL0     H 1194   4.805   2.385   4.484 -1.5207 -1.9532  1.2330
  767MOL0     H 1195   5.086   2.446   4.585 -0.9388 -2.6133  0.4685
  767MOL0     H 1196   4.961   2.572   4.561  1.8928  0.8654 -0.7212
  767MOL0     H 1197   5.209   2.326   4.384 -0.3242 -1.5786 -0.8857
  767MOL0     H 1198   5.282   2.366   4.102  0.1931  1.5421  1.7350
  767MOL0     H 1199   5.139   2.295   4.023 -0.0463 -0.5827  0.8794
  767MOL0     H 1200   5.259   2.105   4.068 -1.9525 -0.4216 -0.3612
  767MOL0     H 1201   5.132   2.123   4.188 -1.4871 -3.0420 -4.2235
  767MOL0     H 1202   5.422   2.147   4.183 -0.4771  3.1447 -0.0475
  767MOL0     H 1203   5.360   2.229   4.320  0.1597  0.5449 -1.3488
  767MOL0     H 1204   5.421   1.992   4.372  1.3992  2.1545  0.3949
  767MOL0     H 1205   5.294   1.941   4.264 -0.4706  0.8737 -1.1935
  767MOL0     H 1206   5.401   1.802   4.440  1.9283 -1.8283  3.8772
  767MOL0     H 1207   5.350   1.596   4.549  0.3107  0.3519  2.0402
  767MOL0     H 1208   5.026   1.563   5.069 -2.7498  0.0636  1.6382
  767MOL0     H 1209   4.932   1.392   5.225 -5.6552 -1.9103 -0.8184
  767MOL0     H 1210   4.766   0.994   5.210 -0.0086 -2.3059 -1.6393
  767MOL0     H 1211   4.759   1.013   5.039  2.5923 -3.3924  1.6277
  767MOL0     H 1212   4.608   1.222   5.089  0.8114  2.4781  2.4457
  767MOL0     H 1213   4.620   1.177   5.259 -3.3749 -1.2593  0.1226
  767MOL0     H 1214   4.540   0.943   5.187 -0.3577  0.8352  0.8602
  767MOL0     H 1215   4.508   1.010   5.027  1.0375 -1.0007 -0.7202
  767MOL0     H 1216   4.403   1.134   5.288 -0.3615  1.7942 -1.0520
  767MOL0     H 1217   4.351   1.169   5.141  0.3495  0.1933  1.7597
  767MOL0     H 1218   4.290   0.921   5.105  3.4214 -1.5320  1.6637
  767MOL0     H 1219   4.183   1.033   5.202 -0.6079 -0.2528 -1.0151
  767MOL0     H 1220   4.381   0.838   5.316  1.3881 -1.0427 -0.4004
  767MOL0     H 1221   4.212   0.804   5.274  0.4753  0.3715  2.0938
  767MOL0     H 1222   4.301   1.006   5.488 -0.5893  1.1430  2.3662
  767MOL0     H 1223   4.138   0.992   5.423 -2.7357 -2.8994 -1.2277
  767MOL0     H 1224   4.279   0.786   5.585  0.8758 -0.4472 -0.3371
  767MOL0     H 1225   4.152   0.740   5.466 -3.6069  0.5743  0.0584
  767MOL0     H 1226   4.936   1.107   4.905  2.8868 -1.1521  2.3973
  767MOL0     H 1227   5.016   1.293   4.740  3.5022  0.3926  0.2236
  767MOL0     H 1228   4.985   1.777   4.711 -0.6361 -2.3916 -2.8145
  767MOL0     H 1229   5.042   1.986   4.611  0.9573  1.8562  2.4628
  767MOL0     H 1230   4.851   1.981   5.616 -0.4599 -1.9359 -0.4474
  767MOL0     H 1231   4.956   2.000   5.842 -0.0083 -0.3000  0.5174
  767MOL0     H 1232   5.246   1.942   6.057 -2.3273 -1.3950  0.6812
  767MOL0     H 1233   5.260   1.850   6.288 -4.5382 -0.0708  0.7576
  767MOL0     H 1234   5.380   1.821   6.492  2.8217  0.7970  2.2355
  767MOL0     H 1235   5.202   1.815   6.515 -0.2343 -0.9426  2.4406
  767MOL0     H 1236   5.334   1.774   6.717 -1.3331 -0.0336  2.3285
  767MOL0     H 1237   5.412   1.936   6.693  1.8576 -1.4016  0.4812
  767MOL0     H 1238   5.195   2.051   6.774 -1.6538  0.2170 -1.8192
  767MOL0     H 1239   5.236   1.912   6.872 -3.2661 -0.6138 -0.3351
  767MOL0     H 1240   5.006   1.925   6.834 -0.4322 -3.0428  0.2556
  767MOL0     H 1241   5.013   1.917   6.665  1.9048  0.2943 -1.2187
  767MOL0     H 1242   5.065   1.503   6.762 -2.3119  0.2196  0.9375
  767MOL0     H 1243   5.294   2.256   6.435  0.3245  0.6949 -0.7648
  767MOL0     H 1244   5.217   2.341   6.211  1.3445  0.7864  0.5931
  768MOL0     O 1245   1.028   2.001   6.117 -0.7544  0.5960  0.3803
  768MOL0     C 1246   1.140   1.975   6.069 -0.2102 -0.4627  0.2646
  768MOL0     O 1247   1.165   1.966   5.933 -0.0800  0.3832  0.0764
  768MOL0     C 1248   1.070   2.010   5.836  0.1501 -0.0564 -0.2735
  768MOL0     C 1249   0.974   1.921   5.802 -0.3062 -0.5537 -0.3431
  768MOL0     C 1250   0.861   1.961   5.716  0.3652 -0.2046 -0.8353
  768MOL0     C 1251   0.855   2.091   5.653 -0.5059  0.1244 -0.8459
  768MOL0     O 1252   0.747   2.126   5.570 -0.1520  0.1340 -0.5109
  768MOL0     C 1253   0.727   2.268   5.564  0.2440 -0.1906  0.4422
  768MOL0     C 1254   0.598   2.277   5.487  0.3156 -0.5551  0.3702
  768MOL0     C 1255   0.485   2.227   5.566  0.3963 -0.8243 -0.3200
  768MOL0     C 1256   0.392   2.139   5.476 -0.0811 -0.3407  0.1665
  768MOL0     C 1257   0.312   2.043   5.561 -0.8283 -0.4415 -0.1476
  768MOL0     C 1258   0.233   2.115   5.670  0.3091 -0.7862 -0.3762
  768MOL0     C 1259   0.114   2.208   5.622  0.3030  0.2835  0.4394
  768MOL0     C 1260   0.034   2.269   5.733  1.0505 -0.3457  0.7413
  768MOL0     N 1261   0.115   2.365   5.808 -0.8352 -0.4653 -0.0430
  768MOL0     C 1262   0.120   2.505   5.791 -0.1302  1.1895 -0.4144
  768MOL0     C 1263   0.199   2.556   5.885 -0.1504 -0.0884 -0.6598
  768MOL0     C 1264   0.229   2.701   5.903 -0.3416 -0.0976 -0.4576
  768MOL0     C 1265   0.382   2.725   5.885  0.0343  0.1852  0.0680
  768MOL0     C 1266   0.421   2.697   5.753  0.4563 -0.1798 -0.2814
  768MOL0     C 1267   0.403   2.807   5.646 -0.1834  0.7294 -0.3576
  768MOL0     O 1268   0.494   2.912   5.663 -0.7550 -0.0676 -0.3100
  768MOL0     C 1269   0.628   2.891   5.626 -0.2892  0.5773  0.4629
  768MOL0     C 1270   0.724   2.973   5.697 -0.3335  0.3658 -0.9791
  768MOL0     C 1271   0.859   2.946   5.691 -0.3714 -0.1677  0.5103
  768MOL0     C 1272   0.919   2.840   5.616  1.3966 -0.5144 -0.2986
  768MOL0     C 1273   1.063   2.820   5.615 -0.1777 -0.6107 -1.6283
  768MOL0     O 1274   1.135   2.926   5.645  0.6025  0.1738 -0.6069
  768MOL0     C 1275   1.264   2.930   5.626 -0.6896 -0.3533  0.0685
  768MOL0     C 1276   1.339   2.970   5.739 -0.6118  1.2537  0.3376
  768MOL0     C 1277   1.481   2.981   5.726  0.8257 -0.5030  0.0553
  768MOL0     C 1278   1.550   2.941   5.608  0.3132  0.3107 -0.8740
  768MOL0     O 1279   1.689   2.945   5.606 -0.4873 -0.9642  0.3941
  768MOL0     C 1280   1.732   3.030   5.500 -0.4408 -0.1411  0.6277
  768MOL0     C 1281   1.881   3.054   5.510  0.0131  0.0884 -1.0216
  768MOL0     C 1282   1.917   3.163   5.614 -0.3369 -0.2572 -0.0570
  768MOL0     C 1283   2.069   3.159   5.640 -0.1099 -0.8039 -0.2047
  768MOL0     C 1284   2.123   3.244   5.754  0.4251  1.0917  0.5793
  768MOL0     C 1285   2.254   3.190   5.798 -0.7554 -0.1649  0.9684
  768MOL0     C 1286   2.307   3.231   5.933 -0.2659  0.2247 -0.2937
  768MOL0     C 1287   2.400   3.118   5.976 -0.0183  1.0746  0.4883
  768MOL0    Cl 1288   2.515   3.070   5.841 -0.0356 -0.0419  0.1480
  768MOL0     C 1289   1.477   2.892   5.506  0.0837  0.2296 -0.4934
  768MOL0     C 1290   1.338   2.899   5.510  0.5591 -0.5709 -0.2113
  768MOL0     O 1291   1.107   2.711   5.579  0.2410  0.2486 -0.3845
  768MOL0     C 1292   0.826   2.773   5.534 -0.7664  0.4063 -0.5957
  768MOL0     C 1293   0.683   2.800   5.537 -0.2948  1.1539 -0.5155
  768MOL0     N 1294   0.241   2.452   5.973  0.3342 -0.4533  0.2734
  768MOL0     N 1295   0.184   2.351   5.923  0.0239  0.8397 -0.1590
  768MOL0     C 1296   0.956   2.178   5.691 -0.2807 -0.1863 -0.4394
  768MOL0     C 1297   1.061   2.143   5.781  0.6013 -0.1798  1.6821
  768MOL0     C 1298   1.254   1.953   6.166  0.5664 -0.2615  0.3763
  768MOL0     C 1299   1.232   1.975   6.300 -0.1022  0.2563 -0.6597
  768MOL0     C 1300   1.323   1.924   6.397  0.1544  0.0670 -0.3077
  768MOL0     C 1301   1.440   1.862   6.361  0.4322 -1.0358 -0.4643
  768MOL0     O 1302   1.532   1.827   6.459  0.3406  0.5097 -0.6675
  768MOL0     C 1303   1.517   1.831   6.599  0.5405  0.3442 -0.6987
  768MOL0     C 1304   1.460   1.698   6.659 -0.3996  0.3910 -0.1110
  768MOL0     C 1305   1.556   1.574   6.624  0.7700  0.5353  0.3878
  768MOL0     C 1306   1.647   1.513   6.745  0.8415  0.1111  0.3042
  768MOL0     C 1307   1.736   1.612   6.806 -0.3238  0.7553  0.3917
  768MOL0     C 1308   1.799   1.699   6.852  0.2550 -0.2099  0.3381
  768MOL0     C 1309   1.469   1.850   6.223 -0.6270  0.6570 -0.1369
  768MOL0     C 1310   1.382   1.909   6.126  0.6732  0.5890 -0.6134
  768MOL0     H 1311   0.971   1.822   5.845 -4.0415 -0.1978  0.5592
  768MOL0     H 1312   0.784   1.890   5.688 -0.6910  1.0625 -1.2241
  768MOL0     H 1313   0.813   2.308   5.510  0.0823  1.0630  1.0800
  768MOL0     H 1314   0.716   2.320   5.660 -1.8657 -0.5104  0.4249
  768MOL0     H 1315   0.611   2.220   5.394  1.9486  0.4097 -0.0486
  768MOL0     H 1316   0.583   2.382   5.460 -1.6324 -1.1398 -1.0509
  768MOL0     H 1317   0.427   2.313   5.601 -0.2960 -0.8881 -1.2687
  768MOL0     H 1318   0.523   2.168   5.650 -0.8580  0.3342  1.1359
  768MOL0     H 1319   0.332   2.208   5.415 -1.4414 -1.1787  0.5216
  768MOL0     H 1320   0.458   2.073   5.419 -0.3495 -0.9695  0.5770
  768MOL0     H 1321   0.371   1.966   5.610  3.9954  2.3409 -0.9717
  768MOL0     H 1322   0.241   1.983   5.504 -1.9938  0.1872  0.5903
  768MOL0     H 1323   0.302   2.169   5.736  1.0721 -2.9117  0.6635
  768MOL0     H 1324   0.188   2.040   5.735 -1.0738  0.7409  0.5112
  768MOL0     H 1325   0.134   2.282   5.544 -2.2803 -1.8272 -2.5193
  768MOL0     H 1326   0.052   2.133   5.572 -1.2857  1.9029 -0.1303
  768MOL0     H 1327  -0.020   2.195   5.793 -1.5540 -1.5716 -2.7655
  768MOL0     H 1328  -0.052   2.318   5.685 -1.1944 -1.5668  3.2562
  768MOL0     H 1329   0.095   2.559   5.701 -1.8384  2.3605  0.7038
  768MOL0     H 1330   0.198   2.715   6.007  1.6140  2.2457 -0.0954
  768MOL0     H 1331   0.164   2.768   5.847 -0.7585  1.2587  1.5282
  768MOL0     H 1332   0.431   2.659   5.957 -1.1444 -0.5354  0.2329
  768MOL0     H 1333   0.400   2.829   5.916 -1.2375  0.5453 -0.3692
  768MOL0     H 1334   0.526   2.668   5.746  0.9311  1.4442 -0.4012
  768MOL0     H 1335   0.373   2.605   5.718 -0.4291  0.2589 -0.2603
  768MOL0     H 1336   0.302   2.839   5.673 -1.4942 -2.4980 -0.8824
  768MOL0     H 1337   0.391   2.761   5.548  0.2283  1.5703 -0.8089
  768MOL0     H 1338   0.692   3.064   5.747 -1.1591  0.4739 -1.6913
  768MOL0     H 1339   0.927   3.012   5.742 -2.9299  2.4897  0.7454
  768MOL0     H 1340   1.269   3.007   5.813 -2.2668  1.7340 -1.3787
  768MOL0     H 1341   1.531   3.022   5.814  0.6862 -2.8635  1.3064
  768MOL0     H 1342   1.671   3.120   5.506 -2.5543 -1.5817  3.0417
  768MOL0     H 1343   1.719   2.977   5.405 -0.1227  1.2007 -0.1857
  768MOL0     H 1344   1.930   3.068   5.413  2.1827  0.3493  0.0679
  768MOL0     H 1345   1.937   2.964   5.536 -0.1904  0.7642  2.1176
  768MOL0     H 1346   1.868   3.148   5.710  2.8509  2.8143  2.2961
  768MOL0     H 1347   1.887   3.255   5.562 -0.9607 -2.0837 -3.1772
  768MOL0     H 1348   2.096   3.055   5.663 -2.3195 -1.0998  1.3413
  768MOL0     H 1349   2.118   3.200   5.552 -2.6441  0.5528 -1.0867
  768MOL0     H 1350   2.055   3.236   5.839  0.9184  3.3749  1.2686
  768MOL0     H 1351   2.140   3.351   5.739  2.6426  0.7353  0.0732
  768MOL0     H 1352   2.330   3.229   5.730  1.2590  0.1630  3.2738
  768MOL0     H 1353   2.255   3.081   5.791 -1.4617 -0.0842 -1.0754
  768MOL0     H 1354   2.367   3.323   5.930  2.4231 -1.3577  1.4915
  768MOL0     H 1355   2.232   3.234   6.013  1.8086  0.8682  1.7252
  768MOL0     H 1356   2.357   3.026   6.016  4.2117 -0.4758  2.0561
  768MOL0     H 1357   2.464   3.152   6.058  0.8148  0.1511  0.2474
  768MOL0     H 1358   1.536   2.865   5.419  4.7226  2.4340  1.6122
  768MOL0     H 1359   1.277   2.854   5.432 -0.7628 -3.7992  2.4491
  768MOL0     H 1360   0.872   2.700   5.469  1.7459  3.2453 -2.2839
  768MOL0     H 1361   0.615   2.723   5.502 -1.0081 -0.2434  3.4422
  768MOL0     H 1362   0.956   2.279   5.650 -1.1312 -0.7566 -1.9207
  768MOL0     H 1363   1.138   2.214   5.809 -0.3253  2.2558 -1.3427
  768MOL0     H 1364   1.142   2.028   6.329 -0.1521  0.3570 -0.9966
  768MOL0     H 1365   1.300   1.949   6.500  2.0470  3.7488 -0.6184
  768MOL0     H 1366   1.472   1.925   6.633 -0.4815  0.9754 -3.4702
  768MOL0     H 1367   1.620   1.839   6.635 -0.2285  2.4172  1.3238
  768MOL0     H 1368   1.441   1.712   6.765 -0.0541  2.5888 -0.3118
  768MOL0     H 1369   1.367   1.680   6.604  0.0254 -0.1385 -0.6824
  768MOL0     H 1370   1.617   1.607   6.539  0.3094  0.9852  0.2248
  768MOL0     H 1371   1.487   1.501   6.582 -0.9801  1.1721  1.9964
  768MOL0     H 1372   1.577   1.474   6.819 -1.3897 -0.9525 -2.1546
  768MOL0     H 1373   1.700   1.425   6.707 -0.3878 -2.4391  4.0272
  768MOL0     H 1374   1.868   1.770   6.891 -3.8056  5.4922 -1.4220
  768MOL0     H 1375   1.563   1.805   6.192 -0.2386  1.5915 -0.3470
  768MOL0     H 1376   1.392   1.902   6.018  0.7936  2.8470 -0.8060
  769MOL0     O 1377   4.862   6.233   8.846 -0.8811 -0.5186 -0.5842
  769MOL0     C 1378   4.925   6.296   8.766 -0.2987 -0.6721  0.5432
  769MOL0     O 1379   5.061   6.280   8.731  0.6409  0.1959  0.5044
  769MOL0     C 1380   5.134   6.185   8.794 -0.2049 -0.0258 -0.3536
  769MOL0     C 1381   5.108   6.119   8.921 -0.8442 -0.0522 -0.4732
  769MOL0     C 1382   5.195   6.021   8.970 -0.1009  1.1386 -0.6864
  769MOL0     C 1383   5.312   5.986   8.902  0.1001  0.0683  0.4143
  769MOL0     O 1384   5.391   5.887   8.938 -0.3869  0.2270  0.2512
  769MOL0     C 1385   5.458   5.898   9.063 -0.3656  0.1423  0.2305
  769MOL0     C 1386   5.541   5.765   9.103  0.8013  1.0174 -0.4337
  769MOL0     C 1387   5.666   5.784   9.195 -0.2542  0.1769 -1.1726
  769MOL0     C 1388   5.793   5.848   9.120  1.0117  1.2745  0.3941
  769MOL0     C 1389   5.905   5.901   9.208  0.6247 -0.3069  0.2152
  769MOL0     C 1390   5.951   5.793   9.305 -0.7132  0.0614 -0.7256
  769MOL0     C 1391   6.092   5.841   9.349  0.6294 -0.3282  0.1746
  769MOL0     C 1392   6.204   5.813   9.255  0.4536  0.3950 -0.2308
  769MOL0     N 1393   6.244   5.670   9.235  0.3153  0.4452  0.0682
  769MOL0     C 1394   6.364   5.628   9.286 -0.4952 -0.4589 -1.0381
  769MOL0     C 1395   6.378   5.502   9.231  0.1374 -0.7388  0.1268
  769MOL0     C 1396   6.502   5.419   9.241  0.2453  1.0132  1.2588
  769MOL0     C 1397   6.628   5.469   9.163 -0.8250  0.2849  1.5516
  769MOL0     C 1398   6.747   5.441   9.254 -0.2237 -0.4737 -0.4833
  769MOL0     C 1399   6.874   5.495   9.192  0.4082 -0.6214 -0.5853
  769MOL0     O 1400   6.859   5.637   9.177  0.5232 -1.2338  0.2428
  769MOL0     C 1401   6.958   5.704   9.106 -0.1123  0.2984 -0.2453
  769MOL0     C 1402   6.920   5.763   8.981 -1.1104  0.0767  0.6214
  769MOL0     C 1403   7.016   5.837   8.908  0.7725  0.1686 -0.4472
  769MOL0     C 1404   7.152   5.814   8.938 -0.4701 -0.4037  1.0685
  769MOL0     C 1405   7.259   5.881   8.861 -0.5492 -1.0712  0.1848
  769MOL0     O 1406   7.215   5.989   8.800  1.0247 -0.0505 -0.4051
  769MOL0     C 1407   7.272   6.041   8.691 -0.0757 -0.5550  0.8681
  769MOL0     C 1408   7.360   5.979   8.600 -0.2107  0.4781 -0.5184
  769MOL0     C 1409   7.425   6.040   8.491  1.1598  0.8584 -0.2561
  769MOL0     C 1410   7.397   6.177   8.457 -0.0249 -0.8927 -1.5038
  769MOL0     O 1411   7.452   6.259   8.358  0.0990  0.6583  0.4379
  769MOL0     C 1412   7.588   6.221   8.323 -0.4154 -0.3863 -0.6846
  769MOL0     C 1413   7.619   6.286   8.186 -0.3693 -0.3117 -0.1785
  769MOL0     C 1414   7.606   6.433   8.182  0.1138  0.8992  0.3964
  769MOL0     C 1415   7.712   6.494   8.281 -0.5019  0.8351 -0.1582
  769MOL0     C 1416   7.728   6.648   8.274 -0.2464  0.4750  0.1105
  769MOL0     C 1417   7.598   6.705   8.325  0.1641 -0.2075 -0.0428
  769MOL0     C 1418   7.601   6.857   8.320 -0.2554 -0.2639  0.8855
  769MOL0     C 1419   7.472   6.911   8.362  0.0244 -0.6743  0.1874
  769MOL0    Cl 1420   7.444   6.882   8.526 -0.1825  0.0770  0.4682
  769MOL0     C 1421   7.305   6.233   8.546 -0.1152  0.0391 -0.1389
  769MOL0     C 1422   7.253   6.171   8.662 -0.9037  0.0275 -0.2985
  769MOL0     O 1423   7.379   5.845   8.870 -0.2114  0.4656  0.6408
  769MOL0     C 1424   7.192   5.743   9.049 -0.9250  0.4670 -0.5869
  769MOL0     C 1425   7.096   5.696   9.137 -0.7556  0.1262  0.8631
  769MOL0     N 1426   6.270   5.487   9.151 -0.6413 -0.2201  0.6321
  769MOL0     N 1427   6.190   5.589   9.140  0.0444 -0.4481 -0.3535
  769MOL0     C 1428   5.337   6.046   8.777  0.0688  0.1624  0.2450
  769MOL0     C 1429   5.257   6.158   8.728  1.0602  0.5570  0.0622
  769MOL0     C 1430   4.835   6.388   8.687  0.1756 -0.3981  0.8021
  769MOL0     C 1431   4.700   6.418   8.727 -1.3540 -1.1944 -0.2220
  769MOL0     C 1432   4.621   6.497   8.642 -0.5972  0.3255  1.3164
  769MOL0     C 1433   4.673   6.568   8.538  0.2213 -0.2992  1.7066
  769MOL0     O 1434   4.602   6.659   8.457  0.1999  0.3817  0.1459
  769MOL0     C 1435   4.455   6.667   8.462 -0.5345  0.6626 -0.5208
  769MOL0     C 1436   4.392   6.729   8.336  0.5461  0.2446 -0.1997
  769MOL0     C 1437   4.429   6.878   8.329  0.5367 -0.4874  0.6616
  769MOL0     C 1438   4.315   6.965   8.291  0.0464  0.3616 -0.3642
  769MOL0     C 1439   4.206   6.969   8.395 -0.5001 -0.3244  0.9433
  769MOL0     C 1440   4.128   6.977   8.483 -0.0494 -0.5055  0.2946
  769MOL0     C 1441   4.803   6.560   8.515 -0.0966  0.7021  0.8268
  769MOL0     C 1442   4.883   6.468   8.582  0.0841 -0.8869  0.3523
  769MOL0     H 1443   5.027   6.137   8.991 -1.4122 -2.4455 -0.4304
  769MOL0     H 1444   5.175   5.972   9.065 -2.9997  0.5835 -1.5049
  769MOL0     H 1445   5.386   5.928   9.140  1.6214 -1.8395  3.0675
  769MOL0     H 1446   5.534   5.976   9.053 -1.4067  1.2979  1.0681
  769MOL0     H 1447   5.566   5.711   9.011 -2.4160 -0.0661 -0.7914
  769MOL0     H 1448   5.472   5.701   9.159  0.0168  1.3504 -0.9952
  769MOL0     H 1449   5.686   5.684   9.234  3.2693  1.3034  0.3285
  769MOL0     H 1450   5.641   5.846   9.282 -0.6148 -2.4792  0.7491
  769MOL0     H 1451   5.838   5.767   9.063  2.3287  2.4730 -0.3394
  769MOL0     H 1452   5.762   5.926   9.050 -3.4382  0.8877  1.6561
  769MOL0     H 1453   5.854   5.987   9.253  3.2327  1.2625  0.3853
  769MOL0     H 1454   5.992   5.937   9.151  0.4828  2.2698  1.5082
  769MOL0     H 1455   5.950   5.689   9.274 -5.0854 -0.4120  0.3522
  769MOL0     H 1456   5.888   5.794   9.395  1.4173  1.9448  0.8738
  769MOL0     H 1457   6.093   5.948   9.373  1.7412 -0.4723  0.8546
  769MOL0     H 1458   6.125   5.794   9.442  1.4849 -0.2665 -0.0824
  769MOL0     H 1459   6.297   5.868   9.273 -0.0306  1.0345  0.3716
  769MOL0     H 1460   6.173   5.855   9.159 -0.1690 -0.4229 -0.3994
  769MOL0     H 1461   6.422   5.687   9.357 -2.1715 -0.7554  0.6613
  769MOL0     H 1462   6.475   5.318   9.209  0.5603  0.6798  2.0028
  769MOL0     H 1463   6.521   5.398   9.347  2.8383 -0.4990  0.5755
  769MOL0     H 1464   6.620   5.568   9.116 -1.1527 -1.8542 -3.5261
  769MOL0     H 1465   6.646   5.410   9.073  2.7384  2.7635  0.3698
  769MOL0     H 1466   6.724   5.484   9.352  0.1740 -0.9331 -0.1858
  769MOL0     H 1467   6.769   5.335   9.269 -2.4962 -1.1845 -1.5757
  769MOL0     H 1468   6.895   5.439   9.101 -5.0013  1.3687 -3.5022
  769MOL0     H 1469   6.959   5.490   9.261  1.3959  0.4542 -1.6857
  769MOL0     H 1470   6.813   5.762   8.961 -0.8399  1.5992 -1.1242
  769MOL0     H 1471   6.977   5.897   8.826 -3.1014 -2.0705 -0.5262
  769MOL0     H 1472   7.374   5.872   8.614 -4.3984 -0.4455 -1.9665
  769MOL0     H 1473   7.495   5.981   8.433 -1.3074 -2.1742 -0.3947
  769MOL0     H 1474   7.594   6.114   8.303 -1.3180 -0.4741 -0.5216
  769MOL0     H 1475   7.658   6.250   8.402 -0.2293 -1.7130 -0.3372
  769MOL0     H 1476   7.537   6.242   8.127 -3.7499  0.8791  3.1864
  769MOL0     H 1477   7.714   6.252   8.144 -1.2427  0.2113 -2.7868
  769MOL0     H 1478   7.507   6.475   8.199 -1.6461 -1.7888 -2.3988
  769MOL0     H 1479   7.635   6.470   8.083  3.3947  1.1900  1.3164
  769MOL0     H 1480   7.682   6.460   8.381 -3.7172 -1.3983 -1.7357
  769MOL0     H 1481   7.813   6.460   8.254 -1.4762 -0.2360 -2.7987
  769MOL0     H 1482   7.733   6.678   8.169  1.5198 -2.7393 -0.8553
  769MOL0     H 1483   7.811   6.700   8.324  0.8333  1.7137 -2.7810
  769MOL0     H 1484   7.592   6.671   8.429  2.8516 -2.3548 -0.4633
  769MOL0     H 1485   7.510   6.669   8.271  1.8854 -0.8648 -2.6136
  769MOL0     H 1486   7.678   6.895   8.388  0.4262 -0.0019 -0.0151
  769MOL0     H 1487   7.641   6.885   8.222  0.2417 -1.1739  0.8184
  769MOL0     H 1488   7.386   6.874   8.305  1.5675 -2.3427 -1.2354
  769MOL0     H 1489   7.488   7.019   8.355  0.8548 -0.7195  1.1186
  769MOL0     H 1490   7.283   6.336   8.519 -1.6603  0.0349  0.9910
  769MOL0     H 1491   7.220   6.231   8.745  4.0427  2.4112  0.3048
  769MOL0     H 1492   7.296   5.746   9.082 -0.9508  2.5274 -0.5539
  769MOL0     H 1493   7.138   5.652   9.227  1.6057 -0.7674 -0.5791
  769MOL0     H 1494   5.421   6.000   8.727  0.6378  1.8219 -0.3682
  769MOL0     H 1495   5.274   6.204   8.632  2.0445 -0.6376 -0.3590
  769MOL0     H 1496   4.671   6.364   8.817  0.5308 -0.9571  0.5687
  769MOL0     H 1497   4.515   6.503   8.664 -1.5743 -2.9547 -1.5841
  769MOL0     H 1498   4.427   6.720   8.554 -0.5735  2.5122 -1.5490
  769MOL0     H 1499   4.413   6.567   8.472  4.3667 -1.5477  0.6881
  769MOL0     H 1500   4.429   6.677   8.248 -0.1373 -0.0299 -0.3317
  769MOL0     H 1501   4.285   6.706   8.338  0.2868  1.1104 -2.3070
  769MOL0     H 1502   4.511   6.893   8.259 -2.2808 -0.3234 -2.9091
  769MOL0     H 1503   4.459   6.914   8.428 -2.1496 -0.0508  1.4102
  769MOL0     H 1504   4.338   7.071   8.280 -3.0848  1.0236 -1.6230
  769MOL0     H 1505   4.289   6.939   8.188 -1.6554 -0.2962  0.1942
  769MOL0     H 1506   4.054   6.959   8.558  0.8377  0.5066  1.4550
  769MOL0     H 1507   4.855   6.621   8.442  1.7836 -1.6068  0.0902
  769MOL0     H 1508   4.988   6.462   8.552  0.7231  3.0790  1.3029
  770MOL0     O 1509   7.178   7.649   5.135  0.8353 -0.2727  0.6924
  770MOL0     C 1510   7.164   7.616   5.018 -0.0892  1.0363  0.1691
  770MOL0     O 1511   7.215   7.493   4.967  0.3585 -0.8038  0.7659
  770MOL0     C 1512   7.272   7.397   5.034 -0.5996 -0.3436  0.7213
  770MOL0     C 1513   7.286   7.391   5.174  0.0168  0.7107 -0.0749
  770MOL0     C 1514   7.348   7.275   5.228 -0.2308 -0.3220  0.1118
  770MOL0     C 1515   7.406   7.188   5.136 -0.1095  0.1333 -0.2781
  770MOL0     O 1516   7.476   7.084   5.192  0.7385 -0.4143 -0.0316
  770MOL0     C 1517   7.394   6.977   5.225  0.2196  0.1609  0.4128
  770MOL0     C 1518   7.429   6.850   5.143 -0.1302 -1.0581  0.1355
  770MOL0     C 1519   7.335   6.731   5.193 -0.0084  0.3958  0.0141
  770MOL0     C 1520   7.212   6.724   5.096 -0.7681 -0.4445  0.6555
  770MOL0     C 1521   7.226   6.655   4.955 -0.3324  0.1416 -0.5837
  770MOL0     C 1522   7.269   6.512   4.965 -0.3987 -0.1291  0.8213
  770MOL0     C 1523   7.243   6.443   4.833  0.4597 -0.4976 -0.8559
  770MOL0     C 1524   7.359   6.413   4.743 -0.3290 -0.9888 -0.5168
  770MOL0     N 1525   7.326   6.329   4.627  0.2322 -1.1260 -0.0273
  770MOL0     C 1526   7.390   6.209   4.591 -0.0235  0.0135  0.5576
  770MOL0     C 1527   7.343   6.197   4.461  0.0936 -0.7651 -0.4640
  770MOL0     C 1528   7.391   6.084   4.363  0.5203 -0.5103 -0.8580
  770MOL0     C 1529   7.505   6.138   4.281  0.5439  1.1209 -0.4012
  770MOL0     C 1530   7.555   6.031   4.176 -0.2224  0.6614 -1.0655
  770MOL0     C 1531   7.652   6.081   4.073 -1.0001  0.1031 -0.2709
  770MOL0     O 1532   7.644   5.986   3.969 -0.1659  0.5751  0.1790
  770MOL0     C 1533   7.744   6.010   3.885 -0.0942 -0.1599  0.7596
  770MOL0     C 1534   7.846   5.929   3.884 -0.6546  0.7878 -0.3355
  770MOL0     C 1535   7.959   5.948   3.802  0.3289 -0.0427  0.5009
  770MOL0     C 1536   7.962   6.058   3.709 -0.1036  0.9067  0.0569
  770MOL0     C 1537   8.075   6.094   3.622  0.6259  0.5149 -1.1350
  770MOL0     O 1538   8.190   6.022   3.659  0.0635  0.7229  0.5646
  770MOL0     C 1539   8.318   6.079   3.643 -0.3824  1.0697 -0.2248
  770MOL0     C 1540   8.352   6.215   3.665 -0.1430  0.3341  0.0827
  770MOL0     C 1541   8.475   6.259   3.643  0.7064 -0.1637  0.2727
  770MOL0     C 1542   8.572   6.172   3.586 -0.5697 -0.0584 -0.1531
  770MOL0     O 1543   8.699   6.213   3.539 -0.4908 -0.4228  0.4248
  770MOL0     C 1544   8.743   6.346   3.553 -1.3091 -0.5834 -0.0211
  770MOL0     C 1545   8.844   6.379   3.434 -0.2692 -0.2010 -1.0351
  770MOL0     C 1546   8.969   6.292   3.428 -0.2281  0.2322 -0.2451
  770MOL0     C 1547   9.062   6.324   3.311  0.2053 -1.3556 -0.1830
  770MOL0     C 1548   9.190   6.247   3.295  0.3234  0.8983  0.2909
  770MOL0     C 1549   9.150   6.096   3.259  0.4754  0.1294 -0.2781
  770MOL0     C 1550   9.290   6.053   3.223 -0.7631  0.7345 -0.0049
  770MOL0     C 1551   9.278   5.909   3.172 -0.0596 -0.9775  0.3225
  770MOL0    Cl 1552   9.226   5.797   3.305  0.4444  0.1540 -0.1456
  770MOL0     C 1553   8.537   6.039   3.566  0.0780  0.1703  0.1552
  770MOL0     C 1554   8.415   5.990   3.597 -0.6739  0.1747 -0.0629
  770MOL0     O 1555   8.069   6.189   3.545 -0.2195 -0.6507 -0.6537
  770MOL0     C 1556   7.846   6.132   3.695  0.1000  1.2260 -0.3703
  770MOL0     C 1557   7.734   6.111   3.782  0.3459  0.1486  0.0802
  770MOL0     N 1558   7.258   6.298   4.419  1.0021  0.4423 -1.0949
  770MOL0     N 1559   7.261   6.379   4.517 -0.2635  0.5271 -0.1533
  770MOL0     C 1560   7.402   7.206   5.002 -0.0435 -0.3906 -0.3348
  770MOL0     C 1561   7.321   7.304   4.951 -1.4528 -0.7179  0.6367
  770MOL0     C 1562   7.098   7.712   4.922  0.0481  0.1695 -0.4703
  770MOL0     C 1563   7.042   7.831   4.963  0.7615 -0.5034  0.3786
  770MOL0     C 1564   6.958   7.903   4.879  0.3819 -0.5587  0.2077
  770MOL0     C 1565   6.918   7.863   4.752 -0.3384  0.2382  0.0114
  770MOL0     O 1566   6.822   7.935   4.681 -1.0851 -0.4069  1.0741
  770MOL0     C 1567   6.719   7.855   4.635 -0.0640  0.4300 -0.4770
  770MOL0     C 1568   6.583   7.928   4.612  0.8344 -0.1500 -0.4232
  770MOL0     C 1569   6.480   7.862   4.527 -0.1736  0.6482  0.7036
  770MOL0     C 1570   6.370   7.962   4.480  0.6352  1.1135 -0.6336
  770MOL0     C 1571   6.259   7.920   4.385 -0.6399  1.1402  1.0306
  770MOL0     C 1572   6.162   7.894   4.317  0.0894  0.1507 -0.7268
  770MOL0     C 1573   6.971   7.740   4.715  0.1953  1.2428  0.4526
  770MOL0     C 1574   7.060   7.666   4.791 -1.3177 -0.2576 -0.2156
  770MOL0     H 1575   7.249   7.464   5.245  2.8565 -0.3219  2.6793
  770MOL0     H 1576   7.348   7.259   5.335  2.9380  1.3439  0.4958
  770MOL0     H 1577   7.288   6.996   5.206 -0.3123 -0.1617  2.7356
  770MOL0     H 1578   7.391   6.950   5.331 -2.9611  1.5676  0.7884
  770MOL0     H 1579   7.536   6.829   5.148  0.7823  2.0766 -2.6075
  770MOL0     H 1580   7.402   6.870   5.039  0.2251  0.7530  0.3537
  770MOL0     H 1581   7.321   6.716   5.300 -2.6392 -0.7860 -0.4075
  770MOL0     H 1582   7.383   6.634   5.176 -2.1090 -0.4156 -1.8703
  770MOL0     H 1583   7.139   6.670   5.156 -2.4342  0.6011 -0.3441
  770MOL0     H 1584   7.173   6.824   5.075  2.2614  0.6028 -0.5863
  770MOL0     H 1585   7.297   6.710   4.892  0.8642  0.6101  1.1085
  770MOL0     H 1586   7.128   6.671   4.910  0.0014  3.4632 -0.3636
  770MOL0     H 1587   7.210   6.462   5.043  1.2320 -3.1937  0.2167
  770MOL0     H 1588   7.376   6.503   4.988 -0.2925  1.8715  1.2898
  770MOL0     H 1589   7.197   6.346   4.857 -1.6081 -0.2254 -3.2507
  770MOL0     H 1590   7.164   6.496   4.778 -1.7372 -0.5271  2.0321
  770MOL0     H 1591   7.439   6.372   4.806  1.8480  2.0626 -1.0844
  770MOL0     H 1592   7.394   6.511   4.708 -0.4795 -1.3500 -1.7021
  770MOL0     H 1593   7.465   6.157   4.650  0.5449  2.2860  1.9971
  770MOL0     H 1594   7.303   6.076   4.299 -0.3750  1.8155 -0.0320
  770MOL0     H 1595   7.432   6.006   4.428 -1.6412  0.2483  1.5479
  770MOL0     H 1596   7.576   6.171   4.357 -1.3785  2.6024  0.8610
  770MOL0     H 1597   7.480   6.226   4.221 -1.8917  0.1848 -0.8760
  770MOL0     H 1598   7.593   5.946   4.233 -1.3603  1.0546  0.3339
  770MOL0     H 1599   7.468   5.997   4.120  0.7393  0.2647 -2.3834
  770MOL0     H 1600   7.756   6.081   4.107 -0.6388 -0.0946 -1.3329
  770MOL0     H 1601   7.632   6.186   4.048 -2.2690  0.3291  1.5246
  770MOL0     H 1602   7.852   5.845   3.953  1.5141  0.4603 -0.8534
  770MOL0     H 1603   8.031   5.866   3.807 -1.6862 -1.9285 -0.0044
  770MOL0     H 1604   8.268   6.275   3.698  0.1107 -0.1302  1.6380
  770MOL0     H 1605   8.489   6.363   3.668  1.3447 -0.8372  3.0070
  770MOL0     H 1606   8.795   6.353   3.649  0.6640 -0.2924 -1.0564
  770MOL0     H 1607   8.666   6.424   3.551  1.1761  2.1363 -3.5362
  770MOL0     H 1608   8.865   6.486   3.443 -3.7816  0.8950 -3.5131
  770MOL0     H 1609   8.788   6.375   3.340 -1.0657  0.1351 -0.5866
  770MOL0     H 1610   8.928   6.191   3.418 -0.7433  0.6037 -2.5000
  770MOL0     H 1611   9.035   6.308   3.514  0.3746  0.2904 -0.7063
  770MOL0     H 1612   8.989   6.326   3.230 -4.6800  1.6280  3.6542
  770MOL0     H 1613   9.085   6.430   3.329 -0.5377 -1.3273  0.7142
  770MOL0     H 1614   9.255   6.243   3.382 -1.8438 -2.0270  1.9463
  770MOL0     H 1615   9.243   6.288   3.208  0.8988 -2.4470 -1.1110
  770MOL0     H 1616   9.086   6.081   3.171 -0.9587 -0.2471  0.7904
  770MOL0     H 1617   9.094   6.053   3.342  2.3595 -0.0400  0.9564
  770MOL0     H 1618   9.331   6.114   3.143  0.4526 -0.5807 -0.4220
  770MOL0     H 1619   9.344   6.064   3.317 -2.8417  2.0012  1.1303
  770MOL0     H 1620   9.376   5.879   3.134 -0.3641 -0.1995 -1.1880
  770MOL0     H 1621   9.213   5.912   3.084  1.0015 -1.8430 -0.5290
  770MOL0     H 1622   8.600   5.964   3.519 -2.1862 -2.0747  0.5074
  770MOL0     H 1623   8.382   5.892   3.564 -2.2975  0.5922  0.2676
  770MOL0     H 1624   7.844   6.216   3.626  2.0913  0.0288 -1.9972
  770MOL0     H 1625   7.647   6.175   3.787  1.9932  2.4848  0.3422
  770MOL0     H 1626   7.457   7.141   4.935  0.7813  1.3130 -1.3910
  770MOL0     H 1627   7.313   7.312   4.843  3.5032 -1.4009 -0.0335
  770MOL0     H 1628   7.074   7.874   5.057  1.7275 -0.9450  0.2590
  770MOL0     H 1629   6.907   7.996   4.899 -0.2021 -0.7100 -0.5016
  770MOL0     H 1630   6.694   7.790   4.720 -2.7682 -1.3564 -2.4801
  770MOL0     H 1631   6.755   7.788   4.557  1.2106 -0.4941  0.8515
  770MOL0     H 1632   6.543   7.955   4.710  0.5750 -1.6541 -0.0782
  770MOL0     H 1633   6.610   8.018   4.557 -1.1267 -0.1002 -1.3939
  770MOL0     H 1634   6.430   7.781   4.581 -3.2637  2.3155  0.5503
  770MOL0     H 1635   6.526   7.828   4.434 -1.1979  1.4842 -0.1478
  770MOL0     H 1636   6.336   8.018   4.567  2.5331  0.1988  0.7576
  770MOL0     H 1637   6.414   8.043   4.420  0.0774 -0.2521 -3.0213
  770MOL0     H 1638   6.080   7.861   4.256 -0.7965  3.3648 -1.4497
  770MOL0     H 1639   6.940   7.691   4.623 -1.0910  1.3196  0.8260
  770MOL0     H 1640   7.099   7.571   4.758 -3.1062 -0.1550 -2.9575
  771MOL0     O 1641   4.615   9.937  10.067 -0.5426 -0.6951 -0.1407
  771MOL0     C 1642   4.565   9.852   9.993  0.5158 -0.8590  0.0758
  771MOL0     O 1643   4.450   9.785  10.020 -0.4162  0.1364  0.3253
  771MOL0     C 1644   4.369   9.798  10.122  0.2493  0.3725 -0.4027
  771MOL0     C 1645   4.355   9.911  10.203 -0.3976 -0.7319 -0.4982
  771MOL0     C 1646   4.254   9.928  10.298  0.9610 -0.4635  0.2109
  771MOL0     C 1647   4.162   9.821  10.329  0.7488 -0.4569  0.6273
  771MOL0     O 1648   4.061   9.847  10.418  0.3640  0.5572  0.2150
  771MOL0     C 1649   4.057   9.770  10.544  0.4420 -0.3275 -0.1916
  771MOL0     C 1650   3.979   9.861  10.646 -0.0301 -0.1634 -0.2938
  771MOL0     C 1651   3.948   9.791  10.771 -0.3474  0.4321 -0.1664
  771MOL0     C 1652   3.857   9.881  10.860  0.0850 -0.3243 -0.6479
  771MOL0     C 1653   3.851   9.837  11.012  0.2325  0.1506  0.0694
  771MOL0     C 1654   3.777   9.940  11.100 -0.1188  0.6821 -0.1291
  771MOL0     C 1655   3.812   9.942  11.250 -0.5858 -0.8606  0.3457
  771MOL0     C 1656   3.722  10.038  11.331 -0.9620  0.0226  0.3204
  771MOL0     N 1657   3.742   9.995  11.471  0.0852 -0.0401 -0.0426
  771MOL0     C 1658   3.656   9.908  11.535  0.0548 -1.2574  0.5318
  771MOL0     C 1659   3.701   9.895  11.665  0.1503 -0.1310 -0.1047
  771MOL0     C 1660   3.637   9.810  11.770 -0.0044 -0.2097  0.3369
  771MOL0     C 1661   3.487   9.775  11.745  0.3638  0.7004  0.2304
  771MOL0     C 1662   3.432   9.688  11.862 -0.3155 -0.6374  0.2093
  771MOL0     C 1663   3.277   9.653  11.847 -0.3139 -0.1178  0.3360
  771MOL0     O 1664   3.248   9.582  11.972 -0.4465 -1.0665  0.0374
  771MOL0     C 1665   3.118   9.543  11.978 -0.0248 -0.3898 -0.0624
  771MOL0     C 1666   3.084   9.445  12.073 -0.0765 -0.5752  0.0697
  771MOL0     C 1667   2.946   9.409  12.092 -0.4528 -0.5763  0.4699
  771MOL0     C 1668   2.845   9.465  12.017 -0.4863  0.1119  0.1229
  771MOL0     C 1669   2.702   9.428  12.047 -0.2318 -0.3437  1.1703
  771MOL0     O 1670   2.594   9.488  11.982 -0.1125  0.5308 -0.3702
  771MOL0     C 1671   2.465   9.472  12.014  0.5148  0.4164 -1.1670
  771MOL0     C 1672   2.395   9.547  12.116 -0.2625  1.4433 -1.2574
  771MOL0     C 1673   2.261   9.518  12.144 -0.2065 -1.1219 -1.0625
  771MOL0     C 1674   2.195   9.419  12.067  0.3864  0.2918  0.5747
  771MOL0     O 1675   2.062   9.403  12.088 -0.1737 -0.0363  0.2814
  771MOL0     C 1676   1.992   9.309  12.009  0.6961  0.5632 -0.9339
  771MOL0     C 1677   1.845   9.327  12.059 -0.0503 -0.3703 -0.0286
  771MOL0     C 1678   1.787   9.468  12.040  0.6398  0.4232 -0.7390
  771MOL0     C 1679   1.634   9.460  12.055  0.5299 -0.0130  0.0059
  771MOL0     C 1680   1.578   9.606  12.062  0.5000 -0.7580  0.0221
  771MOL0     C 1681   1.562   9.658  12.209  0.5867  0.4796  0.4800
  771MOL0     C 1682   1.434   9.601  12.273 -0.9955 -0.2436  0.3714
  771MOL0     C 1683   1.436   9.621  12.427  0.4120 -0.3806 -1.4078
  771MOL0    Cl 1684   1.543   9.501  12.500  0.3177  0.1144  0.2243
  771MOL0     C 1685   2.267   9.344  11.973  0.2236 -0.0642  0.6019
  771MOL0     C 1686   2.403   9.362  11.963 -0.0103 -0.3989 -0.5303
  771MOL0     O 1687   2.691   9.349  12.134 -0.3397 -0.6182 -0.3425
  771MOL0     C 1688   2.880   9.554  11.916 -0.2570  0.4911  0.5920
  771MOL0     C 1689   3.012   9.594  11.891  0.6368  1.2285  0.4652
  771MOL0     N 1690   3.806   9.979  11.679 -0.2597 -0.2898  0.2014
  771MOL0     N 1691   3.827  10.039  11.565 -0.2592  0.6198  0.6815
  771MOL0     C 1692   4.178   9.707  10.258 -0.1505 -0.6574 -0.9294
  771MOL0     C 1693   4.272   9.697  10.159  0.4084  0.1880 -0.2984
  771MOL0     C 1694   4.655   9.802   9.886  1.1072 -0.0346 -0.1706
  771MOL0     C 1695   4.637   9.682   9.817 -0.7986  0.8159 -0.0424
  771MOL0     C 1696   4.721   9.634   9.724 -0.6641  0.1441 -0.3056
  771MOL0     C 1697   4.831   9.720   9.681  0.2623 -0.4361 -0.2230
  771MOL0     O 1698   4.935   9.672   9.606 -0.7138  0.6583  0.6416
  771MOL0     C 1699   5.051   9.748   9.591 -0.0272 -0.6778  0.0320
  771MOL0     C 1700   5.138   9.662   9.494  0.6584  0.7742  0.1499
  771MOL0     C 1701   5.282   9.652   9.535 -0.9151  0.2895  0.2002
  771MOL0     C 1702   5.350   9.793   9.544 -0.0466 -0.7158  0.1009
  771MOL0     C 1703   5.491   9.780   9.579 -0.2391  0.5462  0.5109
  771MOL0     C 1704   5.604   9.747   9.613  0.1160 -0.6396 -0.2516
  771MOL0     C 1705   4.841   9.845   9.740  0.3408  0.2109 -0.0527
  771MOL0     C 1706   4.752   9.885   9.837 -0.4961  0.7077  0.6602
  771MOL0     H 1707   4.422   9.994  10.182 -2.2997  0.3166 -2.9444
  771MOL0     H 1708   4.230  10.017  10.355 -3.4211 -0.6412 -0.9694
  771MOL0     H 1709   4.161   9.745  10.570  1.1488 -0.2733 -2.6948
  771MOL0     H 1710   4.007   9.673  10.535 -0.8014 -0.1156  3.1160
  771MOL0     H 1711   3.883   9.887  10.601 -1.9243 -0.8896  3.0150
  771MOL0     H 1712   4.029   9.956  10.668  2.3404 -1.0630 -1.4420
  771MOL0     H 1713   4.046   9.767  10.814  0.1558 -1.2312 -2.0718
  771MOL0     H 1714   3.898   9.694  10.757  0.8971 -0.0073 -1.8653
  771MOL0     H 1715   3.900   9.982  10.863  0.4286 -0.4839 -0.1590
  771MOL0     H 1716   3.764   9.895  10.804  0.8944  2.7937 -1.4624
  771MOL0     H 1717   3.954   9.829  11.049  0.1105 -3.2641 -0.0404
  771MOL0     H 1718   3.809   9.736  11.020 -1.4415  0.7545 -0.7770
  771MOL0     H 1719   3.669   9.928  11.086 -0.1926 -0.9776  1.5611
  771MOL0     H 1720   3.811  10.036  11.060 -2.2763  2.0177  1.0679
  771MOL0     H 1721   3.794   9.840  11.284  4.5457 -3.0761 -2.5685
  771MOL0     H 1722   3.913   9.963  11.285 -1.3663 -1.1977  3.0245
  771MOL0     H 1723   3.614  10.024  11.317 -1.2869  1.2434  1.3966
  771MOL0     H 1724   3.756  10.139  11.310  0.3740 -0.5278 -0.2639
  771MOL0     H 1725   3.581   9.845  11.489 -0.1966 -0.2014 -0.5488
  771MOL0     H 1726   3.650   9.868  11.862  6.2266 -0.0509 -0.2145
  771MOL0     H 1727   3.700   9.723  11.792  0.3917 -0.1554 -0.5580
  771MOL0     H 1728   3.468   9.729  11.648 -4.7267  3.7454 -0.5989
  771MOL0     H 1729   3.436   9.872  11.733 -2.2369 -0.9458 -5.5240
  771MOL0     H 1730   3.489   9.595  11.849  0.8596  0.0772  0.1949
  771MOL0     H 1731   3.444   9.743  11.956 -0.7092  1.0399 -0.6832
  771MOL0     H 1732   3.249   9.596  11.758  1.5078  2.0021 -1.7102
  771MOL0     H 1733   3.220   9.745  11.839 -1.0211 -0.6682 -1.3697
  771MOL0     H 1734   3.153   9.403  12.145 -0.7756 -1.1517  0.4262
  771MOL0     H 1735   2.933   9.343  12.178 -0.8491  1.6994  2.2614
  771MOL0     H 1736   2.450   9.628  12.161  0.1532  0.5939 -0.1835
  771MOL0     H 1737   2.212   9.573  12.224  3.7009  0.9136  0.2082
  771MOL0     H 1738   2.028   9.213  12.047 -1.5008 -0.2293 -0.7331
  771MOL0     H 1739   2.005   9.328  11.902  0.7448  1.6477 -0.7493
  771MOL0     H 1740   1.833   9.300  12.164  1.8517  2.3603  0.9916
  771MOL0     H 1741   1.791   9.255  11.997 -0.6012 -1.4559  1.6335
  771MOL0     H 1742   1.816   9.506  11.941 -0.0616  2.6519 -0.1500
  771MOL0     H 1743   1.823   9.541  12.112  1.0961 -0.6521  0.1441
  771MOL0     H 1744   1.597   9.414  11.964 -0.3887  1.2214 -0.2669
  771MOL0     H 1745   1.599   9.410  12.146  1.1153  4.2793  2.8834
  771MOL0     H 1746   1.493   9.597  11.995  0.9156  2.0873 -1.0298
  771MOL0     H 1747   1.640   9.677  12.006  1.7272 -0.0615  2.1340
  771MOL0     H 1748   1.542   9.765  12.198  1.9474  0.5249 -2.6122
  771MOL0     H 1749   1.645   9.637  12.276  1.4956  2.7259  0.1606
  771MOL0     H 1750   1.343   9.645  12.231 -0.0919  0.7366 -0.6080
  771MOL0     H 1751   1.440   9.495  12.246 -0.0835  0.7083 -3.9005
  771MOL0     H 1752   1.337   9.612  12.473  0.5179 -0.2410 -1.1505
  771MOL0     H 1753   1.482   9.711  12.468 -0.1213 -0.9206  0.4751
  771MOL0     H 1754   2.232   9.265  11.906  1.8198 -0.3439  0.0598
  771MOL0     H 1755   2.452   9.276  11.918 -2.1330 -0.8666 -2.1329
  771MOL0     H 1756   2.797   9.605  11.868 -2.0787 -2.0990  0.7496
  771MOL0     H 1757   3.028   9.668  11.812  1.1499 -0.6943 -1.3078
  771MOL0     H 1758   4.121   9.625  10.301  0.1686 -2.0276 -2.9640
  771MOL0     H 1759   4.285   9.596  10.123 -0.6366 -0.5090  1.1709
  771MOL0     H 1760   4.550   9.629   9.854 -1.5343  2.6780  1.0714
  771MOL0     H 1761   4.726   9.536   9.678  1.0198  0.8967 -1.8225
  771MOL0     H 1762   5.100   9.771   9.685  1.5711 -3.2036 -0.0823
  771MOL0     H 1763   5.028   9.842   9.540  2.6232 -1.5531 -3.1426
  771MOL0     H 1764   5.085   9.566   9.489  0.8544  0.7168 -1.2820
  771MOL0     H 1765   5.129   9.712   9.397 -2.6082  0.4460  0.1823
  771MOL0     H 1766   5.330   9.584   9.464  1.0921 -1.0572  2.6939
  771MOL0     H 1767   5.296   9.605   9.633  0.0381 -0.6078 -0.3355
  771MOL0     H 1768   5.342   9.853   9.453  0.1675 -0.1805  0.4290
  771MOL0     H 1769   5.308   9.850   9.627  1.1327  0.8800 -0.3642
  771MOL0     H 1770   5.693   9.705   9.654  2.1480  1.7429 -1.9632
  771MOL0     H 1771   4.918   9.919   9.719 -0.0034  1.3841  2.4435
  771MOL0     H 1772   4.786   9.977   9.883 -0.8448  1.0282  0.2864
  772MOL0     O 1773   6.940   7.942   0.745 -0.0379 -0.7172  0.6171
  772MOL0     C 1774   6.912   7.864   0.658 -0.4201  1.0318 -0.3352
  772MOL0     O 1775   6.802   7.786   0.651 -0.4449  0.3911  0.6452
  772MOL0     C 1776   6.687   7.796   0.731 -0.2313 -0.6040  0.7099
  772MOL0     C 1777   6.569   7.736   0.678  0.3171 -0.3304  0.6541
  772MOL0     C 1778   6.447   7.761   0.740 -0.2390 -0.2045 -0.3293
  772MOL0     C 1779   6.442   7.841   0.857 -1.1529  0.3034 -0.4971
  772MOL0     O 1780   6.337   7.849   0.936  0.0625 -0.1886 -0.5669
  772MOL0     C 1781   6.214   7.798   0.899  0.1869  0.0442  0.0817
  772MOL0     C 1782   6.144   7.880   0.787 -0.0333 -0.2591 -0.3061
  772MOL0     C 1783   6.043   7.807   0.700 -0.5911  0.3129  1.1563
  772MOL0     C 1784   5.977   7.897   0.604  0.2231 -0.2950  0.4339
  772MOL0     C 1785   5.822   7.852   0.575 -0.7276  0.5610  0.7147
  772MOL0     C 1786   5.819   7.716   0.502 -0.8582 -0.2332  0.2811
  772MOL0     C 1787   5.680   7.687   0.444 -0.2808 -0.4314 -0.8950
  772MOL0     C 1788   5.577   7.658   0.557  0.3819 -0.4784  0.0302
  772MOL0     N 1789   5.442   7.646   0.515  0.0600  0.3141 -0.1989
  772MOL0     C 1790   5.344   7.742   0.545 -0.8612 -0.3614 -0.0348
  772MOL0     C 1791   5.232   7.668   0.525  0.6801 -0.4866 -0.5557
  772MOL0     C 1792   5.099   7.712   0.555  1.0895 -1.4403  0.3713
  772MOL0     C 1793   5.066   7.736   0.714 -0.5106 -1.0831  0.1029
  772MOL0     C 1794   5.088   7.606   0.790 -0.4047 -0.0677 -0.0947
  772MOL0     C 1795   5.074   7.626   0.942  0.3971 -0.3902 -0.3833
  772MOL0     O 1796   5.168   7.549   1.015  0.1878  0.0733 -1.0256
  772MOL0     C 1797   5.293   7.586   1.052 -0.5799  1.1158  0.7712
  772MOL0     C 1798   5.381   7.477   1.082 -0.4601 -0.0350  1.6865
  772MOL0     C 1799   5.515   7.501   1.115  0.0223 -0.1056  0.4568
  772MOL0     C 1800   5.562   7.635   1.132  0.4993  1.3723 -0.7926
  772MOL0     C 1801   5.693   7.665   1.192 -0.2435 -0.0721 -1.1983
  772MOL0     O 1802   5.774   7.555   1.218 -0.0881  0.6884  1.0004
  772MOL0     C 1803   5.874   7.575   1.302 -0.4412  0.3350  0.5527
  772MOL0     C 1804   5.851   7.615   1.430 -0.1729  0.7201 -0.2419
  772MOL0     C 1805   5.963   7.650   1.513 -0.4346  0.5310 -0.2662
  772MOL0     C 1806   6.093   7.616   1.479  0.2562 -0.4869 -0.5786
  772MOL0     O 1807   6.191   7.654   1.576  0.1834 -0.5602  0.0112
  772MOL0     C 1808   6.306   7.578   1.586  0.1853  0.4787  0.2623
  772MOL0     C 1809   6.370   7.628   1.713 -0.0226 -1.0464  0.5050
  772MOL0     C 1810   6.504   7.567   1.740 -0.8727  0.8301  0.0609
  772MOL0     C 1811   6.575   7.630   1.856  0.3910 -1.3888 -0.7275
  772MOL0     C 1812   6.598   7.782   1.813 -1.3416 -0.1921  0.3383
  772MOL0     C 1813   6.666   7.881   1.902 -0.2343  0.6924 -1.1839
  772MOL0     C 1814   6.635   7.868   2.055  0.7143 -0.9648  0.0506
  772MOL0     C 1815   6.702   7.974   2.144  0.8368  0.5078  0.3014
  772MOL0    Cl 1816   6.625   7.965   2.303  0.1376 -0.2166 -0.2497
  772MOL0     C 1817   6.116   7.554   1.358 -0.7912 -0.1224  0.4405
  772MOL0     C 1818   6.003   7.540   1.269 -0.4552 -0.6548 -0.1062
  772MOL0     O 1819   5.719   7.782   1.217 -0.2741  0.6665 -0.0557
  772MOL0     C 1820   5.475   7.736   1.110 -0.0345  0.4865 -0.7124
  772MOL0     C 1821   5.345   7.719   1.056  0.0692  0.7300  0.2273
  772MOL0     N 1822   5.257   7.536   0.484 -0.3431  0.7455  0.5456
  772MOL0     N 1823   5.389   7.530   0.462 -1.2323  0.8250  0.0505
  772MOL0     C 1824   6.555   7.905   0.908 -0.0197  0.1843  0.4672
  772MOL0     C 1825   6.676   7.887   0.837 -0.3870  0.0834 -0.2127
  772MOL0     C 1826   7.014   7.819   0.554  0.8294  0.5258 -0.3394
  772MOL0     C 1827   7.153   7.842   0.583 -0.3158 -0.3035  0.8479
  772MOL0     C 1828   7.250   7.790   0.494  0.4023 -1.0813 -0.3984
  772MOL0     C 1829   7.208   7.742   0.373  0.1987 -0.3177  0.8492
  772MOL0     O 1830   7.304   7.730   0.280  0.7928  0.1134  0.2261
  772MOL0     C 1831   7.269   7.701   0.148  0.0075 -0.1990 -1.1593
  772MOL0     C 1832   7.401   7.701   0.073 -0.4562  1.0744 -0.2446
  772MOL0     C 1833   7.497   7.587   0.118 -1.3139  0.0476 -0.4720
  772MOL0     C 1834   7.632   7.596   0.063 -0.0484  0.4162 -0.4274
  772MOL0     C 1835   7.713   7.487   0.118 -0.0579 -0.0509  0.3959
  772MOL0     C 1836   7.799   7.407   0.158 -0.0603  0.1019  0.4602
  772MOL0     C 1837   7.070   7.732   0.344 -0.1806  0.8354 -0.3805
  772MOL0     C 1838   6.975   7.765   0.431  0.1508  0.3385 -0.6113
  772MOL0     H 1839   6.589   7.682   0.585  0.8370  1.7661 -0.5197
  772MOL0     H 1840   6.357   7.724   0.693 -1.2148  1.1130  0.4514
  772MOL0     H 1841   6.146   7.792   0.985  0.0571 -1.6609 -0.1119
  772MOL0     H 1842   6.225   7.693   0.870 -2.4705  0.1506 -1.5827
  772MOL0     H 1843   6.222   7.915   0.719  3.4287 -2.0790  2.3702
  772MOL0     H 1844   6.092   7.960   0.841  2.3801 -0.1670  2.0762
  772MOL0     H 1845   5.965   7.765   0.764 -1.4440 -1.0435 -0.6801
  772MOL0     H 1846   6.092   7.722   0.651  1.1863  1.1873  1.3094
  772MOL0     H 1847   5.960   7.998   0.644  0.5360  0.6203 -1.6105
  772MOL0     H 1848   6.039   7.893   0.514 -1.2105  0.2972 -0.6265
  772MOL0     H 1849   5.765   7.920   0.512 -0.5396 -2.1435 -2.6725
  772MOL0     H 1850   5.766   7.835   0.667 -1.1711 -1.8725  0.0659
  772MOL0     H 1851   5.844   7.638   0.575 -1.0889  0.0940  0.7162
  772MOL0     H 1852   5.884   7.708   0.415 -4.4898 -0.3111 -2.6779
  772MOL0     H 1853   5.651   7.773   0.382  2.1608 -0.4809 -2.2319
  772MOL0     H 1854   5.687   7.608   0.369 -1.2793 -0.9079 -0.5094
  772MOL0     H 1855   5.590   7.729   0.639  0.8125  1.8063 -1.9147
  772MOL0     H 1856   5.606   7.561   0.600  1.8224  0.7909  2.0862
  772MOL0     H 1857   5.354   7.846   0.574 -3.8260  0.4496 -1.6040
  772MOL0     H 1858   5.029   7.642   0.508 -2.2040  2.2789 -0.7694
  772MOL0     H 1859   5.080   7.809   0.510  3.0737 -1.0774  0.2464
  772MOL0     H 1860   4.966   7.770   0.742  0.7717  2.8913  0.4104
  772MOL0     H 1861   5.138   7.813   0.742 -0.2178 -0.9770 -0.8931
  772MOL0     H 1862   5.026   7.520   0.764 -0.6373  0.1047 -0.1073
  772MOL0     H 1863   5.189   7.569   0.768  0.8329  2.9855 -0.1140
  772MOL0     H 1864   4.973   7.598   0.973  0.1074  2.7507  1.9909
  772MOL0     H 1865   5.085   7.732   0.967  1.6689 -0.2877 -1.2936
  772MOL0     H 1866   5.353   7.374   1.064  2.1658 -0.4672 -0.6311
  772MOL0     H 1867   5.580   7.419   1.145 -3.3793 -2.0329  3.3262
  772MOL0     H 1868   5.748   7.631   1.460 -0.2665  1.4102 -0.8907
  772MOL0     H 1869   5.943   7.697   1.609 -2.4622 -0.2791 -0.2524
  772MOL0     H 1870   6.377   7.594   1.504 -3.6441  2.0534 -3.0888
  772MOL0     H 1871   6.280   7.472   1.575  2.2335  0.0228 -0.8475
  772MOL0     H 1872   6.310   7.620   1.804  0.2639 -2.0341  0.6117
  772MOL0     H 1873   6.365   7.737   1.703 -1.7605 -1.2742 -2.3538
  772MOL0     H 1874   6.578   7.566   1.660  0.9706 -3.8971  1.4642
  772MOL0     H 1875   6.491   7.460   1.757 -0.8725  0.6259 -1.1422
  772MOL0     H 1876   6.507   7.633   1.942 -1.2342 -2.2890 -1.9038
  772MOL0     H 1877   6.665   7.578   1.889 -1.0260 -2.8608  1.0441
  772MOL0     H 1878   6.508   7.842   1.794  0.9166  3.5576  0.5676
  772MOL0     H 1879   6.653   7.772   1.719 -0.7071 -1.9614  0.8618
  772MOL0     H 1880   6.649   7.977   1.853  0.4764  0.6300 -1.5478
  772MOL0     H 1881   6.772   7.859   1.895 -0.6330 -1.0420 -2.2763
  772MOL0     H 1882   6.528   7.890   2.061  0.0462 -2.7445 -2.9140
  772MOL0     H 1883   6.657   7.768   2.093  2.4842  0.0999  2.0044
  772MOL0     H 1884   6.675   8.067   2.093 -1.7797 -0.2360  0.1932
  772MOL0     H 1885   6.809   7.959   2.157  0.9112  1.6509  1.1850
  772MOL0     H 1886   6.220   7.535   1.332 -0.8497  0.5194 -0.3054
  772MOL0     H 1887   6.026   7.500   1.171 -0.0109 -2.5514  0.7240
  772MOL0     H 1888   5.497   7.841   1.128  0.4950  0.1030  1.1034
  772MOL0     H 1889   5.297   7.812   1.028 -1.1387 -0.0811 -0.4804
  772MOL0     H 1890   6.548   7.959   1.002 -2.7663 -2.1517  1.7446
  772MOL0     H 1891   6.758   7.923   0.899 -2.0206  0.4545  1.8334
  772MOL0     H 1892   7.189   7.863   0.683  1.5289 -1.1985  0.4249
  772MOL0     H 1893   7.357   7.787   0.508  0.3209 -1.9746  0.1294
  772MOL0     H 1894   7.196   7.766   0.099  1.6261  1.1080 -1.9619
  772MOL0     H 1895   7.231   7.599   0.141 -3.9561  1.1213 -0.8774
  772MOL0     H 1896   7.397   7.707  -0.036  1.8543  0.0301 -0.4636
  772MOL0     H 1897   7.453   7.791   0.107  0.2912  0.8814 -0.8446
  772MOL0     H 1898   7.454   7.489   0.095  0.5906 -1.1555  0.7652
  772MOL0     H 1899   7.514   7.595   0.226  0.6438  2.2660 -0.8609
  772MOL0     H 1900   7.625   7.586  -0.045  2.6317  1.7727 -0.7945
  772MOL0     H 1901   7.667   7.698   0.083 -0.1083  0.7816 -2.0433
  772MOL0     H 1902   7.858   7.327   0.198 -0.6401 -0.3732  0.3853
  772MOL0     H 1903   7.034   7.691   0.250  0.5237  0.7326 -0.6086
  772MOL0     H 1904   6.871   7.766   0.400 -0.6360  4.0503  1.4285
  773MOL0     O 1905   0.094   5.713   2.587  0.3030 -0.5706 -0.0702
  773MOL0     C 1906   0.196   5.765   2.626  0.5887 -1.5162 -0.0440
  773MOL0     O 1907   0.204   5.894   2.670  0.3838  0.3842  0.4088
  773MOL0     C 1908   0.098   5.977   2.689  0.1568  0.2478  0.3504
  773MOL0     C 1909   0.051   6.006   2.823 -0.5161  0.3070 -1.1851
  773MOL0     C 1910  -0.050   6.093   2.834  0.1108 -0.8042  0.1510
  773MOL0     C 1911  -0.118   6.136   2.725  0.1302 -0.1597 -0.8983
  773MOL0     O 1912  -0.242   6.192   2.755 -0.4651  0.4853  0.8345
  773MOL0     C 1913  -0.275   6.319   2.693  0.2926 -0.2121  1.0680
  773MOL0     C 1914  -0.385   6.386   2.758 -0.0007 -0.0392  0.0527
  773MOL0     C 1915  -0.525   6.322   2.740 -0.8595  0.1259 -0.1474
  773MOL0     C 1916  -0.534   6.179   2.801  0.4167 -1.0495  0.1262
  773MOL0     C 1917  -0.676   6.131   2.830  0.2222  0.5274 -0.6043
  773MOL0     C 1918  -0.660   5.990   2.890  0.0064  0.2610 -0.3602
  773MOL0     C 1919  -0.788   5.924   2.923  0.2528 -0.5034  0.0045
  773MOL0     C 1920  -0.781   5.786   2.984  0.2943  0.0188 -0.2605
  773MOL0     N 1921  -0.697   5.680   2.917  0.4916 -0.4997 -0.6130
  773MOL0     C 1922  -0.558   5.647   2.943  0.4803 -0.6840 -0.6941
  773MOL0     C 1923  -0.540   5.531   2.883  0.1760 -0.0744 -0.6002
  773MOL0     C 1924  -0.430   5.428   2.913 -0.4879  0.6662  0.5941
  773MOL0     C 1925  -0.485   5.282   2.944 -0.1209 -0.6290 -0.1998
  773MOL0     C 1926  -0.382   5.172   2.923 -0.8944  0.4722 -0.3974
  773MOL0     C 1927  -0.436   5.036   2.971 -0.2957 -0.0056  0.3019
  773MOL0     O 1928  -0.351   4.927   2.936  0.2882 -0.0198  0.0477
  773MOL0     C 1929  -0.292   4.854   3.040 -0.0975 -0.0378  0.2225
  773MOL0     C 1930  -0.335   4.728   3.062 -0.5630  0.9267 -0.3780
  773MOL0     C 1931  -0.275   4.648   3.158  0.1020  0.0721 -0.8172
  773MOL0     C 1932  -0.161   4.689   3.233 -0.3834  0.3750  0.8916
  773MOL0     C 1933  -0.089   4.599   3.325  0.4508 -0.3761 -1.3651
  773MOL0     O 1934   0.031   4.649   3.372 -0.2441  0.0624 -0.3042
  773MOL0     C 1935   0.116   4.577   3.455  0.4554 -1.3146 -0.2599
  773MOL0     C 1936   0.180   4.651   3.559  0.7170 -0.4338 -0.3085
  773MOL0     C 1937   0.239   4.584   3.663  0.4144  0.0070 -0.5653
  773MOL0     C 1938   0.270   4.444   3.657  0.4939 -0.6637  0.7731
  773MOL0     O 1939   0.334   4.396   3.764 -0.0613 -0.3243  0.6403
  773MOL0     C 1940   0.268   4.298   3.847 -0.1043  1.5088 -0.7371
  773MOL0     C 1941   0.352   4.183   3.906  0.6764  0.4711  0.3051
  773MOL0     C 1942   0.470   4.239   3.999 -0.4693  0.7647  0.6771
  773MOL0     C 1943   0.562   4.115   4.052  0.4428  0.5792  0.6057
  773MOL0     C 1944   0.658   4.173   4.157  0.1032  1.4443  0.1262
  773MOL0     C 1945   0.766   4.067   4.215  0.6465  0.1049  0.0405
  773MOL0     C 1946   0.831   4.102   4.351  0.2696 -0.0132  0.5668
  773MOL0     C 1947   0.900   4.236   4.355  0.9212 -0.5782 -0.2546
  773MOL0    Cl 1948   1.035   4.272   4.227 -0.2221  0.0092  0.6825
  773MOL0     C 1949   0.205   4.369   3.560 -0.1521 -0.7666 -0.8429
  773MOL0     C 1950   0.137   4.438   3.459  1.1285  0.8952  0.7694
  773MOL0     O 1951  -0.137   4.487   3.351  0.4940  0.1816 -0.8024
  773MOL0     C 1952  -0.104   4.806   3.179  0.2692  0.8854 -0.0890
  773MOL0     C 1953  -0.179   4.895   3.107  0.8956  0.6247  0.2511
  773MOL0     N 1954  -0.656   5.501   2.808 -0.1744  0.1250  0.4080
  773MOL0     N 1955  -0.746   5.587   2.833 -0.4157 -0.6241  0.3729
  773MOL0     C 1956  -0.069   6.108   2.592 -0.3374 -0.5915  0.0169
  773MOL0     C 1957   0.043   6.036   2.574 -0.1529 -0.0575  0.1402
  773MOL0     C 1958   0.321   5.687   2.626 -1.2051  0.1131 -0.2718
  773MOL0     C 1959   0.326   5.552   2.580 -1.0673  0.0404 -1.0220
  773MOL0     C 1960   0.442   5.481   2.594  0.4622 -0.0460 -1.0184
  773MOL0     C 1961   0.550   5.537   2.661  0.3477  0.1439 -0.6179
  773MOL0     O 1962   0.666   5.464   2.677 -0.5574 -0.2338 -0.0688
  773MOL0     C 1963   0.782   5.531   2.731 -0.1612 -0.1313 -0.3928
  773MOL0     C 1964   0.771   5.543   2.883 -0.1549 -1.4247  0.3939
  773MOL0     C 1965   0.877   5.653   2.931 -0.6147  0.8645  0.3088
  773MOL0     C 1966   0.893   5.657   3.086  0.0247 -0.6100 -0.2890
  773MOL0     C 1967   0.959   5.530   3.128  0.9192 -0.3871 -0.5883
  773MOL0     C 1968   1.013   5.422   3.151 -0.6489 -0.5067 -0.9503
  773MOL0     C 1969   0.549   5.675   2.711 -0.1860 -0.0885  0.6322
  773MOL0     C 1970   0.438   5.752   2.692 -0.0413  1.2222  0.4950
  773MOL0     H 1971   0.092   5.955   2.910 -3.7573 -1.3218 -0.4522
  773MOL0     H 1972  -0.082   6.112   2.936  1.3496 -3.1084  1.0205
  773MOL0     H 1973  -0.294   6.300   2.587 -2.1861 -2.4135  1.7899
  773MOL0     H 1974  -0.186   6.382   2.705  1.4082 -1.7682  1.2140
  773MOL0     H 1975  -0.387   6.484   2.710  2.3974 -0.0990 -0.2607
  773MOL0     H 1976  -0.355   6.413   2.860  0.0965 -0.2251  0.0746
  773MOL0     H 1977  -0.559   6.319   2.636  0.3855 -2.4035 -0.5642
  773MOL0     H 1978  -0.584   6.382   2.809  0.1527 -0.8070  1.5926
  773MOL0     H 1979  -0.487   6.109   2.732  4.2704  1.8660 -0.5426
  773MOL0     H 1980  -0.487   6.172   2.900 -3.8455 -2.2720  2.3161
  773MOL0     H 1981  -0.727   6.118   2.734  0.8373  1.7459 -1.1120
  773MOL0     H 1982  -0.723   6.202   2.898 -1.0946 -0.6000 -0.2755
  773MOL0     H 1983  -0.595   5.999   2.978  0.1100 -0.1280 -0.3931
  773MOL0     H 1984  -0.598   5.921   2.832 -1.1579 -1.5383  0.4546
  773MOL0     H 1985  -0.851   5.988   2.985 -0.3614 -1.4982  0.4344
  773MOL0     H 1986  -0.850   5.905   2.834 -1.2116 -1.6052  1.2098
  773MOL0     H 1987  -0.880   5.746   3.005 -0.2490  1.1938 -0.5127
  773MOL0     H 1988  -0.752   5.794   3.090  0.2796 -1.1834 -0.1529
  773MOL0     H 1989  -0.492   5.702   3.009  1.8340 -2.4899 -0.4914
  773MOL0     H 1990  -0.368   5.460   2.998 -0.2020 -1.0541  1.0675
  773MOL0     H 1991  -0.353   5.419   2.837  4.0471 -0.1800  4.7844
  773MOL0     H 1992  -0.564   5.261   2.871 -2.3621 -2.3146  2.4793
  773MOL0     H 1993  -0.525   5.279   3.046 -0.4159  0.6775 -0.2535
  773MOL0     H 1994  -0.364   5.158   2.816 -1.7634 -0.2697 -0.4589
  773MOL0     H 1995  -0.282   5.190   2.964 -1.3363  0.6310  0.6214
  773MOL0     H 1996  -0.541   5.013   2.952 -0.8865 -1.4909  4.3150
  773MOL0     H 1997  -0.434   5.034   3.080  3.1196 -2.5022  0.3784
  773MOL0     H 1998  -0.414   4.679   3.006  0.0113 -2.3907  1.4547
  773MOL0     H 1999  -0.327   4.561   3.197  1.1634 -0.1249  0.2206
  773MOL0     H 2000   0.192   4.759   3.549 -3.2295  0.0137 -1.8999
  773MOL0     H 2001   0.258   4.639   3.754  1.2167  0.3576 -0.9309
  773MOL0     H 2002   0.181   4.247   3.804  1.4507 -2.8253  0.7083
  773MOL0     H 2003   0.221   4.353   3.929  0.8645 -0.2774  1.1301
  773MOL0     H 2004   0.396   4.125   3.823  0.3651  0.2702  0.2772
  773MOL0     H 2005   0.289   4.125   3.974 -1.0361  2.8955  0.9391
  773MOL0     H 2006   0.436   4.313   4.072  0.8169  0.9377  1.1424
  773MOL0     H 2007   0.537   4.299   3.936 -0.1322  1.3289  1.5527
  773MOL0     H 2008   0.507   4.046   4.116  2.5820  0.2704  2.2155
  773MOL0     H 2009   0.624   4.057   3.983  1.5049  1.4622  0.7910
  773MOL0     H 2010   0.591   4.209   4.235 -3.8627 -0.1316 -2.2263
  773MOL0     H 2011   0.716   4.255   4.113  0.8914  1.4655  1.1803
  773MOL0     H 2012   0.849   4.050   4.145  1.8946 -2.5293  2.0050
  773MOL0     H 2013   0.720   3.970   4.232  1.1825  0.0626  1.2837
  773MOL0     H 2014   0.750   4.103   4.424  0.3461  0.2829  0.6487
  773MOL0     H 2015   0.890   4.014   4.379 -0.0060  0.4244  2.6517
  773MOL0     H 2016   0.948   4.247   4.452  1.4898 -1.5336 -0.4199
  773MOL0     H 2017   0.825   4.314   4.338 -0.5892 -2.0909 -0.9169
  773MOL0     H 2018   0.218   4.262   3.556 -3.4444 -1.3739  1.2852
  773MOL0     H 2019   0.100   4.380   3.375  1.9389  2.1136 -0.4937
  773MOL0     H 2020  -0.013   4.840   3.228 -0.7344  1.2857  1.5982
  773MOL0     H 2021  -0.130   4.991   3.100  1.1059  0.6024  1.2862
  773MOL0     H 2022  -0.120   6.149   2.505  0.6080  0.4723 -0.0693
  773MOL0     H 2023   0.085   6.009   2.478 -0.8342 -2.3494  0.4143
  773MOL0     H 2024   0.236   5.510   2.538 -3.6389  0.8513  3.1340
  773MOL0     H 2025   0.457   5.385   2.546  0.6647  0.0385 -1.1238
  773MOL0     H 2026   0.805   5.628   2.686  0.9117  0.2448  0.9079
  773MOL0     H 2027   0.864   5.460   2.719 -1.1504 -2.1085  2.9204
  773MOL0     H 2028   0.674   5.569   2.926 -0.3524 -0.2179 -0.7233
  773MOL0     H 2029   0.793   5.440   2.913  0.3106 -2.1636 -2.2067
  773MOL0     H 2030   0.825   5.744   2.898 -1.9439 -0.4198 -1.3167
  773MOL0     H 2031   0.963   5.635   2.865 -2.2034 -0.7862 -1.4271
  773MOL0     H 2032   0.963   5.740   3.103  0.5751 -0.9991 -0.6229
  773MOL0     H 2033   0.797   5.679   3.132 -1.0707 -1.7223 -1.9388
  773MOL0     H 2034   1.060   5.331   3.182 -0.3508 -0.1447 -0.3195
  773MOL0     H 2035   0.634   5.729   2.753  2.0181 -2.6802 -0.1553
  773MOL0     H 2036   0.441   5.859   2.712 -3.0153  1.5255 -0.2304
  774MOL0     O 2037   7.936   7.178   5.646  0.0750 -0.0508  0.0762
  774MOL0     C 2038   7.827   7.221   5.677  0.4142 -0.6721  0.4917
  774MOL0     O 2039   7.763   7.325   5.608 -0.4391  0.8115 -0.7629
  774MOL0     C 2040   7.799   7.330   5.476  1.1781  0.4171  0.1926
  774MOL0     C 2041   7.743   7.237   5.390 -0.2908 -0.4441 -0.0626
  774MOL0     C 2042   7.781   7.247   5.252  0.8520  0.9925 -0.6370
  774MOL0     C 2043   7.881   7.331   5.199 -0.2505  0.1046 -0.4156
  774MOL0     O 2044   7.928   7.307   5.065  0.1118 -0.1007  0.2131
  774MOL0     C 2045   7.829   7.289   4.966 -0.1290 -0.6900 -0.1211
  774MOL0     C 2046   7.824   7.138   4.927  0.2256  0.8027  0.4536
  774MOL0     C 2047   7.761   7.095   4.804 -0.5365 -0.1485  0.6445
  774MOL0     C 2048   7.809   7.161   4.674 -0.5503  0.5016 -0.3815
  774MOL0     C 2049   7.725   7.110   4.549 -0.6209 -0.7240  0.5947
  774MOL0     C 2050   7.582   7.185   4.530  0.7562  0.1099 -0.0890
  774MOL0     C 2051   7.479   7.110   4.432 -0.6583  0.1278  0.4192
  774MOL0     C 2052   7.361   7.196   4.388  0.3228 -0.5360  0.2639
  774MOL0     N 2053   7.249   7.229   4.487 -0.4485 -0.3346  1.0969
  774MOL0     C 2054   7.117   7.184   4.471 -0.1356 -0.1922  0.0104
  774MOL0     C 2055   7.045   7.264   4.552 -0.0663 -0.0683 -0.0788
  774MOL0     C 2056   6.898   7.238   4.567 -0.1518 -1.0546  0.3189
  774MOL0     C 2057   6.805   7.365   4.547 -0.5346 -1.5850  0.6759
  774MOL0     C 2058   6.660   7.326   4.516  0.0199  0.2709  0.0493
  774MOL0     C 2059   6.557   7.352   4.629 -0.4516  0.2101 -0.3343
  774MOL0     O 2060   6.501   7.486   4.608 -0.0579  0.1549 -0.9236
  774MOL0     C 2061   6.360   7.497   4.611 -1.0279  0.2820 -0.8559
  774MOL0     C 2062   6.288   7.459   4.720  0.4637 -0.0397 -0.6804
  774MOL0     C 2063   6.155   7.489   4.730  0.0619 -0.1517  0.7968
  774MOL0     C 2064   6.088   7.546   4.626  0.4673  0.1575  0.2159
  774MOL0     C 2065   5.941   7.560   4.624 -0.8340  0.1110 -0.1964
  774MOL0     O 2066   5.882   7.521   4.735  0.0186  0.5217  0.4219
  774MOL0     C 2067   5.745   7.515   4.734 -0.0722  0.5563  0.3751
  774MOL0     C 2068   5.683   7.385   4.750 -0.0902  0.3166 -0.3096
  774MOL0     C 2069   5.542   7.358   4.748  0.3038  0.2672  0.5087
  774MOL0     C 2070   5.453   7.461   4.712 -0.0723 -0.2727 -0.2274
  774MOL0     O 2071   5.317   7.458   4.719  0.2203  0.7636  0.2476
  774MOL0     C 2072   5.245   7.334   4.726  0.0304 -0.6854  0.9757
  774MOL0     C 2073   5.234   7.264   4.588 -0.5305 -0.1812  0.4157
  774MOL0     C 2074   5.173   7.120   4.602  0.0873  0.2877  0.3999
  774MOL0     C 2075   5.274   7.024   4.672  0.1181  0.0681  0.8316
  774MOL0     C 2076   5.246   6.873   4.644 -0.2596 -0.6028 -0.3021
  774MOL0     C 2077   5.116   6.821   4.717  0.2134 -1.0440  0.4240
  774MOL0     C 2078   5.122   6.673   4.706 -0.4792  0.1292  1.2727
  774MOL0     C 2079   5.113   6.596   4.567 -0.6072 -1.1583 -0.9937
  774MOL0    Cl 2080   4.956   6.615   4.506 -0.1618 -0.1812 -0.0687
  774MOL0     C 2081   5.511   7.595   4.692  0.4743 -0.5289  0.8005
  774MOL0     C 2082   5.654   7.616   4.696 -0.1826 -1.0061  0.3722
  774MOL0     O 2083   5.885   7.587   4.520  0.6360  0.2416 -0.4966
  774MOL0     C 2084   6.162   7.583   4.512 -0.3755  1.1283  0.2271
  774MOL0     C 2085   6.298   7.559   4.504 -0.2664 -0.3747  0.1330
  774MOL0     N 2086   7.126   7.354   4.611 -0.1059 -0.9966  0.9481
  774MOL0     N 2087   7.247   7.342   4.570  0.1468 -0.2011  0.6340
  774MOL0     C 2088   7.937   7.421   5.301  0.3870  0.0945  0.1730
  774MOL0     C 2089   7.891   7.424   5.433  0.1824 -1.0738  0.3519
  774MOL0     C 2090   7.741   7.161   5.774 -0.3638  0.9944 -0.2090
  774MOL0     C 2091   7.598   7.179   5.777  0.4751 -0.3117  0.3878
  774MOL0     C 2092   7.509   7.120   5.861 -0.2665 -0.3103  0.4904
  774MOL0     C 2093   7.564   7.051   5.975 -0.0615 -0.4670  0.1372
  774MOL0     O 2094   7.495   7.033   6.091 -0.1034  0.7096  0.0578
  774MOL0     C 2095   7.357   7.047   6.083 -0.2845  0.2294  0.3194
  774MOL0     C 2096   7.301   7.010   6.217 -0.9559  0.3494 -0.0326
  774MOL0     C 2097   7.349   6.875   6.271  0.9353  1.0610 -0.3407
  774MOL0     C 2098   7.229   6.809   6.343  0.9997 -0.3059  0.7787
  774MOL0     C 2099   7.245   6.667   6.363 -0.4632 -0.3338 -0.2108
  774MOL0     C 2100   7.273   6.558   6.399  1.1243 -0.0684  0.4263
  774MOL0     C 2101   7.708   7.015   5.963  0.3394 -1.0998 -0.1036
  774MOL0     C 2102   7.789   7.065   5.859  0.6179 -0.5190 -1.0512
  774MOL0     H 2103   7.661   7.176   5.426  0.7732 -0.1514  3.2065
  774MOL0     H 2104   7.727   7.177   5.189 -0.7206  0.8668  0.7449
  774MOL0     H 2105   7.857   7.352   4.882 -3.6709 -0.3086 -1.1556
  774MOL0     H 2106   7.728   7.316   4.998  0.7915  3.5247 -0.2944
  774MOL0     H 2107   7.776   7.087   5.010  0.9208 -0.9991 -0.1906
  774MOL0     H 2108   7.922   7.089   4.927 -0.4930 -0.7433  1.9091
  774MOL0     H 2109   7.657   7.127   4.815 -0.2093  2.1184 -1.8493
  774MOL0     H 2110   7.765   6.986   4.795  1.6151 -0.2003  1.5182
  774MOL0     H 2111   7.807   7.270   4.682 -0.3413  0.4244  0.9571
  774MOL0     H 2112   7.914   7.133   4.661 -0.3385 -0.3496  2.5693
  774MOL0     H 2113   7.697   7.005   4.556 -2.5783 -0.2664  0.1026
  774MOL0     H 2114   7.795   7.133   4.467  0.4909 -0.3410  1.6159
  774MOL0     H 2115   7.598   7.288   4.497  0.5448  0.6390  1.3686
  774MOL0     H 2116   7.530   7.183   4.627  0.7583 -3.0950 -0.0547
  774MOL0     H 2117   7.537   7.079   4.344  0.8898  3.8752 -0.0383
  774MOL0     H 2118   7.436   7.026   4.486  3.2084 -0.9390  2.1979
  774MOL0     H 2119   7.323   7.150   4.296  0.9838 -1.0046  0.2208
  774MOL0     H 2120   7.404   7.289   4.351  1.2029 -0.9802  0.1241
  774MOL0     H 2121   7.086   7.105   4.403 -0.4767  0.5182 -0.6825
  774MOL0     H 2122   6.869   7.196   4.664 -4.7021 -0.8455 -0.7244
  774MOL0     H 2123   6.862   7.165   4.493  1.1675 -1.4267  0.0113
  774MOL0     H 2124   6.841   7.421   4.460 -0.3881  0.2329  1.8625
  774MOL0     H 2125   6.811   7.435   4.631  2.3298  0.6644 -1.1995
  774MOL0     H 2126   6.622   7.385   4.432 -0.5677 -1.3770 -0.9004
  774MOL0     H 2127   6.655   7.221   4.486 -2.7227  0.1263  0.7116
  774MOL0     H 2128   6.603   7.358   4.728  4.0778  2.8300 -2.3100
  774MOL0     H 2129   6.476   7.279   4.637 -0.5025  0.3107  0.1531
  774MOL0     H 2130   6.341   7.431   4.810  3.0098 -0.4816 -2.2166
  774MOL0     H 2131   6.107   7.457   4.822  3.2263  0.3234  2.7593
  774MOL0     H 2132   5.749   7.302   4.772  1.2116  0.7504 -2.3491
  774MOL0     H 2133   5.495   7.261   4.760 -0.7344  0.4365 -1.7927
  774MOL0     H 2134   5.142   7.346   4.762 -0.3277 -0.6655 -0.0234
  774MOL0     H 2135   5.298   7.268   4.796  0.5816 -0.6622  0.5843
  774MOL0     H 2136   5.329   7.239   4.539 -1.1065 -1.8815  0.1039
  774MOL0     H 2137   5.169   7.329   4.529  1.4764  2.6286  1.0420
  774MOL0     H 2138   5.133   7.075   4.511  0.9193 -0.6082  0.4646
  774MOL0     H 2139   5.095   7.136   4.676  4.0864  0.5281  5.0723
  774MOL0     H 2140   5.368   7.042   4.619 -0.7179  0.3408 -0.5851
  774MOL0     H 2141   5.286   7.040   4.780 -2.0724 -0.4043  1.1971
  774MOL0     H 2142   5.331   6.810   4.675 -0.5260 -0.8911 -0.1547
  774MOL0     H 2143   5.242   6.872   4.535  0.5466 -0.5427 -0.3433
  774MOL0     H 2144   5.022   6.862   4.679  2.7597  3.6295 -1.7479
  774MOL0     H 2145   5.118   6.846   4.823 -1.3156 -3.0454  0.9944
  774MOL0     H 2146   5.206   6.636   4.765  0.7532  1.2402  0.2991
  774MOL0     H 2147   5.037   6.633   4.761 -0.9635  1.2445  1.3620
  774MOL0     H 2148   5.120   6.491   4.597 -0.7891 -0.7797  0.4149
  774MOL0     H 2149   5.195   6.629   4.502  0.0959  1.7333  1.1405
  774MOL0     H 2150   5.446   7.668   4.645  1.1201 -0.3107  0.2418
  774MOL0     H 2151   5.692   7.713   4.665 -2.4869 -0.7915 -2.1693
  774MOL0     H 2152   6.106   7.640   4.439 -0.1963  0.1608 -0.6728
  774MOL0     H 2153   6.341   7.576   4.406 -1.6953  0.6205 -0.3610
  774MOL0     H 2154   8.023   7.482   5.276 -1.3039  1.9452 -1.5278
  774MOL0     H 2155   7.937   7.494   5.502  1.0624 -0.7810 -0.4952
  774MOL0     H 2156   7.543   7.243   5.709 -4.0225 -1.0827  2.8778
  774MOL0     H 2157   7.407   7.156   5.869  0.4126  1.9693 -0.3474
  774MOL0     H 2158   7.316   6.975   6.011  1.9490 -2.5838  1.6542
  774MOL0     H 2159   7.336   7.149   6.049 -0.1051 -0.5403 -2.2965
  774MOL0     H 2160   7.338   7.087   6.285  0.2317  0.5860 -0.9127
  774MOL0     H 2161   7.193   7.005   6.205 -0.7522 -4.0567 -1.8721
  774MOL0     H 2162   7.430   6.885   6.344  0.3084  4.8281  0.0592
  774MOL0     H 2163   7.389   6.807   6.196  0.8436  0.8068 -0.1617
  774MOL0     H 2164   7.190   6.853   6.435 -2.9526 -0.9804 -0.3911
  774MOL0     H 2165   7.151   6.825   6.267  0.6487 -0.1005  1.1780
  774MOL0     H 2166   7.294   6.457   6.429  2.5507 -0.5047 -1.7884
  774MOL0     H 2167   7.741   6.946   6.040 -1.3010 -0.0465  1.6329
  774MOL0     H 2168   7.893   7.034   5.855  1.2108  1.0887  0.3461
  775MOL0     O 2169   0.282   2.403  10.468 -0.4541  0.5774 -0.9502
  775MOL0     C 2170   0.251   2.345  10.368  0.5769  0.3360 -0.1884
  775MOL0     O 2171   0.320   2.340  10.247  0.2204  0.6351  0.3208
  775MOL0     C 2172   0.435   2.416  10.220 -0.5774 -0.2180  0.3617
  775MOL0     C 2173   0.507   2.373  10.113 -0.0395 -0.4292  0.0610
  775MOL0     C 2174   0.599   2.454  10.039 -0.6555  0.2252  0.0751
  775MOL0     C 2175   0.630   2.574  10.100 -0.5907 -0.8046 -0.6480
  775MOL0     O 2176   0.737   2.648  10.061  0.1153 -0.2218 -1.1655
  775MOL0     C 2177   0.720   2.788  10.047  0.0726  0.0917 -0.4048
  775MOL0     C 2178   0.845   2.858   9.988 -0.6035 -0.0843 -0.4282
  775MOL0     C 2179   0.985   2.804  10.031  0.3988  0.7406  0.4244
  775MOL0     C 2180   1.103   2.867   9.963 -0.4575 -0.0544 -0.0980
  775MOL0     C 2181   1.227   2.815  10.031 -0.1163 -0.0232  0.8262
  775MOL0     C 2182   1.343   2.868   9.940  0.3653  0.2234  0.5176
  775MOL0     C 2183   1.384   3.020   9.956  1.0731 -0.5382 -0.6820
  775MOL0     C 2184   1.483   3.057  10.068 -0.1799  0.3121  0.4703
  775MOL0     N 2185   1.504   3.196  10.083 -0.1287 -0.4250  0.2235
  775MOL0     C 2186   1.440   3.288  10.167  0.5366  0.1136  0.5567
  775MOL0     C 2187   1.493   3.406  10.129  0.1793  0.1508 -0.1936
  775MOL0     C 2188   1.484   3.551  10.165 -0.5149  0.2587 -0.2346
  775MOL0     C 2189   1.561   3.608  10.294 -1.0277  0.6459  0.9187
  775MOL0     C 2190   1.650   3.513  10.374 -0.7372  0.0274  0.0143
  775MOL0     C 2191   1.792   3.511  10.305  0.1259  0.8643 -0.2998
  775MOL0     O 2192   1.869   3.390  10.360  0.3826 -0.6610 -0.2604
  775MOL0     C 2193   2.007   3.397  10.375 -0.0130 -0.2980  0.4075
  775MOL0     C 2194   2.068   3.307  10.468 -0.0255 -0.1441 -0.6107
  775MOL0     C 2195   2.209   3.311  10.486 -0.1013 -0.2290  0.3538
  775MOL0     C 2196   2.280   3.415  10.424 -0.4159  0.8521 -0.4058
  775MOL0     C 2197   2.428   3.420  10.447 -0.6689  0.1563 -1.5059
  775MOL0     O 2198   2.486   3.546  10.458  0.3794 -0.3936 -1.3146
  775MOL0     C 2199   2.616   3.574  10.434 -0.0450 -0.6079  0.0364
  775MOL0     C 2200   2.648   3.716  10.453 -0.9100  0.4597  0.3209
  775MOL0     C 2201   2.788   3.739  10.453  0.2222  0.7042 -0.9151
  775MOL0     C 2202   2.891   3.663  10.406  0.1735 -0.2661 -0.6494
  775MOL0     O 2203   3.032   3.690  10.396  0.0199  0.7223 -0.0059
  775MOL0     C 2204   3.084   3.823  10.427  1.4193  1.0671 -0.4224
  775MOL0     C 2205   3.085   3.828  10.581 -0.1775  0.2409  0.5685
  775MOL0     C 2206   3.224   3.819  10.633 -0.1534  0.1135 -1.0611
  775MOL0     C 2207   3.288   3.687  10.590 -0.9026  0.2104 -0.4296
  775MOL0     C 2208   3.414   3.651  10.668 -0.4012 -0.2109 -0.5429
  775MOL0     C 2209   3.529   3.736  10.633 -0.5246  0.2764  0.0453
  775MOL0     C 2210   3.647   3.676  10.708 -0.0988  0.6818 -0.3488
  775MOL0     C 2211   3.787   3.710  10.657  0.6709 -0.5332 -0.4868
  775MOL0    Cl 2212   3.809   3.871  10.728  0.4807 -0.1517  0.0967
  775MOL0     C 2213   2.847   3.538  10.371 -0.0470 -0.0723  0.7311
  775MOL0     C 2214   2.710   3.488  10.383 -1.2208 -0.3619  0.4865
  775MOL0     O 2215   2.489   3.310  10.456 -0.0861 -0.2053  0.1578
  775MOL0     C 2216   2.217   3.514  10.353 -0.0653  0.3081  0.2251
  775MOL0     C 2217   2.078   3.498  10.318 -1.3500 -0.4993  0.8190
  775MOL0     N 2218   1.585   3.380  10.023  0.6174 -0.3349  0.1081
  775MOL0     N 2219   1.583   3.254   9.997 -0.5216  0.6605  0.7189
  775MOL0     C 2220   0.561   2.617  10.212  0.4382 -1.2031 -0.4385
  775MOL0     C 2221   0.453   2.549  10.267 -0.0204  0.3040  1.0012
  775MOL0     C 2222   0.122   2.267  10.370 -0.0987 -0.7228 -0.1481
  775MOL0     C 2223   0.020   2.330  10.424  0.5644 -0.3589  0.9248
  775MOL0     C 2224  -0.101   2.260  10.444 -0.9563 -0.3888  1.0555
  775MOL0     C 2225  -0.119   2.131  10.400  0.1201  0.8623 -0.3178
  775MOL0     O 2226  -0.241   2.082  10.439 -0.1314  0.9871 -0.3969
  775MOL0     C 2227  -0.246   1.932  10.427  0.6221  0.4056  1.0335
  775MOL0     C 2228  -0.319   1.878  10.297  0.2676  0.3379 -0.5708
  775MOL0     C 2229  -0.466   1.925  10.282 -0.3230  0.4137  0.8001
  775MOL0     C 2230  -0.499   1.938  10.138  1.1227  0.1456  0.7051
  775MOL0     C 2231  -0.495   1.807  10.072  0.0337 -0.0743 -0.0053
  775MOL0     C 2232  -0.491   1.693  10.033  0.3778  0.5394  0.0013
  775MOL0     C 2233  -0.016   2.068  10.328  0.3264  0.0410  0.3055
  775MOL0     C 2234   0.112   2.138  10.329 -0.3233  0.9971  0.5576
  775MOL0     H 2235   0.465   2.281  10.073 -3.6431  1.4313 -0.8153
  775MOL0     H 2236   0.648   2.431   9.945 -0.6163 -1.9692  0.5925
  775MOL0     H 2237   0.689   2.835  10.141  0.4443 -0.2563 -0.0981
  775MOL0     H 2238   0.635   2.797   9.980  0.1052 -3.1714 -1.0741
  775MOL0     H 2239   0.839   2.966  10.007 -0.9099 -0.0772 -0.5595
  775MOL0     H 2240   0.853   2.858   9.879  2.7988  1.0089 -0.2872
  775MOL0     H 2241   0.987   2.695  10.018  1.4660  0.5277  2.0348
  775MOL0     H 2242   0.997   2.822  10.138 -1.9244 -2.7750  1.4531
  775MOL0     H 2243   1.101   2.852   9.855  0.0202  1.9304 -0.4175
  775MOL0     H 2244   1.095   2.976   9.973  1.9979  0.0360  1.7809
  775MOL0     H 2245   1.231   2.705  10.028  0.8240 -0.0178 -1.9475
  775MOL0     H 2246   1.244   2.836  10.137  1.8996  0.3093  0.4870
  775MOL0     H 2247   1.326   2.839   9.836  0.4499 -3.3265  1.3685
  775MOL0     H 2248   1.436   2.823   9.975 -0.7664 -0.6059  2.6372
  775MOL0     H 2249   1.433   3.044   9.861 -1.8275  0.6574 -2.0077
  775MOL0     H 2250   1.296   3.084   9.972  2.0566  0.4600  0.9814
  775MOL0     H 2251   1.580   3.009  10.050 -0.2351  0.7946 -1.2397
  775MOL0     H 2252   1.434   3.018  10.158  0.7032 -0.7222  0.5370
  775MOL0     H 2253   1.363   3.276  10.243 -1.8338  3.2456 -1.0806
  775MOL0     H 2254   1.376   3.574  10.163 -0.7196 -0.7364 -1.9267
  775MOL0     H 2255   1.527   3.616  10.089  0.6374 -0.1607  0.0441
  775MOL0     H 2256   1.482   3.638  10.364 -0.4208  2.5811  0.8240
  775MOL0     H 2257   1.627   3.689  10.263  0.2802  0.6446  3.5109
  775MOL0     H 2258   1.662   3.555  10.475  1.0308  0.5853 -0.3871
  775MOL0     H 2259   1.617   3.409  10.378 -4.3078  0.9092 -2.3113
  775MOL0     H 2260   1.845   3.604  10.327  0.6285 -0.1151  3.3455
  775MOL0     H 2261   1.784   3.500  10.196  0.3602  0.4744 -0.2836
  775MOL0     H 2262   2.002   3.252  10.535  0.5165  1.8461  1.7021
  775MOL0     H 2263   2.258   3.235  10.546  0.9881 -0.1706 -0.4387
  775MOL0     H 2264   2.571   3.789  10.473  0.8265  3.2179 -2.2156
  775MOL0     H 2265   2.809   3.842  10.479 -1.6799  0.9243 -0.0312
  775MOL0     H 2266   3.021   3.893  10.372 -2.7626 -2.8366 -1.2221
  775MOL0     H 2267   3.190   3.831  10.398  1.2597 -1.2748 -2.0285
  775MOL0     H 2268   3.031   3.743  10.623  2.9178 -0.6357  3.1370
  775MOL0     H 2269   3.027   3.917  10.609  1.5911  1.8979 -0.7796
  775MOL0     H 2270   3.219   3.826  10.742 -2.2633 -1.3881 -1.0057
  775MOL0     H 2271   3.284   3.903  10.596 -0.4489 -0.8962 -4.1770
  775MOL0     H 2272   3.216   3.604  10.591  0.0857 -0.6711 -0.9036
  775MOL0     H 2273   3.303   3.696  10.482 -1.4553 -1.8733 -0.7291
  775MOL0     H 2274   3.438   3.545  10.652 -2.7860 -1.2344  1.8698
  775MOL0     H 2275   3.397   3.664  10.775 -2.2793  1.8886 -1.0222
  775MOL0     H 2276   3.518   3.844  10.645 -1.9590  0.1106  0.3192
  775MOL0     H 2277   3.550   3.731  10.526 -0.3669  2.8863 -0.1032
  775MOL0     H 2278   3.645   3.703  10.814 -1.7083  1.2178 -0.4914
  775MOL0     H 2279   3.649   3.567  10.699 -2.3628  0.3381  2.0581
  775MOL0     H 2280   3.790   3.715  10.547  0.0800  0.5911 -0.4659
  775MOL0     H 2281   3.856   3.642  10.707  0.1253  0.0280  1.0756
  775MOL0     H 2282   2.919   3.471  10.325 -0.6064  1.2954 -2.3984
  775MOL0     H 2283   2.700   3.383  10.356  2.9167 -1.7778  3.5001
  775MOL0     H 2284   2.274   3.593  10.306 -0.4373  0.9340  0.8087
  775MOL0     H 2285   2.044   3.568  10.243 -2.1819 -2.8168 -1.0691
  775MOL0     H 2286   0.593   2.709  10.260 -1.3143 -0.7847 -0.0168
  775MOL0     H 2287   0.382   2.575  10.345 -1.4608 -1.8863  0.5254
  775MOL0     H 2288   0.027   2.431  10.462 -0.7082  0.8247 -1.7126
  775MOL0     H 2289  -0.171   2.311  10.510 -0.0233  1.2691  0.8230
  775MOL0     H 2290  -0.315   1.886  10.499 -1.5751 -2.6845 -2.6340
  775MOL0     H 2291  -0.152   1.881  10.447 -1.2649 -2.4633  3.3739
  775MOL0     H 2292  -0.258   1.906  10.210 -0.6991  4.8420 -0.0308
  775MOL0     H 2293  -0.321   1.770  10.311  1.2762  0.6900  3.4886
  775MOL0     H 2294  -0.468   2.026  10.325  4.2610  2.2370 -2.3835
  775MOL0     H 2295  -0.530   1.855  10.337  3.1368 -2.4401  1.5775
  775MOL0     H 2296  -0.594   1.987  10.116  1.3519  2.1472  3.6475
  775MOL0     H 2297  -0.435   2.003  10.077 -0.0560 -0.8501 -1.7193
  775MOL0     H 2298  -0.475   1.589  10.009 -2.6209 -0.2766  1.0554
  775MOL0     H 2299  -0.024   1.969  10.283  2.5432 -2.1987  4.2483
  775MOL0     H 2300   0.201   2.092  10.290 -0.5435 -2.5310  3.6765
  776MOL0     O 2301   1.265   3.071  10.517  0.2910  0.1977  0.0378
  776MOL0     C 2302   1.236   3.189  10.540  0.0671  0.1519  0.4518
  776MOL0     O 2303   1.299   3.266  10.638 -0.5091 -0.7279 -0.2348
  776MOL0     C 2304   1.419   3.214  10.684 -0.2563  0.2222 -0.3521
  776MOL0     C 2305   1.543   3.282  10.656 -0.4487  0.6897  0.5898
  776MOL0     C 2306   1.669   3.225  10.701  2.0826 -0.0733  0.5379
  776MOL0     C 2307   1.669   3.123  10.795  0.1435  0.1531 -0.0694
  776MOL0     O 2308   1.778   3.083  10.872  0.3705  0.8740 -0.1965
  776MOL0     C 2309   1.906   3.111  10.827 -0.4138 -0.0093 -1.1868
  776MOL0     C 2310   1.993   3.036  10.931  0.4239 -0.8215  1.0025
  776MOL0     C 2311   2.145   3.047  10.897  0.5670  0.7691  0.6417
  776MOL0     C 2312   2.221   2.952  10.989  0.2650 -0.1676  0.3608
  776MOL0     C 2313   2.368   2.937  10.946  0.7198 -0.3132 -0.1936
  776MOL0     C 2314   2.458   2.846  11.034  0.5306 -0.8474  0.0537
  776MOL0     C 2315   2.605   2.894  11.039 -0.7439 -0.9918 -0.6663
  776MOL0     C 2316   2.694   2.794  11.112  0.0108  0.4593  0.0391
  776MOL0     N 2317   2.830   2.830  11.135  0.3796  0.2964 -0.0686
  776MOL0     C 2318   2.882   2.951  11.180  0.0884  0.2869  0.3943
  776MOL0     C 2319   3.011   2.930  11.209  0.1234  0.1205 -0.7433
  776MOL0     C 2320   3.085   3.043  11.271 -0.1100 -0.4589  0.9261
  776MOL0     C 2321   3.229   3.002  11.317 -0.4782 -0.2357  0.5045
  776MOL0     C 2322   3.321   2.957  11.204 -0.6331  1.1491  0.5375
  776MOL0     C 2323   3.334   3.047  11.080  0.1280  0.1738  0.6948
  776MOL0     O 2324   3.396   3.174  11.106  0.1680 -1.0626 -0.5520
  776MOL0     C 2325   3.337   3.276  11.047  0.4660 -0.1027 -0.1616
  776MOL0     C 2326   3.344   3.406  11.103 -0.6110  0.2289  0.4261
  776MOL0     C 2327   3.280   3.512  11.039 -0.3135 -0.3047  0.5823
  776MOL0     C 2328   3.191   3.485  10.933 -0.0269  0.3788 -0.5511
  776MOL0     C 2329   3.084   3.588  10.905  0.6881 -0.0087  0.0463
  776MOL0     O 2330   3.082   3.702  10.991 -0.0537 -0.1366 -0.3083
  776MOL0     C 2331   2.985   3.796  10.982 -0.2175  0.3105 -0.3418
  776MOL0     C 2332   2.974   3.878  11.100 -0.2091  0.0037  0.3091
  776MOL0     C 2333   2.873   3.973  11.120 -0.4761  0.0056 -0.4412
  776MOL0     C 2334   2.783   3.989  11.013 -0.1820 -0.6197  0.0513
  776MOL0     O 2335   2.681   4.082  11.013 -0.0136  0.8323 -0.2241
  776MOL0     C 2336   2.579   4.061  11.111  0.3315 -0.3612  0.1390
  776MOL0     C 2337   2.441   4.054  11.051 -0.2477 -0.2155 -0.7269
  776MOL0     C 2338   2.432   3.940  10.947 -0.6329 -0.0962 -0.1231
  776MOL0     C 2339   2.294   3.949  10.882 -0.3368  1.5683 -0.8600
  776MOL0     C 2340   2.287   3.849  10.769 -0.7507 -0.1190  0.6927
  776MOL0     C 2341   2.179   3.752  10.792  0.2185 -0.7136 -0.6948
  776MOL0     C 2342   2.147   3.668  10.674  0.1078 -0.4636  0.6326
  776MOL0     C 2343   2.024   3.593  10.706  1.1500 -0.1915  0.5586
  776MOL0    Cl 2344   2.064   3.466  10.823  0.2661 -0.1599 -0.4385
  776MOL0     C 2345   2.794   3.917  10.890  0.2643 -0.4541  0.2212
  776MOL0     C 2346   2.886   3.810  10.875  0.8804  0.8053  0.1652
  776MOL0     O 2347   3.014   3.562  10.809  0.4941 -0.1813 -0.2962
  776MOL0     C 2348   3.207   3.371  10.852  0.0824 -0.5224 -0.9358
  776MOL0     C 2349   3.276   3.262  10.915  0.2753 -0.1195 -0.2048
  776MOL0     N 2350   3.041   2.794  11.191  0.6337 -0.5068  0.6498
  776MOL0     N 2351   2.942   2.740  11.133  0.5506  0.4657 -0.3496
  776MOL0     C 2352   1.547   3.061  10.826  0.0707  0.1091  0.2229
  776MOL0     C 2353   1.421   3.102  10.775 -0.3272 -0.1061  0.7163
  776MOL0     C 2354   1.151   3.265  10.451  0.5509 -0.2500  0.0451
  776MOL0     C 2355   1.121   3.409  10.471 -0.5155  0.0904  0.0397
  776MOL0     C 2356   1.045   3.488  10.381 -0.1195  0.0533  0.4678
  776MOL0     C 2357   1.001   3.422  10.272  0.4797  0.4752 -0.4660
  776MOL0     O 2358   0.936   3.502  10.173 -0.6293  0.4465  0.7697
  776MOL0     C 2359   0.794   3.486  10.175  1.3447  0.0819  0.3547
  776MOL0     C 2360   0.738   3.488  10.027  0.1969  0.4758  0.1603
  776MOL0     C 2361   0.583   3.462  10.039  0.6107 -1.5242  0.2709
  776MOL0     C 2362   0.523   3.499   9.892  0.0694 -0.1930  1.1282
  776MOL0     C 2363   0.381   3.462   9.876 -0.5027 -0.2394 -0.4193
  776MOL0     C 2364   0.276   3.410   9.887 -0.2399 -0.0295 -0.4836
  776MOL0     C 2365   1.032   3.285  10.239  0.1855  0.5616 -0.0520
  776MOL0     C 2366   1.099   3.207  10.333 -0.9843  0.0032  0.5217
  776MOL0     H 2367   1.546   3.369  10.592  2.6523 -0.0834 -0.4708
  776MOL0     H 2368   1.761   3.276  10.673  0.2425  2.0763 -2.0827
  776MOL0     H 2369   1.922   3.219  10.833  1.6118 -0.3006 -0.8642
  776MOL0     H 2370   1.926   3.067  10.729 -1.4549  0.0977 -1.4656
  776MOL0     H 2371   1.974   2.928  10.933 -0.7294 -0.6673 -0.3435
  776MOL0     H 2372   1.986   3.072  11.034  2.9618 -4.3332  2.6063
  776MOL0     H 2373   2.188   3.146  10.916  2.8142 -0.5394  2.9518
  776MOL0     H 2374   2.165   3.019  10.794 -0.6103 -0.8697  0.8175
  776MOL0     H 2375   2.227   2.975  11.095 -0.3490 -1.5164  0.7070
  776MOL0     H 2376   2.182   2.852  10.970  0.9643 -0.2489 -0.7308
  776MOL0     H 2377   2.426   3.030  10.949 -1.8393  1.4145 -1.1757
  776MOL0     H 2378   2.378   2.893  10.847 -1.8397 -1.3526 -0.0606
  776MOL0     H 2379   2.458   2.742  11.002  0.0873 -0.9757  0.4547
  776MOL0     H 2380   2.413   2.850  11.134 -2.3745  2.6422 -1.1650
  776MOL0     H 2381   2.646   2.914  10.939  0.1286 -2.4183 -0.6187
  776MOL0     H 2382   2.599   2.989  11.092 -2.2692 -0.2826 -2.0420
  776MOL0     H 2383   2.704   2.702  11.054  4.5845 -1.0149  2.6418
  776MOL0     H 2384   2.657   2.773  11.213 -0.0434 -3.1090 -0.5716
  776MOL0     H 2385   2.827   3.044  11.172  1.0624  0.9936  1.5969
  776MOL0     H 2386   3.045   3.079  11.367  1.2163  2.6481  0.4334
  776MOL0     H 2387   3.093   3.131  11.207  2.6028 -0.3503  1.3323
  776MOL0     H 2388   3.223   2.921  11.389 -1.2522 -1.5601 -0.9999
  776MOL0     H 2389   3.280   3.090  11.360 -0.9775  0.3651 -0.1075
  776MOL0     H 2390   3.423   2.935  11.236  0.2156 -0.8874 -3.0387
  776MOL0     H 2391   3.283   2.863  11.165  1.3714 -0.2421  1.7670
  776MOL0     H 2392   3.238   3.053  11.029  0.1796 -0.9113  0.4399
  776MOL0     H 2393   3.414   3.005  11.018 -1.4349 -1.4462 -0.3353
  776MOL0     H 2394   3.407   3.419  11.190  2.6172 -1.5663 -1.4321
  776MOL0     H 2395   3.285   3.611  11.083 -1.3200  0.0605 -0.0977
  776MOL0     H 2396   3.049   3.859  11.175 -2.3050  0.9929  2.8087
  776MOL0     H 2397   2.862   4.036  11.208 -1.3191 -0.2656 -0.3441
  776MOL0     H 2398   2.586   4.140  11.187  1.5693  1.0966 -1.4233
  776MOL0     H 2399   2.594   3.963  11.157 -0.2893 -0.7439 -0.4586
  776MOL0     H 2400   2.403   4.144  11.001  0.1643  1.2523  1.4678
  776MOL0     H 2401   2.366   4.039  11.130  0.9119 -0.8732  0.2811
  776MOL0     H 2402   2.449   3.844  10.998 -3.6221  0.2842  1.8685
  776MOL0     H 2403   2.504   3.963  10.868  2.3787 -0.0683  2.4550
  776MOL0     H 2404   2.214   3.944  10.957  0.7542  2.7793  0.4485
  776MOL0     H 2405   2.276   4.039  10.822  0.3663  1.2051 -1.6380
  776MOL0     H 2406   2.382   3.795  10.769  0.3205  1.6280 -0.7871
  776MOL0     H 2407   2.288   3.900  10.672  1.5256  1.3390  1.3881
  776MOL0     H 2408   2.090   3.803  10.829 -0.8817  0.6298 -4.6671
  776MOL0     H 2409   2.204   3.677  10.867 -2.7027 -0.6187  0.5220
  776MOL0     H 2410   2.119   3.730  10.589 -1.0443  0.8265  1.9034
  776MOL0     H 2411   2.231   3.604  10.644  0.9345  1.1441 -0.5781
  776MOL0     H 2412   1.991   3.547  10.612 -2.5656  0.3826  1.4057
  776MOL0     H 2413   1.934   3.649  10.732 -1.3055 -3.5752 -0.0238
  776MOL0     H 2414   2.731   3.947  10.806  2.2601  0.4153 -1.0331
  776MOL0     H 2415   2.864   3.736  10.799 -2.7535  0.6315  1.1746
  776MOL0     H 2416   3.146   3.361  10.764 -0.0067  3.0810 -1.4626
  776MOL0     H 2417   3.272   3.165  10.868  1.9581 -0.1140 -0.4068
  776MOL0     H 2418   1.565   2.980  10.897 -1.4955 -0.2290  0.2802
  776MOL0     H 2419   1.322   3.060  10.791  0.1984 -2.7535 -2.0181
  776MOL0     H 2420   1.143   3.467  10.559 -0.0123  0.6308 -0.4339
  776MOL0     H 2421   1.014   3.591  10.394 -1.3615 -0.3280  0.7400
  776MOL0     H 2422   0.753   3.572  10.227  0.1327 -1.1307  1.4959
  776MOL0     H 2423   0.752   3.400  10.228 -1.7270  0.3057 -1.4538
  776MOL0     H 2424   0.757   3.587   9.986  0.4606  1.3067  2.1874
  776MOL0     H 2425   0.790   3.422   9.957  2.0103  2.1278 -0.1178
  776MOL0     H 2426   0.539   3.534  10.109 -3.4436 -3.6431  0.2143
  776MOL0     H 2427   0.562   3.358  10.063  1.8561 -1.8536 -0.0406
  776MOL0     H 2428   0.527   3.608   9.882  2.8679 -0.2041  1.5045
  776MOL0     H 2429   0.585   3.452   9.814 -1.7412 -0.1858 -0.3981
  776MOL0     H 2430   0.175   3.374   9.890 -0.2327 -0.0057  2.4210
  776MOL0     H 2431   1.009   3.234  10.146 -0.8238 -0.2310  0.6117
  776MOL0     H 2432   1.120   3.104  10.307  3.0992 -0.5172  4.6514
  777MOL0     O 2433   4.571   9.999  11.412 -0.1336  0.3275 -0.0176
  777MOL0     C 2434   4.473   9.964  11.343 -0.1559 -0.3789 -0.9032
  777MOL0     O 2435   4.349   9.935  11.388 -0.3934 -0.3987 -0.2439
  777MOL0     C 2436   4.302   9.934  11.519 -0.5320  0.4921  0.2285
  777MOL0     C 2437   4.173   9.894  11.527  0.2644  0.2689  0.0518
  777MOL0     C 2438   4.123   9.874  11.656  0.4347 -0.7606 -0.0375
  777MOL0     C 2439   4.198   9.900  11.772  0.2280  0.4758 -0.6164
  777MOL0     O 2440   4.153   9.897  11.900  0.3062  0.1254 -0.2067
  777MOL0     C 2441   4.026   9.843  11.935  0.3911  0.0945 -0.7592
  777MOL0     C 2442   4.001   9.884  12.081  0.3493 -0.2663 -0.4360
  777MOL0     C 2443   3.852   9.864  12.129 -0.9527  0.3827 -0.1845
  777MOL0     C 2444   3.819   9.713  12.147  0.0023 -1.3212  0.2155
  777MOL0     C 2445   3.692   9.705  12.241  0.5952  1.1303  0.8925
  777MOL0     C 2446   3.650   9.556  12.261 -0.1914  0.0411  0.6026
  777MOL0     C 2447   3.532   9.524  12.352 -0.2756 -0.1147  0.3994
  777MOL0     C 2448   3.502   9.378  12.377  0.4437 -0.4241 -0.5203
  777MOL0     N 2449   3.588   9.309  12.462 -0.2760  0.2077  1.2304
  777MOL0     C 2450   3.698   9.235  12.423  1.1492  0.4319  0.4485
  777MOL0     C 2451   3.767   9.221  12.538 -0.2506 -0.2423 -0.2715
  777MOL0     C 2452   3.900   9.149  12.523  0.5229  1.0107  0.2266
  777MOL0     C 2453   3.870   9.001  12.493 -0.2605  0.0958  0.9262
  777MOL0     C 2454   3.861   8.953  12.346 -0.5784  0.1461 -0.0581
  777MOL0     C 2455   3.961   9.024  12.242 -0.3743  0.3220 -0.1344
  777MOL0     O 2456   3.933   9.156  12.215 -0.5980  0.6881 -0.7110
  777MOL0     C 2457   4.001   9.228  12.118 -0.8052  0.5985 -0.4875
  777MOL0     C 2458   3.946   9.351  12.078  0.0983 -0.8902  0.3407
  777MOL0     C 2459   4.010   9.425  11.983 -0.1393 -0.3656 -0.8344
  777MOL0     C 2460   4.111   9.375  11.902 -0.1608  0.2613  0.0161
  777MOL0     C 2461   4.153   9.436  11.769  0.8436  0.0866  0.3395
  777MOL0     O 2462   4.232   9.363  11.677 -0.8213  0.6080 -0.2631
  777MOL0     C 2463   4.304   9.415  11.567  0.5605  0.9742  0.2149
  777MOL0     C 2464   4.385   9.319  11.513  0.3428  0.4208 -0.0674
  777MOL0     C 2465   4.448   9.327  11.386 -0.0038 -0.5483 -0.1362
  777MOL0     C 2466   4.423   9.448  11.319 -0.1793 -0.4878  0.9018
  777MOL0     O 2467   4.470   9.484  11.200 -0.3591  0.2622  0.0676
  777MOL0     C 2468   4.605   9.548  11.207  0.0465 -1.0762  0.5405
  777MOL0     C 2469   4.637   9.622  11.076  0.7621 -0.7615 -0.3634
  777MOL0     C 2470   4.777   9.698  11.089  0.8439 -0.0071  0.2201
  777MOL0     C 2471   4.808   9.728  10.936  0.0331  0.0334  0.0049
  777MOL0     C 2472   4.889   9.620  10.867 -0.3386  1.0930 -0.5751
  777MOL0     C 2473   4.929   9.646  10.713  0.0960  0.2566  0.0113
  777MOL0     C 2474   5.038   9.553  10.654  0.3032 -0.2015  0.0541
  777MOL0     C 2475   5.005   9.407  10.664 -0.6100  0.4888  0.5803
  777MOL0    Cl 2476   5.140   9.320  10.741  0.0300 -0.2207 -0.2297
  777MOL0     C 2477   4.342   9.545  11.373  0.7689 -0.6013 -0.4659
  777MOL0     C 2478   4.277   9.536  11.489  0.6541  0.0776 -1.6822
  777MOL0     O 2479   4.139   9.559  11.762  0.5344  0.6862  0.0567
  777MOL0     C 2480   4.169   9.258  11.933  0.1345  0.6084  0.4481
  777MOL0     C 2481   4.123   9.187  12.042  0.3406  0.3874 -1.1859
  777MOL0     N 2482   3.691   9.262  12.649 -0.7805  0.4566 -0.2137
  777MOL0     N 2483   3.600   9.333  12.596 -0.0946  0.4803  0.6322
  777MOL0     C 2484   4.323   9.947  11.760  0.0399  0.7157  1.2704
  777MOL0     C 2485   4.378   9.962  11.637 -0.8303  0.5225  0.2291
  777MOL0     C 2486   4.477   9.964  11.199  0.2813 -0.8648  0.5618
  777MOL0     C 2487   4.575  10.043  11.134  0.2687 -0.3270  0.1496
  777MOL0     C 2488   4.586  10.046  10.988 -0.4423 -1.1329  0.0527
  777MOL0     C 2489   4.490   9.982  10.911  0.1699 -0.3550  0.3540
  777MOL0     O 2490   4.504   9.963  10.780  0.3036  0.2481  0.0900
  777MOL0     C 2491   4.618  10.010  10.700 -0.1760 -0.1105 -0.2564
  777MOL0     C 2492   4.563  10.018  10.563  0.7717  0.1201 -0.4592
  777MOL0     C 2493   4.677  10.012  10.455  0.6372  0.3457  0.6791
  777MOL0     C 2494   4.722   9.878  10.428 -0.5682 -0.1890  0.0146
  777MOL0     C 2495   4.826   9.869  10.332  0.8225  0.7710 -1.0445
  777MOL0     C 2496   4.927   9.869  10.263  0.4783  0.4921 -0.3885
  777MOL0     C 2497   4.383   9.919  10.972 -0.4509  0.1169 -0.6244
  777MOL0     C 2498   4.379   9.905  11.115  0.5723  0.0656 -0.5148
  777MOL0     H 2499   4.111   9.868  11.442 -1.2005  2.3847  0.3942
  777MOL0     H 2500   4.019   9.845  11.670 -0.0810  0.9975  0.0541
  777MOL0     H 2501   4.014   9.736  11.916 -1.8429 -0.4009  2.6679
  777MOL0     H 2502   3.955   9.908  11.882  0.7492  1.2964  0.1926
  777MOL0     H 2503   4.031   9.989  12.091 -5.8014  1.9403 -1.0792
  777MOL0     H 2504   4.058   9.821  12.151 -3.0252 -2.1033  0.8923
  777MOL0     H 2505   3.790   9.906  12.050  1.1635  1.0332 -1.5814
  777MOL0     H 2506   3.833   9.926  12.218  0.7131 -2.6153  2.4561
  777MOL0     H 2507   3.789   9.674  12.049  1.9323  1.1222 -1.4547
  777MOL0     H 2508   3.906   9.660  12.187  0.6982 -0.2053  0.2154
  777MOL0     H 2509   3.606   9.754  12.195 -0.1384 -0.7313  0.1699
  777MOL0     H 2510   3.707   9.749  12.340  2.2587 -1.3354  1.8335
  777MOL0     H 2511   3.733   9.500  12.306 -3.1493 -3.7956  1.8042
  777MOL0     H 2512   3.628   9.516  12.161  1.3356 -1.4597  0.8083
  777MOL0     H 2513   3.548   9.573  12.448 -1.7045  1.4490 -0.1199
  777MOL0     H 2514   3.440   9.575  12.320 -1.8573 -2.3399  1.1318
  777MOL0     H 2515   3.513   9.339  12.275 -1.6649  0.5468 -1.1767
  777MOL0     H 2516   3.402   9.364  12.417 -0.0168 -2.6754 -2.2407
  777MOL0     H 2517   3.716   9.220  12.317 -1.0320 -0.7066  0.1953
  777MOL0     H 2518   3.959   9.146  12.615 -2.0571 -1.1291  1.9565
  777MOL0     H 2519   3.956   9.197  12.442  0.7537 -3.4196 -2.5689
  777MOL0     H 2520   3.774   8.979  12.539 -0.4012 -3.9753 -0.9259
  777MOL0     H 2521   3.942   8.933  12.539 -1.9536 -2.4783 -0.0101
  777MOL0     H 2522   3.876   8.844  12.344  1.5510  0.3933  0.3277
  777MOL0     H 2523   3.756   8.966  12.319 -0.5842  1.8649  0.7175
  777MOL0     H 2524   3.948   8.963  12.152  0.6468 -0.2595  0.0965
  777MOL0     H 2525   4.066   9.007  12.268 -0.9834 -4.5013  0.0298
  777MOL0     H 2526   3.860   9.388  12.134 -1.6068 -0.6729 -2.2459
  777MOL0     H 2527   3.973   9.526  11.971 -2.6695 -1.4119 -2.6929
  777MOL0     H 2528   4.393   9.225  11.568  1.5681 -1.9210 -3.8336
  777MOL0     H 2529   4.521   9.258  11.346 -1.8654 -3.6383  1.4639
  777MOL0     H 2530   4.687   9.477  11.224 -1.0935 -2.5457  0.1313
  777MOL0     H 2531   4.613   9.617  11.291 -0.6593  0.4037 -0.5636
  777MOL0     H 2532   4.556   9.693  11.059  1.6079  0.2657 -0.2329
  777MOL0     H 2533   4.633   9.559  10.987 -1.5440  1.1374 -1.7327
  777MOL0     H 2534   4.856   9.631  11.124 -0.0398 -0.7910  0.7368
  777MOL0     H 2535   4.777   9.789  11.149  4.8196 -2.0321  3.8006
  777MOL0     H 2536   4.724   9.745  10.869 -0.0917  3.0186  0.7657
  777MOL0     H 2537   4.874   9.815  10.938  3.3018 -2.2312  0.7104
  777MOL0     H 2538   4.832   9.528  10.853  1.9889  0.0597 -4.9723
  777MOL0     H 2539   4.976   9.593  10.929 -0.4500 -1.3480 -1.4004
  777MOL0     H 2540   4.961   9.750  10.709 -3.4130  1.5024  0.3442
  777MOL0     H 2541   4.833   9.633  10.662  0.3052 -2.5364  0.1721
  777MOL0     H 2542   5.068   9.580  10.552  2.8986  3.6999  1.6202
  777MOL0     H 2543   5.129   9.578  10.709  0.1548  1.5967 -0.4535
  777MOL0     H 2544   4.995   9.363  10.564 -1.0122  1.2015  0.3008
  777MOL0     H 2545   4.917   9.383  10.724 -0.8637  0.4386  0.1900
  777MOL0     H 2546   4.305   9.625  11.310 -0.5599  0.8438  1.9532
  777MOL0     H 2547   4.198   9.598  11.531 -0.6966 -2.7268  0.2249
  777MOL0     H 2548   4.256   9.214  11.886 -0.2618  0.7100 -0.3881
  777MOL0     H 2549   4.181   9.101  12.072  1.9682  1.2929 -1.5853
  777MOL0     H 2550   4.380   9.975  11.848  0.0680  1.3110  1.0667
  777MOL0     H 2551   4.484   9.981  11.622 -1.2481  2.5276 -0.4376
  777MOL0     H 2552   4.651  10.096  11.189 -1.0643  0.3926  1.3649
  777MOL0     H 2553   4.660  10.112  10.945  0.2495 -0.9678  1.4462
  777MOL0     H 2554   4.699   9.938  10.716 -0.8155 -0.7876 -0.0157
  777MOL0     H 2555   4.645  10.110  10.734 -3.4765 -0.0857  2.8665
  777MOL0     H 2556   4.511   9.925  10.543  0.9949  0.1427 -1.1767
  777MOL0     H 2557   4.502  10.108  10.553  2.3692  1.5848  1.8019
  777MOL0     H 2558   4.755  10.085  10.480 -0.4905  2.3755 -1.3486
  777MOL0     H 2559   4.632  10.045  10.361  2.4698  0.2219 -0.2853
  777MOL0     H 2560   4.759   9.839  10.523  0.6869 -0.8719 -0.7163
  777MOL0     H 2561   4.640   9.821  10.382 -3.2240  3.0071  0.4242
  777MOL0     H 2562   5.012   9.895  10.203  0.5594  0.7231 -0.1761
  777MOL0     H 2563   4.311   9.861  10.916  1.8770 -0.7960 -2.8518
  777MOL0     H 2564   4.294   9.852  11.156  2.0617 -3.0336 -1.1812
  778MOL0     O 2565   1.911  11.010   6.574  0.8227  0.3664  0.2834
  778MOL0     C 2566   2.010  11.075   6.546  0.1584 -0.8460 -0.2728
  778MOL0     O 2567   2.079  11.163   6.632  0.2585 -0.1740 -0.6245
  778MOL0     C 2568   2.012  11.194   6.755  0.2114  0.4189  0.4855
  778MOL0     C 2569   2.002  11.102   6.859 -0.1230 -0.0804 -0.0844
  778MOL0     C 2570   1.940  11.144   6.979 -0.6273  0.5691 -0.6456
  778MOL0     C 2571   1.898  11.276   6.993  1.0493  0.4468  0.0734
  778MOL0     O 2572   1.834  11.318   7.109 -0.4924 -0.6949  0.1560
  778MOL0     C 2573   1.896  11.306   7.241 -0.2443 -0.1853  0.4142
  778MOL0     C 2574   1.812  11.372   7.352  0.0570  0.1988  0.6376
  778MOL0     C 2575   1.898  11.361   7.484  0.3648 -0.4746  0.8562
  778MOL0     C 2576   1.914  11.225   7.547  0.6098 -0.1632 -0.2757
  778MOL0     C 2577   2.010  11.254   7.665 -0.2307 -0.2328 -0.1106
  778MOL0     C 2578   2.088  11.129   7.723  0.6509 -0.6839  0.0686
  778MOL0     C 2579   2.165  11.174   7.845  0.6880 -0.1983 -0.3326
  778MOL0     C 2580   2.230  11.054   7.911  0.0224  0.7154  0.4308
  778MOL0     N 2581   2.295  11.084   8.042  0.0904  0.5122 -0.3071
  778MOL0     C 2582   2.350  11.203   8.087  0.3317  0.1275  0.2330
  778MOL0     C 2583   2.385  11.180   8.214 -1.3484  1.0879 -0.4064
  778MOL0     C 2584   2.424  11.290   8.311  0.5885 -0.2463 -0.3191
  778MOL0     C 2585   2.282  11.349   8.352 -0.1476  0.4774 -0.0645
  778MOL0     C 2586   2.318  11.438   8.481 -0.1598  0.2822  1.1467
  778MOL0     C 2587   2.333  11.353   8.609  0.5448  0.3399 -0.6803
  778MOL0     O 2588   2.308  11.441   8.720 -0.1292  0.8195  0.2828
  778MOL0     C 2589   2.398  11.434   8.829 -0.2729 -0.4706  0.1634
  778MOL0     C 2590   2.367  11.361   8.944 -0.0993 -0.1249 -0.3911
  778MOL0     C 2591   2.469  11.355   9.051  1.3560  0.1438  0.2582
  778MOL0     C 2592   2.597  11.417   9.049 -0.3972 -0.5366  0.2076
  778MOL0     C 2593   2.681  11.412   9.162 -0.4170 -0.8286 -0.1513
  778MOL0     O 2594   2.782  11.503   9.161  0.0084 -0.2498  0.0508
  778MOL0     C 2595   2.870  11.508   9.266 -0.0522  0.0084 -0.9297
  778MOL0     C 2596   2.835  11.573   9.394 -0.2533  0.4708  0.2562
  778MOL0     C 2597   2.927  11.559   9.506  0.7570 -0.6229  0.4466
  778MOL0     C 2598   3.052  11.506   9.487  1.4608  0.2019 -0.4011
  778MOL0     O 2599   3.121  11.485   9.603 -0.6767 -0.6677  0.1026
  778MOL0     C 2600   3.192  11.610   9.619 -0.7422  0.6660 -0.0379
  778MOL0     C 2601   3.157  11.637   9.773 -0.6305 -0.8636  0.6127
  778MOL0     C 2602   3.214  11.782   9.820 -0.2614 -0.0448  0.2463
  778MOL0     C 2603   3.225  11.785   9.967  0.3482  0.4745 -0.3110
  778MOL0     C 2604   3.227  11.925  10.035  0.2686 -0.1426 -0.4219
  778MOL0     C 2605   3.188  11.937  10.180 -0.2047  0.3398 -0.9224
  778MOL0     C 2606   3.164  12.080  10.219  0.2251 -0.4894  0.0448
  778MOL0     C 2607   3.014  12.123  10.189 -0.7023 -1.7276  0.1008
  778MOL0    Cl 2608   2.969  12.295  10.222 -0.7209 -0.2072  0.0036
  778MOL0     C 2609   3.085  11.450   9.358 -0.3929  0.9349 -0.8086
  778MOL0     C 2610   2.991  11.442   9.255  0.0439 -0.4185 -0.3023
  778MOL0     O 2611   2.669  11.320   9.246 -0.1514 -0.4632  0.0737
  778MOL0     C 2612   2.622  11.494   8.928  0.3217  0.0806 -0.0576
  778MOL0     C 2613   2.528  11.489   8.815  0.2144  0.1810 -0.5037
  778MOL0     N 2614   2.358  11.048   8.242 -0.5132  0.5037 -0.1799
  778MOL0     N 2615   2.295  10.991   8.138 -0.5537 -0.7859  0.5191
  778MOL0     C 2616   1.914  11.371   6.892  0.4566  0.0333 -0.2318
  778MOL0     C 2617   1.965  11.320   6.771 -0.0426 -0.3084 -0.2237
  778MOL0     C 2618   2.066  11.068   6.408 -1.1182  0.4461 -0.3319
  778MOL0     C 2619   2.029  10.959   6.324 -0.2335 -0.6415  0.5075
  778MOL0     C 2620   2.079  10.942   6.189  0.0253  0.1507 -0.6734
  778MOL0     C 2621   2.183  11.032   6.145  1.1323  0.5320  0.4388
  778MOL0     O 2622   2.216  11.034   6.016 -0.0991  0.1070  0.6997
  778MOL0     C 2623   2.178  10.934   5.925  0.2099  0.1473  0.4573
  778MOL0     C 2624   2.238  10.960   5.791  0.1819 -0.1553  0.2093
  778MOL0     C 2625   2.191  10.866   5.689 -0.8940 -1.4426 -0.4539
  778MOL0     C 2626   2.269  10.888   5.556  0.7011 -0.4719 -0.7201
  778MOL0     C 2627   2.256  10.769   5.476 -0.2583  0.3250 -0.9099
  778MOL0     C 2628   2.248  10.661   5.424  0.3513 -0.3039  0.5468
  778MOL0     C 2629   2.225  11.136   6.232 -0.0876  0.9182 -0.0528
  778MOL0     C 2630   2.172  11.147   6.367 -0.3294 -1.3286  0.2641
  778MOL0     H 2631   2.037  10.999   6.852 -2.9514 -1.3316  2.1454
  778MOL0     H 2632   1.920  11.089   7.071 -1.4848  2.0251  0.0914
  778MOL0     H 2633   1.991  11.359   7.234 -0.1190 -0.3264  1.0383
  778MOL0     H 2634   1.911  11.202   7.273 -1.8264 -0.2717  0.9672
  778MOL0     H 2635   1.719  11.319   7.370  0.5264 -0.7709  0.3045
  778MOL0     H 2636   1.787  11.474   7.322  1.8694  0.9123  1.3799
  778MOL0     H 2637   1.854  11.433   7.553 -0.5708 -0.1551 -0.0415
  778MOL0     H 2638   1.998  11.397   7.456  0.4478 -2.2850 -1.5544
  778MOL0     H 2639   1.821  11.192   7.594  1.3603 -0.2066  1.2668
  778MOL0     H 2640   1.949  11.157   7.469 -0.2147 -1.5870  0.5418
  778MOL0     H 2641   1.954  11.302   7.746 -0.6342  2.5635 -1.9248
  778MOL0     H 2642   2.087  11.319   7.622  1.8664 -2.8697 -0.5917
  778MOL0     H 2643   2.149  11.085   7.644  2.6659  1.7334  0.1234
  778MOL0     H 2644   2.013  11.053   7.745 -1.8203  1.8274  0.9041
  778MOL0     H 2645   2.229  11.257   7.814  0.7318  0.4072  1.2746
  778MOL0     H 2646   2.101  11.224   7.917  1.8326  1.2632 -0.2862
  778MOL0     H 2647   2.300  11.000   7.847 -0.0207 -1.2734  1.9620
  778MOL0     H 2648   2.158  10.975   7.935  2.7771 -1.4924  2.0398
  778MOL0     H 2649   2.343  11.297   8.032 -0.9319 -0.1255 -0.0727
  778MOL0     H 2650   2.481  11.371   8.266  0.1132  0.2699 -0.0032
  778MOL0     H 2651   2.473  11.244   8.397 -2.0516 -1.0173  0.8692
  778MOL0     H 2652   2.228  11.262   8.390  1.6513 -0.0257  1.4827
  778MOL0     H 2653   2.230  11.393   8.266 -4.6979 -1.9902  1.1305
  778MOL0     H 2654   2.409  11.496   8.467 -1.9676  3.2207  0.6185
  778MOL0     H 2655   2.253  11.525   8.490  3.1825  3.3036 -1.3168
  778MOL0     H 2656   2.433  11.313   8.627 -0.3676 -1.3267  1.1648
  778MOL0     H 2657   2.260  11.272   8.616  2.5610 -1.4834  0.5652
  778MOL0     H 2658   2.266  11.320   8.949  0.0430 -0.3780  0.7377
  778MOL0     H 2659   2.450  11.300   9.142  2.1875  0.4114  0.6018
  778MOL0     H 2660   2.745  11.630   9.413 -1.7691 -1.2089 -1.3958
  778MOL0     H 2661   2.894  11.587   9.606 -0.6949 -2.2224  0.4676
  778MOL0     H 2662   3.158  11.692   9.555  0.8129  0.4849 -1.1246
  778MOL0     H 2663   3.300  11.595   9.616  0.5239  6.6238  1.2863
  778MOL0     H 2664   3.190  11.556   9.839 -2.5878 -2.7556 -0.5845
  778MOL0     H 2665   3.049  11.650   9.787 -0.3619  2.8984  0.1561
  778MOL0     H 2666   3.171  11.871   9.774  0.9932  1.5721  2.0183
  778MOL0     H 2667   3.318  11.785   9.785 -0.7451 -0.3150 -1.2809
  778MOL0     H 2668   3.133  11.748  10.015  0.5618  0.2682 -0.0545
  778MOL0     H 2669   3.303  11.717  10.002 -3.3970 -4.8891 -1.0197
  778MOL0     H 2670   3.174  11.994   9.969  1.0404  0.1231 -0.7801
  778MOL0     H 2671   3.333  11.944  10.019  0.0167 -0.7350 -3.2923
  778MOL0     H 2672   3.270  11.902  10.244  0.0872  1.4739 -0.6640
  778MOL0     H 2673   3.101  11.872  10.190  0.3674 -0.3507 -0.1615
  778MOL0     H 2674   3.178  12.094  10.327  3.8109  1.2563 -0.5098
  778MOL0     H 2675   3.238  12.145  10.171 -1.4278  1.0108 -0.5725
  778MOL0     H 2676   2.948  12.066  10.255 -1.4023 -1.1506 -0.0885
  778MOL0     H 2677   2.988  12.106  10.084 -1.4805  0.6575 -0.1640
  778MOL0     H 2678   3.185  11.408   9.346 -1.2050 -1.9878  1.3294
  778MOL0     H 2679   3.012  11.392   9.161  2.2293 -4.1777  1.9365
  778MOL0     H 2680   2.716  11.546   8.911  0.5462 -0.3390 -0.1010
  778MOL0     H 2681   2.560  11.537   8.723  4.1947  1.7426  1.4277
  778MOL0     H 2682   1.870  11.470   6.907 -0.0749 -0.2665  0.2425
  778MOL0     H 2683   1.954  11.386   6.685 -1.1030 -0.8471 -0.5221
  778MOL0     H 2684   1.951  10.888   6.351  0.5513 -1.8226 -0.2120
  778MOL0     H 2685   2.029  10.870   6.125 -1.2379 -0.3680  0.8289
  778MOL0     H 2686   2.070  10.932   5.906  0.3272  1.5568 -0.5711
  778MOL0     H 2687   2.215  10.839   5.963  1.4867  0.0020 -1.0312
  778MOL0     H 2688   2.224  11.065   5.763  2.9653  1.5194  4.2091
  778MOL0     H 2689   2.344  10.938   5.810  0.0771 -0.0456  0.9348
  778MOL0     H 2690   2.089  10.896   5.663 -1.3551 -1.1214  1.5553
  778MOL0     H 2691   2.188  10.764   5.728  1.2044 -0.8013  1.6387
  778MOL0     H 2692   2.229  10.977   5.507 -1.4580  0.2968  2.1968
  778MOL0     H 2693   2.374  10.913   5.575  0.6194 -0.7304  0.1179
  778MOL0     H 2694   2.236  10.556   5.407 -0.7117 -0.0018 -0.7965
  778MOL0     H 2695   2.312  11.199   6.215 -0.5383  1.4864 -0.2775
  778MOL0     H 2696   2.216  11.229   6.423  3.2699  0.3457 -4.3187
  779MOL0     O 2697   2.243   7.673   5.937 -0.0425 -0.4020 -0.8371
  779MOL0     C 2698   2.309   7.636   5.840  0.0457 -1.1427  0.4187
  779MOL0     O 2699   2.374   7.721   5.762 -0.4387  0.3630  0.4384
  779MOL0     C 2700   2.396   7.844   5.803 -0.5582 -0.2459 -0.7645
  779MOL0     C 2701   2.443   7.867   5.927 -0.4334 -0.2395 -0.0266
  779MOL0     C 2702   2.473   7.996   5.970 -0.0869 -0.4817 -0.3189
  779MOL0     C 2703   2.474   8.112   5.886 -0.1717  0.0495  0.3228
  779MOL0     O 2704   2.499   8.240   5.924  0.0208 -0.0335 -0.5554
  779MOL0     C 2705   2.513   8.261   6.067 -0.0865  0.7619  0.5892
  779MOL0     C 2706   2.491   8.402   6.102  0.9772  0.2706  0.6760
  779MOL0     C 2707   2.489   8.426   6.253 -0.1014  0.8593  0.7499
  779MOL0     C 2708   2.411   8.551   6.291 -0.6721  0.4732  0.2856
  779MOL0     C 2709   2.450   8.689   6.214 -0.8538  0.0530 -0.4885
  779MOL0     C 2710   2.418   8.803   6.310 -0.2173  0.7166 -0.0866
  779MOL0     C 2711   2.429   8.938   6.231  0.0418  0.9408 -0.0306
  779MOL0     C 2712   2.462   9.056   6.324  0.5040 -0.1117  0.4612
  779MOL0     N 2713   2.491   9.174   6.238  0.7201 -0.2237  0.5512
  779MOL0     C 2714   2.406   9.228   6.140  0.2541  0.0451  0.0054
  779MOL0     C 2715   2.468   9.347   6.098 -0.6952 -0.0511 -0.0530
  779MOL0     C 2716   2.415   9.459   6.014 -0.5997 -0.5996  0.0838
  779MOL0     C 2717   2.351   9.581   6.092  0.3614  0.1234  0.4517
  779MOL0     C 2718   2.471   9.671   6.132  0.2462 -1.0158  0.0716
  779MOL0     C 2719   2.420   9.796   6.206 -0.0092  0.5700 -0.3921
  779MOL0     O 2720   2.518   9.897   6.200 -0.2210 -0.4735 -0.2104
  779MOL0     C 2721   2.609   9.908   6.296 -0.1232  0.3589 -0.0156
  779MOL0     C 2722   2.631   9.811   6.394  0.1141  0.4913 -0.0182
  779MOL0     C 2723   2.715   9.836   6.498  1.1175 -0.0905  0.4494
  779MOL0     C 2724   2.769   9.966   6.524  0.7674  0.6405 -0.5572
  779MOL0     C 2725   2.858  10.005   6.639  0.6399  0.5337 -1.1336
  779MOL0     O 2726   2.874  10.143   6.662  0.5396 -0.3817  0.7564
  779MOL0     C 2727   2.968  10.178   6.750 -0.4310 -0.8674 -0.5038
  779MOL0     C 2728   2.964  10.149   6.884  0.6508  0.2864 -0.2456
  779MOL0     C 2729   3.068  10.177   6.973  0.2217  0.2056 -0.8218
  779MOL0     C 2730   3.185  10.238   6.926 -0.8397 -0.3416  0.2868
  779MOL0     O 2731   3.308  10.253   6.989  0.8236  0.8644 -0.2159
  779MOL0     C 2732   3.337  10.384   7.042  0.1428  0.5693 -0.5575
  779MOL0     C 2733   3.471  10.400   7.111  0.6672 -0.2680  0.8722
  779MOL0     C 2734   3.587  10.382   7.011  0.5989  0.0411 -0.3154
  779MOL0     C 2735   3.720  10.316   7.058 -0.3694  0.1768 -0.0778
  779MOL0     C 2736   3.798  10.415   7.141 -0.2064  0.4131  0.5942
  779MOL0     C 2737   3.898  10.350   7.235 -0.2406  0.1016 -0.2815
  779MOL0     C 2738   4.012  10.287   7.146 -0.3980  1.5249 -0.3059
  779MOL0     C 2739   4.113  10.216   7.229  0.0387 -0.7227  0.4248
  779MOL0    Cl 2740   4.233  10.123   7.120  0.3519  0.0793 -0.0866
  779MOL0     C 2741   3.186  10.282   6.796  1.3166  0.1365  0.6196
  779MOL0     C 2742   3.068  10.269   6.712  0.0585  0.4378  0.0325
  779MOL0     O 2743   2.898   9.924   6.716  0.1332  0.2990  0.8728
  779MOL0     C 2744   2.742  10.058   6.424  0.2164  0.3316 -0.0429
  779MOL0     C 2745   2.667  10.034   6.311 -0.4094 -0.6978 -0.3683
  779MOL0     N 2746   2.593   9.347   6.158  0.3030  1.4153 -0.2852
  779MOL0     N 2747   2.597   9.258   6.247 -0.4269  0.4939 -1.2362
  779MOL0     C 2748   2.427   8.083   5.755 -0.1833 -0.5452 -0.2321
  779MOL0     C 2749   2.392   7.952   5.714  0.4529 -0.4811 -1.2374
  779MOL0     C 2750   2.298   7.496   5.800 -0.5046  0.1369  0.0837
  779MOL0     C 2751   2.192   7.416   5.847  0.6423 -0.2668 -0.3524
  779MOL0     C 2752   2.189   7.282   5.818  0.6960 -0.2145 -0.5933
  779MOL0     C 2753   2.263   7.225   5.719  0.7266  0.8160 -0.0548
  779MOL0     O 2754   2.229   7.098   5.675 -0.3723  0.0345 -0.5036
  779MOL0     C 2755   2.100   7.111   5.604 -0.4730 -0.2209 -0.5077
  779MOL0     C 2756   2.073   6.983   5.517 -0.4687 -0.1287 -0.6246
  779MOL0     C 2757   2.165   6.971   5.400  0.2164  0.0583  0.4145
  779MOL0     C 2758   2.115   6.871   5.287 -0.2081  0.1674 -0.5846
  779MOL0     C 2759   2.122   6.734   5.360 -0.3031 -0.0613  0.6976
  779MOL0     C 2760   2.120   6.635   5.431  0.1684  0.0653 -0.0862
  779MOL0     C 2761   2.352   7.310   5.655 -1.1790  0.5246 -0.4732
  779MOL0     C 2762   2.379   7.439   5.699  0.3155 -0.4373  0.0926
  779MOL0     H 2763   2.445   7.782   5.994 -3.1489 -0.1180  0.3565
  779MOL0     H 2764   2.515   7.999   6.070 -0.7409 -3.9392  0.1874
  779MOL0     H 2765   2.614   8.234   6.097 -0.5536 -0.4275  1.1745
  779MOL0     H 2766   2.440   8.197   6.117 -0.4735 -0.9955 -1.9871
  779MOL0     H 2767   2.394   8.434   6.064  1.6246  1.3531 -0.1390
  779MOL0     H 2768   2.569   8.468   6.063  0.4435 -0.1048 -1.1429
  779MOL0     H 2769   2.589   8.433   6.297 -0.5734 -1.9746  2.5013
  779MOL0     H 2770   2.439   8.346   6.308  0.9913  0.1861  0.7971
  779MOL0     H 2771   2.304   8.544   6.269 -0.6701  0.9438  0.1144
  779MOL0     H 2772   2.439   8.552   6.397  0.1684 -1.4161  0.1134
  779MOL0     H 2773   2.381   8.699   6.130 -0.4041  3.1550 -0.6197
  779MOL0     H 2774   2.555   8.711   6.193 -0.8861  2.0553  1.1353
  779MOL0     H 2775   2.484   8.786   6.395  1.3820 -3.1381 -1.8197
  779MOL0     H 2776   2.314   8.800   6.343 -0.6262  2.7148 -1.0495
  779MOL0     H 2777   2.503   8.941   6.150  1.9707  0.8598  1.6586
  779MOL0     H 2778   2.334   8.952   6.177 -0.6575  0.2738  0.9830
  779MOL0     H 2779   2.544   9.037   6.394 -1.5099  1.6555  3.5488
  779MOL0     H 2780   2.378   9.092   6.384  0.0867  1.5991 -1.0492
  779MOL0     H 2781   2.307   9.200   6.105  0.8769 -1.3523 -0.7453
  779MOL0     H 2782   2.349   9.416   5.939  3.2279 -1.8898 -2.8409
  779MOL0     H 2783   2.494   9.499   5.950 -0.3795 -2.0068 -0.5627
  779MOL0     H 2784   2.296   9.547   6.179 -3.3827  1.3292 -1.2491
  779MOL0     H 2785   2.277   9.625   6.024 -0.1248 -2.9314 -1.2138
  779MOL0     H 2786   2.549   9.631   6.197  0.5614  2.7430  2.3028
  779MOL0     H 2787   2.517   9.706   6.039 -1.2747  0.9568 -0.0034
  779MOL0     H 2788   2.388   9.759   6.304  0.4056  1.3628  0.0555
  779MOL0     H 2789   2.335   9.848   6.162 -0.5615  0.8353  0.9196
  779MOL0     H 2790   2.582   9.714   6.399 -1.4104  1.1929 -0.5184
  779MOL0     H 2791   2.720   9.751   6.566 -0.8268  0.0758  0.8578
  779MOL0     H 2792   2.875  10.099   6.922  2.0964 -0.8470  1.8495
  779MOL0     H 2793   3.051  10.152   7.077  2.4588  0.4200 -0.3664
  779MOL0     H 2794   3.255  10.414   7.108 -1.3356 -1.4959 -1.3328
  779MOL0     H 2795   3.336  10.463   6.966 -0.4927 -0.9334 -2.1782
  779MOL0     H 2796   3.486  10.321   7.186 -2.2227  0.7512  2.6834
  779MOL0     H 2797   3.468  10.497   7.160 -2.1039  0.9139 -1.3647
  779MOL0     H 2798   3.617  10.486   6.996  0.4843  0.1899  0.4608
  779MOL0     H 2799   3.554  10.331   6.920 -2.6934 -0.9532  1.2999
  779MOL0     H 2800   3.708  10.217   7.102 -0.9834 -0.9602 -2.6212
  779MOL0     H 2801   3.772  10.306   6.963 -0.6961  0.8416 -0.3401
  779MOL0     H 2802   3.725  10.469   7.202  0.2588  2.7903 -0.8281
  779MOL0     H 2803   3.829  10.501   7.081  1.2162  1.7983  3.0872
  779MOL0     H 2804   3.858  10.275   7.304 -2.3359  1.5565  0.1792
  779MOL0     H 2805   3.942  10.429   7.297 -0.2718  0.0821 -0.2342
  779MOL0     H 2806   3.973  10.224   7.066  0.6277  0.5401 -0.0628
  779MOL0     H 2807   4.062  10.361   7.083 -1.1456 -0.0217 -2.8319
  779MOL0     H 2808   4.053  10.146   7.288  0.4480  1.3241  3.4876
  779MOL0     H 2809   4.157  10.284   7.301 -0.6121  1.4823 -1.1611
  779MOL0     H 2810   3.261  10.345   6.748 -1.3072  1.8740 -1.4759
  779MOL0     H 2811   3.084  10.287   6.606  5.7672 -3.3627 -0.1849
  779MOL0     H 2812   2.768  10.163   6.432 -1.3383  0.6861  0.8446
  779MOL0     H 2813   2.660  10.123   6.249 -0.8636  0.5719  1.4214
  779MOL0     H 2814   2.422   8.160   5.678 -1.2452 -0.1055  0.2533
  779MOL0     H 2815   2.356   7.929   5.614 -0.5974  1.8000 -1.4425
  779MOL0     H 2816   2.120   7.467   5.911  0.8294 -2.9652  2.2730
  779MOL0     H 2817   2.102   7.223   5.847  0.9997 -0.5077 -0.2552
  779MOL0     H 2818   2.098   7.206   5.549  1.9193 -1.0775 -2.2224
  779MOL0     H 2819   2.014   7.110   5.672 -0.6007 -0.4220 -0.6692
  779MOL0     H 2820   2.072   6.895   5.581 -0.4256  0.0165 -0.4244
  779MOL0     H 2821   1.972   7.010   5.484 -0.5051  0.8261  0.2242
  779MOL0     H 2822   2.267   6.936   5.416  2.0516  3.8661 -1.6192
  779MOL0     H 2823   2.183   7.069   5.356 -2.4475 -0.0575 -1.1516
  779MOL0     H 2824   2.007   6.877   5.268 -0.1252  0.5514 -0.9516
  779MOL0     H 2825   2.187   6.873   5.205  0.0241 -0.4182 -0.4003
  779MOL0     H 2826   2.132   6.555   5.501  1.1152  2.9352  3.2696
  779MOL0     H 2827   2.412   7.289   5.567 -1.1884  0.3033 -0.4269
  779MOL0     H 2828   2.462   7.489   5.651  1.2885 -2.7482 -0.7692
  780MOL0     O 2829  10.145   8.410   8.657 -0.0639  0.6041 -0.4111
  780MOL0     C 2830  10.098   8.525   8.654  0.4213  0.3127 -0.3640
  780MOL0     O 2831   9.974   8.553   8.594 -0.1327 -1.1444  0.6609
  780MOL0     C 2832   9.904   8.449   8.541 -0.2491 -0.6345  0.2374
  780MOL0     C 2833   9.777   8.429   8.584  0.1136  1.1714 -0.5462
  780MOL0     C 2834   9.706   8.318   8.529 -0.6756 -0.0073 -0.1556
  780MOL0     C 2835   9.755   8.250   8.414 -0.5050 -1.1147  0.7392
  780MOL0     O 2836   9.688   8.167   8.333  0.2529  0.1520 -0.5250
  780MOL0     C 2837   9.571   8.101   8.384  0.0071 -0.3066 -0.5501
  780MOL0     C 2838   9.622   7.974   8.453  0.1093 -0.6851  0.5640
  780MOL0     C 2839   9.510   7.860   8.487  0.3062  0.3018 -0.3449
  780MOL0     C 2840   9.418   7.798   8.378  0.3328 -0.6955  0.4686
  780MOL0     C 2841   9.360   7.663   8.421 -0.0325 -0.6540  0.1930
  780MOL0     C 2842   9.303   7.595   8.296  0.3573  0.1654  0.5515
  780MOL0     C 2843   9.215   7.469   8.324 -0.8055 -0.9486 -1.6707
  780MOL0     C 2844   9.318   7.345   8.300  0.3479  0.2949 -0.1658
  780MOL0     N 2845   9.307   7.244   8.411  0.8332  1.0428  0.1734
  780MOL0     C 2846   9.341   7.265   8.546  0.1486 -0.4651 -0.1734
  780MOL0     C 2847   9.371   7.141   8.590 -0.0118  0.4851  0.2452
  780MOL0     C 2848   9.435   7.106   8.720 -0.8400  0.5517 -0.2474
  780MOL0     C 2849   9.317   7.088   8.825 -0.8110  0.0429 -1.2289
  780MOL0     C 2850   9.220   6.969   8.808  0.4456 -0.9858  0.5083
  780MOL0     C 2851   9.300   6.836   8.778 -0.6239  0.7332 -0.0087
  780MOL0     O 2852   9.218   6.719   8.812 -1.0549 -0.7160  0.0249
  780MOL0     C 2853   9.258   6.596   8.757  0.1736  0.4025  0.2046
  780MOL0     C 2854   9.387   6.548   8.775  0.9521  0.4407  0.6032
  780MOL0     C 2855   9.426   6.419   8.732 -0.2131 -0.9544  0.2593
  780MOL0     C 2856   9.331   6.340   8.657  0.6155 -0.1842 -0.4943
  780MOL0     C 2857   9.370   6.216   8.591 -0.6840 -0.0612  0.3391
  780MOL0     O 2858   9.506   6.179   8.586  0.2153 -0.3555  0.2650
  780MOL0     C 2859   9.524   6.062   8.519 -0.2981  1.0819 -0.2092
  780MOL0     C 2860   9.594   6.059   8.395  0.5470  0.6568 -1.5607
  780MOL0     C 2861   9.616   5.938   8.339  0.8413  0.0554 -0.7378
  780MOL0     C 2862   9.577   5.814   8.398  0.0796  0.5260 -0.0633
  780MOL0     O 2863   9.627   5.695   8.345  1.2933 -0.2964  0.2984
  780MOL0     C 2864   9.551   5.573   8.351  0.1181  0.0461 -0.2648
  780MOL0     C 2865   9.648   5.455   8.345 -0.4038 -0.0107  0.6316
  780MOL0     C 2866   9.589   5.316   8.307  0.4203  0.3275 -0.1392
  780MOL0     C 2867   9.690   5.196   8.292  0.4011 -0.9859  0.7295
  780MOL0     C 2868   9.628   5.076   8.228 -0.7495  0.8699  0.0706
  780MOL0     C 2869   9.530   5.013   8.322 -0.5088 -0.5443 -0.1001
  780MOL0     C 2870   9.472   4.875   8.283 -0.5048 -0.6170  0.0454
  780MOL0     C 2871   9.323   4.847   8.312  0.7421  0.2653  0.3059
  780MOL0    Cl 2872   9.272   4.899   8.472  0.2684 -0.0740  0.3749
  780MOL0     C 2873   9.510   5.824   8.520  1.1624 -0.1438  0.0831
  780MOL0     C 2874   9.485   5.943   8.577  0.9822 -0.3666 -0.7940
  780MOL0     O 2875   9.276   6.159   8.531 -0.5475  0.0618 -0.0850
  780MOL0     C 2876   9.201   6.389   8.634 -0.2692 -0.6479 -0.2301
  780MOL0     C 2877   9.174   6.517   8.682  0.1668 -0.7016 -0.8269
  780MOL0     N 2878   9.352   7.059   8.487 -0.4347  0.3921 -0.1282
  780MOL0     N 2879   9.313   7.109   8.375 -0.3174  0.2591 -0.7245
  780MOL0     C 2880   9.885   8.286   8.359  0.2436 -0.3990 -0.0874
  780MOL0     C 2881   9.947   8.388   8.427 -1.0700  0.0332  0.1325
  780MOL0     C 2882  10.166   8.634   8.735  0.7855  0.7143 -0.1263
  780MOL0     C 2883  10.299   8.616   8.779  0.9242  0.2306 -0.2238
  780MOL0     C 2884  10.351   8.711   8.866  0.2634 -0.4363 -0.2744
  780MOL0     C 2885  10.290   8.825   8.900 -0.3315 -0.3130 -0.2137
  780MOL0     O 2886  10.344   8.927   8.976  0.5429  0.5929  0.8418
  780MOL0     C 2887  10.477   8.908   9.023  0.0821  1.0786 -0.7754
  780MOL0     C 2888  10.542   9.005   9.118 -0.4372  0.1426  0.3077
  780MOL0     C 2889  10.445   9.043   9.225  0.2426  0.0483 -0.2479
  780MOL0     C 2890  10.503   9.139   9.332  0.3873  0.0213  0.2196
  780MOL0     C 2891  10.401   9.183   9.423  0.2589 -1.7627  0.1685
  780MOL0     C 2892  10.316   9.226   9.499 -0.6174  0.4789  0.4327
  780MOL0     C 2893  10.155   8.840   8.857  1.0501 -0.5263  0.4063
  780MOL0     C 2894  10.094   8.746   8.769 -0.4302 -0.1670 -0.8376
  780MOL0     H 2895   9.746   8.489   8.669  2.9587  0.3504  1.1848
  780MOL0     H 2896   9.612   8.298   8.579  0.7496 -0.3902  2.5954
  780MOL0     H 2897   9.512   8.078   8.295 -3.1287  0.5973  1.1081
  780MOL0     H 2898   9.513   8.167   8.450  0.2600 -0.4001 -0.2312
  780MOL0     H 2899   9.675   8.010   8.541  0.9601 -1.8161  0.5352
  780MOL0     H 2900   9.697   7.927   8.389  1.0901  2.2658 -0.6510
  780MOL0     H 2901   9.454   7.912   8.565 -2.3462 -3.2722  0.4270
  780MOL0     H 2902   9.567   7.776   8.527 -1.2454  0.0084  1.3918
  780MOL0     H 2903   9.328   7.860   8.370  0.9860  0.4502  1.6504
  780MOL0     H 2904   9.459   7.801   8.276 -1.1980  2.2174 -0.1786
  780MOL0     H 2905   9.275   7.674   8.489 -1.2741 -0.7343 -1.2945
  780MOL0     H 2906   9.446   7.611   8.464  2.6962  2.9282 -0.4567
  780MOL0     H 2907   9.383   7.578   8.224  0.2503 -1.2767  0.7473
  780MOL0     H 2908   9.234   7.657   8.237 -2.3996 -4.0149 -1.1357
  780MOL0     H 2909   9.171   7.459   8.423  2.5746 -0.8790 -0.0091
  780MOL0     H 2910   9.142   7.456   8.244  0.8409 -4.1362 -2.8715
  780MOL0     H 2911   9.422   7.375   8.316  1.0910  0.7376 -4.5866
  780MOL0     H 2912   9.307   7.303   8.200  0.2874 -0.1480  0.0228
  780MOL0     H 2913   9.350   7.363   8.591  1.5548 -1.0565  0.9140
  780MOL0     H 2914   9.501   7.184   8.759  0.5967  0.3409 -2.1461
  780MOL0     H 2915   9.489   7.013   8.705 -3.1395 -0.4160 -3.4726
  780MOL0     H 2916   9.275   7.186   8.846  0.4482 -0.1920  3.1699
  780MOL0     H 2917   9.361   7.065   8.922 -1.0042 -0.3841 -1.2378
  780MOL0     H 2918   9.171   6.968   8.906 -0.4011  0.1191  0.1200
  780MOL0     H 2919   9.156   6.972   8.719 -2.4738 -2.0049  2.4358
  780MOL0     H 2920   9.394   6.845   8.834 -0.2534 -0.6248 -0.3769
  780MOL0     H 2921   9.327   6.831   8.672 -0.8697  1.9804 -0.1470
  780MOL0     H 2922   9.466   6.611   8.816  2.4702 -1.0453  0.0806
  780MOL0     H 2923   9.527   6.379   8.746 -0.0144 -0.6429 -0.2676
  780MOL0     H 2924   9.631   6.153   8.356 -0.8295  2.6202  1.4779
  780MOL0     H 2925   9.682   5.937   8.253  3.5721 -3.3999  1.1119
  780MOL0     H 2926   9.496   5.571   8.257  0.0953  0.5224 -0.2682
  780MOL0     H 2927   9.489   5.560   8.441 -0.9670  3.0151 -0.4417
  780MOL0     H 2928   9.698   5.440   8.441 -3.3578 -2.8273  1.9334
  780MOL0     H 2929   9.728   5.471   8.272 -3.1051 -0.6940 -2.7389
  780MOL0     H 2930   9.530   5.321   8.215  0.2497 -4.4238 -0.5475
  780MOL0     H 2931   9.520   5.288   8.388  2.7350  1.6673  2.4427
  780MOL0     H 2932   9.774   5.227   8.229 -0.8224 -3.2196 -2.2496
  780MOL0     H 2933   9.747   5.171   8.382  2.3536  2.4382  0.6009
  780MOL0     H 2934   9.707   5.002   8.212 -1.0150 -0.4049  3.7230
  780MOL0     H 2935   9.574   5.101   8.136 -0.2282  1.9956  0.0564
  780MOL0     H 2936   9.452   5.088   8.343  1.8491  2.2224 -0.4883
  780MOL0     H 2937   9.585   5.007   8.417 -0.6428 -0.1692  0.0044
  780MOL0     H 2938   9.486   4.854   8.177  2.6165  1.1718 -0.0248
  780MOL0     H 2939   9.527   4.799   8.339  1.1395  0.9257  0.6209
  780MOL0     H 2940   9.313   4.744   8.277  1.6830  0.8436 -1.8107
  780MOL0     H 2941   9.260   4.902   8.242  2.1479 -2.3557 -3.3438
  780MOL0     H 2942   9.465   5.734   8.560 -0.5921 -0.0312 -1.5222
  780MOL0     H 2943   9.434   5.937   8.673  0.1995 -3.5827 -1.3086
  780MOL0     H 2944   9.118   6.347   8.579 -0.1844 -0.8477 -0.2048
  780MOL0     H 2945   9.077   6.549   8.646 -0.2970 -1.3269 -0.1568
  780MOL0     H 2946   9.908   8.248   8.260 -0.8422  1.5478 -1.1539
  780MOL0     H 2947  10.041   8.423   8.387 -2.6216  2.3470 -1.7987
  780MOL0     H 2948  10.358   8.527   8.757 -1.8345 -1.8731  0.1908
  780MOL0     H 2949  10.453   8.677   8.880 -0.2573 -2.7723 -1.6874
  780MOL0     H 2950  10.541   8.909   8.934 -2.0568  0.1769 -2.4252
  780MOL0     H 2951  10.491   8.816   9.080  2.0949  1.5336 -0.4498
  780MOL0     H 2952  10.622   8.940   9.155 -1.9114 -1.5038  0.7862
  780MOL0     H 2953  10.569   9.088   9.053  0.7407 -1.0602 -0.8142
  780MOL0     H 2954  10.413   8.952   9.276  3.8534 -1.1641  0.1397
  780MOL0     H 2955  10.359   9.098   9.184  0.2563  1.2357  1.2576
  780MOL0     H 2956  10.574   9.083   9.393  0.4288  0.4353  0.5585
  780MOL0     H 2957  10.552   9.226   9.286 -0.9355  0.9904  0.5518
  780MOL0     H 2958  10.245   9.262   9.570  0.1688  1.5101  0.7285
  780MOL0     H 2959  10.098   8.928   8.885  0.9990  0.2778 -2.0124
  780MOL0     H 2960   9.996   8.758   8.724 -0.7472  0.2344 -0.0465
  781MOL0     O 2961   4.926   3.786   7.436 -0.1582 -0.2910 -0.1808
  781MOL0     C 2962   4.840   3.705   7.464  0.6511 -0.1585 -0.1815
  781MOL0     O 2963   4.750   3.655   7.372  0.3877 -0.6791  0.2507
  781MOL0     C 2964   4.754   3.715   7.244  0.4731  0.3496 -0.2669
  781MOL0     C 2965   4.654   3.816   7.211  0.5482  0.4103 -0.3347
  781MOL0     C 2966   4.654   3.877   7.085  1.1589 -0.6257  0.0515
  781MOL0     C 2967   4.755   3.859   6.988  0.3606  0.5479 -0.8749
  781MOL0     O 2968   4.755   3.921   6.869 -0.2196  0.2910  0.0707
  781MOL0     C 2969   4.657   4.011   6.826  0.7682 -0.5744  0.3989
  781MOL0     C 2970   4.681   4.145   6.900  0.7711 -0.1206 -0.8209
  781MOL0     C 2971   4.563   4.245   6.872 -0.5165  0.3810 -1.2388
  781MOL0     C 2972   4.543   4.286   6.723 -0.5390  0.4935 -0.6388
  781MOL0     C 2973   4.459   4.413   6.726  0.8828 -0.4687  0.3370
  781MOL0     C 2974   4.418   4.449   6.587  0.0001  0.2542 -0.5465
  781MOL0     C 2975   4.305   4.549   6.564 -1.3914 -0.5351  0.8556
  781MOL0     C 2976   4.170   4.507   6.619 -0.8686  0.4777  0.0133
  781MOL0     N 2977   4.092   4.418   6.518 -0.1851  0.1448  0.4781
  781MOL0     C 2978   4.069   4.286   6.540 -0.7905 -0.2227  0.4920
  781MOL0     C 2979   4.003   4.252   6.427 -0.0683 -0.4498  0.4205
  781MOL0     C 2980   3.939   4.122   6.390 -0.0833 -0.2081  0.8955
  781MOL0     C 2981   3.779   4.129   6.394 -1.1482 -0.6056 -0.3225
  781MOL0     C 2982   3.706   3.997   6.397 -0.0424  0.0588  1.0995
  781MOL0     C 2983   3.738   3.908   6.273 -0.2245 -0.5529 -0.7774
  781MOL0     O 2984   3.643   3.808   6.235 -0.6435  0.6323  0.2511
  781MOL0     C 2985   3.515   3.835   6.256  0.2415  0.0374  0.0215
  781MOL0     C 2986   3.453   3.783   6.367  0.7680  0.1801 -0.8489
  781MOL0     C 2987   3.318   3.802   6.382  0.6645  0.5323  0.0683
  781MOL0     C 2988   3.236   3.869   6.280  0.9575  0.2445 -0.6547
  781MOL0     C 2989   3.094   3.886   6.317 -0.0706  0.0678  0.0004
  781MOL0     O 2990   3.043   3.828   6.431  0.3909 -0.1047 -0.8360
  781MOL0     C 2991   2.913   3.818   6.457 -0.1759 -0.3483  0.1740
  781MOL0     C 2992   2.817   3.746   6.382  0.8405  0.2571 -0.6001
  781MOL0     C 2993   2.674   3.749   6.420  0.4435  0.0273  0.5289
  781MOL0     C 2994   2.628   3.821   6.538  0.6286  0.0763 -0.1105
  781MOL0     O 2995   2.492   3.838   6.576 -0.4123  0.8175 -0.1923
  781MOL0     C 2996   2.412   3.718   6.579  0.2852  0.1432 -0.9893
  781MOL0     C 2997   2.269   3.771   6.554  0.4599  0.7161  0.7490
  781MOL0     C 2998   2.251   3.789   6.401 -0.2683  0.0366  1.8800
  781MOL0     C 2999   2.124   3.855   6.367 -0.7323 -1.1020  0.1953
  781MOL0     C 3000   2.114   3.884   6.223 -0.3543 -0.3666  0.4039
  781MOL0     C 3001   2.236   3.954   6.163 -0.8293 -0.7573  0.3691
  781MOL0     C 3002   2.210   3.994   6.014  0.8435 -0.8540 -0.1527
  781MOL0     C 3003   2.309   4.080   5.964  0.0416  0.3248 -0.8066
  781MOL0    Cl 3004   2.269   4.255   5.987  0.2881  0.2111  0.3933
  781MOL0     C 3005   2.732   3.888   6.613  0.9477  0.1792 -0.3223
  781MOL0     C 3006   2.870   3.879   6.577  0.4495 -0.7946 -0.3483
  781MOL0     O 3007   3.031   3.943   6.229  0.1015  0.4372  0.2066
  781MOL0     C 3008   3.303   3.920   6.168 -0.7750 -0.1261 -0.0688
  781MOL0     C 3009   3.444   3.895   6.156 -0.1016  0.2845  0.7770
  781MOL0     N 3010   3.990   4.359   6.341 -0.1845  0.4914 -0.6153
  781MOL0     N 3011   4.055   4.456   6.390  0.6641 -0.1072  0.1586
  781MOL0     C 3012   4.848   3.752   7.016 -1.4761 -0.4997  0.0660
  781MOL0     C 3013   4.844   3.676   7.135 -0.7143  0.7075 -0.8585
  781MOL0     C 3014   4.838   3.648   7.597  0.6067  0.9910 -0.4950
  781MOL0     C 3015   4.899   3.711   7.708 -0.9269 -0.3464 -0.0037
  781MOL0     C 3016   4.899   3.633   7.828  0.0980  0.1027  0.5137
  781MOL0     C 3017   4.850   3.499   7.832  0.5589  1.1254  0.2614
  781MOL0     O 3018   4.854   3.430   7.944 -0.2526 -0.1263 -0.9678
  781MOL0     C 3019   4.927   3.488   8.055 -0.1500  0.3743  0.5994
  781MOL0     C 3020   4.918   3.408   8.189  0.4395 -0.5436  0.3288
  781MOL0     C 3021   4.964   3.268   8.156  0.6217 -1.0183  0.2513
  781MOL0     C 3022   4.960   3.185   8.287  0.3205  0.3051  0.8237
  781MOL0     C 3023   5.098   3.166   8.339  0.4173  0.8422  0.1745
  781MOL0     C 3024   5.213   3.158   8.379 -0.1120  1.0693  0.6924
  781MOL0     C 3025   4.795   3.449   7.713  0.6019  0.0501  0.2586
  781MOL0     C 3026   4.772   3.520   7.603 -1.0516  0.0032  0.0701
  781MOL0     H 3027   4.588   3.844   7.292 -1.1166 -0.9601 -1.1589
  781MOL0     H 3028   4.576   3.949   7.060  1.3020 -0.9902 -1.6018
  781MOL0     H 3029   4.558   3.972   6.852  1.0128 -2.2552 -1.0332
  781MOL0     H 3030   4.649   4.019   6.717  1.0225  0.0248  0.4200
  781MOL0     H 3031   4.777   4.184   6.864  0.1804  1.7163 -0.4969
  781MOL0     H 3032   4.691   4.129   7.007 -2.7249 -0.0408 -0.3912
  781MOL0     H 3033   4.601   4.334   6.924  2.1398 -2.2677  1.7834
  781MOL0     H 3034   4.471   4.211   6.920 -0.2664  1.7032  0.2846
  781MOL0     H 3035   4.643   4.319   6.692  1.1318 -1.4837  2.2148
  781MOL0     H 3036   4.518   4.190   6.677  3.9806 -3.0009  3.2112
  781MOL0     H 3037   4.523   4.492   6.766  0.6996  0.0182 -0.3094
  781MOL0     H 3038   4.371   4.384   6.785  1.2335 -0.2651  0.9603
  781MOL0     H 3039   4.383   4.352   6.551 -4.1236  1.6635 -0.8344
  781MOL0     H 3040   4.503   4.485   6.527 -0.7813  3.4133  0.0424
  781MOL0     H 3041   4.346   4.643   6.601  0.9769 -0.7508 -0.9875
  781MOL0     H 3042   4.299   4.567   6.456 -3.5094 -3.4481  0.3636
  781MOL0     H 3043   4.121   4.601   6.644 -3.1937 -0.7322  0.2943
  781MOL0     H 3044   4.179   4.459   6.717 -3.4258  0.0610  0.1092
  781MOL0     H 3045   4.080   4.217   6.623 -1.0123 -1.3800 -0.4175
  781MOL0     H 3046   3.978   4.041   6.453  1.8408 -1.3303 -1.5456
  781MOL0     H 3047   3.969   4.093   6.289 -0.0491  0.2603  0.7676
  781MOL0     H 3048   3.759   4.198   6.312 -2.4053 -0.6287 -0.0614
  781MOL0     H 3049   3.759   4.177   6.490 -1.7841  0.9413 -1.1951
  781MOL0     H 3050   3.719   3.943   6.490  2.1900  0.7868  1.2910
  781MOL0     H 3051   3.601   4.025   6.387 -0.1512 -0.9954 -4.8577
  781MOL0     H 3052   3.837   3.863   6.284 -0.6158 -1.3247 -0.3226
  781MOL0     H 3053   3.745   3.981   6.192 -1.1587 -1.3611 -1.6104
  781MOL0     H 3054   3.517   3.737   6.442  0.5297 -0.9614 -1.3390
  781MOL0     H 3055   3.270   3.771   6.474 -2.2330  1.2043 -1.1008
  781MOL0     H 3056   2.847   3.704   6.287 -0.1630  0.2688 -0.9299
  781MOL0     H 3057   2.606   3.684   6.365  2.4980 -2.8281  1.1425
  781MOL0     H 3058   2.410   3.665   6.675 -0.2337 -1.1422 -1.6917
  781MOL0     H 3059   2.431   3.649   6.497 -0.3063 -3.4547  1.6291
  781MOL0     H 3060   2.255   3.866   6.607 -2.0721 -0.6133  2.7059
  781MOL0     H 3061   2.199   3.703   6.603  1.4602 -0.4486  0.5978
  781MOL0     H 3062   2.250   3.689   6.356 -1.5506  0.4581  0.9164
  781MOL0     H 3063   2.335   3.846   6.360 -2.9806 -0.0315 -5.1924
  781MOL0     H 3064   2.042   3.794   6.407 -0.1960 -0.2154  2.8094
  781MOL0     H 3065   2.124   3.952   6.416  0.5177  0.9686 -3.4738
  781MOL0     H 3066   2.027   3.949   6.211  0.7461  2.1072  3.9620
  781MOL0     H 3067   2.091   3.788   6.176 -0.0409  0.3084 -1.1977
  781MOL0     H 3068   2.321   3.887   6.149 -2.0286 -2.3002  0.1385
  781MOL0     H 3069   2.257   4.046   6.218  0.2773 -1.5702  1.3565
  781MOL0     H 3070   2.203   3.907   5.948  2.2747 -2.1200  1.2947
  781MOL0     H 3071   2.117   4.053   6.019  2.9613  2.8962 -0.8743
  781MOL0     H 3072   2.306   4.067   5.855 -2.6866  0.1853 -0.7631
  781MOL0     H 3073   2.414   4.054   5.983  0.1305 -1.3031 -3.0922
  781MOL0     H 3074   2.718   3.963   6.690 -1.1780 -0.6737  0.2079
  781MOL0     H 3075   2.944   3.942   6.627  0.2131 -0.1120 -0.8322
  781MOL0     H 3076   3.249   3.978   6.093  0.0105  0.9527  0.1859
  781MOL0     H 3077   3.503   3.932   6.073 -1.1537  2.3978  0.9094
  781MOL0     H 3078   4.922   3.721   6.943  0.4153  0.9635  1.2485
  781MOL0     H 3079   4.926   3.608   7.157  0.3392  1.5718 -1.9589
  781MOL0     H 3080   4.936   3.813   7.715 -2.7922  0.6610 -2.7288
  781MOL0     H 3081   4.939   3.693   7.909  0.0606  1.0856 -0.1782
  781MOL0     H 3082   4.886   3.588   8.068 -2.0761  0.4913 -4.3380
  781MOL0     H 3083   5.032   3.500   8.025 -0.7564  1.4239 -1.2249
  781MOL0     H 3084   4.990   3.443   8.264  2.4555  0.4848 -1.9364
  781MOL0     H 3085   4.814   3.406   8.224  1.2394 -2.5716  2.9629
  781MOL0     H 3086   5.064   3.281   8.113  0.4709 -0.8557 -0.0500
  781MOL0     H 3087   4.887   3.235   8.086  0.2535 -3.0084  1.5151
  781MOL0     H 3088   4.897   3.223   8.368  2.9640  0.7662  2.8176
  781MOL0     H 3089   4.921   3.086   8.261  0.3407  0.6284 -0.5154
  781MOL0     H 3090   5.314   3.166   8.413 -0.9529  1.4892  3.2866
  781MOL0     H 3091   4.741   3.356   7.709  0.5146  0.1090  0.0439
  781MOL0     H 3092   4.715   3.472   7.524 -4.6387  1.3023  1.6684
  782MOL0     O 3093   6.077   2.843  10.265  0.7819 -0.2514  0.4295
  782MOL0     C 3094   6.195   2.830  10.234 -0.2701 -0.3870  0.2994
  782MOL0     O 3095   6.290   2.765  10.308  0.1899 -0.5267 -0.5024
  782MOL0     C 3096   6.249   2.717  10.426 -0.6026  0.7416 -0.2116
  782MOL0     C 3097   6.167   2.599  10.430 -0.6972 -0.0007 -0.1342
  782MOL0     C 3098   6.153   2.547  10.562 -0.1512 -0.7562  0.2109
  782MOL0     C 3099   6.190   2.620  10.672 -0.0320 -0.0526 -0.0253
  782MOL0     O 3100   6.171   2.584  10.797 -0.1854 -0.2780  0.3592
  782MOL0     C 3101   6.245   2.463  10.826 -0.0671  0.9839 -0.5068
  782MOL0     C 3102   6.165   2.402  10.937  0.0121  0.1502 -0.4734
  782MOL0     C 3103   6.197   2.265  11.014 -0.3745  0.1883  0.7414
  782MOL0     C 3104   6.344   2.250  11.059 -0.6093 -0.7159 -0.0007
  782MOL0     C 3105   6.364   2.106  11.092  0.0351  0.4674 -0.1252
  782MOL0     C 3106   6.503   2.100  11.170  0.4949  0.2345  0.6897
  782MOL0     C 3107   6.562   1.957  11.179 -0.1672  1.2610  0.0062
  782MOL0     C 3108   6.691   1.925  11.253  0.2772  0.8794 -0.6837
  782MOL0     N 3109   6.800   2.004  11.200 -0.3030  1.1882 -0.3172
  782MOL0     C 3110   6.903   1.960  11.124  0.3194  0.6454  0.2140
  782MOL0     C 3111   6.987   2.061  11.106 -0.4264 -1.3440  0.7461
  782MOL0     C 3112   7.113   2.056  11.031  0.1064 -0.7322 -1.3688
  782MOL0     C 3113   7.213   2.171  11.057 -0.0230  0.2775 -0.2916
  782MOL0     C 3114   7.332   2.152  10.969  0.0518  1.0865 -0.1907
  782MOL0     C 3115   7.443   2.262  10.968  0.3356  1.0544 -0.0493
  782MOL0     O 3116   7.568   2.218  10.918  0.1174 -0.4226 -0.7977
  782MOL0     C 3117   7.653   2.324  10.876  0.7034  0.9620 -0.1066
  782MOL0     C 3118   7.627   2.460  10.891 -0.1960  0.3924  0.1242
  782MOL0     C 3119   7.704   2.564  10.849  0.8841  0.5885  0.5455
  782MOL0     C 3120   7.815   2.531  10.771 -0.1864  0.1651  0.5095
  782MOL0     C 3121   7.902   2.634  10.700  0.9714  0.5580  0.5265
  782MOL0     O 3122   7.895   2.762  10.749  0.0857  0.1859  0.4183
  782MOL0     C 3123   7.971   2.850  10.683 -0.1936  0.5504 -0.4665
  782MOL0     C 3124   8.109   2.849  10.714  0.8374 -0.7487  0.1688
  782MOL0     C 3125   8.186   2.941  10.644 -0.2018 -0.5215  0.0466
  782MOL0     C 3126   8.137   3.030  10.548  0.0892 -0.1277 -0.7885
  782MOL0     O 3127   8.225   3.125  10.500  0.3225  0.4789 -0.1206
  782MOL0     C 3128   8.238   3.124  10.356  0.4504  0.6163 -2.0218
  782MOL0     C 3129   8.165   3.250  10.304  0.3017 -0.4302  0.5638
  782MOL0     C 3130   8.209   3.391  10.370  0.0981 -0.0090 -0.2547
  782MOL0     C 3131   8.138   3.509  10.309 -0.1783 -0.2771  0.3454
  782MOL0     C 3132   8.231   3.634  10.311  0.0674 -0.3738 -0.5077
  782MOL0     C 3133   8.143   3.755  10.274  0.0238 -0.5980 -0.5017
  782MOL0     C 3134   8.218   3.875  10.235 -1.0561 -0.7486 -0.7000
  782MOL0     C 3135   8.291   3.941  10.359 -0.9675  0.0197  0.4460
  782MOL0    Cl 3136   8.459   3.880  10.380  0.1534  0.2687  0.3317
  782MOL0     C 3137   8.002   3.028  10.521 -0.2842 -0.2865 -0.5888
  782MOL0     C 3138   7.926   2.929  10.591 -0.2890  0.1886  0.7829
  782MOL0     O 3139   7.980   2.589  10.618 -0.2192 -0.8322  0.0916
  782MOL0     C 3140   7.839   2.394  10.746  0.1285 -0.0994 -0.1250
  782MOL0     C 3141   7.770   2.295  10.803  1.0273 -0.0209  0.6012
  782MOL0     N 3142   6.946   2.168  11.175  0.2093  0.5535 -0.0353
  782MOL0     N 3143   6.830   2.126  11.231  0.2109  0.2732  0.0699
  782MOL0     C 3144   6.243   2.748  10.658 -1.2244  0.1666 -0.8176
  782MOL0     C 3145   6.276   2.798  10.539  0.1278 -0.3346  0.2490
  782MOL0     C 3146   6.231   2.902  10.107  0.2431  0.1725  0.9592
  782MOL0     C 3147   6.364   2.951  10.089 -0.1270 -0.6633  0.0994
  782MOL0     C 3148   6.397   3.013   9.967  0.8575 -1.3859  0.4951
  782MOL0     C 3149   6.311   3.018   9.862  0.5574 -0.3809 -0.3404
  782MOL0     O 3150   6.361   3.056   9.734  0.7106 -0.2435  0.5722
  782MOL0     C 3151   6.289   3.057   9.607 -0.1663 -0.0729  0.4059
  782MOL0     C 3152   6.333   3.174   9.518  0.6011  0.3692  0.0992
  782MOL0     C 3153   6.309   3.133   9.366  0.2494  0.9815  0.3776
  782MOL0     C 3154   6.407   3.030   9.310  0.2798 -0.1530 -0.5234
  782MOL0     C 3155   6.331   2.940   9.220  0.2401 -0.1540  0.5451
  782MOL0     C 3156   6.267   2.862   9.147  0.3426  0.9170 -0.4286
  782MOL0     C 3157   6.178   2.980   9.875  0.0778  0.3043 -0.2019
  782MOL0     C 3158   6.138   2.921   9.998  0.4118 -0.2867 -0.2933
  782MOL0     H 3159   6.135   2.551  10.338 -0.8154  3.9191 -2.3577
  782MOL0     H 3160   6.106   2.451  10.582 -1.7038  0.7647  5.4748
  782MOL0     H 3161   6.352   2.483  10.837 -0.2469  4.9603 -3.6875
  782MOL0     H 3162   6.231   2.386  10.750 -0.4475 -0.8504  1.3360
  782MOL0     H 3163   6.067   2.395  10.890  0.4424 -2.3092 -1.1374
  782MOL0     H 3164   6.165   2.484  11.010  0.9873  3.8087 -4.2239
  782MOL0     H 3165   6.179   2.189  10.938  1.1373  1.4029 -0.9362
  782MOL0     H 3166   6.127   2.258  11.098  0.8979 -0.7585  1.7726
  782MOL0     H 3167   6.420   2.287  10.990  0.9086  0.1499  2.0411
  782MOL0     H 3168   6.369   2.314  11.144  4.2905 -1.2292 -0.7746
  782MOL0     H 3169   6.361   2.036  11.009 -2.9274 -1.3046  1.3154
  782MOL0     H 3170   6.289   2.078  11.166 -0.8854  0.5806 -1.0044
  782MOL0     H 3171   6.469   2.129  11.270 -0.6585  0.6075  0.2090
  782MOL0     H 3172   6.582   2.163  11.128  0.3853 -0.4243 -0.5371
  782MOL0     H 3173   6.488   1.897  11.234 -2.7286  2.4860 -1.9080
  782MOL0     H 3174   6.576   1.922  11.077  1.4896 -0.6800  0.8290
  782MOL0     H 3175   6.717   1.820  11.234 -1.0372  0.3124  0.5010
  782MOL0     H 3176   6.683   1.948  11.359  1.3275  0.7367 -0.5582
  782MOL0     H 3177   6.913   1.857  11.090 -2.7445 -0.2434  1.5802
  782MOL0     H 3178   7.103   2.054  10.922 -1.4292 -2.5325 -1.2346
  782MOL0     H 3179   7.152   1.959  11.061 -1.0460 -0.4012  1.5916
  782MOL0     H 3180   7.237   2.159  11.163 -0.3897 -0.5440 -0.2964
  782MOL0     H 3181   7.154   2.262  11.047 -2.9537 -1.4109  0.4851
  782MOL0     H 3182   7.391   2.062  10.988 -0.8154  0.3745 -0.7634
  782MOL0     H 3183   7.297   2.132  10.868 -2.7005 -0.0840  0.8802
  782MOL0     H 3184   7.463   2.295  11.071  1.2652  0.4941 -0.0437
  782MOL0     H 3185   7.404   2.344  10.906 -0.3396 -0.4550 -1.6975
  782MOL0     H 3186   7.535   2.483  10.945 -0.2448 -1.8362  1.1161
  782MOL0     H 3187   7.661   2.663  10.858 -2.5235 -0.8122  0.9616
  782MOL0     H 3188   8.151   2.773  10.779  0.4018 -2.8094 -1.8522
  782MOL0     H 3189   8.293   2.944  10.656 -0.2334  0.2517  0.1818
  782MOL0     H 3190   8.182   3.036  10.323 -1.7459  0.6726  1.1559
  782MOL0     H 3191   8.343   3.127  10.322  1.4551 -1.6377  0.4983
  782MOL0     H 3192   8.057   3.237  10.313  0.1866 -1.1712 -1.4897
  782MOL0     H 3193   8.188   3.255  10.197  0.4127  0.1620  0.6112
  782MOL0     H 3194   8.316   3.394  10.351 -0.0294  2.1311 -0.8668
  782MOL0     H 3195   8.186   3.380  10.476  0.0070  2.7133  0.0651
  782MOL0     H 3196   8.093   3.495  10.210 -1.2074 -1.3482  0.9564
  782MOL0     H 3197   8.045   3.521  10.365 -2.0286 -0.4608 -2.4716
  782MOL0     H 3198   8.315   3.628  10.241 -1.4394 -2.1483 -2.2874
  782MOL0     H 3199   8.286   3.632  10.405  1.4144 -0.2290 -1.2696
  782MOL0     H 3200   8.077   3.783  10.356 -0.1577  0.7194 -1.0674
  782MOL0     H 3201   8.078   3.728  10.190 -0.1934 -0.2641 -0.4410
  782MOL0     H 3202   8.282   3.851  10.149 -0.6288  0.7224 -0.8181
  782MOL0     H 3203   8.159   3.961  10.205  1.1358  0.9929 -0.2580
  782MOL0     H 3204   8.245   3.927  10.457  3.4418  0.5374  2.8280
  782MOL0     H 3205   8.296   4.050  10.352  0.0989 -0.0586 -0.3500
  782MOL0     H 3206   7.969   3.104  10.451 -1.6696 -1.7485 -1.6049
  782MOL0     H 3207   7.823   2.899  10.572 -0.6815  2.0590 -0.2654
  782MOL0     H 3208   7.920   2.353  10.686  0.0953  1.7636 -1.5326
  782MOL0     H 3209   7.803   2.191  10.801 -2.2139 -1.1576 -0.8818
  782MOL0     H 3210   6.252   2.799  10.753 -0.5161  2.5351 -2.0783
  782MOL0     H 3211   6.341   2.885  10.542  1.5318 -1.3691  2.0958
  782MOL0     H 3212   6.440   2.945  10.167  3.6814 -0.2055 -3.2484
  782MOL0     H 3213   6.500   3.029   9.940 -0.1841  3.0989 -1.6781
  782MOL0     H 3214   6.181   3.068   9.621 -0.1160 -0.0407  0.7680
  782MOL0     H 3215   6.311   2.963   9.553  2.8924  0.0865  1.1781
  782MOL0     H 3216   6.279   3.264   9.548  1.8542  1.0606  0.3961
  782MOL0     H 3217   6.441   3.192   9.517  0.5347  0.8421 -1.6617
  782MOL0     H 3218   6.311   3.221   9.301 -1.1671  1.1532  0.5451
  782MOL0     H 3219   6.208   3.092   9.360  1.1474 -1.0857 -3.3884
  782MOL0     H 3220   6.501   3.070   9.270  0.4662  1.4999  1.4213
  782MOL0     H 3221   6.450   2.981   9.398  1.5702  2.2662  0.2810
  782MOL0     H 3222   6.207   2.801   9.082 -0.3742  1.0235  0.1172
  782MOL0     H 3223   6.096   2.988   9.804  0.6817  0.8409 -0.8646
  782MOL0     H 3224   6.035   2.892  10.018 -0.0440 -0.6481 -2.8807
  783MOL0     O 3225  10.111   6.359   1.642 -0.2324  0.3872  0.6938
  783MOL0     C 3226  10.215   6.343   1.706 -0.3241 -0.4124  1.0660
  783MOL0     O 3227  10.244   6.246   1.800  0.2817  0.2350 -0.0758
  783MOL0     C 3228  10.153   6.150   1.842  0.4056  0.0050 -0.0218
  783MOL0     C 3229  10.020   6.129   1.816 -0.3133  0.4192 -0.1341
  783MOL0     C 3230   9.953   6.025   1.880  0.0749 -0.1846 -0.0243
  783MOL0     C 3231  10.019   5.932   1.963  0.0009  1.3403 -0.0726
  783MOL0     O 3232   9.955   5.823   2.024 -0.6584  0.7031  0.1623
  783MOL0     C 3233   9.821   5.788   1.964 -0.4799 -0.6581  0.1291
  783MOL0     C 3234   9.778   5.658   2.035 -0.3404  0.4977 -0.5834
  783MOL0     C 3235   9.633   5.615   2.041  1.0723 -0.3270  0.2880
  783MOL0     C 3236   9.614   5.481   2.114  0.6287 -1.0509  0.2539
  783MOL0     C 3237   9.574   5.367   2.021  0.5813 -0.3215 -0.1456
  783MOL0     C 3238   9.692   5.312   1.948 -0.9080  0.1539 -0.5712
  783MOL0     C 3239   9.661   5.177   1.892  0.6173  0.5225 -0.3725
  783MOL0     C 3240   9.785   5.099   1.841 -0.0363 -0.0116  1.0125
  783MOL0     N 3241   9.732   4.964   1.812 -0.0816  0.3824 -0.1889
  783MOL0     C 3242   9.676   4.915   1.700  0.5910 -0.4468  0.0874
  783MOL0     C 3243   9.669   4.777   1.722 -0.1125 -0.7905 -0.5298
  783MOL0     C 3244   9.590   4.690   1.626 -0.6540  0.7047  0.1144
  783MOL0     C 3245   9.439   4.726   1.618 -0.4083 -0.1303  0.7828
  783MOL0     C 3246   9.354   4.635   1.532 -0.2979 -0.2394  0.0101
  783MOL0     C 3247   9.205   4.669   1.548 -0.3392 -0.0373 -0.8346
  783MOL0     O 3248   9.171   4.787   1.472  0.3584 -0.0298  0.7380
  783MOL0     C 3249   9.151   4.776   1.339  1.0312  0.4128  0.9473
  783MOL0     C 3250   9.104   4.660   1.270 -0.6478 -0.5119 -0.3104
  783MOL0     C 3251   9.095   4.668   1.121 -0.0747  0.5509 -0.9602
  783MOL0     C 3252   9.113   4.789   1.054 -0.2973 -0.5782  1.1028
  783MOL0     C 3253   9.084   4.799   0.913 -0.4840 -0.5660 -0.2432
  783MOL0     O 3254   9.155   4.901   0.852 -0.5122  0.1213  0.1240
  783MOL0     C 3255   9.167   4.887   0.720 -0.7295 -0.0356 -0.1769
  783MOL0     C 3256   9.061   4.910   0.635  0.1915 -0.3260 -0.2705
  783MOL0     C 3257   9.068   4.896   0.503 -0.2929  1.3361  0.4433
  783MOL0     C 3258   9.183   4.852   0.445 -0.0989  0.8545  0.1248
  783MOL0     O 3259   9.184   4.847   0.310  0.0401 -0.1062 -0.4964
  783MOL0     C 3260   9.248   4.741   0.240 -0.6835 -0.5666  0.4269
  783MOL0     C 3261   9.158   4.686   0.134  0.3483 -0.4453 -0.4281
  783MOL0     C 3262   9.124   4.799   0.033  0.4995 -0.7436 -0.6665
  783MOL0     C 3263   9.012   4.753  -0.054 -0.9119 -0.1591  0.0850
  783MOL0     C 3264   8.994   4.855  -0.175  0.8630 -0.4571 -0.3275
  783MOL0     C 3265   8.865   4.820  -0.247  0.4990 -0.5019  0.0204
  783MOL0     C 3266   8.831   4.939  -0.339  0.7343  0.0406  0.1208
  783MOL0     C 3267   8.690   4.929  -0.412  0.7218 -0.0707 -0.5741
  783MOL0    Cl 3268   8.653   5.082  -0.489  0.0510 -0.4267  0.3373
  783MOL0     C 3269   9.300   4.836   0.519 -0.1555  1.4787 -0.1307
  783MOL0     C 3270   9.287   4.851   0.657 -0.4219  0.5988 -0.1009
  783MOL0     O 3271   9.008   4.716   0.864 -0.4261 -0.2112 -1.0229
  783MOL0     C 3272   9.148   4.903   1.129 -0.6935  0.1900  0.5498
  783MOL0     C 3273   9.168   4.896   1.267 -0.5463 -0.6275 -0.3614
  783MOL0     N 3274   9.721   4.745   1.848  0.2048  0.4279 -0.5814
  783MOL0     N 3275   9.750   4.861   1.903 -0.6554 -0.3786 -0.7252
  783MOL0     C 3276  10.151   5.966   1.997  0.9097  0.4100 -0.4069
  783MOL0     C 3277  10.212   6.070   1.934  0.0519 -0.2807  0.0029
  783MOL0     C 3278  10.337   6.437   1.683  1.2248 -0.0574  0.1088
  783MOL0     C 3279  10.454   6.407   1.743 -0.7070  1.0176  0.2908
  783MOL0     C 3280  10.572   6.472   1.714 -0.0192 -0.0264 -0.5333
  783MOL0     C 3281  10.571   6.566   1.607  0.1326 -0.0515  0.4240
  783MOL0     O 3282  10.684   6.645   1.568  0.4571 -0.5117  0.1247
  783MOL0     C 3283  10.795   6.669   1.656 -0.3339 -0.4003  0.3079
  783MOL0     C 3284  10.907   6.747   1.592 -0.4053 -0.3112 -0.7783
  783MOL0     C 3285  10.861   6.900   1.583 -0.3429 -0.6645 -0.4055
  783MOL0     C 3286  10.912   6.941   1.443 -0.5347  1.1570  0.1456
  783MOL0     C 3287  10.904   7.090   1.436 -0.5495 -0.2926  0.5441
  783MOL0     C 3288  10.894   7.214   1.431  0.5142  0.2617 -0.5103
  783MOL0     C 3289  10.452   6.596   1.537  0.2299  0.0484 -0.5710
  783MOL0     C 3290  10.336   6.537   1.577  1.0778 -0.2243  0.3324
  783MOL0     H 3291   9.973   6.191   1.740  0.9669 -2.0368 -3.1096
  783MOL0     H 3292   9.851   6.014   1.846 -0.8137  0.0005  2.4149
  783MOL0     H 3293   9.843   5.769   1.859 -1.1357  0.2216 -0.1760
  783MOL0     H 3294   9.753   5.871   1.983 -0.3143 -0.6188  0.5756
  783MOL0     H 3295   9.811   5.673   2.138 -0.4001  2.1000 -0.7721
  783MOL0     H 3296   9.839   5.580   1.988  0.8341  0.4490  0.9724
  783MOL0     H 3297   9.610   5.612   1.934  3.9192  0.8802 -0.4564
  783MOL0     H 3298   9.564   5.694   2.073 -2.2445 -2.3678 -1.2470
  783MOL0     H 3299   9.703   5.463   2.175  0.8881  0.2670  0.2884
  783MOL0     H 3300   9.530   5.492   2.182 -0.0519 -2.2461 -0.3742
  783MOL0     H 3301   9.518   5.406   1.935  0.1887  0.6786  0.5419
  783MOL0     H 3302   9.519   5.288   2.073 -2.0211  0.6385 -1.2606
  783MOL0     H 3303   9.772   5.301   2.021 -2.0921 -0.1673  0.7064
  783MOL0     H 3304   9.718   5.383   1.869  0.0583 -1.1291 -1.4528
  783MOL0     H 3305   9.605   5.111   1.958 -1.8417  2.7100 -0.0743
  783MOL0     H 3306   9.603   5.203   1.803 -0.4959 -0.7559 -0.0434
  783MOL0     H 3307   9.864   5.084   1.916 -0.5929 -2.5492  1.1626
  783MOL0     H 3308   9.829   5.144   1.751  0.5427  0.3362  1.4613
  783MOL0     H 3309   9.644   4.973   1.613  0.1878 -1.5613 -0.5225
  783MOL0     H 3310   9.594   4.588   1.665  0.9604  1.6305  2.6298
  783MOL0     H 3311   9.633   4.694   1.526 -3.2063  2.5614 -1.0352
  783MOL0     H 3312   9.425   4.827   1.578  0.0947  0.3588  1.8080
  783MOL0     H 3313   9.400   4.725   1.721  1.3884 -0.7215  1.4914
  783MOL0     H 3314   9.383   4.643   1.427 -3.9918  3.3115 -0.9700
  783MOL0     H 3315   9.372   4.529   1.555 -2.0264 -0.6936 -0.5741
  783MOL0     H 3316   9.196   4.712   1.649 -1.8104  1.2623 -1.4920
  783MOL0     H 3317   9.136   4.586   1.530  1.1632 -1.6168  0.3339
  783MOL0     H 3318   9.082   4.568   1.324  0.6493  1.0897  3.2948
  783MOL0     H 3319   9.057   4.580   1.070  0.0323 -0.5417  0.7624
  783MOL0     H 3320   8.970   4.953   0.676  1.1727  1.4079  0.1803
  783MOL0     H 3321   8.986   4.891   0.432  1.4500 -0.8155 -1.5883
  783MOL0     H 3322   9.264   4.664   0.316 -2.1076 -0.5193  0.7972
  783MOL0     H 3323   9.345   4.773   0.200 -0.9033 -0.3541  0.0517
  783MOL0     H 3324   9.068   4.646   0.182  0.6238  0.2017  0.6466
  783MOL0     H 3325   9.218   4.618   0.073  2.7745  1.0849  0.1236
  783MOL0     H 3326   9.219   4.795  -0.020 -0.6538  0.2988 -2.9687
  783MOL0     H 3327   9.112   4.903   0.064 -2.4423 -0.6615 -1.7439
  783MOL0     H 3328   9.035   4.656  -0.098 -0.2743  0.1649 -0.3194
  783MOL0     H 3329   8.925   4.734   0.009  0.4693  1.3313  2.6228
  783MOL0     H 3330   9.080   4.845  -0.243 -0.0851 -0.2775 -1.5828
  783MOL0     H 3331   8.978   4.954  -0.131  1.9684 -0.1605 -0.5536
  783MOL0     H 3332   8.781   4.808  -0.179  1.4515 -1.0018  1.1410
  783MOL0     H 3333   8.868   4.737  -0.319 -0.3729  1.9050 -3.0398
  783MOL0     H 3334   8.827   5.022  -0.268 -1.1967  0.6543 -0.6436
  783MOL0     H 3335   8.916   4.955  -0.406  0.4440 -0.6848 -0.4325
  783MOL0     H 3336   8.611   4.907  -0.339  0.9650  3.8736  1.1290
  783MOL0     H 3337   8.695   4.853  -0.492  3.4391 -0.3126 -0.2591
  783MOL0     H 3338   9.379   4.772   0.480 -2.4543 -3.4743  2.4158
  783MOL0     H 3339   9.377   4.845   0.717 -1.6906  0.2065  1.8204
  783MOL0     H 3340   9.161   4.999   1.080 -0.5011  1.7002  3.3543
  783MOL0     H 3341   9.208   4.983   1.318 -0.2795 -1.6999  1.3869
  783MOL0     H 3342  10.210   5.897   2.057 -0.1815 -1.2969 -1.2271
  783MOL0     H 3343  10.319   6.083   1.949  0.6749 -2.9643 -1.4590
  783MOL0     H 3344  10.453   6.323   1.812  0.5308  3.1399  3.0993
  783MOL0     H 3345  10.662   6.447   1.770  3.0144  2.8950 -3.6574
  783MOL0     H 3346  10.833   6.573   1.694 -1.6372 -1.6240 -1.3221
  783MOL0     H 3347  10.750   6.727   1.738  1.1180  1.7896 -0.3725
  783MOL0     H 3348  10.991   6.742   1.661 -1.1343 -2.2509  0.0391
  783MOL0     H 3349  10.935   6.713   1.492  4.1615  1.8461 -0.4665
  783MOL0     H 3350  10.902   6.959   1.667  0.7258 -1.5924 -0.2513
  783MOL0     H 3351  10.752   6.904   1.582 -0.3342  1.9463 -2.7767
  783MOL0     H 3352  11.020   6.926   1.434 -0.2238  0.2788  3.7500
  783MOL0     H 3353  10.852   6.885   1.371  2.6405 -3.7501  0.7947
  783MOL0     H 3354  10.869   7.317   1.422  0.2943  0.2682  0.1004
  783MOL0     H 3355  10.448   6.664   1.453 -3.7692  1.8622  0.8446
  783MOL0     H 3356  10.249   6.544   1.512  2.0114 -1.2086 -1.0679
  784MOL0     O 3357   7.734   4.831   8.507  0.3962  0.5535  0.7294
  784MOL0     C 3358   7.651   4.795   8.588 -0.0573 -0.2760 -0.3190
  784MOL0     O 3359   7.518   4.820   8.566 -0.8517  0.1751 -0.5357
  784MOL0     C 3360   7.480   4.867   8.445 -0.0264  0.1108  0.3639
  784MOL0     C 3361   7.405   4.796   8.350 -0.8219 -0.0620  0.8131
  784MOL0     C 3362   7.355   4.852   8.233 -0.2519  0.5170 -0.0593
  784MOL0     C 3363   7.363   4.985   8.197 -1.4833 -0.0197 -0.6375
  784MOL0     O 3364   7.306   5.055   8.091  0.1496  0.3787  0.4322
  784MOL0     C 3365   7.311   5.007   7.954  0.8037 -0.8265 -0.3647
  784MOL0     C 3366   7.242   5.113   7.869 -0.5110 -0.0136 -0.8010
  784MOL0     C 3367   7.218   5.049   7.731 -0.1995  0.1665 -0.8475
  784MOL0     C 3368   7.179   5.158   7.630  0.7538  0.2121  1.2806
  784MOL0     C 3369   7.090   5.107   7.512  0.6332  0.5725  0.2367
  784MOL0     C 3370   7.176   5.031   7.407  0.3041 -0.2150 -0.4131
  784MOL0     C 3371   7.144   5.080   7.271 -0.5891  0.0085  0.0598
  784MOL0     C 3372   7.015   5.021   7.202 -0.7948 -0.2739 -0.2710
  784MOL0     N 3373   6.971   5.090   7.082  0.1630 -0.4034 -0.0683
  784MOL0     C 3374   7.043   5.104   6.968  0.3237  0.6409 -0.0253
  784MOL0     C 3375   6.957   5.175   6.884 -0.1814 -0.1100 -0.1572
  784MOL0     C 3376   7.010   5.228   6.749  0.5776  0.3665  0.1534
  784MOL0     C 3377   6.899   5.284   6.662  0.1276 -0.1498  0.1924
  784MOL0     C 3378   6.943   5.328   6.519  0.1163  0.4146 -0.1317
  784MOL0     C 3379   7.002   5.225   6.416  0.7355  0.0111 -0.0100
  784MOL0     O 3380   6.893   5.138   6.379  0.3143  0.0940 -0.6245
  784MOL0     C 3381   6.930   5.039   6.284  0.6935  0.5353  0.0064
  784MOL0     C 3382   6.851   4.923   6.272 -0.7765  0.1164 -1.4541
  784MOL0     C 3383   6.875   4.818   6.179 -1.0486 -0.2016  0.0672
  784MOL0     C 3384   6.982   4.829   6.087  0.5576  0.0236 -0.1854
  784MOL0     C 3385   7.005   4.720   5.986 -0.0077  0.7415  0.2942
  784MOL0     O 3386   6.909   4.616   5.976 -0.3636  0.4708 -0.2022
  784MOL0     C 3387   6.923   4.522   5.866  0.2578  0.9943  0.0753
  784MOL0     C 3388   7.041   4.458   5.830 -0.3898  0.3233  0.0743
  784MOL0     C 3389   7.052   4.356   5.731 -0.3080  2.0235 -0.0522
  784MOL0     C 3390   6.939   4.320   5.662  0.5542 -1.6906  0.3232
  784MOL0     O 3391   6.948   4.213   5.577 -0.1054  0.4241 -0.3351
  784MOL0     C 3392   6.894   4.228   5.446  0.0840 -0.7214  0.5764
  784MOL0     C 3393   6.759   4.193   5.425  0.2784  0.0282  0.4792
  784MOL0     C 3394   6.731   4.046   5.402  0.4973 -0.4471  0.1820
  784MOL0     C 3395   6.581   4.018   5.408 -0.2413  0.4409 -0.2241
  784MOL0     C 3396   6.569   3.861   5.378  0.2417  0.2503 -0.0280
  784MOL0     C 3397   6.435   3.808   5.443 -0.5908 -0.4127 -0.9243
  784MOL0     C 3398   6.411   3.666   5.394 -0.0208 -0.9228 -0.7372
  784MOL0     C 3399   6.509   3.562   5.439  0.2932 -0.4258 -0.7952
  784MOL0    Cl 3400   6.435   3.410   5.379 -0.4972 -0.0675  0.2052
  784MOL0     C 3401   6.823   4.398   5.686  0.4147  1.1572 -1.5134
  784MOL0     C 3402   6.810   4.488   5.791 -0.0528  0.6665  0.4612
  784MOL0     O 3403   7.107   4.722   5.919 -0.0716  1.0996 -0.2913
  784MOL0     C 3404   7.067   4.937   6.114 -0.9227  0.5634 -0.0122
  784MOL0     C 3405   7.047   5.039   6.207  0.9483  0.1467 -0.1769
  784MOL0     N 3406   6.847   5.218   6.960  0.8710  0.5668  0.5698
  784MOL0     N 3407   6.863   5.166   7.074  0.0513 -0.6196 -0.4657
  784MOL0     C 3408   7.442   5.060   8.292  0.2647  0.4040 -0.6753
  784MOL0     C 3409   7.507   4.999   8.408  0.3738  1.5072 -0.1476
  784MOL0     C 3410   7.702   4.727   8.707  0.3161  0.8618 -0.3013
  784MOL0     C 3411   7.611   4.676   8.808 -0.1040  0.4678 -0.3789
  784MOL0     C 3412   7.671   4.625   8.926 -0.3643 -0.4791 -1.0498
  784MOL0     C 3413   7.816   4.617   8.938 -0.1833  0.4563  0.0291
  784MOL0     O 3414   7.876   4.561   9.051  0.3865  0.0961 -0.6468
  784MOL0     C 3415   7.811   4.591   9.182  0.6799  0.8172 -0.4589
  784MOL0     C 3416   7.919   4.621   9.286 -0.7138 -0.4190 -1.0253
  784MOL0     C 3417   8.023   4.736   9.265 -0.4038  0.2363  0.4698
  784MOL0     C 3418   8.126   4.732   9.381  0.1848 -0.2985 -0.3260
  784MOL0     C 3419   8.222   4.618   9.388 -0.6594 -0.7977  0.6585
  784MOL0     C 3420   8.310   4.531   9.407  1.0787  0.1488 -0.1023
  784MOL0     C 3421   7.898   4.641   8.830  0.4465  0.1606  0.5638
  784MOL0     C 3422   7.842   4.704   8.717 -0.2830  0.3585 -0.8249
  784MOL0     H 3423   7.378   4.694   8.378 -1.1912  0.3586  2.0582
  784MOL0     H 3424   7.308   4.776   8.171  1.2139 -1.4659  1.1467
  784MOL0     H 3425   7.259   4.911   7.960 -0.2569 -0.3269 -1.3453
  784MOL0     H 3426   7.412   4.989   7.916  1.4445 -4.0684  2.4015
  784MOL0     H 3427   7.304   5.203   7.866 -0.0207 -0.3396 -0.5384
  784MOL0     H 3428   7.145   5.136   7.913  0.2050  0.4337  0.6003
  784MOL0     H 3429   7.141   4.972   7.739  0.5407 -0.4601  0.4452
  784MOL0     H 3430   7.315   5.005   7.706  1.4571  2.6634  0.7791
  784MOL0     H 3431   7.122   5.237   7.680  0.5318  2.6130 -2.3509
  784MOL0     H 3432   7.265   5.208   7.585 -0.2657  1.0407  0.1693
  784MOL0     H 3433   7.035   5.188   7.464 -1.7981 -1.9807 -1.6150
  784MOL0     H 3434   7.015   5.037   7.549  1.0788 -0.0788 -0.0685
  784MOL0     H 3435   7.159   4.926   7.430  0.7911 -0.4351 -1.0044
  784MOL0     H 3436   7.282   5.045   7.429 -0.0377  0.8860  0.6275
  784MOL0     H 3437   7.142   5.190   7.266 -2.7683 -0.0303 -3.6988
  784MOL0     H 3438   7.223   5.054   7.200 -1.2999  2.6810 -1.9039
  784MOL0     H 3439   6.932   5.047   7.269  1.1339  2.5197  1.2232
  784MOL0     H 3440   7.032   4.915   7.180 -0.8836 -0.2179 -0.6113
  784MOL0     H 3441   7.131   5.050   6.935 -0.5278  0.5929 -2.4352
  784MOL0     H 3442   7.051   5.141   6.696 -0.1574  2.0548 -3.5595
  784MOL0     H 3443   7.088   5.306   6.750  0.6594  0.3573 -1.5021
  784MOL0     H 3444   6.848   5.368   6.710 -0.4677 -0.3073 -0.1663
  784MOL0     H 3445   6.825   5.205   6.651 -0.7137  0.6018  0.3032
  784MOL0     H 3446   6.863   5.384   6.470 -0.8812 -1.5361 -0.8245
  784MOL0     H 3447   7.017   5.407   6.533  1.4337 -0.5835 -1.1508
  784MOL0     H 3448   7.076   5.165   6.469 -1.6252 -3.4910 -0.3196
  784MOL0     H 3449   7.037   5.295   6.340 -0.2994  4.5011  3.2604
  784MOL0     H 3450   6.778   4.903   6.350 -1.8929  3.4729 -1.4763
  784MOL0     H 3451   6.819   4.726   6.166  0.0677 -1.4692  3.3846
  784MOL0     H 3452   7.123   4.495   5.890 -0.6524  0.4470  0.3566
  784MOL0     H 3453   7.144   4.298   5.725 -0.3978  2.0196 -2.7185
  784MOL0     H 3454   6.952   4.172   5.372 -0.8007 -0.6828 -0.1663
  784MOL0     H 3455   6.901   4.333   5.417  1.2939 -0.6748  0.9911
  784MOL0     H 3456   6.717   4.239   5.336  0.0142  0.8617  1.0224
  784MOL0     H 3457   6.703   4.225   5.514  0.6038 -0.3765  0.8379
  784MOL0     H 3458   6.789   3.993   5.478  3.7118  1.9978 -0.3664
  784MOL0     H 3459   6.777   4.012   5.309 -0.8171  0.0480 -0.6756
  784MOL0     H 3460   6.543   4.036   5.509 -0.1619  1.5590 -0.3807
  784MOL0     H 3461   6.520   4.072   5.334 -0.6963 -0.0155 -0.1908
  784MOL0     H 3462   6.653   3.808   5.421  1.0197  0.6331 -1.0396
  784MOL0     H 3463   6.575   3.855   5.269  1.0957 -0.8738  0.0640
  784MOL0     H 3464   6.352   3.869   5.406  1.8663  2.1624 -2.6268
  784MOL0     H 3465   6.431   3.806   5.552 -0.4419  1.2064 -0.8781
  784MOL0     H 3466   6.316   3.631   5.436 -0.8282  0.1290 -1.6312
  784MOL0     H 3467   6.400   3.670   5.285  1.3007 -1.3904 -0.9138
  784MOL0     H 3468   6.532   3.564   5.546  0.0406  0.4748 -0.7446
  784MOL0     H 3469   6.604   3.587   5.391 -0.0980  1.5994 -0.6278
  784MOL0     H 3470   6.733   4.398   5.625 -0.1524  3.4215 -0.8065
  784MOL0     H 3471   6.708   4.524   5.804 -1.4181 -2.1263 -1.4601
  784MOL0     H 3472   7.148   4.956   6.044  0.3208 -3.6288  0.0285
  784MOL0     H 3473   7.114   5.124   6.205 -0.4012  1.3909  2.4447
  784MOL0     H 3474   7.458   5.163   8.263  0.1130  0.3858 -0.8205
  784MOL0     H 3475   7.574   5.048   8.478  2.4185 -1.0285 -0.1665
  784MOL0     H 3476   7.503   4.678   8.793 -0.3143  0.8685  1.0247
  784MOL0     H 3477   7.612   4.587   9.008 -0.2946  1.0942 -0.2419
  784MOL0     H 3478   7.744   4.508   9.207  0.3661  1.3404  0.4741
  784MOL0     H 3479   7.754   4.684   9.171  0.6752  0.7237 -1.3024
  784MOL0     H 3480   7.865   4.658   9.374  2.5208  1.1911  0.4751
  784MOL0     H 3481   7.964   4.525   9.313 -1.6341 -0.6258 -0.1685
  784MOL0     H 3482   7.982   4.835   9.245  0.5679  0.1476 -2.5685
  784MOL0     H 3483   8.075   4.712   9.171 -2.5077 -1.0654 -0.4415
  784MOL0     H 3484   8.180   4.825   9.362 -0.0846 -0.7209 -3.8608
  784MOL0     H 3485   8.077   4.734   9.479 -0.1548 -3.7457 -0.2965
  784MOL0     H 3486   8.367   4.441   9.413 -2.0604 -1.9690  0.4082
  784MOL0     H 3487   8.001   4.606   8.832  0.3066 -0.2354  1.1907
  784MOL0     H 3488   7.908   4.723   8.633 -1.4321 -1.7984 -2.3085
  785MOL0     O 3489   5.870   6.539  10.199  0.6307 -0.6032  0.1279
  785MOL0     C 3490   5.802   6.600  10.122  0.3654  0.1124  0.4134
  785MOL0     O 3491   5.765   6.737  10.133  0.3850  0.3102 -0.7317
  785MOL0     C 3492   5.800   6.802  10.250 -0.0169  0.8002  0.3744
  785MOL0     C 3493   5.923   6.867  10.240 -0.5271 -0.8322  0.8466
  785MOL0     C 3494   5.969   6.952  10.342  0.1454  0.6829 -0.9524
  785MOL0     C 3495   5.884   6.975  10.453 -1.1990 -0.0756  0.3404
  785MOL0     O 3496   5.928   7.066  10.545  0.5253  0.1895 -0.5091
  785MOL0     C 3497   5.838   7.121  10.644  0.3298 -0.5786  0.0284
  785MOL0     C 3498   5.923   7.217  10.728 -0.8194  0.2345 -0.5562
  785MOL0     C 3499   5.979   7.340  10.643  0.3125 -0.5933 -0.0226
  785MOL0     C 3500   5.879   7.443  10.588 -0.4181  0.5107 -1.4001
  785MOL0     C 3501   5.924   7.590  10.602  0.2034  1.0010 -0.0190
  785MOL0     C 3502   6.074   7.614  10.557  0.0459  0.2395 -0.6533
  785MOL0     C 3503   6.107   7.754  10.615  0.6138 -0.2836 -0.1889
  785MOL0     C 3504   6.241   7.808  10.569  0.6165  0.2663  0.9039
  785MOL0     N 3505   6.280   7.914  10.662  0.2324  0.7013 -0.6607
  785MOL0     C 3506   6.357   7.892  10.771 -0.7914 -0.0113 -0.0401
  785MOL0     C 3507   6.391   8.011  10.814 -0.8413  0.1292 -0.1547
  785MOL0     C 3508   6.456   8.035  10.950 -0.5741  0.1365 -0.1602
  785MOL0     C 3509   6.464   8.191  10.989  0.3490  0.7546 -1.0582
  785MOL0     C 3510   6.337   8.241  11.058  0.5321 -0.2645 -0.3015
  785MOL0     C 3511   6.349   8.386  11.109  0.3400  0.2287  0.5390
  785MOL0     O 3512   6.323   8.489  11.006  0.0987  0.6343  0.1853
  785MOL0     C 3513   6.324   8.616  11.055 -0.4348  1.2473 -0.0811
  785MOL0     C 3514   6.352   8.650  11.186  0.0397  0.5939 -0.7454
  785MOL0     C 3515   6.316   8.778  11.244 -0.6537  0.3665 -0.8077
  785MOL0     C 3516   6.267   8.874  11.160 -0.8548  1.2392 -0.1390
  785MOL0     C 3517   6.252   9.019  11.201 -0.1013  0.2367 -0.7235
  785MOL0     O 3518   6.256   9.047  11.338 -0.0715 -0.6162  0.0948
  785MOL0     C 3519   6.226   9.170  11.396 -0.0578  0.0588 -0.1028
  785MOL0     C 3520   6.166   9.176  11.525 -0.5015 -0.8814  0.7064
  785MOL0     C 3521   6.141   9.297  11.586  0.3562  0.8340 -1.3453
  785MOL0     C 3522   6.165   9.421  11.522  0.1597 -0.1454  0.3189
  785MOL0     O 3523   6.130   9.538  11.579 -0.3280 -0.0861 -0.0360
  785MOL0     C 3524   5.994   9.554  11.613 -0.4406  0.4983  0.2342
  785MOL0     C 3525   5.911   9.563  11.481 -0.0470 -0.1791 -0.0028
  785MOL0     C 3526   5.915   9.708  11.412  0.3772  0.3894 -0.8327
  785MOL0     C 3527   6.051   9.752  11.359  0.4685 -0.1847  0.1126
  785MOL0     C 3528   6.046   9.888  11.290 -0.0219  0.6802 -0.4576
  785MOL0     C 3529   6.032  10.023  11.356 -0.3055  0.8912 -0.3707
  785MOL0     C 3530   6.056  10.155  11.273  1.0128  0.6666  0.2275
  785MOL0     C 3531   6.093  10.269  11.363  0.5973 -1.1134  0.3988
  785MOL0    Cl 3532   5.977  10.292  11.491 -0.0220  0.0500 -0.0352
  785MOL0     C 3533   6.222   9.409  11.401  0.2407 -0.2544  0.7235
  785MOL0     C 3534   6.250   9.292  11.339 -0.8295  0.5942  0.6525
  785MOL0     O 3535   6.244   9.103  11.111  0.8512 -0.0286  0.6376
  785MOL0     C 3536   6.270   8.846  11.018 -0.5280  0.7014  0.8957
  785MOL0     C 3537   6.294   8.722  10.970  0.7788  0.8404 -0.9445
  785MOL0     N 3538   6.331   8.114  10.741  0.6910 -0.3175  0.3540
  785MOL0     N 3539   6.261   8.050  10.648 -0.7681  1.0834 -0.1140
  785MOL0     C 3540   5.768   6.900  10.464  0.4097 -0.3076  1.1137
  785MOL0     C 3541   5.724   6.812  10.369 -1.3084  0.9422  0.2843
  785MOL0     C 3542   5.740   6.520  10.015  0.2055 -0.8334  0.0368
  785MOL0     C 3543   5.682   6.585   9.910 -0.6291 -0.8584  0.7167
  785MOL0     C 3544   5.610   6.513   9.806 -1.3452  0.5753 -0.1902
  785MOL0     C 3545   5.598   6.369   9.813 -0.9372  0.5738  0.0518
  785MOL0     O 3546   5.518   6.303   9.722  0.2301 -0.5677 -0.0818
  785MOL0     C 3547   5.456   6.181   9.750 -0.0633  0.1720 -0.7339
  785MOL0     C 3548   5.348   6.196   9.854  0.0726  0.7708 -1.0300
  785MOL0     C 3549   5.231   6.260   9.786 -0.5051  0.5623 -0.3344
  785MOL0     C 3550   5.119   6.283   9.886 -0.2772 -0.1414  0.2035
  785MOL0     C 3551   4.995   6.332   9.819  0.6601  0.8382 -0.7472
  785MOL0     C 3552   4.889   6.358   9.775  0.4415  0.6301  0.5680
  785MOL0     C 3553   5.667   6.309   9.924 -0.6035  0.8893 -0.0814
  785MOL0     C 3554   5.732   6.380  10.020  0.7973 -0.8284 -0.2937
  785MOL0     H 3555   5.985   6.876  10.152 -0.5082  2.7288  1.0975
  785MOL0     H 3556   6.061   7.009  10.328  0.6252 -0.3412 -2.2044
  785MOL0     H 3557   5.808   7.052  10.723  1.0649  3.3211  4.0645
  785MOL0     H 3558   5.750   7.165  10.597  0.1238 -0.6938  0.3051
  785MOL0     H 3559   6.006   7.161  10.772 -1.2784 -0.6472 -0.7898
  785MOL0     H 3560   5.866   7.267  10.807  0.1831  0.2409  0.1909
  785MOL0     H 3561   6.039   7.300  10.561  0.4086 -3.6026  1.3740
  785MOL0     H 3562   6.049   7.390  10.711 -0.8780  1.7203 -0.3999
  785MOL0     H 3563   5.861   7.422  10.482  1.2107 -0.7050 -1.4862
  785MOL0     H 3564   5.788   7.438  10.648 -0.0849 -1.7573 -0.9640
  785MOL0     H 3565   5.919   7.608  10.709 -0.8040 -4.1065  1.0573
  785MOL0     H 3566   5.866   7.667  10.551 -0.9223  2.7478  3.5736
  785MOL0     H 3567   6.074   7.605  10.448 -5.5146  1.6785 -1.0806
  785MOL0     H 3568   6.138   7.533  10.595 -1.5034 -0.9104 -0.3774
  785MOL0     H 3569   6.027   7.820  10.580  0.5358 -1.8615 -3.3013
  785MOL0     H 3570   6.097   7.747  10.724 -2.6208 -0.0105 -0.3640
  785MOL0     H 3571   6.224   7.857  10.473 -0.8280 -1.5681  0.1527
  785MOL0     H 3572   6.315   7.730  10.550  1.3402  0.8696  1.1909
  785MOL0     H 3573   6.404   7.808  10.821  0.7305  1.9049  1.9021
  785MOL0     H 3574   6.552   7.982  10.948 -0.2234  0.7508 -2.6419
  785MOL0     H 3575   6.398   7.985  11.028  0.1947 -0.0239  0.3254
  785MOL0     H 3576   6.492   8.258  10.907 -2.2819  0.9323 -1.8759
  785MOL0     H 3577   6.533   8.205  11.073 -0.4189  2.7267 -0.7145
  785MOL0     H 3578   6.251   8.229  10.992  0.4853  1.2483 -0.5570
  785MOL0     H 3579   6.319   8.178  11.146 -2.6014 -0.3255 -0.8690
  785MOL0     H 3580   6.453   8.391  11.142  0.3061  0.0455  0.6702
  785MOL0     H 3581   6.279   8.395  11.192  0.7786 -0.5513  1.0046
  785MOL0     H 3582   6.400   8.576  11.249 -1.9818  0.7552  1.1180
  785MOL0     H 3583   6.335   8.811  11.345  2.3719  0.6046 -1.3584
  785MOL0     H 3584   6.149   9.083  11.580 -1.0702 -0.5772  1.0651
  785MOL0     H 3585   6.105   9.291  11.688 -1.4411 -1.9141 -2.0462
  785MOL0     H 3586   5.978   9.634  11.685 -2.6424 -1.6638  2.3527
  785MOL0     H 3587   5.962   9.467  11.672  0.3939 -1.6190 -2.2289
  785MOL0     H 3588   5.807   9.550  11.513 -0.3377 -0.1089 -0.9096
  785MOL0     H 3589   5.934   9.482  11.411 -2.3067 -1.1596  0.2919
  785MOL0     H 3590   5.876   9.778  11.486  2.4774  0.0004  0.7435
  785MOL0     H 3591   5.846   9.711  11.327  0.2193  3.3285 -0.7094
  785MOL0     H 3592   6.115   9.759  11.448  0.5659 -0.8294  0.0911
  785MOL0     H 3593   6.100   9.676  11.299 -1.3139 -1.4115  0.1219
  785MOL0     H 3594   5.965   9.870  11.219 -1.7315 -0.4170  1.6826
  785MOL0     H 3595   6.147   9.893  11.248  1.1926 -1.1370  1.9744
  785MOL0     H 3596   6.098  10.019  11.443 -1.3156 -0.7024  0.3721
  785MOL0     H 3597   5.929  10.034  11.391  0.2048 -0.2045  1.6582
  785MOL0     H 3598   6.139  10.143  11.203  1.1549 -1.9885  0.7554
  785MOL0     H 3599   5.968  10.174  11.210  1.0539 -2.8289 -1.1310
  785MOL0     H 3600   6.100  10.351  11.291  1.7304 -2.5131 -1.1663
  785MOL0     H 3601   6.194  10.245  11.397  2.1753  0.1096 -2.9990
  785MOL0     H 3602   6.226   9.500  11.341 -0.4271 -0.6588  0.0429
  785MOL0     H 3603   6.297   9.292  11.241  1.6766  0.8189  1.7891
  785MOL0     H 3604   6.246   8.918  10.939 -1.1144 -1.9802 -1.5464
  785MOL0     H 3605   6.300   8.708  10.863  4.6192  0.9328 -0.8790
  785MOL0     H 3606   5.707   6.892  10.553 -0.8070  0.6702  0.3918
  785MOL0     H 3607   5.631   6.758  10.388 -1.0718  1.0753  1.9534
  785MOL0     H 3608   5.689   6.692   9.897  0.0798 -1.1806 -2.2907
  785MOL0     H 3609   5.565   6.556   9.717 -2.9521 -2.2343 -0.8691
  785MOL0     H 3610   5.529   6.106   9.783 -0.2751 -0.3466 -1.4196
  785MOL0     H 3611   5.419   6.130   9.661 -4.3382 -3.9452  2.8323
  785MOL0     H 3612   5.309   6.100   9.889 -0.7262  0.4436 -2.7256
  785MOL0     H 3613   5.376   6.255   9.942 -1.3474  0.0276 -0.0391
  785MOL0     H 3614   5.193   6.213   9.695  1.1955  2.7117 -2.2962
  785MOL0     H 3615   5.282   6.351   9.750  2.2142 -0.0118  1.7197
  785MOL0     H 3616   5.086   6.198   9.947 -1.7190  1.8080  2.3388
  785MOL0     H 3617   5.152   6.352   9.965 -1.4419  1.3638 -0.5546
  785MOL0     H 3618   4.791   6.371   9.734  1.1264  0.3632 -1.2224
  785MOL0     H 3619   5.657   6.201   9.927 -5.1151  1.1425  1.2251
  785MOL0     H 3620   5.770   6.331  10.109  2.3298  1.1061  0.1848
  786MOL0     O 3621   2.880   6.409  11.070  0.2551  0.3834 -0.2994
  786MOL0     C 3622   2.938   6.354  11.163 -0.2373 -0.6240  0.1131
  786MOL0     O 3623   2.997   6.427  11.265  0.0717  0.0886  0.0436
  786MOL0     C 3624   2.966   6.555  11.274 -1.2006  0.0332  0.0892
  786MOL0     C 3625   3.057   6.661  11.251 -0.8608  0.1669 -1.2572
  786MOL0     C 3626   3.008   6.786  11.274 -0.0067 -0.0436 -0.7880
  786MOL0     C 3627   2.875   6.802  11.302 -0.2374 -1.2348 -0.2646
  786MOL0     O 3628   2.826   6.930  11.322 -0.2276 -0.6053  0.6302
  786MOL0     C 3629   2.796   6.997  11.192 -0.0888  1.1879 -1.1208
  786MOL0     C 3630   2.667   6.950  11.116 -0.0272 -0.4041 -0.6130
  786MOL0     C 3631   2.615   7.061  11.031  0.6301  1.5222  0.7130
  786MOL0     C 3632   2.714   7.097  10.922  0.3835 -0.7995  0.2746
  786MOL0     C 3633   2.654   7.193  10.821 -0.1760  0.9664 -0.1843
  786MOL0     C 3634   2.757   7.246  10.712  0.5346 -0.8946 -0.4169
  786MOL0     C 3635   2.673   7.359  10.631  0.8983  0.4296  0.0240
  786MOL0     C 3636   2.753   7.422  10.518  0.8753 -0.1081 -0.4109
  786MOL0     N 3637   2.853   7.522  10.557  0.1429 -0.7455  0.5456
  786MOL0     C 3638   2.986   7.496  10.572 -0.5218  0.0392 -0.1655
  786MOL0     C 3639   3.029   7.609  10.615 -0.5231 -0.9561 -0.9340
  786MOL0     C 3640   3.167   7.651  10.632  0.1127 -0.4797  0.1701
  786MOL0     C 3641   3.245   7.672  10.512  0.4165  0.4436  0.7809
  786MOL0     C 3642   3.277   7.566  10.405  0.1447  0.3689  0.2138
  786MOL0     C 3643   3.373   7.460  10.450 -0.0148  1.1016  0.7723
  786MOL0     O 3644   3.492   7.530  10.483  1.5337 -0.4659 -0.3929
  786MOL0     C 3645   3.614   7.467  10.504  0.4992  0.5840  0.5190
  786MOL0     C 3646   3.636   7.333  10.525 -0.9651  1.1466 -0.6861
  786MOL0     C 3647   3.770   7.283  10.532  0.6039 -0.2855 -0.4760
  786MOL0     C 3648   3.879   7.377  10.560  0.3115  0.6211  1.3020
  786MOL0     C 3649   4.012   7.334  10.581 -0.5646 -0.5461 -0.1419
  786MOL0     O 3650   4.025   7.205  10.566  0.0684  0.1988  0.9395
  786MOL0     C 3651   4.144   7.139  10.583 -0.3118  0.0305 -0.2896
  786MOL0     C 3652   4.218   7.087  10.482  0.5659  0.1901 -0.7061
  786MOL0     C 3653   4.341   7.021  10.503  0.4385 -0.5131 -0.0424
  786MOL0     C 3654   4.387   6.999  10.628 -0.0171 -0.4179  0.7536
  786MOL0     O 3655   4.500   6.931  10.663 -0.0029  0.8733  0.5917
  786MOL0     C 3656   4.541   6.802  10.613  0.6919 -0.0798 -0.8530
  786MOL0     C 3657   4.428   6.694  10.583  1.0493  0.4954 -0.3297
  786MOL0     C 3658   4.342   6.639  10.712 -0.5035  0.4899  0.7960
  786MOL0     C 3659   4.387   6.504  10.774 -0.0772 -1.2144 -0.2397
  786MOL0     C 3660   4.528   6.508  10.842  1.0354  0.7691 -0.2575
  786MOL0     C 3661   4.543   6.588  10.970 -1.0274  0.0009 -0.3391
  786MOL0     C 3662   4.681   6.649  10.990  0.3864  0.3279 -0.5744
  786MOL0     C 3663   4.775   6.552  11.055 -0.1041 -0.6105  0.2963
  786MOL0    Cl 3664   4.937   6.627  11.036 -0.6661 -0.6626 -0.3800
  786MOL0     C 3665   4.316   7.048  10.734  0.2464 -0.4810 -0.4077
  786MOL0     C 3666   4.190   7.107  10.712  0.0201  0.4284  0.6218
  786MOL0     O 3667   4.109   7.412  10.598 -0.1657 -0.6230  0.3577
  786MOL0     C 3668   3.853   7.507  10.556  0.1217 -0.3339  0.1326
  786MOL0     C 3669   3.724   7.554  10.538  0.8503  0.1105  0.5404
  786MOL0     N 3670   2.938   7.703  10.637 -0.5018  0.0047 -0.9703
  786MOL0     N 3671   2.829   7.650  10.601 -0.0269  0.1101  0.0282
  786MOL0     C 3672   2.792   6.699  11.332 -0.2524 -0.6446 -1.1287
  786MOL0     C 3673   2.835   6.573  11.321 -0.7498 -0.2261  0.3175
  786MOL0     C 3674   2.930   6.208  11.157 -0.2769 -0.8513 -0.3617
  786MOL0     C 3675   2.887   6.142  11.038  0.6756  0.8376 -0.6272
  786MOL0     C 3676   2.881   6.002  11.041  0.4009  0.9252 -0.1508
  786MOL0     C 3677   2.899   5.927  11.164  0.0069  0.8171 -0.3049
  786MOL0     O 3678   2.873   5.793  11.157 -0.2281 -0.0460 -0.7433
  786MOL0     C 3679   2.866   5.721  11.280 -0.7208 -0.5044  0.1437
  786MOL0     C 3680   2.904   5.575  11.255  0.0764  0.0164  0.5258
  786MOL0     C 3681   2.784   5.488  11.206 -0.6072  0.9134  0.4600
  786MOL0     C 3682   2.676   5.475  11.321  0.5355 -0.1762 -0.9610
  786MOL0     C 3683   2.589   5.359  11.305 -0.1611  0.1072 -0.0140
  786MOL0     C 3684   2.533   5.255  11.306  0.9912  0.1821  0.1607
  786MOL0     C 3685   2.944   6.003  11.274  0.4465  0.6423  0.1772
  786MOL0     C 3686   2.959   6.133  11.272 -0.6779  0.6612  1.2175
  786MOL0     H 3687   3.155   6.665  11.206 -0.2882  0.7715  0.0004
  786MOL0     H 3688   3.063   6.879  11.267  3.5765 -1.8442  0.5224
  786MOL0     H 3689   2.883   6.986  11.128  0.9460  2.3063  0.0498
  786MOL0     H 3690   2.780   7.101  11.222 -3.8806 -0.3341  3.3977
  786MOL0     H 3691   2.587   6.935  11.189  1.9760  2.3982  2.3944
  786MOL0     H 3692   2.686   6.853  11.068  1.1217 -1.3279  1.5395
  786MOL0     H 3693   2.598   7.146  11.098 -1.5930 -0.0402  2.2949
  786MOL0     H 3694   2.520   7.038  10.982  0.3939  3.9276 -0.1081
  786MOL0     H 3695   2.802   7.139  10.972 -1.2184 -2.1772  4.7080
  786MOL0     H 3696   2.756   7.013  10.867  1.6961 -0.9778  1.5019
  786MOL0     H 3697   2.617   7.286  10.866 -1.4134  0.5811 -0.3845
  786MOL0     H 3698   2.576   7.131  10.778 -1.1740  1.7843  0.4147
  786MOL0     H 3699   2.808   7.175  10.647  0.5322 -0.4474 -0.9125
  786MOL0     H 3700   2.837   7.294  10.770  0.3277  0.6787 -1.3675
  786MOL0     H 3701   2.590   7.300  10.591  0.4116  1.4533 -0.5186
  786MOL0     H 3702   2.622   7.435  10.692  1.2337  1.5498 -1.0512
  786MOL0     H 3703   2.687   7.477  10.450  0.6082  2.2869  1.6167
  786MOL0     H 3704   2.807   7.355  10.451 -0.9117 -2.0512  0.0028
  786MOL0     H 3705   3.040   7.404  10.551 -0.6885  0.2313 -1.5409
  786MOL0     H 3706   3.219   7.574  10.689  0.9660 -0.4449 -0.5488
  786MOL0     H 3707   3.168   7.738  10.698  0.6602 -1.9150  2.1321
  786MOL0     H 3708   3.339   7.712  10.551  0.9340  2.6505 -2.3056
  786MOL0     H 3709   3.191   7.754  10.464 -1.1421 -0.9628  0.0314
  786MOL0     H 3710   3.179   7.527  10.374 -1.0988  0.6922  3.3930
  786MOL0     H 3711   3.320   7.619  10.319  3.4543 -0.2414  1.3740
  786MOL0     H 3712   3.389   7.389  10.369 -1.1341  2.4891 -0.7458
  786MOL0     H 3713   3.337   7.401  10.535 -1.6724  2.4478  1.0733
  786MOL0     H 3714   3.556   7.260  10.528  1.7647 -2.0896  0.8516
  786MOL0     H 3715   3.798   7.179  10.518 -0.5510 -0.8689  1.1651
  786MOL0     H 3716   4.186   7.107  10.380 -2.8210 -0.2347  0.1632
  786MOL0     H 3717   4.398   6.974  10.423  1.1197  0.7978 -0.3519
  786MOL0     H 3718   4.618   6.766  10.681 -0.7084  1.3252  1.6241
  786MOL0     H 3719   4.583   6.836  10.517 -2.1014 -0.2525 -2.2622
  786MOL0     H 3720   4.448   6.609  10.518 -0.9471  0.3177 -0.7724
  786MOL0     H 3721   4.348   6.744  10.527  0.8895 -0.9992 -1.4832
  786MOL0     H 3722   4.237   6.614  10.692 -0.3635 -0.3157  1.0173
  786MOL0     H 3723   4.354   6.721  10.783  0.9721 -1.2126  2.6518
  786MOL0     H 3724   4.311   6.486  10.850  0.8417  0.6077  1.1967
  786MOL0     H 3725   4.388   6.424  10.699  0.5532 -1.6185  0.1884
  786MOL0     H 3726   4.600   6.530  10.763  0.7476 -1.5909 -1.2572
  786MOL0     H 3727   4.551   6.406  10.873  1.2346  0.8894 -0.0090
  786MOL0     H 3728   4.519   6.518  11.051 -0.4276  1.5318  1.2285
  786MOL0     H 3729   4.476   6.675  10.962 -2.7122 -1.2808 -0.7167
  786MOL0     H 3730   4.728   6.672  10.894  0.7433 -1.0488 -0.7477
  786MOL0     H 3731   4.679   6.746  11.041  0.7141  0.6427 -1.1401
  786MOL0     H 3732   4.777   6.452  11.011 -0.9384 -1.3584  1.8708
  786MOL0     H 3733   4.730   6.529  11.152 -0.6076 -2.6675 -0.3788
  786MOL0     H 3734   4.345   7.028  10.836  0.5833  0.2333 -0.3541
  786MOL0     H 3735   4.117   7.115  10.792 -2.1329 -0.5899 -1.1383
  786MOL0     H 3736   3.933   7.578  10.575  0.9919 -0.4786 -2.5660
  786MOL0     H 3737   3.704   7.661  10.542  1.4355  0.1929  1.6210
  786MOL0     H 3738   2.696   6.718  11.379  0.0793 -0.3818 -0.5556
  786MOL0     H 3739   2.777   6.488  11.357  1.4695 -1.6785  0.6857
  786MOL0     H 3740   2.847   6.193  10.950 -0.2016 -1.9721 -1.9596
  786MOL0     H 3741   2.853   5.948  10.951  1.1326 -0.1737  0.2484
  786MOL0     H 3742   2.767   5.734  11.323 -0.7940  1.1624 -0.4715
  786MOL0     H 3743   2.945   5.756  11.348  0.0319 -1.7847 -0.0356
  786MOL0     H 3744   2.983   5.579  11.179 -1.4097  2.5909 -1.0502
  786MOL0     H 3745   2.956   5.535  11.343 -0.0283 -0.8990  0.1766
  786MOL0     H 3746   2.825   5.396  11.163 -1.7022  1.2900 -1.4963
  786MOL0     H 3747   2.743   5.551  11.127 -0.0535 -0.3620 -0.8953
  786MOL0     H 3748   2.719   5.466  11.421 -0.4932 -0.4026 -0.5213
  786MOL0     H 3749   2.608   5.560  11.315 -0.7430 -1.0034  0.7682
  786MOL0     H 3750   2.468   5.170  11.306  0.9893  0.1510 -1.1158
  786MOL0     H 3751   2.949   5.972  11.378 -1.7694 -1.5402 -0.2781
  786MOL0     H 3752   2.985   6.178  11.368 -2.8251  2.1451  1.1543
  787MOL0     O 3753   3.487   1.419  10.979  0.1375  0.2312  0.7499
  787MOL0     C 3754   3.367   1.409  10.956 -0.3168  0.4627  0.8806
  787MOL0     O 3755   3.304   1.293  10.935 -0.0711  0.0760  0.7609
  787MOL0     C 3756   3.370   1.175  10.914 -0.4573 -0.5871  0.0446
  787MOL0     C 3757   3.323   1.051  10.968 -0.4799 -0.0015 -0.4227
  787MOL0     C 3758   3.393   0.929  10.941 -0.6546  0.0434 -0.4223
  787MOL0     C 3759   3.507   0.936  10.860 -0.2852  0.3855 -0.0592
  787MOL0     O 3760   3.585   0.828  10.837  0.1999  0.4730  0.8829
  787MOL0     C 3761   3.591   0.702  10.901  0.3153  0.3814 -0.4930
  787MOL0     C 3762   3.705   0.687  10.997  0.6388  0.7410 -0.4881
  787MOL0     C 3763   3.693   0.561  11.078  0.4779  0.1221  1.3377
  787MOL0     C 3764   3.585   0.586  11.173 -0.2097 -0.1990 -0.8590
  787MOL0     C 3765   3.584   0.467  11.264 -0.6206  0.8981  0.2772
  787MOL0     C 3766   3.513   0.491  11.396  1.3799  0.5447  0.0350
  787MOL0     C 3767   3.563   0.401  11.515  0.6446  0.9387  0.5305
  787MOL0     C 3768   3.476   0.428  11.646 -0.1954  0.4206 -0.3890
  787MOL0     N 3769   3.534   0.369  11.759 -0.7340 -0.5384 -0.3548
  787MOL0     C 3770   3.638   0.405  11.830 -0.7410 -0.4546 -1.0925
  787MOL0     C 3771   3.671   0.306  11.922  0.5592 -0.2625  0.0231
  787MOL0     C 3772   3.777   0.307  12.030  0.4917  0.7612 -0.0962
  787MOL0     C 3773   3.703   0.351  12.159 -0.3987 -1.0393 -0.4182
  787MOL0     C 3774   3.801   0.314  12.279 -0.0414 -0.6050  0.5861
  787MOL0     C 3775   3.927   0.399  12.288 -0.8666  0.0572 -0.5847
  787MOL0     O 3776   3.902   0.539  12.291 -0.0721 -0.4048 -0.2963
  787MOL0     C 3777   4.006   0.628  12.281 -0.2350 -0.0289 -0.0347
  787MOL0     C 3778   3.971   0.766  12.295  0.4426 -0.5375 -0.6980
  787MOL0     C 3779   4.075   0.868  12.295 -0.0398 -0.7332  0.2494
  787MOL0     C 3780   4.202   0.837  12.245  0.5905  0.1403  0.1897
  787MOL0     C 3781   4.299   0.940  12.197 -1.2991 -0.5965  0.0619
  787MOL0     O 3782   4.404   0.894  12.131 -1.2810 -0.4127 -0.1673
  787MOL0     C 3783   4.528   0.941  12.154 -0.4182  0.0464 -0.5166
  787MOL0     C 3784   4.580   1.036  12.236 -0.1451  0.0564 -0.0139
  787MOL0     C 3785   4.718   1.062  12.251 -0.6013 -0.1471  0.1567
  787MOL0     C 3786   4.807   0.986  12.180 -0.1744 -0.4337  0.3323
  787MOL0     O 3787   4.943   0.975  12.186 -0.2149  0.1494 -0.4973
  787MOL0     C 3788   5.021   1.093  12.234  0.3580 -1.0852  0.3992
  787MOL0     C 3789   5.004   1.223  12.150  0.4437 -1.1265 -0.2429
  787MOL0     C 3790   5.044   1.217  12.008 -0.4123  0.7799  0.5843
  787MOL0     C 3791   5.188   1.167  11.988  0.9816  0.9476 -0.5489
  787MOL0     C 3792   5.220   1.148  11.831  0.3561 -0.5095 -0.2526
  787MOL0     C 3793   5.203   1.279  11.743 -0.9523  0.5771 -1.4022
  787MOL0     C 3794   5.306   1.388  11.795  0.9973  0.3604  0.5252
  787MOL0     C 3795   5.318   1.503  11.697 -0.5566  0.2101 -0.1280
  787MOL0    Cl 3796   5.162   1.567  11.654 -0.3667 -0.0601  0.2016
  787MOL0     C 3797   4.756   0.883  12.098  0.3770  0.1450 -0.3046
  787MOL0     C 3798   4.618   0.858  12.095 -1.5345 -0.8619 -0.6240
  787MOL0     O 3799   4.277   1.058  12.231  0.2531  0.0230 -0.1820
  787MOL0     C 3800   4.233   0.701  12.218 -0.9783  0.6149  0.1104
  787MOL0     C 3801   4.143   0.603  12.245  0.9535 -0.2705 -0.3528
  787MOL0     N 3802   3.580   0.203  11.906  0.5884 -0.0589  0.3914
  787MOL0     N 3803   3.500   0.243  11.809 -0.5010  0.5760  0.4914
  787MOL0     C 3804   3.553   1.055  10.812  1.2433  0.2752 -0.2919
  787MOL0     C 3805   3.485   1.171  10.840  0.2167  0.2944 -0.3501
  787MOL0     C 3806   3.275   1.528  10.945  1.2758 -0.9060  0.1033
  787MOL0     C 3807   3.147   1.531  10.882 -0.0615  0.6706 -0.2849
  787MOL0     C 3808   3.073   1.640  10.891  0.5330  0.2798  0.6915
  787MOL0     C 3809   3.094   1.749  10.977  0.5625 -0.2481 -0.6753
  787MOL0     O 3810   2.998   1.844  10.988 -0.2469 -0.4925  0.0501
  787MOL0     C 3811   3.004   1.934  10.884 -0.3739  1.5668 -0.6787
  787MOL0     C 3812   2.947   2.060  10.913  0.6626 -0.7735 -0.2959
  787MOL0     C 3813   2.792   2.053  10.946  1.0113  0.3731  0.4425
  787MOL0     C 3814   2.718   2.186  10.919  0.0112  0.9418  0.0078
  787MOL0     C 3815   2.583   2.183  10.988 -0.0570 -0.0908  0.5413
  787MOL0     C 3816   2.479   2.138  11.034  0.1470  0.3430  0.1164
  787MOL0     C 3817   3.219   1.752  11.041  1.2524  0.4440  0.5700
  787MOL0     C 3818   3.309   1.638  11.022 -0.1817  0.6213 -1.1806
  787MOL0     H 3819   3.240   1.053  11.038 -0.2252 -2.4929  0.0674
  787MOL0     H 3820   3.350   0.840  10.986 -0.5982  1.1363  1.9448
  787MOL0     H 3821   3.587   0.621  10.828 -3.5166 -1.4282  1.4152
  787MOL0     H 3822   3.490   0.686  10.941  0.2575  1.4981 -0.1438
  787MOL0     H 3823   3.710   0.770  11.068 -2.2017  1.6363 -1.2153
  787MOL0     H 3824   3.795   0.692  10.934  0.9521 -0.2481 -0.1424
  787MOL0     H 3825   3.788   0.551  11.133  0.3870  0.6885  1.6067
  787MOL0     H 3826   3.686   0.464  11.027  0.8169  1.5562 -1.6422
  787MOL0     H 3827   3.603   0.675  11.234  0.5375 -0.3563 -0.8482
  787MOL0     H 3828   3.483   0.594  11.133  0.3622 -0.2224 -2.3909
  787MOL0     H 3829   3.686   0.447  11.296 -0.5873 -0.4951 -0.6125
  787MOL0     H 3830   3.548   0.372  11.224  3.2422 -0.8207  0.5084
  787MOL0     H 3831   3.404   0.480  11.389  1.5666 -0.8481 -1.1329
  787MOL0     H 3832   3.540   0.593  11.424 -1.6471  1.9811 -1.7552
  787MOL0     H 3833   3.563   0.296  11.485  1.3614  1.4997 -1.5907
  787MOL0     H 3834   3.671   0.415  11.530  0.6453  2.0184 -0.3114
  787MOL0     H 3835   3.374   0.388  11.645 -1.0450  2.2873  1.9867
  787MOL0     H 3836   3.477   0.535  11.667  1.1176  0.3992 -0.2164
  787MOL0     H 3837   3.685   0.503  11.837 -1.3018 -0.2933  3.6886
  787MOL0     H 3838   3.861   0.373  12.006  1.2411 -0.0847  0.1781
  787MOL0     H 3839   3.820   0.207  12.028  0.9813  0.9403  0.8358
  787MOL0     H 3840   3.607   0.301  12.162 -0.5377 -0.7924 -0.7069
  787MOL0     H 3841   3.675   0.457  12.158  2.1089 -0.2522 -3.1016
  787MOL0     H 3842   3.737   0.322  12.368 -1.1980 -1.3664 -0.1431
  787MOL0     H 3843   3.835   0.210  12.289  3.1798  0.2889 -0.0826
  787MOL0     H 3844   3.996   0.371  12.208  1.8030 -0.0781  1.6292
  787MOL0     H 3845   3.967   0.379  12.388 -0.4210  1.3082 -0.4980
  787MOL0     H 3846   3.872   0.803  12.319  0.9792 -1.1221  2.9283
  787MOL0     H 3847   4.048   0.970  12.323 -0.0278 -1.1317  1.8107
  787MOL0     H 3848   4.511   1.103  12.286 -4.5429 -2.0130 -2.6163
  787MOL0     H 3849   4.755   1.138  12.320 -2.3197  0.8082  0.0931
  787MOL0     H 3850   5.128   1.071  12.227 -0.0263 -2.4448 -3.3882
  787MOL0     H 3851   4.991   1.116  12.337 -0.7870  1.8814 -0.5174
  787MOL0     H 3852   5.048   1.311  12.197  1.3447  3.0110 -7.4625
  787MOL0     H 3853   4.896   1.236  12.139  0.0801 -3.7779 -0.4293
  787MOL0     H 3854   5.033   1.315  11.961  0.6902  1.4968  1.7512
  787MOL0     H 3855   4.977   1.150  11.953  1.2757  1.0974 -2.0337
  787MOL0     H 3856   5.250   1.241  12.037 -0.8670  3.4470 -1.7613
  787MOL0     H 3857   5.201   1.069  12.036  2.4575  1.8465  0.9619
  787MOL0     H 3858   5.171   1.064  11.782 -0.4902  0.3354 -0.8778
  787MOL0     H 3859   5.325   1.118  11.825  0.3178 -0.6220 -0.3474
  787MOL0     H 3860   5.099   1.312  11.748 -1.5894 -1.4579  0.6521
  787MOL0     H 3861   5.222   1.240  11.643 -1.2813 -0.3944 -1.1056
  787MOL0     H 3862   5.282   1.428  11.894  1.1933  2.5863 -0.2808
  787MOL0     H 3863   5.401   1.339  11.819  0.8719  1.6482  4.3128
  787MOL0     H 3864   5.382   1.477  11.612  3.0766 -0.6114  2.5961
  787MOL0     H 3865   5.367   1.589  11.745 -0.5036 -0.5407  1.2037
  787MOL0     H 3866   4.815   0.820  12.032  0.2478 -0.2776 -0.0160
  787MOL0     H 3867   4.588   0.758  12.067 -2.2605 -0.7480 -0.2665
  787MOL0     H 3868   4.334   0.683  12.184 -0.5553  0.7799  1.2465
  787MOL0     H 3869   4.182   0.505  12.221 -0.1712 -0.8392  0.1165
  787MOL0     H 3870   3.651   1.059  10.765  0.6797  0.2787 -1.4969
  787MOL0     H 3871   3.532   1.257  10.793 -0.5985  1.4769  0.9181
  787MOL0     H 3872   3.128   1.449  10.813 -2.2662  0.9138 -0.0141
  787MOL0     H 3873   2.979   1.628  10.839  0.9414 -1.0823  0.2245
  787MOL0     H 3874   2.960   1.885  10.796  1.9689  1.3149 -1.7792
  787MOL0     H 3875   3.109   1.951  10.859 -0.2372  4.2728  1.3115
  787MOL0     H 3876   3.004   2.098  10.999  2.6303 -2.6905 -0.6509
  787MOL0     H 3877   2.963   2.129  10.830  0.2546  2.5204  2.1625
  787MOL0     H 3878   2.777   2.025  11.051 -0.0907 -0.4860  0.0748
  787MOL0     H 3879   2.750   1.978  10.878 -2.2657  0.3600  2.2387
  787MOL0     H 3880   2.781   2.252  10.980  0.3787 -1.6386  2.6100
  787MOL0     H 3881   2.709   2.222  10.816 -2.6173  0.6890  0.0843
  787MOL0     H 3882   2.386   2.099  11.070  1.9280 -3.5932  0.9823
  787MOL0     H 3883   3.258   1.836  11.098  0.4991  0.1015  1.6109
  787MOL0     H 3884   3.400   1.636  11.081 -2.0265 -2.3277  1.9523
  788MOL0     O 3885   5.017   3.889   5.085  0.2569 -0.5151  1.3966
  788MOL0     C 3886   4.967   3.797   5.018 -0.9688 -0.4483  0.1183
  788MOL0     O 3887   4.837   3.764   5.025  0.2439 -0.7340  0.1428
  788MOL0     C 3888   4.751   3.864   5.071 -0.4648 -0.6468 -0.6333
  788MOL0     C 3889   4.637   3.845   5.147  0.8082  0.1694 -0.3081
  788MOL0     C 3890   4.558   3.955   5.194  1.1338 -0.3388  0.5328
  788MOL0     C 3891   4.575   4.085   5.144  0.1134  0.4748  0.3474
  788MOL0     O 3892   4.481   4.188   5.167  0.4419 -0.5580 -0.1125
  788MOL0     C 3893   4.449   4.290   5.072 -0.3402  0.4683 -0.3161
  788MOL0     C 3894   4.399   4.409   5.135  0.1479  0.2671 -0.4048
  788MOL0     C 3895   4.379   4.524   5.028 -0.3645  0.4098 -0.7733
  788MOL0     C 3896   4.254   4.482   4.943 -0.2402 -0.4918  0.5190
  788MOL0     C 3897   4.189   4.609   4.880 -0.1599  0.4958 -0.0534
  788MOL0     C 3898   4.086   4.572   4.773  0.3040  0.3076 -0.4617
  788MOL0     C 3899   4.036   4.700   4.718 -0.3704  0.2702  0.9158
  788MOL0     C 3900   3.928   4.695   4.620 -0.1076  0.3214 -0.8371
  788MOL0     N 3901   3.797   4.644   4.671  0.9658  0.5337  0.8080
  788MOL0     C 3902   3.703   4.720   4.731  1.1970  0.7380  0.3327
  788MOL0     C 3903   3.627   4.631   4.797 -0.1277  0.2634  0.8212
  788MOL0     C 3904   3.498   4.658   4.864 -0.1945 -0.0732 -0.1548
  788MOL0     C 3905   3.519   4.694   5.020  0.3247  0.1173  0.8529
  788MOL0     C 3906   3.572   4.831   5.050 -0.1208 -0.9674 -0.1183
  788MOL0     C 3907   3.638   4.827   5.184 -0.2642 -0.3687  0.0604
  788MOL0     O 3908   3.548   4.776   5.279 -0.1144 -0.0382  0.1016
  788MOL0     C 3909   3.588   4.772   5.408 -0.3030  0.0698  0.3914
  788MOL0     C 3910   3.499   4.715   5.498  0.2123 -0.4806 -0.8671
  788MOL0     C 3911   3.520   4.707   5.640 -0.7510  0.6627  0.9127
  788MOL0     C 3912   3.640   4.768   5.679 -0.7776  0.3142  0.3442
  788MOL0     C 3913   3.674   4.758   5.825 -0.3410  0.6691 -0.2755
  788MOL0     O 3914   3.792   4.813   5.862 -0.7980  0.2639  0.0024
  788MOL0     C 3915   3.834   4.838   5.992 -0.1139 -0.7019 -1.1154
  788MOL0     C 3916   3.968   4.887   6.001  0.6721  0.7489 -0.2540
  788MOL0     C 3917   4.028   4.934   6.120  0.1670 -0.0325  0.5451
  788MOL0     C 3918   3.952   4.941   6.238  0.9713 -0.8574  0.0258
  788MOL0     O 3919   4.018   4.993   6.343 -1.1478  0.5100  0.2292
  788MOL0     C 3920   3.976   4.953   6.475 -0.4254 -0.4450 -0.4311
  788MOL0     C 3921   4.073   5.003   6.575  0.1182  0.0397  0.1581
  788MOL0     C 3922   4.021   4.980   6.713 -0.6742 -0.2423 -0.3474
  788MOL0     C 3923   4.141   5.009   6.813 -0.0129  0.4796  0.5300
  788MOL0     C 3924   4.236   4.888   6.828  0.8103  0.8828 -0.0116
  788MOL0     C 3925   4.347   4.922   6.925 -0.6940 -0.1140 -0.1424
  788MOL0     C 3926   4.454   4.809   6.936  0.4907 -0.5239 -1.8478
  788MOL0     C 3927   4.416   4.741   7.066 -0.5964  0.6055 -0.0697
  788MOL0    Cl 3928   4.505   4.580   7.093 -0.1758  0.0090 -0.6669
  788MOL0     C 3929   3.816   4.895   6.231 -1.0698 -0.1167 -0.6581
  788MOL0     C 3930   3.761   4.850   6.113 -0.1063  0.0591 -0.0673
  788MOL0     O 3931   3.606   4.684   5.901  0.4164  0.3907  0.1162
  788MOL0     C 3932   3.718   4.845   5.599 -0.1341 -0.3832  0.8428
  788MOL0     C 3933   3.700   4.838   5.462 -0.0856  0.3627 -0.0970
  788MOL0     N 3934   3.669   4.496   4.769 -0.7758 -0.0882  0.3917
  788MOL0     N 3935   3.771   4.514   4.688  0.4052  0.4332  0.4098
  788MOL0     C 3936   4.682   4.104   5.060 -0.4749  1.2150 -0.0031
  788MOL0     C 3937   4.768   3.998   5.033  0.4606 -0.9344  0.0950
  788MOL0     C 3938   5.058   3.712   4.949  0.3125 -0.3263  0.4010
  788MOL0     C 3939   5.007   3.601   4.878 -0.6797  0.6040 -1.1339
  788MOL0     C 3940   5.087   3.517   4.799 -0.8609 -0.4981 -1.3635
  788MOL0     C 3941   5.227   3.539   4.792 -0.3407  0.6526  0.1287
  788MOL0     O 3942   5.296   3.443   4.721 -0.1788  1.1215  0.2793
  788MOL0     C 3943   5.436   3.428   4.727  0.7261  1.0834 -0.8991
  788MOL0     C 3944   5.467   3.275   4.693  0.2284 -0.1971  0.2364
  788MOL0     C 3945   5.466   3.183   4.821 -0.6536  0.5433  0.1207
  788MOL0     C 3946   5.519   3.234   4.951 -0.3355 -0.1663  0.1089
  788MOL0     C 3947   5.649   3.286   4.934  0.1538 -0.0493  0.2075
  788MOL0     C 3948   5.747   3.361   4.934  0.3363 -0.4866 -0.5155
  788MOL0     C 3949   5.280   3.646   4.869  0.6055 -0.0768 -0.7661
  788MOL0     C 3950   5.196   3.734   4.942 -0.2686 -0.3579  0.2718
  788MOL0     H 3951   4.615   3.744   5.179  1.6809  0.7563  2.4463
  788MOL0     H 3952   4.464   3.939   5.246  0.5230 -0.7074 -0.6506
  788MOL0     H 3953   4.367   4.263   5.004 -1.0760  2.2424 -0.1977
  788MOL0     H 3954   4.535   4.314   5.009 -1.3282 -1.1893 -2.4055
  788MOL0     H 3955   4.478   4.428   5.208  0.1911  0.9246 -0.6193
  788MOL0     H 3956   4.299   4.391   5.177  0.5619 -3.3269 -0.6820
  788MOL0     H 3957   4.461   4.519   4.956 -0.0682 -2.1559 -0.3821
  788MOL0     H 3958   4.372   4.618   5.083 -1.6189 -0.7289  1.1278
  788MOL0     H 3959   4.268   4.407   4.865 -1.1140  0.6118 -0.7293
  788MOL0     H 3960   4.178   4.431   5.003  0.2088 -3.1448 -1.0103
  788MOL0     H 3961   4.269   4.668   4.836 -2.0880  3.6488  0.4089
  788MOL0     H 3962   4.143   4.674   4.955 -4.2148 -1.3321 -0.6690
  788MOL0     H 3963   4.007   4.519   4.825 -0.2294  2.5970  1.2206
  788MOL0     H 3964   4.121   4.497   4.702  0.6211 -0.3015  0.3255
  788MOL0     H 3965   4.000   4.768   4.797 -1.7592 -0.0994  0.6225
  788MOL0     H 3966   4.126   4.746   4.675  0.6001 -1.2708  1.2256
  788MOL0     H 3967   3.955   4.634   4.534  1.5237 -0.5322  0.2358
  788MOL0     H 3968   3.897   4.795   4.585 -0.6064  2.4652  4.7183
  788MOL0     H 3969   3.692   4.828   4.723 -2.3901  0.5753  1.4719
  788MOL0     H 3970   3.432   4.571   4.867 -0.4822  0.1058 -1.1985
  788MOL0     H 3971   3.437   4.726   4.803 -4.0236 -3.3973 -0.4199
  788MOL0     H 3972   3.590   4.615   5.048  0.5790 -0.1564 -0.4943
  788MOL0     H 3973   3.437   4.671   5.089  1.4562  2.6654  3.2400
  788MOL0     H 3974   3.647   4.857   4.975 -0.9746 -2.0541 -1.4053
  788MOL0     H 3975   3.489   4.902   5.049 -0.4063 -1.2999 -0.2901
  788MOL0     H 3976   3.649   4.929   5.221  1.7019 -1.2809  2.2531
  788MOL0     H 3977   3.738   4.783   5.179 -0.2580 -0.2563 -1.2052
  788MOL0     H 3978   3.425   4.642   5.465  2.0583 -2.4628 -0.8714
  788MOL0     H 3979   3.466   4.637   5.703  0.5633 -1.3118 -0.0457
  788MOL0     H 3980   4.035   4.882   5.915  0.2365 -2.8503 -0.5327
  788MOL0     H 3981   4.133   4.957   6.103 -0.3693  1.0887 -1.8797
  788MOL0     H 3982   3.980   4.844   6.480  3.7915 -0.5950 -2.7647
  788MOL0     H 3983   3.883   5.003   6.503  1.8321  5.8990 -2.5987
  788MOL0     H 3984   4.095   5.108   6.556 -2.8288  0.9473  1.2329
  788MOL0     H 3985   4.169   4.950   6.568  1.0418  1.7790 -0.9565
  788MOL0     H 3986   4.000   4.874   6.731  0.0195 -0.7414 -2.2070
  788MOL0     H 3987   3.943   5.050   6.742 -1.2228 -1.7245  2.0644
  788MOL0     H 3988   4.196   5.098   6.780 -0.4118  1.3215  2.0372
  788MOL0     H 3989   4.106   5.030   6.914 -0.6161  1.2692  0.1729
  788MOL0     H 3990   4.288   4.864   6.735  2.2512 -2.1066  1.4153
  788MOL0     H 3991   4.180   4.807   6.876  0.6009  1.2786  0.4224
  788MOL0     H 3992   4.326   4.972   7.021  0.5576 -1.5600  0.9318
  788MOL0     H 3993   4.400   4.996   6.865  0.4188 -1.8625 -1.3815
  788MOL0     H 3994   4.451   4.739   6.852 -3.0131 -0.9450 -1.4923
  788MOL0     H 3995   4.555   4.848   6.952  0.6983 -2.3785  3.7739
  788MOL0     H 3996   4.310   4.716   7.060 -0.3419 -0.1725 -1.9144
  788MOL0     H 3997   4.435   4.797   7.158  0.5349 -1.9403  1.3524
  788MOL0     H 3998   3.746   4.900   6.314 -0.0774 -1.9504  0.3541
  788MOL0     H 3999   3.658   4.821   6.097 -0.5548  2.2584 -1.6443
  788MOL0     H 4000   3.802   4.905   5.631  0.0858 -0.6954  0.8645
  788MOL0     H 4001   3.772   4.886   5.396 -0.8899 -2.3682 -3.2377
  788MOL0     H 4002   4.693   4.199   5.010  0.7041  1.1110  0.0151
  788MOL0     H 4003   4.843   4.020   4.958  0.9717  2.1025  1.3801
  788MOL0     H 4004   4.901   3.581   4.882 -0.0452 -4.1367 -1.8025
  788MOL0     H 4005   5.051   3.423   4.757 -0.4807 -0.1039 -2.6314
  788MOL0     H 4006   5.477   3.452   4.825 -0.3355 -0.5521 -0.0017
  788MOL0     H 4007   5.474   3.500   4.654 -1.1148  2.6966 -0.3385
  788MOL0     H 4008   5.406   3.230   4.613 -1.1261  2.2979 -0.2199
  788MOL0     H 4009   5.573   3.273   4.666  0.0692  3.4514 -1.1462
  788MOL0     H 4010   5.536   3.102   4.798  0.1294  1.7907 -2.2841
  788MOL0     H 4011   5.370   3.140   4.848 -0.4320  1.4748  2.6634
  788MOL0     H 4012   5.464   3.308   5.010  0.7313 -0.0887  1.0499
  788MOL0     H 4013   5.530   3.143   5.012  0.9338 -0.7610 -0.9577
  788MOL0     H 4014   5.836   3.420   4.923 -0.2533  0.5130 -0.0624
  788MOL0     H 4015   5.387   3.641   4.887  0.2097 -1.1466  1.7083
  788MOL0     H 4016   5.230   3.827   4.987  0.7265 -0.6703  0.1769
  789MOL0     O 4017   6.449   8.919   9.474 -1.0194 -0.4323 -0.2315
  789MOL0     C 4018   6.522   8.879   9.384 -0.6395  0.5186  0.5526
  789MOL0     O 4019   6.656   8.861   9.383  0.2477 -0.2409 -0.3716
  789MOL0     C 4020   6.721   8.897   9.493  0.9321 -0.3853 -0.3221
  789MOL0     C 4021   6.719   8.815   9.606 -0.7400 -0.3879 -0.2023
  789MOL0     C 4022   6.801   8.838   9.719  0.0060 -0.1068 -0.6741
  789MOL0     C 4023   6.868   8.955   9.732  0.1066  0.3940 -0.3619
  789MOL0     O 4024   6.927   8.976   9.856  0.0782  0.8024  1.3306
  789MOL0     C 4025   7.007   9.089   9.861  0.6130  0.6036 -0.9218
  789MOL0     C 4026   7.078   9.095   9.995  0.1211  0.2753 -0.9187
  789MOL0     C 4027   6.987   9.073  10.118 -0.0628 -0.0233 -0.2716
  789MOL0     C 4028   7.081   9.077  10.240  0.1529  0.0438  0.2715
  789MOL0     C 4029   7.022   9.028  10.372  0.1831  0.0632  0.5797
  789MOL0     C 4030   6.883   9.083  10.404  1.3112 -0.3501 -0.5070
  789MOL0     C 4031   6.831   9.026  10.526  0.2884 -0.1035 -0.3699
  789MOL0     C 4032   6.698   9.102  10.566  0.3812 -0.3857  1.0233
  789MOL0     N 4033   6.690   9.131  10.713  0.0840 -0.3220  0.6646
  789MOL0     C 4034   6.647   9.045  10.810  0.1687 -0.3231  0.6558
  789MOL0     C 4035   6.646   9.109  10.919 -0.4682 -0.3010 -0.4468
  789MOL0     C 4036   6.587   9.054  11.049 -0.0030  0.4364 -0.0555
  789MOL0     C 4037   6.672   9.081  11.172 -1.0339 -0.1621 -1.0175
  789MOL0     C 4038   6.602   9.047  11.306  0.6195  0.6612  0.4742
  789MOL0     C 4039   6.663   9.118  11.422 -0.4856  0.3551 -1.3398
  789MOL0     O 4040   6.602   9.069  11.537  0.0755  0.8577  0.5159
  789MOL0     C 4041   6.622   9.133  11.656  1.0712 -0.0934 -0.8468
  789MOL0     C 4042   6.720   9.231  11.692 -0.1661  0.2299  0.5655
  789MOL0     C 4043   6.721   9.292  11.816 -0.1263 -0.3693 -0.8228
  789MOL0     C 4044   6.617   9.272  11.913 -0.2983 -0.1592  0.2375
  789MOL0     C 4045   6.604   9.328  12.048 -1.0718 -0.3888  0.2416
  789MOL0     O 4046   6.507   9.276  12.129 -0.3296 -0.1854  0.4049
  789MOL0     C 4047   6.454   9.345  12.235 -0.1865 -0.1070  0.2856
  789MOL0     C 4048   6.393   9.262  12.332 -0.4064 -0.7777  0.7711
  789MOL0     C 4049   6.322   9.324  12.444  0.2025 -0.9307  0.3847
  789MOL0     C 4050   6.313   9.461  12.444  0.3439  0.3650 -1.2877
  789MOL0     O 4051   6.238   9.512  12.554 -0.0481  0.1900  0.3747
  789MOL0     C 4052   6.251   9.650  12.602  1.0035 -0.4031  0.0832
  789MOL0     C 4053   6.393   9.698  12.631 -0.6004 -0.3147  0.6414
  789MOL0     C 4054   6.436   9.669  12.780 -0.3828 -0.0302  0.5805
  789MOL0     C 4055   6.525   9.538  12.799  0.2118  0.4471  0.1388
  789MOL0     C 4056   6.529   9.480  12.934  0.0426 -0.9661 -0.4489
  789MOL0     C 4057   6.677   9.452  12.960 -1.1564  0.0731  0.1732
  789MOL0     C 4058   6.689   9.395  13.102  0.8577 -0.3614 -0.1427
  789MOL0     C 4059   6.831   9.357  13.119 -0.3010  0.3757  0.1429
  789MOL0    Cl 4060   6.857   9.291  13.283  0.1434 -0.4030 -0.0004
  789MOL0     C 4061   6.363   9.536  12.339  0.4203  0.9009 -0.2156
  789MOL0     C 4062   6.442   9.486  12.239  0.6614  0.0670 -0.4407
  789MOL0     O 4063   6.684   9.419  12.082  0.1442  0.2154  0.1424
  789MOL0     C 4064   6.531   9.167  11.869 -0.0717 -1.0396  0.6709
  789MOL0     C 4065   6.531   9.098  11.751  0.1359  0.1441  0.0782
  789MOL0     N 4066   6.699   9.242  10.890 -0.2120  0.4838 -0.8628
  789MOL0     N 4067   6.734   9.245  10.772  0.1627  0.9733 -0.2001
  789MOL0     C 4068   6.876   9.039   9.616  0.0405  0.2636  0.4528
  789MOL0     C 4069   6.805   9.005   9.500  0.0994 -0.2484  0.4296
  789MOL0     C 4070   6.440   8.835   9.259 -0.4533 -0.2718 -0.6029
  789MOL0     C 4071   6.297   8.832   9.269  0.7642  0.7377 -0.4255
  789MOL0     C 4072   6.226   8.781   9.158  0.6159  0.0307 -0.4305
  789MOL0     C 4073   6.287   8.742   9.044  0.1416 -0.3413  0.1884
  789MOL0     O 4074   6.217   8.700   8.933  0.2155  0.3362  0.4300
  789MOL0     C 4075   6.070   8.667   8.935  0.3020 -0.1411  1.0039
  789MOL0     C 4076   6.024   8.626   8.794 -0.2518  0.2773  0.8717
  789MOL0     C 4077   6.083   8.486   8.752 -1.0365  0.4567 -0.2352
  789MOL0     C 4078   6.033   8.460   8.616  0.0124 -0.0413  0.8216
  789MOL0     C 4079   6.097   8.341   8.560  1.3525  0.2385 -0.0001
  789MOL0     C 4080   6.155   8.244   8.534 -0.0543  0.5228 -0.0217
  789MOL0     C 4081   6.430   8.746   9.041  0.9713  0.0140  1.1550
  789MOL0     C 4082   6.505   8.797   9.141 -0.1677 -0.9573  0.0166
  789MOL0     H 4083   6.655   8.728   9.610  0.2993 -1.1485  1.5459
  789MOL0     H 4084   6.789   8.774   9.806  1.3377 -0.9286 -1.0544
  789MOL0     H 4085   6.949   9.180   9.845 -1.1984 -0.3955 -0.2841
  789MOL0     H 4086   7.088   9.092   9.787  0.2897  0.7083 -1.2728
  789MOL0     H 4087   7.120   9.195   9.984 -0.3324  0.3940 -1.6453
  789MOL0     H 4088   7.165   9.029   9.998 -0.0059  0.0607 -1.8225
  789MOL0     H 4089   6.931   8.979  10.109  0.1947 -0.1351 -0.7161
  789MOL0     H 4090   6.930   9.163  10.142  1.5843  0.8782  0.4111
  789MOL0     H 4091   7.166   9.014  10.209 -1.4656 -2.0591 -0.1166
  789MOL0     H 4092   7.115   9.180  10.250 -4.7420  2.2264 -2.2271
  789MOL0     H 4093   7.088   9.066  10.451 -1.7685  1.7847  1.4694
  789MOL0     H 4094   7.020   8.919  10.362  0.9435  0.2251 -1.8621
  789MOL0     H 4095   6.821   9.055  10.318 -1.5631  2.2978  0.5391
  789MOL0     H 4096   6.894   9.192  10.407  0.0276 -0.2124 -0.4594
  789MOL0     H 4097   6.795   8.923  10.524  0.5536 -0.2972  1.8291
  789MOL0     H 4098   6.907   9.043  10.604 -1.1401  1.2802  0.8081
  789MOL0     H 4099   6.617   9.041  10.525 -0.9249  1.1424  1.2681
  789MOL0     H 4100   6.675   9.193  10.511 -1.2479 -1.3049  0.0794
  789MOL0     H 4101   6.594   8.951  10.805 -0.5919  0.1559 -0.8755
  789MOL0     H 4102   6.568   8.946  11.052 -0.4041  0.5183  2.0875
  789MOL0     H 4103   6.494   9.111  11.057 -0.5925 -0.4062 -0.7121
  789MOL0     H 4104   6.699   9.187  11.173 -0.7145 -0.2178  1.2396
  789MOL0     H 4105   6.761   9.020  11.158  0.3219  1.3475  0.6020
  789MOL0     H 4106   6.493   9.053  11.302  0.6222  0.8869  0.7602
  789MOL0     H 4107   6.627   8.941  11.316 -2.9312 -0.6428 -2.2226
  789MOL0     H 4108   6.643   9.226  11.423 -0.2679  0.5514  3.7071
  789MOL0     H 4109   6.770   9.095  11.422 -0.9350 -2.1040  0.2324
  789MOL0     H 4110   6.789   9.259  11.613 -1.0498  0.2128 -0.2294
  789MOL0     H 4111   6.809   9.346  11.850  0.1907 -1.6602  0.5182
  789MOL0     H 4112   6.404   9.155  12.323 -0.6233 -0.7023 -0.5358
  789MOL0     H 4113   6.267   9.266  12.518 -2.2808 -0.2883 -0.8454
  789MOL0     H 4114   6.193   9.659  12.694  0.2980  0.2301 -0.4156
  789MOL0     H 4115   6.205   9.711  12.524 -1.9619 -1.0484  1.2113
  789MOL0     H 4116   6.389   9.806  12.612 -1.6739 -0.5615 -0.7061
  789MOL0     H 4117   6.455   9.650  12.555 -2.6692 -1.1845 -0.5925
  789MOL0     H 4118   6.360   9.678  12.859 -0.9353  0.0735  0.0528
  789MOL0     H 4119   6.510   9.748  12.791 -0.7784  1.4110 -4.4349
  789MOL0     H 4120   6.493   9.461  12.728 -0.5185  1.8825 -1.1775
  789MOL0     H 4121   6.624   9.568  12.764  0.9623  0.5972  2.2943
  789MOL0     H 4122   6.465   9.391  12.937 -2.6751  0.8006  3.7550
  789MOL0     H 4123   6.490   9.549  13.009 -0.8438 -0.3115 -1.4808
  789MOL0     H 4124   6.727   9.545  12.934 -3.3303  0.3918 -3.5544
  789MOL0     H 4125   6.707   9.372  12.891  0.9086  0.4114  0.6339
  789MOL0     H 4126   6.649   9.458  13.182  1.2402  1.1700 -1.1076
  789MOL0     H 4127   6.626   9.307  13.118 -0.6097  0.7429  0.4079
  789MOL0     H 4128   6.893   9.441  13.088  2.0620 -0.8315  1.3642
  789MOL0     H 4129   6.853   9.279  13.046 -0.8135 -1.0845  1.4763
  789MOL0     H 4130   6.337   9.641  12.342 -0.3277  0.6914  1.2129
  789MOL0     H 4131   6.498   9.550  12.172  0.8630  0.3214 -0.0350
  789MOL0     H 4132   6.458   9.144  11.945  1.1227  2.0417  2.9511
  789MOL0     H 4133   6.456   9.027  11.717 -2.6853  2.4367  1.0187
  789MOL0     H 4134   6.944   9.123   9.600  0.8963 -0.9109 -3.2028
  789MOL0     H 4135   6.830   9.063   9.411 -1.7691  1.3790  0.8842
  789MOL0     H 4136   6.246   8.854   9.362 -2.2315 -2.4233 -1.1086
  789MOL0     H 4137   6.121   8.769   9.184  1.8967 -4.0704  4.7650
  789MOL0     H 4138   5.995   8.738   8.970 -1.3965 -2.0103  1.3301
  789MOL0     H 4139   6.073   8.590   9.012  1.8142  1.0930  2.2299
  789MOL0     H 4140   5.915   8.620   8.782 -0.4861  0.5787  2.5391
  789MOL0     H 4141   6.072   8.696   8.725  0.9833  0.1776  1.6053
  789MOL0     H 4142   6.040   8.420   8.829 -2.2493  2.8883  1.3134
  789MOL0     H 4143   6.192   8.492   8.749 -1.0263  0.0130 -2.3524
  789MOL0     H 4144   5.927   8.431   8.609  0.5467 -1.7044 -3.2335
  789MOL0     H 4145   6.038   8.547   8.551  0.1391 -0.1059  0.7459
  789MOL0     H 4146   6.207   8.157   8.499 -2.9802 -1.4658  0.1608
  789MOL0     H 4147   6.475   8.726   8.944 -1.7725 -0.7453 -0.0665
  789MOL0     H 4148   6.613   8.810   9.138 -0.2617  0.6961  1.7962
  790MOL0     O 4149   9.751   1.230   0.757 -0.6671 -0.1517  0.1861
  790MOL0     C 4150   9.720   1.286   0.860 -0.3735  0.1867  0.4044
  790MOL0     O 4151   9.685   1.417   0.875 -0.6689 -0.0935 -0.4804
  790MOL0     C 4152   9.720   1.518   0.782 -0.3814  0.3880 -0.4056
  790MOL0     C 4153   9.644   1.636   0.780  0.4123  0.4263  0.9560
  790MOL0     C 4154   9.680   1.747   0.696 -0.4058 -0.6554 -0.3167
  790MOL0     C 4155   9.793   1.744   0.614  0.6652  0.1727 -0.0323
  790MOL0     O 4156   9.841   1.843   0.540  0.4020 -0.5777  0.9416
  790MOL0     C 4157   9.806   1.983   0.563  0.2481  0.8474  1.6189
  790MOL0     C 4158   9.916   2.071   0.502  0.1279  0.5281 -0.2374
  790MOL0     C 4159  10.030   2.063   0.599  0.1676  0.1949 -0.5423
  790MOL0     C 4160  10.133   2.178   0.580  0.2698  0.3685  1.3085
  790MOL0     C 4161  10.078   2.317   0.645 -0.3500  0.3023 -0.5580
  790MOL0     C 4162  10.199   2.412   0.627 -0.0796  0.1935  0.0226
  790MOL0     C 4163  10.170   2.560   0.663  0.5839  0.4477 -0.1860
  790MOL0     C 4164  10.055   2.614   0.572  0.1056 -0.6256 -1.0625
  790MOL0     N 4165  10.078   2.583   0.431  0.6221  0.6714  0.3363
  790MOL0     C 4166  10.022   2.473   0.367  1.1260 -0.9484  0.5407
  790MOL0     C 4167  10.041   2.500   0.234 -0.0247 -0.3031  0.8796
  790MOL0     C 4168  10.003   2.414   0.109  0.7568  0.4799  0.3239
  790MOL0     C 4169  10.093   2.290   0.094  0.4117 -0.0744  0.0416
  790MOL0     C 4170  10.036   2.182  -0.000 -0.6603 -0.3927  0.7326
  790MOL0     C 4171  10.029   2.225  -0.151 -0.0169 -0.2190  0.5097
  790MOL0     O 4172   9.995   2.115  -0.242  0.4883 -0.3177 -0.2744
  790MOL0     C 4173   9.883   2.131  -0.319 -0.9077 -0.2224 -0.1264
  790MOL0     C 4174   9.893   2.220  -0.425 -0.0572 -0.3140  0.6983
  790MOL0     C 4175   9.777   2.261  -0.497  0.4019  0.6330  0.2839
  790MOL0     C 4176   9.649   2.210  -0.455  0.0626  0.1338  0.4100
  790MOL0     C 4177   9.519   2.260  -0.515 -0.7345 -0.3292  0.1081
  790MOL0     O 4178   9.399   2.202  -0.459  0.0881 -0.2254 -0.1184
  790MOL0     C 4179   9.280   2.266  -0.494 -0.7220  0.0213 -0.6261
  790MOL0     C 4180   9.251   2.399  -0.489  0.0432 -0.9821 -0.6740
  790MOL0     C 4181   9.123   2.442  -0.535  0.4512 -0.4582  0.6016
  790MOL0     C 4182   9.024   2.352  -0.580  0.2168  0.9566 -0.0683
  790MOL0     O 4183   8.896   2.386  -0.620  0.0925  0.1335 -0.1362
  790MOL0     C 4184   8.893   2.503  -0.703  0.4536  0.1139  0.2083
  790MOL0     C 4185   8.742   2.557  -0.713 -0.8652 -0.5755  0.2008
  790MOL0     C 4186   8.696   2.617  -0.575 -1.0049  0.8984 -0.0408
  790MOL0     C 4187   8.546   2.670  -0.590 -1.0377  0.6847 -0.1978
  790MOL0     C 4188   8.514   2.747  -0.471 -0.3025  0.7603  0.4506
  790MOL0     C 4189   8.365   2.772  -0.447  0.4900  0.6827 -0.0484
  790MOL0     C 4190   8.320   2.802  -0.302 -0.1395 -0.4177  0.4626
  790MOL0     C 4191   8.173   2.811  -0.298  0.3689  0.9958 -0.0477
  790MOL0    Cl 4192   8.118   2.874  -0.146  0.0676 -0.0605 -0.6894
  790MOL0     C 4193   9.048   2.217  -0.560  0.2976  1.1957 -0.3562
  790MOL0     C 4194   9.175   2.173  -0.531  0.5232 -0.1480  0.4592
  790MOL0     O 4195   9.527   2.347  -0.604  0.6797 -0.7707  0.0509
  790MOL0     C 4196   9.650   2.111  -0.359 -0.2949 -0.3504 -0.6650
  790MOL0     C 4197   9.758   2.087  -0.280 -0.3172  0.2820 -0.6405
  790MOL0     N 4198  10.114   2.620   0.226 -0.1894  0.1316 -0.9248
  790MOL0     N 4199  10.119   2.673   0.341  0.0257  0.3981 -0.0300
  790MOL0     C 4200   9.870   1.624   0.619 -0.1832  0.6727 -0.2098
  790MOL0     C 4201   9.836   1.520   0.705  0.2170 -0.1808  0.1742
  790MOL0     C 4202   9.706   1.202   0.982  0.2667 -0.7010  0.3912
  790MOL0     C 4203   9.795   1.099   1.013 -0.2264 -0.7282  0.2909
  790MOL0     C 4204   9.768   1.012   1.114  0.5474 -0.2504 -0.8848
  790MOL0     C 4205   9.666   1.045   1.208  0.7784 -1.2272 -0.3228
  790MOL0     O 4206   9.633   0.964   1.308  0.0833 -0.1517  0.6355
  790MOL0     C 4207   9.730   0.929   1.404 -0.2274 -0.1129  0.3050
  790MOL0     C 4208   9.698   0.989   1.538  0.2942  0.2474 -0.5139
  790MOL0     C 4209   9.802   0.957   1.636  0.3877  0.5960 -0.8746
  790MOL0     C 4210   9.770   0.995   1.785 -0.9344 -0.5522  0.1782
  790MOL0     C 4211   9.677   0.895   1.845 -0.2427  0.0974  0.6644
  790MOL0     C 4212   9.609   0.807   1.885  0.4942  0.6761  0.1836
  790MOL0     C 4213   9.584   1.148   1.184  0.0282 -0.7923 -0.1441
  790MOL0     C 4214   9.601   1.221   1.066  0.1622  0.0422  0.0340
  790MOL0     H 4215   9.562   1.647   0.851 -2.9924  0.7792 -2.6688
  790MOL0     H 4216   9.614   1.832   0.698  1.7465  1.1268 -0.7635
  790MOL0     H 4217   9.790   2.016   0.666 -0.9473 -1.3620  2.1968
  790MOL0     H 4218   9.707   1.993   0.517  0.5649 -2.4236 -0.0622
  790MOL0     H 4219   9.877   2.173   0.493 -2.7010 -0.5828 -2.1472
  790MOL0     H 4220   9.946   2.044   0.400 -1.7103 -0.0223 -0.6757
  790MOL0     H 4221  10.085   1.971   0.578 -0.7192  0.0465 -2.4550
  790MOL0     H 4222   9.997   2.069   0.703 -0.7706  1.3838 -0.8752
  790MOL0     H 4223  10.231   2.165   0.626  0.4950  1.0764  1.0283
  790MOL0     H 4224  10.145   2.187   0.472  0.7884 -2.8065  1.0129
  790MOL0     H 4225  10.071   2.294   0.752 -0.9992  3.0213  0.0698
  790MOL0     H 4226   9.987   2.361   0.603  1.4251  1.7421 -3.1853
  790MOL0     H 4227  10.250   2.421   0.531  1.0979  3.3175  0.8316
  790MOL0     H 4228  10.271   2.372   0.698 -1.2981  1.0097  1.7943
  790MOL0     H 4229  10.138   2.557   0.767  1.9256 -3.0492  0.2861
  790MOL0     H 4230  10.256   2.627   0.655  0.7473  0.3606  0.7709
  790MOL0     H 4231  10.044   2.719   0.601  0.7270 -0.9949  0.6448
  790MOL0     H 4232   9.961   2.569   0.605  1.1336 -2.4064 -0.4095
  790MOL0     H 4233   9.970   2.385   0.402 -2.0645  0.6266  0.1316
  790MOL0     H 4234   9.993   2.475   0.019 -0.1833  0.8946  0.6890
  790MOL0     H 4235   9.901   2.379   0.128  0.1674  3.3812  3.4342
  790MOL0     H 4236  10.086   2.240   0.192  1.6905 -0.3938 -0.0142
  790MOL0     H 4237  10.196   2.319   0.070  0.4615 -1.2563 -1.2877
  790MOL0     H 4238  10.097   2.091   0.004 -3.7206 -2.6269 -0.1805
  790MOL0     H 4239   9.936   2.164   0.039 -0.6525  2.2855  2.2159
  790MOL0     H 4240  10.127   2.258  -0.186  0.7998  0.2538  3.0085
  790MOL0     H 4241   9.974   2.319  -0.165  0.8000  0.6915  2.8969
  790MOL0     H 4242   9.990   2.264  -0.446  0.9353 -1.5381  2.3985
  790MOL0     H 4243   9.794   2.326  -0.582 -1.8061  2.3763  1.0921
  790MOL0     H 4244   9.332   2.454  -0.442  1.6436 -3.6844 -0.0029
  790MOL0     H 4245   9.096   2.546  -0.520 -2.2145 -1.0728  0.6321
  790MOL0     H 4246   8.924   2.461  -0.799 -0.8586  1.5292 -0.8890
  790MOL0     H 4247   8.957   2.585  -0.668  1.6998 -0.7842  0.0785
  790MOL0     H 4248   8.685   2.469  -0.744 -0.0800 -1.3479  0.8988
  790MOL0     H 4249   8.741   2.628  -0.797 -0.0534 -2.5468 -1.5685
  790MOL0     H 4250   8.772   2.688  -0.543 -2.7374  2.4098  0.9251
  790MOL0     H 4251   8.696   2.533  -0.505 -0.4019  1.1842  0.3061
  790MOL0     H 4252   8.550   2.728  -0.683  3.9243 -0.7408 -1.2082
  790MOL0     H 4253   8.469   2.594  -0.606 -1.6446  1.7376 -2.8235
  790MOL0     H 4254   8.574   2.838  -0.486  0.8586 -0.0081  0.3488
  790MOL0     H 4255   8.556   2.703  -0.380 -1.0946  1.9290  1.4184
  790MOL0     H 4256   8.308   2.698  -0.504  0.1723  1.6748 -1.0571
  790MOL0     H 4257   8.335   2.862  -0.503  0.9366  1.0116  0.2381
  790MOL0     H 4258   8.362   2.716  -0.250  1.6697  0.9444  1.4064
  790MOL0     H 4259   8.361   2.892  -0.255  4.4871 -2.3371  0.6263
  790MOL0     H 4260   8.128   2.712  -0.312  2.5199 -0.3310  1.6878
  790MOL0     H 4261   8.137   2.882  -0.373 -1.0588  1.3943  0.9724
  790MOL0     H 4262   8.966   2.151  -0.583 -0.2976  1.3612  1.1588
  790MOL0     H 4263   9.179   2.065  -0.527 -0.9025 -0.3992 -2.1289
  790MOL0     H 4264   9.558   2.056  -0.344 -0.7516 -1.1917 -5.0891
  790MOL0     H 4265   9.757   2.009  -0.204 -0.7028 -0.7872 -1.7250
  790MOL0     H 4266   9.959   1.605   0.560 -1.5534  0.8171 -2.4637
  790MOL0     H 4267   9.900   1.433   0.710  0.7246  0.1628 -0.3086
  790MOL0     H 4268   9.862   1.063   0.935  1.0240  1.0018  0.5011
  790MOL0     H 4269   9.827   0.922   1.107 -2.0598 -2.1083 -0.4410
  790MOL0     H 4270   9.831   0.958   1.374 -0.5684  3.1192  1.8223
  790MOL0     H 4271   9.721   0.820   1.407 -0.4888 -0.0889  0.4110
  790MOL0     H 4272   9.683   1.097   1.527 -1.9952 -0.0521 -0.8189
  790MOL0     H 4273   9.601   0.953   1.573  0.5590  0.7651  0.8407
  790MOL0     H 4274   9.892   1.011   1.605  0.8765  0.5066  0.3317
  790MOL0     H 4275   9.810   0.848   1.643  0.9487  0.7431  2.8381
  790MOL0     H 4276   9.864   0.988   1.840 -0.4960  2.0107 -0.1063
  790MOL0     H 4277   9.743   1.100   1.800 -0.4956 -0.5568  1.0610
  790MOL0     H 4278   9.549   0.732   1.932 -1.3428  1.2802 -1.1182
  790MOL0     H 4279   9.502   1.152   1.254 -0.1563  0.0745 -0.4044
  790MOL0     H 4280   9.519   1.287   1.042  0.2604 -0.2376 -1.1765
  791MOL0     O 4281  10.405   1.399   5.774  0.2850  0.0438  0.3241
  791MOL0     C 4282  10.447   1.425   5.659 -0.3642  0.4898  0.4724
  791MOL0     O 4283  10.376   1.475   5.554 -0.8389  1.1217  0.3864
  791MOL0     C 4284  10.256   1.534   5.574  0.1988 -0.3458  0.1781
  791MOL0     C 4285  10.186   1.569   5.687  0.7541  0.3022  0.7751
  791MOL0     C 4286  10.075   1.662   5.683 -0.0510  0.6837 -0.0695
  791MOL0     C 4287  10.039   1.706   5.556  0.0403 -0.4074 -1.3801
  791MOL0     O 4288   9.920   1.775   5.544 -0.3135  0.8277  1.0733
  791MOL0     C 4289   9.905   1.868   5.431 -0.0701  0.9120 -0.1166
  791MOL0     C 4290   9.804   1.973   5.488  0.4929 -0.5664  0.0191
  791MOL0     C 4291   9.685   1.918   5.559 -0.5777 -0.3549 -0.6859
  791MOL0     C 4292   9.606   1.823   5.467 -0.5196 -0.1123 -0.4951
  791MOL0     C 4293   9.532   1.882   5.354 -0.2188 -0.4287  0.1713
  791MOL0     C 4294   9.435   1.780   5.300 -0.1332  0.3463 -0.4049
  791MOL0     C 4295   9.393   1.819   5.162  0.2872  0.2253  0.2995
  791MOL0     C 4296   9.285   1.720   5.109  0.2513 -0.1521  0.0754
  791MOL0     N 4297   9.155   1.741   5.175 -0.0204 -0.9790  1.0590
  791MOL0     C 4298   9.049   1.825   5.139 -0.4151 -0.4630 -0.3440
  791MOL0     C 4299   8.958   1.828   5.230  0.2880 -0.3888  0.7644
  791MOL0     C 4300   8.830   1.906   5.231  0.1818 -0.2674 -0.7166
  791MOL0     C 4301   8.694   1.832   5.194 -0.2724  0.2122  0.2702
  791MOL0     C 4302   8.674   1.720   5.289  0.6688  0.0403 -0.2149
  791MOL0     C 4303   8.526   1.679   5.287  0.4792 -0.8113 -0.1849
  791MOL0     O 4304   8.507   1.559   5.379 -0.3397 -0.8945  0.5048
  791MOL0     C 4305   8.407   1.487   5.317 -0.7271  0.5840  0.8128
  791MOL0     C 4306   8.436   1.404   5.209 -1.2555  0.3359 -0.5705
  791MOL0     C 4307   8.339   1.341   5.141  0.2246  0.0550  0.0383
  791MOL0     C 4308   8.203   1.353   5.187 -0.4322 -0.7767 -0.5744
  791MOL0     C 4309   8.095   1.280   5.115  0.7076  0.5523  0.5911
  791MOL0     O 4310   8.122   1.171   5.042 -0.1524 -0.3616  0.6517
  791MOL0     C 4311   8.043   1.099   4.954 -0.2271  0.4379  0.4345
  791MOL0     C 4312   8.103   1.050   4.836 -0.1901 -0.2766 -0.4263
  791MOL0     C 4313   8.041   0.967   4.746  0.9614 -0.2430  0.2811
  791MOL0     C 4314   7.908   0.929   4.784  0.2143 -0.1076 -0.2827
  791MOL0     O 4315   7.842   0.833   4.692 -0.5527  0.2199  0.4632
  791MOL0     C 4316   7.697   0.813   4.690  1.0090  0.2775  0.1713
  791MOL0     C 4317   7.678   0.710   4.581  0.3611  0.1077 -0.3531
  791MOL0     C 4318   7.545   0.643   4.608  0.1132  0.1489 -0.5591
  791MOL0     C 4319   7.522   0.541   4.490  0.1610 -0.0856 -0.4071
  791MOL0     C 4320   7.379   0.483   4.506  0.6422  0.2891  0.5178
  791MOL0     C 4321   7.353   0.364   4.421 -0.4176 -1.1440  1.1841
  791MOL0     C 4322   7.212   0.320   4.412 -0.1128  0.5614 -0.1942
  791MOL0     C 4323   7.192   0.174   4.365  0.2609 -0.7216 -0.4541
  791MOL0    Cl 4324   7.021   0.145   4.392 -0.0527  0.3839 -0.1189
  791MOL0     C 4325   7.841   0.986   4.899 -1.5649 -0.6839  0.1228
  791MOL0     C 4326   7.913   1.065   4.984  0.0902  0.2264  1.1465
  791MOL0     O 4327   7.980   1.330   5.119  0.1604  0.2431  0.1656
  791MOL0     C 4328   8.173   1.438   5.293  0.0624 -0.4254 -0.3652
  791MOL0     C 4329   8.281   1.506   5.357  0.7018 -0.3218  0.3858
  791MOL0     N 4330   8.998   1.725   5.309 -1.2052 -0.5850 -0.7382
  791MOL0     N 4331   9.111   1.682   5.287  0.3149  0.8738  0.1230
  791MOL0     C 4332  10.117   1.677   5.446 -0.2963  0.3303  0.1869
  791MOL0     C 4333  10.222   1.591   5.450 -0.0117 -0.4975 -0.0128
  791MOL0     C 4334  10.594   1.396   5.629  0.0090  0.2536  0.2768
  791MOL0     C 4335  10.676   1.340   5.729  0.4823  0.4220  0.1218
  791MOL0     C 4336  10.811   1.317   5.697 -1.0554 -0.3339  0.3250
  791MOL0     C 4337  10.868   1.332   5.573  0.1594  0.7999  1.0089
  791MOL0     O 4338  10.999   1.294   5.562 -0.7605 -0.7744  0.4952
  791MOL0     C 4339  11.083   1.405   5.508 -0.0766 -1.3844 -0.0526
  791MOL0     C 4340  11.215   1.378   5.564  0.0314 -0.4483  0.2568
  791MOL0     C 4341  11.316   1.493   5.521  0.3531  0.7500  0.1332
  791MOL0     C 4342  11.461   1.464   5.519 -0.8872  0.2363  0.0896
  791MOL0     C 4343  11.491   1.457   5.658  0.3340  0.3927  0.5298
  791MOL0     C 4344  11.503   1.458   5.780 -0.4664  0.2953  0.1135
  791MOL0     C 4345  10.781   1.382   5.474 -1.0362 -0.0899  0.4121
  791MOL0     C 4346  10.649   1.419   5.502 -0.8454  0.3022 -0.2585
  791MOL0     H 4347  10.202   1.526   5.786  1.0104  1.0386  1.0625
  791MOL0     H 4348  10.003   1.683   5.762 -2.1223 -2.3457 -0.9822
  791MOL0     H 4349   9.856   1.807   5.355 -3.5408 -0.9522  3.2610
  791MOL0     H 4350  10.004   1.905   5.403  1.4812  0.0892  3.6555
  791MOL0     H 4351   9.761   2.031   5.406  1.5516 -1.6192 -1.3334
  791MOL0     H 4352   9.853   2.051   5.547  1.9584  0.1687 -2.0241
  791MOL0     H 4353   9.621   2.006   5.573 -2.3275 -1.2259 -2.7115
  791MOL0     H 4354   9.715   1.873   5.654  1.7670 -2.8728 -2.4556
  791MOL0     H 4355   9.663   1.746   5.414  3.3367  3.0992 -1.5029
  791MOL0     H 4356   9.532   1.777   5.532 -1.0955  1.0482 -0.3069
  791MOL0     H 4357   9.612   1.927   5.294  2.1550  0.8593  3.9194
  791MOL0     H 4358   9.478   1.969   5.392  1.2629  1.0105 -0.8394
  791MOL0     H 4359   9.357   1.765   5.375 -0.7503 -2.9263 -1.5592
  791MOL0     H 4360   9.480   1.683   5.280 -3.5095 -1.1780 -1.4677
  791MOL0     H 4361   9.357   1.922   5.160  2.5021  1.0926  1.2517
  791MOL0     H 4362   9.483   1.831   5.101  0.4974  0.1335  0.5865
  791MOL0     H 4363   9.317   1.616   5.118 -0.1953 -0.4906 -1.9081
  791MOL0     H 4364   9.285   1.756   5.006  1.1962  0.7795  0.3734
  791MOL0     H 4365   9.046   1.873   5.041  2.1970 -0.9950 -0.7517
  791MOL0     H 4366   8.842   1.992   5.165 -1.7834 -1.7770 -3.2692
  791MOL0     H 4367   8.804   1.947   5.329 -0.1479  0.8831 -1.2731
  791MOL0     H 4368   8.709   1.790   5.094  0.0551  0.5641  0.1696
  791MOL0     H 4369   8.622   1.915   5.192 -0.3417  0.1479 -1.0408
  791MOL0     H 4370   8.741   1.636   5.270  2.8271  1.9891 -1.9495
  791MOL0     H 4371   8.699   1.767   5.385  1.1090  1.6755 -1.0811
  791MOL0     H 4372   8.490   1.666   5.184 -0.3089 -1.5785  0.1739
  791MOL0     H 4373   8.476   1.768   5.327  0.8361 -1.2416  1.2703
  791MOL0     H 4374   8.534   1.401   5.163 -2.6077 -1.1291 -3.7042
  791MOL0     H 4375   8.367   1.280   5.056  0.8727  1.7878 -1.0341
  791MOL0     H 4376   8.208   1.079   4.828 -0.2441  0.1154  0.1723
  791MOL0     H 4377   8.100   0.941   4.659 -0.6413  1.8216 -1.5538
  791MOL0     H 4378   7.645   0.899   4.648 -0.1420 -0.1146  0.7592
  791MOL0     H 4379   7.661   0.788   4.790 -0.3826 -1.3736 -0.6837
  791MOL0     H 4380   7.761   0.639   4.577  0.5198 -0.0930  3.0117
  791MOL0     H 4381   7.660   0.765   4.488 -0.5558 -0.7729 -0.7030
  791MOL0     H 4382   7.471   0.721   4.624  1.4549  1.0714  1.5281
  791MOL0     H 4383   7.546   0.598   4.707  1.8511  1.2688 -0.0327
  791MOL0     H 4384   7.545   0.594   4.397  1.0421 -0.8250 -0.6330
  791MOL0     H 4385   7.588   0.454   4.502 -3.8851 -3.4124  0.0019
  791MOL0     H 4386   7.302   0.557   4.486 -1.7394 -1.9275  1.0096
  791MOL0     H 4387   7.362   0.456   4.610  1.4715  0.4098  0.6980
  791MOL0     H 4388   7.405   0.274   4.454 -0.6114 -2.0225 -0.7723
  791MOL0     H 4389   7.389   0.373   4.318 -1.6341 -0.9700  0.7542
  791MOL0     H 4390   7.173   0.352   4.509  6.0984  3.1093  2.0437
  791MOL0     H 4391   7.162   0.384   4.339 -3.0946 -0.7400  0.5867
  791MOL0     H 4392   7.233   0.093   4.426 -1.6080 -1.6897 -0.4065
  791MOL0     H 4393   7.217   0.154   4.260  0.5764  0.5752 -0.6449
  791MOL0     H 4394   7.742   0.959   4.934 -2.3859  2.2605  0.3797
  791MOL0     H 4395   7.856   1.107   5.066  1.4789  0.6429  1.9201
  791MOL0     H 4396   8.075   1.458   5.335  0.7087  1.2495  0.4626
  791MOL0     H 4397   8.258   1.558   5.449  1.3048 -0.2435  0.4933
  791MOL0     H 4398  10.097   1.709   5.344  0.0887 -0.7777 -0.2499
  791MOL0     H 4399  10.287   1.583   5.363  1.8971 -1.0990  1.3963
  791MOL0     H 4400  10.634   1.315   5.825 -0.7448 -1.5145 -0.8480
  791MOL0     H 4401  10.877   1.290   5.779  2.1939 -0.5051 -2.1332
  791MOL0     H 4402  11.055   1.502   5.550  2.8623 -0.4005 -0.1794
  791MOL0     H 4403  11.084   1.412   5.399 -1.9673 -0.7949 -0.0828
  791MOL0     H 4404  11.198   1.365   5.672 -0.9878  1.5489  0.3832
  791MOL0     H 4405  11.246   1.286   5.515 -1.8562 -0.2001 -1.5216
  791MOL0     H 4406  11.296   1.591   5.565  0.8594  0.7719  0.3230
  791MOL0     H 4407  11.290   1.512   5.416  1.0062 -0.7087 -0.3224
  791MOL0     H 4408  11.496   1.376   5.465  3.1401  1.7736 -0.1286
  791MOL0     H 4409  11.515   1.541   5.464 -1.6003 -0.3874 -1.5405
  791MOL0     H 4410  11.515   1.470   5.886  2.0296  0.4998 -0.1540
  791MOL0     H 4411  10.817   1.373   5.372 -2.8343  0.7709 -0.3497
  791MOL0     H 4412  10.584   1.454   5.422  1.3420 -0.0113 -2.2800
  792MOL0     O 4413   7.938   8.276   6.772 -0.2323 -0.4164  0.1757
  792MOL0     C 4414   7.896   8.269   6.886  0.4796 -0.1088 -0.0151
  792MOL0     O 4415   7.755   8.261   6.920  0.1630 -1.4530 -0.5048
  792MOL0     C 4416   7.654   8.332   6.854  0.0357 -0.9826  0.3708
  792MOL0     C 4417   7.529   8.303   6.908 -0.7577 -0.4915 -0.8043
  792MOL0     C 4418   7.414   8.341   6.842  1.2256 -0.5700  0.6051
  792MOL0     C 4419   7.427   8.428   6.731  1.0193  0.9772  1.1601
  792MOL0     O 4420   7.315   8.464   6.660 -0.2237  0.5476  0.5811
  792MOL0     C 4421   7.291   8.602   6.685  0.6685 -0.4439  1.1243
  792MOL0     C 4422   7.316   8.683   6.558 -0.4866  0.3950  0.6016
  792MOL0     C 4423   7.258   8.632   6.430  0.0162  0.1000 -1.0863
  792MOL0     C 4424   7.280   8.722   6.311 -0.3946 -0.2535  0.4975
  792MOL0     C 4425   7.209   8.692   6.184 -0.0305 -0.2517  0.6704
  792MOL0     C 4426   7.220   8.542   6.141 -0.4123 -0.3450 -0.6058
  792MOL0     C 4427   7.159   8.535   5.995 -0.6109 -0.1026 -0.1294
  792MOL0     C 4428   7.082   8.405   5.971  0.3007 -0.4062  0.3382
  792MOL0     N 4429   7.077   8.397   5.819  0.4953  0.0597  0.5761
  792MOL0     C 4430   7.018   8.499   5.751 -0.5567 -0.4057 -0.2153
  792MOL0     C 4431   7.063   8.466   5.629  0.5853 -0.9336  0.0975
  792MOL0     C 4432   7.051   8.569   5.508 -0.7482 -0.2714  0.9344
  792MOL0     C 4433   6.964   8.520   5.393  0.4427 -0.5968  0.2109
  792MOL0     C 4434   6.814   8.466   5.434 -0.6096  0.1802  0.3360
  792MOL0     C 4435   6.807   8.322   5.504  0.7205 -0.1642 -0.6990
  792MOL0     O 4436   6.674   8.266   5.510 -0.8484 -0.4674 -0.0202
  792MOL0     C 4437   6.616   8.212   5.399 -0.7711 -0.6271  0.7766
  792MOL0     C 4438   6.672   8.211   5.266 -1.1208 -1.2115 -1.4817
  792MOL0     C 4439   6.615   8.157   5.152 -0.6239 -0.3942 -0.1592
  792MOL0     C 4440   6.482   8.113   5.154  0.0185  0.5100  0.2686
  792MOL0     C 4441   6.410   8.059   5.034 -0.5828 -0.1348 -0.2083
  792MOL0     O 4442   6.288   8.004   5.059 -0.2665 -0.6632 -0.4832
  792MOL0     C 4443   6.204   7.983   4.943 -0.8763 -0.5404 -0.5601
  792MOL0     C 4444   6.077   8.021   4.947 -0.3384  0.0738  0.3135
  792MOL0     C 4445   5.988   8.001   4.843 -0.1281 -0.3676 -0.3484
  792MOL0     C 4446   6.020   7.916   4.736  0.7935  0.5145 -0.6119
  792MOL0     O 4447   5.915   7.877   4.656  0.3803  0.3416 -0.0616
  792MOL0     C 4448   5.846   7.986   4.588 -0.7587 -0.6710  0.4929
  792MOL0     C 4449   5.731   7.923   4.512 -0.2738  0.4030 -0.3730
  792MOL0     C 4450   5.691   7.996   4.388 -0.1399 -0.1454  0.5602
  792MOL0     C 4451   5.801   7.994   4.276  0.4828 -0.2199 -0.4495
  792MOL0     C 4452   5.741   8.016   4.129 -0.1223 -0.7367 -0.6114
  792MOL0     C 4453   5.699   8.169   4.122 -0.2998 -1.2986  0.7480
  792MOL0     C 4454   5.624   8.191   3.993 -1.1431  0.1188  0.9512
  792MOL0     C 4455   5.615   8.341   3.977 -0.0854  0.3234  0.6781
  792MOL0    Cl 4456   5.517   8.436   4.105 -0.9540  0.1362 -0.4165
  792MOL0     C 4457   6.145   7.860   4.735  0.3838  0.5502  0.0016
  792MOL0     C 4458   6.235   7.893   4.832 -0.6207 -0.1261 -0.0228
  792MOL0     O 4459   6.459   8.082   4.922 -0.2881  0.3096 -0.2056
  792MOL0     C 4460   6.422   8.120   5.282  0.3706  0.0171  0.7408
  792MOL0     C 4461   6.487   8.160   5.410 -0.5225 -0.5730 -0.2174
  792MOL0     N 4462   7.132   8.338   5.620  0.9160 -0.1157  0.4102
  792MOL0     N 4463   7.137   8.300   5.741 -0.1895  0.0996 -0.4014
  792MOL0     C 4464   7.551   8.454   6.678 -0.1197  0.0111  0.7751
  792MOL0     C 4465   7.671   8.411   6.739 -1.0917 -0.5891 -0.1119
  792MOL0     C 4466   7.991   8.237   6.996 -0.1194  0.7129  0.3158
  792MOL0     C 4467   8.130   8.197   6.971  0.7143  0.6922  0.6682
  792MOL0     C 4468   8.217   8.195   7.077  0.1599  0.7350 -0.6744
  792MOL0     C 4469   8.180   8.230   7.205 -0.7470  0.1979  0.5481
  792MOL0     O 4470   8.269   8.229   7.312 -0.2507 -0.5447 -0.3688
  792MOL0     C 4471   8.408   8.195   7.298  0.3725  0.1252  0.1886
  792MOL0     C 4472   8.466   8.212   7.441  0.4925 -0.4232 -0.5022
  792MOL0     C 4473   8.529   8.362   7.447  0.5043 -0.3562 -0.7447
  792MOL0     C 4474   8.436   8.486   7.447  0.0930 -0.0449 -0.3508
  792MOL0     C 4475   8.507   8.605   7.511 -0.3667  0.6209  0.2131
  792MOL0     C 4476   8.560   8.691   7.586 -0.5301  0.1598  0.4503
  792MOL0     C 4477   8.056   8.265   7.235  1.7852 -0.8431 -0.0837
  792MOL0     C 4478   7.959   8.262   7.127  0.8032 -0.5945  0.4780
  792MOL0     H 4479   7.532   8.257   7.006  1.4812  2.8880  0.8779
  792MOL0     H 4480   7.314   8.331   6.885 -0.5337 -0.5238 -3.0697
  792MOL0     H 4481   7.367   8.652   6.745  3.3444  1.1018 -3.0722
  792MOL0     H 4482   7.189   8.620   6.722  0.9998 -2.1224  3.0049
  792MOL0     H 4483   7.422   8.702   6.538 -0.0172 -3.1102 -0.9016
  792MOL0     H 4484   7.277   8.784   6.572 -2.3261 -0.3786  1.3060
  792MOL0     H 4485   7.151   8.618   6.448 -0.1838  1.0375 -1.4862
  792MOL0     H 4486   7.289   8.534   6.393 -0.5154 -0.3242 -0.4161
  792MOL0     H 4487   7.246   8.824   6.332  1.5987  1.5758 -3.8341
  792MOL0     H 4488   7.384   8.724   6.278 -0.4226 -0.0320  0.4201
  792MOL0     H 4489   7.268   8.743   6.106 -0.5633 -2.1013 -1.0466
  792MOL0     H 4490   7.109   8.734   6.192  0.3928  1.0082 -0.3063
  792MOL0     H 4491   7.168   8.471   6.206 -1.6234  1.2091  0.1839
  792MOL0     H 4492   7.322   8.504   6.137 -0.2851 -0.1009  0.1619
  792MOL0     H 4493   7.103   8.625   5.967 -0.0789  0.0504 -0.7074
  792MOL0     H 4494   7.243   8.535   5.925  1.2239  0.0757  1.9672
  792MOL0     H 4495   6.988   8.419   6.025  0.4685  2.4189  0.0246
  792MOL0     H 4496   7.137   8.323   6.019  0.6523 -1.1953 -1.3513
  792MOL0     H 4497   6.960   8.586   5.782 -1.5599 -0.9854 -0.4251
  792MOL0     H 4498   7.149   8.592   5.465 -1.6700  2.8333  0.2344
  792MOL0     H 4499   7.010   8.665   5.541 -0.4919  0.7354 -1.5174
  792MOL0     H 4500   7.013   8.440   5.336  2.7038  0.0751  1.1174
  792MOL0     H 4501   6.949   8.604   5.324 -1.2908 -1.8519 -1.0481
  792MOL0     H 4502   6.764   8.535   5.502 -2.6207 -2.0303  1.2666
  792MOL0     H 4503   6.747   8.460   5.348 -0.0112  0.4725 -0.1612
  792MOL0     H 4504   6.854   8.319   5.603  0.0783  1.5783 -0.2941
  792MOL0     H 4505   6.875   8.258   5.448  1.5001  0.3497 -0.3645
  792MOL0     H 4506   6.770   8.255   5.250 -1.6396  2.7234  3.5815
  792MOL0     H 4507   6.665   8.167   5.056 -0.6355  0.5883 -0.0763
  792MOL0     H 4508   6.044   8.069   5.039  0.1005 -3.8301  2.7736
  792MOL0     H 4509   5.892   8.053   4.842 -0.4688 -0.9824 -1.6697
  792MOL0     H 4510   5.909   8.034   4.513  0.7745  1.9934  3.2811
  792MOL0     H 4511   5.809   8.059   4.660 -0.0519  0.1392  0.0534
  792MOL0     H 4512   5.648   7.904   4.582 -0.8617 -4.7636 -2.0069
  792MOL0     H 4513   5.761   7.823   4.480  4.6218  1.9904 -1.4341
  792MOL0     H 4514   5.674   8.102   4.409 -2.2251  0.0902 -1.7558
  792MOL0     H 4515   5.589   7.971   4.356 -0.2165  0.5251  0.2385
  792MOL0     H 4516   5.889   8.051   4.308  1.8657 -2.0175 -0.9285
  792MOL0     H 4517   5.840   7.893   4.268 -0.8811 -0.9362  1.3059
  792MOL0     H 4518   5.649   7.958   4.120 -0.6811  0.0721 -0.2820
  792MOL0     H 4519   5.823   7.984   4.064  0.0452 -0.2009 -0.6691
  792MOL0     H 4520   5.787   8.234   4.126 -2.2876  1.4934  1.2914
  792MOL0     H 4521   5.631   8.192   4.204 -0.5742 -0.8246  0.3877
  792MOL0     H 4522   5.693   8.152   3.916 -1.2543  0.8393  0.4729
  792MOL0     H 4523   5.519   8.163   3.982 -1.4580  1.7215 -0.5765
  792MOL0     H 4524   5.580   8.354   3.874  0.6527  1.4243  0.5435
  792MOL0     H 4525   5.714   8.386   3.988  1.0425 -2.0916  0.8203
  792MOL0     H 4526   6.186   7.786   4.667  2.4276  2.0115 -0.4254
  792MOL0     H 4527   6.338   7.859   4.831 -0.4173  0.4601  0.4245
  792MOL0     H 4528   6.319   8.088   5.298  0.1726  0.8152  1.1166
  792MOL0     H 4529   6.435   8.155   5.505  0.7500  1.0617  0.6171
  792MOL0     H 4530   7.563   8.500   6.581  0.9565 -1.7619  0.0185
  792MOL0     H 4531   7.767   8.430   6.692 -0.8178 -2.5293 -0.4373
  792MOL0     H 4532   8.165   8.165   6.873  2.0054  1.2580  0.9291
  792MOL0     H 4533   8.314   8.156   7.047  0.3772 -0.0028  0.8796
  792MOL0     H 4534   8.445   8.272   7.230  3.1207  0.6968  2.1578
  792MOL0     H 4535   8.424   8.092   7.263 -1.1131  0.3985 -1.4662
  792MOL0     H 4536   8.404   8.183   7.527  0.0242  1.5346 -0.1485
  792MOL0     H 4537   8.544   8.136   7.455 -0.9735 -1.6855  1.4578
  792MOL0     H 4538   8.598   8.375   7.363 -2.1806  1.3036 -2.8877
  792MOL0     H 4539   8.582   8.373   7.542 -2.8996 -0.7431  1.3775
  792MOL0     H 4540   8.407   8.514   7.346  0.8970  2.4248  0.0125
  792MOL0     H 4541   8.344   8.458   7.498 -1.3798 -0.0178 -2.8595
  792MOL0     H 4542   8.613   8.771   7.633 -1.6973 -1.2635  4.6605
  792MOL0     H 4543   8.015   8.294   7.331  0.4244  0.4062 -0.9982
  792MOL0     H 4544   7.855   8.289   7.142  1.0940  1.5795 -1.0326
  793MOL0     O 4545   6.327  11.044   3.152 -0.8786  0.4473 -0.5485
  793MOL0     C 4546   6.320  10.939   3.219 -0.2106 -0.5225 -0.4828
  793MOL0     O 4547   6.429  10.881   3.277  0.0702  0.3880 -1.1655
  793MOL0     C 4548   6.558  10.897   3.240 -0.0394  0.4992  0.1929
  793MOL0     C 4549   6.634  10.996   3.304 -0.5963 -0.2491  0.0788
  793MOL0     C 4550   6.772  11.015   3.287  1.0622 -0.3737  0.2073
  793MOL0     C 4551   6.838  10.930   3.188 -0.7059 -0.0576 -0.6507
  793MOL0     O 4552   6.971  10.957   3.170 -0.2002  0.7217 -0.1653
  793MOL0     C 4553   7.004  11.008   3.042  0.1489 -0.5546 -1.0255
  793MOL0     C 4554   7.153  11.026   3.023  0.1971  0.4904 -0.8707
  793MOL0     C 4555   7.219  11.022   2.876 -1.3628  1.0669  0.0749
  793MOL0     C 4556   7.369  11.008   2.871 -0.0464  0.5107  0.7422
  793MOL0     C 4557   7.415  10.877   2.922 -0.2885 -0.3343 -0.1571
  793MOL0     C 4558   7.565  10.861   2.900  0.0546  0.2910 -0.3930
  793MOL0     C 4559   7.609  10.839   2.755  0.3622 -0.0330  1.1973
  793MOL0     C 4560   7.570  10.697   2.708  0.2933  0.6455 -0.6552
  793MOL0     N 4561   7.604  10.664   2.572 -0.7187  0.1467  0.0150
  793MOL0     C 4562   7.574  10.743   2.466  0.1634  0.4243  0.1466
  793MOL0     C 4563   7.638  10.692   2.361  0.4784  0.0503 -0.2303
  793MOL0     C 4564   7.636  10.746   2.226  0.3239 -0.0099  0.5907
  793MOL0     C 4565   7.589  10.630   2.130  0.2770  0.4562  1.1915
  793MOL0     C 4566   7.694  10.531   2.096  0.1234  0.3720  0.3247
  793MOL0     C 4567   7.634  10.396   2.042  0.3179 -0.6528  0.7662
  793MOL0     O 4568   7.735  10.294   2.039  0.5291 -0.3195 -0.8615
  793MOL0     C 4569   7.783  10.255   1.919  0.7207 -0.2319 -0.8147
  793MOL0     C 4570   7.817  10.120   1.908  0.9149 -0.0336 -1.0979
  793MOL0     C 4571   7.874  10.069   1.790  0.2934 -0.1988  0.1483
  793MOL0     C 4572   7.893  10.154   1.675  0.2034 -0.4151 -0.2435
  793MOL0     C 4573   7.952  10.106   1.546  0.1285 -0.1461 -1.2377
  793MOL0     O 4574   8.043  10.188   1.483 -0.1467 -0.1886 -0.8233
  793MOL0     C 4575   8.102  10.136   1.375 -0.0270 -0.6710 -0.2184
  793MOL0     C 4576   8.029  10.129   1.252 -0.1872 -0.3342  1.0604
  793MOL0     C 4577   8.081  10.064   1.144 -0.2785 -0.1074  0.5440
  793MOL0     C 4578   8.203   9.999   1.156  0.4024  0.1842  0.3870
  793MOL0     O 4579   8.249   9.937   1.040 -0.4480  0.6709  0.2854
  793MOL0     C 4580   8.385   9.892   1.025  0.1238 -0.3882 -0.0757
  793MOL0     C 4581   8.428   9.897   0.874 -0.3952 -0.2569 -0.6587
  793MOL0     C 4582   8.444  10.032   0.813 -0.7683  0.4885 -1.7858
  793MOL0     C 4583   8.548  10.040   0.705 -0.0391 -0.3367  0.6193
  793MOL0     C 4584   8.567  10.194   0.675  0.0937 -1.2333  0.1490
  793MOL0     C 4585   8.652  10.218   0.555 -0.1695 -0.9771  1.0721
  793MOL0     C 4586   8.657  10.365   0.514 -0.1135  0.9433  0.4698
  793MOL0     C 4587   8.675  10.374   0.358  0.4251 -0.1098 -0.1318
  793MOL0    Cl 4588   8.530  10.300   0.273 -0.3427  0.3747  0.3222
  793MOL0     C 4589   8.269  10.003   1.273  0.2023  0.8822 -0.8961
  793MOL0     C 4590   8.219  10.065   1.388 -0.1498 -0.0692 -0.8219
  793MOL0     O 4591   7.915   9.996   1.506  0.1048 -0.8258 -0.3396
  793MOL0     C 4592   7.875  10.289   1.695  0.1584  0.6396 -0.1656
  793MOL0     C 4593   7.813  10.337   1.816 -0.9550  0.5339 -0.2780
  793MOL0     N 4594   7.707  10.584   2.400 -0.3176 -0.0301 -1.1227
  793MOL0     N 4595   7.684  10.565   2.530 -0.0396  0.3745  0.1038
  793MOL0     C 4596   6.756  10.833   3.109  0.2410 -0.0069 -0.3359
  793MOL0     C 4597   6.618  10.814   3.140 -0.3732 -0.6384  0.8355
  793MOL0     C 4598   6.198  10.857   3.226  0.2650 -0.7025 -0.9079
  793MOL0     C 4599   6.096  10.887   3.143 -0.8157  0.5248 -0.0000
  793MOL0     C 4600   5.975  10.815   3.138 -0.4587 -0.0989  0.2413
  793MOL0     C 4601   5.956  10.711   3.234  0.0719 -0.5232 -0.2586
  793MOL0     O 4602   5.837  10.646   3.245 -0.1075  0.0126 -0.0100
  793MOL0     C 4603   5.763  10.715   3.343 -0.6433  0.5642 -0.1412
  793MOL0     C 4604   5.630  10.643   3.362  0.2386  0.3408 -0.2484
  793MOL0     C 4605   5.544  10.636   3.233 -0.2312  0.5661  0.3457
  793MOL0     C 4606   5.433  10.744   3.234 -0.2433  0.4678 -0.1297
  793MOL0     C 4607   5.491  10.880   3.220  1.1156 -0.3252  0.7576
  793MOL0     C 4608   5.544  10.991   3.228  0.0036  0.0690 -0.3787
  793MOL0     C 4609   6.060  10.679   3.331 -0.4225  1.2303  0.0487
  793MOL0     C 4610   6.181  10.751   3.323  0.0956 -0.6164  0.2246
  793MOL0     H 4611   6.588  11.056   3.382  0.5864 -0.5227  1.0099
  793MOL0     H 4612   6.825  11.097   3.334  0.0617 -0.6995  1.9962
  793MOL0     H 4613   6.965  11.110   3.034  2.1854  0.6688  2.5150
  793MOL0     H 4614   6.958  10.946   2.964  0.2315 -1.6192 -0.2482
  793MOL0     H 4615   7.193  10.938   3.074 -2.7270  0.5783  1.9483
  793MOL0     H 4616   7.190  11.117   3.071 -0.7668  1.5009 -1.9685
  793MOL0     H 4617   7.177  11.111   2.827 -2.5942  0.8111  0.6282
  793MOL0     H 4618   7.189  10.931   2.823  2.2643 -1.7289  2.3728
  793MOL0     H 4619   7.394  11.025   2.766  3.2099 -1.3633  1.0899
  793MOL0     H 4620   7.407  11.093   2.928 -1.4268  1.8877 -0.2883
  793MOL0     H 4621   7.365  10.799   2.864 -0.3058 -0.5226  0.1128
  793MOL0     H 4622   7.392  10.853   3.026  1.2705 -2.1645 -0.1780
  793MOL0     H 4623   7.599  10.772   2.953  0.0579  0.9699  0.7849
  793MOL0     H 4624   7.617  10.950   2.937 -2.6123  0.9598  2.0947
  793MOL0     H 4625   7.577  10.920   2.688  2.9767 -0.9279 -1.3499
  793MOL0     H 4626   7.718  10.851   2.754  0.2599  1.0550  1.9766
  793MOL0     H 4627   7.461  10.682   2.712  0.0161  2.5341  0.1218
  793MOL0     H 4628   7.622  10.632   2.778 -0.4271  1.8846  1.0996
  793MOL0     H 4629   7.506  10.828   2.471 -0.5151 -0.1509  0.9526
  793MOL0     H 4630   7.734  10.783   2.194 -0.9930  0.7962 -3.0556
  793MOL0     H 4631   7.562  10.827   2.228 -1.6442 -1.7293  1.3133
  793MOL0     H 4632   7.558  10.678   2.036  3.7963  2.7673  1.0065
  793MOL0     H 4633   7.508  10.567   2.167 -0.7419  0.9932 -0.0445
  793MOL0     H 4634   7.775  10.567   2.032  0.7233 -1.3052  0.0718
  793MOL0     H 4635   7.750  10.490   2.181  1.9327 -2.4493 -1.9817
  793MOL0     H 4636   7.582  10.418   1.948 -0.8959 -0.7394  1.3904
  793MOL0     H 4637   7.550  10.370   2.107 -0.8856  0.9048 -0.0996
  793MOL0     H 4638   7.803  10.049   1.989 -3.8825  0.1916 -1.4752
  793MOL0     H 4639   7.899   9.964   1.796 -2.6893 -0.9769  0.6895
  793MOL0     H 4640   7.932  10.178   1.244  1.6467  4.2947  3.5661
  793MOL0     H 4641   8.030  10.055   1.048  2.9016 -0.2621 -1.2929
  793MOL0     H 4642   8.384   9.793   1.070 -1.4039 -0.4120 -0.1015
  793MOL0     H 4643   8.456   9.957   1.078  0.7572 -2.1902  1.4169
  793MOL0     H 4644   8.350   9.836   0.828 -0.9011 -2.2567  2.5164
  793MOL0     H 4645   8.521   9.839   0.872  0.7538  1.2306  2.6575
  793MOL0     H 4646   8.476  10.088   0.902 -0.7881 -1.7985 -0.2712
  793MOL0     H 4647   8.342  10.057   0.781 -1.1528 -0.1331 -1.0505
  793MOL0     H 4648   8.634   9.996   0.756 -0.7175  1.6534  3.6851
  793MOL0     H 4649   8.508   9.983   0.620  1.9283 -0.9803  0.0770
  793MOL0     H 4650   8.607  10.252   0.758  0.1853 -2.0684  0.6981
  793MOL0     H 4651   8.463  10.226   0.659 -0.0593  0.3637  3.5049
  793MOL0     H 4652   8.606  10.159   0.475  0.0944  0.1489  0.0633
  793MOL0     H 4653   8.754  10.191   0.587  0.0393  2.5017  3.9325
  793MOL0     H 4654   8.560  10.413   0.530  0.5666  2.9354 -0.9095
  793MOL0     H 4655   8.738  10.423   0.558  0.8605 -0.8364  1.1016
  793MOL0     H 4656   8.763  10.323   0.317 -1.4133 -0.4980 -4.0414
  793MOL0     H 4657   8.672  10.481   0.333  1.6586 -0.1116 -0.3873
  793MOL0     H 4658   8.356   9.938   1.272 -0.9719 -0.8708 -3.7664
  793MOL0     H 4659   8.276  10.061   1.480  0.3597  0.4820 -1.1101
  793MOL0     H 4660   7.915  10.360   1.623  3.9986 -0.6319  0.5166
  793MOL0     H 4661   7.820  10.444   1.830  0.7110  0.5325 -0.8748
  793MOL0     H 4662   6.798  10.770   3.032  2.9625 -1.9974  2.5014
  793MOL0     H 4663   6.558  10.734   3.097 -0.3116 -0.8282  1.0989
  793MOL0     H 4664   6.102  10.978   3.083  1.3532 -0.5421 -1.5346
  793MOL0     H 4665   5.906  10.842   3.059  0.2903  1.8223  0.1815
  793MOL0     H 4666   5.747  10.815   3.303 -1.3546 -0.6325 -3.1556
  793MOL0     H 4667   5.812  10.713   3.441 -3.3373 -2.4550  1.3372
  793MOL0     H 4668   5.640  10.545   3.408  1.4429 -0.3628 -1.9032
  793MOL0     H 4669   5.577  10.697   3.441  0.7458 -0.7629  0.8830
  793MOL0     H 4670   5.507  10.534   3.226  1.0452  0.2163 -2.6780
  793MOL0     H 4671   5.612  10.638   3.147  0.8888 -1.5090  1.1088
  793MOL0     H 4672   5.360  10.720   3.156  0.1791  3.3509 -1.5718
  793MOL0     H 4673   5.381  10.734   3.329 -2.5469 -2.4529 -1.5547
  793MOL0     H 4674   5.601  11.080   3.244 -1.3703  0.8232  0.5302
  793MOL0     H 4675   6.033  10.601   3.401  0.6771  0.0097 -0.8420
  793MOL0     H 4676   6.262  10.718   3.387 -0.8120 -2.4894  0.4806
  794MOL0     O 4677   7.008   8.289   6.311  0.3381 -0.2544  0.1325
  794MOL0     C 4678   6.944   8.212   6.380  0.3457 -0.2209 -0.0808
  794MOL0     O 4679   6.905   8.090   6.328  0.1571 -0.5248 -0.5071
  794MOL0     C 4680   6.927   8.077   6.193  0.7281 -0.0647 -0.2653
  794MOL0     C 4681   6.846   8.141   6.094 -0.4547 -0.0835 -0.8039
  794MOL0     C 4682   6.851   8.101   5.958 -0.0616  0.0257 -0.9841
  794MOL0     C 4683   6.947   8.005   5.914  0.3575 -0.7808 -0.2773
  794MOL0     O 4684   6.935   7.978   5.782 -0.1284  0.4903  0.0165
  794MOL0     C 4685   7.053   7.968   5.712  0.4221  0.9885  0.6845
  794MOL0     C 4686   7.030   7.994   5.560  0.2739  0.5977 -0.0695
  794MOL0     C 4687   6.946   7.877   5.511 -0.2014  0.1389  1.0792
  794MOL0     C 4688   6.939   7.887   5.359  0.1221  0.0610  0.3459
  794MOL0     C 4689   6.862   7.775   5.293 -0.2046 -0.3703 -0.0436
  794MOL0     C 4690   6.713   7.802   5.293 -0.0759  0.8044 -0.3017
  794MOL0     C 4691   6.634   7.692   5.224  0.5341  0.3127  1.1335
  794MOL0     C 4692   6.657   7.681   5.064 -0.2676 -1.1579 -0.8943
  794MOL0     N 4693   6.695   7.540   5.052 -0.4512  0.9178  0.3046
  794MOL0     C 4694   6.825   7.492   5.073 -0.0170  0.0743  0.1304
  794MOL0     C 4695   6.824   7.360   5.065 -0.0041  0.2569 -0.3096
  794MOL0     C 4696   6.946   7.271   5.107 -0.2886  0.3868 -0.2947
  794MOL0     C 4697   6.912   7.139   5.180  0.0422  0.7267 -0.7349
  794MOL0     C 4698   7.033   7.052   5.205 -0.1758 -0.7165  0.0341
  794MOL0     C 4699   7.020   6.950   5.309  0.0706  0.7858  0.3140
  794MOL0     O 4700   6.924   6.858   5.263  0.4948 -0.1731 -0.5319
  794MOL0     C 4701   6.861   6.769   5.351  0.3239  0.8525 -0.3556
  794MOL0     C 4702   6.795   6.659   5.290 -0.4779 -0.6839 -1.0658
  794MOL0     C 4703   6.732   6.570   5.376 -0.2118 -0.2481  0.0386
  794MOL0     C 4704   6.733   6.578   5.517  0.2249 -0.9888 -0.9644
  794MOL0     C 4705   6.646   6.492   5.590 -0.2024  0.0614 -0.3108
  794MOL0     O 4706   6.650   6.366   5.546  0.7836 -0.3570 -0.5320
  794MOL0     C 4707   6.604   6.275   5.630  0.0276  0.4298 -0.6753
  794MOL0     C 4708   6.485   6.201   5.604 -0.5054 -0.0370 -0.3409
  794MOL0     C 4709   6.443   6.093   5.684 -0.2698 -0.8155  0.6668
  794MOL0     C 4710   6.524   6.063   5.795  0.4486  0.0524 -0.0743
  794MOL0     O 4711   6.499   5.958   5.880  0.2674 -0.2957 -0.0933
  794MOL0     C 4712   6.360   5.947   5.939 -0.6525 -0.1003 -0.1516
  794MOL0     C 4713   6.375   5.982   6.090 -1.1601  0.3168  0.1440
  794MOL0     C 4714   6.477   5.899   6.179  0.4787 -0.3296  0.2443
  794MOL0     C 4715   6.476   5.966   6.318 -0.7792  0.2868  0.7295
  794MOL0     C 4716   6.355   5.937   6.409 -0.0494 -0.4371 -0.1436
  794MOL0     C 4717   6.347   5.990   6.548 -0.6963  0.2826 -0.2312
  794MOL0     C 4718   6.386   6.138   6.546  0.8451  0.7975  0.1471
  794MOL0     C 4719   6.400   6.184   6.687 -1.0610  0.4659 -0.2229
  794MOL0    Cl 4720   6.236   6.160   6.757 -0.7545  0.0777 -0.0605
  794MOL0     C 4721   6.643   6.131   5.820  0.1430  0.5473 -0.2693
  794MOL0     C 4722   6.691   6.230   5.731  0.1869  1.1445 -0.2201
  794MOL0     O 4723   6.579   6.538   5.685  0.3158 -0.1994 -0.1839
  794MOL0     C 4724   6.808   6.679   5.583 -1.0608 -0.7552  0.3628
  794MOL0     C 4725   6.863   6.774   5.497  0.0475  0.2784 -0.5850
  794MOL0     N 4726   6.689   7.329   5.043  0.1520  0.2974 -0.2895
  794MOL0     N 4727   6.622   7.431   5.024 -0.1202 -0.4496 -0.7259
  794MOL0     C 4728   7.039   7.957   6.005 -0.6219  0.3108 -0.1879
  794MOL0     C 4729   7.028   7.992   6.146 -0.9742 -0.1276 -0.2629
  794MOL0     C 4730   6.893   8.247   6.515  0.0806 -0.2010  0.9396
  794MOL0     C 4731   6.802   8.156   6.587  0.6386 -0.5754 -0.2676
  794MOL0     C 4732   6.772   8.168   6.730 -1.3035  0.8411  0.1324
  794MOL0     C 4733   6.843   8.269   6.799  0.1155 -0.1504  0.4168
  794MOL0     O 4734   6.827   8.275   6.940 -0.0734  0.4987  0.6146
  794MOL0     C 4735   6.896   8.382   7.009 -0.0915 -0.1577 -0.3566
  794MOL0     C 4736   7.047   8.350   7.029 -0.2408 -0.4693 -1.8267
  794MOL0     C 4737   7.066   8.214   7.112  0.1798  0.5306  0.7769
  794MOL0     C 4738   7.208   8.163   7.128 -0.3227  0.1783 -1.1990
  794MOL0     C 4739   7.289   8.253   7.218  0.8678  0.1642 -0.1402
  794MOL0     C 4740   7.362   8.336   7.269  0.2467  0.7101  0.4676
  794MOL0     C 4741   6.924   8.357   6.729 -1.4969  0.3006  0.6585
  794MOL0     C 4742   6.942   8.353   6.588 -0.5906 -0.4239  0.1817
  794MOL0     H 4743   6.780   8.215   6.138 -0.9047  0.3626 -2.1704
  794MOL0     H 4744   6.800   8.164   5.886 -0.4548  2.1037  0.9844
  794MOL0     H 4745   7.108   7.873   5.719  0.0602  0.6579 -0.6844
  794MOL0     H 4746   7.128   8.039   5.749  1.5042  0.2315  0.0140
  794MOL0     H 4747   7.124   7.994   5.504 -0.4459  0.3062 -1.3398
  794MOL0     H 4748   6.986   8.094   5.550 -3.9306 -0.8779  1.3299
  794MOL0     H 4749   6.850   7.913   5.550  0.5208  0.3516  2.7488
  794MOL0     H 4750   6.976   7.775   5.536  0.6022  0.1589  0.2202
  794MOL0     H 4751   6.888   7.978   5.325  0.8767  0.2261 -0.3818
  794MOL0     H 4752   7.037   7.885   5.311 -0.2817 -1.3613 -0.4897
  794MOL0     H 4753   6.885   7.682   5.346  4.5354  1.2573  1.2568
  794MOL0     H 4754   6.904   7.773   5.192 -0.9864  2.3233 -0.4850
  794MOL0     H 4755   6.694   7.898   5.244  1.9664  1.1962 -0.4062
  794MOL0     H 4756   6.677   7.820   5.395 -1.7345  2.5947 -1.1554
  794MOL0     H 4757   6.656   7.598   5.275 -0.8946 -1.0835 -0.6812
  794MOL0     H 4758   6.530   7.721   5.244 -0.8594 -1.8586 -2.1522
  794MOL0     H 4759   6.734   7.747   5.023  1.2185 -2.7376 -0.7297
  794MOL0     H 4760   6.563   7.708   5.014 -1.0346  2.0993  1.8936
  794MOL0     H 4761   6.908   7.554   5.106 -1.7357  1.1722  2.6569
  794MOL0     H 4762   7.011   7.332   5.171 -2.1829 -0.2827  2.4736
  794MOL0     H 4763   6.994   7.255   5.010  1.4498  2.2778  0.1838
  794MOL0     H 4764   6.840   7.078   5.123  0.5545  1.2067 -1.9261
  794MOL0     H 4765   6.874   7.162   5.280 -2.1107  1.3804 -1.6372
  794MOL0     H 4766   7.045   7.006   5.106  1.8638 -1.5510  0.6025
  794MOL0     H 4767   7.117   7.122   5.214 -0.2261 -0.3987 -1.6119
  794MOL0     H 4768   6.994   6.999   5.404  1.4367  1.2694  0.4705
  794MOL0     H 4769   7.113   6.895   5.329  0.3924  1.5218  0.8855
  794MOL0     H 4770   6.792   6.650   5.182  0.0912 -2.3752 -0.9667
  794MOL0     H 4771   6.677   6.490   5.326 -1.9726  0.7106  0.3605
  794MOL0     H 4772   6.420   6.234   5.523 -1.3186  1.5667  0.8949
  794MOL0     H 4773   6.361   6.030   5.650  0.1255 -0.5242 -0.9449
  794MOL0     H 4774   6.340   5.841   5.923  0.0429 -0.4772  1.2751
  794MOL0     H 4775   6.286   6.014   5.895 -3.1467  1.4771  5.5426
  794MOL0     H 4776   6.273   5.962   6.125 -0.1264 -0.6156  2.8823
  794MOL0     H 4777   6.397   6.088   6.102 -0.6710  0.3432 -0.9109
  794MOL0     H 4778   6.584   5.898   6.152  0.2557  0.2799 -0.7156
  794MOL0     H 4779   6.448   5.795   6.198  2.9277 -0.8719  1.5182
  794MOL0     H 4780   6.568   5.938   6.370 -0.4050  1.3506  0.6774
  794MOL0     H 4781   6.487   6.073   6.296  1.2933 -0.0017  0.1232
  794MOL0     H 4782   6.351   5.828   6.425  1.5425 -0.4301  0.4752
  794MOL0     H 4783   6.271   5.982   6.355 -1.4510 -1.1268  1.3582
  794MOL0     H 4784   6.417   5.936   6.612  1.5423  0.7160 -2.1782
  794MOL0     H 4785   6.242   5.982   6.579 -0.6867  1.0044  0.0157
  794MOL0     H 4786   6.483   6.149   6.498  0.1773 -0.3979 -1.5957
  794MOL0     H 4787   6.310   6.191   6.488 -0.4875 -0.3837  0.7414
  794MOL0     H 4788   6.440   6.286   6.692 -1.5884  0.6823 -0.3239
  794MOL0     H 4789   6.477   6.119   6.729 -1.7987 -2.4514 -3.0198
  794MOL0     H 4790   6.705   6.104   5.905 -0.6888 -0.0599  0.1617
  794MOL0     H 4791   6.781   6.288   5.748 -1.0504  2.3913  2.8924
  794MOL0     H 4792   6.811   6.678   5.692 -1.9615  2.2157  0.5038
  794MOL0     H 4793   6.913   6.850   5.555 -1.1435  0.0880  0.7554
  794MOL0     H 4794   7.121   7.895   5.971 -2.2549 -2.1742  0.1189
  794MOL0     H 4795   7.108   7.949   6.206 -0.1560  0.6625 -0.7699
  794MOL0     H 4796   6.752   8.078   6.530  3.4913 -2.2548 -0.6280
  794MOL0     H 4797   6.698   8.111   6.785  1.8863 -3.2375  0.6497
  794MOL0     H 4798   6.843   8.387   7.104  0.9669  1.6358  0.1867
  794MOL0     H 4799   6.885   8.484   6.972 -3.8034  0.2890  1.5706
  794MOL0     H 4800   7.111   8.359   6.941  1.9059  0.3119 -0.2591
  794MOL0     H 4801   7.075   8.429   7.099 -1.6769 -2.5383  1.2934
  794MOL0     H 4802   7.002   8.139   7.064 -2.4102  1.0853  3.0855
  794MOL0     H 4803   7.027   8.225   7.213 -2.8907  0.4886 -0.2918
  794MOL0     H 4804   7.201   8.063   7.172 -1.2394  0.8832  0.3431
  794MOL0     H 4805   7.255   8.149   7.030 -0.5338 -2.2395 -1.0180
  794MOL0     H 4806   7.434   8.408   7.303  0.0330  0.5758  1.2259
  794MOL0     H 4807   6.975   8.432   6.789  0.1028 -0.3697  0.1829
  794MOL0     H 4808   7.011   8.425   6.545 -0.0869 -0.3741  1.0400
  795MOL0     O 4809  11.407   7.588   5.248  0.1948  0.6802 -0.1272
  795MOL0     C 4810  11.341   7.685   5.219 -0.9701 -0.5508  0.1516
  795MOL0     O 4811  11.309   7.785   5.315  0.6686  0.1015 -0.3267
  795MOL0     C 4812  11.379   7.775   5.426 -0.6789 -0.1734  0.3313
  795MOL0     C 4813  11.495   7.855   5.422  0.2559  0.4007 -1.2103
  795MOL0     C 4814  11.581   7.857   5.533  0.1484  0.9681  0.1189
  795MOL0     C 4815  11.560   7.792   5.657  0.0533  0.2083 -0.3980
  795MOL0     O 4816  11.655   7.817   5.759  0.3479  0.3147 -0.3874
  795MOL0     C 4817  11.637   7.761   5.889  0.2364 -0.1469 -0.8931
  795MOL0     C 4818  11.747   7.823   5.982 -0.3746  0.4655  0.5883
  795MOL0     C 4819  11.892   7.812   5.933  0.3395  0.5008 -0.6308
  795MOL0     C 4820  11.942   7.906   5.824  0.0427  0.1279 -0.1419
  795MOL0     C 4821  12.085   7.902   5.798 -0.0133 -0.3403 -0.1839
  795MOL0     C 4822  12.144   8.012   5.702  0.5021  0.2239  0.1914
  795MOL0     C 4823  12.295   8.010   5.676  0.4365  0.3338 -0.1391
  795MOL0     C 4824  12.342   7.909   5.573 -0.1337 -0.3343 -0.7490
  795MOL0     N 4825  12.486   7.893   5.591 -0.3577  0.4023 -0.2445
  795MOL0     C 4826  12.547   7.807   5.677 -0.5322  0.6077  0.9139
  795MOL0     C 4827  12.682   7.826   5.662  0.5309 -0.1406  0.0270
  795MOL0     C 4828  12.792   7.754   5.732 -0.8500 -0.5859 -0.1596
  795MOL0     C 4829  12.815   7.600   5.700 -0.2200  1.0012 -0.1190
  795MOL0     C 4830  12.755   7.569   5.556 -0.3758 -1.6266 -0.7115
  795MOL0     C 4831  12.810   7.429   5.513  1.4300 -0.2816 -0.0040
  795MOL0     O 4832  12.765   7.407   5.377 -0.1087  0.1175 -0.1759
  795MOL0     C 4833  12.643   7.338   5.353  0.0509 -0.8292  0.1091
  795MOL0     C 4834  12.624   7.322   5.218  0.9183  0.4656  0.3414
  795MOL0     C 4835  12.500   7.286   5.164  0.2982 -0.6538 -0.4853
  795MOL0     C 4836  12.398   7.237   5.247  0.0174  0.8380  0.8783
  795MOL0     C 4837  12.268   7.171   5.197  0.6321 -0.1591  0.2506
  795MOL0     O 4838  12.251   7.175   5.065  0.2924 -0.3404  0.2168
  795MOL0     C 4839  12.157   7.112   4.984 -0.5074 -0.7212 -0.3379
  795MOL0     C 4840  12.053   7.026   5.034 -0.7837 -0.0192  0.4526
  795MOL0     C 4841  11.957   6.976   4.944  0.6856 -0.1187 -0.1313
  795MOL0     C 4842  11.955   7.015   4.811  0.2917 -0.0755  0.0884
  795MOL0     O 4843  11.862   6.952   4.734 -0.2831 -0.2792 -0.2679
  795MOL0     C 4844  11.826   7.000   4.601 -1.0209 -0.5638 -0.1815
  795MOL0     C 4845  11.702   6.926   4.546 -0.2547 -0.3722  0.9473
  795MOL0     C 4846  11.643   7.007   4.431 -0.3553 -0.3398  0.0824
  795MOL0     C 4847  11.517   6.930   4.383  0.2517 -0.2517 -0.0331
  795MOL0     C 4848  11.394   7.017   4.360  1.0465  0.6244 -0.3255
  795MOL0     C 4849  11.269   6.933   4.320 -0.8940 -0.0970  1.2508
  795MOL0     C 4850  11.245   6.930   4.171 -0.4799 -0.4343 -0.4087
  795MOL0     C 4851  11.236   6.786   4.126  0.2369  0.9046 -0.5461
  795MOL0    Cl 4852  11.390   6.695   4.154 -0.2311  0.1817  0.8566
  795MOL0     C 4853  12.055   7.092   4.761  0.0492  0.2820  0.2567
  795MOL0     C 4854  12.161   7.140   4.847  0.6580 -0.8452 -0.3325
  795MOL0     O 4855  12.194   7.121   5.278  0.2035 -0.2877 -0.4625
  795MOL0     C 4856  12.429   7.232   5.384 -0.7200 -0.2981 -0.2418
  795MOL0     C 4857  12.544   7.287   5.443 -0.6395  0.0745 -0.7132
  795MOL0     N 4858  12.706   7.927   5.561  0.2507  0.1754  0.2854
  795MOL0     N 4859  12.583   7.960   5.525  0.9138  0.5292  0.9090
  795MOL0     C 4860  11.444   7.713   5.660  0.3714  0.2102 -0.4514
  795MOL0     C 4861  11.357   7.710   5.546  0.2671  0.0738 -0.1669
  795MOL0     C 4862  11.304   7.698   5.079  0.1361 -0.0960 -0.2063
  795MOL0     C 4863  11.378   7.634   4.978 -0.2977 -0.1799  0.2113
  795MOL0     C 4864  11.338   7.656   4.845  0.1405  0.9551  0.3237
  795MOL0     C 4865  11.229   7.735   4.820 -0.1528 -0.0783  0.4988
  795MOL0     O 4866  11.221   7.762   4.684 -0.8549  0.3928 -0.1296
  795MOL0     C 4867  11.098   7.784   4.620  0.3617 -0.3131  0.6582
  795MOL0     C 4868  11.132   7.805   4.472  1.1088  0.3122 -0.5443
  795MOL0     C 4869  11.003   7.827   4.395 -0.8945  0.6527  0.0157
  795MOL0     C 4870  11.026   7.837   4.242 -0.2598 -0.0468 -0.7209
  795MOL0     C 4871  10.926   7.927   4.174  0.7572  0.8695  0.5673
  795MOL0     C 4872  10.834   7.992   4.128 -0.4007  1.0365 -0.2561
  795MOL0     C 4873  11.153   7.797   4.913 -0.8073  0.8879 -0.0898
  795MOL0     C 4874  11.194   7.785   5.041 -1.0727  0.4120 -1.1730
  795MOL0     H 4875  11.529   7.897   5.327 -1.6578 -0.7482 -2.4673
  795MOL0     H 4876  11.665   7.926   5.532 -1.8072  3.5035  1.0014
  795MOL0     H 4877  11.653   7.653   5.887 -3.8857 -0.9037 -1.6334
  795MOL0     H 4878  11.536   7.783   5.924 -0.1459  0.8667 -2.5270
  795MOL0     H 4879  11.744   7.762   6.073 -1.8766 -2.1725 -1.1058
  795MOL0     H 4880  11.728   7.930   5.987 -1.6011  0.5255 -2.7768
  795MOL0     H 4881  11.909   7.710   5.897  2.8375  0.1067  1.3926
  795MOL0     H 4882  11.960   7.825   6.018 -0.8886 -2.2771  0.8923
  795MOL0     H 4883  11.882   7.893   5.733  0.3067  0.9594 -0.4466
  795MOL0     H 4884  11.937   8.007   5.866  1.7414  0.2816 -0.2591
  795MOL0     H 4885  12.092   7.805   5.748  0.9848 -1.0207  1.1852
  795MOL0     H 4886  12.137   7.894   5.894 -1.9553  3.4673  1.3960
  795MOL0     H 4887  12.118   8.103   5.757 -1.5687  0.4729 -1.1256
  795MOL0     H 4888  12.083   8.013   5.612 -1.0707 -3.9704  1.0098
  795MOL0     H 4889  12.322   8.112   5.645  1.5826 -0.1195 -0.7073
  795MOL0     H 4890  12.343   8.000   5.774 -0.7806  3.6761  0.9608
  795MOL0     H 4891  12.309   7.943   5.474  0.5462  1.5486 -0.3809
  795MOL0     H 4892  12.297   7.815   5.603  0.5644 -0.6231 -0.5795
  795MOL0     H 4893  12.498   7.731   5.737  3.6757 -2.4842  0.9043
  795MOL0     H 4894  12.795   7.761   5.841  1.3935  1.4449 -0.2730
  795MOL0     H 4895  12.877   7.814   5.697 -0.7280 -0.9209 -0.4533
  795MOL0     H 4896  12.762   7.537   5.772  1.4417  1.8744  1.9596
  795MOL0     H 4897  12.921   7.575   5.707 -0.7037 -0.9748  0.8575
  795MOL0     H 4898  12.650   7.591   5.533  0.0109 -1.7161 -2.6982
  795MOL0     H 4899  12.800   7.640   5.487  1.3772 -1.6351  0.3472
  795MOL0     H 4900  12.772   7.356   5.585 -1.4783  1.1274  0.0554
  795MOL0     H 4901  12.917   7.447   5.522  0.8310  2.6801  3.3444
  795MOL0     H 4902  12.703   7.344   5.147 -0.3346  0.8817 -0.9551
  795MOL0     H 4903  12.490   7.288   5.055 -0.1962  2.8543 -0.4772
  795MOL0     H 4904  12.045   6.999   5.139  2.0998  1.0915  1.0569
  795MOL0     H 4905  11.882   6.920   4.999 -0.3671  1.8578  0.5501
  795MOL0     H 4906  11.915   6.978   4.543 -1.7339  1.7405 -2.3394
  795MOL0     H 4907  11.814   7.108   4.610 -2.9823 -0.8630  1.7590
  795MOL0     H 4908  11.622   6.905   4.618 -3.1434  0.7070 -1.7293
  795MOL0     H 4909  11.732   6.829   4.506  3.5961  1.3929 -1.0316
  795MOL0     H 4910  11.707   7.008   4.342 -1.5168 -1.4387 -0.7995
  795MOL0     H 4911  11.617   7.102   4.477 -2.1702 -1.4575  1.4630
  795MOL0     H 4912  11.531   6.871   4.292 -0.6335 -1.7741  0.7720
  795MOL0     H 4913  11.494   6.858   4.462  0.6199  1.0295  1.2740
  795MOL0     H 4914  11.411   7.098   4.287  0.5997  1.4760  0.4976
  795MOL0     H 4915  11.381   7.061   4.459  1.2151 -1.4917  0.6727
  795MOL0     H 4916  11.178   6.963   4.373 -2.3485  1.0721 -1.6612
  795MOL0     H 4917  11.280   6.834   4.365 -2.0723 -2.2958 -2.8450
  795MOL0     H 4918  11.148   6.972   4.141  0.2779 -0.0271 -2.4848
  795MOL0     H 4919  11.326   6.978   4.115 -1.6366 -0.1090 -1.8648
  795MOL0     H 4920  11.221   6.788   4.017  1.5249  3.7885 -0.7780
  795MOL0     H 4921  11.149   6.740   4.174  1.0868 -3.0953 -2.4624
  795MOL0     H 4922  12.062   7.109   4.654 -2.3157  0.6283  0.1029
  795MOL0     H 4923  12.240   7.196   4.796 -0.5962  0.8864 -0.4717
  795MOL0     H 4924  12.356   7.200   5.457  0.9306 -1.0995  1.1056
  795MOL0     H 4925  12.572   7.295   5.547  0.4270  3.1433 -1.1263
  795MOL0     H 4926  11.417   7.644   5.740  0.2176 -1.4155 -1.8369
  795MOL0     H 4927  11.266   7.651   5.550 -1.0155  1.9772  1.6305
  795MOL0     H 4928  11.477   7.596   5.000 -1.1727 -2.6122  0.3213
  795MOL0     H 4929  11.401   7.622   4.764  0.8247  0.1688  1.1715
  795MOL0     H 4930  11.044   7.868   4.664 -2.5411 -0.5218 -2.1374
  795MOL0     H 4931  11.028   7.699   4.629 -1.5691  0.9139 -1.5969
  795MOL0     H 4932  11.195   7.893   4.453 -1.5344  1.9030 -2.6437
  795MOL0     H 4933  11.189   7.724   4.425  3.0297  2.3652 -1.9674
  795MOL0     H 4934  10.961   7.923   4.426 -3.3893 -1.3184  3.4656
  795MOL0     H 4935  10.924   7.755   4.419 -0.6842  1.2524  2.9269
  795MOL0     H 4936  11.124   7.881   4.222 -0.8741  0.6121 -2.4588
  795MOL0     H 4937  11.017   7.738   4.195  0.6903  0.5322 -2.1961
  795MOL0     H 4938  10.753   8.037   4.074 -0.9642 -0.8897 -1.1222
  795MOL0     H 4939  11.071   7.865   4.894 -1.2779  1.0445  2.2678
  795MOL0     H 4940  11.128   7.839   5.108  0.8365 -0.8453  1.9662
  796MOL0     O 4941   6.314   5.099   5.631 -0.1593  0.0861  0.3403
  796MOL0     C 4942   6.285   5.134   5.513 -0.3100 -1.3242  0.4480
  796MOL0     O 4943   6.159   5.121   5.443 -0.3347  0.4316  0.0246
  796MOL0     C 4944   6.056   5.047   5.500  0.4958  0.3617 -0.1352
  796MOL0     C 4945   5.970   4.996   5.402  0.5331  0.5582 -0.1624
  796MOL0     C 4946   5.847   4.944   5.440 -0.4173 -0.2868  0.8122
  796MOL0     C 4947   5.805   4.943   5.572  0.0031 -0.0440 -0.0292
  796MOL0     O 4948   5.685   4.887   5.596 -0.5821  0.0750 -0.0817
  796MOL0     C 4949   5.598   4.935   5.701  0.2699 -0.3720 -0.3488
  796MOL0     C 4950   5.530   5.071   5.655  0.0653  0.3270 -0.5179
  796MOL0     C 4951   5.472   5.062   5.512  0.1977  0.3944 -0.0907
  796MOL0     C 4952   5.350   4.960   5.502 -0.6074  0.1647  0.2673
  796MOL0     C 4953   5.289   4.980   5.362 -0.3026  0.5443  1.5831
  796MOL0     C 4954   5.179   4.881   5.329 -0.2772  0.8010 -0.2732
  796MOL0     C 4955   5.114   4.882   5.190 -0.3760 -0.5883 -0.3581
  796MOL0     C 4956   5.168   4.984   5.080 -0.6350 -0.5575 -0.2212
  796MOL0     N 4957   5.074   4.999   4.964 -0.2189  0.2905  1.2882
  796MOL0     C 4958   5.094   5.082   4.849 -0.1255 -0.2170  0.5264
  796MOL0     C 4959   4.988   5.061   4.769 -0.2447 -0.0315 -0.4492
  796MOL0     C 4960   4.959   5.114   4.632 -0.9155  0.5242 -0.4727
  796MOL0     C 4961   4.987   5.006   4.534 -0.5203 -0.4595  0.6428
  796MOL0     C 4962   5.053   5.075   4.413 -0.6199 -0.2396 -0.1313
  796MOL0     C 4963   5.087   4.971   4.306 -1.4474 -0.2638  0.1577
  796MOL0     O 4964   5.195   4.887   4.362  0.0729 -0.5114 -0.3753
  796MOL0     C 4965   5.183   4.755   4.359  0.1758  0.3794  0.2808
  796MOL0     C 4966   5.274   4.694   4.280  0.7685 -0.2078  0.4519
  796MOL0     C 4967   5.288   4.557   4.286  1.0219  0.1391 -0.3581
  796MOL0     C 4968   5.212   4.480   4.383 -0.1204  0.0231  0.7571
  796MOL0     C 4969   5.230   4.333   4.411  0.3492 -0.3352 -0.1635
  796MOL0     O 4970   5.317   4.264   4.329  0.2869 -0.3526 -0.2246
  796MOL0     C 4971   5.333   4.130   4.332  0.8690  0.0346 -0.8224
  796MOL0     C 4972   5.328   4.053   4.453 -0.0717 -0.0203  0.5725
  796MOL0     C 4973   5.332   3.916   4.436  0.8012 -0.1330 -0.5414
  796MOL0     C 4974   5.346   3.846   4.312 -0.4968  0.6085  0.4675
  796MOL0     O 4975   5.358   3.710   4.297 -0.7950 -0.0889 -0.2301
  796MOL0     C 4976   5.324   3.617   4.406  0.1966 -0.5166  0.2950
  796MOL0     C 4977   5.310   3.467   4.376 -0.2049  0.2200 -0.1459
  796MOL0     C 4978   5.173   3.405   4.370 -0.4306  0.0565 -0.1050
  796MOL0     C 4979   5.197   3.252   4.347  1.1933  0.0291  0.5891
  796MOL0     C 4980   5.089   3.150   4.380  0.6451  0.7545  0.1504
  796MOL0     C 4981   5.043   3.165   4.526  0.0498  0.2940 -1.1110
  796MOL0     C 4982   4.945   3.058   4.580  0.2247 -0.2169  0.7150
  796MOL0     C 4983   4.872   3.119   4.697  1.5363  0.2772  1.1118
  796MOL0    Cl 4984   4.976   3.143   4.841 -0.2010 -0.2199  0.0095
  796MOL0     C 4985   5.356   3.929   4.200  0.5629  0.3935 -0.3750
  796MOL0     C 4986   5.336   4.062   4.207  1.2663  0.1518  0.0821
  796MOL0     O 4987   5.166   4.282   4.501 -0.3284 -0.8360 -0.0073
  796MOL0     C 4988   5.113   4.548   4.457  0.9601 -0.2653  0.6295
  796MOL0     C 4989   5.102   4.680   4.445 -0.9108  0.6036  0.2014
  796MOL0     N 4990   4.907   4.971   4.838 -0.0217  0.9778 -0.1245
  796MOL0     N 4991   4.951   4.942   4.952  0.1464 -0.8281 -0.1427
  796MOL0     C 4992   5.890   5.008   5.674  0.4048 -1.2204  0.6368
  796MOL0     C 4993   6.006   5.065   5.637 -1.3042  1.7229  0.0335
  796MOL0     C 4994   6.401   5.205   5.449  0.1852 -0.0057 -0.6486
  796MOL0     C 4995   6.376   5.278   5.326  0.2013  0.3286 -0.4007
  796MOL0     C 4996   6.478   5.350   5.281  0.0164 -0.2034  0.4873
  796MOL0     C 4997   6.612   5.340   5.323 -0.0595  0.8536 -0.8562
  796MOL0     O 4998   6.721   5.404   5.263  0.4984 -0.4013 -0.1491
  796MOL0     C 4999   6.688   5.462   5.130  0.4681 -0.5725  0.4438
  796MOL0     C 5000   6.821   5.524   5.077  0.0213  0.0235  0.6843
  796MOL0     C 5001   6.808   5.580   4.934 -0.4660 -0.6947 -0.4641
  796MOL0     C 5002   6.809   5.466   4.840 -0.5482 -0.6372 -0.4777
  796MOL0     C 5003   6.812   5.520   4.703  0.9633 -0.6384 -0.7647
  796MOL0     C 5004   6.816   5.577   4.601  0.9690  0.0561  0.3388
  796MOL0     C 5005   6.633   5.266   5.436 -0.2280 -0.1882 -0.0635
  796MOL0     C 5006   6.528   5.205   5.505  0.2942  0.1741  0.3467
  796MOL0     H 5007   5.989   4.997   5.295 -1.8306  1.7543 -0.6423
  796MOL0     H 5008   5.784   4.894   5.368 -0.8977  2.6354 -0.9493
  796MOL0     H 5009   5.648   4.929   5.798  2.4975 -0.7416 -1.4458
  796MOL0     H 5010   5.513   4.867   5.703  0.0585 -0.1293 -0.9571
  796MOL0     H 5011   5.602   5.152   5.662  0.5863 -0.2681  1.3486
  796MOL0     H 5012   5.444   5.093   5.720  0.6087  1.7733 -0.2629
  796MOL0     H 5013   5.534   5.032   5.428 -1.1195 -2.5159 -0.1359
  796MOL0     H 5014   5.422   5.158   5.491  2.2582  2.2312  2.6777
  796MOL0     H 5015   5.386   4.860   5.526 -1.8825 -0.1838  0.7922
  796MOL0     H 5016   5.272   4.989   5.573 -1.3334 -0.3360 -0.3123
  796MOL0     H 5017   5.364   4.967   5.283  0.3484  1.1110  2.0968
  796MOL0     H 5018   5.247   5.081   5.363  0.0669  0.7274  0.6362
  796MOL0     H 5019   5.101   4.922   5.393  0.7865  2.5128  0.0006
  796MOL0     H 5020   5.208   4.781   5.363 -0.7697  0.4132 -0.9693
  796MOL0     H 5021   5.099   4.786   5.138  0.7014 -0.1577 -1.5194
  796MOL0     H 5022   5.012   4.912   5.215 -0.4509 -0.5257 -0.7370
  796MOL0     H 5023   5.267   4.957   5.043  0.7699 -0.5684  3.2072
  796MOL0     H 5024   5.185   5.087   5.114  2.6512 -1.4490  1.1393
  796MOL0     H 5025   5.167   5.161   4.834  0.0393 -0.4103  0.2902
  796MOL0     H 5026   5.013   5.209   4.619  1.6775 -0.9391 -1.0454
  796MOL0     H 5027   4.851   5.128   4.618 -0.9845 -0.8263 -1.4777
  796MOL0     H 5028   4.898   4.952   4.504  1.9407 -3.0562 -2.8089
  796MOL0     H 5029   5.063   4.942   4.580  1.7183  2.7535  1.7811
  796MOL0     H 5030   4.978   5.139   4.365 -0.8091 -0.6831 -0.4358
  796MOL0     H 5031   5.132   5.148   4.435  1.5698 -1.7393 -2.3377
  796MOL0     H 5032   5.117   5.006   4.207 -4.4487 -0.1860 -0.8051
  796MOL0     H 5033   4.993   4.916   4.301 -4.0312  3.5708  1.4900
  796MOL0     H 5034   5.327   4.743   4.199  2.5069 -1.8167  0.5517
  796MOL0     H 5035   5.341   4.509   4.204 -0.6754 -0.3700 -1.2088
  796MOL0     H 5036   5.318   4.096   4.552 -1.1629 -1.9578  1.3652
  796MOL0     H 5037   5.320   3.855   4.525 -6.8154  0.9048 -0.1845
  796MOL0     H 5038   5.238   3.651   4.465 -0.5557 -0.8015 -0.6142
  796MOL0     H 5039   5.409   3.627   4.473  1.8189  0.0326 -1.7427
  796MOL0     H 5040   5.367   3.413   4.452 -1.0410  1.4542  1.4510
  796MOL0     H 5041   5.361   3.451   4.281 -0.1266  0.2003 -0.1004
  796MOL0     H 5042   5.124   3.450   4.283  1.3590 -0.6334 -1.5295
  796MOL0     H 5043   5.115   3.420   4.461  1.5788  1.5554  0.9927
  796MOL0     H 5044   5.235   3.235   4.246  1.2322 -0.8397  0.7348
  796MOL0     H 5045   5.277   3.218   4.413  3.5438 -1.0457 -2.5565
  796MOL0     H 5046   5.154   3.062   4.372 -0.7038 -0.4464  1.8591
  796MOL0     H 5047   5.008   3.149   4.306 -1.4858  1.3889  2.3544
  796MOL0     H 5048   4.995   3.263   4.530  0.3842  0.4275  0.4770
  796MOL0     H 5049   5.140   3.165   4.577 -0.3336  0.1953 -0.3785
  796MOL0     H 5050   4.880   3.058   4.492  1.4756  0.8985 -0.2595
  796MOL0     H 5051   5.005   2.968   4.593 -0.3613 -0.8997 -1.0505
  796MOL0     H 5052   4.784   3.054   4.704  0.7774  0.7028 -2.5386
  796MOL0     H 5053   4.837   3.219   4.670  1.8028  0.9705  3.1739
  796MOL0     H 5054   5.358   3.895   4.097  0.0567  2.1856 -1.0234
  796MOL0     H 5055   5.321   4.127   4.122 -2.0567 -0.8134 -0.2363
  796MOL0     H 5056   5.040   4.500   4.523 -1.8787 -0.0213 -2.0953
  796MOL0     H 5057   5.029   4.725   4.513 -0.2682 -2.3246  3.0491
  796MOL0     H 5058   5.868   5.016   5.780 -1.7596 -1.3349  0.2390
  796MOL0     H 5059   6.063   5.130   5.703  0.9484  1.0412 -1.1303
  796MOL0     H 5060   6.270   5.282   5.300 -0.0419 -2.4025 -0.0990
  796MOL0     H 5061   6.446   5.424   5.208  1.2006  1.4943  1.6020
  796MOL0     H 5062   6.607   5.535   5.137  0.6489 -0.1716 -1.2294
  796MOL0     H 5063   6.654   5.378   5.069 -0.7280 -1.2323  1.9515
  796MOL0     H 5064   6.852   5.608   5.139 -2.4497  1.8323 -0.3520
  796MOL0     H 5065   6.898   5.447   5.070 -1.3920 -1.7769  3.1626
  796MOL0     H 5066   6.891   5.652   4.923 -2.0953  0.8832 -4.4271
  796MOL0     H 5067   6.718   5.642   4.933 -0.1087  0.2137  3.6211
  796MOL0     H 5068   6.903   5.413   4.858 -0.4010 -0.1927  0.0581
  796MOL0     H 5069   6.726   5.395   4.851 -0.0626 -1.9935 -3.9960
  796MOL0     H 5070   6.832   5.626   4.506 -0.6276  1.5562  0.7878
  796MOL0     H 5071   6.729   5.270   5.486 -1.0481  0.6175  1.5358
  796MOL0     H 5072   6.542   5.155   5.600 -1.6739  3.1110  2.3676
  797MOL0     O 5073   8.065   5.243   3.596 -1.1849  0.4059  0.2250
  797MOL0     C 5074   8.091   5.310   3.496 -1.0030 -0.0676  0.2453
  797MOL0     O 5075   7.995   5.374   3.426 -0.1353 -0.3415  0.1238
  797MOL0     C 5076   7.894   5.435   3.498  0.8810  0.4362  0.4532
  797MOL0     C 5077   7.772   5.424   3.432  0.0740  0.7161  0.7645
  797MOL0     C 5078   7.656   5.476   3.497  0.7356  0.2371 -1.1007
  797MOL0     C 5079   7.672   5.541   3.625  0.5282  0.1311 -0.1594
  797MOL0     O 5080   7.559   5.583   3.694 -0.4686 -0.8075 -0.2490
  797MOL0     C 5081   7.571   5.669   3.810 -0.1581 -0.3545 -0.2324
  797MOL0     C 5082   7.438   5.735   3.850 -0.5150 -0.5534  0.0489
  797MOL0     C 5083   7.374   5.811   3.728  0.4993  0.9346 -0.2618
  797MOL0     C 5084   7.256   5.907   3.753  0.0585  0.4833  0.2540
  797MOL0     C 5085   7.298   6.010   3.846 -0.7242 -0.1657 -0.0689
  797MOL0     C 5086   7.179   6.118   3.852  0.0830  0.8221 -0.1352
  797MOL0     C 5087   7.216   6.255   3.896 -0.3387 -0.8944  0.1907
  797MOL0     C 5088   7.316   6.246   4.007 -0.0715  0.3867 -0.7547
  797MOL0     N 5089   7.348   6.379   4.061  1.0107  0.0950  0.2664
  797MOL0     C 5090   7.272   6.474   4.132  0.2074 -0.0870 -0.3898
  797MOL0     C 5091   7.336   6.593   4.113  0.2397  0.6254  0.6543
  797MOL0     C 5092   7.277   6.728   4.125 -0.4765 -0.8513 -0.1546
  797MOL0     C 5093   7.134   6.739   4.060  0.0802 -0.9894  0.0385
  797MOL0     C 5094   7.077   6.888   4.061  0.5239  1.0837 -0.5160
  797MOL0     C 5095   7.099   6.978   4.187 -0.2691  0.1072  0.1873
  797MOL0     O 5096   7.016   7.091   4.172  0.7978  0.1628 -0.1822
  797MOL0     C 5097   6.883   7.078   4.195  0.3433 -0.0445 -0.1649
  797MOL0     C 5098   6.808   7.193   4.153 -0.0536  0.3869 -0.7551
  797MOL0     C 5099   6.673   7.205   4.191 -0.0583  1.3836 -0.9904
  797MOL0     C 5100   6.615   7.104   4.262  0.9035  0.1673  0.0303
  797MOL0     C 5101   6.471   7.103   4.294  0.1278  0.3154 -1.4233
  797MOL0     O 5102   6.398   7.220   4.268  0.2337  0.7372 -0.0136
  797MOL0     C 5103   6.259   7.201   4.289  0.9924 -0.7321  0.4967
  797MOL0     C 5104   6.183   7.265   4.387  0.5261 -0.8180  0.1893
  797MOL0     C 5105   6.040   7.264   4.383 -0.6564  1.2140 -0.6605
  797MOL0     C 5106   5.969   7.213   4.281  0.3620  0.7739 -0.1487
  797MOL0     O 5107   5.835   7.222   4.264  0.2035 -0.4008  0.9020
  797MOL0     C 5108   5.773   7.350   4.278  0.2994 -0.3643  0.4306
  797MOL0     C 5109   5.630   7.321   4.328  0.0720  0.1067  1.1276
  797MOL0     C 5110   5.529   7.423   4.271 -0.9748 -0.4487 -0.6735
  797MOL0     C 5111   5.582   7.575   4.281  0.1399  1.0996 -1.4142
  797MOL0     C 5112   5.460   7.664   4.302 -0.8732 -0.0038  0.1180
  797MOL0     C 5113   5.373   7.663   4.182 -0.2155 -0.5175 -0.5908
  797MOL0     C 5114   5.274   7.779   4.180  0.5663  0.4586  0.3387
  797MOL0     C 5115   5.146   7.762   4.095 -0.9035  0.8477  1.4602
  797MOL0    Cl 5116   5.038   7.903   4.102  0.1978 -0.3186 -0.5953
  797MOL0     C 5117   6.046   7.136   4.194  0.0101 -0.3789  0.7645
  797MOL0     C 5118   6.188   7.132   4.200  0.5838 -0.2595  0.0140
  797MOL0     O 5119   6.428   7.008   4.344  0.7154  0.0095  0.2350
  797MOL0     C 5120   6.689   6.987   4.291  0.6387  0.7131  0.1401
  797MOL0     C 5121   6.825   6.982   4.273 -0.4923  0.5010  0.2591
  797MOL0     N 5122   7.453   6.571   4.041  0.1677 -0.1422 -0.0389
  797MOL0     N 5123   7.443   6.447   4.000  0.4267  0.3712  0.4864
  797MOL0     C 5124   7.795   5.558   3.684  0.1397 -0.1375 -0.6156
  797MOL0     C 5125   7.910   5.505   3.620 -0.2257  0.2139  0.4881
  797MOL0     C 5126   8.227   5.298   3.433 -0.3579  0.7141  0.4363
  797MOL0     C 5127   8.302   5.178   3.449 -0.4242  0.6391 -0.5147
  797MOL0     C 5128   8.440   5.174   3.431  0.1949 -0.4632  0.8720
  797MOL0     C 5129   8.501   5.293   3.388 -0.3800  0.6333 -0.0795
  797MOL0     O 5130   8.625   5.291   3.344 -0.0959 -0.3105  0.1275
  797MOL0     C 5131   8.727   5.304   3.450  0.2094 -0.9475  0.3036
  797MOL0     C 5132   8.801   5.434   3.429 -0.1254  0.4453  0.6256
  797MOL0     C 5133   8.887   5.475   3.550  0.7852  0.6807  0.1530
  797MOL0     C 5134   8.997   5.583   3.525 -0.1033  0.5892 -0.3723
  797MOL0     C 5135   8.945   5.715   3.490 -0.1229 -0.1325 -0.4892
  797MOL0     C 5136   8.912   5.820   3.448  1.0350 -0.2476 -1.1562
  797MOL0     C 5137   8.434   5.413   3.367  1.0703 -0.1734 -1.4629
  797MOL0     C 5138   8.298   5.414   3.398  0.2651  0.3517  0.4037
  797MOL0     H 5139   7.756   5.365   3.342 -0.7105  0.4527  1.0690
  797MOL0     H 5140   7.554   5.468   3.462 -0.0144  3.4618 -0.0244
  797MOL0     H 5141   7.643   5.749   3.794 -1.7691  1.0821 -0.5025
  797MOL0     H 5142   7.584   5.608   3.901  0.5665  1.1290  0.6995
  797MOL0     H 5143   7.457   5.808   3.929  2.9840 -0.7676 -0.4366
  797MOL0     H 5144   7.368   5.666   3.897  1.7787 -0.0326  4.9340
  797MOL0     H 5145   7.329   5.733   3.666 -0.2721  1.3400 -0.2300
  797MOL0     H 5146   7.452   5.858   3.668  1.0106  1.2474  0.6301
  797MOL0     H 5147   7.213   5.956   3.666 -3.2527 -1.8018  0.4340
  797MOL0     H 5148   7.171   5.851   3.791  2.6942 -2.5380  2.2766
  797MOL0     H 5149   7.392   6.056   3.813  1.0541 -2.3089  1.7169
  797MOL0     H 5150   7.311   5.972   3.948  2.5588 -0.9259 -0.6499
  797MOL0     H 5151   7.104   6.074   3.917 -0.2909 -1.6226 -2.0684
  797MOL0     H 5152   7.129   6.129   3.755  1.5864  1.4192 -0.8718
  797MOL0     H 5153   7.254   6.310   3.810  0.9210 -1.1032  0.5772
  797MOL0     H 5154   7.123   6.284   3.945  0.0513  0.2929  0.2671
  797MOL0     H 5155   7.411   6.198   3.980  0.1084  0.6845 -0.6558
  797MOL0     H 5156   7.276   6.183   4.086  0.5686  0.3914 -0.4193
  797MOL0     H 5157   7.195   6.451   4.205  1.1732 -2.2438  0.0228
  797MOL0     H 5158   7.343   6.784   4.058 -2.9567 -0.7535 -2.6781
  797MOL0     H 5159   7.286   6.759   4.229  1.9308 -2.9020  0.3660
  797MOL0     H 5160   7.063   6.670   4.105  1.3717 -2.2253  0.2428
  797MOL0     H 5161   7.140   6.708   3.955  0.1617 -1.9991  0.3366
  797MOL0     H 5162   7.123   6.934   3.973 -0.8026  0.0636 -1.7928
  797MOL0     H 5163   6.974   6.867   4.030  0.8585 -3.0658  0.5410
  797MOL0     H 5164   7.203   7.011   4.195  0.0105 -0.6935 -0.0116
  797MOL0     H 5165   7.088   6.917   4.277 -1.0522 -2.2976 -1.4410
  797MOL0     H 5166   6.849   7.278   4.101 -0.3723 -0.3060 -2.1993
  797MOL0     H 5167   6.617   7.295   4.167 -2.1477  0.8875  1.5649
  797MOL0     H 5168   6.232   7.318   4.469 -0.6595  1.2614 -0.3721
  797MOL0     H 5169   5.984   7.308   4.464 -1.2699 -1.4592  0.4648
  797MOL0     H 5170   5.764   7.408   4.187  3.0760 -0.8763 -0.2719
  797MOL0     H 5171   5.824   7.406   4.357  3.2775 -0.2367 -1.4298
  797MOL0     H 5172   5.636   7.312   4.437  1.9448  2.0685  1.2467
  797MOL0     H 5173   5.599   7.221   4.296  1.0751 -0.0812  0.6981
  797MOL0     H 5174   5.447   7.409   4.343 -1.6597 -2.5329 -1.7712
  797MOL0     H 5175   5.489   7.411   4.170 -3.4193 -1.1418  0.2964
  797MOL0     H 5176   5.659   7.588   4.357  0.5792  2.1137 -2.0158
  797MOL0     H 5177   5.629   7.612   4.189  2.6588  2.0376  0.1506
  797MOL0     H 5178   5.504   7.762   4.323 -1.1852 -0.1421  1.5676
  797MOL0     H 5179   5.405   7.630   4.391  1.3174 -3.8239  0.2365
  797MOL0     H 5180   5.311   7.572   4.186 -0.6902 -0.2058 -0.7375
  797MOL0     H 5181   5.421   7.650   4.085  0.1112 -0.9216 -0.3798
  797MOL0     H 5182   5.226   7.791   4.278 -2.9001 -1.7742 -0.8751
  797MOL0     H 5183   5.324   7.871   4.149 -0.5141  0.5201 -1.3924
  797MOL0     H 5184   5.094   7.670   4.122 -0.3678  0.1854  0.3015
  797MOL0     H 5185   5.177   7.744   3.991  0.7288  1.4141  1.8117
  797MOL0     H 5186   5.995   7.081   4.116 -0.7042  1.6674 -0.2807
  797MOL0     H 5187   6.237   7.081   4.118  0.2743 -1.8882  0.8093
  797MOL0     H 5188   6.648   6.900   4.341  0.5454 -1.4420 -3.3200
  797MOL0     H 5189   6.885   6.901   4.313  0.3652  1.4517  0.9498
  797MOL0     H 5190   7.809   5.628   3.765  1.9418  0.0601 -1.0753
  797MOL0     H 5191   8.007   5.519   3.666  0.3786 -2.2947  0.1438
  797MOL0     H 5192   8.250   5.089   3.481 -1.8648  1.5593 -0.1671
  797MOL0     H 5193   8.500   5.084   3.436 -0.6084 -1.0375  0.4492
  797MOL0     H 5194   8.797   5.221   3.453 -0.8091 -1.9874 -2.1610
  797MOL0     H 5195   8.683   5.310   3.550 -0.6472  0.4207 -0.1241
  797MOL0     H 5196   8.873   5.428   3.347  1.3777  2.4231  1.6994
  797MOL0     H 5197   8.729   5.511   3.400  0.8513  0.9462 -0.6087
  797MOL0     H 5198   8.951   5.392   3.582 -1.2676 -1.2785 -0.5286
  797MOL0     H 5199   8.818   5.491   3.633  1.5809  2.6007  0.4805
  797MOL0     H 5200   9.070   5.585   3.607 -0.9596 -1.0555  0.4849
  797MOL0     H 5201   9.054   5.539   3.443  0.6054  0.5105  0.1507
  797MOL0     H 5202   8.884   5.920   3.423 -0.9493 -0.0889  1.3619
  797MOL0     H 5203   8.491   5.500   3.336  2.5338 -0.5689 -0.0287
  797MOL0     H 5204   8.240   5.505   3.400  1.1776  0.9399  2.2810
  798MOL0     O 5205   0.912   7.644   0.582  0.2666 -0.3512  0.5233
  798MOL0     C 5206   0.884   7.755   0.539 -0.8715 -1.0156 -0.5055
  798MOL0     O 5207   0.817   7.850   0.614  0.2638  0.4299  0.0140
  798MOL0     C 5208   0.757   7.817   0.737 -0.2881 -0.1760  0.0971
  798MOL0     C 5209   0.823   7.761   0.857 -0.4190  0.3802 -0.1165
  798MOL0     C 5210   0.763   7.760   0.983 -0.9512  0.3897 -0.4829
  798MOL0     C 5211   0.629   7.809   0.992  1.7599 -0.2688 -0.2504
  798MOL0     O 5212   0.551   7.800   1.107  0.0718  0.0199 -0.3691
  798MOL0     C 5213   0.608   7.735   1.224  0.2375  0.5545 -0.6398
  798MOL0     C 5214   0.506   7.720   1.333 -0.6380 -0.0326  0.4041
  798MOL0     C 5215   0.374   7.652   1.302 -0.9619  0.7364  0.3391
  798MOL0     C 5216   0.283   7.623   1.426  0.5345  0.6204 -0.4681
  798MOL0     C 5217   0.136   7.574   1.400 -0.0463  0.4328  0.1022
  798MOL0     C 5218   0.120   7.448   1.311 -1.0631 -0.1330  0.1749
  798MOL0     C 5219   0.215   7.328   1.356  0.0319  0.1321 -0.6355
  798MOL0     C 5220   0.180   7.257   1.485 -0.0320 -0.0406 -0.0295
  798MOL0     N 5221   0.296   7.197   1.544  0.7521 -0.4453  0.6097
  798MOL0     C 5222   0.373   7.271   1.637 -0.1004  0.5919 -0.0113
  798MOL0     C 5223   0.458   7.172   1.694  1.2575  0.0986  0.0233
  798MOL0     C 5224   0.554   7.191   1.810 -0.6493  0.2893  0.1630
  798MOL0     C 5225   0.616   7.333   1.813 -0.5928  0.0044 -0.4821
  798MOL0     C 5226   0.657   7.356   1.956 -0.3739  0.4188 -0.0639
  798MOL0     C 5227   0.791   7.433   1.953 -0.0590  0.9023 -0.2205
  798MOL0     O 5228   0.788   7.552   1.872 -0.3776 -0.3416 -0.0767
  798MOL0     C 5229   0.730   7.667   1.929  0.7103 -0.0169 -0.1686
  798MOL0     C 5230   0.628   7.729   1.858  0.7692 -0.1587 -0.4917
  798MOL0     C 5231   0.555   7.840   1.907 -0.1905  0.5414 -0.0878
  798MOL0     C 5232   0.598   7.907   2.022  0.2136  1.0301  0.0838
  798MOL0     C 5233   0.526   8.021   2.080 -0.4240 -0.5559 -0.0217
  798MOL0     O 5234   0.599   8.087   2.175  0.3521 -0.0947 -0.8343
  798MOL0     C 5235   0.547   8.188   2.250 -0.2165 -0.2993 -0.6790
  798MOL0     C 5236   0.632   8.282   2.308 -1.0404  0.2605 -0.0811
  798MOL0     C 5237   0.587   8.375   2.394  0.3246 -0.1468  0.0426
  798MOL0     C 5238   0.448   8.388   2.426 -0.8715 -0.7791 -0.3593
  798MOL0     O 5239   0.392   8.468   2.521  1.2563  0.2965 -0.8509
  798MOL0     C 5240   0.476   8.508   2.640  1.1822 -0.7814  0.0083
  798MOL0     C 5241   0.399   8.601   2.728  1.0679  0.3728 -0.4301
  798MOL0     C 5242   0.455   8.648   2.860 -0.7274  0.0501 -0.5505
  798MOL0     C 5243   0.376   8.753   2.936 -0.4162 -0.5509 -0.1875
  798MOL0     C 5244   0.295   8.712   3.061  0.1806  0.9734  0.8340
  798MOL0     C 5245   0.173   8.795   3.094 -1.0454  0.6314 -0.2357
  798MOL0     C 5246   0.212   8.928   3.149  0.0841  0.6168 -0.3342
  798MOL0     C 5247   0.305   8.947   3.269 -0.4565 -1.4765  0.8063
  798MOL0    Cl 5248   0.367   9.126   3.252  0.5606  0.1175  0.2938
  798MOL0     C 5249   0.361   8.305   2.356  0.1754 -0.1758 -0.4362
  798MOL0     C 5250   0.408   8.207   2.282  0.3060  0.3424 -0.3568
  798MOL0     O 5251   0.420   8.056   2.037 -0.0679 -0.3368 -0.3471
  798MOL0     C 5252   0.720   7.862   2.081 -0.7775  0.5985 -0.4985
  798MOL0     C 5253   0.779   7.744   2.040 -0.9829 -0.9386  0.3871
  798MOL0     N 5254   0.443   7.054   1.615  0.0899 -0.7756 -0.6416
  798MOL0     N 5255   0.337   7.063   1.531 -0.4755  0.8217 -0.1006
  798MOL0     C 5256   0.561   7.848   0.879 -0.5093 -0.8256  0.1116
  798MOL0     C 5257   0.631   7.865   0.755  0.0041  0.7990  0.3193
  798MOL0     C 5258   0.955   7.807   0.411 -0.4467  0.0239 -0.1420
  798MOL0     C 5259   0.960   7.728   0.295  0.3017 -0.8217 -0.6077
  798MOL0     C 5260   1.025   7.774   0.181  1.2189 -0.1706  0.1462
  798MOL0     C 5261   1.082   7.904   0.177 -0.7858  0.5466  0.9105
  798MOL0     O 5262   1.139   7.951   0.056  0.2598  0.4498  0.0623
  798MOL0     C 5263   1.246   8.044   0.057  0.4179 -0.3107  0.8378
  798MOL0     C 5264   1.295   8.069  -0.089 -0.3034  0.4356 -0.5136
  798MOL0     C 5265   1.337   8.210  -0.103 -0.1710 -0.1507  0.0514
  798MOL0     C 5266   1.429   8.229  -0.221 -0.6860  0.1808  0.0800
  798MOL0     C 5267   1.565   8.238  -0.168 -0.4569  0.3142  0.0967
  798MOL0     C 5268   1.672   8.237  -0.105  0.2051  0.1438 -0.5375
  798MOL0     C 5269   1.079   7.986   0.290  0.8471  0.3601  0.2155
  798MOL0     C 5270   1.021   7.934   0.409  0.5285 -0.2179  0.4117
  798MOL0     H 5271   0.929   7.740   0.842 -0.3875  1.2562 -1.3096
  798MOL0     H 5272   0.824   7.716   1.062 -1.3023  1.6868  0.5447
  798MOL0     H 5273   0.698   7.786   1.259  0.9181 -1.4692  0.6996
  798MOL0     H 5274   0.638   7.632   1.202  1.2100  0.5089  0.7481
  798MOL0     H 5275   0.484   7.824   1.360 -0.0308  0.3596 -0.5401
  798MOL0     H 5276   0.549   7.672   1.421 -0.7037  1.9941  1.6150
  798MOL0     H 5277   0.403   7.553   1.265 -1.8674  1.5954 -3.0769
  798MOL0     H 5278   0.325   7.706   1.220  0.0660 -1.6704 -2.0336
  798MOL0     H 5279   0.332   7.556   1.496  1.4945  0.4026 -1.3362
  798MOL0     H 5280   0.257   7.720   1.469 -3.4074 -0.5583  0.2387
  798MOL0     H 5281   0.093   7.651   1.335 -1.5863 -2.2810 -2.3609
  798MOL0     H 5282   0.088   7.562   1.497  0.8689 -1.9332  0.3255
  798MOL0     H 5283   0.159   7.482   1.215  1.7719  0.6658  1.4836
  798MOL0     H 5284   0.013   7.429   1.304 -2.1241  4.8175 -1.3227
  798MOL0     H 5285   0.196   7.258   1.273 -3.9718  1.0693 -0.6827
  798MOL0     H 5286   0.320   7.360   1.361 -0.1803  1.4729 -3.0885
  798MOL0     H 5287   0.118   7.169   1.469  2.0430 -1.2690 -1.8427
  798MOL0     H 5288   0.136   7.328   1.556 -2.0316 -0.3600 -0.8917
  798MOL0     H 5289   0.363   7.373   1.671 -3.2759 -0.3994  2.4396
  798MOL0     H 5290   0.633   7.116   1.810 -1.4058 -0.5463  1.2635
  798MOL0     H 5291   0.513   7.170   1.910 -0.8653  3.0187  0.7116
  798MOL0     H 5292   0.551   7.413   1.777 -0.4571 -0.8134 -2.6469
  798MOL0     H 5293   0.700   7.340   1.743  0.0047  3.7336  0.3696
  798MOL0     H 5294   0.574   7.409   2.004  0.9112  1.5009  1.0492
  798MOL0     H 5295   0.677   7.271   2.022 -1.0303  2.5477  3.1162
  798MOL0     H 5296   0.862   7.364   1.906 -0.8800  1.0165 -1.6910
  798MOL0     H 5297   0.835   7.444   2.053  3.9231 -4.5402 -0.8906
  798MOL0     H 5298   0.589   7.674   1.773 -0.8047  0.7480 -0.4016
  798MOL0     H 5299   0.457   7.865   1.869  1.5307  0.8853 -4.9822
  798MOL0     H 5300   0.737   8.273   2.283 -1.2971 -0.5545 -0.9375
  798MOL0     H 5301   0.649   8.453   2.436 -1.6016  2.3623 -1.4821
  798MOL0     H 5302   0.557   8.568   2.597 -0.5834  3.2442  1.7771
  798MOL0     H 5303   0.516   8.417   2.686  1.3249 -1.4873 -1.4500
  798MOL0     H 5304   0.293   8.578   2.744  1.2508  0.4252  0.9387
  798MOL0     H 5305   0.390   8.687   2.662  1.5629  2.4540  2.0721
  798MOL0     H 5306   0.550   8.696   2.836 -0.8089  1.4711  1.6581
  798MOL0     H 5307   0.473   8.564   2.928 -0.4593 -0.1086 -0.8118
  798MOL0     H 5308   0.449   8.821   2.981 -0.1548 -2.5129  2.6246
  798MOL0     H 5309   0.320   8.811   2.862  3.1057 -0.6060 -3.2054
  798MOL0     H 5310   0.361   8.709   3.148 -0.4535 -1.2898  1.3112
  798MOL0     H 5311   0.253   8.612   3.045 -0.7542  0.9373  3.1351
  798MOL0     H 5312   0.121   8.739   3.173  1.5791 -1.1281  0.3603
  798MOL0     H 5313   0.108   8.810   3.008 -0.3738 -0.5962 -0.9822
  798MOL0     H 5314   0.260   8.980   3.066  0.3459 -0.4485 -0.8599
  798MOL0     H 5315   0.120   8.977   3.182 -0.4558  1.3413 -2.7564
  798MOL0     H 5316   0.383   8.870   3.270  0.4962 -0.7672 -3.1620
  798MOL0     H 5317   0.245   8.932   3.360  2.8184 -1.6156  3.1253
  798MOL0     H 5318   0.253   8.308   2.355  0.1322 -0.1566 -3.1162
  798MOL0     H 5319   0.333   8.150   2.228 -1.0292  2.0275 -0.3779
  798MOL0     H 5320   0.777   7.906   2.162  1.9927 -1.7121 -1.0343
  798MOL0     H 5321   0.864   7.722   2.104 -0.9185  0.1164  0.6823
  798MOL0     H 5322   0.454   7.855   0.867 -0.5465  0.5674  1.0701
  798MOL0     H 5323   0.585   7.919   0.673  0.8941 -2.8203 -2.8687
  798MOL0     H 5324   0.906   7.634   0.289 -0.0047 -0.6520 -0.5691
  798MOL0     H 5325   1.024   7.723   0.085  1.4406  1.6386 -0.8599
  798MOL0     H 5326   1.327   8.007   0.120  1.4091 -1.6857 -1.1618
  798MOL0     H 5327   1.214   8.144   0.088 -1.5315  0.5150 -3.2318
  798MOL0     H 5328   1.374   7.997  -0.113  0.7442  1.5513 -0.5442
  798MOL0     H 5329   1.213   8.047  -0.158 -0.6888 -0.4233  0.2102
  798MOL0     H 5330   1.393   8.241  -0.015 -0.2771  2.0523 -0.6028
  798MOL0     H 5331   1.248   8.273  -0.108  1.5242  2.4373  0.9204
  798MOL0     H 5332   1.433   8.155  -0.301  3.2850 -1.7804  1.8299
  798MOL0     H 5333   1.402   8.330  -0.255  2.9442  2.3275  2.7758
  798MOL0     H 5334   1.769   8.238  -0.059  1.0218 -1.0006 -2.1048
  798MOL0     H 5335   1.120   8.086   0.278 -2.8142  1.6690 -4.8669
  798MOL0     H 5336   1.039   7.983   0.504 -0.1976 -1.7413  1.3826
  799MOL0     O 5337   0.472   4.956   9.350  0.0131  0.2185 -0.0039
  799MOL0     C 5338   0.532   4.872   9.295 -0.6362 -0.5787  0.9102
  799MOL0     O 5339   0.503   4.734   9.301  0.1728 -0.5430  0.2941
  799MOL0     C 5340   0.396   4.689   9.373 -0.9736 -0.3923  0.4782
  799MOL0     C 5341   0.434   4.581   9.450  0.4752  0.2131 -0.5937
  799MOL0     C 5342   0.344   4.527   9.537  0.3418  0.1786  0.0889
  799MOL0     C 5343   0.223   4.598   9.561 -0.2193  1.0597 -0.0613
  799MOL0     O 5344   0.144   4.530   9.651 -0.8376  0.0338  0.7071
  799MOL0     C 5345   0.197   4.501   9.774 -0.8320  0.1073 -0.3275
  799MOL0     C 5346   0.077   4.501   9.871  0.7059 -0.4118 -0.5135
  799MOL0     C 5347   0.124   4.475  10.017 -0.3848  0.5047 -0.2831
  799MOL0     C 5348  -0.006   4.479  10.104  0.3885  0.8263  0.2485
  799MOL0     C 5349   0.025   4.554  10.228  0.7951  0.4612  0.8031
  799MOL0     C 5350  -0.095   4.568  10.309 -0.1933  1.0796 -0.2243
  799MOL0     C 5351  -0.050   4.626  10.438  0.2635  0.9710 -0.4903
  799MOL0     C 5352  -0.171   4.694  10.502  0.0108  0.1379 -1.2124
  799MOL0     N 5353  -0.183   4.684  10.647  0.1027 -0.1496 -0.2051
  799MOL0     C 5354  -0.100   4.735  10.744 -0.5175  0.8686  0.0504
  799MOL0     C 5355  -0.172   4.765  10.854  0.0800 -0.6631 -0.0207
  799MOL0     C 5356  -0.127   4.817  10.984 -0.6458  0.5729 -1.0618
  799MOL0     C 5357  -0.028   4.939  10.977 -0.2541 -0.4922 -0.1079
  799MOL0     C 5358  -0.063   5.057  10.876  0.1309 -0.0335 -0.7960
  799MOL0     C 5359  -0.202   5.107  10.909  0.4965 -0.4168 -0.0635
  799MOL0     O 5360  -0.195   5.180  11.030 -0.7885  0.0056 -0.1123
  799MOL0     C 5361  -0.281   5.154  11.132  0.2372 -0.2666 -0.4526
  799MOL0     C 5362  -0.218   5.183  11.257  0.2735 -0.6685 -0.2491
  799MOL0     C 5363  -0.291   5.157  11.378 -0.5761 -0.2899  0.0695
  799MOL0     C 5364  -0.424   5.115  11.376 -1.0738  0.0301  0.5252
  799MOL0     C 5365  -0.513   5.104  11.493 -0.1142 -0.6319  0.3599
  799MOL0     O 5366  -0.626   5.033  11.465  0.4376 -0.5199 -0.4351
  799MOL0     C 5367  -0.736   5.022  11.548  1.2075  0.2913  0.5683
  799MOL0     C 5368  -0.764   5.077  11.676 -0.8230  0.1297 -0.5982
  799MOL0     C 5369  -0.882   5.037  11.743  0.1165  0.4083  0.0210
  799MOL0     C 5370  -0.977   4.957  11.672 -0.5082  0.2575  0.4420
  799MOL0     O 5371  -1.090   4.912  11.735  0.6304 -0.2522 -0.1683
  799MOL0     C 5372  -1.144   4.985  11.852  0.7012 -0.1521 -0.0487
  799MOL0     C 5373  -1.293   4.962  11.863  0.6979  0.5548  0.2048
  799MOL0     C 5374  -1.378   5.016  11.746  1.0864 -0.7251 -0.9012
  799MOL0     C 5375  -1.372   5.165  11.751 -0.2189 -0.1416  0.0481
  799MOL0     C 5376  -1.471   5.234  11.659 -0.1865  0.9482  0.2780
  799MOL0     C 5377  -1.454   5.180  11.513  1.2161  0.7262  0.0230
  799MOL0     C 5378  -1.564   5.237  11.423 -0.8215 -0.1538 -0.2292
  799MOL0     C 5379  -1.657   5.150  11.343  0.3155 -0.0788 -0.4342
  799MOL0    Cl 5380  -1.752   5.270  11.250  0.0857  0.5378 -0.0393
  799MOL0     C 5381  -0.963   4.930  11.533 -0.0148  0.0538  0.5072
  799MOL0     C 5382  -0.838   4.960  11.476 -0.1625 -0.4218  0.0455
  799MOL0     O 5383  -0.487   5.164  11.596 -0.1946  0.6414 -0.2545
  799MOL0     C 5384  -0.485   5.112  11.248  0.9240  0.5126 -0.4050
  799MOL0     C 5385  -0.411   5.127  11.127  0.7192 -0.0106  0.7162
  799MOL0     N 5386  -0.296   4.717  10.836  1.1737  0.1376 -0.3845
  799MOL0     N 5387  -0.296   4.667  10.715 -0.1791 -0.7311 -0.1583
  799MOL0     C 5388   0.188   4.703   9.480  0.5086 -1.1473 -0.7768
  799MOL0     C 5389   0.274   4.742   9.384  0.1555 -0.8933 -0.1822
  799MOL0     C 5390   0.649   4.916   9.220 -0.3506  0.8673 -0.9166
  799MOL0     C 5391   0.718   4.831   9.132 -1.4413 -0.0222 -0.5410
  799MOL0     C 5392   0.834   4.873   9.073 -0.5108  0.5288  0.4580
  799MOL0     C 5393   0.877   5.011   9.077  0.9204  0.0593  0.5394
  799MOL0     O 5394   0.988   5.060   9.011 -0.7740  0.3175 -0.5345
  799MOL0     C 5395   1.062   4.978   8.914 -0.4276 -0.4766 -0.0637
  799MOL0     C 5396   1.176   5.075   8.878  0.1621 -0.9503 -0.5542
  799MOL0     C 5397   1.289   5.081   8.977 -0.1662  0.3125 -0.4618
  799MOL0     C 5398   1.418   5.155   8.946  0.0254  0.0870  0.4499
  799MOL0     C 5399   1.508   5.100   8.842 -0.4617  0.1980  0.5726
  799MOL0     C 5400   1.582   5.041   8.765  0.1821 -0.2723 -1.2363
  799MOL0     C 5401   0.801   5.105   9.150 -0.1916  1.4454 -0.6355
  799MOL0     C 5402   0.689   5.051   9.225  0.1710 -0.0927  0.3217
  799MOL0     H 5403   0.533   4.540   9.429  1.4146  2.6382 -1.2493
  799MOL0     H 5404   0.375   4.434   9.585 -2.5978 -1.6909 -1.3333
  799MOL0     H 5405   0.267   4.576   9.815 -2.3739  0.7890  1.1797
  799MOL0     H 5406   0.243   4.402   9.775 -1.6047 -0.2576  0.6421
  799MOL0     H 5407   0.001   4.424   9.853  1.5811 -1.2472 -0.6885
  799MOL0     H 5408   0.037   4.603   9.869 -2.9536 -1.6879 -2.8720
  799MOL0     H 5409   0.205   4.543  10.043 -0.6952  1.5007 -1.8268
  799MOL0     H 5410   0.159   4.373  10.037 -3.0176  0.0232  2.7600
  799MOL0     H 5411  -0.090   4.516  10.044 -0.5773 -2.7054 -0.8502
  799MOL0     H 5412  -0.039   4.377  10.129  0.1927  1.4959  3.0851
  799MOL0     H 5413   0.061   4.653  10.198  0.3461  0.6005  0.7159
  799MOL0     H 5414   0.107   4.501  10.276  2.1402 -1.4084 -3.1660
  799MOL0     H 5415  -0.128   4.467  10.338  1.4533  1.1916  2.4034
  799MOL0     H 5416  -0.175   4.627  10.264 -0.1934  1.3805  0.1647
  799MOL0     H 5417  -0.014   4.536  10.488  0.3560  0.4555 -1.4496
  799MOL0     H 5418   0.035   4.694  10.424  0.4144  0.7144 -0.8298
  799MOL0     H 5419  -0.258   4.638  10.465  0.5725 -1.5500 -0.0874
  799MOL0     H 5420  -0.183   4.795  10.464  0.5850  0.8935  0.5217
  799MOL0     H 5421   0.003   4.764  10.732  0.6151 -1.3935  2.9788
  799MOL0     H 5422  -0.083   4.737  11.045  0.2320  2.5836  1.1271
  799MOL0     H 5423  -0.208   4.848  11.050  1.6849 -0.5165  2.6882
  799MOL0     H 5424   0.064   4.898  10.934  0.1991  2.0788 -1.8185
  799MOL0     H 5425  -0.002   4.980  11.075 -1.0935 -0.3520  0.0662
  799MOL0     H 5426   0.007   5.141  10.882 -1.4951  1.3200  0.4047
  799MOL0     H 5427  -0.057   5.020  10.773  1.0524  0.3851 -0.9024
  799MOL0     H 5428  -0.263   5.017  10.922  4.4431 -3.7480 -2.0540
  799MOL0     H 5429  -0.234   5.168  10.824  0.5066  1.7935  1.4385
  799MOL0     H 5430  -0.115   5.214  11.263 -0.5685  2.6215 -1.1040
  799MOL0     H 5431  -0.246   5.177  11.474 -1.7023 -0.2672  0.5992
  799MOL0     H 5432  -0.686   5.125  11.734 -1.8323 -2.3305  3.1828
  799MOL0     H 5433  -0.896   5.063  11.848 -0.8555  0.8990 -0.2161
  799MOL0     H 5434  -1.138   5.094  11.840 -1.0298 -0.2784 -3.0101
  799MOL0     H 5435  -1.098   4.949  11.944  1.2322 -0.5278 -0.4506
  799MOL0     H 5436  -1.322   5.018  11.952  2.9568  0.3617  1.1286
  799MOL0     H 5437  -1.307   4.854  11.872  1.6669  0.4380  0.3966
  799MOL0     H 5438  -1.483   4.994  11.764  0.6570  0.3478 -1.9378
  799MOL0     H 5439  -1.356   4.971  11.649 -0.9630 -0.8516 -1.3574
  799MOL0     H 5440  -1.381   5.192  11.857 -0.0231 -0.7295  0.2175
  799MOL0     H 5441  -1.276   5.202  11.715 -0.8122  0.7009 -0.7018
  799MOL0     H 5442  -1.450   5.342  11.661 -0.1928  0.9722 -0.6050
  799MOL0     H 5443  -1.565   5.198  11.701 -0.8655  0.5174 -1.4998
  799MOL0     H 5444  -1.456   5.071  11.511  3.3215  0.5786  1.6594
  799MOL0     H 5445  -1.354   5.199  11.474  0.7900  0.7285 -1.0866
  799MOL0     H 5446  -1.629   5.311  11.470  0.2159  1.5363 -1.3545
  799MOL0     H 5447  -1.503   5.291  11.350  1.1810 -1.0642  0.6686
  799MOL0     H 5448  -1.730   5.101  11.408 -0.6357  1.2887 -0.4271
  799MOL0     H 5449  -1.605   5.079  11.278 -0.0759 -1.9108  1.1522
  799MOL0     H 5450  -1.044   4.882  11.479  1.2760  0.4547 -1.9268
  799MOL0     H 5451  -0.827   4.940  11.370 -3.0424 -1.5776 -0.1174
  799MOL0     H 5452  -0.589   5.084  11.238  0.8686 -0.1741  1.6808
  799MOL0     H 5453  -0.465   5.123  11.033 -0.3595  2.0334  1.1752
  799MOL0     H 5454   0.092   4.753   9.487 -0.3514 -2.5242 -2.0591
  799MOL0     H 5455   0.234   4.827   9.329 -0.2618  0.3445  1.9160
  799MOL0     H 5456   0.683   4.729   9.119 -1.8289 -0.2348  1.7244
  799MOL0     H 5457   0.874   4.803   9.000  0.4291  0.3760  1.1066
  799MOL0     H 5458   0.997   4.951   8.830 -1.4604 -0.1246  0.5985
  799MOL0     H 5459   1.098   4.888   8.964  1.1963  1.9740  3.5503
  799MOL0     H 5460   1.204   5.046   8.777  0.1361 -0.2931 -0.7549
  799MOL0     H 5461   1.129   5.171   8.857 -1.1207 -0.8921  2.0683
  799MOL0     H 5462   1.314   4.979   9.008 -1.6045  0.3858  1.0707
  799MOL0     H 5463   1.248   5.115   9.072  0.2757  2.9900 -1.1714
  799MOL0     H 5464   1.394   5.261   8.933  1.0201  0.4777  1.5805
  799MOL0     H 5465   1.476   5.154   9.039 -1.6723  1.0570  1.5579
  799MOL0     H 5466   1.644   5.010   8.683 -2.1219 -2.1932 -2.3486
  799MOL0     H 5467   0.824   5.205   9.185 -0.1436  2.0701 -2.3456
  799MOL0     H 5468   0.640   5.130   9.281  1.1260  1.2475 -0.6551
  800MOL0     O 5469   3.157   9.207   2.486 -0.4898 -0.3548  0.5718
  800MOL0     C 5470   3.048   9.252   2.505 -0.5576  0.0748  1.0172
  800MOL0     O 5471   3.009   9.379   2.479 -0.5827  1.0563  0.3996
  800MOL0     C 5472   3.093   9.468   2.407  0.4469  0.5482 -1.1101
  800MOL0     C 5473   3.084   9.600   2.445 -0.5131 -0.0322 -0.6724
  800MOL0     C 5474   3.178   9.700   2.400  0.3814 -0.5063 -0.7648
  800MOL0     C 5475   3.284   9.661   2.323 -0.1170 -0.1499  0.3995
  800MOL0     O 5476   3.375   9.752   2.270  0.4335 -0.5434  0.0518
  800MOL0     C 5477   3.396   9.878   2.332  0.0728  0.0255 -0.7887
  800MOL0     C 5478   3.484   9.854   2.456  0.2156 -0.0725  1.2511
  800MOL0     C 5479   3.627   9.800   2.430  0.5976  0.5520 -0.0745
  800MOL0     C 5480   3.702   9.788   2.561 -0.9309 -0.1363 -0.8550
  800MOL0     C 5481   3.832   9.716   2.536 -0.0773  0.1050 -0.5576
  800MOL0     C 5482   3.906   9.724   2.678 -0.5502 -0.3178  0.8270
  800MOL0     C 5483   4.048   9.678   2.674 -0.3269 -0.8104  0.3992
  800MOL0     C 5484   4.146   9.793   2.647  0.2405  0.3012 -0.3232
  800MOL0     N 5485   4.288   9.759   2.658 -0.8063  0.1040 -1.2949
  800MOL0     C 5486   4.339   9.656   2.744 -0.2057  0.1050  0.5265
  800MOL0     C 5487   4.469   9.651   2.723 -0.1716  0.1190  0.3829
  800MOL0     C 5488   4.559   9.571   2.800  0.3498 -0.2187  0.3262
  800MOL0     C 5489   4.607   9.448   2.721 -0.4872 -0.9076 -0.0995
  800MOL0     C 5490   4.662   9.342   2.819  0.2111 -0.8758 -0.0653
  800MOL0     C 5491   4.752   9.225   2.765 -0.4749  0.7614 -0.6807
  800MOL0     O 5492   4.662   9.153   2.681 -1.2133 -0.1857  0.0030
  800MOL0     C 5493   4.712   9.039   2.626  0.6029  0.6999 -0.7025
  800MOL0     C 5494   4.742   9.023   2.493 -0.6751 -0.2103 -0.0480
  800MOL0     C 5495   4.813   8.910   2.454 -0.3372  0.3532 -0.5669
  800MOL0     C 5496   4.843   8.803   2.548  0.0659 -0.6308  0.3086
  800MOL0     C 5497   4.894   8.673   2.507 -0.0371  0.5844  0.9356
  800MOL0     O 5498   4.871   8.648   2.371  0.2644 -0.4230 -0.6300
  800MOL0     C 5499   4.871   8.520   2.330 -0.8047  0.1138  0.1814
  800MOL0     C 5500   4.944   8.497   2.212 -0.7827 -0.4292 -0.0853
  800MOL0     C 5501   4.950   8.367   2.158 -0.2693 -0.5771  0.2198
  800MOL0     C 5502   4.860   8.273   2.205 -0.3474  0.7700  0.1485
  800MOL0     O 5503   4.879   8.159   2.123 -0.1075 -0.6573  0.4770
  800MOL0     C 5504   4.825   8.044   2.167 -0.1612  0.1903  0.0404
  800MOL0     C 5505   4.918   7.929   2.114 -0.0891  0.5323 -0.0769
  800MOL0     C 5506   4.874   7.811   2.205  0.5171  0.9327 -0.4473
  800MOL0     C 5507   4.931   7.673   2.169  0.3729 -0.6106  0.1817
  800MOL0     C 5508   4.860   7.567   2.255 -0.0235  0.0852 -0.5144
  800MOL0     C 5509   4.919   7.433   2.213  0.0706 -0.7453 -1.0351
  800MOL0     C 5510   4.861   7.325   2.309 -0.1125 -0.3910 -0.1598
  800MOL0     C 5511   4.949   7.202   2.312 -0.2755 -0.1384 -0.3213
  800MOL0    Cl 5512   5.100   7.231   2.413 -0.0538 -0.5154 -0.0577
  800MOL0     C 5513   4.776   8.299   2.312 -0.3165 -0.8211  0.7011
  800MOL0     C 5514   4.789   8.421   2.384 -0.3928 -0.4568 -0.0571
  800MOL0     O 5515   4.936   8.588   2.583 -0.5962 -0.0883  0.0393
  800MOL0     C 5516   4.817   8.823   2.687 -0.5411 -0.3975  0.6463
  800MOL0     C 5517   4.748   8.938   2.723  0.4380  1.1199  0.5856
  800MOL0     N 5518   4.509   9.759   2.648  0.8559 -0.4757  0.1113
  800MOL0     N 5519   4.394   9.808   2.591 -0.0752 -0.1957 -0.3965
  800MOL0     C 5520   3.288   9.522   2.263 -0.6668 -0.0226 -0.0525
  800MOL0     C 5521   3.183   9.440   2.305 -0.5216  0.1574 -0.0259
  800MOL0     C 5522   2.957   9.166   2.584  0.0803  0.3186 -0.3814
  800MOL0     C 5523   2.835   9.219   2.619 -0.8592  0.0169  0.4101
  800MOL0     C 5524   2.747   9.138   2.689  0.0553  0.0824  0.0763
  800MOL0     C 5525   2.779   9.013   2.737  0.2446  0.5456 -0.3328
  800MOL0     O 5526   2.679   8.936   2.793 -0.3001  0.0911  0.1189
  800MOL0     C 5527   2.722   8.867   2.912 -0.0995  0.1205 -0.0713
  800MOL0     C 5528   2.615   8.880   3.013 -0.0571 -0.0247 -0.4214
  800MOL0     C 5529   2.633   9.011   3.091  1.2503 -0.1339 -0.2679
  800MOL0     C 5530   2.528   9.041   3.204 -0.4054  1.0308  0.5729
  800MOL0     C 5531   2.482   8.922   3.286  0.3836  1.2796  0.7001
  800MOL0     C 5532   2.431   8.836   3.358  0.1109 -0.7360  0.5568
  800MOL0     C 5533   2.902   8.962   2.694 -0.8527 -0.3909 -0.7461
  800MOL0     C 5534   2.992   9.035   2.624  0.1570 -0.1701  0.0828
  800MOL0     H 5535   3.021   9.631   2.528 -1.0059  0.6589 -1.2889
  800MOL0     H 5536   3.163   9.804   2.425 -0.1510 -0.5166 -1.0329
  800MOL0     H 5537   3.301   9.926   2.358 -0.3332 -0.2550 -1.7206
  800MOL0     H 5538   3.449   9.947   2.267 -0.3791  0.3203 -0.8502
  800MOL0     H 5539   3.428   9.783   2.517 -1.4572 -0.9213 -1.1428
  800MOL0     H 5540   3.496   9.953   2.502  2.2873  0.3687 -0.1106
  800MOL0     H 5541   3.682   9.881   2.382 -1.7597  1.7119 -0.9491
  800MOL0     H 5542   3.629   9.705   2.376 -2.3987  0.6118 -0.4410
  800MOL0     H 5543   3.711   9.883   2.614  1.2625 -0.2169 -0.9968
  800MOL0     H 5544   3.646   9.721   2.627  1.0713 -0.4660  0.6119
  800MOL0     H 5545   3.899   9.738   2.452  0.7846 -1.4139 -0.3141
  800MOL0     H 5546   3.808   9.609   2.534 -0.4202  0.1435  0.6232
  800MOL0     H 5547   3.849   9.644   2.725 -2.2659 -1.8699 -3.4490
  800MOL0     H 5548   3.900   9.821   2.729  1.0286  0.2470  0.0278
  800MOL0     H 5549   4.078   9.637   2.771  4.2156  3.2561  1.1398
  800MOL0     H 5550   4.065   9.602   2.597  0.7983 -0.9370  0.7494
  800MOL0     H 5551   4.124   9.867   2.724 -0.2520 -0.5738  0.4049
  800MOL0     H 5552   4.119   9.841   2.552  0.8108  4.4132  1.3827
  800MOL0     H 5553   4.281   9.589   2.807  0.3792 -2.5889 -1.6104
  800MOL0     H 5554   4.504   9.543   2.890  1.8675 -1.4113  0.9156
  800MOL0     H 5555   4.646   9.627   2.836  0.0019  1.4614 -1.2869
  800MOL0     H 5556   4.684   9.466   2.645  0.1393 -0.1927  0.6830
  800MOL0     H 5557   4.525   9.400   2.667  0.3806 -3.4445  0.6759
  800MOL0     H 5558   4.725   9.395   2.891 -1.6069  3.5135 -1.3232
  800MOL0     H 5559   4.572   9.303   2.867  0.4697 -0.2273  0.9620
  800MOL0     H 5560   4.805   9.156   2.830  0.5580  1.5166 -0.7029
  800MOL0     H 5561   4.837   9.264   2.709  0.7631  0.3168  0.8431
  800MOL0     H 5562   4.723   9.108   2.428 -2.7131 -1.0359 -0.5951
  800MOL0     H 5563   4.830   8.886   2.349 -0.4578 -1.0067 -0.2947
  800MOL0     H 5564   5.010   8.572   2.169 -1.0854 -0.9267 -1.4814
  800MOL0     H 5565   5.016   8.355   2.073 -0.3124  0.2203  0.0658
  800MOL0     H 5566   4.723   8.028   2.133 -1.3926  2.2453  2.4341
  800MOL0     H 5567   4.813   8.040   2.276 -2.6047 -2.0924 -0.2086
  800MOL0     H 5568   5.025   7.937   2.135  0.4562 -1.2917 -1.9439
  800MOL0     H 5569   4.906   7.905   2.008  3.5192 -4.5335  0.2972
  800MOL0     H 5570   4.766   7.799   2.197  0.5054  0.6805  0.0386
  800MOL0     H 5571   4.886   7.829   2.312 -0.4681 -0.7119 -0.0141
  800MOL0     H 5572   4.900   7.655   2.066  3.0303  0.1896 -0.8551
  800MOL0     H 5573   5.040   7.675   2.174  0.3550  1.7174  0.9721
  800MOL0     H 5574   4.751   7.565   2.246  0.1564 -0.4345 -4.0479
  800MOL0     H 5575   4.892   7.591   2.357 -0.0289  3.7479 -1.2385
  800MOL0     H 5576   5.025   7.441   2.237 -0.3961  0.3874  0.8567
  800MOL0     H 5577   4.917   7.420   2.104 -0.2869  1.6974 -1.3636
  800MOL0     H 5578   4.859   7.370   2.409  4.3440  3.0726 -1.2714
  800MOL0     H 5579   4.759   7.302   2.275  0.3543 -0.9227 -1.2145
  800MOL0     H 5580   4.975   7.168   2.212  2.8864  2.2784 -0.4832
  800MOL0     H 5581   4.890   7.125   2.363 -3.2791  1.7033 -0.8188
  800MOL0     H 5582   4.719   8.216   2.354 -2.7572  0.8437  0.8597
  800MOL0     H 5583   4.730   8.440   2.474  2.3136  0.1427  1.7132
  800MOL0     H 5584   4.844   8.752   2.764 -0.5641 -2.3314 -1.0305
  800MOL0     H 5585   4.725   8.950   2.829 -2.2730  0.5458  0.1407
  800MOL0     H 5586   3.379   9.486   2.217 -1.1104 -1.7581  0.3780
  800MOL0     H 5587   3.190   9.342   2.259  1.1954  1.5713 -3.0398
  800MOL0     H 5588   2.810   9.321   2.590  3.7471  0.3915 -3.8456
  800MOL0     H 5589   2.657   9.186   2.727 -2.2621 -0.7523 -3.8507
  800MOL0     H 5590   2.803   8.931   2.949  0.1628 -0.3016  0.0957
  800MOL0     H 5591   2.759   8.768   2.886  4.1695  1.2383  0.8590
  800MOL0     H 5592   2.512   8.875   2.977 -1.2263  0.6204  2.5147
  800MOL0     H 5593   2.631   8.799   3.085 -0.3550  1.8345  1.8579
  800MOL0     H 5594   2.616   9.093   3.020 -1.0560  1.4024  1.8547
  800MOL0     H 5595   2.731   9.004   3.140  0.7226 -0.1980  0.8178
  800MOL0     H 5596   2.546   9.114   3.283 -1.5883 -0.2364  2.0847
  800MOL0     H 5597   2.444   9.073   3.142 -0.3794 -2.2261 -1.4066
  800MOL0     H 5598   2.385   8.761   3.419 -0.7240 -0.7051 -0.0193
  800MOL0     H 5599   2.916   8.859   2.726 -7.2304 -1.4493 -0.0440
  800MOL0     H 5600   3.079   8.988   2.579 -0.6896 -0.5152 -1.2534
  801MOL0     O 5601   4.221  11.442   7.517  0.9318 -0.1256 -0.0982
  801MOL0     C 5602   4.148  11.376   7.454  0.2443 -0.3678  0.9448
  801MOL0     O 5603   4.172  11.255   7.401  0.2608  0.2253  0.3417
  801MOL0     C 5604   4.307  11.223   7.397 -0.0285  1.4413 -0.6727
  801MOL0     C 5605   4.373  11.245   7.278 -0.4636  0.0372 -0.5174
  801MOL0     C 5606   4.515  11.207   7.275  0.4018  0.5273  0.2692
  801MOL0     C 5607   4.572  11.137   7.389  0.3549 -1.2530 -0.3685
  801MOL0     O 5608   4.702  11.101   7.407  0.4419 -0.3223  0.7645
  801MOL0     C 5609   4.764  11.060   7.282  0.0868 -0.2883 -0.1200
  801MOL0     C 5610   4.914  11.014   7.297 -0.1951 -0.6442  0.1505
  801MOL0     C 5611   5.005  11.136   7.347 -0.9561 -0.0430 -0.0577
  801MOL0     C 5612   5.144  11.088   7.386  0.6332 -0.9317 -0.5695
  801MOL0     C 5613   5.262  11.167   7.323  0.8971 -0.5521  1.1833
  801MOL0     C 5614   5.389  11.095   7.356  0.2970 -0.5986 -0.8539
  801MOL0     C 5615   5.508  11.170   7.294  0.2444 -0.0445  0.9401
  801MOL0     C 5616   5.581  11.267   7.401  0.6261 -0.0292  0.2259
  801MOL0     N 5617   5.505  11.397   7.416 -0.5138 -0.0054 -0.3489
  801MOL0     C 5618   5.475  11.463   7.536 -0.0242  0.7845  0.2113
  801MOL0     C 5619   5.416  11.576   7.494 -0.8019 -0.8334  0.1135
  801MOL0     C 5620   5.340  11.675   7.584  0.0687  1.3039  0.9868
  801MOL0     C 5621   5.199  11.614   7.616 -0.8310 -0.1884 -0.6820
  801MOL0     C 5622   5.133  11.543   7.494 -0.4220 -0.5445 -0.3192
  801MOL0     C 5623   4.976  11.510   7.522 -0.3728  0.7869  0.3615
  801MOL0     O 5624   4.972  11.419   7.631  0.1661  0.2703  0.0802
  801MOL0     C 5625   4.857  11.377   7.688  1.4458 -0.4253 -0.2357
  801MOL0     C 5626   4.846  11.335   7.826 -0.2026 -0.8116 -0.3776
  801MOL0     C 5627   4.728  11.309   7.892  0.5060  0.1479 -0.2191
  801MOL0     C 5628   4.606  11.328   7.825  0.0568 -0.8971  0.5054
  801MOL0     C 5629   4.469  11.310   7.890 -0.5597 -0.1164 -0.1510
  801MOL0     O 5630   4.357  11.342   7.817  0.0499 -0.0680  0.5571
  801MOL0     C 5631   4.233  11.344   7.881 -0.6205 -0.5265  0.4616
  801MOL0     C 5632   4.210  11.396   8.008  0.1945 -0.9097  0.0573
  801MOL0     C 5633   4.079  11.397   8.054  0.5486  0.2199 -0.1063
  801MOL0     C 5634   3.970  11.329   7.979 -0.7039 -0.0083  0.1432
  801MOL0     O 5635   3.837  11.342   8.007 -0.3118 -0.2292  0.1283
  801MOL0     C 5636   3.788  11.457   8.071 -0.0338  0.2284  0.1623
  801MOL0     C 5637   3.636  11.452   8.063 -0.0878  0.9427  0.1737
  801MOL0     C 5638   3.581  11.369   8.186  0.7824  0.5730 -0.4423
  801MOL0     C 5639   3.431  11.340   8.174  0.1577  0.5178 -0.1320
  801MOL0     C 5640   3.391  11.248   8.290  0.0959  0.0749  0.3210
  801MOL0     C 5641   3.251  11.185   8.268 -0.0676 -0.1858 -0.2681
  801MOL0     C 5642   3.147  11.295   8.273 -0.3332 -0.5466  0.1934
  801MOL0     C 5643   3.000  11.243   8.307 -0.5849  0.1723  0.0938
  801MOL0    Cl 5644   2.907  11.398   8.309  0.0355  0.0471  0.3448
  801MOL0     C 5645   4.002  11.275   7.858 -0.5196 -0.3533 -0.7647
  801MOL0     C 5646   4.133  11.287   7.808 -0.4970 -0.2189 -0.0261
  801MOL0     O 5647   4.464  11.259   7.999 -1.0291  0.2779  0.0603
  801MOL0     C 5648   4.603  11.374   7.694 -1.0943 -0.6326 -0.0587
  801MOL0     C 5649   4.729  11.401   7.626 -0.3332  0.5245 -0.8509
  801MOL0     N 5650   5.403  11.580   7.352  0.5160 -0.2093 -0.5120
  801MOL0     N 5651   5.467  11.471   7.310 -0.0633  0.3622  0.4545
  801MOL0     C 5652   4.497  11.119   7.496  0.3042  0.8504  0.5841
  801MOL0     C 5653   4.363  11.145   7.501  0.2124 -0.6078 -0.2534
  801MOL0     C 5654   4.013  11.433   7.420  0.8823 -0.2558 -0.6962
  801MOL0     C 5655   3.944  11.405   7.301  0.3742 -0.1044 -0.1266
  801MOL0     C 5656   3.824  11.467   7.275 -0.6702  0.5099  0.1117
  801MOL0     C 5657   3.767  11.565   7.359  0.3135  0.2358 -0.2598
  801MOL0     O 5658   3.664  11.649   7.319 -1.0718  0.0072 -0.8177
  801MOL0     C 5659   3.530  11.610   7.348  0.8311 -0.1251 -0.9773
  801MOL0     C 5660   3.480  11.682   7.466  0.4905  0.4217  0.6587
  801MOL0     C 5661   3.389  11.791   7.408 -0.5461 -0.7305  0.0599
  801MOL0     C 5662   3.349  11.900   7.519  0.0489  0.1535 -0.2463
  801MOL0     C 5663   3.449  12.004   7.529  0.1966 -0.1662 -0.9580
  801MOL0     C 5664   3.535  12.091   7.539  0.4936 -0.2349 -0.0702
  801MOL0     C 5665   3.836  11.586   7.469 -0.4169 -0.6197  0.6204
  801MOL0     C 5666   3.960  11.531   7.505 -0.5758 -0.2452 -0.6431
  801MOL0     H 5667   4.328  11.301   7.197  0.2186 -0.2609 -1.1204
  801MOL0     H 5668   4.560  11.226   7.179 -0.4600  0.6844 -0.1072
  801MOL0     H 5669   4.772  11.153   7.224 -0.5184 -0.4976 -0.5543
  801MOL0     H 5670   4.701  10.996   7.220 -1.3031  1.6512 -0.8333
  801MOL0     H 5671   4.965  10.969   7.212  1.9212 -0.9611  1.5162
  801MOL0     H 5672   4.920  10.933   7.371 -3.5405 -0.0796  1.2459
  801MOL0     H 5673   4.968  11.180   7.440  1.5543 -0.7111  1.3657
  801MOL0     H 5674   5.008  11.222   7.279 -0.5118 -0.9924 -1.2698
  801MOL0     H 5675   5.156  11.093   7.495 -0.7992 -0.6244 -0.3959
  801MOL0     H 5676   5.144  10.988   7.342 -3.8709 -0.9042 -1.0995
  801MOL0     H 5677   5.257  11.273   7.346 -1.3065 -0.8545  2.4592
  801MOL0     H 5678   5.248  11.160   7.215 -0.4782 -2.3619  1.4135
  801MOL0     H 5679   5.391  10.991   7.323  0.4613 -0.6869 -0.5732
  801MOL0     H 5680   5.414  11.083   7.462  4.5220 -1.4627 -1.7700
  801MOL0     H 5681   5.572  11.090   7.258 -0.2946  0.3000 -0.8956
  801MOL0     H 5682   5.471  11.221   7.204 -0.2271 -0.6738  0.7675
  801MOL0     H 5683   5.686  11.292   7.382  1.4803 -0.1807  3.9841
  801MOL0     H 5684   5.575  11.230   7.503  0.7285  2.7642  1.3569
  801MOL0     H 5685   5.479  11.436   7.641 -1.0782 -1.1093 -0.1939
  801MOL0     H 5686   5.337  11.760   7.515 -3.1810 -0.2036 -1.0021
  801MOL0     H 5687   5.397  11.687   7.676 -0.6337  1.5314  1.4060
  801MOL0     H 5688   5.137  11.697   7.650  0.2506 -0.3891  2.0049
  801MOL0     H 5689   5.203  11.531   7.688 -1.3543 -3.8896 -4.4956
  801MOL0     H 5690   5.140  11.606   7.405 -0.8312 -0.0201  0.0062
  801MOL0     H 5691   5.191  11.454   7.468 -0.1371 -1.0356  1.8176
  801MOL0     H 5692   4.918  11.493   7.431 -0.5446  4.8246 -0.4368
  801MOL0     H 5693   4.932  11.607   7.546  2.1882  1.9246  0.7790
  801MOL0     H 5694   4.935  11.318   7.886  0.8407 -2.2078 -2.2068
  801MOL0     H 5695   4.720  11.271   7.994 -1.8385 -1.0436 -0.7736
  801MOL0     H 5696   4.288  11.438   8.071  1.8131 -2.0302 -1.1245
  801MOL0     H 5697   4.060  11.453   8.145 -4.0943  1.9566 -1.8346
  801MOL0     H 5698   3.817  11.545   8.012 -0.8685  1.0673  0.9744
  801MOL0     H 5699   3.824  11.461   8.174 -0.0360 -1.5323  0.2691
  801MOL0     H 5700   3.610  11.403   7.969  0.2735 -0.4734  0.7830
  801MOL0     H 5701   3.608  11.558   8.065  1.1426  1.2889 -0.1495
  801MOL0     H 5702   3.604  11.424   8.278  1.8249 -1.8618  0.8508
  801MOL0     H 5703   3.635  11.274   8.190 -0.0946  0.0752 -0.3692
  801MOL0     H 5704   3.362  11.425   8.174 -0.5758 -0.0033 -2.3966
  801MOL0     H 5705   3.406  11.293   8.078  1.3983  0.2489 -0.3307
  801MOL0     H 5706   3.404  11.298   8.386  1.0881 -1.0019  0.7817
  801MOL0     H 5707   3.466  11.168   8.287  0.7746  0.7250 -1.0979
  801MOL0     H 5708   3.232  11.107   8.341 -1.7014  2.1816  2.0354
  801MOL0     H 5709   3.250  11.131   8.173 -0.6661  0.1338 -0.4526
  801MOL0     H 5710   3.180  11.369   8.346 -1.3799 -1.1669  1.3307
  801MOL0     H 5711   3.147  11.333   8.171  3.1584 -2.1429 -0.5681
  801MOL0     H 5712   2.994  11.193   8.404 -0.6246 -2.5329 -1.2267
  801MOL0     H 5713   2.984  11.165   8.232  3.0775 -1.3137  0.6368
  801MOL0     H 5714   3.931  11.236   7.786 -0.5840 -2.5749  0.4039
  801MOL0     H 5715   4.153  11.236   7.715 -0.6709 -4.1753  1.8904
  801MOL0     H 5716   4.511  11.393   7.639 -1.2209 -2.7667 -0.6699
  801MOL0     H 5717   4.723  11.444   7.526  3.2759  1.2940 -0.8624
  801MOL0     H 5718   4.530  11.073   7.588  0.7264 -2.6997 -1.1687
  801MOL0     H 5719   4.320  11.125   7.599 -1.6784  0.5800 -0.7945
  801MOL0     H 5720   3.999  11.353   7.223  1.7557 -1.0361  1.3956
  801MOL0     H 5721   3.776  11.437   7.182 -1.1761  1.9209 -0.1209
  801MOL0     H 5722   3.522  11.503   7.370  0.2708  0.6118  3.1243
  801MOL0     H 5723   3.480  11.636   7.255  1.1104  1.5520 -0.6839
  801MOL0     H 5724   3.412  11.623   7.527 -0.7888  1.9088  0.7484
  801MOL0     H 5725   3.559  11.727   7.527  1.3055  1.8562 -1.3176
  801MOL0     H 5726   3.304  11.750   7.353 -0.0477  0.2112 -1.4882
  801MOL0     H 5727   3.437  11.857   7.335  0.8624 -1.2725  0.4594
  801MOL0     H 5728   3.249  11.943   7.510  0.4807  1.0024 -1.1762
  801MOL0     H 5729   3.338  11.859   7.620  3.5194  1.8200  0.9295
  801MOL0     H 5730   3.600  12.175   7.548 -0.0296  0.0450  1.5718
  801MOL0     H 5731   3.815  11.680   7.518  2.5695  1.3866 -1.5453
  801MOL0     H 5732   4.017  11.565   7.591  2.3800 -0.2477 -2.4250
  802MOL0     O 5733   5.328   6.235   3.317 -0.2422 -0.2997  0.2294
  802MOL0     C 5734   5.216   6.210   3.281  0.1761 -0.4485  0.6397
  802MOL0     O 5735   5.109   6.276   3.323 -0.3974  0.3847 -0.4075
  802MOL0     C 5736   5.113   6.390   3.399 -0.4460  0.3231 -0.0088
  802MOL0     C 5737   5.199   6.400   3.512  0.7270  0.2004  0.0518
  802MOL0     C 5738   5.228   6.521   3.568  0.6872 -0.0438  0.0253
  802MOL0     C 5739   5.151   6.635   3.525  0.0494 -0.4410  0.2002
  802MOL0     O 5740   5.183   6.761   3.582 -0.5589  0.7212 -0.8220
  802MOL0     C 5741   5.146   6.888   3.523  0.0994 -1.3257 -1.1034
  802MOL0     C 5742   5.156   7.010   3.620 -1.0253  0.0007  0.3461
  802MOL0     C 5743   5.280   7.026   3.708  0.2208 -0.1809 -0.4682
  802MOL0     C 5744   5.416   7.028   3.636 -0.0348 -0.0643  0.0780
  802MOL0     C 5745   5.513   6.930   3.712 -0.2896  1.1753 -0.5547
  802MOL0     C 5746   5.656   6.956   3.692  0.2968 -0.2601  0.2483
  802MOL0     C 5747   5.746   6.849   3.760 -0.2374  0.0078 -0.1763
  802MOL0     C 5748   5.728   6.853   3.911 -0.5053  0.3973  0.1734
  802MOL0     N 5749   5.851   6.796   3.984 -0.0414 -0.4122  0.3071
  802MOL0     C 5750   5.916   6.691   3.940 -0.5220  0.0079 -0.0566
  802MOL0     C 5751   5.991   6.648   4.035 -0.4236 -0.8435  0.0509
  802MOL0     C 5752   6.074   6.519   4.036  0.5225  0.1329  0.7941
  802MOL0     C 5753   6.019   6.392   4.122 -0.6000 -0.3003 -0.6491
  802MOL0     C 5754   6.003   6.254   4.043 -0.0204  0.8606 -0.0836
  802MOL0     C 5755   5.939   6.155   4.150  0.0926 -0.3261  1.4991
  802MOL0     O 5756   5.884   6.047   4.071 -0.0667 -0.2578 -0.4611
  802MOL0     C 5757   5.946   5.934   4.114 -0.6945  0.9918 -0.4290
  802MOL0     C 5758   5.896   5.847   4.213  0.3221  0.5285  0.3941
  802MOL0     C 5759   5.968   5.730   4.247 -0.1674  0.6092 -1.0142
  802MOL0     C 5760   6.097   5.710   4.201 -0.2042  0.5534 -0.3572
  802MOL0     C 5761   6.180   5.599   4.262 -0.1180 -0.3121  0.1698
  802MOL0     O 5762   6.125   5.523   4.358  0.1356 -0.1131 -0.1969
  802MOL0     C 5763   6.196   5.420   4.416  0.4256  0.6598  0.2341
  802MOL0     C 5764   6.196   5.406   4.554  0.0835 -0.6839  0.6126
  802MOL0     C 5765   6.278   5.306   4.616  0.5251 -0.0879 -1.0145
  802MOL0     C 5766   6.350   5.218   4.540 -0.8080  0.7369 -0.2225
  802MOL0     O 5767   6.417   5.112   4.597 -0.4164  0.1091 -0.1839
  802MOL0     C 5768   6.488   5.135   4.729 -0.4676  1.2705  0.8906
  802MOL0     C 5769   6.581   5.007   4.746  0.5487 -2.0427  0.0571
  802MOL0     C 5770   6.514   4.886   4.799  0.0371 -0.2640  0.4395
  802MOL0     C 5771   6.611   4.761   4.806  0.3417  0.6481  0.3069
  802MOL0     C 5772   6.526   4.644   4.859 -0.1706 -0.0447  0.6307
  802MOL0     C 5773   6.612   4.525   4.874  0.2411  0.2040  0.3990
  802MOL0     C 5774   6.536   4.404   4.951 -0.7628  0.0096 -0.4558
  802MOL0     C 5775   6.501   4.287   4.867  0.9762  0.3017  0.3011
  802MOL0    Cl 5776   6.374   4.338   4.742  0.3098  0.1500 -0.0336
  802MOL0     C 5777   6.347   5.231   4.401  0.9500 -0.0585  0.0865
  802MOL0     C 5778   6.265   5.328   4.339  0.0307 -0.0290 -0.9087
  802MOL0     O 5779   6.288   5.577   4.207  0.9643  0.4712  0.2108
  802MOL0     C 5780   6.148   5.802   4.105  0.7590 -0.5848  0.3918
  802MOL0     C 5781   6.066   5.910   4.062 -0.6418 -0.1598 -0.4074
  802MOL0     N 5782   5.967   6.740   4.143 -0.2500  0.4347  0.1173
  802MOL0     N 5783   5.878   6.825   4.110 -1.0568 -0.6898 -0.0619
  802MOL0     C 5784   5.051   6.627   3.429  0.0197  0.7660 -0.9399
  802MOL0     C 5785   5.037   6.502   3.362  0.6263  0.0852 -0.0782
  802MOL0     C 5786   5.213   6.088   3.200  0.0146  0.6718  0.3405
  802MOL0     C 5787   5.334   6.027   3.151  0.7345 -0.6900  0.3641
  802MOL0     C 5788   5.325   5.913   3.064  0.0724  0.5939 -0.1549
  802MOL0     C 5789   5.202   5.869   3.023  1.3319 -0.7002  0.0100
  802MOL0     O 5790   5.196   5.775   2.925  0.2680 -0.1673 -0.3270
  802MOL0     C 5791   5.075   5.769   2.850 -0.6335 -0.3107 -0.0127
  802MOL0     C 5792   5.101   5.672   2.740 -0.1995  0.4528  1.0936
  802MOL0     C 5793   5.197   5.735   2.631 -0.3130  0.5401 -0.2331
  802MOL0     C 5794   5.263   5.642   2.539  0.6370  0.6303  1.1023
  802MOL0     C 5795   5.178   5.547   2.474  0.0693  0.4309  0.8631
  802MOL0     C 5796   5.089   5.471   2.435 -0.0420 -0.2732 -0.5754
  802MOL0     C 5797   5.089   5.938   3.074  0.3799 -0.8723  0.3219
  802MOL0     C 5798   5.094   6.043   3.164 -0.4385 -0.0737  0.2842
  802MOL0     H 5799   5.254   6.314   3.548  0.6812 -0.8906 -2.3227
  802MOL0     H 5800   5.309   6.540   3.638 -1.0466 -0.5953  2.2962
  802MOL0     H 5801   5.049   6.889   3.472  0.3774  0.2723 -1.6523
  802MOL0     H 5802   5.228   6.900   3.451  1.1762 -0.5943  0.2150
  802MOL0     H 5803   5.077   6.999   3.694 -1.1573  0.1409  0.2276
  802MOL0     H 5804   5.138   7.110   3.579 -1.2790 -0.2547 -0.1831
  802MOL0     H 5805   5.285   6.946   3.783 -1.9658 -0.6267 -0.7182
  802MOL0     H 5806   5.265   7.117   3.767  0.5351 -0.2956 -0.2096
  802MOL0     H 5807   5.412   6.998   3.531 -2.3222  0.4044 -0.0278
  802MOL0     H 5808   5.464   7.127   3.639 -0.3519  0.0753  0.7616
  802MOL0     H 5809   5.488   6.826   3.688  1.7798  1.2932 -3.9006
  802MOL0     H 5810   5.496   6.939   3.820 -0.1879 -3.0283 -0.0038
  802MOL0     H 5811   5.679   7.060   3.719 -0.3699 -0.3782  1.3170
  802MOL0     H 5812   5.681   6.959   3.586  2.2773  1.6890  0.6797
  802MOL0     H 5813   5.722   6.748   3.724 -0.9079 -0.1695  0.7235
  802MOL0     H 5814   5.851   6.867   3.740  0.3746 -0.9419  1.8839
  802MOL0     H 5815   5.633   6.807   3.938 -0.6639 -0.5941 -1.8780
  802MOL0     H 5816   5.711   6.952   3.954 -3.0575 -1.2474  3.3836
  802MOL0     H 5817   5.904   6.641   3.844 -1.1638 -0.0611  0.0587
  802MOL0     H 5818   6.180   6.542   4.054 -0.1890  2.5565  2.4034
  802MOL0     H 5819   6.060   6.488   3.932 -0.0236  3.7616 -0.3699
  802MOL0     H 5820   5.934   6.416   4.185 -1.7981 -2.6859 -1.2269
  802MOL0     H 5821   6.098   6.355   4.189 -1.2301 -1.5677 -0.5767
  802MOL0     H 5822   5.944   6.271   3.952  0.3167 -0.3266 -0.5476
  802MOL0     H 5823   6.095   6.208   4.005  0.4164  0.1398  1.7493
  802MOL0     H 5824   5.856   6.211   4.195 -0.4034  0.8743 -0.7474
  802MOL0     H 5825   6.016   6.130   4.224  1.7376 -0.4472 -0.1833
  802MOL0     H 5826   5.796   5.863   4.252  0.7671 -2.2848  2.9772
  802MOL0     H 5827   5.919   5.656   4.309  0.5132  0.8468 -0.1764
  802MOL0     H 5828   6.129   5.468   4.613  2.1498  1.8861  0.4428
  802MOL0     H 5829   6.262   5.285   4.721 -1.0281 -1.5703 -1.4990
  802MOL0     H 5830   6.425   5.150   4.817 -1.9397  2.2201 -0.2755
  802MOL0     H 5831   6.553   5.219   4.700 -0.8904  0.1335 -4.4087
  802MOL0     H 5832   6.653   5.043   4.820 -0.9734 -1.3433  1.2520
  802MOL0     H 5833   6.629   4.998   4.648 -1.3488  0.9942 -1.3165
  802MOL0     H 5834   6.422   4.858   4.747  1.3774 -3.2319 -0.5457
  802MOL0     H 5835   6.479   4.911   4.899  0.2136  0.2912  0.3620
  802MOL0     H 5836   6.647   4.727   4.708  2.0802  0.6239  0.9141
  802MOL0     H 5837   6.694   4.764   4.877 -0.2160  1.4427  0.9340
  802MOL0     H 5838   6.436   4.621   4.802 -1.8762  1.1214  2.7101
  802MOL0     H 5839   6.499   4.679   4.959  1.6734  1.8764  0.5216
  802MOL0     H 5840   6.710   4.552   4.915  1.5101  0.2265 -2.3831
  802MOL0     H 5841   6.631   4.496   4.770  2.2948  0.8753  0.5340
  802MOL0     H 5842   6.586   4.371   5.042 -0.1453 -1.8299 -1.4213
  802MOL0     H 5843   6.440   4.445   4.983  0.8482  1.9394  2.3469
  802MOL0     H 5844   6.449   4.219   4.935 -3.9984  0.4393 -2.8993
  802MOL0     H 5845   6.586   4.246   4.812 -1.0498 -0.8535 -2.1298
  802MOL0     H 5846   6.410   5.178   4.330  2.8077  0.5627  1.1889
  802MOL0     H 5847   6.266   5.334   4.231  1.8179  1.3342 -0.8506
  802MOL0     H 5848   6.250   5.795   4.069  2.1153 -0.4158  3.8314
  802MOL0     H 5849   6.125   5.964   3.989  0.0198 -0.6772 -0.2623
  802MOL0     H 5850   4.987   6.712   3.407 -1.2302 -0.1652 -1.0327
  802MOL0     H 5851   4.971   6.493   3.276 -0.5177 -0.1510  0.7952
  802MOL0     H 5852   5.430   6.070   3.175  0.6314 -1.5077  2.4400
  802MOL0     H 5853   5.404   5.852   3.020 -1.7626 -1.9338 -0.1745
  802MOL0     H 5854   5.039   5.860   2.802 -0.2104 -0.8308 -1.3689
  802MOL0     H 5855   5.004   5.722   2.919 -0.9793 -0.2274 -0.3106
  802MOL0     H 5856   5.150   5.583   2.782 -0.8845  0.6479  2.3582
  802MOL0     H 5857   5.016   5.641   2.678  1.7394  1.0083 -2.0632
  802MOL0     H 5858   5.271   5.801   2.676 -1.4172  2.6002 -1.2659
  802MOL0     H 5859   5.140   5.800   2.564 -1.4658 -1.3966 -1.2216
  802MOL0     H 5860   5.298   5.708   2.459 -2.3357  0.1640 -0.7552
  802MOL0     H 5861   5.354   5.603   2.584  0.0832 -0.0696  1.6484
  802MOL0     H 5862   5.018   5.401   2.396 -1.9107  1.5385 -0.6082
  802MOL0     H 5863   4.988   5.925   3.038  0.5773  0.7488 -0.9391
  802MOL0     H 5864   5.006   6.102   3.186  0.7228  2.4231 -1.3120
  803MOL0     O 5865   9.295   0.784   4.517  0.1197  1.5510 -0.0482
  803MOL0     C 5866   9.181   0.818   4.551 -0.1954  0.2801 -0.4570
  803MOL0     O 5867   9.117   0.929   4.507  0.3875  0.3554 -0.5048
  803MOL0     C 5868   9.174   1.014   4.417  0.3680  0.7886 -0.1273
  803MOL0     C 5869   9.093   1.060   4.308  1.3055  0.1203 -0.3852
  803MOL0     C 5870   9.146   1.145   4.211  1.0937 -0.5855 -0.2915
  803MOL0     C 5871   9.276   1.191   4.228  0.2555 -0.1080  0.5126
  803MOL0     O 5872   9.315   1.273   4.125  0.2493 -0.7584  0.0351
  803MOL0     C 5873   9.399   1.206   4.032  0.6104 -0.8401 -0.5752
  803MOL0     C 5874   9.357   1.248   3.889  0.3036 -0.4735  0.0454
  803MOL0     C 5875   9.453   1.190   3.789 -0.4029 -0.2830 -0.8211
  803MOL0     C 5876   9.399   1.224   3.652  0.5413  0.2889 -0.7133
  803MOL0     C 5877   9.476   1.144   3.543 -0.9216 -0.1961  0.5924
  803MOL0     C 5878   9.617   1.206   3.530  0.0748 -0.6205 -1.5700
  803MOL0     C 5879   9.711   1.154   3.425  0.0148  0.2353 -0.4897
  803MOL0     C 5880   9.657   1.161   3.286 -0.7867  0.3550 -0.0708
  803MOL0     N 5881   9.582   1.276   3.246  0.7822 -0.0919 -0.1188
  803MOL0     C 5882   9.465   1.262   3.180 -0.0251 -1.0219  0.5504
  803MOL0     C 5883   9.449   1.378   3.116  0.0482  0.0723  0.5482
  803MOL0     C 5884   9.350   1.420   3.021  0.6785 -0.2913  1.0954
  803MOL0     C 5885   9.213   1.413   3.089 -1.1069 -0.3585 -0.4815
  803MOL0     C 5886   9.213   1.501   3.222 -0.3200  0.4116 -0.4097
  803MOL0     C 5887   9.082   1.577   3.249 -0.1533 -0.1391  0.2238
  803MOL0     O 5888   9.025   1.629   3.126  0.1217 -0.6429  0.8919
  803MOL0     C 5889   9.090   1.709   3.034 -0.6009  0.9994  0.0790
  803MOL0     C 5890   9.047   1.721   2.905  0.0468  0.0824 -0.0654
  803MOL0     C 5891   9.120   1.788   2.803 -0.7611  0.4303  0.3730
  803MOL0     C 5892   9.241   1.846   2.838  0.7295  0.1844  1.4235
  803MOL0     C 5893   9.315   1.934   2.741  1.2432  0.4454 -0.1110
  803MOL0     O 5894   9.283   1.935   2.607  0.6961  0.4910  0.4345
  803MOL0     C 5895   9.354   2.022   2.531 -0.5230  0.2466 -0.4523
  803MOL0     C 5896   9.486   1.985   2.487 -0.4097 -0.0865 -0.3817
  803MOL0     C 5897   9.552   2.070   2.400 -0.1324 -0.5513  0.6454
  803MOL0     C 5898   9.500   2.201   2.378  0.2486  0.9977  0.4846
  803MOL0     O 5899   9.570   2.279   2.290  0.9844  0.3767 -0.2957
  803MOL0     C 5900   9.509   2.402   2.262 -0.7092  0.1124 -0.6210
  803MOL0     C 5901   9.614   2.485   2.177 -0.1175  0.5739 -0.3117
  803MOL0     C 5902   9.752   2.529   2.231  0.9243 -0.3894 -0.1915
  803MOL0     C 5903   9.829   2.610   2.126  0.0748 -0.9191  0.2020
  803MOL0     C 5904   9.966   2.658   2.170  0.5256  0.0234 -0.3838
  803MOL0     C 5905   9.955   2.757   2.288  0.6082  0.0567 -0.0210
  803MOL0     C 5906  10.098   2.813   2.309 -0.7885 -0.4585 -0.0546
  803MOL0     C 5907  10.122   2.918   2.419 -0.6312 -0.0863 -0.2165
  803MOL0    Cl 5908  10.294   2.978   2.424 -0.4724  0.0906 -0.2727
  803MOL0     C 5909   9.376   2.237   2.438 -0.8644  0.4762 -0.1909
  803MOL0     C 5910   9.300   2.148   2.506 -0.4678  1.5793 -0.2219
  803MOL0     O 5911   9.406   1.998   2.796 -0.1739  0.3722 -0.6415
  803MOL0     C 5912   9.273   1.843   2.974 -0.7858 -0.8925 -0.0747
  803MOL0     C 5913   9.205   1.772   3.069  0.1807  0.5834 -0.0798
  803MOL0     N 5914   9.544   1.471   3.159  0.2685  0.2450  0.4623
  803MOL0     N 5915   9.617   1.405   3.239  0.4593  0.1466 -0.7956
  803MOL0     C 5916   9.351   1.158   4.334 -0.4095 -0.1637  0.5754
  803MOL0     C 5917   9.299   1.073   4.434 -0.3031 -0.1743  0.2582
  803MOL0     C 5918   9.115   0.702   4.626 -0.2393 -0.4825  0.2577
  803MOL0     C 5919   9.188   0.588   4.676 -1.0887  0.2247 -0.3821
  803MOL0     C 5920   9.123   0.486   4.745  0.3330  1.2266  0.2396
  803MOL0     C 5921   8.985   0.487   4.760  0.2705  0.1158 -0.5393
  803MOL0     O 5922   8.931   0.380   4.828  0.1155  0.7399  0.4163
  803MOL0     C 5923   8.834   0.309   4.745 -0.0347 -0.0778 -0.2140
  803MOL0     C 5924   8.732   0.245   4.830  1.0739 -0.3282 -0.2508
  803MOL0     C 5925   8.636   0.340   4.903  0.2061  0.1333 -0.9732
  803MOL0     C 5926   8.537   0.279   4.994 -0.3516  0.7992 -0.2346
  803MOL0     C 5927   8.455   0.169   4.926  0.1037  0.2927 -0.9422
  803MOL0     C 5928   8.396   0.073   4.883 -0.2142  0.5356  0.8377
  803MOL0     C 5929   8.907   0.591   4.711 -0.8376 -0.7699  0.3547
  803MOL0     C 5930   8.969   0.706   4.653 -0.3148  0.5484  0.6327
  803MOL0     H 5931   8.986   1.039   4.311  0.3622  4.2030  1.0982
  803MOL0     H 5932   9.078   1.166   4.130 -0.8249 -0.7413  1.2190
  803MOL0     H 5933   9.389   1.097   4.043 -1.3213 -0.6529 -0.1979
  803MOL0     H 5934   9.498   1.245   4.057  1.2726 -2.5506 -0.3301
  803MOL0     H 5935   9.355   1.357   3.888  2.4140 -0.3983 -0.2957
  803MOL0     H 5936   9.256   1.211   3.870  0.3090  0.5830 -2.4305
  803MOL0     H 5937   9.453   1.080   3.794 -1.9205 -0.2431  0.8540
  803MOL0     H 5938   9.557   1.220   3.809 -0.4147 -1.7061  1.9499
  803MOL0     H 5939   9.297   1.187   3.646  1.2971 -1.7636 -2.0245
  803MOL0     H 5940   9.405   1.330   3.629 -0.9142  0.1609 -1.8061
  803MOL0     H 5941   9.430   1.160   3.445 -0.0627  2.0041  0.5072
  803MOL0     H 5942   9.478   1.035   3.557 -1.2139 -0.6104 -1.9823
  803MOL0     H 5943   9.681   1.184   3.616 -1.5180  0.3631 -0.0728
  803MOL0     H 5944   9.609   1.314   3.512  2.0246 -0.0283  0.5737
  803MOL0     H 5945   9.807   1.207   3.429 -0.3235  0.9335 -1.2335
  803MOL0     H 5946   9.740   1.053   3.456 -0.2538  0.7377  1.5363
  803MOL0     H 5947   9.589   1.075   3.284 -1.8347  1.1640 -2.1129
  803MOL0     H 5948   9.746   1.161   3.222 -0.7050 -0.6333  0.0258
  803MOL0     H 5949   9.391   1.182   3.180 -0.2280 -0.8337  0.5601
  803MOL0     H 5950   9.358   1.353   2.934  2.9679 -0.5432  1.4345
  803MOL0     H 5951   9.367   1.521   2.983  2.4188 -1.9077 -3.0109
  803MOL0     H 5952   9.192   1.310   3.120 -0.6270  0.4830  3.0021
  803MOL0     H 5953   9.135   1.445   3.018  0.4491  0.2936 -1.9638
  803MOL0     H 5954   9.223   1.442   3.314 -3.5661 -1.5798 -1.1844
  803MOL0     H 5955   9.297   1.571   3.220 -0.1130  0.2261  0.7450
  803MOL0     H 5956   9.096   1.662   3.317  4.1248  1.3510 -2.0933
  803MOL0     H 5957   9.003   1.517   3.295  0.1791  0.3811  1.5173
  803MOL0     H 5958   8.951   1.672   2.893 -0.3733 -0.1326  3.3438
  803MOL0     H 5959   9.075   1.794   2.705  1.9836 -0.6666 -1.0486
  803MOL0     H 5960   9.527   1.886   2.501 -1.2531 -1.0920 -4.0434
  803MOL0     H 5961   9.647   2.035   2.360 -0.9883 -1.0802 -1.0246
  803MOL0     H 5962   9.491   2.458   2.354  0.9616  0.5869 -0.5609
  803MOL0     H 5963   9.417   2.395   2.203 -0.4098 -2.0291 -0.8954
  803MOL0     H 5964   9.568   2.577   2.140 -1.6782  1.2197  2.8596
  803MOL0     H 5965   9.631   2.419   2.092 -0.5683  1.5702 -1.1858
  803MOL0     H 5966   9.803   2.433   2.248 -1.7606 -1.3892  3.4658
  803MOL0     H 5967   9.743   2.580   2.327  2.2972 -0.5125  0.0187
  803MOL0     H 5968   9.859   2.547   2.042 -0.7396  1.3570 -1.8809
  803MOL0     H 5969   9.776   2.703   2.105  1.7165  1.1150  4.0447
  803MOL0     H 5970  10.024   2.694   2.085  1.5970  0.0087  0.3154
  803MOL0     H 5971  10.022   2.572   2.208  0.0232 -0.2396 -0.2317
  803MOL0     H 5972   9.927   2.710   2.383  0.9801  0.9452  0.5391
  803MOL0     H 5973   9.872   2.829   2.281 -1.3780 -2.2183 -5.3196
  803MOL0     H 5974  10.183   2.746   2.323  3.0453  4.2163  2.1939
  803MOL0     H 5975  10.129   2.857   2.213 -0.7665  1.4746  0.7947
  803MOL0     H 5976  10.116   2.866   2.514  1.1501 -3.1492 -1.6264
  803MOL0     H 5977  10.046   2.997   2.408 -0.3939 -0.0396 -1.8268
  803MOL0     H 5978   9.327   2.331   2.413 -1.9501  0.2590  1.0183
  803MOL0     H 5979   9.201   2.158   2.550 -0.9885 -2.6486 -0.0452
  803MOL0     H 5980   9.377   1.868   2.994 -0.6375 -0.5025 -1.2829
  803MOL0     H 5981   9.253   1.769   3.166 -0.4121 -3.4420  0.2590
  803MOL0     H 5982   9.454   1.187   4.352 -0.2886 -1.7728  3.0033
  803MOL0     H 5983   9.357   1.047   4.523  2.1777 -0.3181 -1.3045
  803MOL0     H 5984   9.296   0.586   4.665 -1.2302  0.6604 -2.0380
  803MOL0     H 5985   9.177   0.400   4.783 -0.7515  0.6273  0.4756
  803MOL0     H 5986   8.898   0.241   4.689  1.5831  0.1915  1.2207
  803MOL0     H 5987   8.785   0.375   4.673  1.7451  2.9370  1.1247
  803MOL0     H 5988   8.666   0.180   4.772  0.7335 -0.2852  0.0822
  803MOL0     H 5989   8.781   0.183   4.906  3.5182  1.8362  0.0744
  803MOL0     H 5990   8.585   0.415   4.841  0.2101  0.1843 -0.9156
  803MOL0     H 5991   8.708   0.406   4.954  0.6474 -1.2771  0.2947
  803MOL0     H 5992   8.597   0.239   5.077  0.6420 -0.8705 -1.6907
  803MOL0     H 5993   8.469   0.362   5.018  0.9688  1.6589  0.6615
  803MOL0     H 5994   8.347  -0.009   4.836  0.7373  0.8599 -0.8171
  803MOL0     H 5995   8.798   0.589   4.714 -0.8399 -2.8082  0.8821
  803MOL0     H 5996   8.905   0.783   4.611 -1.2972 -0.6457 -0.1205
  804MOL0     O 5997   6.906   6.227   1.867  0.1224  0.2532 -0.8297
  804MOL0     C 5998   6.792   6.239   1.901  0.9761  0.0975 -0.7820
  804MOL0     O 5999   6.704   6.337   1.851  0.3782  0.2598 -0.3069
  804MOL0     C 6000   6.743   6.398   1.741  0.5317 -0.2752  0.1268
  804MOL0     C 6001   6.646   6.410   1.638  0.0371  0.2727 -0.4680
  804MOL0     C 6002   6.672   6.492   1.529 -0.0369 -0.6315  0.0744
  804MOL0     C 6003   6.788   6.569   1.514  1.4729  0.3057  0.8577
  804MOL0     O 6004   6.798   6.625   1.394  0.7266 -0.6109 -0.3286
  804MOL0     C 6005   6.857   6.761   1.398  0.3856  0.5425  0.4379
  804MOL0     C 6006   6.808   6.845   1.277 -0.0976  1.0348 -0.6789
  804MOL0     C 6007   6.657   6.871   1.295  0.6726 -0.1378 -0.0961
  804MOL0     C 6008   6.571   6.758   1.249 -0.4665 -0.5323 -0.7628
  804MOL0     C 6009   6.435   6.795   1.218 -0.2093  0.3478  0.5767
  804MOL0     C 6010   6.346   6.666   1.194 -0.0664 -0.1379 -0.3053
  804MOL0     C 6011   6.209   6.666   1.135 -0.2518 -0.1113 -0.4100
  804MOL0     C 6012   6.106   6.740   1.224 -0.3054 -0.9080 -0.5816
  804MOL0     N 6013   5.967   6.721   1.202 -0.5784 -0.7113 -0.3707
  804MOL0     C 6014   5.894   6.701   1.083 -0.3343 -0.1592  1.0299
  804MOL0     C 6015   5.765   6.690   1.118  0.0837  0.0835  0.4990
  804MOL0     C 6016   5.640   6.681   1.040 -0.4772  0.5007  0.6314
  804MOL0     C 6017   5.655   6.636   0.890 -0.4130 -0.6839 -0.4888
  804MOL0     C 6018   5.517   6.653   0.825  0.7308 -0.7197 -0.0514
  804MOL0     C 6019   5.523   6.642   0.674  0.0671 -0.6181  0.5970
  804MOL0     O 6020   5.400   6.657   0.603  0.6110 -0.2386  0.0149
  804MOL0     C 6021   5.333   6.549   0.544  0.4871 -0.0526  0.4592
  804MOL0     C 6022   5.277   6.571   0.418  0.3260 -0.6115 -0.1661
  804MOL0     C 6023   5.197   6.478   0.351  0.5414  0.3815 -0.5775
  804MOL0     C 6024   5.172   6.351   0.404  0.1115  0.3045  0.0963
  804MOL0     C 6025   5.101   6.255   0.326 -0.9391  0.4867 -0.2865
  804MOL0     O 6026   5.147   6.128   0.358  0.1433 -0.1506  0.0764
  804MOL0     C 6027   5.116   6.008   0.303 -1.2014  0.3736 -0.1542
  804MOL0     C 6028   5.072   5.992   0.174 -0.4449  0.7830  0.1148
  804MOL0     C 6029   5.040   5.856   0.135  0.3951  0.0621 -0.7222
  804MOL0     C 6030   5.051   5.749   0.228 -0.3512  0.5307 -0.0205
  804MOL0     O 6031   5.037   5.611   0.193  0.2068 -0.0137 -0.2797
  804MOL0     C 6032   4.991   5.575   0.060  1.0294  0.1217  0.4383
  804MOL0     C 6033   4.836   5.574   0.050  0.0738  0.2882  1.0627
  804MOL0     C 6034   4.802   5.632  -0.090 -0.1871 -0.3771 -0.2472
  804MOL0     C 6035   4.653   5.626  -0.106 -0.1152 -1.1269 -0.6173
  804MOL0     C 6036   4.605   5.686  -0.235  0.6517  0.5668 -0.7585
  804MOL0     C 6037   4.609   5.835  -0.235  0.1622 -0.4398  0.0849
  804MOL0     C 6038   4.574   5.892  -0.382  0.5148 -0.3720  0.1669
  804MOL0     C 6039   4.572   6.041  -0.392 -0.2559 -0.3856 -0.4657
  804MOL0    Cl 6040   4.584   6.087  -0.563 -0.4011 -0.2254  0.1300
  804MOL0     C 6041   5.109   5.770   0.346  0.1929  0.7068 -1.4244
  804MOL0     C 6042   5.129   5.894   0.385 -0.0148 -0.2967 -0.0143
  804MOL0     O 6043   5.025   6.294   0.242 -0.2049 -0.8098  0.3203
  804MOL0     C 6044   5.227   6.314   0.530  0.4340  0.4453  0.2688
  804MOL0     C 6045   5.303   6.416   0.596  0.3244 -0.5666 -0.0389
  804MOL0     N 6046   5.762   6.709   1.252 -0.3664  0.8987 -0.0336
  804MOL0     N 6047   5.884   6.719   1.300  0.3370 -0.2030 -0.2732
  804MOL0     C 6048   6.890   6.553   1.617 -0.7184 -1.5703  0.7800
  804MOL0     C 6049   6.863   6.481   1.733  0.3023 -0.0513 -0.8627
  804MOL0     C 6050   6.750   6.173   2.018  0.1616  0.0786 -0.0961
  804MOL0     C 6051   6.616   6.196   2.055  0.1063 -0.7603  0.7853
  804MOL0     C 6052   6.569   6.139   2.173  0.4442 -0.0663  0.3890
  804MOL0     C 6053   6.648   6.052   2.251  0.9474 -0.2334  0.4046
  804MOL0     O 6054   6.610   6.014   2.379  0.6197 -0.4346  0.2126
  804MOL0     C 6055   6.612   5.878   2.398  0.4141 -0.2722 -1.1891
  804MOL0     C 6056   6.544   5.824   2.525  0.2074 -0.1036 -0.3565
  804MOL0     C 6057   6.601   5.889   2.647  0.1002 -0.0238  0.3104
  804MOL0     C 6058   6.520   5.850   2.777 -0.1384  0.3744  0.2286
  804MOL0     C 6059   6.574   5.732   2.847  0.9604 -0.0560 -0.0939
  804MOL0     C 6060   6.620   5.644   2.907 -0.2230  0.4867 -0.7242
  804MOL0     C 6061   6.779   6.030   2.208  1.0282  0.5930  0.3358
  804MOL0     C 6062   6.831   6.089   2.096 -0.2416 -0.5092  0.6795
  804MOL0     H 6063   6.549   6.363   1.638  0.2202 -0.1368 -1.4839
  804MOL0     H 6064   6.594   6.510   1.456  0.6891  2.9871 -0.0247
  804MOL0     H 6065   6.966   6.763   1.406  0.3984  0.1368  0.4170
  804MOL0     H 6066   6.817   6.808   1.488 -1.4639  3.9816 -1.9543
  804MOL0     H 6067   6.849   6.793   1.189 -3.4649 -2.4431 -0.4562
  804MOL0     H 6068   6.865   6.939   1.278  2.1315 -0.2127 -1.6611
  804MOL0     H 6069   6.636   6.956   1.229  2.8030  0.0268 -0.6289
  804MOL0     H 6070   6.640   6.907   1.397  1.7004  1.1172 -0.3419
  804MOL0     H 6071   6.623   6.702   1.171  0.4898 -0.5476 -0.1348
  804MOL0     H 6072   6.571   6.686   1.331 -1.2681  0.4679  0.1419
  804MOL0     H 6073   6.444   6.858   1.129 -0.0783  0.9049  0.9806
  804MOL0     H 6074   6.389   6.851   1.299 -1.5547 -1.9813  1.5300
  804MOL0     H 6075   6.350   6.616   1.291  4.6535  0.6082  0.1228
  804MOL0     H 6076   6.403   6.601   1.127 -1.8972  0.3518 -2.4388
  804MOL0     H 6077   6.217   6.713   1.036  2.7115  0.3959 -0.0197
  804MOL0     H 6078   6.180   6.563   1.114  3.4539 -1.4652  0.3633
  804MOL0     H 6079   6.125   6.847   1.208  3.7521 -0.9298  2.5661
  804MOL0     H 6080   6.126   6.726   1.330  0.5869 -1.8527 -0.8628
  804MOL0     H 6081   5.937   6.711   0.983  1.4252  3.0158  1.9293
  804MOL0     H 6082   5.605   6.784   1.044  0.6312  0.9242 -0.1220
  804MOL0     H 6083   5.573   6.613   1.093 -0.3669 -0.6334 -0.6246
  804MOL0     H 6084   5.683   6.531   0.879 -3.5775 -1.5033 -1.7184
  804MOL0     H 6085   5.725   6.704   0.840  0.9941  0.0229  2.2588
  804MOL0     H 6086   5.438   6.583   0.853  1.5729 -1.4054  0.6598
  804MOL0     H 6087   5.482   6.751   0.858  0.6615 -0.5782 -0.5377
  804MOL0     H 6088   5.558   6.543   0.643 -2.4507 -1.6438  0.7875
  804MOL0     H 6089   5.591   6.719   0.638  0.4705 -1.2937 -0.0994
  804MOL0     H 6090   5.297   6.665   0.368  3.7451 -0.4730  1.1594
  804MOL0     H 6091   5.173   6.505   0.249  1.7611 -0.4663 -1.1174
  804MOL0     H 6092   5.088   6.081   0.113 -0.8639  0.5695 -0.3139
  804MOL0     H 6093   4.991   5.837   0.040  0.3955 -0.8680 -0.5424
  804MOL0     H 6094   5.029   5.476   0.032 -0.5312  0.2455 -2.4818
  804MOL0     H 6095   5.042   5.622  -0.025  1.0337 -3.4394 -1.7032
  804MOL0     H 6096   4.797   5.640   0.128  1.1557  2.6352 -0.2875
  804MOL0     H 6097   4.797   5.473   0.064 -2.3842  0.4712 -2.7977
  804MOL0     H 6098   4.840   5.571  -0.173  0.2403  1.4028 -1.4096
  804MOL0     H 6099   4.850   5.729  -0.103 -1.2913  0.1063 -0.8016
  804MOL0     H 6100   4.622   5.521  -0.103  0.8577 -1.4336 -0.9060
  804MOL0     H 6101   4.603   5.668  -0.018 -1.5943  0.1309 -2.0237
  804MOL0     H 6102   4.499   5.657  -0.236 -0.7489  4.6556  2.1571
  804MOL0     H 6103   4.664   5.640  -0.315  1.7718  0.4181  0.1316
  804MOL0     H 6104   4.700   5.883  -0.200  0.2816 -0.3457 -0.3534
  804MOL0     H 6105   4.530   5.871  -0.168 -0.7231 -4.3681  1.4423
  804MOL0     H 6106   4.654   5.853  -0.445  0.5027 -0.1743  0.0291
  804MOL0     H 6107   4.478   5.861  -0.425 -0.4675  1.9682  0.5117
  804MOL0     H 6108   4.659   6.076  -0.336 -1.4344  0.1630  1.0880
  804MOL0     H 6109   4.477   6.080  -0.356 -0.3850  0.7772 -1.9670
  804MOL0     H 6110   5.132   5.690   0.416  0.7413  3.4704  1.8521
  804MOL0     H 6111   5.164   5.929   0.482 -1.1633  3.4559 -0.8311
  804MOL0     H 6112   5.211   6.212   0.562 -0.5625  0.1089 -1.1946
  804MOL0     H 6113   5.324   6.396   0.701 -1.6360 -2.5033  0.0478
  804MOL0     H 6114   6.982   6.607   1.596 -4.6429  5.3372 -1.8522
  804MOL0     H 6115   6.936   6.470   1.812 -1.2095  2.9953  1.1406
  804MOL0     H 6116   6.538   6.244   1.997  0.2074 -0.2156  1.0934
  804MOL0     H 6117   6.476   6.175   2.215 -0.1132 -0.6912 -0.2918
  804MOL0     H 6118   6.719   5.857   2.402  0.0494 -2.6804 -2.1927
  804MOL0     H 6119   6.583   5.819   2.311 -0.7226 -0.4838 -0.6946
  804MOL0     H 6120   6.440   5.847   2.500  0.2419 -1.4508 -1.9044
  804MOL0     H 6121   6.545   5.715   2.536 -0.8866  0.1328  3.0163
  804MOL0     H 6122   6.589   5.998   2.645 -1.6356 -0.1543  1.4740
  804MOL0     H 6123   6.706   5.862   2.653  1.3367  3.1161 -3.0286
  804MOL0     H 6124   6.526   5.933   2.849  3.0567  0.9202 -0.4773
  804MOL0     H 6125   6.419   5.822   2.748  0.2465  0.7547 -1.5803
  804MOL0     H 6126   6.691   5.571   2.942  2.5403  2.9389 -0.8119
  804MOL0     H 6127   6.846   5.970   2.270  0.5318 -2.1799 -1.6134
  804MOL0     H 6128   6.938   6.094   2.079  0.0082 -0.2559  2.1586
  805MOL0     O 6129   0.143   6.468   8.223  0.3483 -0.6985  0.9438
  805MOL0     C 6130   0.075   6.559   8.171 -0.1516 -0.6079  0.1723
  805MOL0     O 6131   0.047   6.677   8.233  0.0355 -0.3023  0.4102
  805MOL0     C 6132   0.130   6.714   8.339  0.5101 -0.8569 -0.4692
  805MOL0     C 6133   0.173   6.632   8.447  0.1068  0.3767 -0.9531
  805MOL0     C 6134   0.266   6.688   8.532 -0.9538  0.2951 -0.1345
  805MOL0     C 6135   0.306   6.816   8.540 -0.2924 -0.0596  0.6991
  805MOL0     O 6136   0.388   6.858   8.638  0.4385 -0.1230 -0.0882
  805MOL0     C 6137   0.512   6.906   8.591 -0.3768  0.2444  0.4499
  805MOL0     C 6138   0.520   7.056   8.619 -0.5861  0.2607  0.1630
  805MOL0     C 6139   0.652   7.112   8.580 -0.0752 -0.2993 -0.0758
  805MOL0     C 6140   0.655   7.251   8.564  0.7287 -0.4962 -0.3965
  805MOL0     C 6141   0.782   7.320   8.511  0.4045 -0.0392 -0.3872
  805MOL0     C 6142   0.863   7.230   8.413 -0.4984  0.2625  0.0569
  805MOL0     C 6143   0.793   7.194   8.274 -0.3480 -0.6387  0.1600
  805MOL0     C 6144   0.768   7.320   8.181 -1.2231  0.1314 -0.7461
  805MOL0     N 6145   0.870   7.366   8.091 -1.0916  0.6783  0.0818
  805MOL0     C 6146   0.959   7.286   8.028 -0.2146 -0.7788  0.2790
  805MOL0     C 6147   1.058   7.372   7.989  0.5536  0.7215  0.7906
  805MOL0     C 6148   1.179   7.324   7.919  0.2453  0.4093  0.6978
  805MOL0     C 6149   1.303   7.368   7.997 -0.4659  0.4129  0.9497
  805MOL0     C 6150   1.344   7.262   8.109  0.0088  0.1127 -0.2908
  805MOL0     C 6151   1.457   7.312   8.196  0.6661  0.0092  0.0203
  805MOL0     O 6152   1.515   7.192   8.272  0.9605 -0.0694 -0.2256
  805MOL0     C 6153   1.603   7.222   8.380  1.0856 -0.1963 -0.2865
  805MOL0     C 6154   1.662   7.124   8.449  0.5166 -0.1674 -0.1561
  805MOL0     C 6155   1.728   7.144   8.570  0.4878 -0.1865  1.3008
  805MOL0     C 6156   1.733   7.271   8.624 -0.9369 -0.7829 -0.1588
  805MOL0     C 6157   1.786   7.288   8.763  0.0133  0.9286  0.8321
  805MOL0     O 6158   1.820   7.414   8.806 -0.2119 -0.5015  0.3736
  805MOL0     C 6159   1.883   7.411   8.926 -0.2405  0.1089  0.7478
  805MOL0     C 6160   1.813   7.410   9.044 -0.2677 -0.6080  0.2768
  805MOL0     C 6161   1.881   7.404   9.169  1.0016 -0.2744 -0.7156
  805MOL0     C 6162   2.020   7.393   9.175  0.0430 -1.2908  0.7609
  805MOL0     O 6163   2.085   7.422   9.293 -0.1271 -0.1135 -0.0082
  805MOL0     C 6164   2.200   7.341   9.318 -0.3264 -0.8553 -0.1884
  805MOL0     C 6165   2.176   7.274   9.444 -0.0514  0.9457  0.0207
  805MOL0     C 6166   2.303   7.194   9.496  0.0688 -0.7332 -0.5748
  805MOL0     C 6167   2.295   7.138   9.640  0.2846  0.2700  0.9816
  805MOL0     C 6168   2.189   7.023   9.654  0.8127 -0.5429  0.1676
  805MOL0     C 6169   2.148   6.978   9.797 -0.2821  0.0542 -0.3074
  805MOL0     C 6170   2.025   6.879   9.802 -0.5954  0.3772 -0.7708
  805MOL0     C 6171   1.977   6.857   9.951 -0.4955 -0.8667 -0.0242
  805MOL0    Cl 6172   1.805   6.799   9.953 -0.1846  0.1169  1.1357
  805MOL0     C 6173   2.092   7.396   9.048  0.5475 -1.3179 -0.0409
  805MOL0     C 6174   2.018   7.403   8.930 -0.7903 -0.4384  0.4355
  805MOL0     O 6175   1.786   7.183   8.828  0.3279 -0.1891 -0.4437
  805MOL0     C 6176   1.686   7.377   8.558  0.1555  0.0931  0.1340
  805MOL0     C 6177   1.620   7.353   8.430 -0.6351 -1.0597  0.3592
  805MOL0     N 6178   1.019   7.504   8.025 -0.3569  0.8677 -0.3820
  805MOL0     N 6179   0.907   7.492   8.097  0.2472  0.0386  0.6523
  805MOL0     C 6180   0.243   6.900   8.436  0.3459  0.1494  0.4375
  805MOL0     C 6181   0.160   6.848   8.337 -0.2059  0.4606 -0.5938
  805MOL0     C 6182   0.026   6.544   8.033 -1.6801  0.7354  0.0828
  805MOL0     C 6183   0.013   6.658   7.947  0.6320  0.3761 -0.7808
  805MOL0     C 6184  -0.038   6.647   7.822 -1.0725  0.3874  0.1635
  805MOL0     C 6185  -0.056   6.525   7.760  0.6301 -0.1390  0.3479
  805MOL0     O 6186  -0.081   6.516   7.624  0.3173 -0.0256 -0.2371
  805MOL0     C 6187  -0.205   6.571   7.573  0.8952  0.3694  0.2892
  805MOL0     C 6188  -0.295   6.463   7.504 -0.3838  0.0816 -0.6226
  805MOL0     C 6189  -0.412   6.538   7.438  0.1416 -0.7866 -0.0838
  805MOL0     C 6190  -0.504   6.450   7.348  0.1121 -0.4921 -0.2661
  805MOL0     C 6191  -0.623   6.437   7.430  0.9641  0.4665 -0.2757
  805MOL0     C 6192  -0.707   6.420   7.519 -0.3268  0.3373  0.3975
  805MOL0     C 6193  -0.034   6.410   7.841  0.4183 -0.1115  0.2697
  805MOL0     C 6194   0.013   6.418   7.972 -0.2664  0.3705 -0.8338
  805MOL0     H 6195   0.143   6.528   8.441  2.7499 -0.4299 -1.3029
  805MOL0     H 6196   0.308   6.625   8.610 -1.8567 -0.4463 -0.2210
  805MOL0     H 6197   0.525   6.885   8.485 -0.2087 -1.4446  0.7757
  805MOL0     H 6198   0.589   6.855   8.650  0.0790  1.0513  0.5684
  805MOL0     H 6199   0.512   7.081   8.726  0.4776 -0.6821  0.4943
  805MOL0     H 6200   0.442   7.113   8.569  0.4631 -0.1310 -2.0400
  805MOL0     H 6201   0.688   7.069   8.486  0.6307  1.3734 -0.6043
  805MOL0     H 6202   0.723   7.084   8.659 -0.3519 -0.7273  0.0244
  805MOL0     H 6203   0.593   7.282   8.479  0.5871  0.9404  0.2050
  805MOL0     H 6204   0.626   7.301   8.656 -2.5844  0.9281 -2.0385
  805MOL0     H 6205   0.855   7.325   8.592 -0.1713  3.7759  0.0726
  805MOL0     H 6206   0.764   7.422   8.474  2.4809 -0.2858 -2.2824
  805MOL0     H 6207   0.907   7.138   8.453 -0.4668  0.8145  1.3536
  805MOL0     H 6208   0.952   7.286   8.384 -1.1397  0.2992 -1.9913
  805MOL0     H 6209   0.859   7.130   8.214 -2.0935 -3.3920  0.9818
  805MOL0     H 6210   0.695   7.147   8.289 -0.0041 -1.3790  0.1614
  805MOL0     H 6211   0.732   7.408   8.236  2.0231  0.6074  0.8140
  805MOL0     H 6212   0.695   7.280   8.109 -0.4510 -1.6206 -0.5965
  805MOL0     H 6213   0.956   7.177   8.021 -1.8108 -0.7511  0.1547
  805MOL0     H 6214   1.188   7.360   7.816 -0.3219 -2.6438 -0.5324
  805MOL0     H 6215   1.174   7.215   7.913  0.6006  0.0867  4.2753
  805MOL0     H 6216   1.276   7.460   8.050 -1.8744 -0.0311  1.0323
  805MOL0     H 6217   1.391   7.399   7.939  0.1081  1.6148  2.4219
  805MOL0     H 6218   1.260   7.236   8.174  2.2780 -3.4988  1.4948
  805MOL0     H 6219   1.367   7.165   8.066  2.0997  0.7951 -0.8509
  805MOL0     H 6220   1.414   7.389   8.261 -0.9107  0.2978 -1.3085
  805MOL0     H 6221   1.532   7.354   8.128  0.1560  1.8578  0.5288
  805MOL0     H 6222   1.648   7.023   8.414  4.0503 -0.8312 -0.0699
  805MOL0     H 6223   1.771   7.054   8.615 -0.9398 -1.2981  0.5269
  805MOL0     H 6224   1.705   7.417   9.053 -0.7244 -0.1394 -3.6294
  805MOL0     H 6225   1.824   7.406   9.261  1.2160 -3.3648 -0.3927
  805MOL0     H 6226   2.283   7.410   9.329 -1.3084  0.2369  0.5846
  805MOL0     H 6227   2.215   7.260   9.245  1.6915  1.2851 -2.3364
  805MOL0     H 6228   2.088   7.210   9.438  1.9836 -2.2218  1.2343
  805MOL0     H 6229   2.159   7.347   9.523  0.5821  0.9345  0.1726
  805MOL0     H 6230   2.389   7.257   9.471 -1.3187  1.5756  0.0955
  805MOL0     H 6231   2.312   7.112   9.425  0.8849 -0.4707 -0.7832
  805MOL0     H 6232   2.390   7.088   9.659 -0.5402 -0.5993  3.1452
  805MOL0     H 6233   2.298   7.211   9.722  2.2382  1.8829 -0.4295
  805MOL0     H 6234   2.218   6.929   9.605  0.5649 -0.3373 -0.3872
  805MOL0     H 6235   2.097   7.048   9.600  2.5589  0.9483 -2.3408
  805MOL0     H 6236   2.119   7.070   9.849 -1.7834 -1.3689  1.5155
  805MOL0     H 6237   2.234   6.933   9.847  0.4002 -1.3503 -2.6044
  805MOL0     H 6238   1.933   6.918   9.758 -0.9746  0.0940 -0.2453
  805MOL0     H 6239   2.040   6.792   9.737  1.2934 -0.1658  0.3268
  805MOL0     H 6240   1.984   6.954   9.999 -0.4537 -0.5822 -0.5941
  805MOL0     H 6241   2.044   6.782   9.993  0.1290 -0.4516 -0.2634
  805MOL0     H 6242   2.199   7.409   9.042  0.1521  2.0571 -3.9174
  805MOL0     H 6243   2.071   7.393   8.835 -0.4345 -3.3826  0.8501
  805MOL0     H 6244   1.703   7.475   8.603  2.0444  0.7481 -1.8128
  805MOL0     H 6245   1.576   7.439   8.379 -1.4976 -1.5816  0.1892
  805MOL0     H 6246   0.273   7.004   8.443 -0.2683  0.3350  0.3481
  805MOL0     H 6247   0.116   6.908   8.258  0.1814  1.0571 -0.3611
  805MOL0     H 6248   0.020   6.755   7.995  0.6350  1.3646 -2.7115
  805MOL0     H 6249  -0.060   6.733   7.760  0.4901 -0.5783 -1.8391
  805MOL0     H 6250  -0.171   6.647   7.502  0.2467  0.3681 -0.0288
  805MOL0     H 6251  -0.259   6.616   7.656  0.8252 -2.2954  1.8169
  805MOL0     H 6252  -0.230   6.410   7.434  1.2435  2.0099 -0.6913
  805MOL0     H 6253  -0.329   6.385   7.573  0.3542  1.0415  0.9044
  805MOL0     H 6254  -0.368   6.620   7.381  3.0052 -1.6084  0.7804
  805MOL0     H 6255  -0.471   6.590   7.513 -1.4678 -3.9424  1.0609
  805MOL0     H 6256  -0.532   6.511   7.262  0.4339 -0.1030 -0.0980
  805MOL0     H 6257  -0.463   6.351   7.326 -1.8887 -0.9871 -2.1236
  805MOL0     H 6258  -0.778   6.419   7.599  1.5281 -1.2170  2.1508
  805MOL0     H 6259  -0.045   6.317   7.787 -0.0688 -0.4273  0.8979
  805MOL0     H 6260   0.026   6.327   8.029  2.3858 -0.9844 -3.3007
  806MOL0     O 6261   9.799   7.925   9.444  0.0579  0.1719 -0.1751
  806MOL0     C 6262   9.827   7.993   9.347 -0.1114  0.2084 -0.2280
  806MOL0     O 6263   9.746   8.052   9.262  0.6296  0.3490 -0.2700
  806MOL0     C 6264   9.607   8.031   9.271  0.0367 -0.3033  0.4035
  806MOL0     C 6265   9.550   7.914   9.224 -0.6566 -0.3063  0.0738
  806MOL0     C 6266   9.409   7.896   9.225  0.2902  0.0820 -0.4525
  806MOL0     C 6267   9.324   7.998   9.272 -0.8417  0.1365 -0.5824
  806MOL0     O 6268   9.193   7.982   9.292 -0.9846  0.4208  0.5187
  806MOL0     C 6269   9.097   8.083   9.304  0.7098  0.6518  0.7117
  806MOL0     C 6270   8.962   8.006   9.273  0.0088 -0.0525 -0.3381
  806MOL0     C 6271   8.944   7.906   9.392  0.0168  0.0086  0.2861
  806MOL0     C 6272   8.801   7.852   9.401  0.1052  0.1545 -0.1250
  806MOL0     C 6273   8.721   7.953   9.486  0.4213  0.8719 -1.1868
  806MOL0     C 6274   8.578   7.913   9.464 -0.1651 -0.3157 -0.3917
  806MOL0     C 6275   8.483   7.999   9.552 -0.4651  0.0595 -0.6896
  806MOL0     C 6276   8.332   7.963   9.541  0.1441 -0.3301 -1.2639
  806MOL0     N 6277   8.266   8.076   9.486  0.0672  0.0619  0.2533
  806MOL0     C 6278   8.248   8.199   9.551 -0.0076 -0.1143 -0.2210
  806MOL0     C 6279   8.178   8.277   9.469  0.2103  0.9852 -0.1577
  806MOL0     C 6280   8.113   8.408   9.518 -0.5585  0.4286 -0.3557
  806MOL0     C 6281   7.983   8.381   9.579  0.4654  1.3215  0.0243
  806MOL0     C 6282   7.936   8.490   9.678 -0.1651  0.7020  0.3785
  806MOL0     C 6283   7.942   8.631   9.617  0.1894 -0.1867 -0.0895
  806MOL0     O 6284   7.870   8.638   9.494 -1.1755 -0.7841  0.4104
  806MOL0     C 6285   7.842   8.758   9.439 -0.7971 -0.2719  0.2935
  806MOL0     C 6286   7.902   8.879   9.476 -0.0563  0.3329 -0.3205
  806MOL0     C 6287   7.866   8.995   9.413 -0.1400 -0.5120  0.6378
  806MOL0     C 6288   7.782   8.993   9.299  0.2942  0.5529  0.0453
  806MOL0     C 6289   7.726   9.117   9.238 -0.3939  0.2959 -0.3731
  806MOL0     O 6290   7.752   9.244   9.290 -0.4084  0.0823 -0.0256
  806MOL0     C 6291   7.685   9.343   9.228 -0.2323 -0.7896  0.0227
  806MOL0     C 6292   7.549   9.365   9.254 -0.1853  0.3474 -0.1669
  806MOL0     C 6293   7.476   9.462   9.173 -0.0048  1.1080 -0.5123
  806MOL0     C 6294   7.541   9.543   9.082  0.6386 -0.2755  0.3635
  806MOL0     O 6295   7.484   9.624   8.987  0.2360  0.0858 -0.7571
  806MOL0     C 6296   7.371   9.685   9.037 -0.3722 -1.3586 -1.0079
  806MOL0     C 6297   7.310   9.799   8.951 -0.7713  0.0752 -0.4750
  806MOL0     C 6298   7.278   9.766   8.814  0.3289 -0.0669  0.7297
  806MOL0     C 6299   7.213   9.886   8.742  0.3418 -0.2901  0.9860
  806MOL0     C 6300   7.213   9.858   8.588  1.1002  0.5223 -0.2665
  806MOL0     C 6301   7.090   9.767   8.558  0.4612 -0.4251 -0.1179
  806MOL0     C 6302   7.088   9.736   8.404  0.9667 -0.3495 -0.5494
  806MOL0     C 6303   7.218   9.675   8.344  1.1986  0.7402  0.7718
  806MOL0    Cl 6304   7.263   9.531   8.430 -0.0735 -0.5029  0.0658
  806MOL0     C 6305   7.683   9.537   9.079  0.2688  0.2703  0.3449
  806MOL0     C 6306   7.760   9.438   9.152 -0.0007  0.2497  0.0683
  806MOL0     O 6307   7.653   9.096   9.145 -0.4648  0.5134 -0.3208
  806MOL0     C 6308   7.721   8.870   9.268 -0.1741 -0.7458  0.5915
  806MOL0     C 6309   7.749   8.757   9.348  0.0001 -0.3916  0.6963
  806MOL0     N 6310   8.154   8.205   9.347 -0.1933  0.1938 -0.0357
  806MOL0     N 6311   8.218   8.087   9.361  0.5458 -0.5238 -0.0518
  806MOL0     C 6312   9.384   8.122   9.296 -0.4324  0.6652 -0.1731
  806MOL0     C 6313   9.521   8.137   9.306 -0.5236 -0.1211  0.9143
  806MOL0     C 6314   9.967   8.020   9.328  0.3492  0.0936 -0.5612
  806MOL0     C 6315  10.018   8.074   9.210  0.3699  1.5989 -0.9643
  806MOL0     C 6316  10.152   8.102   9.201  0.6468 -0.3437 -0.9372
  806MOL0     C 6317  10.239   8.077   9.298  0.8371  0.2980 -0.6167
  806MOL0     O 6318  10.374   8.100   9.267 -0.0991  0.5713  0.2214
  806MOL0     C 6319  10.442   8.171   9.371  0.5122  0.5395  0.9346
  806MOL0     C 6320  10.574   8.240   9.318  0.0394  0.7496 -0.9414
  806MOL0     C 6321  10.655   8.289   9.440  0.2568 -1.1561  1.4554
  806MOL0     C 6322  10.757   8.179   9.482 -0.4669  0.8737  0.1952
  806MOL0     C 6323  10.792   8.186   9.627  1.3216 -0.4600 -0.7707
  806MOL0     C 6324  10.817   8.205   9.745  0.3190 -0.7849 -0.1336
  806MOL0     C 6325  10.186   8.033   9.428  0.4845 -0.4980  0.7948
  806MOL0     C 6326  10.054   8.009   9.438 -1.0445 -0.6944 -0.2299
  806MOL0     H 6327   9.619   7.841   9.184 -2.0055 -1.9286  0.6150
  806MOL0     H 6328   9.363   7.809   9.180  1.4915 -0.0542 -1.4877
  806MOL0     H 6329   9.111   8.155   9.223  2.4049 -1.0974 -0.6519
  806MOL0     H 6330   9.102   8.123   9.406  1.1414 -1.0059  1.3739
  806MOL0     H 6331   8.972   7.948   9.181  0.0935 -1.7179  0.6801
  806MOL0     H 6332   8.880   8.078   9.268 -1.4386 -1.5566  0.7109
  806MOL0     H 6333   8.968   7.973   9.475 -3.2642  1.4285  0.2784
  806MOL0     H 6334   9.008   7.825   9.358  1.3395  3.2672 -6.8702
  806MOL0     H 6335   8.764   7.833   9.300  1.1039  2.8636 -1.0820
  806MOL0     H 6336   8.808   7.754   9.450  2.2035  0.3967  0.1374
  806MOL0     H 6337   8.731   8.059   9.462 -0.4005  0.5484 -3.1282
  806MOL0     H 6338   8.741   7.951   9.594 -0.4914 -0.2609 -1.0169
  806MOL0     H 6339   8.551   7.807   9.478 -2.0080  0.3969  2.2500
  806MOL0     H 6340   8.551   7.946   9.364  3.7565  0.1516 -1.4732
  806MOL0     H 6341   8.494   7.979   9.659 -1.8720 -0.8980 -0.6950
  806MOL0     H 6342   8.497   8.104   9.526  2.4155 -0.6457 -2.4428
  806MOL0     H 6343   8.297   7.946   9.643  1.0837 -1.3735 -1.0908
  806MOL0     H 6344   8.317   7.872   9.482  1.2158 -0.3618 -1.5090
  806MOL0     H 6345   8.267   8.206   9.658 -0.8448 -0.8875 -0.0086
  806MOL0     H 6346   8.095   8.466   9.427  0.0349 -0.7135 -1.2157
  806MOL0     H 6347   8.166   8.467   9.594 -2.8748 -0.2616  1.9255
  806MOL0     H 6348   7.975   8.284   9.629 -1.5959  2.5001  2.1966
  806MOL0     H 6349   7.901   8.380   9.507  0.1932  0.8244  0.3361
  806MOL0     H 6350   7.834   8.462   9.708  0.5694 -1.4264  1.0794
  806MOL0     H 6351   7.998   8.487   9.768  1.3018  1.8060 -0.5689
  806MOL0     H 6352   8.042   8.667   9.590 -1.2035  1.8548 -3.0081
  806MOL0     H 6353   7.913   8.703   9.693 -1.9928 -2.7602  1.6978
  806MOL0     H 6354   7.978   8.894   9.552 -1.4155  2.0944  0.7691
  806MOL0     H 6355   7.884   9.095   9.451  3.2714 -0.5628 -0.5322
  806MOL0     H 6356   7.498   9.293   9.317  3.7103 -1.8895  0.7427
  806MOL0     H 6357   7.369   9.476   9.184  0.2488  1.6897  1.6551
  806MOL0     H 6358   7.395   9.727   9.135 -1.9078  5.0334 -2.8752
  806MOL0     H 6359   7.289   9.615   9.058 -2.2264  1.1834  0.8790
  806MOL0     H 6360   7.391   9.872   8.948 -1.7744  1.2760  0.2632
  806MOL0     H 6361   7.218   9.841   8.993  2.0170  3.1018  3.3226
  806MOL0     H 6362   7.205   9.685   8.828  1.7206 -1.2695  1.2401
  806MOL0     H 6363   7.359   9.732   8.749 -3.1401  0.7442 -4.7057
  806MOL0     H 6364   7.119   9.923   8.784 -0.7738 -0.4498 -1.2111
  806MOL0     H 6365   7.295   9.958   8.748  0.0876  0.0784  0.1687
  806MOL0     H 6366   7.294   9.792   8.554 -0.9358 -2.5285  0.4247
  806MOL0     H 6367   7.223   9.945   8.523  1.3102  0.3224 -0.5039
  806MOL0     H 6368   6.996   9.815   8.587  0.2737 -0.3528 -0.8227
  806MOL0     H 6369   7.094   9.668   8.604  0.1913 -0.6005 -0.4690
  806MOL0     H 6370   7.011   9.659   8.392  1.6479 -1.1614  0.2426
  806MOL0     H 6371   7.057   9.831   8.357 -1.5567 -0.0841  1.4155
  806MOL0     H 6372   7.309   9.737   8.342  1.3710  0.4801  0.4041
  806MOL0     H 6373   7.186   9.652   8.243  0.1511  1.6526  0.8783
  806MOL0     H 6374   7.739   9.600   9.011  1.1199  0.5650  1.2946
  806MOL0     H 6375   7.867   9.431   9.137  0.4539  1.9765  2.0669
  806MOL0     H 6376   7.636   8.866   9.201 -0.7692 -1.0638  1.3415
  806MOL0     H 6377   7.713   8.659   9.321  2.2871 -0.8554 -0.9055
  806MOL0     H 6378   9.328   8.210   9.325 -0.2475  0.2044  1.6851
  806MOL0     H 6379   9.555   8.236   9.337  0.2442  0.1289 -0.6144
  806MOL0     H 6380   9.954   8.086   9.123 -0.4882  2.9323 -0.1936
  806MOL0     H 6381  10.189   8.159   9.116 -1.6541  1.8033 -0.5781
  806MOL0     H 6382  10.467   8.094   9.444 -1.0929  1.6760  2.8070
  806MOL0     H 6383  10.381   8.250   9.418  0.5107  0.3011  1.3373
  806MOL0     H 6384  10.630   8.165   9.261  1.8643  1.9007 -0.7458
  806MOL0     H 6385  10.547   8.318   9.246 -0.5043  0.6704 -0.8305
  806MOL0     H 6386  10.585   8.318   9.519 -0.9441 -0.2524  0.1051
  806MOL0     H 6387  10.710   8.382   9.424  0.3665 -0.9333  2.9763
  806MOL0     H 6388  10.712   8.080   9.478  3.9274 -1.3082 -2.1117
  806MOL0     H 6389  10.840   8.183   9.410 -2.2243  1.6106 -1.8812
  806MOL0     H 6390  10.831   8.225   9.850 -0.5609  0.5487 -0.2447
  806MOL0     H 6391  10.246   8.005   9.514  3.6426 -0.1519 -1.1529
  806MOL0     H 6392  10.022   7.977   9.537 -1.4787  1.7093  0.4669
  807MOL0     O 6393   8.152   7.860   7.247  0.2319 -0.7007  0.0891
  807MOL0     C 6394   8.269   7.828   7.236 -0.6193  0.3005 -0.5895
  807MOL0     O 6395   8.333   7.789   7.124  0.0204 -0.2045 -0.4028
  807MOL0     C 6396   8.265   7.760   7.007  0.3018 -0.2492  0.9386
  807MOL0     C 6397   8.166   7.839   6.953 -0.0684 -0.8140 -0.6439
  807MOL0     C 6398   8.127   7.826   6.824  1.4351  0.5605  0.1657
  807MOL0     C 6399   8.166   7.715   6.745 -0.3662  0.2312  0.1265
  807MOL0     O 6400   8.107   7.702   6.623  0.0674  0.8414 -0.2500
  807MOL0     C 6401   8.147   7.596   6.537  0.5488 -0.1509  0.6691
  807MOL0     C 6402   8.017   7.565   6.439  0.0245 -0.4073 -0.0574
  807MOL0     C 6403   8.007   7.659   6.314  0.8808 -0.0390 -0.0981
  807MOL0     C 6404   8.119   7.653   6.211  0.2413 -0.0039  0.6964
  807MOL0     C 6405   8.107   7.761   6.102  0.2253 -0.2086 -0.3255
  807MOL0     C 6406   7.981   7.751   6.008  0.3015  0.0190 -0.9639
  807MOL0     C 6407   8.014   7.814   5.872  0.1161 -0.9146  0.1669
  807MOL0     C 6408   7.881   7.853   5.808 -0.3349  0.2316 -0.3530
  807MOL0     N 6409   7.915   7.881   5.667 -0.1316  0.2493 -1.2604
  807MOL0     C 6410   7.921   8.005   5.607  0.6731  0.2443 -0.5453
  807MOL0     C 6411   7.944   7.978   5.471  0.6121 -0.4438  0.3936
  807MOL0     C 6412   7.963   8.079   5.365  0.6482 -0.4410 -0.8121
  807MOL0     C 6413   7.907   8.020   5.226 -0.4663 -0.0583 -0.3798
  807MOL0     C 6414   7.760   8.054   5.208 -1.1040 -0.3692  0.2566
  807MOL0     C 6415   7.725   8.019   5.070  0.3556  0.1140 -0.0475
  807MOL0     O 6416   7.591   7.981   5.065 -0.7919  0.7273  0.4199
  807MOL0     C 6417   7.489   8.064   5.053 -0.9026  0.2244 -0.3022
  807MOL0     C 6418   7.497   8.199   5.078 -0.3315 -1.3007  0.5837
  807MOL0     C 6419   7.393   8.284   5.044 -0.4293 -0.0186 -1.1322
  807MOL0     C 6420   7.272   8.237   5.004 -0.1394  1.0259  0.7034
  807MOL0     C 6421   7.149   8.324   4.978  0.1470  0.1186  0.1086
  807MOL0     O 6422   7.170   8.454   4.939  1.0030 -0.9953 -0.3701
  807MOL0     C 6423   7.068   8.533   4.910  0.0075  0.9829  0.0456
  807MOL0     C 6424   6.968   8.565   5.003 -0.0645 -0.9677 -0.3994
  807MOL0     C 6425   6.849   8.623   4.963  0.5362  0.7664  0.3638
  807MOL0     C 6426   6.829   8.649   4.829 -1.1744  1.1032  0.2489
  807MOL0     O 6427   6.706   8.691   4.786 -0.1462  0.5462  0.4468
  807MOL0     C 6428   6.654   8.676   4.656 -0.5433 -0.0748  0.2387
  807MOL0     C 6429   6.508   8.722   4.642 -0.5833  0.7397 -0.6369
  807MOL0     C 6430   6.492   8.867   4.615  0.2831 -0.6082 -0.0212
  807MOL0     C 6431   6.525   8.965   4.726 -0.4267 -0.4405 -0.1431
  807MOL0     C 6432   6.494   8.913   4.867  0.0047 -0.1268 -1.1079
  807MOL0     C 6433   6.480   9.032   4.963 -0.5628  0.0925 -1.3353
  807MOL0     C 6434   6.515   8.990   5.114 -0.0985 -0.1092  0.0564
  807MOL0     C 6435   6.454   9.084   5.217 -0.2175 -0.1041  0.1108
  807MOL0    Cl 6436   6.286   9.027   5.245  0.1683 -0.0363  0.6928
  807MOL0     C 6437   6.931   8.610   4.740  0.0457  0.7113  0.4583
  807MOL0     C 6438   7.048   8.549   4.773 -0.7524  0.6065  0.1547
  807MOL0     O 6439   7.047   8.269   5.001 -0.1886 -0.7794 -0.1241
  807MOL0     C 6440   7.248   8.096   4.987  0.3196 -0.4110 -0.2302
  807MOL0     C 6441   7.355   8.017   5.025 -1.0957 -0.4065 -0.3927
  807MOL0     N 6442   7.963   7.844   5.464  0.2886  0.3236  0.3588
  807MOL0     N 6443   7.945   7.790   5.576  0.1648  0.2115  0.5152
  807MOL0     C 6444   8.252   7.619   6.803  0.4943  0.5623 -0.2867
  807MOL0     C 6445   8.312   7.645   6.930  0.4159 -0.7830 -0.2021
  807MOL0     C 6446   8.351   7.838   7.352 -0.5182  0.0300  0.1932
  807MOL0     C 6447   8.489   7.815   7.331  1.2133 -1.1880  0.0491
  807MOL0     C 6448   8.586   7.828   7.433  0.3257  0.1879 -0.4540
  807MOL0     C 6449   8.539   7.861   7.558  0.3451 -0.8846  0.2572
  807MOL0     O 6450   8.628   7.859   7.661 -0.0753  0.4982 -1.0306
  807MOL0     C 6451   8.594   7.932   7.787  0.4264  0.1694 -0.3563
  807MOL0     C 6452   8.728   7.961   7.859  0.0499 -0.3333 -0.8381
  807MOL0     C 6453   8.702   7.998   8.002  0.3573  0.2875  0.6662
  807MOL0     C 6454   8.658   7.884   8.088  0.1549 -0.6770 -0.5236
  807MOL0     C 6455   8.776   7.812   8.139  0.5321  1.3275  0.4890
  807MOL0     C 6456   8.860   7.744   8.191 -0.4293 -0.3886  0.5699
  807MOL0     C 6457   8.401   7.896   7.586  0.6683 -0.6818  0.5263
  807MOL0     C 6458   8.308   7.866   7.481 -0.3707 -0.7810  0.2421
  807MOL0     H 6459   8.129   7.929   7.000 -2.2086 -0.6671 -2.4331
  807MOL0     H 6460   8.075   7.907   6.774  1.6480 -0.7751 -2.3474
  807MOL0     H 6461   8.169   7.506   6.596 -1.2318 -1.7111 -0.8937
  807MOL0     H 6462   8.227   7.631   6.472  1.9394  2.2228  3.4407
  807MOL0     H 6463   7.924   7.572   6.496 -2.6612 -1.3348 -3.9040
  807MOL0     H 6464   8.023   7.462   6.404 -2.6602 -0.2057 -1.4330
  807MOL0     H 6465   7.998   7.759   6.358 -0.5245  0.1530 -0.7688
  807MOL0     H 6466   7.911   7.630   6.272 -0.2633 -1.2041  3.0359
  807MOL0     H 6467   8.213   7.677   6.262  0.0731  0.2952  0.8695
  807MOL0     H 6468   8.120   7.551   6.171  0.4743 -0.9054  2.8489
  807MOL0     H 6469   8.190   7.738   6.035  0.1328 -2.3767  0.2265
  807MOL0     H 6470   8.111   7.861   6.146 -1.8796 -0.2128 -0.0477
  807MOL0     H 6471   7.891   7.790   6.057  1.3779 -1.5228  2.5418
  807MOL0     H 6472   7.960   7.645   5.996 -3.0334  0.3328  0.8281
  807MOL0     H 6473   8.074   7.905   5.890  0.8432 -0.3301 -4.2150
  807MOL0     H 6474   8.085   7.743   5.829  0.5710 -1.1172  1.2127
  807MOL0     H 6475   7.832   7.934   5.862  0.6383 -1.5554  3.5378
  807MOL0     H 6476   7.814   7.767   5.813 -0.0563  0.0903  1.6962
  807MOL0     H 6477   7.900   8.102   5.651 -0.3828 -0.5523  0.7682
  807MOL0     H 6478   8.068   8.109   5.362  1.5418 -2.5357  3.2540
  807MOL0     H 6479   7.911   8.171   5.393  0.8864  0.1192 -2.1325
  807MOL0     H 6480   7.925   7.912   5.222  3.7917 -0.0409  5.1269
  807MOL0     H 6481   7.964   8.073   5.149 -2.3434 -0.2474 -1.9784
  807MOL0     H 6482   7.691   8.010   5.281  0.1416  1.0241  2.3806
  807MOL0     H 6483   7.759   8.163   5.219 -2.2687 -0.0266 -2.4787
  807MOL0     H 6484   7.768   7.927   5.031 -2.9563 -1.3057 -0.7259
  807MOL0     H 6485   7.747   8.106   5.007 -2.1329  2.8519  2.5335
  807MOL0     H 6486   7.578   8.234   5.140 -2.3903 -1.0897  3.3689
  807MOL0     H 6487   7.392   8.391   5.063  2.5427 -0.3670  1.9344
  807MOL0     H 6488   6.972   8.532   5.106  0.5827  0.4065  0.0493
  807MOL0     H 6489   6.757   8.627   5.019 -0.6247 -1.4322 -1.2205
  807MOL0     H 6490   6.647   8.570   4.629 -3.0093  0.5296 -1.7946
  807MOL0     H 6491   6.714   8.724   4.577 -0.2289 -2.2422 -0.9133
  807MOL0     H 6492   6.457   8.687   4.733 -0.6159 -1.2410 -1.3716
  807MOL0     H 6493   6.468   8.657   4.564  1.2160 -0.5171 -0.5731
  807MOL0     H 6494   6.385   8.881   4.600  0.9454  2.4545 -2.8926
  807MOL0     H 6495   6.544   8.894   4.523  1.7893 -0.6639  0.7818
  807MOL0     H 6496   6.629   8.997   4.717 -0.7742  0.4815 -1.0975
  807MOL0     H 6497   6.468   9.058   4.711 -3.1671 -2.2682 -2.0232
  807MOL0     H 6498   6.566   8.836   4.898 -0.1752 -0.1772 -0.8066
  807MOL0     H 6499   6.398   8.862   4.859  0.4237 -1.6803  2.0092
  807MOL0     H 6500   6.377   9.067   4.965  0.1802  2.3748  0.4538
  807MOL0     H 6501   6.550   9.115   4.951 -2.7781  2.0389 -1.5384
  807MOL0     H 6502   6.476   8.889   5.127  1.2588 -0.5929  0.5840
  807MOL0     H 6503   6.624   8.982   5.124  0.0059  0.7864 -0.2604
  807MOL0     H 6504   6.462   9.183   5.171 -0.9818 -0.2987 -0.4575
  807MOL0     H 6505   6.515   9.086   5.308 -0.3965  0.9161  0.2158
  807MOL0     H 6506   6.920   8.619   4.632  0.6012 -0.5216  0.2847
  807MOL0     H 6507   7.115   8.514   4.696  0.4395  2.6116  0.1977
  807MOL0     H 6508   7.159   8.050   4.946  3.1471 -2.0422 -5.4885
  807MOL0     H 6509   7.327   7.913   5.013 -0.6887 -0.3089 -2.5028
  807MOL0     H 6510   8.299   7.535   6.753 -1.9103  0.6593 -2.9656
  807MOL0     H 6511   8.382   7.583   6.985  0.8826 -0.4278 -0.3954
  807MOL0     H 6512   8.529   7.786   7.235  0.6198  1.1165 -0.9736
  807MOL0     H 6513   8.689   7.803   7.413  0.7830 -0.2308  2.0204
  807MOL0     H 6514   8.514   7.878   7.838 -1.1778  0.2917 -2.5939
  807MOL0     H 6515   8.562   8.035   7.769  2.1794  0.7062 -0.5607
  807MOL0     H 6516   8.806   7.884   7.858  1.3085  0.8251  1.0956
  807MOL0     H 6517   8.774   8.053   7.821 -4.3510  2.7691  0.5439
  807MOL0     H 6518   8.624   8.075   8.007  2.0989  2.1043  0.8724
  807MOL0     H 6519   8.793   8.030   8.053  1.1617  0.9761 -1.1125
  807MOL0     H 6520   8.599   7.911   8.175  0.8563  1.7131 -0.7194
  807MOL0     H 6521   8.600   7.813   8.028  0.2654 -3.0282  1.9306
  807MOL0     H 6522   8.930   7.678   8.237  1.7003  0.8831 -0.6802
  807MOL0     H 6523   8.379   7.919   7.689  1.9390 -1.4362  0.9845
  807MOL0     H 6524   8.208   7.851   7.522 -0.0361  2.3519  2.6259
  808MOL0     O 6525   0.306   0.678   5.938 -1.3778 -0.3788 -0.1396
  808MOL0     C 6526   0.271   0.731   5.836 -0.0665  0.6060 -0.0830
  808MOL0     O 6527   0.347   0.810   5.755  0.4242 -1.0374  0.6296
  808MOL0     C 6528   0.478   0.821   5.773  0.1776 -0.2827 -0.0661
  808MOL0     C 6529   0.555   0.829   5.655  0.1266 -0.2274 -0.7082
  808MOL0     C 6530   0.693   0.860   5.659  0.6966 -0.7020  1.2940
  808MOL0     C 6531   0.753   0.892   5.787  0.0892  0.5768  0.4177
  808MOL0     O 6532   0.887   0.940   5.784 -0.2382 -0.2995  0.5404
  808MOL0     C 6533   1.002   0.854   5.784 -0.6406  0.1936 -0.7510
  808MOL0     C 6534   1.044   0.821   5.928  0.5429  0.0328  0.0920
  808MOL0     C 6535   1.116   0.686   5.922  0.2922 -0.7908 -0.6001
  808MOL0     C 6536   1.162   0.661   6.063 -0.3306 -0.3055 -0.4460
  808MOL0     C 6537   1.241   0.531   6.081 -0.8632 -0.2534  0.0711
  808MOL0     C 6538   1.248   0.489   6.227 -0.0114 -0.7934  0.0856
  808MOL0     C 6539   1.348   0.377   6.248 -0.3960 -0.2081 -1.4634
  808MOL0     C 6540   1.342   0.304   6.384 -0.2129  0.2894  0.1554
  808MOL0     N 6541   1.357   0.405   6.488 -0.2252 -0.2117  0.3097
  808MOL0     C 6542   1.476   0.460   6.536  0.4746 -0.6318  0.0470
  808MOL0     C 6543   1.445   0.563   6.615 -1.4333 -0.1109 -0.1347
  808MOL0     C 6544   1.537   0.650   6.698 -0.3302  0.3629 -0.1637
  808MOL0     C 6545   1.500   0.628   6.849 -0.0959  0.5811  0.0999
  808MOL0     C 6546   1.589   0.736   6.919  0.8729  0.3244  0.6169
  808MOL0     C 6547   1.564   0.717   7.066 -0.4866 -1.0662 -0.2602
  808MOL0     O 6548   1.635   0.832   7.125  0.4984  0.2927  0.2936
  808MOL0     C 6549   1.645   0.830   7.262  0.3254  0.6498  1.0381
  808MOL0     C 6550   1.717   0.935   7.317 -0.3332  1.0129  0.3528
  808MOL0     C 6551   1.734   0.957   7.450 -0.0358  0.9536 -0.5342
  808MOL0     C 6552   1.683   0.868   7.550  0.7452  0.3021 -0.1268
  808MOL0     C 6553   1.717   0.880   7.692 -0.8223 -0.3727 -0.0828
  808MOL0     O 6554   1.816   0.966   7.732 -1.0624  0.3240 -0.4868
  808MOL0     C 6555   1.842   0.970   7.866  1.1220 -0.5478  0.0572
  808MOL0     C 6556   1.970   0.945   7.902  0.8592  0.4866  0.5422
  808MOL0     C 6557   1.996   0.954   8.040 -0.0656  0.5616 -0.1160
  808MOL0     C 6558   1.906   0.998   8.134  0.6184 -0.2464 -0.6608
  808MOL0     O 6559   1.955   1.011   8.262  0.0956 -0.3784 -0.2541
  808MOL0     C 6560   1.855   0.989   8.364 -0.0401 -0.2569 -0.5285
  808MOL0     C 6561   1.789   0.851   8.362 -0.6297  1.9154 -0.3478
  808MOL0     C 6562   1.742   0.815   8.509  0.9284 -0.5946 -0.0213
  808MOL0     C 6563   1.687   0.673   8.509 -0.8590  0.4498  0.2342
  808MOL0     C 6564   1.641   0.628   8.642 -0.2360  0.2832 -0.8627
  808MOL0     C 6565   1.618   0.478   8.628 -0.0043 -0.2476  0.1106
  808MOL0     C 6566   1.734   0.395   8.689 -0.2645  0.1774 -0.4138
  808MOL0     C 6567   1.704   0.382   8.838  0.7907 -1.5168  1.2263
  808MOL0    Cl 6568   1.840   0.310   8.930 -0.2940  0.0201  0.0340
  808MOL0     C 6569   1.776   1.033   8.091 -0.0276 -0.2281  0.0924
  808MOL0     C 6570   1.744   1.023   7.960  0.0279 -1.0213  0.5365
  808MOL0     O 6571   1.650   0.807   7.768 -0.2362 -0.2905  0.2692
  808MOL0     C 6572   1.611   0.757   7.491  0.1871  0.2891 -0.3418
  808MOL0     C 6573   1.579   0.741   7.353 -0.7408 -0.5462  0.7990
  808MOL0     N 6574   1.302   0.569   6.617  0.1754 -0.5982  0.2384
  808MOL0     N 6575   1.257   0.481   6.536 -0.0161  0.4429 -0.4590
  808MOL0     C 6576   0.668   0.888   5.908  0.0291  0.0032  0.3865
  808MOL0     C 6577   0.531   0.865   5.895 -0.1838  0.6456 -1.0032
  808MOL0     C 6578   0.136   0.702   5.790 -0.1107  0.5852 -0.5286
  808MOL0     C 6579   0.110   0.682   5.656  0.1841 -0.4551  0.1889
  808MOL0     C 6580  -0.012   0.648   5.604 -0.1616 -0.1858  0.2001
  808MOL0     C 6581  -0.125   0.627   5.689 -0.2945  0.2414  0.0635
  808MOL0     O 6582  -0.245   0.618   5.626 -0.6850  0.1652  0.2132
  808MOL0     C 6583  -0.367   0.612   5.714 -1.9445 -1.0335  0.5712
  808MOL0     C 6584  -0.476   0.564   5.622  0.6408 -1.1249 -0.6574
  808MOL0     C 6585  -0.454   0.423   5.559 -0.3079  0.6648  0.5309
  808MOL0     C 6586  -0.430   0.428   5.409 -0.5098  0.3359 -0.8908
  808MOL0     C 6587  -0.414   0.296   5.354 -0.6737  0.5162 -0.7299
  808MOL0     C 6588  -0.425   0.179   5.321  0.4589  0.8831 -0.3779
  808MOL0     C 6589  -0.099   0.650   5.827 -0.3845 -0.0038  0.6181
  808MOL0     C 6590   0.029   0.689   5.875  0.4606  1.1516  0.3956
  808MOL0     H 6591   0.507   0.817   5.558 -1.8740 -0.5692  0.2742
  808MOL0     H 6592   0.760   0.856   5.574  1.6144  0.7582  1.9018
  808MOL0     H 6593   1.081   0.911   5.734  2.1686 -2.4013  0.3809
  808MOL0     H 6594   0.990   0.759   5.731  0.8068 -0.7517  0.5301
  808MOL0     H 6595   0.950   0.810   5.984  1.1846  0.3634  1.2662
  808MOL0     H 6596   1.099   0.908   5.966 -0.0222  1.0368 -1.2900
  808MOL0     H 6597   1.192   0.700   5.845 -0.7650  2.6660 -1.2099
  808MOL0     H 6598   1.046   0.606   5.895  1.1426 -1.5340 -0.6496
  808MOL0     H 6599   1.229   0.746   6.080 -1.0528  0.1845  0.0136
  808MOL0     H 6600   1.078   0.662   6.134 -1.3883 -2.5510 -1.5541
  808MOL0     H 6601   1.337   0.545   6.030 -1.8100 -0.4177 -1.8221
  808MOL0     H 6602   1.203   0.439   6.035  2.1731 -1.5078 -0.1527
  808MOL0     H 6603   1.147   0.464   6.260  0.7460 -0.3939  3.0715
  808MOL0     H 6604   1.280   0.576   6.286 -0.6090 -0.1316 -0.5494
  808MOL0     H 6605   1.336   0.307   6.165  2.3415 -1.2769 -1.0706
  808MOL0     H 6606   1.450   0.412   6.228 -0.1417  3.4270  4.0817
  808MOL0     H 6607   1.413   0.221   6.379  0.6038  1.0426 -1.7431
  808MOL0     H 6608   1.245   0.253   6.394  0.3770 -1.8953 -3.6015
  808MOL0     H 6609   1.578   0.426   6.517  1.3786  0.7434  2.0576
  808MOL0     H 6610   1.514   0.754   6.670  1.9928  0.9006 -0.3358
  808MOL0     H 6611   1.636   0.619   6.663  1.0332  2.9265  1.1675
  808MOL0     H 6612   1.504   0.530   6.898 -1.3198  2.4629  4.3963
  808MOL0     H 6613   1.394   0.651   6.862  0.1086  1.4544  0.2718
  808MOL0     H 6614   1.689   0.711   6.882  0.2322 -3.8511  1.1545
  808MOL0     H 6615   1.557   0.838   6.898  0.6966  0.6655  2.4013
  808MOL0     H 6616   1.589   0.614   7.093 -0.1997 -0.5314  1.6492
  808MOL0     H 6617   1.458   0.729   7.092 -0.8215 -0.8151 -1.6696
  808MOL0     H 6618   1.761   1.010   7.252  1.9576  0.8921  1.6632
  808MOL0     H 6619   1.793   1.046   7.472 -2.6040  2.3758  1.1740
  808MOL0     H 6620   2.049   0.935   7.828 -1.0495  2.3664 -1.9486
  808MOL0     H 6621   2.097   0.934   8.075  0.0999 -0.1409 -0.9575
  808MOL0     H 6622   1.778   1.066   8.360 -0.1721 -0.4330 -3.3323
  808MOL0     H 6623   1.908   0.989   8.460 -2.7250 -3.2200  1.1378
  808MOL0     H 6624   1.866   0.777   8.337 -0.5359  1.2240  1.8116
  808MOL0     H 6625   1.711   0.846   8.285  0.6367  0.1006 -1.5898
  808MOL0     H 6626   1.662   0.885   8.535 -0.9668 -2.2395 -1.2286
  808MOL0     H 6627   1.818   0.834   8.586 -0.6246  2.0088  1.0268
  808MOL0     H 6628   1.608   0.672   8.433 -2.2621  0.8236  1.6326
  808MOL0     H 6629   1.762   0.606   8.468 -1.7997 -0.9139  0.6808
  808MOL0     H 6630   1.547   0.676   8.671 -0.2327  0.7082 -1.5218
  808MOL0     H 6631   1.709   0.653   8.724 -1.8952 -1.4309  1.1593
  808MOL0     H 6632   1.597   0.466   8.521 -1.7869  0.7658  0.3054
  808MOL0     H 6633   1.522   0.446   8.670 -0.9923  1.9419 -0.3285
  808MOL0     H 6634   1.746   0.294   8.648  3.1463 -1.0150  2.9113
  808MOL0     H 6635   1.836   0.433   8.692 -0.4178  0.5598  0.7212
  808MOL0     H 6636   1.620   0.313   8.850  0.7448 -1.8544 -0.7193
  808MOL0     H 6637   1.678   0.483   8.870 -0.8724 -1.0484 -1.3767
  808MOL0     H 6638   1.699   1.073   8.155 -0.8485 -2.1778  0.3871
  808MOL0     H 6639   1.654   1.064   7.916  0.5413 -2.3355 -1.9853
  808MOL0     H 6640   1.583   0.680   7.562  2.3481 -0.1166  0.1410
  808MOL0     H 6641   1.500   0.679   7.311  0.3942 -0.7634 -1.1778
  808MOL0     H 6642   0.706   0.913   6.006 -2.3591 -0.3404  1.4657
  808MOL0     H 6643   0.464   0.870   5.980  2.0562 -0.9596  0.9846
  808MOL0     H 6644   0.188   0.697   5.583  2.3394  1.0275  2.6245
  808MOL0     H 6645  -0.037   0.632   5.499 -3.5688  0.6314  0.7501
  808MOL0     H 6646  -0.398   0.706   5.760 -1.3151 -0.0151 -1.0183
  808MOL0     H 6647  -0.361   0.536   5.793 -2.5621 -1.9004 -0.1914
  808MOL0     H 6648  -0.571   0.573   5.674  0.6857  0.2165 -0.7783
  808MOL0     H 6649  -0.488   0.627   5.533  1.1701 -2.4810 -1.7382
  808MOL0     H 6650  -0.536   0.354   5.581  0.6292 -1.0454 -1.0927
  808MOL0     H 6651  -0.363   0.371   5.592 -0.1282 -1.4335 -2.8173
  808MOL0     H 6652  -0.511   0.468   5.347  0.6916  3.2946 -0.6772
  808MOL0     H 6653  -0.338   0.483   5.387  0.6125 -1.5854 -1.2951
  808MOL0     H 6654  -0.449   0.079   5.290 -0.1001  1.4695 -1.9382
  808MOL0     H 6655  -0.186   0.649   5.892 -0.0978 -6.2110  1.5649
  808MOL0     H 6656   0.043   0.689   5.983 -0.0236  0.7931  0.4581
  809MOL0     O 6657   2.058   2.058   9.843 -0.2434  0.4016 -0.7048
  809MOL0     C 6658   2.161   1.997   9.823 -0.0884 -0.9040  0.3445
  809MOL0     O 6659   2.248   1.946   9.913  0.0965 -0.0657 -0.3473
  809MOL0     C 6660   2.210   1.933  10.045  0.3351 -0.2817  0.7446
  809MOL0     C 6661   2.235   2.038  10.129 -0.8236  0.1908 -0.6605
  809MOL0     C 6662   2.203   2.018  10.259 -0.8515  0.3906 -1.2479
  809MOL0     C 6663   2.151   1.905  10.313 -0.1431  0.0757 -0.1059
  809MOL0     O 6664   2.141   1.920  10.445  0.6326 -0.2184 -0.5115
  809MOL0     C 6665   2.056   1.849  10.531  0.3380  0.6355  0.0498
  809MOL0     C 6666   2.152   1.781  10.621 -0.6252 -0.2701 -0.4253
  809MOL0     C 6667   2.249   1.671  10.568 -0.1643 -0.1080  0.6998
  809MOL0     C 6668   2.377   1.738  10.531 -0.6858  0.1752 -1.1694
  809MOL0     C 6669   2.454   1.643  10.439  0.1838 -0.6354 -0.0878
  809MOL0     C 6670   2.421   1.646  10.289 -0.1410 -0.0406 -0.5829
  809MOL0     C 6671   2.518   1.547  10.228 -0.4011  0.1333  0.4526
  809MOL0     C 6672   2.529   1.557  10.075 -0.0769  0.8138  0.5169
  809MOL0     N 6673   2.405   1.493  10.012  0.7104 -0.5635  0.6739
  809MOL0     C 6674   2.390   1.353  10.002  0.5419  0.2440  0.1539
  809MOL0     C 6675   2.272   1.330   9.938 -0.4940 -0.2425 -0.7921
  809MOL0     C 6676   2.209   1.202   9.910 -0.2610 -0.7418  0.2581
  809MOL0     C 6677   2.286   1.119   9.800  0.2075 -0.5755 -0.4579
  809MOL0     C 6678   2.329   1.201   9.669  0.1192  0.4339  0.3958
  809MOL0     C 6679   2.200   1.225   9.583 -0.5683  0.2369 -0.4504
  809MOL0     O 6680   2.172   1.111   9.494 -0.0006 -0.1702  0.0603
  809MOL0     C 6681   2.175   1.148   9.363 -0.0106 -0.5528 -0.5905
  809MOL0     C 6682   2.301   1.176   9.303  0.4864  0.0662  0.3130
  809MOL0     C 6683   2.287   1.212   9.172  0.6800  0.4095  0.0820
  809MOL0     C 6684   2.172   1.225   9.096 -0.9395  0.0875  0.6248
  809MOL0     C 6685   2.195   1.255   8.951 -0.0557 -0.2980  0.4013
  809MOL0     O 6686   2.315   1.222   8.888 -0.7718 -0.3271  0.2069
  809MOL0     C 6687   2.321   1.241   8.755 -0.2764 -0.2785  0.6216
  809MOL0     C 6688   2.324   1.367   8.681 -0.0736  0.9805  0.1417
  809MOL0     C 6689   2.330   1.366   8.535 -0.3219  0.5606 -0.0629
  809MOL0     C 6690   2.336   1.246   8.461  0.7859 -0.2088  0.5816
  809MOL0     O 6691   2.354   1.258   8.326 -0.4419 -0.2697  0.5979
  809MOL0     C 6692   2.293   1.162   8.241 -0.0774  0.9900 -0.2385
  809MOL0     C 6693   2.398   1.063   8.201 -0.4221 -0.3614  0.5713
  809MOL0     C 6694   2.515   1.129   8.125 -0.3260 -0.7562 -0.2280
  809MOL0     C 6695   2.601   1.012   8.083  0.2737  0.7224 -0.1778
  809MOL0     C 6696   2.734   1.066   8.033  0.1674  0.1099  1.0320
  809MOL0     C 6697   2.716   1.154   7.903  0.3464 -1.3624  0.1213
  809MOL0     C 6698   2.854   1.186   7.833 -0.6987  1.0192 -0.9181
  809MOL0     C 6699   2.896   1.338   7.860  0.2731 -0.3459  0.0553
  809MOL0    Cl 6700   3.052   1.380   7.790 -0.7494  0.1930  0.2217
  809MOL0     C 6701   2.315   1.140   8.531  0.5337  0.4381  0.2844
  809MOL0     C 6702   2.326   1.130   8.669  0.2711  0.4150 -0.0705
  809MOL0     O 6703   2.100   1.309   8.904 -0.0463  0.1656 -0.1700
  809MOL0     C 6704   2.053   1.203   9.165  0.3607 -0.1938 -0.6563
  809MOL0     C 6705   2.051   1.167   9.303 -0.6601 -0.4221  0.3338
  809MOL0     N 6706   2.218   1.455   9.901 -0.4501  0.3363 -0.0953
  809MOL0     N 6707   2.292   1.549   9.948  0.0221  0.1752 -0.8066
  809MOL0     C 6708   2.118   1.802  10.231  0.2513  0.4399  0.7270
  809MOL0     C 6709   2.144   1.819  10.092 -0.6564 -0.1428  0.1224
  809MOL0     C 6710   2.206   1.987   9.683 -0.2622 -0.0008  0.6776
  809MOL0     C 6711   2.327   1.928   9.649  0.8751 -0.0113 -0.1068
  809MOL0     C 6712   2.371   1.925   9.521 -0.1129  0.5461 -1.5686
  809MOL0     C 6713   2.299   1.979   9.417 -0.6572 -0.3879 -0.0866
  809MOL0     O 6714   2.341   1.975   9.281  0.4800  0.9399  0.0751
  809MOL0     C 6715   2.459   1.898   9.245 -0.2644 -0.3091  0.8996
  809MOL0     C 6716   2.457   1.897   9.090 -0.5964  0.2546 -0.1332
  809MOL0     C 6717   2.373   1.779   9.035  0.2645 -0.1336 -0.0620
  809MOL0     C 6718   2.358   1.761   8.880  1.0184 -0.0229  0.2827
  809MOL0     C 6719   2.481   1.704   8.816  0.3177  0.2285 -1.2718
  809MOL0     C 6720   2.593   1.669   8.779  0.2719 -0.1392  1.1402
  809MOL0     C 6721   2.181   2.048   9.449  0.0552 -0.0658  0.2231
  809MOL0     C 6722   2.130   2.045   9.580  0.3777 -0.3358 -0.0575
  809MOL0     H 6723   2.286   2.129  10.099  1.4909 -1.2118 -1.2829
  809MOL0     H 6724   2.243   2.089  10.331 -0.3931 -1.5779  0.5271
  809MOL0     H 6725   1.995   1.783  10.470  0.4198  2.2314 -1.8709
  809MOL0     H 6726   1.991   1.925  10.576  1.2327  2.0958 -1.0146
  809MOL0     H 6727   2.095   1.732  10.701  3.5544  0.4337  3.3630
  809MOL0     H 6728   2.211   1.859  10.670  0.6909 -0.1712 -2.0989
  809MOL0     H 6729   2.202   1.624  10.481  1.7146 -2.1392  0.6908
  809MOL0     H 6730   2.258   1.595  10.646 -0.4147  2.3876  3.2951
  809MOL0     H 6731   2.364   1.838  10.488  3.5345  0.8670 -1.2206
  809MOL0     H 6732   2.429   1.766  10.623 -0.7614 -2.6999 -0.1534
  809MOL0     H 6733   2.444   1.544  10.486  2.8058  0.5988  3.6026
  809MOL0     H 6734   2.560   1.668  10.448 -0.0093  0.0393  0.4227
  809MOL0     H 6735   2.439   1.748  10.255 -3.5537  0.6026 -0.8210
  809MOL0     H 6736   2.324   1.604  10.262 -0.6463 -0.0460  1.1475
  809MOL0     H 6737   2.623   1.564  10.256  0.0674 -2.0134  0.1308
  809MOL0     H 6738   2.495   1.446  10.261 -3.1521  0.0957 -1.2885
  809MOL0     H 6739   2.613   1.503  10.029 -0.5432  1.6661 -1.4721
  809MOL0     H 6740   2.543   1.662  10.048 -2.1290  1.1825  0.7796
  809MOL0     H 6741   2.468   1.282  10.030 -0.2726 -0.5335  0.5190
  809MOL0     H 6742   2.105   1.217   9.883 -0.8585  0.3819  2.8775
  809MOL0     H 6743   2.198   1.143  10.001 -1.9619  1.8447  1.8439
  809MOL0     H 6744   2.231   1.028   9.773  2.7026 -1.5196 -2.8713
  809MOL0     H 6745   2.377   1.085   9.850 -1.6989 -1.3905  2.7914
  809MOL0     H 6746   2.385   1.290   9.699 -2.6595  1.8269  1.8545
  809MOL0     H 6747   2.399   1.139   9.611 -1.4707 -1.1604  0.0875
  809MOL0     H 6748   2.205   1.314   9.519  1.5411 -1.4918 -2.9129
  809MOL0     H 6749   2.118   1.243   9.654  3.9407  0.5124  5.5204
  809MOL0     H 6750   2.394   1.161   9.356  0.9485  2.2270  0.2043
  809MOL0     H 6751   2.383   1.228   9.122  1.2305 -1.3203  0.5163
  809MOL0     H 6752   2.318   1.459   8.739 -0.0864  1.6708 -0.9310
  809MOL0     H 6753   2.332   1.459   8.479 -0.7022  1.8737  2.0045
  809MOL0     H 6754   2.246   1.210   8.154  0.0806  1.3260 -0.1401
  809MOL0     H 6755   2.210   1.102   8.277  0.8301 -0.9717 -1.2288
  809MOL0     H 6756   2.356   0.984   8.138  0.5840  0.9109 -1.8689
  809MOL0     H 6757   2.445   1.024   8.292 -0.5690 -0.6708  0.5171
  809MOL0     H 6758   2.579   1.195   8.184  0.3734 -0.2316 -1.5456
  809MOL0     H 6759   2.484   1.186   8.037  0.5359  0.6794  0.3607
  809MOL0     H 6760   2.627   0.955   8.173  1.6365  1.1455 -0.2865
  809MOL0     H 6761   2.571   0.941   8.005  4.4245 -2.8521  1.0774
  809MOL0     H 6762   2.799   0.986   7.999 -1.1827  0.3821 -2.7445
  809MOL0     H 6763   2.785   1.128   8.107  0.4254  0.3784  0.6335
  809MOL0     H 6764   2.680   1.250   7.941  2.1408 -0.3122 -0.6745
  809MOL0     H 6765   2.641   1.113   7.835 -0.1400  1.0292 -0.8864
  809MOL0     H 6766   2.935   1.121   7.867  1.0572  2.6428 -1.7822
  809MOL0     H 6767   2.842   1.181   7.724 -0.2579  0.4693 -0.9465
  809MOL0     H 6768   2.904   1.368   7.965 -1.3111 -1.2346  0.4609
  809MOL0     H 6769   2.819   1.393   7.806  1.6346  0.3332 -1.2613
  809MOL0     H 6770   2.313   1.041   8.486 -0.2230  0.0248  1.1808
  809MOL0     H 6771   2.308   1.028   8.699 -3.7828  1.0908  0.3253
  809MOL0     H 6772   1.956   1.215   9.117  0.5852  1.5077 -0.7635
  809MOL0     H 6773   1.966   1.149   9.369 -1.1167 -2.9240 -0.8049
  809MOL0     H 6774   2.077   1.704  10.253  0.7856 -0.1289 -0.6879
  809MOL0     H 6775   2.125   1.742  10.018  0.4508  2.5907 -3.3059
  809MOL0     H 6776   2.391   1.874   9.718 -2.3125 -2.9049  0.8476
  809MOL0     H 6777   2.470   1.881   9.513  0.6690  2.0065 -0.4474
  809MOL0     H 6778   2.445   1.797   9.284 -1.6114  0.4791  2.6201
  809MOL0     H 6779   2.543   1.950   9.292  1.0947 -2.2961  0.7971
  809MOL0     H 6780   2.428   2.000   9.066 -0.3456  1.1827  3.1599
  809MOL0     H 6781   2.557   1.868   9.056 -1.6854 -1.5758 -2.0641
  809MOL0     H 6782   2.273   1.791   9.078  1.1005  0.8990  1.6737
  809MOL0     H 6783   2.407   1.686   9.081 -3.4408 -1.5572  0.1153
  809MOL0     H 6784   2.279   1.690   8.855  0.9884  1.7398 -6.4496
  809MOL0     H 6785   2.315   1.854   8.842 -1.7301 -1.1578  0.3331
  809MOL0     H 6786   2.691   1.668   8.736  1.7356 -1.4188  4.1873
  809MOL0     H 6787   2.130   2.101   9.369 -0.8809 -1.1974  0.0528
  809MOL0     H 6788   2.040   2.104   9.591 -0.5128 -1.2865 -1.7955
  810MOL0     O 6789   9.627   2.695   6.918  0.4854  0.0685  0.0995
  810MOL0     C 6790   9.627   2.811   6.925 -0.0728 -0.3172  0.2956
  810MOL0     O 6791   9.663   2.899   6.829  0.1443  0.5405 -0.1396
  810MOL0     C 6792   9.731   2.876   6.717  0.0762 -0.3407  0.0238
  810MOL0     C 6793   9.824   2.770   6.714  0.2078 -1.0158 -0.9894
  810MOL0     C 6794   9.915   2.751   6.612  0.2316  0.4046 -0.3932
  810MOL0     C 6795   9.903   2.831   6.496  0.3426  0.0630 -1.2661
  810MOL0     O 6796   9.978   2.818   6.384 -0.3300 -0.3183  0.6720
  810MOL0     C 6797  10.105   2.747   6.394 -0.2071 -0.2934 -0.4397
  810MOL0     C 6798  10.165   2.749   6.250 -0.6052  0.1069  0.0044
  810MOL0     C 6799  10.075   2.692   6.137 -0.2365 -1.2615  0.3515
  810MOL0     C 6800  10.152   2.652   6.006 -0.1608  0.1438 -0.0692
  810MOL0     C 6801  10.050   2.659   5.891 -0.4079 -0.0959  0.7708
  810MOL0     C 6802  10.108   2.647   5.748 -0.3713 -0.2498 -0.5615
  810MOL0     C 6803  10.135   2.501   5.718 -0.2013  0.4297  1.1288
  810MOL0     C 6804  10.143   2.471   5.572  0.3465  0.0321  0.0587
  810MOL0     N 6805  10.176   2.324   5.559  0.9905 -0.2120  0.0346
  810MOL0     C 6806  10.296   2.270   5.591 -0.1241  1.4144  0.9537
  810MOL0     C 6807  10.268   2.133   5.581  0.9723  0.2838  0.0059
  810MOL0     C 6808  10.370   2.028   5.613  0.3585  0.0379 -0.3102
  810MOL0     C 6809  10.424   1.959   5.481  0.2119 -0.7023  0.2117
  810MOL0     C 6810  10.485   1.816   5.485 -0.0242  1.1546  0.5448
  810MOL0     C 6811  10.596   1.791   5.587 -0.4326 -0.1226  0.3190
  810MOL0     O 6812  10.713   1.842   5.534 -0.9005 -1.1535 -0.5295
  810MOL0     C 6813  10.831   1.809   5.587 -0.7469  0.2207 -0.0877
  810MOL0     C 6814  10.941   1.877   5.531  0.0221  0.3713 -1.1783
  810MOL0     C 6815  11.067   1.866   5.576  0.9517 -0.5035 -0.6917
  810MOL0     C 6816  11.090   1.792   5.694 -0.5683  0.0440 -0.2604
  810MOL0     C 6817  11.223   1.788   5.761 -0.5462  0.8121  0.2231
  810MOL0     O 6818  11.240   1.689   5.855 -0.0663 -0.8559 -0.1877
  810MOL0     C 6819  11.329   1.734   5.960  0.0161  0.4340  0.3411
  810MOL0     C 6820  11.466   1.715   5.932  1.0045  0.8412 -0.2743
  810MOL0     C 6821  11.563   1.751   6.018 -0.4480  1.1688 -0.1342
  810MOL0     C 6822  11.528   1.791   6.151  0.0081 -0.1772  0.9732
  810MOL0     O 6823  11.635   1.819   6.238 -0.7738 -0.0449 -0.2670
  810MOL0     C 6824  11.655   1.743   6.358 -0.2496  0.7704  0.2924
  810MOL0     C 6825  11.787   1.667   6.357  0.2650  0.4419 -0.1668
  810MOL0     C 6826  11.908   1.749   6.320  0.0566 -0.3403  0.2933
  810MOL0     C 6827  12.022   1.659   6.297 -0.0749 -0.4447  0.4160
  810MOL0     C 6828  12.076   1.590   6.432  0.2603 -0.4037 -0.6119
  810MOL0     C 6829  12.109   1.683   6.548  0.0115 -0.9641  0.2304
  810MOL0     C 6830  12.175   1.595   6.656 -0.0527 -1.0557 -0.4041
  810MOL0     C 6831  12.262   1.662   6.769  0.3087 -0.6571  0.0506
  810MOL0    Cl 6832  12.191   1.818   6.833 -0.1522 -0.1643  0.0862
  810MOL0     C 6833  11.396   1.788   6.193  0.4649 -0.1040 -0.1464
  810MOL0     C 6834  11.293   1.755   6.094  0.8469 -0.6752  0.7718
  810MOL0     O 6835  11.293   1.886   5.745 -0.6203  0.6835  0.2090
  810MOL0     C 6836  10.988   1.720   5.747 -1.2496  0.3180  0.0669
  810MOL0     C 6837  10.855   1.725   5.690  0.6723  0.0356 -0.4823
  810MOL0     N 6838  10.141   2.116   5.537  0.1302  0.1360  0.1014
  810MOL0     N 6839  10.088   2.224   5.533  0.2070 -0.2164  0.2564
  810MOL0     C 6840   9.821   2.941   6.495  0.1325 -0.2140 -0.6666
  810MOL0     C 6841   9.732   2.965   6.604  0.1813 -1.0080 -0.3349
  810MOL0     C 6842   9.568   2.870   7.048 -0.1646  0.6084  0.1988
  810MOL0     C 6843   9.498   2.988   7.035  0.1907  0.5923  0.6477
  810MOL0     C 6844   9.446   3.036   7.149  0.9649 -0.4391 -0.6192
  810MOL0     C 6845   9.449   2.965   7.271  0.0442 -0.4251 -0.6642
  810MOL0     O 6846   9.374   3.014   7.377 -0.4118  0.9000  0.0064
  810MOL0     C 6847   9.232   3.001   7.362 -0.4813 -0.3749 -0.0527
  810MOL0     C 6848   9.149   3.042   7.481  0.1406  0.0082 -1.2901
  810MOL0     C 6849   9.186   3.189   7.530 -0.1321 -0.1539  0.5310
  810MOL0     C 6850   9.061   3.252   7.597  0.4294 -0.1064  0.0821
  810MOL0     C 6851   9.045   3.195   7.735 -0.4699 -0.6025  0.2771
  810MOL0     C 6852   9.043   3.145   7.848 -0.2614 -0.8477 -0.8623
  810MOL0     C 6853   9.523   2.848   7.284  0.4002 -0.5076 -0.1466
  810MOL0     C 6854   9.591   2.798   7.168  0.4454 -0.7804 -0.5152
  810MOL0     H 6855   9.828   2.698   6.795  0.0145 -1.6477 -1.5350
  810MOL0     H 6856   9.981   2.665   6.616  0.1404  0.3678  0.5945
  810MOL0     H 6857  10.094   2.646   6.434 -0.3658  0.3300  1.1685
  810MOL0     H 6858  10.155   2.805   6.472 -1.5851  3.4985 -2.0944
  810MOL0     H 6859  10.261   2.697   6.252  0.5570  2.1539  1.6838
  810MOL0     H 6860  10.177   2.854   6.220 -1.5420  0.3747  0.5187
  810MOL0     H 6861   9.999   2.765   6.107 -3.6454 -4.0888  1.5000
  810MOL0     H 6862  10.013   2.610   6.174 -4.7688  1.1004 -1.2872
  810MOL0     H 6863  10.232   2.726   5.996 -1.1668  1.1556 -0.8570
  810MOL0     H 6864  10.198   2.554   6.019  2.3161  1.2031 -0.1563
  810MOL0     H 6865   9.996   2.754   5.889 -0.8209 -0.2237  2.9647
  810MOL0     H 6866   9.966   2.593   5.912 -0.7793  0.6622  1.7677
  810MOL0     H 6867  10.198   2.705   5.726 -1.0484 -0.8883 -7.0332
  810MOL0     H 6868  10.043   2.712   5.687  0.5774  4.0266  2.4992
  810MOL0     H 6869  10.228   2.463   5.760  0.0356 -0.2449  0.0411
  810MOL0     H 6870  10.061   2.424   5.740 -1.1493  0.9110 -0.2175
  810MOL0     H 6871  10.227   2.531   5.536 -0.0022  0.5641  0.1191
  810MOL0     H 6872  10.054   2.508   5.520  2.2283  2.9467 -1.4014
  810MOL0     H 6873  10.388   2.322   5.613  0.3888  0.4980  0.9848
  810MOL0     H 6874  10.319   1.963   5.683  0.0839  0.6540  0.0724
  810MOL0     H 6875  10.447   2.082   5.670  0.3659 -0.1137 -0.1776
  810MOL0     H 6876  10.489   2.026   5.424 -1.1316  0.6783  0.2354
  810MOL0     H 6877  10.335   1.948   5.419 -0.3124 -0.9555  0.9958
  810MOL0     H 6878  10.397   1.752   5.499 -0.4437  1.8798  1.3494
  810MOL0     H 6879  10.534   1.790   5.391 -1.3105  4.1602 -1.1267
  810MOL0     H 6880  10.617   1.684   5.595 -1.6701 -0.3444  0.7426
  810MOL0     H 6881  10.563   1.809   5.690 -1.0048  0.5138  0.0262
  810MOL0     H 6882  10.918   1.938   5.444 -2.0404  1.5127  0.0659
  810MOL0     H 6883  11.156   1.908   5.529  1.8685 -1.3460  0.2412
  810MOL0     H 6884  11.497   1.691   5.830  0.9762 -3.9496  0.5964
  810MOL0     H 6885  11.661   1.734   5.974 -0.1126 -1.0766  1.3553
  810MOL0     H 6886  11.577   1.666   6.365 -0.3165  0.8891  0.9529
  810MOL0     H 6887  11.650   1.811   6.444 -1.9302  5.6617 -3.1993
  810MOL0     H 6888  11.782   1.599   6.271  2.4432 -1.0569  0.7723
  810MOL0     H 6889  11.806   1.614   6.451  1.9342 -0.0838 -0.7594
  810MOL0     H 6890  11.933   1.814   6.404 -0.0559  1.0035 -0.6863
  810MOL0     H 6891  11.880   1.807   6.232 -3.2364  1.2136  2.1618
  810MOL0     H 6892  11.995   1.580   6.226  0.1182 -1.8179  1.8001
  810MOL0     H 6893  12.109   1.714   6.261 -1.3578  2.7153  1.8181
  810MOL0     H 6894  12.167   1.539   6.398  0.4068  0.0853 -0.9822
  810MOL0     H 6895  11.996   1.521   6.459 -0.5115  1.1622  1.3091
  810MOL0     H 6896  12.016   1.737   6.569 -0.2156 -1.2983  0.0937
  810MOL0     H 6897  12.174   1.757   6.500 -1.5995  0.3850  0.0148
  810MOL0     H 6898  12.098   1.530   6.697  0.2583 -1.3108 -0.2180
  810MOL0     H 6899  12.229   1.511   6.613  2.2016 -2.0571  3.8528
  810MOL0     H 6900  12.365   1.667   6.734  0.5307 -4.0335 -0.1350
  810MOL0     H 6901  12.268   1.590   6.851 -0.4287 -0.0075  0.6916
  810MOL0     H 6902  11.366   1.821   6.292 -1.8856 -0.5703 -0.6425
  810MOL0     H 6903  11.188   1.754   6.120  0.0129  0.1230 -2.1511
  810MOL0     H 6904  11.009   1.656   5.833  0.7021 -0.7031 -1.0916
  810MOL0     H 6905  10.776   1.667   5.736 -1.1054  2.6206 -0.0996
  810MOL0     H 6906   9.819   3.005   6.408  0.7125 -2.8399 -2.7539
  810MOL0     H 6907   9.657   3.044   6.601  0.1269 -1.0396  0.1101
  810MOL0     H 6908   9.492   3.033   6.937  2.0439 -1.1802 -0.3467
  810MOL0     H 6909   9.391   3.129   7.150  0.5985 -0.6364  0.6570
  810MOL0     H 6910   9.214   2.897   7.334 -1.6310 -0.2644  0.2489
  810MOL0     H 6911   9.197   3.052   7.271 -0.3722  2.5265  1.4139
  810MOL0     H 6912   9.045   3.029   7.452 -1.1245 -0.6584  2.8384
  810MOL0     H 6913   9.169   2.964   7.556  2.6646  0.4367 -1.4245
  810MOL0     H 6914   9.219   3.237   7.437  1.2695  3.8535  2.8757
  810MOL0     H 6915   9.275   3.193   7.593  1.7059 -0.0432 -1.9033
  810MOL0     H 6916   9.087   3.358   7.607 -0.0710  0.1266 -1.0156
  810MOL0     H 6917   8.968   3.253   7.540 -0.3908  4.0129  1.1303
  810MOL0     H 6918   9.050   3.102   7.946  0.0701  2.2182  0.5622
  810MOL0     H 6919   9.519   2.804   7.383 -0.8434  4.2210  2.1590
  810MOL0     H 6920   9.661   2.715   7.182  1.9110  0.6796  1.4531
  811MOL0     O 6921   9.924   5.084   9.025 -0.3176 -0.1807  0.4140
  811MOL0     C 6922   9.942   4.992   9.101  0.4922 -0.0978  0.0361
  811MOL0     O 6923   9.843   4.959   9.193 -0.2501 -0.0684 -0.5569
  811MOL0     C 6924   9.759   5.058   9.246 -0.0664 -0.0200 -0.5843
  811MOL0     C 6925   9.630   5.081   9.200  0.2355 -1.1009  0.2589
  811MOL0     C 6926   9.556   5.192   9.222  0.8420  0.1644 -0.3044
  811MOL0     C 6927   9.593   5.267   9.338 -0.0093  0.0794  0.5495
  811MOL0     O 6928   9.509   5.354   9.395 -0.3639 -0.8055 -0.5377
  811MOL0     C 6929   9.364   5.322   9.407  0.5406  0.5785 -0.9405
  811MOL0     C 6930   9.292   5.410   9.515 -0.0254 -0.7629 -0.1729
  811MOL0     C 6931   9.268   5.548   9.463  0.4719 -0.1712 -0.2510
  811MOL0     C 6932   9.193   5.617   9.585 -0.3589 -0.1954 -0.0506
  811MOL0     C 6933   9.128   5.750   9.540 -0.3320  0.6679 -0.0797
  811MOL0     C 6934   9.245   5.855   9.531 -1.0397 -0.3288  0.4606
  811MOL0     C 6935   9.179   5.992   9.536 -0.0660 -0.1892 -0.8478
  811MOL0     C 6936   9.274   6.106   9.512 -0.0799  0.1186  0.2696
  811MOL0     N 6937   9.363   6.100   9.395 -0.6835  0.6694  0.1289
  811MOL0     C 6938   9.492   6.045   9.399  0.6405 -0.0206 -0.3955
  811MOL0     C 6939   9.536   6.073   9.268  1.0000 -0.5376 -0.7296
  811MOL0     C 6940   9.670   6.033   9.222 -0.9865  1.1975 -0.2694
  811MOL0     C 6941   9.737   5.899   9.278  0.2770 -0.2175  0.6443
  811MOL0     C 6942   9.662   5.783   9.237  0.5248  0.5146 -0.6022
  811MOL0     C 6943   9.739   5.657   9.285 -0.1031 -1.2748 -0.0565
  811MOL0     O 6944   9.865   5.644   9.225 -0.5465  0.0425  0.4127
  811MOL0     C 6945   9.885   5.564   9.120  0.3995  0.4724  0.3188
  811MOL0     C 6946  10.003   5.573   9.058  0.6309  0.4070  1.1582
  811MOL0     C 6947  10.035   5.483   8.951 -0.5460 -0.7500 -0.2955
  811MOL0     C 6948   9.946   5.385   8.902 -0.5124 -0.2095 -1.0924
  811MOL0     C 6949   9.992   5.297   8.794 -0.3732  0.0019  0.6909
  811MOL0     O 6950   9.895   5.201   8.750  0.2368  0.0773  0.5471
  811MOL0     C 6951   9.939   5.096   8.671  0.6826 -0.1019  0.1467
  811MOL0     C 6952   9.842   5.042   8.592 -0.1835  0.2674  0.4039
  811MOL0     C 6953   9.863   4.932   8.503  0.5685  0.2727 -0.3518
  811MOL0     C 6954   9.992   4.876   8.492 -0.0683 -0.0376 -0.0042
  811MOL0     O 6955  10.036   4.778   8.403  0.0152  0.0999  0.6395
  811MOL0     C 6956   9.963   4.723   8.299  0.0515 -0.1712  1.2334
  811MOL0     C 6957  10.023   4.772   8.153  0.9926  0.0028 -0.9531
  811MOL0     C 6958   9.944   4.713   8.042 -0.2157  1.0079  0.7783
  811MOL0     C 6959   9.932   4.810   7.922  0.2729 -1.0280  0.6303
  811MOL0     C 6960   9.847   4.740   7.811 -0.1617 -0.2900 -0.0596
  811MOL0     C 6961   9.859   4.818   7.684  0.2198 -1.0877  0.2111
  811MOL0     C 6962   9.818   4.747   7.561  0.3987 -0.3895 -0.8630
  811MOL0     C 6963   9.784   4.832   7.434 -1.3011 -0.0774 -0.7159
  811MOL0    Cl 6964   9.702   4.735   7.311 -0.2096  0.7031  0.2446
  811MOL0     C 6965  10.074   4.915   8.587 -0.6874 -0.4070 -0.3527
  811MOL0     C 6966  10.050   5.023   8.674 -0.7363  0.1470  0.7211
  811MOL0     O 6967  10.112   5.303   8.756 -0.2006 -0.3351  0.4628
  811MOL0     C 6968   9.830   5.378   8.979  0.4404  0.2212  0.0370
  811MOL0     C 6969   9.789   5.472   9.070  1.1018 -0.0920 -0.3256
  811MOL0     N 6970   9.430   6.132   9.195  0.9667 -0.8104 -0.7965
  811MOL0     N 6971   9.330   6.136   9.269  0.3434 -0.1217 -0.6119
  811MOL0     C 6972   9.724   5.249   9.398  0.2363  0.7177  0.6228
  811MOL0     C 6973   9.807   5.147   9.344 -0.0137 -0.7946  0.4879
  811MOL0     C 6974  10.084   4.932   9.107  0.0400  0.3886  0.5682
  811MOL0     C 6975  10.190   4.997   9.057 -0.0810 -0.2438  0.0614
  811MOL0     C 6976  10.315   4.941   9.057 -1.5896 -0.1811 -0.3248
  811MOL0     C 6977  10.344   4.821   9.130  0.0630 -0.8393  0.7350
  811MOL0     O 6978  10.466   4.756   9.124 -0.1937  0.2481 -0.4204
  811MOL0     C 6979  10.579   4.835   9.113 -0.1040 -0.4586  0.1520
  811MOL0     C 6980  10.703   4.776   9.193  0.0485 -0.5078  0.0760
  811MOL0     C 6981  10.677   4.737   9.333  0.7368 -0.1497 -0.0055
  811MOL0     C 6982  10.813   4.699   9.382  0.8266 -0.2689  0.6498
  811MOL0     C 6983  10.801   4.648   9.521  0.2160 -0.2723  0.2585
  811MOL0     C 6984  10.799   4.612   9.636  0.7814 -0.3478 -1.1106
  811MOL0     C 6985  10.239   4.760   9.198  1.3357 -0.4649 -0.3582
  811MOL0     C 6986  10.113   4.801   9.171 -1.7289  0.6533 -0.1575
  811MOL0     H 6987   9.598   5.032   9.109 -1.8500  1.1534 -0.3417
  811MOL0     H 6988   9.455   5.207   9.183  1.3625  0.5321 -1.5487
  811MOL0     H 6989   9.359   5.215   9.426 -1.2769 -0.2704 -5.0037
  811MOL0     H 6990   9.313   5.336   9.311 -1.5297 -4.3593 -0.8312
  811MOL0     H 6991   9.352   5.412   9.607 -0.0598  3.5606 -0.0706
  811MOL0     H 6992   9.200   5.356   9.542  0.2209 -0.2011  1.9400
  811MOL0     H 6993   9.196   5.558   9.382 -1.1820  1.2737  1.3125
  811MOL0     H 6994   9.363   5.596   9.437  0.5036 -0.3610 -0.4891
  811MOL0     H 6995   9.113   5.551   9.621  0.7238 -3.3588 -2.8923
  811MOL0     H 6996   9.266   5.632   9.665  0.1733  0.9409 -0.7301
  811MOL0     H 6997   9.051   5.769   9.615  0.1725 -1.1966  0.9448
  811MOL0     H 6998   9.076   5.735   9.444 -3.0568  2.8568  0.9212
  811MOL0     H 6999   9.300   5.840   9.438  0.1265  1.9123  0.7128
  811MOL0     H 7000   9.317   5.847   9.612 -2.8153  1.7079  2.3867
  811MOL0     H 7001   9.106   5.988   9.454 -0.3107 -2.2382 -0.5911
  811MOL0     H 7002   9.134   6.006   9.634  1.1326 -1.6919 -0.0503
  811MOL0     H 7003   9.337   6.132   9.597  0.3345 -1.1378  0.3690
  811MOL0     H 7004   9.207   6.187   9.480  0.2278 -1.3069 -5.0432
  811MOL0     H 7005   9.547   6.020   9.489 -1.9427 -1.3667  0.9258
  811MOL0     H 7006   9.740   6.112   9.252 -3.1948  3.4135 -0.6203
  811MOL0     H 7007   9.675   6.035   9.112  2.4963  0.0669 -0.2480
  811MOL0     H 7008   9.744   5.891   9.387  1.6464 -0.3386  0.5737
  811MOL0     H 7009   9.841   5.906   9.242  0.2307  2.5126  0.7887
  811MOL0     H 7010   9.565   5.786   9.287  1.1921  1.6905  0.6556
  811MOL0     H 7011   9.649   5.772   9.129 -1.5114 -2.3284 -0.1875
  811MOL0     H 7012   9.679   5.565   9.289 -0.7523 -0.8700 -0.3565
  811MOL0     H 7013   9.742   5.679   9.392 -1.8273 -1.9490  0.1667
  811MOL0     H 7014  10.074   5.651   9.082  1.3309  0.6465 -1.4698
  811MOL0     H 7015  10.128   5.480   8.895 -0.3513  0.3520 -0.0626
  811MOL0     H 7016   9.743   5.084   8.603 -0.3442 -0.0271  0.1204
  811MOL0     H 7017   9.776   4.905   8.445 -1.3216  0.4465  2.2104
  811MOL0     H 7018   9.856   4.743   8.310  0.6142  3.3649  1.3805
  811MOL0     H 7019   9.976   4.614   8.305 -1.4765 -0.5885 -1.4002
  811MOL0     H 7020  10.130   4.757   8.138  1.0838 -1.0859  0.6518
  811MOL0     H 7021  10.006   4.881   8.156 -0.5285 -0.1634 -1.9863
  811MOL0     H 7022   9.841   4.686   8.064 -1.0018  0.1305 -3.1128
  811MOL0     H 7023   9.991   4.618   8.015 -0.5160  0.7125  1.2853
  811MOL0     H 7024   9.884   4.900   7.960  0.9538 -1.0529  1.5629
  811MOL0     H 7025  10.027   4.848   7.883  0.2866 -0.2285  1.4084
  811MOL0     H 7026   9.741   4.722   7.832 -1.2309  1.8744 -2.9563
  811MOL0     H 7027   9.889   4.641   7.788  1.0912  0.5248 -1.4394
  811MOL0     H 7028   9.965   4.845   7.677  0.0600  0.8975  3.4227
  811MOL0     H 7029   9.803   4.910   7.702 -2.3119 -3.1170  4.1744
  811MOL0     H 7030   9.902   4.682   7.535  2.6395  2.1711 -0.4502
  811MOL0     H 7031   9.733   4.687   7.592 -1.0995  0.5893 -2.7856
  811MOL0     H 7032   9.871   4.879   7.387 -3.2697  0.3800 -4.3375
  811MOL0     H 7033   9.715   4.913   7.459 -3.4871 -1.2054 -2.6378
  811MOL0     H 7034  10.176   4.880   8.573  0.2620  1.4811  1.3073
  811MOL0     H 7035  10.137   5.066   8.723  0.2197  0.4892 -1.1852
  811MOL0     H 7036   9.752   5.304   8.961  0.5031 -0.2570  1.5569
  811MOL0     H 7037   9.690   5.460   9.112  0.0253  2.4143 -1.9533
  811MOL0     H 7038   9.749   5.303   9.490  0.1798  1.0065  0.4703
  811MOL0     H 7039   9.906   5.138   9.387  0.9419  0.8704 -1.2113
  811MOL0     H 7040  10.171   5.089   9.001  0.1766  0.6620  1.4118
  811MOL0     H 7041  10.386   4.990   8.992 -1.8693  2.4963  1.2187
  811MOL0     H 7042  10.561   4.939   9.144 -0.7994 -0.6210  0.3104
  811MOL0     H 7043  10.596   4.851   9.006 -3.2257  0.6295 -0.2675
  811MOL0     H 7044  10.742   4.690   9.138  0.8724 -1.2224  1.7036
  811MOL0     H 7045  10.778   4.855   9.194 -3.7281  3.5045 -1.3977
  811MOL0     H 7046  10.617   4.646   9.324  0.6373  0.0230 -1.1748
  811MOL0     H 7047  10.635   4.828   9.377  0.0053 -1.8658  3.1238
  811MOL0     H 7048  10.879   4.628   9.331 -0.2742  0.1687 -1.5147
  811MOL0     H 7049  10.864   4.796   9.385 -0.5266  0.4407  1.5257
  811MOL0     H 7050  10.802   4.583   9.739 -4.2710  3.2802  0.4873
  811MOL0     H 7051  10.260   4.676   9.263 -1.6749  1.7812  4.0484
  811MOL0     H 7052  10.041   4.736   9.220 -1.9055  1.8462  1.2200
  812MOL0     O 7053   3.556   3.038   2.099  0.3513 -0.3625  0.8428
  812MOL0     C 7054   3.671   3.019   2.059  0.2420 -0.3108 -1.1356
  812MOL0     O 7055   3.724   2.902   2.042 -0.0003  0.2288 -0.0016
  812MOL0     C 7056   3.676   2.789   2.114 -0.1684  0.0613  0.7485
  812MOL0     C 7057   3.755   2.737   2.217 -0.1340 -0.5184  0.5483
  812MOL0     C 7058   3.721   2.628   2.287 -1.2098 -0.5013  0.1570
  812MOL0     C 7059   3.595   2.564   2.266  0.1988 -0.3308  0.1114
  812MOL0     O 7060   3.567   2.447   2.334 -0.0438  0.1012 -0.5186
  812MOL0     C 7061   3.668   2.370   2.409  0.7092 -0.3655 -0.2647
  812MOL0     C 7062   3.780   2.307   2.336 -0.5981  0.7698 -0.4256
  812MOL0     C 7063   3.871   2.233   2.435 -0.4964 -0.1666  0.8366
  812MOL0     C 7064   4.001   2.184   2.371 -0.0203  0.8183 -0.2297
  812MOL0     C 7065   4.113   2.227   2.459  0.2549 -0.3804 -0.6322
  812MOL0     C 7066   4.254   2.175   2.424  0.3386 -0.2689  0.7670
  812MOL0     C 7067   4.365   2.210   2.526  0.4595 -0.7588 -0.5422
  812MOL0     C 7068   4.398   2.362   2.534  0.2072 -0.1114 -0.4628
  812MOL0     N 7069   4.484   2.378   2.651 -0.3451  0.9688 -0.9631
  812MOL0     C 7070   4.616   2.333   2.655  0.2470 -0.0462 -0.5348
  812MOL0     C 7071   4.655   2.339   2.783 -1.0239 -0.6256 -0.2261
  812MOL0     C 7072   4.792   2.316   2.838 -0.0134 -0.2786 -0.0976
  812MOL0     C 7073   4.909   2.378   2.749  1.7953  0.8984  0.6762
  812MOL0     C 7074   5.043   2.345   2.820 -0.3792  0.2090 -0.0984
  812MOL0     C 7075   5.161   2.404   2.741  0.7031  0.0875  0.0430
  812MOL0     O 7076   5.158   2.377   2.593 -0.1127 -0.7520  0.0528
  812MOL0     C 7077   5.276   2.359   2.537 -0.5176  0.9921  0.9723
  812MOL0     C 7078   5.281   2.290   2.416  0.3691  0.3429 -1.2950
  812MOL0     C 7079   5.406   2.278   2.348 -0.4026  0.2133 -0.0832
  812MOL0     C 7080   5.528   2.327   2.404  0.8181 -0.1777  0.4658
  812MOL0     C 7081   5.654   2.272   2.345 -1.2691 -0.0207  0.1184
  812MOL0     O 7082   5.756   2.360   2.379  0.0376 -0.2005  1.0899
  812MOL0     C 7083   5.879   2.324   2.348 -0.9467  0.0779  0.2131
  812MOL0     C 7084   5.941   2.364   2.229 -0.2249  0.1559 -0.0237
  812MOL0     C 7085   6.074   2.334   2.200 -0.0028 -0.3174  0.7154
  812MOL0     C 7086   6.150   2.274   2.305 -0.3526  0.3135 -0.3302
  812MOL0     O 7087   6.285   2.250   2.299 -0.3572  0.6554  0.2296
  812MOL0     C 7088   6.336   2.230   2.168 -0.6208  1.6670  0.6604
  812MOL0     C 7089   6.468   2.147   2.160  0.3340 -0.4117  0.1585
  812MOL0     C 7090   6.463   2.002   2.185  0.5713 -0.5389  0.1956
  812MOL0     C 7091   6.599   1.930   2.218 -0.1109 -0.6623 -0.4120
  812MOL0     C 7092   6.694   1.917   2.105  0.4164  0.5395  0.0907
  812MOL0     C 7093   6.825   1.847   2.141 -0.4604  0.5500  0.1140
  812MOL0     C 7094   6.929   1.925   2.223  0.9679  0.3285  0.3567
  812MOL0     C 7095   6.911   1.923   2.375 -0.1476 -0.2561 -0.3256
  812MOL0    Cl 7096   6.950   1.760   2.423  0.7476 -0.1012  0.1043
  812MOL0     C 7097   6.089   2.241   2.425 -0.7682 -0.2000  0.5187
  812MOL0     C 7098   5.954   2.256   2.443  0.6009  0.3908  0.8123
  812MOL0     O 7099   5.660   2.179   2.260 -0.1941  0.0279 -0.0953
  812MOL0     C 7100   5.519   2.391   2.532 -0.0418 -0.3680 -0.5293
  812MOL0     C 7101   5.399   2.414   2.590 -0.2063  0.0946 -0.6332
  812MOL0     N 7102   4.551   2.380   2.860  0.1129 -0.8308  0.5088
  812MOL0     N 7103   4.449   2.400   2.779 -0.0498 -0.2961  0.5498
  812MOL0     C 7104   3.511   2.611   2.174  0.8170 -0.2927  0.2816
  812MOL0     C 7105   3.549   2.728   2.098  0.3469 -0.0073 -0.2311
  812MOL0     C 7106   3.742   3.135   1.997  0.2988 -0.0613  0.1509
  812MOL0     C 7107   3.671   3.260   1.989 -0.4803 -1.1221  0.5969
  812MOL0     C 7108   3.738   3.371   1.939 -0.3017 -0.1856 -0.1459
  812MOL0     C 7109   3.866   3.367   1.896  0.0911  0.1712 -0.2399
  812MOL0     O 7110   3.926   3.476   1.843 -0.1512 -0.4868  0.2017
  812MOL0     C 7111   4.064   3.489   1.852  1.2430  0.7047 -0.2331
  812MOL0     C 7112   4.138   3.456   1.717  0.1731 -0.0417 -0.7426
  812MOL0     C 7113   4.111   3.554   1.604  0.2062 -0.7143 -1.5109
  812MOL0     C 7114   4.182   3.691   1.621  0.0263  0.4274  0.6493
  812MOL0     C 7115   4.171   3.776   1.500  0.6666  1.3800  0.5283
  812MOL0     C 7116   4.144   3.835   1.399  0.9674  1.4156 -0.1762
  812MOL0     C 7117   3.930   3.237   1.899  0.0171 -0.0340  0.9222
  812MOL0     C 7118   3.863   3.119   1.948  0.5716 -0.1526  0.7788
  812MOL0     H 7119   3.853   2.782   2.234 -1.0647  2.1102 -0.5292
  812MOL0     H 7120   3.785   2.590   2.365 -0.3916 -0.5011 -0.4942
  812MOL0     H 7121   3.619   2.290   2.466  1.1159  1.7277  3.3973
  812MOL0     H 7122   3.704   2.433   2.491  0.9214  0.0200 -0.6528
  812MOL0     H 7123   3.845   2.384   2.293 -1.3176  3.4114  2.7922
  812MOL0     H 7124   3.755   2.234   2.259  1.8294 -2.2417  1.3901
  812MOL0     H 7125   3.810   2.155   2.479 -0.0397 -1.3677 -0.5617
  812MOL0     H 7126   3.895   2.298   2.520  0.7720  1.6245 -0.7910
  812MOL0     H 7127   3.992   2.075   2.372 -1.1233  0.8935 -0.0472
  812MOL0     H 7128   4.001   2.214   2.266 -1.3249 -0.0827 -0.5131
  812MOL0     H 7129   4.086   2.193   2.559 -1.3341 -0.4798 -1.0787
  812MOL0     H 7130   4.121   2.336   2.462  1.2585 -0.4000  3.1307
  812MOL0     H 7131   4.280   2.221   2.329 -2.9869  1.4025  0.5162
  812MOL0     H 7132   4.241   2.068   2.410 -1.0064  0.0424 -0.5764
  812MOL0     H 7133   4.347   2.174   2.627 -0.9847  0.4614 -0.3334
  812MOL0     H 7134   4.457   2.166   2.486  2.2823  1.3398  1.0918
  812MOL0     H 7135   4.313   2.430   2.550  0.2573  0.0520 -0.8775
  812MOL0     H 7136   4.461   2.392   2.449  1.5252 -2.3708 -0.3462
  812MOL0     H 7137   4.690   2.295   2.585  1.4333 -2.6934  1.9311
  812MOL0     H 7138   4.808   2.210   2.861  2.4091 -0.0996 -0.7242
  812MOL0     H 7139   4.803   2.366   2.935 -2.0446  1.6002 -0.7798
  812MOL0     H 7140   4.896   2.486   2.749  0.2649  0.7590  2.6551
  812MOL0     H 7141   4.903   2.324   2.654 -1.4696  0.3898  1.0763
  812MOL0     H 7142   5.055   2.392   2.918  1.8449 -0.2214 -0.1094
  812MOL0     H 7143   5.058   2.237   2.829 -0.0146  0.2337 -0.4087
  812MOL0     H 7144   5.245   2.352   2.789 -2.4084 -3.1000  2.5755
  812MOL0     H 7145   5.166   2.511   2.761  1.3945 -0.2398  1.7719
  812MOL0     H 7146   5.191   2.246   2.375 -1.7086  1.3823  1.7451
  812MOL0     H 7147   5.423   2.216   2.261  2.0796  0.0663  0.4228
  812MOL0     H 7148   5.876   2.407   2.154 -0.9589 -2.1573 -0.8196
  812MOL0     H 7149   6.118   2.384   2.115  1.1411 -0.1298  1.3897
  812MOL0     H 7150   6.353   2.324   2.113  2.3874  0.2138 -1.1321
  812MOL0     H 7151   6.254   2.176   2.120  0.8014 -0.4255  0.4728
  812MOL0     H 7152   6.531   2.186   2.240  0.8827  3.0052 -1.7543
  812MOL0     H 7153   6.511   2.156   2.060  2.2184  0.1318  0.9699
  812MOL0     H 7154   6.409   1.945   2.109 -0.5905  0.0487  0.5620
  812MOL0     H 7155   6.405   1.979   2.275  0.1552 -2.9446 -0.5896
  812MOL0     H 7156   6.639   1.988   2.302 -1.7482 -1.5037  1.0147
  812MOL0     H 7157   6.567   1.834   2.257 -0.5835 -0.2149  0.3315
  812MOL0     H 7158   6.700   2.018   2.063  1.6446 -0.1951 -1.5897
  812MOL0     H 7159   6.635   1.858   2.035 -0.9004  0.9912  0.7782
  812MOL0     H 7160   6.878   1.812   2.052 -2.7155  0.8529 -1.4492
  812MOL0     H 7161   6.794   1.751   2.182 -0.3970 -0.6759 -2.4991
  812MOL0     H 7162   7.024   1.880   2.192  0.3283 -0.2741 -0.7596
  812MOL0     H 7163   6.929   2.032   2.201  0.6452  0.6079  1.6081
  812MOL0     H 7164   6.813   1.954   2.412  0.1534  0.4647 -0.1157
  812MOL0     H 7165   6.977   1.994   2.427 -0.4386 -1.6355  2.1257
  812MOL0     H 7166   6.156   2.213   2.505 -0.9254  0.1427  0.7781
  812MOL0     H 7167   5.908   2.227   2.537  1.7606 -0.9809  1.0009
  812MOL0     H 7168   5.616   2.413   2.576 -0.0728  0.9493 -1.0695
  812MOL0     H 7169   5.401   2.455   2.691  2.0369 -4.9616  1.7665
  812MOL0     H 7170   3.409   2.575   2.175  0.2311  1.2956  1.3630
  812MOL0     H 7171   3.494   2.771   2.015 -1.3513 -0.8728  0.3952
  812MOL0     H 7172   3.571   3.276   2.029  0.3209  3.6327  1.2923
  812MOL0     H 7173   3.686   3.466   1.945 -0.1481 -0.1576  1.1171
  812MOL0     H 7174   4.097   3.429   1.937 -2.2801  0.7097  1.3069
  812MOL0     H 7175   4.081   3.594   1.874 -0.1364  0.6841  1.0871
  812MOL0     H 7176   4.244   3.468   1.744 -0.3225  2.5093  0.3544
  812MOL0     H 7177   4.140   3.352   1.683  3.0413 -0.4901  0.4769
  812MOL0     H 7178   4.004   3.572   1.609  0.4397  0.5176 -0.2144
  812MOL0     H 7179   4.137   3.516   1.504 -1.3846 -1.6647 -1.5990
  812MOL0     H 7180   4.138   3.742   1.708  2.0513 -1.1027  2.6903
  812MOL0     H 7181   4.288   3.678   1.642  0.3294  0.5106 -0.7196
  812MOL0     H 7182   4.106   3.870   1.305 -0.2197 -1.5426 -0.9267
  812MOL0     H 7183   4.029   3.228   1.856  0.5995 -2.3312  2.5808
  812MOL0     H 7184   3.926   3.032   1.958  2.9221  1.4987  1.2515
  813MOL0     O 7185   1.274   7.761   6.632 -0.5889  0.3918  0.1188
  813MOL0     C 7186   1.234   7.832   6.723 -0.4441 -0.4891  0.5708
  813MOL0     O 7187   1.307   7.889   6.826 -0.6877 -0.4669  1.2444
  813MOL0     C 7188   1.437   7.859   6.833 -0.0513  0.4605 -0.8045
  813MOL0     C 7189   1.526   7.945   6.768 -0.5319 -0.5606  0.5569
  813MOL0     C 7190   1.667   7.931   6.765 -0.7945  0.3220  0.4044
  813MOL0     C 7191   1.716   7.832   6.854 -0.4556 -0.2881  0.6234
  813MOL0     O 7192   1.850   7.847   6.863 -0.1233  0.2068  0.1884
  813MOL0     C 7193   1.918   7.738   6.937 -0.8651 -1.5133  0.4420
  813MOL0     C 7194   1.951   7.744   7.085  0.4221 -0.7135  1.0665
  813MOL0     C 7195   2.070   7.835   7.136 -0.2203  0.3252 -0.4483
  813MOL0     C 7196   2.028   7.976   7.114  0.1417  0.2473  0.3224
  813MOL0     C 7197   2.143   8.073   7.144  0.2170 -0.4076  0.4152
  813MOL0     C 7198   2.111   8.213   7.090  0.0320 -0.3657  0.8160
  813MOL0     C 7199   1.998   8.284   7.158  0.1458  0.3211 -0.7257
  813MOL0     C 7200   2.015   8.318   7.299  1.4241  0.5009 -0.4695
  813MOL0     N 7201   1.908   8.414   7.345 -0.1628  0.3317 -1.1395
  813MOL0     C 7202   1.777   8.380   7.372  0.6874 -0.1745  0.3938
  813MOL0     C 7203   1.718   8.499   7.403 -1.1895  0.6257  0.1036
  813MOL0     C 7204   1.564   8.511   7.419 -0.3126 -0.9064 -0.3211
  813MOL0     C 7205   1.486   8.491   7.288 -0.3474 -0.2994  0.1787
  813MOL0     C 7206   1.359   8.573   7.289 -0.3697 -1.0284 -0.2660
  813MOL0     C 7207   1.285   8.557   7.152  0.3363 -0.5036  0.2429
  813MOL0     O 7208   1.163   8.629   7.154  0.1211 -0.0084  0.4534
  813MOL0     C 7209   1.054   8.562   7.126  1.1811 -0.5490  0.8059
  813MOL0     C 7210   0.935   8.589   7.193 -0.3414 -0.1532 -0.2123
  813MOL0     C 7211   0.808   8.555   7.145 -0.3455 -0.0247  0.2743
  813MOL0     C 7212   0.802   8.457   7.046  0.2980 -0.3282  0.1889
  813MOL0     C 7213   0.672   8.409   7.009 -0.3686 -1.0493 -0.6671
  813MOL0     O 7214   0.564   8.455   7.077  0.3075 -1.0301 -0.0638
  813MOL0     C 7215   0.459   8.373   7.089  0.8629 -0.5595 -0.1541
  813MOL0     C 7216   0.469   8.261   7.167 -0.2227  0.4092 -0.4465
  813MOL0     C 7217   0.368   8.168   7.157  0.2698  0.6802 -0.0207
  813MOL0     C 7218   0.243   8.204   7.110  0.5726  0.3239  1.2237
  813MOL0     O 7219   0.143   8.117   7.140  0.4990 -0.7065  0.0704
  813MOL0     C 7220   0.108   8.049   7.020  0.4405 -0.4353 -1.2724
  813MOL0     C 7221  -0.013   7.954   7.021 -0.1244 -0.8964  1.0413
  813MOL0     C 7222  -0.125   8.009   7.112 -0.1744 -0.5338  0.3793
  813MOL0     C 7223  -0.190   8.155   7.093 -0.0164  0.6958 -0.2510
  813MOL0     C 7224  -0.262   8.160   6.953  0.2223  0.0011 -1.0842
  813MOL0     C 7225  -0.325   8.303   6.936  0.3006  0.7370 -0.2189
  813MOL0     C 7226  -0.465   8.304   6.875 -0.6278 -0.0208 -0.4345
  813MOL0     C 7227  -0.514   8.427   6.800 -0.1656  0.1209  0.0933
  813MOL0    Cl 7228  -0.418   8.449   6.650 -0.0741 -0.2792 -0.2432
  813MOL0     C 7229   0.225   8.327   7.045 -0.0118 -0.1522 -0.5137
  813MOL0     C 7230   0.341   8.413   7.036 -0.0871 -0.3990 -0.7292
  813MOL0     O 7231   0.667   8.340   6.907 -0.5806  0.4225  0.3263
  813MOL0     C 7232   0.920   8.405   6.978  0.2459 -0.8841  0.1609
  813MOL0     C 7233   1.041   8.472   7.016 -0.4099  0.3440 -0.4589
  813MOL0     N 7234   1.814   8.597   7.403 -0.8766 -0.0057 -1.3061
  813MOL0     N 7235   1.925   8.549   7.365 -1.2102 -0.1565 -0.2694
  813MOL0     C 7236   1.626   7.752   6.930  0.1419 -0.3547  0.1848
  813MOL0     C 7237   1.490   7.767   6.917  0.8081 -0.0563 -0.3004
  813MOL0     C 7238   1.095   7.861   6.737  0.0727 -0.2547 -0.4949
  813MOL0     C 7239   1.045   7.967   6.802 -0.5384 -0.6273 -0.4768
  813MOL0     C 7240   0.909   8.004   6.800 -0.0512 -0.4857 -0.7710
  813MOL0     C 7241   0.824   7.917   6.730 -0.0845 -0.3820  0.6232
  813MOL0     O 7242   0.685   7.930   6.740  0.5475  0.0482  0.0100
  813MOL0     C 7243   0.624   8.053   6.778 -0.0049 -0.2833  0.8271
  813MOL0     C 7244   0.470   8.041   6.749  0.2473 -0.0783 -0.6172
  813MOL0     C 7245   0.450   8.049   6.588  0.2328  0.1472 -0.0781
  813MOL0     C 7246   0.299   8.053   6.563  0.0273  0.7079 -0.0583
  813MOL0     C 7247   0.279   8.062   6.413 -0.9330 -0.4357 -0.5810
  813MOL0     C 7248   0.273   8.065   6.294 -0.1546  0.7929  1.1242
  813MOL0     C 7249   0.865   7.802   6.679  0.6529  0.5598  0.0499
  813MOL0     C 7250   1.001   7.773   6.671  0.0757  0.1807 -1.0350
  813MOL0     H 7251   1.463   8.023   6.727 -1.1892  0.5650  3.5080
  813MOL0     H 7252   1.723   8.001   6.704  1.9469 -1.8888  0.1751
  813MOL0     H 7253   2.008   7.717   6.879 -1.0734  1.7560 -1.3395
  813MOL0     H 7254   1.856   7.648   6.934  0.2358 -2.2797 -0.7589
  813MOL0     H 7255   1.965   7.639   7.110  0.6060 -0.7541  0.8024
  813MOL0     H 7256   1.851   7.764   7.124 -0.6766 -3.0462 -0.3477
  813MOL0     H 7257   2.169   7.799   7.106 -0.1426 -1.9265  2.0898
  813MOL0     H 7258   2.076   7.816   7.244  2.0854  3.3164  0.0677
  813MOL0     H 7259   1.990   7.993   7.013  0.1739  0.0284  0.2746
  813MOL0     H 7260   1.956   7.988   7.195  1.6975  2.0741  1.5399
  813MOL0     H 7261   2.237   8.033   7.104  0.9057  2.1796 -0.7694
  813MOL0     H 7262   2.174   8.076   7.249  2.1331 -1.6627 -0.0546
  813MOL0     H 7263   2.083   8.213   6.984 -1.6196  3.4828  1.0850
  813MOL0     H 7264   2.195   8.283   7.096 -1.2400  1.0999  2.5113
  813MOL0     H 7265   1.982   8.376   7.101  1.3238  0.1845 -1.3242
  813MOL0     H 7266   1.910   8.219   7.160  0.5766 -0.3189 -1.5228
  813MOL0     H 7267   2.113   8.366   7.309  2.3404 -0.3182 -4.0861
  813MOL0     H 7268   2.013   8.229   7.363  1.0592 -0.7360 -2.1244
  813MOL0     H 7269   1.710   8.296   7.361 -1.7684  1.7779 -0.5798
  813MOL0     H 7270   1.548   8.609   7.465  1.1203 -0.3719 -0.8953
  813MOL0     H 7271   1.525   8.448   7.499  0.5430  0.7915  1.5327
  813MOL0     H 7272   1.468   8.383   7.281  3.5099 -1.0340 -1.1395
  813MOL0     H 7273   1.549   8.512   7.200 -1.4171 -0.1061 -0.5574
  813MOL0     H 7274   1.290   8.541   7.368 -0.8578  1.5361  0.4364
  813MOL0     H 7275   1.375   8.680   7.301 -1.9493 -0.9115  1.1176
  813MOL0     H 7276   1.255   8.454   7.137 -3.2081  0.4446  0.0435
  813MOL0     H 7277   1.347   8.592   7.069 -0.3489  3.1336  1.0480
  813MOL0     H 7278   0.947   8.643   7.287  0.2700 -1.0726  0.2489
  813MOL0     H 7279   0.725   8.574   7.212 -1.4399  1.4004 -1.4222
  813MOL0     H 7280   0.563   8.227   7.209 -1.4494 -3.0597 -0.1999
  813MOL0     H 7281   0.366   8.071   7.205 -0.8427  0.0844 -1.2051
  813MOL0     H 7282   0.197   7.992   6.992  2.5441  2.3410 -0.7641
  813MOL0     H 7283   0.094   8.124   6.941  1.9319  0.9769 -0.2679
  813MOL0     H 7284   0.020   7.858   7.061 -0.1682  0.0539  3.5907
  813MOL0     H 7285  -0.053   7.951   6.919 -1.4424  3.3624  1.2168
  813MOL0     H 7286  -0.082   8.011   7.213 -0.0324  2.8442  0.3481
  813MOL0     H 7287  -0.204   7.934   7.105 -0.3239 -0.5414  1.7200
  813MOL0     H 7288  -0.255   8.167   7.180  1.9496  1.8359  1.1384
  813MOL0     H 7289  -0.111   8.230   7.094  1.0248 -0.3565  1.7580
  813MOL0     H 7290  -0.340   8.084   6.963  0.4321 -0.2438 -1.2684
  813MOL0     H 7291  -0.187   8.144   6.874  2.7517  2.9149  0.5168
  813MOL0     H 7292  -0.254   8.371   6.888 -2.0840  2.4216 -1.5578
  813MOL0     H 7293  -0.330   8.353   7.034  3.3814  1.3770 -0.2893
  813MOL0     H 7294  -0.457   8.216   6.811  1.0348 -1.1083  1.1583
  813MOL0     H 7295  -0.533   8.286   6.958 -0.0282  0.1486  0.1042
  813MOL0     H 7296  -0.507   8.521   6.856 -0.9021  1.9948 -2.7064
  813MOL0     H 7297  -0.620   8.410   6.776 -0.8491  0.6295  2.4996
  813MOL0     H 7298   0.134   8.362   6.998  0.8035  1.4519 -0.9748
  813MOL0     H 7299   0.344   8.506   6.979 -0.1630 -0.2806 -0.5437
  813MOL0     H 7300   0.917   8.336   6.894  2.1473  0.7267 -1.3230
  813MOL0     H 7301   1.123   8.449   6.949 -1.0083  2.1733 -1.8937
  813MOL0     H 7302   1.656   7.684   7.009  0.2378 -0.2288  0.2561
  813MOL0     H 7303   1.421   7.710   6.978 -2.8802  4.2208  0.0109
  813MOL0     H 7304   1.103   8.038   6.859 -4.7103  2.6241  0.1777
  813MOL0     H 7305   0.889   8.097   6.853 -0.8295 -0.4522 -1.1059
  813MOL0     H 7306   0.661   8.137   6.719  1.4366 -1.8890 -0.6522
  813MOL0     H 7307   0.636   8.062   6.886  1.4158 -0.8622  0.7333
  813MOL0     H 7308   0.433   7.948   6.794 -0.6310  0.0209 -1.1119
  813MOL0     H 7309   0.410   8.121   6.794  1.6045  0.8468 -0.4168
  813MOL0     H 7310   0.492   7.957   6.545  0.5375 -0.0640  0.6663
  813MOL0     H 7311   0.505   8.134   6.545  0.6932 -0.6639 -1.1694
  813MOL0     H 7312   0.262   7.959   6.605  1.3088  0.3054  0.2160
  813MOL0     H 7313   0.244   8.137   6.605  0.9577  0.8448  0.9222
  813MOL0     H 7314   0.270   8.058   6.187  0.9506 -1.8012  1.1988
  813MOL0     H 7315   0.798   7.751   6.611 -0.5538  0.0380  1.5645
  813MOL0     H 7316   1.048   7.685   6.629  4.4160  1.5638  0.2645
  814MOL0     O 7317   1.829  10.816   1.982 -0.1941 -0.0674  0.0269
  814MOL0     C 7318   1.878  10.791   1.870  0.2185 -0.2360  0.3349
  814MOL0     O 7319   1.971  10.870   1.810  0.0845 -0.9251  0.3385
  814MOL0     C 7320   2.034  10.958   1.896  0.5146  0.0586  0.1518
  814MOL0     C 7321   2.066  11.086   1.848  0.5118  0.1900 -0.1521
  814MOL0     C 7322   2.138  11.181   1.921 -0.6146  0.1923  0.1338
  814MOL0     C 7323   2.163  11.162   2.053 -0.9644  0.2819 -0.4314
  814MOL0     O 7324   2.240  11.261   2.119  0.5725  0.0097 -0.2394
  814MOL0     C 7325   2.261  11.245   2.258 -0.1807 -0.3701 -0.5696
  814MOL0     C 7326   2.297  11.383   2.321  0.1509  0.0100 -0.6341
  814MOL0     C 7327   2.432  11.436   2.257  0.1631 -0.6259  0.5613
  814MOL0     C 7328   2.449  11.583   2.293  0.1518  0.2798 -0.4675
  814MOL0     C 7329   2.521  11.606   2.432  0.6316  0.1259 -0.3818
  814MOL0     C 7330   2.421  11.631   2.543 -0.1591 -0.0736 -0.4024
  814MOL0     C 7331   2.366  11.775   2.541 -0.3999  0.6150  0.4191
  814MOL0     C 7332   2.263  11.819   2.652 -0.1931 -0.3786  0.7265
  814MOL0     N 7333   2.260  11.969   2.669  0.1565 -0.1413  0.3905
  814MOL0     C 7334   2.153  12.060   2.683 -0.2478 -0.2045 -0.0627
  814MOL0     C 7335   2.210  12.159   2.760 -0.2601 -0.7115  0.3078
  814MOL0     C 7336   2.126  12.263   2.827 -0.1360 -0.4476  0.1525
  814MOL0     C 7337   2.153  12.410   2.766 -0.2377 -0.0133  0.0364
  814MOL0     C 7338   2.074  12.426   2.641  0.1951  0.2594  0.6523
  814MOL0     C 7339   1.927  12.470   2.683  0.0550  0.6083  0.1578
  814MOL0     O 7340   1.920  12.609   2.705  0.2665  0.2170 -0.5135
  814MOL0     C 7341   1.802  12.656   2.755 -0.0035  0.0661 -0.9400
  814MOL0     C 7342   1.774  12.795   2.750  0.0160 -0.1794  0.2761
  814MOL0     C 7343   1.656  12.853   2.797 -1.1427 -0.0654 -0.4107
  814MOL0     C 7344   1.564  12.774   2.862 -0.2499 -0.6690  0.0278
  814MOL0     C 7345   1.430  12.822   2.920 -0.9109  0.8401 -0.1251
  814MOL0     O 7346   1.365  12.744   3.009 -0.5657  0.3686  0.4191
  814MOL0     C 7347   1.259  12.795   3.086 -0.9131 -0.3507  0.8237
  814MOL0     C 7348   1.131  12.735   3.065  0.2994  0.6482  0.1832
  814MOL0     C 7349   1.029  12.760   3.155 -0.2343 -0.4017 -0.0413
  814MOL0     C 7350   1.042  12.852   3.258  0.3227  0.1335  0.1561
  814MOL0     O 7351   0.927  12.864   3.339 -1.0465 -1.0886  0.0921
  814MOL0     C 7352   0.934  12.935   3.465  0.4393 -0.3290 -1.0829
  814MOL0     C 7353   1.007  12.843   3.570  0.0058  0.5229  0.0166
  814MOL0     C 7354   0.937  12.704   3.581  0.1091 -0.3342 -0.5643
  814MOL0     C 7355   0.994  12.602   3.493  0.7323 -0.2674  0.3256
  814MOL0     C 7356   1.139  12.567   3.505  0.1420  0.4513  0.2150
  814MOL0     C 7357   1.177  12.537   3.652 -0.5954  0.1523  0.0700
  814MOL0     C 7358   1.323  12.494   3.647 -0.3011  0.0020  0.0787
  814MOL0     C 7359   1.356  12.446   3.786 -0.1668 -0.0389 -0.1122
  814MOL0    Cl 7360   1.542  12.435   3.794  0.0068 -0.3866  0.0007
  814MOL0     C 7361   1.158  12.916   3.290 -0.6103 -0.1274 -0.0377
  814MOL0     C 7362   1.271  12.880   3.202 -0.0154  0.1939  0.0780
  814MOL0     O 7363   1.402  12.939   2.895 -0.0148  0.0665 -1.2669
  814MOL0     C 7364   1.572  12.633   2.848  0.1675  0.8546  0.2961
  814MOL0     C 7365   1.694  12.581   2.807  0.1306 -0.3097  0.5691
  814MOL0     N 7366   2.345  12.123   2.776 -0.6916  0.1559 -0.5076
  814MOL0     N 7367   2.370  12.011   2.726 -0.2390  0.5764 -0.8752
  814MOL0     C 7368   2.126  11.033   2.108 -0.2719  0.4008  0.0658
  814MOL0     C 7369   2.070  10.929   2.028 -0.9308 -0.8936 -0.0162
  814MOL0     C 7370   1.838  10.685   1.780  0.4323  0.0782  0.2557
  814MOL0     C 7371   1.845  10.705   1.645  0.1699  0.1128  0.2346
  814MOL0     C 7372   1.828  10.604   1.549  0.3818  0.1504  0.5939
  814MOL0     C 7373   1.768  10.478   1.586  0.2798  0.1998  0.2186
  814MOL0     O 7374   1.746  10.371   1.505  0.2010  0.3730 -0.0596
  814MOL0     C 7375   1.764  10.396   1.359 -0.7681  1.1706 -0.8196
  814MOL0     C 7376   1.642  10.468   1.301 -1.0549  0.8847  0.1232
  814MOL0     C 7377   1.510  10.387   1.308  0.1712 -0.1179  0.1788
  814MOL0     C 7378   1.396  10.470   1.236  1.0145  0.9245 -0.3858
  814MOL0     C 7379   1.285  10.387   1.202  0.9522 -0.2909 -0.6078
  814MOL0     C 7380   1.194  10.322   1.168  0.2306 -0.0402 -1.0111
  814MOL0     C 7381   1.739  10.472   1.722 -0.5115  1.6073  0.3886
  814MOL0     C 7382   1.777  10.562   1.827  0.8167 -0.7977  0.5473
  814MOL0     H 7383   2.017  11.116   1.756 -1.4092 -0.0327  0.7555
  814MOL0     H 7384   2.170  11.277   1.881  3.7602 -0.2719  1.9418
  814MOL0     H 7385   2.341  11.173   2.279  0.4886 -0.0011 -1.7579
  814MOL0     H 7386   2.164  11.214   2.298  0.1526  1.5420  1.9676
  814MOL0     H 7387   2.325  11.356   2.424  1.4593  1.2438 -0.6445
  814MOL0     H 7388   2.214  11.454   2.317 -0.8278 -1.1692 -2.3346
  814MOL0     H 7389   2.413  11.435   2.149 -1.2241  0.3019  0.7644
  814MOL0     H 7390   2.521  11.374   2.268  1.5560  0.8027 -1.7355
  814MOL0     H 7391   2.530  11.617   2.227  0.7784  0.4164  0.3458
  814MOL0     H 7392   2.358  11.642   2.278 -1.5453 -1.9791  0.3122
  814MOL0     H 7393   2.574  11.701   2.430  0.9267 -0.0037  0.8782
  814MOL0     H 7394   2.588  11.523   2.455  0.8150  0.6079  0.8682
  814MOL0     H 7395   2.473  11.632   2.639 -3.2473  1.0419  1.4386
  814MOL0     H 7396   2.343  11.554   2.550 -1.9155  1.5863 -0.9602
  814MOL0     H 7397   2.457  11.836   2.542  0.1034 -0.1186  0.6013
  814MOL0     H 7398   2.319  11.802   2.446  2.5726  2.8113 -0.5605
  814MOL0     H 7399   2.298  11.785   2.749  0.2657  2.4111  1.6399
  814MOL0     H 7400   2.166  11.776   2.627  0.4010 -1.0178 -0.5986
  814MOL0     H 7401   2.049  12.037   2.664 -0.3259 -0.5480  0.7161
  814MOL0     H 7402   2.171  12.262   2.926 -0.2444  1.6456  0.2707
  814MOL0     H 7403   2.019  12.241   2.826  0.0164 -1.2778  0.8667
  814MOL0     H 7404   2.258  12.426   2.742 -0.6468 -0.5555 -2.3720
  814MOL0     H 7405   2.115  12.486   2.835 -0.1578 -1.5273  1.8531
  814MOL0     H 7406   2.120  12.500   2.575  1.8710 -0.2731  1.1768
  814MOL0     H 7407   2.070  12.343   2.570 -0.7774  1.5275 -0.8511
  814MOL0     H 7408   1.901  12.410   2.771  2.1079 -1.9351 -0.8508
  814MOL0     H 7409   1.863  12.440   2.600  0.5045 -1.9085  0.6516
  814MOL0     H 7410   1.854  12.841   2.694  0.7227 -3.7848 -2.0409
  814MOL0     H 7411   1.645  12.959   2.778  0.1374 -0.4277 -3.8229
  814MOL0     H 7412   1.121  12.663   2.985  1.6361 -0.9816  1.4261
  814MOL0     H 7413   0.927  12.730   3.137 -1.4576  2.2309  1.8471
  814MOL0     H 7414   0.833  12.954   3.504  1.5725 -0.4715  2.3006
  814MOL0     H 7415   0.972  13.037   3.451  5.2555 -2.1119 -3.4049
  814MOL0     H 7416   1.005  12.890   3.668 -1.9827  0.7859 -0.1125
  814MOL0     H 7417   1.113  12.831   3.546  0.2432 -1.4689  1.7487
  814MOL0     H 7418   0.829  12.707   3.564  0.5501 -1.5386 -4.7105
  814MOL0     H 7419   0.955  12.677   3.686  0.3810  3.0710  0.3859
  814MOL0     H 7420   0.946  12.508   3.521 -0.4436 -0.2209 -1.4057
  814MOL0     H 7421   0.966  12.622   3.389  3.1630 -0.4416 -0.4332
  814MOL0     H 7422   1.207  12.641   3.463  0.9928 -2.7315 -4.9954
  814MOL0     H 7423   1.152  12.480   3.439  1.8231  0.6677  0.2352
  814MOL0     H 7424   1.125  12.447   3.685  1.6748 -2.2594 -2.4237
  814MOL0     H 7425   1.172  12.620   3.723 -2.5285  0.7052 -0.6243
  814MOL0     H 7426   1.353  12.415   3.577  0.4557  0.2461  0.1271
  814MOL0     H 7427   1.378  12.581   3.610  1.3595 -0.4406  1.3965
  814MOL0     H 7428   1.300  12.362   3.825 -0.6247  1.1250  1.8769
  814MOL0     H 7429   1.322  12.532   3.844 -0.7205 -0.1158 -0.3155
  814MOL0     H 7430   1.177  12.990   3.367  0.2253 -0.5010  0.1258
  814MOL0     H 7431   1.372  12.918   3.210  0.1821 -0.1696 -0.5854
  814MOL0     H 7432   1.487  12.576   2.884  1.1667 -0.4237  0.7244
  814MOL0     H 7433   1.703  12.473   2.800  2.2362 -0.1414 -0.0591
  814MOL0     H 7434   2.162  11.005   2.206 -3.1101  1.0461  1.3877
  814MOL0     H 7435   2.066  10.832   2.076  0.2110 -0.9098  0.0616
  814MOL0     H 7436   1.893  10.797   1.611 -2.5583  2.0409  1.3057
  814MOL0     H 7437   1.865  10.611   1.447  3.4794 -1.0560  1.5239
  814MOL0     H 7438   1.775  10.296   1.315  1.5657  0.8990  0.1914
  814MOL0     H 7439   1.858  10.449   1.342  1.1864 -1.6854  0.2711
  814MOL0     H 7440   1.633  10.570   1.341 -2.0388  2.6597 -4.0697
  814MOL0     H 7441   1.665  10.474   1.194  3.5751 -0.2768  0.8344
  814MOL0     H 7442   1.477  10.368   1.411 -2.1898  1.3248 -0.2352
  814MOL0     H 7443   1.527  10.293   1.254  0.3634  0.5391 -0.9195
  814MOL0     H 7444   1.369  10.554   1.301  0.9837 -0.0151  0.8418
  814MOL0     H 7445   1.429  10.520   1.144  1.9109  0.7505 -0.1669
  814MOL0     H 7446   1.123  10.251   1.129 -0.2700 -0.5133  0.6747
  814MOL0     H 7447   1.693  10.380   1.756 -0.5407  1.3952 -0.2117
  814MOL0     H 7448   1.761  10.546   1.933 -1.7031  0.1314  0.3792
  815MOL0     O 7449   8.973   8.450   4.103  0.0241  0.0900 -0.0878
  815MOL0     C 7450   8.863   8.447   4.042 -0.9969 -0.5850  0.5741
  815MOL0     O 7451   8.775   8.546   4.035  0.1562 -0.4273  0.2611
  815MOL0     C 7452   8.839   8.668   4.060  0.9057 -0.2754  0.7933
  815MOL0     C 7453   8.875   8.738   3.947 -0.7854 -0.2015  0.5931
  815MOL0     C 7454   8.959   8.850   3.960 -0.0064 -0.9814  0.0388
  815MOL0     C 7455   9.010   8.884   4.087  0.8815  0.5792  0.4789
  815MOL0     O 7456   9.094   8.991   4.116  0.2817 -0.2242  0.5751
  815MOL0     C 7457   9.192   9.025   4.015  0.2139 -0.0288 -0.3044
  815MOL0     C 7458   9.318   8.938   4.026  0.4475  0.2521 -1.2745
  815MOL0     C 7459   9.420   8.975   3.924 -0.2296  0.7534 -0.5256
  815MOL0     C 7460   9.514   8.851   3.897  0.3546 -0.1217  0.3947
  815MOL0     C 7461   9.612   8.904   3.808  0.2450 -0.2167 -1.2984
  815MOL0     C 7462   9.712   8.781   3.769  0.1652 -1.3306 -0.6163
  815MOL0     C 7463   9.822   8.829   3.671  0.3730 -0.4144 -0.4427
  815MOL0     C 7464   9.909   8.710   3.627  0.5947  0.8241 -0.3656
  815MOL0     N 7465   9.994   8.658   3.734  0.5496  0.0314  0.5200
  815MOL0     C 7466  10.059   8.721   3.843  0.1990  0.6836 -0.0874
  815MOL0     C 7467  10.082   8.621   3.932  0.5506 -0.4359  0.0478
  815MOL0     C 7468  10.131   8.656   4.071  0.5732 -0.1767  0.0143
  815MOL0     C 7469  10.023   8.621   4.160 -0.1498  0.6709 -0.1688
  815MOL0     C 7470  10.032   8.671   4.307 -0.1163  0.2635  0.7100
  815MOL0     C 7471  10.153   8.613   4.383  0.6294 -0.0262 -0.0040
  815MOL0     O 7472  10.280   8.658   4.331 -0.0910  0.0602 -0.4458
  815MOL0     C 7473  10.338   8.760   4.400 -0.3486 -0.0550 -0.6394
  815MOL0     C 7474  10.470   8.782   4.370  0.3264  1.2227 -0.4172
  815MOL0     C 7475  10.539   8.883   4.425  0.1938 -0.6903  0.8852
  815MOL0     C 7476  10.486   8.969   4.518  0.5232 -0.2198  0.1402
  815MOL0     C 7477  10.559   9.084   4.560  0.5533  0.2513 -0.4339
  815MOL0     O 7478  10.489   9.195   4.610  0.2095 -0.1838 -0.6656
  815MOL0     C 7479  10.561   9.293   4.673 -0.5599  0.7367  0.0141
  815MOL0     C 7480  10.670   9.361   4.620  0.3265 -0.6481 -0.2786
  815MOL0     C 7481  10.720   9.479   4.675  0.9453  0.0728  0.5452
  815MOL0     C 7482  10.665   9.532   4.800 -0.2068 -0.6980 -0.4624
  815MOL0     O 7483  10.701   9.659   4.846 -0.1794  0.2866 -0.6488
  815MOL0     C 7484  10.777   9.666   4.974  0.4313  0.4470 -0.3237
  815MOL0     C 7485  10.897   9.757   4.958  0.1230 -1.1282 -0.0899
  815MOL0     C 7486  10.851   9.909   4.943  1.6812 -0.4194  0.0466
  815MOL0     C 7487  10.970  10.008   4.929 -0.7586  0.4050  0.8934
  815MOL0     C 7488  10.943  10.156   4.905 -1.3352  1.3665 -0.3865
  815MOL0     C 7489  11.061  10.252   4.936  0.6630  0.0638 -0.0222
  815MOL0     C 7490  11.172  10.233   4.833  0.2322  0.3370  0.1673
  815MOL0     C 7491  11.274  10.348   4.825  1.1284  0.2189  0.6746
  815MOL0    Cl 7492  11.389  10.295   4.695  0.0746  0.1620 -0.0427
  815MOL0     C 7493  10.575   9.454   4.864 -0.1992  0.6454 -0.2969
  815MOL0     C 7494  10.524   9.340   4.803  0.2372  0.3804  0.6817
  815MOL0     O 7495  10.681   9.064   4.567  0.0217 -0.6273  0.8561
  815MOL0     C 7496  10.345   8.956   4.544 -0.1541  0.3184 -0.2145
  815MOL0     C 7497  10.281   8.844   4.490 -0.6058  1.4886 -0.1850
  815MOL0     N 7498  10.023   8.510   3.894  0.4531 -0.3365 -0.2858
  815MOL0     N 7499   9.985   8.531   3.773 -0.4153  0.5907 -0.5140
  815MOL0     C 7500   8.962   8.819   4.199  0.0351 -0.4290  0.0203
  815MOL0     C 7501   8.873   8.714   4.189  1.7695 -0.2302  0.2069
  815MOL0     C 7502   8.809   8.326   3.990 -0.4467  0.5260 -0.4817
  815MOL0     C 7503   8.709   8.330   3.897 -0.8677 -0.4104 -0.2610
  815MOL0     C 7504   8.665   8.216   3.833 -0.2833  0.2035  0.0848
  815MOL0     C 7505   8.721   8.087   3.855  0.5608  0.5478 -0.1855
  815MOL0     O 7506   8.672   7.970   3.806  0.0798 -0.1234 -0.3901
  815MOL0     C 7507   8.546   7.975   3.742  0.0721  0.0529 -0.6428
  815MOL0     C 7508   8.488   7.832   3.709 -0.1007  1.0597  0.1980
  815MOL0     C 7509   8.512   7.726   3.811  0.0672 -0.5866  0.7713
  815MOL0     C 7510   8.453   7.754   3.952 -0.1430  0.9856 -0.2493
  815MOL0     C 7511   8.429   7.630   4.033  0.7473 -1.1053  0.0358
  815MOL0     C 7512   8.418   7.537   4.112 -0.5012 -0.2203 -0.1237
  815MOL0     C 7513   8.822   8.086   3.946  0.2532  0.9753  0.5072
  815MOL0     C 7514   8.865   8.197   4.017  0.0293  0.1756 -0.8488
  815MOL0     H 7515   8.822   8.713   3.855 -0.6695 -0.7713  0.6757
  815MOL0     H 7516   8.979   8.915   3.875 -1.6007  1.5047  1.4244
  815MOL0     H 7517   9.218   9.130   4.030 -1.3323  0.3709 -0.2508
  815MOL0     H 7518   9.144   9.013   3.918 -0.3835 -2.1905  0.1964
  815MOL0     H 7519   9.299   8.831   4.022 -3.8624  0.8521 -4.0836
  815MOL0     H 7520   9.353   8.951   4.129 -1.4994  3.1960 -0.8629
  815MOL0     H 7521   9.481   9.058   3.962  3.7244 -1.9570 -0.4433
  815MOL0     H 7522   9.362   9.004   3.836 -3.6245  2.8297  2.0958
  815MOL0     H 7523   9.557   8.808   3.987  1.8447 -1.6010 -0.9596
  815MOL0     H 7524   9.470   8.766   3.845 -2.0909  1.2034  0.1236
  815MOL0     H 7525   9.668   8.993   3.839  0.9579 -0.4194 -1.9656
  815MOL0     H 7526   9.550   8.934   3.722 -3.2241 -0.8336  0.7900
  815MOL0     H 7527   9.657   8.702   3.718 -1.7779  0.1428 -0.9160
  815MOL0     H 7528   9.761   8.746   3.861  1.8818 -0.4105 -1.1326
  815MOL0     H 7529   9.772   8.868   3.581 -0.0311 -1.3714 -0.6482
  815MOL0     H 7530   9.874   8.916   3.713 -3.0658  0.2151  3.0550
  815MOL0     H 7531   9.961   8.735   3.534  0.0591  0.2151 -0.8462
  815MOL0     H 7532   9.850   8.629   3.584 -0.0824  1.1784 -0.1184
  815MOL0     H 7533  10.099   8.820   3.863  3.4084 -0.6664  0.8270
  815MOL0     H 7534  10.147   8.765   4.071 -3.3860  0.5673 -1.5519
  815MOL0     H 7535  10.216   8.599   4.108  1.2039  0.5245 -0.3224
  815MOL0     H 7536  10.033   8.512   4.165  0.2493  0.6943 -0.4485
  815MOL0     H 7537   9.930   8.639   4.106  0.7647 -1.8290 -2.7975
  815MOL0     H 7538  10.043   8.778   4.323 -0.3698  0.2742  0.8171
  815MOL0     H 7539   9.943   8.629   4.356 -0.6525 -0.4289 -0.7786
  815MOL0     H 7540  10.156   8.504   4.374  1.5067 -0.0764  0.7988
  815MOL0     H 7541  10.146   8.629   4.490  3.0517  3.8695 -0.2453
  815MOL0     H 7542  10.517   8.712   4.301  0.7303  2.5075 -1.4848
  815MOL0     H 7543  10.638   8.900   4.385 -0.5613 -0.6396 -1.1032
  815MOL0     H 7544  10.725   9.345   4.527  2.2212  4.5693 -0.3994
  815MOL0     H 7545  10.797   9.538   4.627  0.4443 -2.0360 -3.2792
  815MOL0     H 7546  10.805   9.566   5.008  2.6921  0.7886 -1.0073
  815MOL0     H 7547  10.717   9.711   5.054  3.4101  1.5087  1.4755
  815MOL0     H 7548  10.960   9.731   4.872  0.6814 -1.1288  0.3084
  815MOL0     H 7549  10.962   9.741   5.045  1.2169 -0.2050 -0.6993
  815MOL0     H 7550  10.780   9.927   5.024 -0.5467  0.0387 -1.9073
  815MOL0     H 7551  10.796   9.916   4.848  0.7947 -0.6417  0.5285
  815MOL0     H 7552  11.027  10.000   5.022 -1.1436  1.7492  1.2618
  815MOL0     H 7553  11.032   9.975   4.845  1.1680  3.5670  0.9402
  815MOL0     H 7554  10.868  10.173   4.983  1.2229  1.7257  2.1410
  815MOL0     H 7555  10.907  10.183   4.805 -0.6013 -0.4355 -1.1976
  815MOL0     H 7556  11.087  10.235   5.041 -2.3823 -0.7315  0.7092
  815MOL0     H 7557  11.026  10.355   4.936  3.7102  1.3481  4.0329
  815MOL0     H 7558  11.228  10.143   4.859  0.9387  0.7719  0.1640
  815MOL0     H 7559  11.131  10.220   4.732 -1.1219  3.1274  0.2569
  815MOL0     H 7560  11.319  10.351   4.924 -1.6510  1.1734  2.0203
  815MOL0     H 7561  11.226  10.439   4.789 -1.2295 -1.5892 -1.0595
  815MOL0     H 7562  10.537   9.484   4.961  2.5599 -1.3982  1.5961
  815MOL0     H 7563  10.444   9.292   4.859 -0.3550  2.2159  1.4606
  815MOL0     H 7564  10.291   9.032   4.599 -2.5017 -0.6273 -1.1177
  815MOL0     H 7565  10.177   8.826   4.517  0.4087 -3.6151  1.2435
  815MOL0     H 7566   8.995   8.839   4.300  0.4232 -0.3282 -0.1250
  815MOL0     H 7567   8.851   8.664   4.283 -0.1636  0.9052  0.4090
  815MOL0     H 7568   8.672   8.432   3.885  2.8488  0.9095 -1.9269
  815MOL0     H 7569   8.583   8.220   3.762  0.7527  0.8401 -1.1275
  815MOL0     H 7570   8.551   8.038   3.653 -2.3316 -0.3313 -1.1087
  815MOL0     H 7571   8.494   8.018   3.828  0.3034  0.8273 -0.8779
  815MOL0     H 7572   8.381   7.853   3.700  0.1001  2.1514  0.2121
  815MOL0     H 7573   8.529   7.809   3.610  2.4125  0.0905  1.3860
  815MOL0     H 7574   8.620   7.709   3.815 -0.1022 -4.0646 -3.0040
  815MOL0     H 7575   8.475   7.628   3.778 -0.9164 -0.2591  0.8530
  815MOL0     H 7576   8.522   7.817   4.009  2.9476 -1.1327 -1.4237
  815MOL0     H 7577   8.364   7.816   3.940 -0.1264  1.1412  0.3976
  815MOL0     H 7578   8.409   7.453   4.178  0.5213 -0.0210  0.2815
  815MOL0     H 7579   8.858   7.987   3.970 -0.9442  0.3956 -0.0265
  815MOL0     H 7580   8.942   8.184   4.092 -0.7180  1.3907  0.1503
  816MOL0     O 7581   5.115   6.329   9.452 -0.2274  0.2609 -0.2189
  816MOL0     C 7582   5.080   6.319   9.330  0.6046  0.1753 -1.6856
  816MOL0     O 7583   5.157   6.308   9.213  0.2371  0.2580  0.0511
  816MOL0     C 7584   5.294   6.302   9.210 -0.6516 -0.6790 -0.6197
  816MOL0     C 7585   5.346   6.345   9.086 -1.2952  0.1464  0.8048
  816MOL0     C 7586   5.484   6.320   9.057  0.9582 -1.1380 -0.1276
  816MOL0     C 7587   5.570   6.261   9.161  0.6052  0.0524  0.2076
  816MOL0     O 7588   5.699   6.227   9.139  0.4807  0.8212  0.2131
  816MOL0     C 7589   5.764   6.294   9.030  0.7347 -1.1527  0.3985
  816MOL0     C 7590   5.912   6.258   9.017 -0.0070  0.0561 -0.2633
  816MOL0     C 7591   6.001   6.331   9.116 -0.4742 -0.1693  0.0374
  816MOL0     C 7592   6.145   6.297   9.086 -0.4971 -0.3155 -0.2517
  816MOL0     C 7593   6.249   6.360   9.178 -0.6814  0.1803 -0.2291
  816MOL0     C 7594   6.242   6.298   9.321 -0.2330 -0.1801  0.1512
  816MOL0     C 7595   6.309   6.154   9.328  0.7738 -0.7204 -1.3096
  816MOL0     C 7596   6.318   6.109   9.475 -0.4696 -0.4602 -0.0585
  816MOL0     N 7597   6.410   6.003   9.490  0.1296 -0.0907  0.3440
  816MOL0     C 7598   6.549   6.022   9.461  0.2071  1.0206 -0.2049
  816MOL0     C 7599   6.604   5.901   9.488 -0.1235 -0.6827  0.0753
  816MOL0     C 7600   6.748   5.864   9.488  0.5404  0.2897  0.0420
  816MOL0     C 7601   6.783   5.820   9.629  0.4807  0.0239  0.0885
  816MOL0     C 7602   6.916   5.736   9.628 -0.0719 -0.9835  1.1382
  816MOL0     C 7603   7.046   5.837   9.657  0.6472  0.1757  0.8239
  816MOL0     O 7604   7.038   5.859   9.795 -0.4027 -0.5538 -0.1249
  816MOL0     C 7605   7.108   5.958   9.848  0.1799  0.2775  0.1662
  816MOL0     C 7606   7.248   5.972   9.851 -0.9446  0.7520 -0.8463
  816MOL0     C 7607   7.322   6.076   9.896  0.1226 -0.1906 -0.2554
  816MOL0     C 7608   7.252   6.186   9.946  0.1468 -0.3977  1.4017
  816MOL0     C 7609   7.324   6.304   9.991 -0.0661 -0.1503  0.1041
  816MOL0     O 7610   7.407   6.297  10.100  0.0802  0.7806  0.6312
  816MOL0     C 7611   7.504   6.389  10.131 -0.0964 -0.1890  0.3573
  816MOL0     C 7612   7.471   6.517  10.138  0.8532  0.7675  0.7645
  816MOL0     C 7613   7.565   6.617  10.155 -0.5902 -0.0566 -0.9833
  816MOL0     C 7614   7.699   6.584  10.184 -0.4824  0.2586  0.2009
  816MOL0     O 7615   7.801   6.683  10.188  0.2709 -0.0834  0.1683
  816MOL0     C 7616   7.768   6.812  10.237  0.3243  0.2206 -1.2053
  816MOL0     C 7617   7.810   6.917  10.137  0.3673 -0.2493 -0.5419
  816MOL0     C 7618   7.751   7.047  10.185 -0.2384 -0.4637  0.1451
  816MOL0     C 7619   7.798   7.161  10.097  1.4594 -1.1103 -0.1751
  816MOL0     C 7620   7.739   7.294  10.152 -0.0351 -0.1240  0.0504
  816MOL0     C 7621   7.733   7.396  10.046 -0.4759 -0.3456 -0.4469
  816MOL0     C 7622   7.874   7.452  10.027 -0.7173 -1.6046  0.0965
  816MOL0     C 7623   7.879   7.567   9.923 -0.4787 -0.8877  0.2625
  816MOL0    Cl 7624   7.738   7.695   9.939 -0.2588 -0.1094 -0.4510
  816MOL0     C 7625   7.736   6.446  10.191 -0.1175 -1.0646 -0.2378
  816MOL0     C 7626   7.642   6.353  10.151 -0.4051 -0.9205 -0.2814
  816MOL0     O 7627   7.300   6.411   9.926 -0.3115 -0.5312 -0.4260
  816MOL0     C 7628   7.111   6.191   9.933 -0.4022  0.4574  1.1429
  816MOL0     C 7629   7.039   6.074   9.899 -0.2565  0.1655 -0.6107
  816MOL0     N 7630   6.505   5.810   9.520  0.6342 -0.2102 -0.2182
  816MOL0     N 7631   6.391   5.877   9.526  0.0018 -0.1065 -0.6837
  816MOL0     C 7632   5.523   6.230   9.283 -0.0299 -0.4312  0.5473
  816MOL0     C 7633   5.382   6.255   9.308  0.5786 -0.7834 -0.7109
  816MOL0     C 7634   4.936   6.368   9.306  0.0849  0.7317  0.0248
  816MOL0     C 7635   4.874   6.371   9.178 -0.1597 -0.1955 -0.8514
  816MOL0     C 7636   4.741   6.413   9.173 -0.1374  0.1099 -0.5917
  816MOL0     C 7637   4.668   6.435   9.290  0.1759  0.6221  0.1839
  816MOL0     O 7638   4.528   6.463   9.282 -0.3048  0.3711  0.3599
  816MOL0     C 7639   4.449   6.344   9.289  0.3493 -0.8380 -0.4636
  816MOL0     C 7640   4.317   6.383   9.348  0.0188  0.1424 -0.6972
  816MOL0     C 7641   4.320   6.374   9.503 -0.0256  0.2108 -0.9105
  816MOL0     C 7642   4.374   6.502   9.556  0.1850 -0.4125  0.0518
  816MOL0     C 7643   4.376   6.499   9.700  0.1311  0.6303 -0.2744
  816MOL0     C 7644   4.353   6.488   9.825 -0.3925 -0.4222 -0.2783
  816MOL0     C 7645   4.720   6.439   9.409  0.0178 -0.3609  0.3157
  816MOL0     C 7646   4.852   6.384   9.427 -0.4039  0.1163 -0.2218
  816MOL0     H 7647   5.284   6.385   9.006  2.0143 -1.7420 -3.0870
  816MOL0     H 7648   5.529   6.369   8.972  0.5970  0.9914  0.8405
  816MOL0     H 7649   5.759   6.399   9.059  2.3133 -1.7304  3.1517
  816MOL0     H 7650   5.720   6.264   8.934  0.8502  3.5667 -1.3938
  816MOL0     H 7651   5.948   6.268   8.915  2.5129  2.8436  0.7636
  816MOL0     H 7652   5.916   6.153   9.050 -2.5445  0.0819  0.3357
  816MOL0     H 7653   5.969   6.314   9.219  0.3832  2.7761  0.9140
  816MOL0     H 7654   5.986   6.439   9.103  0.1231 -0.3283 -2.4772
  816MOL0     H 7655   6.157   6.189   9.087  0.8286 -0.2176  1.8721
  816MOL0     H 7656   6.171   6.342   8.990 -1.3460 -0.6188 -0.6312
  816MOL0     H 7657   6.255   6.469   9.179  3.3005  0.0910  1.0623
  816MOL0     H 7658   6.350   6.333   9.146 -1.3561 -2.7186 -0.2196
  816MOL0     H 7659   6.140   6.288   9.358  0.5236  0.5639  2.6549
  816MOL0     H 7660   6.298   6.364   9.389  1.6161 -1.8592  0.3402
  816MOL0     H 7661   6.256   6.081   9.266  3.8664 -2.7875 -1.7676
  816MOL0     H 7662   6.413   6.171   9.296 -0.4938  2.1343 -4.4817
  816MOL0     H 7663   6.222   6.072   9.511 -0.7824 -2.3516 -2.5796
  816MOL0     H 7664   6.351   6.195   9.535  0.6071 -0.4937 -0.5711
  816MOL0     H 7665   6.598   6.113   9.429  3.3838  1.0462  3.8883
  816MOL0     H 7666   6.809   5.950   9.461 -0.8823  2.5836  3.4466
  816MOL0     H 7667   6.751   5.792   9.406 -3.3150  2.9226 -2.7049
  816MOL0     H 7668   6.711   5.753   9.677  0.2692  1.1739  1.4243
  816MOL0     H 7669   6.790   5.909   9.692  0.1543  1.9417 -2.4110
  816MOL0     H 7670   6.914   5.649   9.693  2.8907 -1.2395  1.0670
  816MOL0     H 7671   6.933   5.700   9.526 -0.5172  1.9287 -0.0530
  816MOL0     H 7672   7.047   5.930   9.599  0.2855 -0.1212  0.3339
  816MOL0     H 7673   7.137   5.783   9.631  0.1814 -2.0980  3.4740
  816MOL0     H 7674   7.298   5.886   9.808  1.1057  2.3477 -1.9135
  816MOL0     H 7675   7.430   6.069   9.891  0.1877  1.0778 -4.5762
  816MOL0     H 7676   7.366   6.541  10.153  1.0148  2.1994 -0.2123
  816MOL0     H 7677   7.532   6.719  10.137 -1.5064 -0.0948  0.3341
  816MOL0     H 7678   7.833   6.824  10.325  1.6602 -0.2477 -2.1063
  816MOL0     H 7679   7.664   6.818  10.270 -0.0796 -1.2706 -2.1155
  816MOL0     H 7680   7.765   6.903  10.038  1.8211 -0.2253 -1.2442
  816MOL0     H 7681   7.919   6.906  10.138  0.3487 -0.4116 -0.3928
  816MOL0     H 7682   7.771   7.052  10.292 -1.5406 -1.9532  0.5056
  816MOL0     H 7683   7.642   7.041  10.178 -0.4286  2.2190 -0.3861
  816MOL0     H 7684   7.902   7.151  10.067  1.2684 -5.7684  0.0446
  816MOL0     H 7685   7.735   7.162  10.007  0.3943  3.8455  0.3320
  816MOL0     H 7686   7.803   7.327  10.235 -2.6367 -0.3679  2.2818
  816MOL0     H 7687   7.638   7.272  10.187  0.6858 -1.0292  1.6606
  816MOL0     H 7688   7.674   7.470  10.099 -1.9403 -1.2995 -0.6894
  816MOL0     H 7689   7.683   7.374   9.951 -0.8458 -0.1898 -0.2889
  816MOL0     H 7690   7.906   7.486  10.126  7.1717 -1.1348 -1.9720
  816MOL0     H 7691   7.942   7.370  10.001  1.0105  0.3939 -2.1199
  816MOL0     H 7692   7.879   7.527   9.821 -0.5928  0.2576 -0.2028
  816MOL0     H 7693   7.973   7.624   9.922 -1.4443  0.8187 -1.5410
  816MOL0     H 7694   7.838   6.418  10.216 -0.8550 -1.8186  2.2589
  816MOL0     H 7695   7.669   6.248  10.147 -0.5675 -0.9380 -0.9672
  816MOL0     H 7696   7.046   6.268   9.975 -1.3051  0.4121 -0.1102
  816MOL0     H 7697   6.930   6.069   9.905 -0.1177 -1.5623  1.9731
  816MOL0     H 7698   5.588   6.180   9.354  1.9726 -3.1271 -2.8820
  816MOL0     H 7699   5.350   6.217   9.405  0.4692  0.9950 -0.0257
  816MOL0     H 7700   4.929   6.378   9.084 -0.1900  1.4653 -0.7728
  816MOL0     H 7701   4.705   6.411   9.070  2.2955 -3.5864 -1.5697
  816MOL0     H 7702   4.502   6.268   9.347  1.9981  1.4556  1.2616
  816MOL0     H 7703   4.433   6.318   9.184  3.7845 -1.5489 -0.9242
  816MOL0     H 7704   4.276   6.475   9.305  1.5766  0.0704 -2.4854
  816MOL0     H 7705   4.252   6.299   9.323  1.5538 -1.3925  0.2318
  816MOL0     H 7706   4.374   6.290   9.548  0.5422 -1.0211 -3.6708
  816MOL0     H 7707   4.218   6.358   9.541 -0.1042  0.9476 -0.7962
  816MOL0     H 7708   4.473   6.529   9.519  1.0801 -1.4103  1.6252
  816MOL0     H 7709   4.314   6.588   9.524 -1.0105 -0.1302  2.7460
  816MOL0     H 7710   4.344   6.484   9.932 -0.9819  2.4007 -0.1395
  816MOL0     H 7711   4.667   6.450   9.503  0.4094 -1.2402  0.6591
  816MOL0     H 7712   4.902   6.381   9.523  0.8641  0.3600 -0.8558
  817MOL0     O 7713  10.831   2.098   3.896 -1.3913 -0.4768 -0.6311
  817MOL0     C 7714  10.941   2.054   3.920 -0.0617 -0.1037  0.8786
  817MOL0     O 7715  10.970   1.921   3.924  0.0078  0.1346 -0.2620
  817MOL0     C 7716  10.880   1.828   3.905  1.2248  0.5559  0.3451
  817MOL0     C 7717  10.813   1.775   4.016  0.2449 -0.2252 -0.0279
  817MOL0     C 7718  10.742   1.656   4.001 -0.5700  0.8977 -0.6465
  817MOL0     C 7719  10.722   1.595   3.877  0.0439 -0.3754 -0.0108
  817MOL0     O 7720  10.667   1.473   3.855 -0.0047  0.6603  0.1721
  817MOL0     C 7721  10.666   1.386   3.970 -0.1844 -0.1487  0.2472
  817MOL0     C 7722  10.630   1.248   3.902 -0.5536  0.1054 -0.2111
  817MOL0     C 7723  10.653   1.140   4.006 -0.3139  0.0357 -0.3607
  817MOL0     C 7724  10.558   1.147   4.130 -0.8060  0.4465 -0.0995
  817MOL0     C 7725  10.602   1.026   4.219 -0.1687  0.4105  0.9497
  817MOL0     C 7726  10.530   1.018   4.343 -0.0331  0.4734 -1.0804
  817MOL0     C 7727  10.567   0.913   4.445  0.6387  0.5844 -0.0224
  817MOL0     C 7728  10.691   0.944   4.530  0.6323  0.5896  0.5268
  817MOL0     N 7729  10.677   1.076   4.599 -0.2639  0.5716  0.4265
  817MOL0     C 7730  10.750   1.185   4.544  0.3248 -0.5416  0.3677
  817MOL0     C 7731  10.681   1.289   4.597  0.3751  0.5750  0.3480
  817MOL0     C 7732  10.707   1.431   4.571  0.4356 -0.3936  1.0394
  817MOL0     C 7733  10.673   1.474   4.424 -1.5210 -0.5289 -0.2368
  817MOL0     C 7734  10.629   1.627   4.396 -0.1076  0.2354 -0.7427
  817MOL0     C 7735  10.719   1.734   4.464 -0.8148 -0.0753  0.4087
  817MOL0     O 7736  10.700   1.731   4.608  0.0477  0.5879 -0.2098
  817MOL0     C 7737  10.727   1.842   4.683 -0.5819 -0.6323  1.1734
  817MOL0     C 7738  10.692   1.826   4.817  0.5660  0.7629 -0.5653
  817MOL0     C 7739  10.722   1.919   4.917 -0.0150  0.4030  0.4530
  817MOL0     C 7740  10.784   2.040   4.886 -0.3243 -0.3369  0.4378
  817MOL0     C 7741  10.814   2.139   4.987  0.6815  0.2773 -0.2901
  817MOL0     O 7742  10.776   2.106   5.114  0.6035  1.1046 -0.7478
  817MOL0     C 7743  10.722   2.201   5.201  0.1508 -0.6040  0.3722
  817MOL0     C 7744  10.690   2.150   5.331  0.7199  0.2054 -0.8317
  817MOL0     C 7745  10.650   2.238   5.433 -0.6126  1.1808  0.6577
  817MOL0     C 7746  10.623   2.374   5.406 -0.6144  0.7938  0.2285
  817MOL0     O 7747  10.583   2.448   5.514  0.1105 -0.4537  0.0589
  817MOL0     C 7748  10.614   2.590   5.504 -0.1463 -0.6379 -0.2541
  817MOL0     C 7749  10.567   2.683   5.618 -0.1309  0.1371  0.5464
  817MOL0     C 7750  10.598   2.623   5.754 -0.7033 -0.2644 -0.2664
  817MOL0     C 7751  10.567   2.726   5.867  0.6670 -0.4047  0.3673
  817MOL0     C 7752  10.651   2.685   5.989 -0.7481 -0.7440  0.6805
  817MOL0     C 7753  10.598   2.756   6.116  0.1818 -0.3251 -0.7038
  817MOL0     C 7754  10.639   2.900   6.121 -0.2640 -0.5040  0.1566
  817MOL0     C 7755  10.567   3.002   6.210 -0.1209  0.3736 -1.1073
  817MOL0    Cl 7756  10.495   2.908   6.348 -0.1292  0.2934 -0.0829
  817MOL0     C 7757  10.654   2.426   5.283  0.0401  0.8578  0.5257
  817MOL0     C 7758  10.701   2.341   5.188 -0.5389  0.9080 -0.1963
  817MOL0     O 7759  10.869   2.243   4.959  0.1251 -1.1968 -0.4679
  817MOL0     C 7760  10.818   2.055   4.751 -0.3416 -0.4282  0.7329
  817MOL0     C 7761  10.790   1.962   4.653 -0.2211 -0.2021  1.0466
  817MOL0     N 7762  10.592   1.243   4.695 -0.5354 -0.6714  0.4049
  817MOL0     N 7763  10.583   1.112   4.686  0.5764 -0.2328  0.1918
  817MOL0     C 7764  10.794   1.648   3.768  0.2956 -0.9029  0.3785
  817MOL0     C 7765  10.875   1.765   3.777  0.4767  0.6315  0.6471
  817MOL0     C 7766  11.047   2.157   3.939 -0.2340  0.5635 -0.1378
  817MOL0     C 7767  11.177   2.115   3.964  0.3853 -0.1238  0.1170
  817MOL0     C 7768  11.277   2.211   4.006  0.1101 -0.6336 -0.4050
  817MOL0     C 7769  11.248   2.343   4.018  0.3221 -0.1837 -0.2799
  817MOL0     O 7770  11.335   2.436   4.051 -0.1225  0.2699  0.2978
  817MOL0     C 7771  11.467   2.394   4.083 -0.4020  0.9876 -0.0738
  817MOL0     C 7772  11.546   2.521   4.122 -0.5553  0.3412  0.1736
  817MOL0     C 7773  11.572   2.516   4.272  0.1482 -0.1052  0.0007
  817MOL0     C 7774  11.662   2.619   4.333 -0.4720  0.2619 -0.8213
  817MOL0     C 7775  11.794   2.604   4.289 -0.8403  0.2726  0.8864
  817MOL0     C 7776  11.912   2.597   4.257 -0.7227 -0.2082 -0.1685
  817MOL0     C 7777  11.121   2.384   3.983  0.1784 -0.0149  0.1749
  817MOL0     C 7778  11.018   2.299   3.950 -0.2351 -0.6806  0.1839
  817MOL0     H 7779  10.818   1.830   4.109 -0.0763  1.7137 -1.0903
  817MOL0     H 7780  10.689   1.616   4.086  1.1601 -3.7917 -1.4609
  817MOL0     H 7781  10.586   1.412   4.040 -0.2615  0.0647  0.0799
  817MOL0     H 7782  10.756   1.384   4.031 -1.2852 -0.5728  1.9266
  817MOL0     H 7783  10.701   1.232   3.821  1.1066  0.7955  1.0493
  817MOL0     H 7784  10.532   1.252   3.853 -0.2899 -0.8603 -0.8479
  817MOL0     H 7785  10.758   1.123   4.030 -0.8202 -0.5099  1.7257
  817MOL0     H 7786  10.625   1.054   3.944  0.0601  0.1808 -0.7305
  817MOL0     H 7787  10.571   1.239   4.187  1.9993 -0.5487  1.0366
  817MOL0     H 7788  10.456   1.126   4.095 -1.1073 -0.5197  1.2531
  817MOL0     H 7789  10.711   1.024   4.231 -0.0205 -0.6559 -0.4273
  817MOL0     H 7790  10.579   0.936   4.162 -0.9474  0.7916  0.6359
  817MOL0     H 7791  10.422   1.015   4.327 -0.6095  3.4601  1.1481
  817MOL0     H 7792  10.539   1.114   4.395 -0.0112  0.0913 -0.3640
  817MOL0     H 7793  10.489   0.925   4.521  0.7357  2.3755 -0.1701
  817MOL0     H 7794  10.567   0.807   4.419 -1.5045  0.5787 -0.1824
  817MOL0     H 7795  10.781   0.941   4.467  2.0008 -4.2950  2.2289
  817MOL0     H 7796  10.691   0.869   4.610 -1.3109  1.5468  1.4804
  817MOL0     H 7797  10.825   1.179   4.466  1.7151 -1.8548  1.7302
  817MOL0     H 7798  10.809   1.459   4.599 -0.1312  0.5341  2.2759
  817MOL0     H 7799  10.651   1.493   4.641  3.3500  3.1407  0.5259
  817MOL0     H 7800  10.585   1.415   4.395 -1.2955 -1.3164  0.6282
  817MOL0     H 7801  10.763   1.462   4.363  0.0255  0.8145  1.6803
  817MOL0     H 7802  10.623   1.653   4.290 -0.6578  1.3162 -0.4635
  817MOL0     H 7803  10.530   1.640   4.441  0.3450 -0.5331  0.5609
  817MOL0     H 7804  10.674   1.822   4.417 -0.3187 -1.7077 -3.4678
  817MOL0     H 7805  10.825   1.723   4.439 -0.6032 -2.5018  2.0059
  817MOL0     H 7806  10.644   1.730   4.835  1.3867  0.2107 -1.2257
  817MOL0     H 7807  10.685   1.888   5.014 -3.6379  2.7797  0.0258
  817MOL0     H 7808  10.718   2.045   5.343 -1.1276 -0.3088 -0.8017
  817MOL0     H 7809  10.638   2.197   5.532 -2.8476  3.4149  1.4115
  817MOL0     H 7810  10.583   2.637   5.410  2.7611  1.9522 -0.0967
  817MOL0     H 7811  10.723   2.590   5.496 -0.2662  0.4826 -3.3480
  817MOL0     H 7812  10.457   2.687   5.612 -0.2902 -2.0096  1.0950
  817MOL0     H 7813  10.613   2.780   5.598  0.2373 -0.4902 -1.9823
  817MOL0     H 7814  10.700   2.584   5.744 -0.5675  0.4408 -1.9542
  817MOL0     H 7815  10.521   2.548   5.776 -3.0444  2.7642  2.9523
  817MOL0     H 7816  10.593   2.824   5.825 -0.1182  0.4453  1.7894
  817MOL0     H 7817  10.459   2.724   5.885  0.1674 -1.3467 -2.2363
  817MOL0     H 7818  10.755   2.717   5.983 -1.1445  1.0209  2.2437
  817MOL0     H 7819  10.647   2.577   6.002 -0.8204 -0.6145  1.8339
  817MOL0     H 7820  10.625   2.701   6.207 -3.0518 -1.1846 -0.1246
  817MOL0     H 7821  10.489   2.749   6.106 -0.2398  2.3119  1.0809
  817MOL0     H 7822  10.747   2.908   6.140 -0.2541  0.8051 -0.3930
  817MOL0     H 7823  10.621   2.932   6.018  1.9354 -1.1419 -0.4846
  817MOL0     H 7824  10.472   3.046   6.176 -1.0433  2.4329  3.4160
  817MOL0     H 7825  10.634   3.083   6.240  0.5027 -0.7742  0.7359
  817MOL0     H 7826  10.655   2.532   5.263  1.9622  0.9769  1.0386
  817MOL0     H 7827  10.737   2.392   5.099  1.8267  1.9891  1.2752
  817MOL0     H 7828  10.879   2.141   4.723 -2.9047  1.5758  0.9257
  817MOL0     H 7829  10.834   1.962   4.554  1.5033 -0.8635  1.7754
  817MOL0     H 7830  10.783   1.593   3.675  1.0338 -0.4837  0.0368
  817MOL0     H 7831  10.937   1.803   3.697 -1.6487  0.3084 -1.2583
  817MOL0     H 7832  11.212   2.012   3.963  0.5548 -0.0705  0.2960
  817MOL0     H 7833  11.378   2.180   4.033  0.3741  0.5363 -0.0190
  817MOL0     H 7834  11.510   2.349   3.993  2.5058  2.1017  0.6388
  817MOL0     H 7835  11.468   2.326   4.168 -2.3575 -0.1564 -0.8908
  817MOL0     H 7836  11.639   2.526   4.066 -1.5904 -0.0933 -1.6455
  817MOL0     H 7837  11.493   2.613   4.096 -0.6018  0.5431  0.9364
  817MOL0     H 7838  11.602   2.415   4.302  1.1835 -0.4092 -1.8636
  817MOL0     H 7839  11.479   2.550   4.317  0.3117  1.9975 -1.1595
  817MOL0     H 7840  11.636   2.721   4.304  0.5570  1.0511  0.9018
  817MOL0     H 7841  11.648   2.612   4.441  0.8205  0.9578 -0.5928
  817MOL0     H 7842  12.015   2.589   4.228 -1.3940 -0.7734 -2.6462
  817MOL0     H 7843  11.101   2.490   3.995  2.2159  0.6361 -1.3541
  817MOL0     H 7844  10.919   2.333   3.921 -0.6868 -0.0846  2.2073
  818MOL0     O 7845   4.438  10.055   6.353 -0.3495  0.8811 -0.4546
  818MOL0     C 7846   4.515  10.144   6.331 -0.0785 -0.5062 -0.1531
  818MOL0     O 7847   4.497  10.239   6.228 -0.5694  0.0230  0.0818
  818MOL0     C 7848   4.385  10.237   6.148 -0.1896  0.6596  1.1556
  818MOL0     C 7849   4.251  10.255   6.196 -1.2293 -1.0614  0.1920
  818MOL0     C 7850   4.148  10.250   6.123 -0.2215  0.2511  1.0829
  818MOL0     C 7851   4.157  10.223   5.987  0.2014 -1.0366 -0.2791
  818MOL0     O 7852   4.038  10.230   5.923  0.0691  0.6880 -0.5204
  818MOL0     C 7853   4.027  10.232   5.779 -0.0956  0.8949  0.4509
  818MOL0     C 7854   3.880  10.242   5.752  1.3569 -0.8009 -0.1629
  818MOL0     C 7855   3.841  10.221   5.610  0.5465  0.0194  0.3330
  818MOL0     C 7856   3.905  10.323   5.507  0.1835 -0.4163  0.0757
  818MOL0     C 7857   3.860  10.306   5.361  0.1323  0.8771  0.5850
  818MOL0     C 7858   3.755  10.399   5.306  0.2383 -0.0818 -0.3803
  818MOL0     C 7859   3.712  10.375   5.164  0.0161 -0.5578  0.0810
  818MOL0     C 7860   3.654  10.503   5.106  0.2102 -0.2833  0.4215
  818MOL0     N 7861   3.609  10.482   4.968 -1.4504  0.1813 -0.3070
  818MOL0     C 7862   3.494  10.423   4.929 -0.2191 -0.4714 -0.5705
  818MOL0     C 7863   3.506  10.411   4.796 -0.1514 -0.1220  0.0063
  818MOL0     C 7864   3.400  10.344   4.715 -0.2623  0.5228  0.0854
  818MOL0     C 7865   3.265  10.423   4.708  0.3030 -0.3523 -0.0556
  818MOL0     C 7866   3.294  10.570   4.719 -0.7540  0.5448 -0.5091
  818MOL0     C 7867   3.189  10.648   4.640  0.5429 -0.3034  0.4837
  818MOL0     O 7868   3.237  10.779   4.611  0.2714 -1.3983  0.0925
  818MOL0     C 7869   3.182  10.883   4.682 -0.4129 -0.3543  0.3699
  818MOL0     C 7870   3.095  10.977   4.620 -0.4281  0.0564  0.5294
  818MOL0     C 7871   3.013  11.062   4.694 -0.6470 -0.2346  0.7081
  818MOL0     C 7872   3.016  11.064   4.830 -0.3096  0.4492  0.1757
  818MOL0     C 7873   2.945  11.163   4.909  1.0951 -1.2706 -0.1947
  818MOL0     O 7874   2.825  11.202   4.856  1.0787 -0.2939 -0.3081
  818MOL0     C 7875   2.733  11.284   4.906  0.1012 -0.3514  0.8700
  818MOL0     C 7876   2.720  11.337   5.034 -0.0680  1.3590  0.1509
  818MOL0     C 7877   2.628  11.436   5.071  0.1876 -0.3434  0.0571
  818MOL0     C 7878   2.541  11.488   4.971 -0.2097 -0.7154  0.6990
  818MOL0     O 7879   2.462  11.599   5.010  0.5239 -0.5244 -0.5927
  818MOL0     C 7880   2.332  11.600   4.956 -0.5921 -0.6791 -0.5675
  818MOL0     C 7881   2.242  11.698   5.019  0.7477 -0.8821 -0.5540
  818MOL0     C 7882   2.253  11.841   4.970  0.1881 -0.2508 -0.0850
  818MOL0     C 7883   2.161  11.934   5.049  0.0115  0.3838 -0.1176
  818MOL0     C 7884   2.157  12.072   4.987  0.3082  0.4089  0.6849
  818MOL0     C 7885   2.054  12.066   4.866  0.3226 -0.9321  0.3668
  818MOL0     C 7886   1.910  12.063   4.909  0.2040  0.2033  0.1083
  818MOL0     C 7887   1.842  12.192   4.897  0.4372  0.1958  0.1763
  818MOL0    Cl 7888   1.835  12.234   4.723  0.3456 -0.1985  0.0314
  818MOL0     C 7889   2.544  11.438   4.848 -0.5569 -0.5480 -0.4158
  818MOL0     C 7890   2.635  11.332   4.821 -0.2315  0.0782 -0.8068
  818MOL0     O 7891   2.994  11.200   5.013  0.1831  0.0587 -0.1659
  818MOL0     C 7892   3.107  10.973   4.894  0.4062  0.0054 -0.3476
  818MOL0     C 7893   3.186  10.882   4.823 -0.8841  0.0369  2.5603
  818MOL0     N 7894   3.634  10.449   4.754  0.7737 -0.1909  0.2602
  818MOL0     N 7895   3.699  10.498   4.859  0.1905 -0.1029 -0.8268
  818MOL0     C 7896   4.276  10.195   5.924 -0.3447 -0.1329  0.0009
  818MOL0     C 7897   4.393  10.199   6.007  0.2256 -0.7220 -0.4149
  818MOL0     C 7898   4.651  10.150   6.408  0.5731 -0.0710  0.0948
  818MOL0     C 7899   4.696  10.040   6.479  0.2961 -0.9043 -0.1911
  818MOL0     C 7900   4.832  10.043   6.536 -0.9968  0.8048 -0.2221
  818MOL0     C 7901   4.901  10.161   6.544  0.7525 -0.0718  1.1461
  818MOL0     O 7902   5.026  10.147   6.604 -0.0543 -0.0112 -0.2179
  818MOL0     C 7903   5.116  10.259   6.598  0.6615 -0.3714 -0.8635
  818MOL0     C 7904   5.230  10.240   6.698 -1.1306  0.0145 -0.3930
  818MOL0     C 7905   5.191  10.275   6.841 -0.3232  0.3696 -0.0889
  818MOL0     C 7906   5.124  10.159   6.905  0.6438  0.3856  0.2684
  818MOL0     C 7907   5.118  10.201   7.053  0.0166  0.3849 -0.2047
  818MOL0     C 7908   5.101  10.247   7.166  0.4886  0.3918  0.0753
  818MOL0     C 7909   4.851  10.278   6.480  0.9906  0.4317 -0.4176
  818MOL0     C 7910   4.724  10.273   6.412 -0.2583 -1.0475  0.4289
  818MOL0     H 7911   4.227  10.286   6.297  1.3088  1.0681  0.2573
  818MOL0     H 7912   4.046  10.269   6.157 -0.2437  0.2523  1.0152
  818MOL0     H 7913   4.064  10.140   5.732 -0.2924  1.3298 -0.5923
  818MOL0     H 7914   4.084  10.313   5.734  0.0093  1.3456  1.3674
  818MOL0     H 7915   3.851  10.343   5.782  4.5125  0.3776 -0.6915
  818MOL0     H 7916   3.829  10.166   5.812  3.7246 -1.4481  1.1402
  818MOL0     H 7917   3.732  10.229   5.604  0.4701 -0.6982  0.6518
  818MOL0     H 7918   3.866  10.125   5.565 -1.8518  0.4930 -2.2692
  818MOL0     H 7919   3.883  10.425   5.539  0.7232 -0.8035  1.7875
  818MOL0     H 7920   4.014  10.324   5.521  0.3847 -0.3697 -1.3489
  818MOL0     H 7921   3.839  10.201   5.336 -2.7428  1.8020 -1.3385
  818MOL0     H 7922   3.949  10.338   5.304  0.5418  2.1647  1.8875
  818MOL0     H 7923   3.781  10.504   5.322 -0.0279 -0.0263 -0.3161
  818MOL0     H 7924   3.673  10.388   5.377 -1.7567 -0.0229 -2.5850
  818MOL0     H 7925   3.793  10.340   5.100  0.2927  0.3741 -0.0894
  818MOL0     H 7926   3.632  10.300   5.163 -0.0811 -0.5141  1.8901
  818MOL0     H 7927   3.739  10.570   5.092  0.4122 -0.8450 -1.2236
  818MOL0     H 7928   3.580  10.559   5.165 -1.1996  2.2345 -3.3219
  818MOL0     H 7929   3.411  10.406   4.997 -1.2171  0.6410 -1.4645
  818MOL0     H 7930   3.379  10.244   4.756  0.5458 -0.4254 -1.7026
  818MOL0     H 7931   3.442  10.333   4.615  1.1586  1.7210  0.5164
  818MOL0     H 7932   3.190  10.387   4.779 -0.0113  0.1365 -0.1396
  818MOL0     H 7933   3.212  10.390   4.618 -0.4488  1.9411 -0.5076
  818MOL0     H 7934   3.282  10.601   4.823 -2.1265  2.1373 -1.0896
  818MOL0     H 7935   3.397  10.592   4.690  0.1467 -0.3319  1.7791
  818MOL0     H 7936   3.101  10.657   4.703  1.3053 -1.7094  1.8240
  818MOL0     H 7937   3.149  10.590   4.556  0.5294 -0.2510  0.4537
  818MOL0     H 7938   3.077  10.970   4.513 -1.8232  0.8253  0.6931
  818MOL0     H 7939   2.963  11.144   4.644  1.4747  1.5916  1.3957
  818MOL0     H 7940   2.789  11.302   5.109  0.3672  1.5167 -0.1760
  818MOL0     H 7941   2.648  11.471   5.171  0.5041 -1.5930  0.4563
  818MOL0     H 7942   2.283  11.503   4.967 -1.9359 -0.0184 -0.5184
  818MOL0     H 7943   2.328  11.623   4.849 -2.0922 -1.6717 -0.7467
  818MOL0     H 7944   2.244  11.686   5.127 -0.2980  0.2065 -0.4029
  818MOL0     H 7945   2.141  11.665   4.993  0.4268 -0.0217 -0.4453
  818MOL0     H 7946   2.228  11.830   4.864  0.4625 -0.5078 -0.1239
  818MOL0     H 7947   2.357  11.870   4.982  0.9313 -1.6741 -2.4336
  818MOL0     H 7948   2.064  11.884   5.056  0.9121 -1.5136 -0.5821
  818MOL0     H 7949   2.204  11.948   5.149  0.8754  0.4202 -0.4788
  818MOL0     H 7950   2.251  12.112   4.947  0.4889 -1.6597 -1.1638
  818MOL0     H 7951   2.114  12.140   5.061 -2.8206  0.0694 -0.6959
  818MOL0     H 7952   2.064  11.982   4.796  0.1565  0.6669 -1.6682
  818MOL0     H 7953   2.069  12.154   4.803  0.9955 -1.3138 -0.0107
  818MOL0     H 7954   1.855  11.994   4.844  1.7177  2.3326 -3.7995
  818MOL0     H 7955   1.895  12.027   5.011  1.9594 -0.5473  0.1335
  818MOL0     H 7956   1.893  12.273   4.951  1.5419 -0.5822  0.3440
  818MOL0     H 7957   1.742  12.175   4.937  1.4301 -1.9438  1.9554
  818MOL0     H 7958   2.483  11.473   4.765  0.8568  1.9254 -0.5271
  818MOL0     H 7959   2.624  11.278   4.727 -1.1815  1.4235 -1.4970
  818MOL0     H 7960   3.107  10.966   5.003 -2.6395 -1.3580 -0.3419
  818MOL0     H 7961   3.239  10.807   4.881 -4.5904 -0.6175  5.5493
  818MOL0     H 7962   4.284  10.165   5.820 -1.4550  1.3724 -0.5562
  818MOL0     H 7963   4.491  10.178   5.965  0.7233 -0.9074  0.7901
  818MOL0     H 7964   4.637   9.951   6.495  0.9929 -1.8313 -2.4570
  818MOL0     H 7965   4.880   9.967   6.597 -2.1951  0.9313  0.9226
  818MOL0     H 7966   5.058  10.350   6.618 -2.0860 -2.2363  0.2502
  818MOL0     H 7967   5.154  10.278   6.497 -0.4637  5.5127 -0.5193
  818MOL0     H 7968   5.272  10.139   6.690  1.9303  0.6103  4.4174
  818MOL0     H 7969   5.305  10.309   6.658 -2.6977  3.5551  2.2370
  818MOL0     H 7970   5.125  10.363   6.836 -0.1042  0.5197 -0.3470
  818MOL0     H 7971   5.281  10.312   6.891 -0.4399 -0.1553  0.5313
  818MOL0     H 7972   5.021  10.140   6.872  0.5109  0.4423  0.6397
  818MOL0     H 7973   5.176  10.065   6.885  2.1892  1.2822 -0.1217
  818MOL0     H 7974   5.092  10.275   7.268  3.2968 -0.1564  0.5527
  818MOL0     H 7975   4.906  10.371   6.465 -1.7815  1.7290 -4.3195
  818MOL0     H 7976   4.697  10.361   6.356  0.0574 -2.6411 -2.3917
  819MOL0     O 7977   0.557   7.132   4.372  0.7325  0.6456  0.0410
  819MOL0     C 7978   0.612   7.175   4.261  1.2061  0.5597 -0.5391
  819MOL0     O 7979   0.698   7.284   4.237  0.0559  0.8830  0.0057
  819MOL0     C 7980   0.761   7.336   4.341  0.5879 -0.2328 -0.6879
  819MOL0     C 7981   0.803   7.258   4.452  0.3679 -1.0049  0.4287
  819MOL0     C 7982   0.870   7.314   4.557 -0.3889  0.6214  0.3062
  819MOL0     C 7983   0.879   7.451   4.561 -0.5394 -0.1159 -0.3942
  819MOL0     O 7984   0.943   7.514   4.666 -0.7071 -0.4685  0.4260
  819MOL0     C 7985   1.078   7.469   4.661  0.4337 -0.7057  0.0488
  819MOL0     C 7986   1.156   7.538   4.765  1.0424 -1.7064 -0.6819
  819MOL0     C 7987   1.272   7.460   4.823 -0.7496 -0.5179  0.0089
  819MOL0     C 7988   1.365   7.534   4.915 -0.5470 -0.4455  1.5261
  819MOL0     C 7989   1.470   7.627   4.844  0.3245  0.3442 -0.8996
  819MOL0     C 7990   1.581   7.543   4.780 -1.1604  1.1983  0.4386
  819MOL0     C 7991   1.676   7.650   4.721 -0.4024 -0.5771  0.2836
  819MOL0     C 7992   1.792   7.609   4.627  0.0406 -0.2812 -0.3167
  819MOL0     N 7993   1.740   7.574   4.490  0.1186 -0.7922  0.2569
  819MOL0     C 7994   1.676   7.464   4.465  0.1822  0.1488  0.5662
  819MOL0     C 7995   1.632   7.466   4.333  0.2526  0.6070 -0.4447
  819MOL0     C 7996   1.564   7.349   4.278  0.1033  0.1737  0.7061
  819MOL0     C 7997   1.551   7.356   4.121  0.0734  0.3987 -1.0028
  819MOL0     C 7998   1.462   7.244   4.076  0.3223 -0.1170  0.0266
  819MOL0     C 7999   1.463   7.224   3.918  0.8654 -0.6757  0.0004
  819MOL0     O 8000   1.320   7.191   3.879 -0.0017 -0.1254  0.5038
  819MOL0     C 8001   1.218   7.288   3.893 -0.2866  0.5214  0.1436
  819MOL0     C 8002   1.250   7.422   3.908  0.8200  0.4745 -0.7799
  819MOL0     C 8003   1.161   7.523   3.930  0.3851 -1.1236  0.1911
  819MOL0     C 8004   1.024   7.492   3.923 -0.2864 -0.2371 -0.7226
  819MOL0     C 8005   0.916   7.598   3.941  0.3725 -0.5074 -0.2738
  819MOL0     O 8006   0.963   7.730   3.948  0.4333 -0.0608 -0.3922
  819MOL0     C 8007   0.889   7.831   4.018  0.0553  0.2650 -0.9356
  819MOL0     C 8008   0.968   7.908   4.114  0.6071 -0.8727  1.0628
  819MOL0     C 8009   0.903   7.986   4.206 -0.2820 -0.1403 -0.5639
  819MOL0     C 8010   0.774   7.995   4.219 -0.3493  0.7543  0.0448
  819MOL0     O 8011   0.729   8.048   4.333  0.2792 -0.4394 -0.4719
  819MOL0     C 8012   0.752   8.188   4.357  1.4509 -0.5771  0.0419
  819MOL0     C 8013   0.630   8.263   4.406  0.5182  0.3887  0.3160
  819MOL0     C 8014   0.528   8.280   4.295  0.1103 -0.4330  0.1795
  819MOL0     C 8015   0.439   8.167   4.274  0.4805 -0.4231  0.0199
  819MOL0     C 8016   0.361   8.181   4.134 -0.4207  1.0912 -1.3047
  819MOL0     C 8017   0.262   8.293   4.146 -0.4624 -0.1432 -0.1688
  819MOL0     C 8018   0.187   8.310   4.028  0.3604 -0.9282  0.6465
  819MOL0     C 8019   0.086   8.414   4.047  0.4770  0.2662  0.5894
  819MOL0    Cl 8020  -0.020   8.451   3.902  0.2442  0.3983 -0.3091
  819MOL0     C 8021   0.699   7.933   4.123  0.1957  0.6693 -0.6577
  819MOL0     C 8022   0.749   7.852   4.021 -0.0328  0.2298  0.1117
  819MOL0     O 8023   0.806   7.559   3.971 -0.0436 -0.3925  0.0035
  819MOL0     C 8024   0.991   7.360   3.908  0.3590 -0.0146 -0.6343
  819MOL0     C 8025   1.081   7.253   3.891 -0.2075  0.2268 -0.3857
  819MOL0     N 8026   1.671   7.587   4.281 -0.7992  0.3274  0.0167
  819MOL0     N 8027   1.743   7.660   4.376 -0.1745  0.5680  0.9365
  819MOL0     C 8028   0.832   7.525   4.465 -0.0318 -0.6109 -0.2292
  819MOL0     C 8029   0.764   7.478   4.355 -0.2479 -0.3858  0.4984
  819MOL0     C 8030   0.578   7.088   4.142  0.4856  0.6129  0.1170
  819MOL0     C 8031   0.619   7.132   4.006 -0.4944  0.6062 -0.7488
  819MOL0     C 8032   0.590   7.053   3.894  0.3658  0.2095 -0.5079
  819MOL0     C 8033   0.529   6.929   3.903  0.2364  0.4793 -0.1258
  819MOL0     O 8034   0.501   6.840   3.802  0.1097 -0.0128  0.2955
  819MOL0     C 8035   0.544   6.856   3.665  0.3526 -0.6136 -0.5803
  819MOL0     C 8036   0.516   6.731   3.592 -0.6127 -0.3982  0.2755
  819MOL0     C 8037   0.628   6.628   3.601 -0.4725 -0.4721  1.7178
  819MOL0     C 8038   0.593   6.513   3.505 -0.3215  0.7083  0.7758
  819MOL0     C 8039   0.667   6.511   3.374  0.9850 -0.1547 -0.7695
  819MOL0     C 8040   0.740   6.507   3.273  0.5599 -0.9083 -0.1087
  819MOL0     C 8041   0.489   6.886   4.027  0.0741 -0.1141 -0.9883
  819MOL0     C 8042   0.507   6.965   4.151  0.2000  0.3926  0.5356
  819MOL0     H 8043   0.795   7.151   4.442  1.0943 -1.1196  0.9558
  819MOL0     H 8044   0.930   7.256   4.626  0.0545 -0.7743 -1.1867
  819MOL0     H 8045   1.123   7.483   4.563 -0.6724 -0.9428 -0.5157
  819MOL0     H 8046   1.098   7.363   4.680  2.6948 -0.4635 -0.7585
  819MOL0     H 8047   1.081   7.550   4.843 -0.0172 -1.8026 -1.6537
  819MOL0     H 8048   1.194   7.635   4.731 -2.2253 -0.7593 -2.0608
  819MOL0     H 8049   1.334   7.416   4.745 -0.1621 -1.8038  1.1581
  819MOL0     H 8050   1.236   7.375   4.882 -0.2019 -0.5152  0.3574
  819MOL0     H 8051   1.311   7.590   4.992  2.9726  0.4838  3.5641
  819MOL0     H 8052   1.424   7.455   4.962 -0.5316 -0.6398  1.1830
  819MOL0     H 8053   1.512   7.698   4.916 -1.2251  0.2344  0.1601
  819MOL0     H 8054   1.422   7.682   4.762 -1.4955  2.8558  1.6687
  819MOL0     H 8055   1.553   7.482   4.694  1.3195 -0.1592  0.5334
  819MOL0     H 8056   1.640   7.490   4.854  1.8458  2.3385 -0.9638
  819MOL0     H 8057   1.605   7.714   4.666 -0.5001 -0.5387  0.4549
  819MOL0     H 8058   1.725   7.704   4.802 -0.2220 -0.9792  0.4440
  819MOL0     H 8059   1.865   7.535   4.662  0.6918  0.4161 -0.1836
  819MOL0     H 8060   1.852   7.698   4.607  1.4430 -1.5522 -2.1166
  819MOL0     H 8061   1.656   7.382   4.533  0.4401 -1.6439 -1.4174
  819MOL0     H 8062   1.467   7.353   4.328  0.3185  2.0172  1.0371
  819MOL0     H 8063   1.627   7.266   4.311  2.1288  1.5958  0.6486
  819MOL0     H 8064   1.650   7.332   4.083  1.1476 -0.6825  2.1696
  819MOL0     H 8065   1.507   7.452   4.093  1.2574  0.5820 -2.3133
  819MOL0     H 8066   1.492   7.150   4.122  0.9528  0.1707  0.2116
  819MOL0     H 8067   1.363   7.269   4.115 -0.2103 -0.5463 -1.0095
  819MOL0     H 8068   1.522   7.135   3.896 -0.0303 -0.9133 -1.6043
  819MOL0     H 8069   1.510   7.311   3.871 -2.6849 -0.4790 -3.8436
  819MOL0     H 8070   1.356   7.447   3.915  0.2605  2.6405  0.9701
  819MOL0     H 8071   1.185   7.628   3.945  0.1463 -1.2242  1.3556
  819MOL0     H 8072   1.075   7.894   4.126  0.7587  0.5856  1.7257
  819MOL0     H 8073   0.965   8.036   4.279 -0.8543 -1.3967  0.8265
  819MOL0     H 8074   0.792   8.237   4.268 -1.3764  2.9191  0.4636
  819MOL0     H 8075   0.828   8.205   4.435  3.4215 -1.4860 -1.5982
  819MOL0     H 8076   0.659   8.363   4.439  0.2069  0.6758 -0.2650
  819MOL0     H 8077   0.589   8.204   4.489  1.5601  1.1310  1.3787
  819MOL0     H 8078   0.571   8.309   4.199  1.7887 -0.7665  0.7925
  819MOL0     H 8079   0.463   8.364   4.321 -0.1731  0.9444 -4.2363
  819MOL0     H 8080   0.496   8.074   4.263 -1.3140 -1.5644 -0.0015
  819MOL0     H 8081   0.366   8.161   4.355 -0.0871 -0.2705 -0.4731
  819MOL0     H 8082   0.312   8.084   4.119  0.3574 -0.0138  2.2664
  819MOL0     H 8083   0.442   8.196   4.062  1.6628 -2.6252  0.0055
  819MOL0     H 8084   0.311   8.387   4.173 -2.8070  1.1921 -0.2295
  819MOL0     H 8085   0.198   8.260   4.228 -0.3603  0.5733  0.2055
  819MOL0     H 8086   0.247   8.342   3.942 -0.6720  2.2415  0.9530
  819MOL0     H 8087   0.154   8.211   3.995  3.6735 -0.7639 -4.1326
  819MOL0     H 8088   0.134   8.510   4.068  0.9724  0.3724 -0.8982
  819MOL0     H 8089   0.026   8.379   4.131 -2.7875  0.2246 -1.5977
  819MOL0     H 8090   0.594   7.950   4.142 -0.6146 -1.0359 -3.1506
  819MOL0     H 8091   0.677   7.797   3.961  1.5333 -0.1209 -1.5359
  819MOL0     H 8092   0.885   7.338   3.917 -0.1721  2.2674 -0.7160
  819MOL0     H 8093   1.044   7.151   3.891  1.0318 -0.3663  2.8795
  819MOL0     H 8094   0.835   7.632   4.476  0.0558 -0.8608  3.1204
  819MOL0     H 8095   0.715   7.546   4.286 -2.6720  1.1617  3.5111
  819MOL0     H 8096   0.688   7.215   3.998  1.0029 -0.5692 -0.4228
  819MOL0     H 8097   0.614   7.090   3.794  1.0901 -0.6578 -0.6699
  819MOL0     H 8098   0.652   6.870   3.675  0.0208  0.4132  2.9739
  819MOL0     H 8099   0.495   6.943   3.622  4.1021  2.4991  0.8624
  819MOL0     H 8100   0.428   6.677   3.627  0.5616 -3.4173 -1.1132
  819MOL0     H 8101   0.498   6.773   3.493 -1.3063 -1.4259 -0.0449
  819MOL0     H 8102   0.634   6.593   3.704  0.4064 -0.6726  1.6096
  819MOL0     H 8103   0.723   6.673   3.571 -0.7506  0.0487  1.6102
  819MOL0     H 8104   0.621   6.423   3.560 -0.5958  0.5942  0.7307
  819MOL0     H 8105   0.485   6.502   3.493 -0.2309  1.2750 -0.7163
  819MOL0     H 8106   0.798   6.511   3.183  0.1815 -2.3686 -0.4351
  819MOL0     H 8107   0.436   6.792   4.030  0.0259 -0.3634  5.6085
  819MOL0     H 8108   0.480   6.918   4.245 -3.7893  0.6738 -0.3090
  820MOL0     O 8109   1.028   9.656   4.601 -0.1446 -0.0287  0.8129
  820MOL0     C 8110   1.015   9.630   4.480 -0.5199 -0.5119  0.0991
  820MOL0     O 8111   1.090   9.545   4.409  0.2251 -0.7698 -0.0273
  820MOL0     C 8112   1.196   9.502   4.479 -0.4591 -0.5516  1.1063
  820MOL0     C 8113   1.191   9.435   4.598 -0.2257  0.0411 -0.3654
  820MOL0     C 8114   1.303   9.388   4.669 -0.0870  0.0913 -0.0430
  820MOL0     C 8115   1.426   9.393   4.602  0.4512 -0.6253  0.1721
  820MOL0     O 8116   1.541   9.351   4.663  0.1354 -0.1076 -0.1271
  820MOL0     C 8117   1.570   9.209   4.663 -0.2683  0.5640 -0.1415
  820MOL0     C 8118   1.708   9.210   4.726 -0.7488 -0.2527 -0.5170
  820MOL0     C 8119   1.818   9.295   4.659 -0.0825 -0.4692  0.6324
  820MOL0     C 8120   1.831   9.301   4.501  0.7946 -0.1483  0.5476
  820MOL0     C 8121   1.984   9.306   4.454 -0.6288  0.8104 -0.1650
  820MOL0     C 8122   1.992   9.326   4.306  0.7871  0.7545  0.6869
  820MOL0     C 8123   2.135   9.372   4.264  0.6963  1.1425  0.0596
  820MOL0     C 8124   2.250   9.271   4.270 -1.0665 -0.6403 -0.6225
  820MOL0     N 8125   2.259   9.181   4.151  0.2066 -0.7255  0.1352
  820MOL0     C 8126   2.277   9.047   4.145  0.6191  0.7403  0.1685
  820MOL0     C 8127   2.305   9.015   4.019 -0.8569  0.3381 -0.3556
  820MOL0     C 8128   2.303   8.872   3.967  1.6868 -0.1626  0.3422
  820MOL0     C 8129   2.398   8.847   3.842 -0.9324 -0.1982  0.2744
  820MOL0     C 8130   2.545   8.831   3.883  0.2595  1.1230 -0.5520
  820MOL0     C 8131   2.650   8.835   3.773 -0.4257  0.7791  0.4948
  820MOL0     O 8132   2.665   8.704   3.705 -0.5942 -0.9850  0.1872
  820MOL0     C 8133   2.701   8.600   3.783 -0.2732 -0.5757  0.4070
  820MOL0     C 8134   2.764   8.609   3.914 -0.7663 -0.2259  0.6905
  820MOL0     C 8135   2.774   8.488   3.994  0.0958  0.8279  0.4103
  820MOL0     C 8136   2.745   8.359   3.938 -0.0273 -1.0237 -0.9465
  820MOL0     C 8137   2.767   8.240   4.016  0.5841 -0.4841  0.5120
  820MOL0     O 8138   2.698   8.131   3.974 -0.0571  0.7322  0.0343
  820MOL0     C 8139   2.719   8.008   4.033  0.0953  1.0612 -0.5304
  820MOL0     C 8140   2.838   7.938   4.023 -0.3646  0.2081  0.8062
  820MOL0     C 8141   2.842   7.810   4.071  0.8255  0.2036  0.2894
  820MOL0     C 8142   2.747   7.740   4.142  0.1077 -0.2840 -0.0317
  820MOL0     O 8143   2.752   7.602   4.179  0.1347 -0.6659  0.2814
  820MOL0     C 8144   2.631   7.537   4.231 -0.7114 -0.2316 -0.6089
  820MOL0     C 8145   2.662   7.396   4.273  0.3212  0.0770  0.0918
  820MOL0     C 8146   2.536   7.320   4.305 -0.3483  0.3297  0.4009
  820MOL0     C 8147   2.547   7.189   4.379  0.2133  0.0355  0.5315
  820MOL0     C 8148   2.412   7.119   4.416  1.0276  0.9824 -0.9509
  820MOL0     C 8149   2.340   7.204   4.519  0.1301  0.5002 -0.5386
  820MOL0     C 8150   2.238   7.111   4.588 -0.3981 -1.0628  0.1124
  820MOL0     C 8151   2.156   7.183   4.690 -0.3234  0.4815  0.2847
  820MOL0    Cl 8152   2.059   7.329   4.634  0.3941  0.0792 -0.1884
  820MOL0     C 8153   2.628   7.816   4.165  0.1020  0.2341  0.0719
  820MOL0     C 8154   2.612   7.944   4.102  0.0005 -0.3074  0.0464
  820MOL0     O 8155   2.844   8.248   4.111 -0.4050 -0.1747  0.7934
  820MOL0     C 8156   2.692   8.354   3.804  0.8904  0.1938  0.5457
  820MOL0     C 8157   2.685   8.471   3.725  1.4679 -0.1268  0.7170
  820MOL0     N 8158   2.299   9.128   3.944 -0.1522 -0.2734  0.1519
  820MOL0     N 8159   2.280   9.226   4.023 -0.4295  0.2060  0.5121
  820MOL0     C 8160   1.438   9.464   4.484  0.5048 -0.5420  0.5699
  820MOL0     C 8161   1.324   9.523   4.428  0.6718 -0.8094 -0.1041
  820MOL0     C 8162   0.909   9.695   4.408  0.3009 -0.0007  0.1885
  820MOL0     C 8163   0.871   9.651   4.274 -0.6837  0.4977  0.7512
  820MOL0     C 8164   0.774   9.729   4.206 -0.0859 -0.1542  0.5786
  820MOL0     C 8165   0.697   9.835   4.268 -0.9086  0.5800 -0.7084
  820MOL0     O 8166   0.604   9.899   4.191 -0.5144  0.1778 -0.6665
  820MOL0     C 8167   0.626  10.029   4.165  1.0498  0.6006  0.1570
  820MOL0     C 8168   0.498  10.100   4.114  0.6707  0.0675 -0.7249
  820MOL0     C 8169   0.359  10.057   4.186  1.0019 -0.2699 -0.3311
  820MOL0     C 8170   0.368  10.080   4.333 -0.1827 -0.9179  1.2570
  820MOL0     C 8171   0.253  10.023   4.401 -0.4223 -0.6649  0.1432
  820MOL0     C 8172   0.176   9.947   4.451  0.7281 -0.1026 -0.4640
  820MOL0     C 8173   0.733   9.867   4.395 -0.7709  0.9293  0.0435
  820MOL0     C 8174   0.837   9.799   4.467  0.8236  0.1444 -0.3691
  820MOL0     H 8175   1.089   9.421   4.633  0.2424  0.4880  1.3145
  820MOL0     H 8176   1.306   9.343   4.768  0.5270  0.3450  0.0628
  820MOL0     H 8177   1.593   9.175   4.562  2.4940 -1.7215  1.1131
  820MOL0     H 8178   1.499   9.138   4.707 -0.8981 -0.2616 -2.3693
  820MOL0     H 8179   1.749   9.109   4.717 -1.5269 -0.5139 -1.2389
  820MOL0     H 8180   1.692   9.231   4.832  2.4284  1.3295 -0.2431
  820MOL0     H 8181   1.907   9.244   4.696 -2.4760 -5.3348  0.5316
  820MOL0     H 8182   1.812   9.398   4.694  2.7898 -0.9353  2.8543
  820MOL0     H 8183   1.785   9.211   4.460 -2.2731  1.1982  0.7669
  820MOL0     H 8184   1.784   9.390   4.458  0.5096 -0.7790 -0.4698
  820MOL0     H 8185   2.027   9.206   4.469  1.7188  1.7464 -0.3171
  820MOL0     H 8186   2.048   9.377   4.507  0.5006  0.8210 -1.4605
  820MOL0     H 8187   1.925   9.410   4.283  0.4419  0.7675  1.6665
  820MOL0     H 8188   1.954   9.237   4.255  0.4256  2.0160 -1.3651
  820MOL0     H 8189   2.139   9.411   4.162  0.1054  0.0259 -0.4108
  820MOL0     H 8190   2.165   9.450   4.336  1.3580 -1.4471  2.8067
  820MOL0     H 8191   2.238   9.200   4.352  2.4984 -0.8801 -0.1519
  820MOL0     H 8192   2.346   9.320   4.287 -0.5785 -2.6257  3.8462
  820MOL0     H 8193   2.272   8.982   4.232  1.4175 -1.9095 -1.6167
  820MOL0     H 8194   2.198   8.862   3.939  0.9085  1.8172  2.3204
  820MOL0     H 8195   2.327   8.794   4.041  1.4668 -1.1562 -0.6038
  820MOL0     H 8196   2.390   8.936   3.779  2.0829  2.6032  3.4734
  820MOL0     H 8197   2.363   8.759   3.787 -2.4998  0.5277  0.0606
  820MOL0     H 8198   2.575   8.916   3.944  1.5239  2.8946 -3.3990
  820MOL0     H 8199   2.557   8.746   3.949  1.4973  0.2960 -1.7729
  820MOL0     H 8200   2.751   8.861   3.807 -0.1446  0.6923 -0.2462
  820MOL0     H 8201   2.625   8.911   3.698 -0.4808 -0.0861 -0.3932
  820MOL0     H 8202   2.788   8.704   3.960 -3.6663  0.5745  0.6990
  820MOL0     H 8203   2.794   8.498   4.100  1.9659  1.1316  0.0580
  820MOL0     H 8204   2.913   7.978   3.956 -0.6997  2.1196  1.4864
  820MOL0     H 8205   2.932   7.754   4.051  0.3322 -0.3844 -0.2813
  820MOL0     H 8206   2.572   7.535   4.139  2.2637  4.4645 -3.0035
  820MOL0     H 8207   2.572   7.591   4.306 -0.4545 -3.3013  2.0242
  820MOL0     H 8208   2.728   7.390   4.360  0.0532 -0.9762  0.2403
  820MOL0     H 8209   2.706   7.332   4.196 -0.5413 -1.2221  0.6390
  820MOL0     H 8210   2.490   7.294   4.210 -0.4883  0.1543  0.5181
  820MOL0     H 8211   2.458   7.385   4.346  0.0864  1.5162 -0.5946
  820MOL0     H 8212   2.612   7.119   4.326  2.7268  2.8067 -0.2923
  820MOL0     H 8213   2.601   7.219   4.469  0.4182  1.8671 -0.1612
  820MOL0     H 8214   2.449   7.031   4.468  2.2881  1.5856 -0.7861
  820MOL0     H 8215   2.349   7.093   4.331 -0.8679  0.3881  0.5865
  820MOL0     H 8216   2.278   7.282   4.474 -1.5371 -0.3996  0.1147
  820MOL0     H 8217   2.414   7.252   4.584  0.1564 -1.3346  0.8782
  820MOL0     H 8218   2.169   7.071   4.513 -0.9180  1.4577 -0.8642
  820MOL0     H 8219   2.292   7.029   4.634  0.6293 -0.8273 -0.6395
  820MOL0     H 8220   2.216   7.218   4.774  0.4647 -0.8641  0.3130
  820MOL0     H 8221   2.086   7.110   4.730  0.6401 -1.8532 -1.9817
  820MOL0     H 8222   2.539   7.768   4.207  0.3126  0.2820  0.5742
  820MOL0     H 8223   2.519   7.999   4.109  0.3176  0.2516 -0.0996
  820MOL0     H 8224   2.663   8.262   3.754 -2.1951  0.8983  0.8726
  820MOL0     H 8225   2.652   8.454   3.623 -0.7707  2.2577  0.9462
  820MOL0     H 8226   1.540   9.481   4.451  1.2597 -2.5453  1.6315
  820MOL0     H 8227   1.333   9.578   4.335  1.8550 -0.8161 -0.0123
  820MOL0     H 8228   0.932   9.580   4.219  1.3819  2.2624  0.6076
  820MOL0     H 8229   0.756   9.700   4.103 -0.2496  1.5232  0.1142
  820MOL0     H 8230   0.710  10.041   4.096  1.3734 -0.9748  0.2423
  820MOL0     H 8231   0.651  10.074   4.262 -2.5242  1.0805  1.0148
  820MOL0     H 8232   0.504  10.205   4.144 -0.6276  0.2038 -0.8689
  820MOL0     H 8233   0.486  10.101   4.006  1.4668  3.1708 -0.8736
  820MOL0     H 8234   0.351   9.949   4.172  1.7488 -0.8601  2.9300
  820MOL0     H 8235   0.282  10.117   4.137  3.7238  3.6527 -0.3339
  820MOL0     H 8236   0.450  10.020   4.374 -0.9790 -1.9035  1.4413
  820MOL0     H 8237   0.388  10.187   4.348 -0.8531 -0.3058 -1.6037
  820MOL0     H 8238   0.112   9.867   4.484  0.9554  1.1506  3.4496
  820MOL0     H 8239   0.682   9.947   4.448  1.1396  2.8406 -0.8636
  820MOL0     H 8240   0.861   9.836   4.566 -3.0411 -1.9231  1.5901
  821MOL0     O 8241   3.339   6.510   0.586  0.0266 -0.2504  0.4403
  821MOL0     C 8242   3.288   6.587   0.505  0.3629  1.1681 -0.1016
  821MOL0     O 8243   3.335   6.693   0.452 -0.6421 -0.0652 -0.1188
  821MOL0     C 8244   3.471   6.717   0.469  0.2567  0.7220  0.2630
  821MOL0     C 8245   3.575   6.632   0.426  0.8254  0.3725 -0.1898
  821MOL0     C 8246   3.705   6.663   0.447 -0.9664  0.9155 -0.0429
  821MOL0     C 8247   3.739   6.796   0.464 -0.6304  0.1540 -0.3938
  821MOL0     O 8248   3.866   6.835   0.455 -0.3084 -0.7133  0.8179
  821MOL0     C 8249   3.901   6.976   0.482  0.0367  0.8805  0.5671
  821MOL0     C 8250   4.050   6.973   0.494  1.1098 -0.0394 -0.9329
  821MOL0     C 8251   4.119   7.097   0.438 -0.4380 -0.2502 -0.1039
  821MOL0     C 8252   4.269   7.096   0.471 -0.1138 -1.7453 -0.5989
  821MOL0     C 8253   4.359   7.198   0.386  0.5683  1.0455 -0.2587
  821MOL0     C 8254   4.501   7.167   0.444 -0.4652 -0.1594  0.3349
  821MOL0     C 8255   4.618   7.223   0.366  0.2041 -0.9140 -0.6972
  821MOL0     C 8256   4.606   7.383   0.358 -0.2559  0.1248  0.2228
  821MOL0     N 8257   4.630   7.441   0.488  0.9477 -1.0642  0.3767
  821MOL0     C 8258   4.531   7.523   0.552  0.8731 -1.0512 -0.6588
  821MOL0     C 8259   4.593   7.559   0.671 -0.6996  0.4088  0.3599
  821MOL0     C 8260   4.531   7.632   0.779 -0.2496  0.0727 -0.2190
  821MOL0     C 8261   4.604   7.767   0.808 -0.2933 -0.3644 -0.3976
  821MOL0     C 8262   4.732   7.755   0.900  0.8207  0.3940  0.6378
  821MOL0     C 8263   4.689   7.756   1.047 -0.7318 -0.0196 -0.3317
  821MOL0     O 8264   4.788   7.718   1.139 -0.6986 -0.5147  0.8214
  821MOL0     C 8265   4.894   7.800   1.173  0.6719 -0.0466  0.5035
  821MOL0     C 8266   4.991   7.749   1.252  0.7692 -0.3573 -1.5195
  821MOL0     C 8267   5.105   7.818   1.297  0.1615 -0.8616 -0.5096
  821MOL0     C 8268   5.105   7.968   1.270  0.3883  0.1416 -0.2457
  821MOL0     C 8269   5.220   8.057   1.300  0.3400 -0.1841 -1.2093
  821MOL0     O 8270   5.194   8.192   1.322  0.3560  0.0566 -0.5479
  821MOL0     C 8271   5.296   8.271   1.364  0.2974 -0.2907  0.0155
  821MOL0     C 8272   5.277   8.348   1.481  0.4372  0.3982  0.4752
  821MOL0     C 8273   5.384   8.428   1.521 -0.4714 -0.1188 -0.8256
  821MOL0     C 8274   5.516   8.428   1.462  0.4948  0.0336  0.0111
  821MOL0     O 8275   5.613   8.510   1.509 -0.0486  0.3938  0.0899
  821MOL0     C 8276   5.737   8.520   1.440 -0.1989 -0.3386  0.0091
  821MOL0     C 8277   5.827   8.411   1.484 -0.6750  0.3480 -0.5940
  821MOL0     C 8278   5.974   8.419   1.438  0.7858 -1.4903 -0.7166
  821MOL0     C 8279   6.050   8.540   1.486 -0.2142  0.0088  0.9377
  821MOL0     C 8280   6.196   8.492   1.477 -1.2642  0.6739  0.4822
  821MOL0     C 8281   6.284   8.578   1.569 -0.1928  0.0897  0.6626
  821MOL0     C 8282   6.433   8.590   1.540 -0.0585  0.2345 -0.5838
  821MOL0     C 8283   6.501   8.452   1.522 -0.2118 -1.0029 -0.2227
  821MOL0    Cl 8284   6.493   8.349   1.676 -0.0865 -0.0914  0.1070
  821MOL0     C 8285   5.516   8.363   1.333 -0.3166 -0.0988 -0.0728
  821MOL0     C 8286   5.408   8.289   1.284  0.5945 -0.7276 -0.1488
  821MOL0     O 8287   5.331   8.004   1.305 -0.6350 -0.3600  0.5731
  821MOL0     C 8288   5.004   8.024   1.188  0.2923  0.8132  0.0455
  821MOL0     C 8289   4.909   7.938   1.129  0.0188 -0.5937  0.3405
  821MOL0     N 8290   4.717   7.490   0.674  0.0009  0.7000 -0.8440
  821MOL0     N 8291   4.732   7.424   0.564 -0.4710  0.0176 -0.0999
  821MOL0     C 8292   3.636   6.886   0.485  0.5492 -0.6477 -0.5546
  821MOL0     C 8293   3.498   6.849   0.486 -0.3571 -0.5289  0.2282
  821MOL0     C 8294   3.158   6.550   0.438 -0.3624 -1.2992 -0.8539
  821MOL0     C 8295   3.087   6.645   0.355  0.1672  0.6348  0.1554
  821MOL0     C 8296   2.975   6.608   0.282 -0.7786  0.4608  0.1213
  821MOL0     C 8297   2.927   6.478   0.295  0.8009 -0.4956  0.0079
  821MOL0     O 8298   2.815   6.430   0.233  0.1659 -0.2963  0.2350
  821MOL0     C 8299   2.715   6.528   0.194  0.0993 -0.0552 -0.1449
  821MOL0     C 8300   2.606   6.467   0.110  0.2088 -0.4318 -0.2547
  821MOL0     C 8301   2.492   6.412   0.183  0.2120  0.0974 -0.3501
  821MOL0     C 8302   2.523   6.278   0.257  0.3480  0.1956  0.0395
  821MOL0     C 8303   2.400   6.195   0.284  0.5471 -0.6909 -0.5264
  821MOL0     C 8304   2.299   6.127   0.290  0.2427  0.4195  0.5967
  821MOL0     C 8305   2.973   6.393   0.392  0.0755  0.1337 -0.0014
  821MOL0     C 8306   3.093   6.426   0.458 -0.2837  0.3997  0.5436
  821MOL0     H 8307   3.559   6.536   0.378 -3.4781  2.4158 -3.5152
  821MOL0     H 8308   3.781   6.586   0.437 -1.8865 -0.1943  1.1031
  821MOL0     H 8309   3.864   7.019   0.575 -1.1470  1.8774 -0.3143
  821MOL0     H 8310   3.864   7.037   0.398 -2.2054 -0.5613  0.4007
  821MOL0     H 8311   4.082   6.883   0.441  4.3986 -2.5213  4.3720
  821MOL0     H 8312   4.071   6.964   0.601  0.3196 -1.2111 -0.8653
  821MOL0     H 8313   4.073   7.184   0.486  1.5116  1.3082 -0.9233
  821MOL0     H 8314   4.104   7.102   0.330 -0.1180 -2.8439 -0.3366
  821MOL0     H 8315   4.281   7.119   0.577  3.1103  0.8976 -1.3496
  821MOL0     H 8316   4.305   6.994   0.455  3.1569 -0.8258  0.0969
  821MOL0     H 8317   4.328   7.301   0.402 -0.1427  0.9412 -0.9403
  821MOL0     H 8318   4.356   7.177   0.279  2.4665  0.1616 -0.1927
  821MOL0     H 8319   4.527   7.062   0.431  0.9302  0.1734  0.2963
  821MOL0     H 8320   4.498   7.179   0.553  1.6033 -0.8595  0.5192
  821MOL0     H 8321   4.701   7.199   0.434 -0.2979 -1.6771 -0.3345
  821MOL0     H 8322   4.633   7.167   0.274  1.2628 -0.7158 -0.6647
  821MOL0     H 8323   4.516   7.421   0.308 -0.7713 -2.6140 -1.1374
  821MOL0     H 8324   4.682   7.426   0.292 -3.4499  5.9814 -0.2697
  821MOL0     H 8325   4.429   7.540   0.519  1.5749  1.2386 -1.8448
  821MOL0     H 8326   4.540   7.572   0.870  0.5000  0.2526 -0.1711
  821MOL0     H 8327   4.422   7.637   0.783 -0.2805 -0.2363 -0.5892
  821MOL0     H 8328   4.528   7.837   0.843 -0.9342 -1.8170  1.2232
  821MOL0     H 8329   4.646   7.801   0.713  2.2187 -3.6761 -0.6853
  821MOL0     H 8330   4.795   7.666   0.887 -1.7664 -2.0140  3.3047
  821MOL0     H 8331   4.789   7.845   0.874  1.1232  0.5043  1.6359
  821MOL0     H 8332   4.600   7.698   1.071 -0.0363  0.1317  3.2412
  821MOL0     H 8333   4.652   7.856   1.071 -1.9489 -0.7838  1.1868
  821MOL0     H 8334   4.988   7.646   1.286 -1.2533 -0.7201 -2.6642
  821MOL0     H 8335   5.188   7.788   1.360  0.9966  2.2104  0.0305
  821MOL0     H 8336   5.191   8.355   1.547 -1.8892  0.2847 -2.3964
  821MOL0     H 8337   5.384   8.475   1.619  2.5616 -0.0009 -0.7954
  821MOL0     H 8338   5.778   8.616   1.474 -0.1767  0.9287 -3.1550
  821MOL0     H 8339   5.724   8.514   1.331  0.5052 -2.6072 -0.0031
  821MOL0     H 8340   5.780   8.318   1.450 -0.2600 -0.8279  1.8623
  821MOL0     H 8341   5.821   8.400   1.592 -2.2693 -2.7735 -0.8932
  821MOL0     H 8342   5.977   8.425   1.329 -1.8738 -0.5010 -0.8152
  821MOL0     H 8343   6.015   8.324   1.473 -1.3565 -1.3387  2.7515
  821MOL0     H 8344   6.021   8.617   1.414 -0.3837  0.0233  1.0210
  821MOL0     H 8345   6.028   8.572   1.588 -1.8596  0.3066  0.5245
  821MOL0     H 8346   6.231   8.503   1.374  0.4352 -0.0634  0.9496
  821MOL0     H 8347   6.216   8.388   1.504  2.0111  1.6239  2.3070
  821MOL0     H 8348   6.273   8.530   1.666 -0.6951 -0.8801  0.1438
  821MOL0     H 8349   6.248   8.680   1.588  1.2968  0.2772  2.7648
  821MOL0     H 8350   6.456   8.658   1.458  0.1459 -2.0054 -2.5117
  821MOL0     H 8351   6.467   8.625   1.637  2.8035  0.3665 -1.5287
  821MOL0     H 8352   6.607   8.475   1.510 -0.0909 -0.3823  1.6662
  821MOL0     H 8353   6.453   8.399   1.439 -1.2993 -1.1805  0.5060
  821MOL0     H 8354   5.595   8.386   1.262 -0.7645  2.1207  0.0637
  821MOL0     H 8355   5.410   8.252   1.182  0.0929 -0.2213 -0.3469
  821MOL0     H 8356   5.011   8.123   1.143 -1.5588 -0.2845 -2.9980
  821MOL0     H 8357   4.842   7.979   1.054 -0.0135 -0.4444  0.4516
  821MOL0     H 8358   3.659   6.988   0.512 -2.5392 -0.1550  0.6101
  821MOL0     H 8359   3.427   6.926   0.515 -0.3927 -0.2523 -0.5916
  821MOL0     H 8360   3.125   6.745   0.341 -1.7782  1.2516 -1.1177
  821MOL0     H 8361   2.948   6.686   0.212 -1.9056  0.5006  0.5717
  821MOL0     H 8362   2.759   6.607   0.133 -1.7030  1.3174  0.2486
  821MOL0     H 8363   2.664   6.588   0.270  3.8481  1.1354  1.6608
  821MOL0     H 8364   2.573   6.538   0.034 -2.8235 -0.0415  1.2579
  821MOL0     H 8365   2.631   6.374   0.057 -1.8249 -0.5322 -1.1104
  821MOL0     H 8366   2.410   6.384   0.118  0.0707 -0.2005 -0.0490
  821MOL0     H 8367   2.458   6.492   0.249 -3.5187 -2.6182  1.3898
  821MOL0     H 8368   2.597   6.222   0.201 -1.2220 -1.7089 -0.2424
  821MOL0     H 8369   2.579   6.307   0.346 -0.3259 -0.2331  0.6195
  821MOL0     H 8370   2.205   6.077   0.300  0.4819 -0.4469 -1.1567
  821MOL0     H 8371   2.937   6.292   0.406 -2.2351  1.1867  2.9418
  821MOL0     H 8372   3.135   6.366   0.538 -0.0172  3.0223  2.5163
  822MOL0     O 8373   9.429   0.840   7.267 -1.0542  0.1116 -0.3033
  822MOL0     C 8374   9.455   0.957   7.293  0.3466 -0.6667  0.3052
  822MOL0     O 8375   9.564   1.030   7.251 -0.0068  0.4198 -0.0429
  822MOL0     C 8376   9.659   0.966   7.179 -0.4413 -0.4042  0.3925
  822MOL0     C 8377   9.769   0.918   7.254 -0.4655  0.3474  0.7241
  822MOL0     C 8378   9.886   0.866   7.191  0.3001 -1.1643  0.4382
  822MOL0     C 8379   9.891   0.866   7.051 -0.9198  0.0262  0.3373
  822MOL0     O 8380  10.005   0.839   6.977  0.3919 -0.8781  0.0323
  822MOL0     C 8381  10.098   0.734   7.014 -0.0294  0.1705 -0.5432
  822MOL0     C 8382  10.077   0.607   6.942  1.0627  0.6494 -0.3750
  822MOL0     C 8383   9.943   0.539   6.975  0.3919 -0.5020  0.2595
  822MOL0     C 8384   9.915   0.496   7.116  0.0728  0.2190 -0.4799
  822MOL0     C 8385  10.028   0.415   7.179  0.5989  0.1411 -0.4852
  822MOL0     C 8386  10.074   0.291   7.104 -0.6184 -0.4949  0.0106
  822MOL0     C 8387  10.188   0.226   7.190 -0.3703 -0.5062 -0.4145
  822MOL0     C 8388  10.156   0.078   7.222 -0.0084  0.7734 -0.4698
  822MOL0     N 8389  10.266  -0.000   7.273 -0.1966 -0.0616 -0.6806
  822MOL0     C 8390  10.389   0.049   7.313 -0.8587  0.6068 -0.5665
  822MOL0     C 8391  10.485  -0.054   7.308  0.2709  0.3423 -0.1914
  822MOL0     C 8392  10.643  -0.049   7.313  0.3445  0.2059 -0.2936
  822MOL0     C 8393  10.698  -0.123   7.431  0.7767  0.8837 -0.4721
  822MOL0     C 8394  10.858  -0.108   7.465  0.2081  0.0319 -0.2289
  822MOL0     C 8395  10.892   0.035   7.513 -0.4140 -0.1063  1.1853
  822MOL0     O 8396  10.915   0.112   7.386 -0.2138 -0.6654 -1.2425
  822MOL0     C 8397  10.889   0.242   7.401 -0.3121 -0.6384 -0.2262
  822MOL0     C 8398  10.810   0.307   7.309 -0.1889 -0.2654  0.0701
  822MOL0     C 8399  10.789   0.448   7.327  0.3446 -0.4699  0.5645
  822MOL0     C 8400  10.843   0.517   7.439 -0.2538  0.4076  0.2584
  822MOL0     C 8401  10.815   0.656   7.467  0.1264  0.1762  0.1977
  822MOL0     O 8402  10.854   0.709   7.587  0.3210  0.2386 -0.7634
  822MOL0     C 8403  10.862   0.844   7.618  0.2493 -0.1751  0.7057
  822MOL0     C 8404  10.911   0.926   7.516 -0.4214  0.4703  0.3033
  822MOL0     C 8405  10.948   1.059   7.544  0.0582  0.3300 -0.5765
  822MOL0     C 8406  10.913   1.117   7.668  0.0598  0.2094  0.0846
  822MOL0     O 8407  10.924   1.250   7.690 -0.0224  0.8765  0.0569
  822MOL0     C 8408  10.812   1.329   7.655  0.5720 -0.5426  0.2106
  822MOL0     C 8409  10.829   1.478   7.678 -0.5840 -0.2505  0.7687
  822MOL0     C 8410  10.935   1.528   7.589 -0.4265 -0.3152  1.2703
  822MOL0     C 8411  10.973   1.665   7.608 -0.2623 -0.0330 -0.6156
  822MOL0     C 8412  11.113   1.693   7.535  1.0062  0.3353 -0.4964
  822MOL0     C 8413  11.165   1.835   7.553 -0.0764 -0.2161 -0.4120
  822MOL0     C 8414  11.287   1.862   7.465  0.0560 -0.5216 -0.7648
  822MOL0     C 8415  11.331   2.015   7.464 -0.0172 -1.0691  0.9082
  822MOL0    Cl 8416  11.233   2.115   7.354 -0.2200 -0.1959  0.2002
  822MOL0     C 8417  10.864   1.033   7.766  0.7595 -0.0932  0.3456
  822MOL0     C 8418  10.844   0.903   7.744  0.8331  0.4429  0.2470
  822MOL0     O 8419  10.762   0.722   7.381  0.6852 -0.2593 -0.6419
  822MOL0     C 8420  10.923   0.447   7.533 -0.2527  0.5313  0.3784
  822MOL0     C 8421  10.947   0.307   7.511 -0.1671  0.6627  0.0474
  822MOL0     N 8422  10.409  -0.169   7.272 -1.0885 -0.1774  0.8252
  822MOL0     N 8423  10.285  -0.139   7.249 -0.1852 -0.5776  0.1546
  822MOL0     C 8424   9.786   0.909   6.978  0.5749 -0.5760 -0.1644
  822MOL0     C 8425   9.658   0.952   7.045 -0.4783  0.1813  0.4288
  822MOL0     C 8426   9.358   1.031   7.384 -0.3159 -0.2499 -0.3123
  822MOL0     C 8427   9.266   0.960   7.466 -0.3053  0.6920  0.3202
  822MOL0     C 8428   9.189   1.042   7.549  0.3589  0.0224  0.6764
  822MOL0     C 8429   9.194   1.184   7.548  0.2274  0.3153 -0.1579
  822MOL0     O 8430   9.119   1.275   7.619  0.7574  0.1811 -0.4372
  822MOL0     C 8431   8.982   1.227   7.668  1.4011  0.7264  0.1636
  822MOL0     C 8432   8.892   1.350   7.636  0.4289 -0.7487  0.7316
  822MOL0     C 8433   8.759   1.345   7.698  0.3813  0.5401 -0.6278
  822MOL0     C 8434   8.688   1.488   7.697  0.4999  0.1726 -0.5308
  822MOL0     C 8435   8.552   1.480   7.738 -0.1567  0.3173  0.2043
  822MOL0     C 8436   8.435   1.470   7.777  0.1149  0.1786  0.4901
  822MOL0     C 8437   9.294   1.244   7.472 -0.6684  0.0510  0.5853
  822MOL0     C 8438   9.379   1.175   7.388  0.6687  0.9860  1.1006
  822MOL0     H 8439   9.770   0.918   7.363  1.3273 -3.8991  0.9166
  822MOL0     H 8440   9.954   0.817   7.259 -2.9433 -2.5730  2.9542
  822MOL0     H 8441  10.090   0.715   7.121  1.7888  1.2932 -0.1526
  822MOL0     H 8442  10.202   0.768   7.001  0.6797 -0.7227  2.1498
  822MOL0     H 8443  10.151   0.529   6.963 -2.6902 -2.9332  0.6965
  822MOL0     H 8444  10.080   0.633   6.836  2.9625  1.0420 -0.2680
  822MOL0     H 8445   9.935   0.454   6.907  0.5524  0.9638 -1.6946
  822MOL0     H 8446   9.860   0.606   6.950 -1.1928 -1.3969  2.7428
  822MOL0     H 8447   9.883   0.570   7.190 -1.1793 -1.6704  0.9663
  822MOL0     H 8448   9.836   0.421   7.105 -1.6835  1.7640  0.9555
  822MOL0     H 8449   9.994   0.379   7.277  1.7776  3.0331  1.0904
  822MOL0     H 8450  10.121   0.471   7.186  1.2027 -1.0270  1.6761
  822MOL0     H 8451  10.114   0.315   7.005  3.8357 -2.5083  1.0746
  822MOL0     H 8452   9.985   0.229   7.084 -0.5676 -1.7649  3.0965
  822MOL0     H 8453  10.284   0.237   7.139  0.6503  1.2113  1.7038
  822MOL0     H 8454  10.192   0.280   7.285 -2.8681  0.2530 -0.6618
  822MOL0     H 8455  10.108   0.022   7.142 -1.4808  1.7571 -0.3218
  822MOL0     H 8456  10.085   0.076   7.306  1.0341  0.5561  0.4215
  822MOL0     H 8457  10.427   0.151   7.320 -0.8613  0.6921 -1.5943
  822MOL0     H 8458  10.673   0.056   7.321  1.8067 -0.2753  1.0581
  822MOL0     H 8459  10.678  -0.100   7.223 -1.4291 -3.1880  0.7670
  822MOL0     H 8460  10.685  -0.229   7.410  0.7411  0.6932  0.4913
  822MOL0     H 8461  10.649  -0.093   7.524 -2.6989 -0.8487 -1.5805
  822MOL0     H 8462  10.897  -0.184   7.533 -0.2808 -1.4749 -1.5670
  822MOL0     H 8463  10.905  -0.125   7.367  0.7828  0.2110  0.0121
  822MOL0     H 8464  10.986   0.029   7.569 -0.3463 -1.1033  0.9842
  822MOL0     H 8465  10.813   0.079   7.574 -0.2156  1.6591  0.2303
  822MOL0     H 8466  10.758   0.262   7.225  0.3437  1.5180 -1.2981
  822MOL0     H 8467  10.734   0.491   7.243  1.2289 -0.1602  0.1217
  822MOL0     H 8468  10.928   0.896   7.413 -1.1561  1.5431 -0.1456
  822MOL0     H 8469  10.992   1.123   7.467  2.5710 -0.7628 -0.1318
  822MOL0     H 8470  10.728   1.300   7.719  1.2370 -3.4561 -0.0945
  822MOL0     H 8471  10.781   1.304   7.553  1.3112 -1.6326  0.2327
  822MOL0     H 8472  10.855   1.472   7.784  1.0862 -2.6803  0.2911
  822MOL0     H 8473  10.730   1.526   7.678 -2.0888 -3.0949 -1.0493
  822MOL0     H 8474  10.907   1.502   7.487  0.3742  1.5496  0.5268
  822MOL0     H 8475  11.026   1.470   7.604 -0.7128 -2.0072 -2.5393
  822MOL0     H 8476  10.900   1.722   7.549  1.9502  0.3855 -3.2024
  822MOL0     H 8477  10.973   1.694   7.713  2.4986 -4.1865  0.7862
  822MOL0     H 8478  11.091   1.681   7.429 -2.1161  1.8619 -0.1172
  822MOL0     H 8479  11.179   1.616   7.577  0.9660  2.5725  4.3362
  822MOL0     H 8480  11.204   1.852   7.653 -0.6941 -0.9121 -0.0405
  822MOL0     H 8481  11.087   1.907   7.527 -0.2703  0.2348  1.3370
  822MOL0     H 8482  11.368   1.798   7.501  0.1538  0.8027  1.5709
  822MOL0     H 8483  11.271   1.832   7.361 -3.8590  0.7173 -0.6997
  822MOL0     H 8484  11.431   2.029   7.422 -0.5943  0.3449 -0.0636
  822MOL0     H 8485  11.324   2.058   7.564 -3.0958  0.7164  0.0579
  822MOL0     H 8486  10.845   1.083   7.861 -0.3733  0.0359  0.0657
  822MOL0     H 8487  10.814   0.849   7.832  4.5752 -1.5718  0.4891
  822MOL0     H 8488  10.951   0.505   7.620  1.2045  0.3357  0.0664
  822MOL0     H 8489  11.012   0.250   7.576 -0.3440  0.0800 -0.2765
  822MOL0     H 8490   9.784   0.898   6.870 -1.4643 -4.1610  0.0647
  822MOL0     H 8491   9.572   0.978   6.982  0.6606 -2.2452 -2.3720
  822MOL0     H 8492   9.246   0.853   7.457  0.6592  0.4962  0.3818
  822MOL0     H 8493   9.115   0.989   7.609  1.0458  0.5003  1.9911
  822MOL0     H 8494   8.982   1.207   7.776 -1.5184 -3.7584 -0.4027
  822MOL0     H 8495   8.949   1.130   7.628 -0.2953  1.1492  0.4603
  822MOL0     H 8496   8.941   1.440   7.672 -0.4853 -0.3259  0.9666
  822MOL0     H 8497   8.880   1.372   7.529  4.2268 -0.0852  0.3029
  822MOL0     H 8498   8.772   1.309   7.800 -0.3050  0.9581 -0.3920
  822MOL0     H 8499   8.693   1.277   7.644  0.1230 -2.3874  2.9642
  822MOL0     H 8500   8.731   1.538   7.783  0.1982 -0.5498  0.0492
  822MOL0     H 8501   8.706   1.549   7.608  0.9284  0.6356 -0.1294
  822MOL0     H 8502   8.334   1.453   7.807  0.1106 -2.3355 -0.6774
  822MOL0     H 8503   9.299   1.352   7.481 -0.5664 -0.0953  2.9047
  822MOL0     H 8504   9.460   1.230   7.342 -0.9551  0.9939 -1.9769
  823MOL0     O 8505   4.696   1.820   5.127 -0.0293  0.2136 -0.2030
  823MOL0     C 8506   4.676   1.850   5.247 -0.0974 -0.1291  1.1698
  823MOL0     O 8507   4.611   1.966   5.284 -0.8775 -0.2275  0.3192
  823MOL0     C 8508   4.550   2.053   5.199  0.2306  0.3871 -0.9783
  823MOL0     C 8509   4.531   2.183   5.246 -0.3570 -1.2508 -0.0201
  823MOL0     C 8510   4.464   2.280   5.167 -0.0453 -0.2056 -0.1244
  823MOL0     C 8511   4.418   2.245   5.037  0.5960 -1.1422 -0.2793
  823MOL0     O 8512   4.362   2.335   4.948 -0.6330 -0.0841  0.5285
  823MOL0     C 8513   4.454   2.432   4.900  0.4250  0.2553 -0.4533
  823MOL0     C 8514   4.392   2.573   4.891  0.6819 -0.6877  0.1909
  823MOL0     C 8515   4.504   2.667   4.822 -0.0719  1.5472 -0.3680
  823MOL0     C 8516   4.637   2.665   4.901  0.4135  0.1607 -1.1667
  823MOL0     C 8517   4.614   2.686   5.049  0.5281  0.6491 -0.9286
  823MOL0     C 8518   4.593   2.838   5.082 -0.3383 -0.3729  0.5155
  823MOL0     C 8519   4.575   2.867   5.233 -0.1047  0.0722 -0.3587
  823MOL0     C 8520   4.574   3.021   5.273 -0.2558  0.2850  0.0477
  823MOL0     N 8521   4.601   3.054   5.409  0.0793 -0.2852  0.1624
  823MOL0     C 8522   4.730   3.062   5.455 -0.1733 -0.3232 -0.1942
  823MOL0     C 8523   4.709   3.096   5.583  1.0157  0.2883  0.6624
  823MOL0     C 8524   4.828   3.103   5.677  0.1633 -0.1101  0.0278
  823MOL0     C 8525   4.845   2.974   5.750 -0.5711 -0.3300  0.3051
  823MOL0     C 8526   4.925   2.862   5.672 -0.2395  0.3442  0.4222
  823MOL0     C 8527   5.067   2.917   5.646 -0.3846 -0.0210  0.1485
  823MOL0     O 8528   5.132   2.970   5.766 -0.0009 -0.7084 -0.4457
  823MOL0     C 8529   5.175   3.097   5.780  0.5690 -0.3116  1.0089
  823MOL0     C 8530   5.223   3.168   5.672 -0.0929 -0.4517  0.0530
  823MOL0     C 8531   5.281   3.295   5.687 -0.9841 -0.3323  0.5279
  823MOL0     C 8532   5.285   3.362   5.807  1.1554 -0.3123 -0.3859
  823MOL0     C 8533   5.360   3.475   5.836 -0.1461 -0.8804  0.0180
  823MOL0     O 8534   5.327   3.536   5.950 -0.6566 -1.2467  0.2147
  823MOL0     C 8535   5.414   3.628   6.018 -0.3292  0.0453  0.8230
  823MOL0     C 8536   5.355   3.728   6.081  0.2957 -1.0022 -0.3074
  823MOL0     C 8537   5.424   3.826   6.151  1.9190 -0.4242  1.0683
  823MOL0     C 8538   5.566   3.823   6.162 -0.1183 -0.0478 -0.7211
  823MOL0     O 8539   5.617   3.920   6.248 -0.2984 -0.3631 -0.7397
  823MOL0     C 8540   5.759   3.958   6.232 -0.1173  0.7662  0.6724
  823MOL0     C 8541   5.810   4.057   6.331 -0.4198 -1.1644  0.4715
  823MOL0     C 8542   5.727   4.184   6.316 -0.7438 -1.3340 -0.5842
  823MOL0     C 8543   5.803   4.314   6.357 -0.6721 -0.9280  1.0029
  823MOL0     C 8544   5.921   4.345   6.279 -0.6368  0.2952 -0.0108
  823MOL0     C 8545   5.897   4.389   6.140  0.5668 -0.1404 -0.8367
  823MOL0     C 8546   6.031   4.446   6.079  0.6993  0.4895  0.0007
  823MOL0     C 8547   6.002   4.541   5.958  0.7581  0.3855 -0.5518
  823MOL0    Cl 8548   5.912   4.682   5.999  0.0540  0.0466  0.3482
  823MOL0     C 8549   5.637   3.716   6.092 -0.4272 -1.0942 -0.4205
  823MOL0     C 8550   5.555   3.620   6.024  0.5665 -0.3211  0.9629
  823MOL0     O 8551   5.453   3.512   5.756 -0.0512  0.4356 -0.4720
  823MOL0     C 8552   5.212   3.292   5.913 -1.0052  0.2780 -0.1452
  823MOL0     C 8553   5.159   3.162   5.903 -0.4069  0.4685  0.9369
  823MOL0     N 8554   4.570   3.107   5.614 -0.2937 -0.5977  0.2273
  823MOL0     N 8555   4.513   3.081   5.506 -0.6181  0.5695  0.7257
  823MOL0     C 8556   4.435   2.119   4.989 -0.3832  0.1504 -0.3778
  823MOL0     C 8557   4.511   2.028   5.064 -0.2345 -0.2272 -0.2600
  823MOL0     C 8558   4.718   1.759   5.360  0.0908  0.6205 -0.1573
  823MOL0     C 8559   4.670   1.796   5.493  0.5209  0.4694 -0.7497
  823MOL0     C 8560   4.698   1.708   5.595  1.1703  0.3450 -0.8052
  823MOL0     C 8561   4.767   1.584   5.585 -0.1055  0.4053  1.4116
  823MOL0     O 8562   4.780   1.502   5.690 -0.0355 -0.3208  0.0039
  823MOL0     C 8563   4.781   1.358   5.670 -0.1936  0.0850  0.0759
  823MOL0     C 8564   4.644   1.298   5.642 -0.3795  0.2578 -0.6207
  823MOL0     C 8565   4.528   1.334   5.727  0.1282 -0.5319 -0.0694
  823MOL0     C 8566   4.403   1.248   5.698  0.5777  0.9225  0.3809
  823MOL0     C 8567   4.421   1.100   5.731  0.1777 -1.7664 -1.4353
  823MOL0     C 8568   4.427   0.982   5.757  0.3452 -0.3400  0.6659
  823MOL0     C 8569   4.805   1.545   5.450 -0.6047 -0.0339  0.5227
  823MOL0     C 8570   4.790   1.642   5.335 -0.0718  0.2491  0.6688
  823MOL0     H 8571   4.579   2.210   5.340 -0.4719 -0.5545 -0.1550
  823MOL0     H 8572   4.466   2.378   5.214  0.4447 -0.2468 -0.0562
  823MOL0     H 8573   4.494   2.400   4.803  0.3145  0.4086 -0.5516
  823MOL0     H 8574   4.540   2.433   4.968 -0.7796 -1.9048  1.2187
  823MOL0     H 8575   4.360   2.605   4.990  0.1661 -0.7423  0.0453
  823MOL0     H 8576   4.301   2.556   4.832  0.1660 -1.1373  1.1113
  823MOL0     H 8577   4.467   2.770   4.823  0.4592  1.7532  1.1585
  823MOL0     H 8578   4.512   2.621   4.723 -2.7793 -1.5036  0.6763
  823MOL0     H 8579   4.688   2.568   4.893 -2.0826 -1.6658  2.4998
  823MOL0     H 8580   4.710   2.741   4.870  1.6665  0.0505  1.3005
  823MOL0     H 8581   4.709   2.655   5.091  1.5730  1.3324 -2.6741
  823MOL0     H 8582   4.538   2.628   5.102  0.5860  0.5962 -0.9036
  823MOL0     H 8583   4.507   2.871   5.021  0.2908 -0.6390 -0.5381
  823MOL0     H 8584   4.677   2.902   5.053  0.6688 -0.5541  2.8574
  823MOL0     H 8585   4.480   2.825   5.268  0.1279 -1.3048 -1.3143
  823MOL0     H 8586   4.651   2.808   5.285 -0.4635  2.0357  2.6348
  823MOL0     H 8587   4.479   3.071   5.255 -0.8299 -0.0806  1.9232
  823MOL0     H 8588   4.647   3.073   5.210  0.5634 -0.8981 -0.0126
  823MOL0     H 8589   4.818   3.044   5.393 -0.2965  2.0230 -1.1822
  823MOL0     H 8590   4.800   3.172   5.757  3.3203  2.1187 -0.6142
  823MOL0     H 8591   4.915   3.153   5.634  1.2548 -1.0593  1.0710
  823MOL0     H 8592   4.750   2.934   5.785  0.0726 -2.4072 -0.1756
  823MOL0     H 8593   4.889   3.005   5.845 -4.4702  6.3077  0.5535
  823MOL0     H 8594   4.924   2.769   5.730  0.4593  1.2299  1.9258
  823MOL0     H 8595   4.884   2.839   5.574  0.5751 -2.4410  0.6398
  823MOL0     H 8596   5.050   2.992   5.568 -2.9578  1.1720  1.7326
  823MOL0     H 8597   5.126   2.841   5.594  1.5551  2.4422 -1.5038
  823MOL0     H 8598   5.221   3.119   5.575 -2.9517 -1.0484  0.3155
  823MOL0     H 8599   5.331   3.335   5.599 -1.8736  0.2841  0.2736
  823MOL0     H 8600   5.247   3.727   6.076 -0.0278  3.0465  1.3928
  823MOL0     H 8601   5.386   3.904   6.217  1.5251 -0.1295  0.5051
  823MOL0     H 8602   5.762   4.006   6.133  1.1758 -2.3616 -0.9632
  823MOL0     H 8603   5.820   3.868   6.225 -2.8520 -1.1961  0.6229
  823MOL0     H 8604   5.918   4.068   6.319 -0.4731  3.4702  2.1753
  823MOL0     H 8605   5.807   4.012   6.430  2.3788 -2.2871  0.1383
  823MOL0     H 8606   5.641   4.182   6.383 -0.3295  1.2970  0.1625
  823MOL0     H 8607   5.690   4.210   6.216  1.6916  0.1326 -1.1937
  823MOL0     H 8608   5.730   4.396   6.347  0.3374 -0.1806 -0.6063
  823MOL0     H 8609   5.854   4.302   6.453  2.5426  2.1473 -0.1063
  823MOL0     H 8610   5.993   4.262   6.276 -2.0311 -1.0057  1.0907
  823MOL0     H 8611   5.963   4.435   6.323 -2.7659  1.5285 -0.3750
  823MOL0     H 8612   5.820   4.466   6.144  1.0952  0.3522  0.4323
  823MOL0     H 8613   5.866   4.308   6.073  1.7733  0.0170 -1.6311
  823MOL0     H 8614   6.083   4.503   6.157  4.1032 -2.4528  0.1773
  823MOL0     H 8615   6.096   4.359   6.064 -1.3166 -1.3720  1.3500
  823MOL0     H 8616   5.940   4.487   5.886  3.9781 -1.6474 -2.0429
  823MOL0     H 8617   6.097   4.572   5.913 -0.5473  4.3306 -0.9304
  823MOL0     H 8618   5.744   3.707   6.107 -0.3905 -1.6114 -0.9539
  823MOL0     H 8619   5.600   3.543   5.962  0.5349 -0.7284  1.4442
  823MOL0     H 8620   5.207   3.345   6.007 -1.4953  2.2181 -1.2046
  823MOL0     H 8621   5.114   3.111   5.988 -0.5515 -0.5441  0.2693
  823MOL0     H 8622   4.395   2.096   4.891 -1.5371  1.5289 -0.2548
  823MOL0     H 8623   4.543   1.937   5.015 -1.6873 -0.6098 -0.5300
  823MOL0     H 8624   4.634   1.898   5.500  0.6934  0.4583  0.6514
  823MOL0     H 8625   4.665   1.716   5.698  2.0444  0.9565 -0.5601
  823MOL0     H 8626   4.807   1.311   5.766  1.0782 -2.3860 -1.3601
  823MOL0     H 8627   4.865   1.322   5.611 -0.3184 -4.3353  2.1636
  823MOL0     H 8628   4.624   1.316   5.536  6.2261  0.9576 -2.2134
  823MOL0     H 8629   4.650   1.189   5.642  0.1363  0.2638  0.6945
  823MOL0     H 8630   4.511   1.441   5.711 -1.0943 -1.0468 -2.7286
  823MOL0     H 8631   4.554   1.316   5.832 -0.9377  2.4214  0.8081
  823MOL0     H 8632   4.328   1.286   5.768  1.5212 -1.2914  2.7901
  823MOL0     H 8633   4.368   1.247   5.594 -1.9622  1.3998  1.1713
  823MOL0     H 8634   4.437   0.888   5.808  3.1816 -1.0351 -0.9394
  823MOL0     H 8635   4.857   1.454   5.420 -2.5662  0.0667 -4.1454
  823MOL0     H 8636   4.825   1.613   5.237  0.2004 -1.2322  1.1903
  824MOL0     O 8637   2.616   3.818   3.124 -0.6515  0.7613  0.4176
  824MOL0     C 8638   2.691   3.910   3.096 -0.0816  0.1113 -0.1558
  824MOL0     O 8639   2.645   4.027   3.041 -0.7377  0.0858 -0.0600
  824MOL0     C 8640   2.526   4.031   2.972  0.4675  0.0224 -0.8673
  824MOL0     C 8641   2.483   4.154   2.958  0.2461 -0.9604 -0.2626
  824MOL0     C 8642   2.369   4.192   2.886 -0.0833 -0.2494  0.4810
  824MOL0     C 8643   2.289   4.087   2.844 -0.1787  1.0705  0.2892
  824MOL0     O 8644   2.172   4.101   2.772  0.5729 -0.2316  0.0964
  824MOL0     C 8645   2.053   4.112   2.846  0.3874 -0.4301 -0.1142
  824MOL0     C 8646   1.940   4.028   2.774 -0.7174 -0.5573  0.2596
  824MOL0     C 8647   1.986   3.886   2.749  1.1098 -0.1001  1.1281
  824MOL0     C 8648   1.878   3.798   2.684 -1.1406  0.0609  0.6459
  824MOL0     C 8649   1.925   3.660   2.681 -0.1813  0.0418  1.1742
  824MOL0     C 8650   1.823   3.549   2.635 -1.3917 -0.1513  0.2987
  824MOL0     C 8651   1.855   3.402   2.690 -0.0236  0.0320 -0.6163
  824MOL0     C 8652   1.968   3.340   2.613  0.3051  0.4006  0.5963
  824MOL0     N 8653   2.094   3.399   2.625  0.2530 -0.5023 -0.0644
  824MOL0     C 8654   2.162   3.420   2.745  0.9383 -0.5594 -0.2822
  824MOL0     C 8655   2.265   3.503   2.708 -0.3760  0.8550 -0.4641
  824MOL0     C 8656   2.366   3.558   2.812 -0.5567  0.3163 -0.0645
  824MOL0     C 8657   2.508   3.499   2.783 -0.1976  0.0090  0.7489
  824MOL0     C 8658   2.583   3.598   2.692 -0.2722 -0.1964  0.0540
  824MOL0     C 8659   2.720   3.530   2.648 -0.2385  0.4231  0.4140
  824MOL0     O 8660   2.807   3.500   2.756 -0.6439 -0.3189  0.9963
  824MOL0     C 8661   2.943   3.471   2.747 -0.0590  0.1494  0.3680
  824MOL0     C 8662   3.020   3.486   2.869 -0.2376 -0.1205 -0.2175
  824MOL0     C 8663   3.153   3.447   2.870 -0.6134  0.9368 -0.2629
  824MOL0     C 8664   3.221   3.415   2.754 -0.9153 -0.6787 -0.2561
  824MOL0     C 8665   3.363   3.385   2.773  0.3626 -1.0338  0.4600
  824MOL0     O 8666   3.445   3.431   2.677  0.2395 -0.1607  0.2941
  824MOL0     C 8667   3.578   3.402   2.693 -0.9814  0.3261  0.0268
  824MOL0     C 8668   3.631   3.274   2.672 -0.2864  0.0533 -0.1564
  824MOL0     C 8669   3.769   3.240   2.697 -0.9845 -0.5299 -0.1117
  824MOL0     C 8670   3.853   3.339   2.735 -0.6984 -0.5890 -0.1710
  824MOL0     O 8671   3.989   3.335   2.755 -0.0740  0.4990 -0.0428
  824MOL0     C 8672   4.035   3.254   2.864  0.0676 -0.3506 -0.7687
  824MOL0     C 8673   4.177   3.304   2.896  1.0896 -0.4444  0.0407
  824MOL0     C 8674   4.263   3.212   2.975 -0.5635  0.3545 -0.3958
  824MOL0     C 8675   4.255   3.236   3.129 -0.3312  1.1806  0.0852
  824MOL0     C 8676   4.374   3.170   3.207  0.3203  0.0057 -0.0464
  824MOL0     C 8677   4.341   3.163   3.361 -0.9872 -0.2492 -0.7204
  824MOL0     C 8678   4.431   3.050   3.420 -0.2266 -1.3275  0.2112
  824MOL0     C 8679   4.582   3.108   3.427  0.1315 -0.0201 -0.2007
  824MOL0    Cl 8680   4.693   2.988   3.501  0.4018 -0.5333  0.1990
  824MOL0     C 8681   3.804   3.474   2.745  0.6814  0.3974 -0.7986
  824MOL0     C 8682   3.664   3.501   2.737 -0.0804 -0.7355  0.1647
  824MOL0     O 8683   3.402   3.332   2.870 -0.8275  0.3328 -0.1172
  824MOL0     C 8684   3.159   3.419   2.631  0.2666 -0.0557  0.2344
  824MOL0     C 8685   3.018   3.448   2.628 -0.0662 -0.5108 -0.2632
  824MOL0     N 8686   2.253   3.539   2.580 -0.5428 -0.5447 -0.9834
  824MOL0     N 8687   2.162   3.471   2.530  0.2315 -0.4461  0.4134
  824MOL0     C 8688   2.337   3.955   2.842 -0.3477 -0.8589 -0.7041
  824MOL0     C 8689   2.455   3.928   2.907 -0.0294 -0.6602  1.0496
  824MOL0     C 8690   2.835   3.903   3.126  0.9533 -0.3275  0.5591
  824MOL0     C 8691   2.925   3.978   3.058  0.2040  0.3427  0.8582
  824MOL0     C 8692   3.055   3.982   3.085 -0.1219 -0.4012  0.1648
  824MOL0     C 8693   3.110   3.882   3.166  0.9978 -0.0001  0.0203
  824MOL0     O 8694   3.242   3.882   3.203 -0.2748  0.1914 -0.3889
  824MOL0     C 8695   3.287   4.006   3.261 -0.0613 -0.3452  0.3670
  824MOL0     C 8696   3.439   3.993   3.262  0.2893  0.5353 -0.0011
  824MOL0     C 8697   3.517   4.053   3.159  0.4447 -0.3381  1.6330
  824MOL0     C 8698   3.653   3.989   3.133  0.6078 -0.7807 -0.7662
  824MOL0     C 8699   3.728   3.971   3.264  0.1319  0.5746  0.6044
  824MOL0     C 8700   3.770   3.947   3.381  0.4937 -0.7123  0.3998
  824MOL0     C 8701   3.016   3.806   3.239  0.7017 -1.1725 -1.0176
  824MOL0     C 8702   2.881   3.820   3.228 -0.0287  0.5914 -0.0471
  824MOL0     H 8703   2.546   4.231   3.003 -0.4424  1.0351 -2.5416
  824MOL0     H 8704   2.331   4.292   2.868  0.8534 -0.2381 -1.6857
  824MOL0     H 8705   2.016   4.214   2.853 -2.2863 -1.3844  5.5263
  824MOL0     H 8706   2.060   4.087   2.952 -1.3610 -1.0673 -0.1174
  824MOL0     H 8707   1.915   4.081   2.681  0.2106 -0.9280 -0.2143
  824MOL0     H 8708   1.852   4.028   2.839 -1.2182  0.0623 -0.3992
  824MOL0     H 8709   2.038   3.846   2.836  1.3804 -1.7519  0.2581
  824MOL0     H 8710   2.048   3.893   2.659 -2.4596 -1.9536 -1.7717
  824MOL0     H 8711   1.778   3.811   2.726 -1.2916 -0.6000  0.5024
  824MOL0     H 8712   1.878   3.849   2.586  1.5607 -1.2185 -0.1198
  824MOL0     H 8713   1.964   3.626   2.778 -0.3306 -1.8947  0.6083
  824MOL0     H 8714   2.013   3.653   2.617 -1.1060  0.8454 -0.2110
  824MOL0     H 8715   1.844   3.547   2.527  0.3649 -1.4753  0.6085
  824MOL0     H 8716   1.724   3.591   2.650 -0.8686  1.8491 -1.3819
  824MOL0     H 8717   1.885   3.401   2.795 -0.5171 -3.4883 -0.3878
  824MOL0     H 8718   1.765   3.340   2.681  0.6827 -1.1763  0.2913
  824MOL0     H 8719   1.935   3.324   2.510 -1.5607  4.6897  0.3389
  824MOL0     H 8720   1.971   3.238   2.651 -1.8172 -0.0940 -0.4198
  824MOL0     H 8721   2.153   3.359   2.834  2.1605 -1.2708 -0.6159
  824MOL0     H 8722   2.336   3.526   2.912 -0.9022  0.9506  0.0395
  824MOL0     H 8723   2.362   3.667   2.821 -4.0708  0.1769  2.0474
  824MOL0     H 8724   2.510   3.397   2.744  2.2319  0.4750 -0.5634
  824MOL0     H 8725   2.570   3.488   2.872  0.5463  2.4721  0.6251
  824MOL0     H 8726   2.509   3.624   2.616 -1.0565  0.4397  1.0101
  824MOL0     H 8727   2.621   3.691   2.737 -1.4034 -0.5072  1.7087
  824MOL0     H 8728   2.761   3.597   2.572 -4.3366  2.1303 -0.5569
  824MOL0     H 8729   2.711   3.437   2.590 -0.6862  1.7251 -1.7246
  824MOL0     H 8730   2.970   3.516   2.960 -1.0005  2.2612 -1.3213
  824MOL0     H 8731   3.207   3.452   2.964 -1.6459 -0.3811  0.4327
  824MOL0     H 8732   3.559   3.195   2.655 -2.3430  0.6173  4.4418
  824MOL0     H 8733   3.793   3.134   2.691  0.2781 -0.1704 -2.8547
  824MOL0     H 8734   4.046   3.151   2.827 -0.6195 -0.7061 -0.0259
  824MOL0     H 8735   3.964   3.270   2.945 -0.0457  0.8851 -1.1041
  824MOL0     H 8736   4.177   3.400   2.949  1.5901 -0.6459  0.4189
  824MOL0     H 8737   4.223   3.326   2.799  0.4714  0.0614 -0.1498
  824MOL0     H 8738   4.366   3.236   2.945 -0.5363  0.5485 -0.1478
  824MOL0     H 8739   4.242   3.107   2.951  0.8569  0.0087 -0.2293
  824MOL0     H 8740   4.250   3.343   3.152 -0.3509  1.1682  0.1409
  824MOL0     H 8741   4.158   3.195   3.158  1.9292 -2.9125  2.9766
  824MOL0     H 8742   4.464   3.229   3.188  1.1300 -0.9886  0.5849
  824MOL0     H 8743   4.386   3.071   3.162 -1.3185 -0.7906  1.1357
  824MOL0     H 8744   4.241   3.121   3.371 -2.0842  1.8937 -1.9123
  824MOL0     H 8745   4.343   3.255   3.421 -3.2020 -1.0652  0.7323
  824MOL0     H 8746   4.395   3.028   3.521  0.5558 -0.7953  0.6182
  824MOL0     H 8747   4.417   2.962   3.357 -1.6431 -0.0202 -1.4106
  824MOL0     H 8748   4.584   3.204   3.480 -1.4171  0.0641 -0.2312
  824MOL0     H 8749   4.612   3.136   3.326 -1.6155  5.0133  0.3863
  824MOL0     H 8750   3.877   3.551   2.770  1.5042 -0.7080  0.2829
  824MOL0     H 8751   3.621   3.597   2.764  0.3522  0.1168 -1.9982
  824MOL0     H 8752   3.218   3.421   2.539  0.1343  3.2762  0.1043
  824MOL0     H 8753   2.974   3.462   2.529 -2.1366 -0.1519  0.6597
  824MOL0     H 8754   2.284   3.883   2.780 -1.1841  0.5685 -1.6860
  824MOL0     H 8755   2.501   3.830   2.900 -0.5134 -0.7943 -0.6246
  824MOL0     H 8756   2.892   4.042   2.977  0.0382 -0.3906  0.3343
  824MOL0     H 8757   3.119   4.057   3.039  0.9154 -0.8365  0.8578
  824MOL0     H 8758   3.255   4.012   3.366  1.9778  2.5705  0.9712
  824MOL0     H 8759   3.245   4.092   3.209  0.8242 -1.0375 -1.5692
  824MOL0     H 8760   3.490   4.035   3.349  3.1559 -0.7809 -0.8890
  824MOL0     H 8761   3.473   3.889   3.270  0.6571  0.7070  0.7551
  824MOL0     H 8762   3.524   4.158   3.189 -0.8964 -0.1531  1.3425
  824MOL0     H 8763   3.452   4.050   3.071  1.9674 -1.6296  0.4942
  824MOL0     H 8764   3.626   3.892   3.091 -0.4215 -1.3362  1.0912
  824MOL0     H 8765   3.720   4.050   3.071 -0.2682 -0.3167 -1.2810
  824MOL0     H 8766   3.813   3.923   3.476 -0.2481 -1.3829  0.5706
  824MOL0     H 8767   3.041   3.737   3.319  2.7185 -1.5180 -1.8751
  824MOL0     H 8768   2.797   3.769   3.273 -3.8329  4.5999 -1.8739
  825MOL0     O 8769  10.091   5.082   1.091 -0.3141 -0.5022  0.1895
  825MOL0     C 8770  10.031   5.165   1.014 -0.1523  0.1791 -1.3098
  825MOL0     O 8771   9.912   5.232   1.040 -0.1903  0.7953  0.1288
  825MOL0     C 8772   9.851   5.228   1.160  0.5191 -0.4243 -0.5819
  825MOL0     C 8773   9.862   5.133   1.263  0.1405 -1.1084 -0.8597
  825MOL0     C 8774   9.784   5.161   1.385  1.0676  0.3446 -0.0458
  825MOL0     C 8775   9.685   5.260   1.389 -0.1255  0.1808  0.0953
  825MOL0     O 8776   9.596   5.252   1.504 -0.6846  0.3663  0.4465
  825MOL0     C 8777   9.477   5.351   1.509 -1.6500  0.3252  0.6812
  825MOL0     C 8778   9.400   5.331   1.640  0.2951  0.1840  1.0230
  825MOL0     C 8779   9.320   5.200   1.639  0.0299  0.0707 -0.0497
  825MOL0     C 8780   9.209   5.176   1.743 -0.6166 -0.1982 -0.2007
  825MOL0     C 8781   9.199   5.017   1.777  0.0958  0.5629  1.3227
  825MOL0     C 8782   9.096   4.989   1.877  0.2292  0.7914  0.4573
  825MOL0     C 8783   9.070   4.841   1.895  0.0238  0.5947  0.4872
  825MOL0     C 8784   9.192   4.752   1.941 -0.1866  0.2843 -0.6722
  825MOL0     N 8785   9.281   4.808   2.043  0.5799 -0.0000 -1.1978
  825MOL0     C 8786   9.409   4.795   2.049 -1.1737 -0.6369 -0.7638
  825MOL0     C 8787   9.444   4.839   2.175 -0.0889 -0.0167 -0.0438
  825MOL0     C 8788   9.590   4.856   2.209  0.0549  0.0767 -1.1068
  825MOL0     C 8789   9.621   4.887   2.354 -0.3238  0.3601 -0.4148
  825MOL0     C 8790   9.546   4.994   2.426 -0.4025  0.0118 -0.0168
  825MOL0     C 8791   9.516   5.115   2.333 -0.1039 -0.1221  1.2032
  825MOL0     O 8792   9.471   5.230   2.412 -1.1045  0.5954  0.5834
  825MOL0     C 8793   9.562   5.323   2.449 -0.2125 -0.8250  0.7188
  825MOL0     C 8794   9.702   5.312   2.435  1.2095 -0.1641  0.0560
  825MOL0     C 8795   9.792   5.408   2.479 -0.7522  0.9170 -0.1874
  825MOL0     C 8796   9.752   5.529   2.536  0.2676 -0.2972  0.2780
  825MOL0     C 8797   9.856   5.624   2.572 -0.5578  0.2609  0.9207
  825MOL0     O 8798   9.807   5.725   2.642 -0.1341 -1.4621  0.9044
  825MOL0     C 8799   9.873   5.856   2.634 -0.3605  0.1042  0.7521
  825MOL0     C 8800   9.842   5.953   2.727  0.6052 -0.0425  0.3272
  825MOL0     C 8801   9.879   6.099   2.708 -0.1021  0.5315  0.7392
  825MOL0     C 8802   9.961   6.136   2.595  0.0198 -1.3017 -0.9870
  825MOL0     O 8803  10.017   6.263   2.562  0.3141 -0.0167 -0.0664
  825MOL0     C 8804   9.971   6.381   2.633 -0.4685  0.6137 -0.1822
  825MOL0     C 8805   9.844   6.443   2.550  0.2942  0.0105  0.3469
  825MOL0     C 8806   9.811   6.574   2.620 -0.8110  0.6183  0.7817
  825MOL0     C 8807   9.705   6.663   2.558 -0.0069  0.0643  1.3252
  825MOL0     C 8808   9.743   6.720   2.425  0.0836 -0.5977  0.3686
  825MOL0     C 8809   9.624   6.816   2.369 -0.9500 -0.0916 -0.1076
  825MOL0     C 8810   9.660   6.883   2.236  0.1015  0.5289  0.2030
  825MOL0     C 8811   9.552   6.966   2.173  0.2227  0.6965  0.8628
  825MOL0    Cl 8812   9.417   6.841   2.139  0.0396 -0.5344 -0.1581
  825MOL0     C 8813  10.010   6.023   2.523 -0.6904 -0.0506  1.4218
  825MOL0     C 8814   9.966   5.894   2.535 -0.1061 -0.7680 -0.1584
  825MOL0     O 8815   9.978   5.594   2.552  0.7521 -0.4419  0.0513
  825MOL0     C 8816   9.615   5.541   2.559  1.2577  0.0747  0.3781
  825MOL0     C 8817   9.520   5.440   2.518 -0.4276 -0.1236  0.0303
  825MOL0     N 8818   9.335   4.879   2.240  1.5728  0.1507  0.5193
  825MOL0     N 8819   9.237   4.856   2.168 -0.2069 -0.4929  0.1773
  825MOL0     C 8820   9.670   5.353   1.280  0.1407 -0.0772  0.3856
  825MOL0     C 8821   9.762   5.339   1.175  0.9590 -0.2725  0.1613
  825MOL0     C 8822  10.107   5.200   0.894  1.5391 -0.7270  0.2878
  825MOL0     C 8823  10.232   5.154   0.872 -1.1533  0.3301  0.0935
  825MOL0     C 8824  10.320   5.199   0.769 -0.1236 -0.3553  0.0775
  825MOL0     C 8825  10.269   5.290   0.678  0.4675  0.5965 -0.1360
  825MOL0     O 8826  10.350   5.334   0.582 -0.8735 -0.7004  0.1451
  825MOL0     C 8827  10.302   5.439   0.492  0.1933 -0.6581 -0.6228
  825MOL0     C 8828  10.421   5.493   0.407  0.0190  0.2607  0.3665
  825MOL0     C 8829  10.521   5.591   0.496 -0.1061  0.2036 -0.4398
  825MOL0     C 8830  10.465   5.716   0.550  0.0744 -0.9117 -0.1877
  825MOL0     C 8831  10.371   5.776   0.454 -0.0603  0.1613 -0.4228
  825MOL0     C 8832  10.294   5.841   0.388  0.1502  0.3795  0.4319
  825MOL0     C 8833  10.141   5.341   0.695 -0.0938 -0.8712 -0.3555
  825MOL0     C 8834  10.059   5.301   0.807  0.1872 -0.5197  0.1108
  825MOL0     H 8835   9.929   5.048   1.258  1.6116  0.0771 -1.8986
  825MOL0     H 8836   9.789   5.093   1.469 -2.7077  1.2979  1.1207
  825MOL0     H 8837   9.415   5.339   1.420 -1.5691  1.1145  0.5151
  825MOL0     H 8838   9.513   5.454   1.509 -1.2422  0.3788 -4.1917
  825MOL0     H 8839   9.323   5.407   1.654  2.3267  3.1249 -1.9588
  825MOL0     H 8840   9.475   5.348   1.718 -0.1903  2.3782  1.0846
  825MOL0     H 8841   9.398   5.126   1.659  1.5281  1.4440 -0.6449
  825MOL0     H 8842   9.275   5.183   1.541  1.1968 -2.7513 -0.2050
  825MOL0     H 8843   9.251   5.226   1.831  4.4310 -1.0634 -1.7414
  825MOL0     H 8844   9.111   5.218   1.719 -0.3117 -0.6019 -2.3932
  825MOL0     H 8845   9.298   4.980   1.802  1.9485  2.1745 -2.7273
  825MOL0     H 8846   9.186   4.953   1.689  0.6331  1.0129  0.9144
  825MOL0     H 8847   9.007   5.039   1.838 -0.1428  0.1798  0.5103
  825MOL0     H 8848   9.130   5.042   1.967  2.3263 -0.4111  0.4336
  825MOL0     H 8849   8.992   4.828   1.970 -1.4050 -5.2747 -1.5035
  825MOL0     H 8850   9.027   4.792   1.807  0.1763  0.0742  0.7002
  825MOL0     H 8851   9.247   4.716   1.853 -0.1884  2.2627 -1.5490
  825MOL0     H 8852   9.146   4.656   1.965  1.2392 -1.0821 -2.9500
  825MOL0     H 8853   9.471   4.768   1.964  0.3261  1.1358 -0.2819
  825MOL0     H 8854   9.621   4.937   2.142 -2.7911  3.2592  1.0371
  825MOL0     H 8855   9.654   4.773   2.180  0.1047 -0.5016  0.5808
  825MOL0     H 8856   9.719   4.935   2.353 -0.5192  0.7717 -0.5408
  825MOL0     H 8857   9.625   4.795   2.413  0.9527 -0.0068 -1.0346
  825MOL0     H 8858   9.466   4.943   2.480  2.1241 -5.0871 -0.3787
  825MOL0     H 8859   9.615   5.033   2.501  0.4848  0.0012 -0.8081
  825MOL0     H 8860   9.441   5.094   2.257  1.2946 -1.2371  0.0587
  825MOL0     H 8861   9.603   5.126   2.267 -1.8197  0.0889 -1.1280
  825MOL0     H 8862   9.736   5.226   2.379 -2.4716 -1.6259 -0.1878
  825MOL0     H 8863   9.895   5.380   2.457  0.5073  1.1141  4.5276
  825MOL0     H 8864   9.774   5.918   2.803 -2.2816  2.2236 -0.9924
  825MOL0     H 8865   9.847   6.180   2.772 -1.4136  0.1266  0.6113
  825MOL0     H 8866  10.051   6.455   2.624 -1.5827  2.2746  2.3526
  825MOL0     H 8867   9.949   6.358   2.738 -5.6829  0.9661 -0.9158
  825MOL0     H 8868   9.751   6.387   2.558  0.9421 -1.0003  1.0393
  825MOL0     H 8869   9.871   6.457   2.445 -1.0627 -0.4538 -0.0829
  825MOL0     H 8870   9.908   6.622   2.635 -0.5327  0.2634  0.1449
  825MOL0     H 8871   9.782   6.541   2.720 -0.1391 -3.0493 -0.0736
  825MOL0     H 8872   9.611   6.608   2.554 -1.4848  2.4952  0.4455
  825MOL0     H 8873   9.684   6.744   2.628 -0.1762  2.3203 -1.1549
  825MOL0     H 8874   9.760   6.636   2.357  0.3459 -0.4183  0.2125
  825MOL0     H 8875   9.835   6.778   2.438  0.6742 -1.0911 -1.4185
  825MOL0     H 8876   9.612   6.893   2.446  2.6597 -0.0367  0.5776
  825MOL0     H 8877   9.539   6.748   2.363  0.2569 -1.6153 -0.5617
  825MOL0     H 8878   9.744   6.947   2.264  0.8783 -1.0683  1.7334
  825MOL0     H 8879   9.689   6.801   2.169 -3.4807 -2.1944  1.6427
  825MOL0     H 8880   9.570   7.029   2.086 -1.7007 -0.0798 -0.1802
  825MOL0     H 8881   9.508   7.036   2.245  1.1584  1.6403  0.5406
  825MOL0     H 8882  10.084   6.034   2.444 -3.4516  4.3484 -0.9790
  825MOL0     H 8883  10.008   5.822   2.466  2.3209  0.8098 -0.4383
  825MOL0     H 8884   9.590   5.639   2.600 -1.2757  0.0105 -0.7956
  825MOL0     H 8885   9.416   5.453   2.545 -0.1775  1.4324  0.3692
  825MOL0     H 8886   9.594   5.430   1.270  1.1259  1.3976  3.0671
  825MOL0     H 8887   9.741   5.414   1.100 -0.1865 -1.3270 -0.6081
  825MOL0     H 8888  10.280   5.085   0.942  0.1613  0.2210 -0.8879
  825MOL0     H 8889  10.424   5.168   0.772 -0.2011 -1.1444 -2.7101
  825MOL0     H 8890  10.272   5.532   0.541  3.1644  0.5590 -0.8644
  825MOL0     H 8891  10.219   5.412   0.426  1.5821 -1.8556 -1.9555
  825MOL0     H 8892  10.480   5.406   0.379 -1.7615 -0.7758 -0.2999
  825MOL0     H 8893  10.389   5.550   0.319  0.0704  0.9367  0.7769
  825MOL0     H 8894  10.610   5.622   0.440  2.0257 -3.2067  0.7004
  825MOL0     H 8895  10.568   5.530   0.574 -1.0382  1.7869  1.4383
  825MOL0     H 8896  10.400   5.700   0.636 -3.1234  1.6054 -1.9187
  825MOL0     H 8897  10.541   5.792   0.567  0.9458 -1.8897  0.4721
  825MOL0     H 8898  10.228   5.912   0.342 -1.6043 -1.9103 -0.8183
  825MOL0     H 8899  10.095   5.418   0.634  0.4248 -0.0056  0.3345
  825MOL0     H 8900   9.961   5.346   0.824 -0.2050 -1.4166  0.2716
  826MOL0     O 8901   4.752   9.256   6.802 -0.4355  0.2536 -0.8513
  826MOL0     C 8902   4.673   9.274   6.891  0.3365 -0.4335  0.0193
  826MOL0     O 8903   4.538   9.250   6.875 -0.4030  0.3676 -0.1026
  826MOL0     C 8904   4.487   9.205   6.755  0.3309  0.8057  0.4147
  826MOL0     C 8905   4.549   9.091   6.690 -1.0325 -0.1462 -0.7620
  826MOL0     C 8906   4.498   9.042   6.571 -0.0512 -0.3350  0.5297
  826MOL0     C 8907   4.403   9.107   6.503 -0.4770 -0.7464  0.6285
  826MOL0     O 8908   4.367   9.045   6.389  0.6613  0.7724  0.5574
  826MOL0     C 8909   4.293   9.120   6.298 -0.2080  0.5635  1.5749
  826MOL0     C 8910   4.314   9.047   6.156 -0.1610  0.4350 -0.9562
  826MOL0     C 8911   4.270   9.136   6.038 -0.5556  0.9098  0.3223
  826MOL0     C 8912   4.346   9.103   5.906  0.6617 -0.8311 -0.2545
  826MOL0     C 8913   4.255   9.115   5.779  0.2346  0.0469  0.5741
  826MOL0     C 8914   4.237   9.265   5.738 -0.5230 -0.5500 -0.4479
  826MOL0     C 8915   4.144   9.297   5.618 -0.1345  0.9040  0.6388
  826MOL0     C 8916   4.201   9.413   5.533  0.8399 -1.0325  0.2953
  826MOL0     N 8917   4.119   9.433   5.411  0.3747 -0.2940 -0.0223
  826MOL0     C 8918   4.115   9.356   5.300 -0.3999 -0.7875 -0.8191
  826MOL0     C 8919   4.047   9.418   5.209 -0.3399 -0.1492  0.0939
  826MOL0     C 8920   4.003   9.334   5.087 -0.0661  0.0761 -0.2050
  826MOL0     C 8921   4.086   9.372   4.957 -0.2714 -0.4262 -0.7176
  826MOL0     C 8922   4.065   9.259   4.848 -0.2950  0.3419 -1.0831
  826MOL0     C 8923   4.136   9.284   4.717  0.1194  0.2859 -0.5744
  826MOL0     O 8924   4.107   9.171   4.631 -0.7952  0.2419 -0.3380
  826MOL0     C 8925   4.042   9.184   4.514  0.4213 -2.0685 -0.0149
  826MOL0     C 8926   4.087   9.134   4.389 -0.1079  0.3429  0.1722
  826MOL0     C 8927   4.017   9.140   4.276 -0.2948  0.6194 -0.3007
  826MOL0     C 8928   3.900   9.217   4.263  0.3417  0.2401  0.6552
  826MOL0     C 8929   3.821   9.220   4.139  0.9097  0.2572 -0.2230
  826MOL0     O 8930   3.707   9.294   4.144 -0.3196 -0.1083 -0.3691
  826MOL0     C 8931   3.643   9.325   4.030 -0.6291  0.1389 -0.0715
  826MOL0     C 8932   3.668   9.446   3.971 -0.4480 -0.0589 -0.0690
  826MOL0     C 8933   3.595   9.490   3.869  0.0508 -0.7281  1.2932
  826MOL0     C 8934   3.523   9.402   3.792  0.5586 -0.1964  0.0043
  826MOL0     O 8935   3.461   9.452   3.678 -0.1456  0.2969 -0.0260
  826MOL0     C 8936   3.360   9.369   3.616 -1.2597 -0.1326  0.3076
  826MOL0     C 8937   3.323   9.430   3.478 -0.1295 -0.9848 -0.8407
  826MOL0     C 8938   3.441   9.474   3.396 -0.5320 -0.4452  0.5552
  826MOL0     C 8939   3.398   9.519   3.254 -0.9468 -0.9339  0.5822
  826MOL0     C 8940   3.519   9.544   3.167 -0.6508 -0.7184 -0.3794
  826MOL0     C 8941   3.608   9.669   3.213 -0.3605  0.5520  0.1275
  826MOL0     C 8942   3.702   9.701   3.106 -0.1639  0.8019 -0.2912
  826MOL0     C 8943   3.752   9.840   3.136 -0.0750  0.1774  0.0813
  826MOL0    Cl 8944   3.841   9.896   2.985  0.0633 -0.4346 -0.0653
  826MOL0     C 8945   3.499   9.272   3.846 -0.1510 -0.3639  0.5831
  826MOL0     C 8946   3.555   9.245   3.974  0.3462  0.4156  0.2386
  826MOL0     O 8947   3.868   9.177   4.031  0.4400  0.3071  0.1460
  826MOL0     C 8948   3.862   9.281   4.384  0.1671  0.5106 -0.0691
  826MOL0     C 8949   3.921   9.260   4.511  0.0356  0.0453  0.1546
  826MOL0     N 8950   4.011   9.540   5.266  0.3608  0.3977  0.6323
  826MOL0     N 8951   4.044   9.539   5.389  0.0322 -0.4671 -0.6161
  826MOL0     C 8952   4.346   9.226   6.558  0.4708 -0.7091 -0.0607
  826MOL0     C 8953   4.383   9.272   6.686 -0.0733  0.0577 -0.4050
  826MOL0     C 8954   4.712   9.335   7.018  0.8853 -0.2123 -0.4515
  826MOL0     C 8955   4.842   9.385   7.043 -0.0757 -0.0014 -0.1690
  826MOL0     C 8956   4.865   9.445   7.168 -0.5220 -0.4434 -0.4973
  826MOL0     C 8957   4.756   9.453   7.259 -0.4068  0.5872 -0.1145
  826MOL0     O 8958   4.768   9.521   7.379  0.1862 -0.1686  1.0363
  826MOL0     C 8959   4.875   9.611   7.403 -0.0442 -0.7231 -0.6243
  826MOL0     C 8960   4.879   9.735   7.313  0.7473 -0.1346  1.0505
  826MOL0     C 8961   5.008   9.820   7.326  0.7271 -0.3566  0.3311
  826MOL0     C 8962   5.008   9.883   7.472  0.0393 -1.4847 -0.0155
  826MOL0     C 8963   4.913   9.990   7.466  1.1180 -0.9799 -0.4131
  826MOL0     C 8964   4.831  10.086   7.476  0.0163 -0.4819 -0.9504
  826MOL0     C 8965   4.633   9.385   7.239 -1.5051  0.0864  0.1133
  826MOL0     C 8966   4.623   9.329   7.120 -0.1599 -0.1904 -0.0587
  826MOL0     H 8967   4.632   9.039   6.735 -1.8110 -1.5002 -0.8338
  826MOL0     H 8968   4.556   8.959   6.532 -1.4860 -1.7052  1.1712
  826MOL0     H 8969   4.337   9.220   6.296 -0.7060  0.7908 -0.9146
  826MOL0     H 8970   4.184   9.133   6.305 -0.4886  1.1946 -1.9962
  826MOL0     H 8971   4.254   8.957   6.141  1.3419 -1.7212  3.8712
  826MOL0     H 8972   4.418   9.014   6.150 -0.0221  0.3402  1.2744
  826MOL0     H 8973   4.271   9.244   6.051  2.4854  1.0995 -0.7480
  826MOL0     H 8974   4.162   9.118   6.031 -0.1262 -1.9907 -0.3191
  826MOL0     H 8975   4.438   9.161   5.897 -0.7164  1.2172 -2.1421
  826MOL0     H 8976   4.371   8.997   5.913  0.0345 -1.1564 -2.3910
  826MOL0     H 8977   4.164   9.055   5.796 -0.3623  1.2917  2.0466
  826MOL0     H 8978   4.306   9.059   5.700 -0.9993  0.1385 -0.3211
  826MOL0     H 8979   4.338   9.304   5.751 -0.8248 -0.7791  4.6681
  826MOL0     H 8980   4.193   9.317   5.824  0.1426  0.0845 -0.4815
  826MOL0     H 8981   4.139   9.203   5.561 -4.0815  0.7224  1.0439
  826MOL0     H 8982   4.047   9.327   5.657  0.0478 -0.8980  2.6825
  826MOL0     H 8983   4.305   9.407   5.501  0.3462 -1.5140 -1.3572
  826MOL0     H 8984   4.186   9.499   5.598 -3.7971 -2.4637  1.5622
  826MOL0     H 8985   4.164   9.259   5.299 -2.0068 -1.6592  0.3824
  826MOL0     H 8986   3.899   9.365   5.071 -0.9232 -2.4341 -0.0019
  826MOL0     H 8987   4.023   9.230   5.115  2.8144  0.9133  1.1891
  826MOL0     H 8988   4.190   9.395   4.978 -0.7954  1.8054 -0.2939
  826MOL0     H 8989   4.043   9.468   4.925 -2.7198 -1.1545  0.1266
  826MOL0     H 8990   4.112   9.166   4.883 -0.2870  0.7564  0.0276
  826MOL0     H 8991   3.958   9.242   4.833 -0.8178  1.1370  1.2999
  826MOL0     H 8992   4.243   9.301   4.732 -0.3101  1.7307  1.1920
  826MOL0     H 8993   4.083   9.371   4.679 -1.8189 -0.2627  0.7103
  826MOL0     H 8994   4.180   9.083   4.410 -0.6018 -0.2334  1.0232
  826MOL0     H 8995   4.055   9.081   4.194  0.5139  0.9231 -0.1513
  826MOL0     H 8996   3.742   9.514   4.009  1.2013 -1.4501 -0.6446
  826MOL0     H 8997   3.611   9.593   3.840  0.7432 -0.5971  2.0941
  826MOL0     H 8998   3.288   9.367   3.698  0.5069  0.2802  1.9312
  826MOL0     H 8999   3.393   9.266   3.602  0.1901  0.2399  0.8385
  826MOL0     H 9000   3.262   9.519   3.497 -0.8134 -1.6585  0.2428
  826MOL0     H 9001   3.265   9.359   3.418  0.7296 -1.8332 -0.6852
  826MOL0     H 9002   3.512   9.392   3.385 -1.9064 -1.7137  0.8327
  826MOL0     H 9003   3.493   9.554   3.449 -0.1691 -1.1603  1.2897
  826MOL0     H 9004   3.351   9.436   3.200  0.8682 -1.4381 -0.3351
  826MOL0     H 9005   3.333   9.606   3.260  1.8005  1.4803 -1.3659
  826MOL0     H 9006   3.481   9.564   3.066 -3.6980  1.3190  1.0087
  826MOL0     H 9007   3.588   9.461   3.185  0.8879  0.1288 -2.0533
  826MOL0     H 9008   3.653   9.654   3.312 -1.6536 -2.2845  0.3775
  826MOL0     H 9009   3.545   9.757   3.230 -1.5266  0.2421 -2.1719
  826MOL0     H 9010   3.790   9.636   3.115  0.4275  1.7347  0.9290
  826MOL0     H 9011   3.655   9.690   3.008 -2.1300 -1.8408  0.8348
  826MOL0     H 9012   3.816   9.838   3.225  1.0407 -1.5871 -0.7194
  826MOL0     H 9013   3.673   9.910   3.166  0.6025 -0.2007  3.0935
  826MOL0     H 9014   3.426   9.208   3.797  0.6164  0.4813 -1.8346
  826MOL0     H 9015   3.543   9.147   4.017 -0.2194  0.2917 -0.1899
  826MOL0     H 9016   3.777   9.347   4.396  0.5084  1.0450 -0.5991
  826MOL0     H 9017   3.882   9.305   4.602 -0.0132 -0.0996  0.2047
  826MOL0     H 9018   4.264   9.276   6.506  1.0432  0.9070  0.5184
  826MOL0     H 9019   4.338   9.358   6.734 -0.4586 -2.0806  3.5137
  826MOL0     H 9020   4.923   9.368   6.973 -0.1850 -2.1614  0.1553
  826MOL0     H 9021   4.961   9.485   7.197  0.3911 -2.0430 -1.1551
  826MOL0     H 9022   4.971   9.559   7.390 -0.2660 -2.9712  4.4438
  826MOL0     H 9023   4.862   9.633   7.510  2.6312 -0.2822 -0.3103
  826MOL0     H 9024   4.866   9.708   7.207  0.6916 -1.3256  1.3465
  826MOL0     H 9025   4.791   9.790   7.347  0.1154 -1.0377  0.9152
  826MOL0     H 9026   5.016   9.888   7.241  3.4728 -2.5219 -1.3245
  826MOL0     H 9027   5.092   9.749   7.329 -0.1564 -1.4196  0.5976
  826MOL0     H 9028   4.978   9.819   7.555 -0.0042  0.1778  1.2970
  826MOL0     H 9029   5.113   9.907   7.487 -0.0241 -1.4134  0.3249
  826MOL0     H 9030   4.755  10.161   7.466  3.2295  2.8808 -2.3956
  826MOL0     H 9031   4.559   9.382   7.318  0.4409 -0.7037  2.0044
  826MOL0     H 9032   4.527   9.279   7.115  1.1537 -2.8391 -0.5072
  827MOL0     O 9033   3.008   3.230   9.727  0.3041 -0.1837  0.2342
  827MOL0     C 9034   3.085   3.323   9.746  1.2143 -0.2739  0.4018
  827MOL0     O 9035   3.212   3.314   9.814  0.1528  0.3467 -0.1506
  827MOL0     C 9036   3.257   3.193   9.838  0.8881  0.5307 -0.2121
  827MOL0     C 9037   3.234   3.145   9.973  0.7145 -0.1642 -0.8656
  827MOL0     C 9038   3.270   3.016  10.014 -0.9463  0.6935 -0.1806
  827MOL0     C 9039   3.322   2.929   9.912 -0.4437  0.3298 -1.1177
  827MOL0     O 9040   3.335   2.794   9.941  0.2332 -0.3554  0.4548
  827MOL0     C 9041   3.414   2.767  10.049  0.4116 -0.6465 -0.0896
  827MOL0     C 9042   3.455   2.620  10.049 -0.0677  0.0132  0.1475
  827MOL0     C 9043   3.468   2.551   9.905  0.0224  0.5794 -0.5525
  827MOL0     C 9044   3.582   2.608   9.813 -0.4558 -0.2079 -0.4027
  827MOL0     C 9045   3.717   2.593   9.887  0.3212  0.1491  0.0132
  827MOL0     C 9046   3.839   2.620   9.797 -0.4864  0.2063 -0.9265
  827MOL0     C 9047   3.966   2.657   9.878 -0.0922  0.2920  0.4370
  827MOL0     C 9048   3.958   2.802   9.927  0.5431  0.1304 -0.0134
  827MOL0     N 9049   4.061   2.838  10.024 -0.0913  0.0371  0.2446
  827MOL0     C 9050   4.101   2.971  10.036  0.6435 -0.4005 -0.3595
  827MOL0     C 9051   4.228   2.962  10.089 -0.0717 -0.4952  0.2189
  827MOL0     C 9052   4.328   3.068  10.123  0.1290  1.0301 -0.2906
  827MOL0     C 9053   4.297   3.200  10.049 -0.2885  0.1346  0.0210
  827MOL0     C 9054   4.367   3.200   9.910 -0.4605  0.0684 -0.4355
  827MOL0     C 9055   4.292   3.111   9.821 -0.2474  0.2910  0.8254
  827MOL0     O 9056   4.152   3.153   9.794 -0.7607 -0.4067  0.7599
  827MOL0     C 9057   4.080   3.089   9.699 -1.3419  0.9286  0.3936
  827MOL0     C 9058   4.112   2.970   9.633  0.4193  0.6084 -0.4405
  827MOL0     C 9059   4.025   2.904   9.549 -0.4213 -0.3288  0.8150
  827MOL0     C 9060   3.899   2.961   9.516  0.4142 -0.2414 -0.7702
  827MOL0     C 9061   3.802   2.901   9.419  0.1641 -0.0819 -0.8475
  827MOL0     O 9062   3.679   2.957   9.409  0.4147 -0.4789  0.5154
  827MOL0     C 9063   3.565   2.904   9.344 -1.4261  0.6881 -0.1461
  827MOL0     C 9064   3.466   2.983   9.294  0.4888 -0.1581  1.3031
  827MOL0     C 9065   3.351   2.934   9.226  0.0765 -0.4571  0.5399
  827MOL0     C 9066   3.326   2.800   9.221 -0.2219 -0.8180 -0.5555
  827MOL0     O 9067   3.205   2.760   9.162  0.1865  0.0234  0.6957
  827MOL0     C 9068   3.152   2.633   9.194 -0.0527 -0.4159  0.1594
  827MOL0     C 9069   3.029   2.600   9.107 -0.0513  0.1173 -0.5207
  827MOL0     C 9070   3.069   2.544   8.969 -0.0590 -1.0314 -0.3592
  827MOL0     C 9071   2.934   2.526   8.885  0.0540  0.0495 -0.6141
  827MOL0     C 9072   2.961   2.468   8.751  0.2178  0.3079 -0.1364
  827MOL0     C 9073   2.845   2.482   8.657 -0.8290  0.0823 -0.9306
  827MOL0     C 9074   2.780   2.605   8.608 -0.3138  0.0131  0.6354
  827MOL0     C 9075   2.660   2.585   8.529 -1.1771  0.1900 -0.7748
  827MOL0    Cl 9076   2.520   2.560   8.643 -0.0028 -0.2782  0.5940
  827MOL0     C 9077   3.414   2.712   9.275 -0.8330  0.5635  0.2830
  827MOL0     C 9078   3.539   2.758   9.335  0.1556 -0.1204  0.2349
  827MOL0     O 9079   3.846   2.802   9.361  0.3452  0.4351 -0.2241
  827MOL0     C 9080   3.866   3.077   9.588 -0.4792 -0.3121 -0.2977
  827MOL0     C 9081   3.953   3.139   9.671 -0.1692 -0.0589 -0.8956
  827MOL0     N 9082   4.259   2.831  10.102  0.1804  0.2087  0.1173
  827MOL0     N 9083   4.158   2.752  10.069 -0.3051 -0.0378  0.7011
  827MOL0     C 9084   3.334   2.968   9.783  0.0259 -0.0611 -0.5820
  827MOL0     C 9085   3.320   3.103   9.743  0.4780 -0.5431 -1.3217
  827MOL0     C 9086   3.060   3.447   9.674  0.3382 -0.3303 -0.0277
  827MOL0     C 9087   3.169   3.536   9.635 -0.1338 -0.1398 -0.3544
  827MOL0     C 9088   3.138   3.657   9.571 -0.1374  0.7328  0.1109
  827MOL0     C 9089   3.016   3.696   9.517 -0.0266  1.4734 -1.1654
  827MOL0     O 9090   2.998   3.825   9.457 -0.3020 -0.7489 -0.4435
  827MOL0     C 9091   2.864   3.891   9.453 -0.3897 -0.0262  0.0494
  827MOL0     C 9092   2.883   4.045   9.435 -1.0370 -0.0445 -0.5906
  827MOL0     C 9093   2.767   4.132   9.458  0.3087 -0.5248 -0.3137
  827MOL0     C 9094   2.693   4.198   9.347 -0.3709 -0.6034 -0.0503
  827MOL0     C 9095   2.772   4.300   9.283 -0.8408  0.3680 -0.1465
  827MOL0     C 9096   2.841   4.381   9.221  0.6136  0.4535  0.3476
  827MOL0     C 9097   2.918   3.606   9.546 -0.1906 -1.0848 -0.0945
  827MOL0     C 9098   2.929   3.491   9.631  0.5008 -0.6068 -0.1883
  827MOL0     H 9099   3.177   3.216  10.033 -1.3006 -1.9449 -0.5491
  827MOL0     H 9100   3.249   2.984  10.115 -4.3408  4.5930  0.5979
  827MOL0     H 9101   3.348   2.766  10.137  0.1552 -3.0896 -0.2305
  827MOL0     H 9102   3.500   2.834  10.059 -0.3898  1.0527 -3.4270
  827MOL0     H 9103   3.376   2.566  10.101  0.5949 -1.2870 -0.1585
  827MOL0     H 9104   3.548   2.602  10.104 -0.3749 -1.1485  0.2991
  827MOL0     H 9105   3.381   2.554   9.838 -0.0086 -1.5945 -0.6574
  827MOL0     H 9106   3.490   2.446   9.921 -1.1062  0.3838 -0.1569
  827MOL0     H 9107   3.595   2.549   9.721  0.7157 -2.3640  1.0567
  827MOL0     H 9108   3.568   2.716   9.809  0.3064 -0.0535  0.7512
  827MOL0     H 9109   3.734   2.510   9.956  3.9005 -0.9317 -1.9240
  827MOL0     H 9110   3.721   2.675   9.960  0.7595 -1.6590  2.1241
  827MOL0     H 9111   3.831   2.707   9.731 -0.5024 -1.1632 -2.8127
  827MOL0     H 9112   3.854   2.534   9.731  1.3946  0.4945 -0.9316
  827MOL0     H 9113   3.996   2.589   9.959  1.7859  1.0386  0.4218
  827MOL0     H 9114   4.047   2.640   9.806 -1.2206  1.5656 -1.2012
  827MOL0     H 9115   3.864   2.820   9.980 -0.5043  1.4263 -2.1890
  827MOL0     H 9116   3.960   2.877   9.848 -3.5104  0.7239  0.2113
  827MOL0     H 9117   4.044   3.060  10.013  3.6709  0.7834 -4.5264
  827MOL0     H 9118   4.428   3.027  10.109 -0.6808 -0.7959 -1.1426
  827MOL0     H 9119   4.310   3.085  10.229  1.2650 -0.1160  0.1107
  827MOL0     H 9120   4.349   3.272  10.113  0.5905  1.2571 -1.8778
  827MOL0     H 9121   4.192   3.226  10.037  0.4982  3.1973 -1.1677
  827MOL0     H 9122   4.367   3.302   9.868  0.8330  0.1289 -0.3350
  827MOL0     H 9123   4.470   3.164   9.907  0.3156  1.9660  1.3150
  827MOL0     H 9124   4.296   3.010   9.863  1.2213 -0.0199  0.0229
  827MOL0     H 9125   4.339   3.118   9.723  1.0506 -2.3647  1.1580
  827MOL0     H 9126   4.214   2.939   9.652  0.9099  0.8170 -2.4762
  827MOL0     H 9127   4.050   2.806   9.508 -0.0467  0.7961 -1.8456
  827MOL0     H 9128   3.483   3.090   9.292  1.9294 -0.3490 -1.3844
  827MOL0     H 9129   3.276   2.991   9.173 -0.8795 -2.4871 -0.4185
  827MOL0     H 9130   3.127   2.619   9.300  0.0129 -0.5728  0.1541
  827MOL0     H 9131   3.221   2.553   9.167  2.0924  0.4383  2.6360
  827MOL0     H 9132   2.972   2.693   9.101 -1.1788 -0.6404 -2.2607
  827MOL0     H 9133   2.963   2.533   9.162  1.0716 -0.8061 -0.2650
  827MOL0     H 9134   3.125   2.452   8.987 -1.8841 -2.1601 -0.1620
  827MOL0     H 9135   3.129   2.617   8.914  2.8786 -2.2977  0.9433
  827MOL0     H 9136   2.860   2.462   8.934  0.8460 -0.3488  0.1003
  827MOL0     H 9137   2.890   2.624   8.864  0.4182  0.2995 -0.2189
  827MOL0     H 9138   2.989   2.363   8.767  0.8063  0.5280  0.2881
  827MOL0     H 9139   3.059   2.511   8.730  0.9154 -0.1054  1.9981
  827MOL0     H 9140   2.760   2.425   8.696 -2.6404  2.1032 -1.7191
  827MOL0     H 9141   2.886   2.429   8.571 -2.1481 -1.4967 -0.6443
  827MOL0     H 9142   2.753   2.665   8.696  0.1827 -0.4134  1.0891
  827MOL0     H 9143   2.839   2.648   8.526 -1.9682 -0.1703 -0.7097
  827MOL0     H 9144   2.675   2.501   8.461 -1.5814 -0.0210 -0.6075
  827MOL0     H 9145   2.637   2.673   8.468 -0.6895  0.8894  0.0234
  827MOL0     H 9146   3.410   2.604   9.281 -0.2929  0.6115  3.7075
  827MOL0     H 9147   3.594   2.691   9.400  0.2473  3.8373  4.8191
  827MOL0     H 9148   3.763   3.109   9.581 -0.5877 -0.4954  0.3156
  827MOL0     H 9149   3.930   3.235   9.716 -3.1356 -0.8897 -0.3884
  827MOL0     H 9150   3.376   2.901   9.708  0.8149 -0.2743  0.0338
  827MOL0     H 9151   3.331   3.142   9.642  0.2352  0.8905 -0.8181
  827MOL0     H 9152   3.271   3.512   9.664 -0.2440 -0.5220 -0.2722
  827MOL0     H 9153   3.211   3.736   9.556  0.8615 -0.2399 -0.3049
  827MOL0     H 9154   2.807   3.888   9.546  0.0970 -0.8986  0.3202
  827MOL0     H 9155   2.800   3.837   9.383  0.0870  0.2708 -0.6286
  827MOL0     H 9156   2.965   4.080   9.498  2.1424 -1.3995 -3.5923
  827MOL0     H 9157   2.924   4.071   9.337 -1.5547  1.8554 -0.3489
  827MOL0     H 9158   2.821   4.212   9.510  0.3950 -0.3586 -0.6568
  827MOL0     H 9159   2.699   4.084   9.530  1.1355 -1.9914 -0.4820
  827MOL0     H 9160   2.658   4.137   9.263  1.3661 -1.1442 -0.4188
  827MOL0     H 9161   2.599   4.244   9.379 -0.3984  2.1038 -3.4580
  827MOL0     H 9162   2.910   4.448   9.174  0.6079  1.4388  1.6682
  827MOL0     H 9163   2.818   3.620   9.507 -0.0870 -4.0659 -1.6854
  827MOL0     H 9164   2.838   3.431   9.639 -0.0749  0.3597  0.8058
  828MOL0     O 9165   5.979   5.214   0.229 -0.2639 -0.0735  0.3491
  828MOL0     C 9166   5.884   5.263   0.278 -1.6550 -0.3796 -0.1738
  828MOL0     O 9167   5.770   5.308   0.207  0.2894 -0.0450 -0.6951
  828MOL0     C 9168   5.777   5.337   0.068  0.4041  0.0445  0.0471
  828MOL0     C 9169   5.894   5.362  -0.017  0.3104  0.9882  0.1281
  828MOL0     C 9170   5.879   5.399  -0.153 -0.6473 -0.0719  0.1396
  828MOL0     C 9171   5.755   5.396  -0.215  0.3638  0.5527 -0.0936
  828MOL0     O 9172   5.734   5.433  -0.340  0.0402  0.0391  0.8088
  828MOL0     C 9173   5.665   5.557  -0.368 -1.0743  0.6497  0.4122
  828MOL0     C 9174   5.748   5.675  -0.308 -0.4282 -1.2167 -0.3630
  828MOL0     C 9175   5.681   5.815  -0.339  0.3217  1.2757 -1.0846
  828MOL0     C 9176   5.674   5.855  -0.483  0.2404  0.2229 -0.3739
  828MOL0     C 9177   5.564   5.957  -0.510  0.5740  0.0903  0.6039
  828MOL0     C 9178   5.588   6.094  -0.444  0.8879  0.3804  0.2877
  828MOL0     C 9179   5.727   6.164  -0.492  0.5841  0.9123  0.2431
  828MOL0     C 9180   5.743   6.299  -0.439  0.0246 -0.8331  0.3791
  828MOL0     N 9181   5.633   6.400  -0.466 -0.6422  0.7153  1.0026
  828MOL0     C 9182   5.557   6.424  -0.587 -0.0467  1.3286 -0.7820
  828MOL0     C 9183   5.467   6.521  -0.551  0.4228  0.5847  0.2798
  828MOL0     C 9184   5.339   6.563  -0.629 -0.5565  0.3359 -0.5814
  828MOL0     C 9185   5.355   6.564  -0.780 -0.3470  0.9822 -1.3126
  828MOL0     C 9186   5.425   6.694  -0.840  0.1067 -0.0064 -0.4970
  828MOL0     C 9187   5.324   6.796  -0.868  0.3764 -0.0932  1.2192
  828MOL0     O 9188   5.229   6.830  -0.769  0.7610  0.3268  0.0208
  828MOL0     C 9189   5.130   6.924  -0.787  0.3450  0.5740  0.0636
  828MOL0     C 9190   5.043   6.953  -0.678 -1.0312 -0.4851 -0.3875
  828MOL0     C 9191   4.955   7.050  -0.689 -0.2037  0.4801  0.2658
  828MOL0     C 9192   4.922   7.114  -0.812 -0.6969 -0.2137 -0.3765
  828MOL0     C 9193   4.816   7.215  -0.803 -0.2928  0.6892  0.2772
  828MOL0     O 9194   4.750   7.238  -0.674 -0.3307 -0.0925 -0.2453
  828MOL0     C 9195   4.666   7.347  -0.686  0.5693  0.7635 -0.3105
  828MOL0     C 9196   4.534   7.324  -0.686  0.6213 -0.5242 -0.7016
  828MOL0     C 9197   4.442   7.429  -0.696 -0.2474 -0.8977 -0.3919
  828MOL0     C 9198   4.492   7.561  -0.684  0.2092 -0.1091  0.0277
  828MOL0     O 9199   4.416   7.680  -0.663 -0.5437  0.8497  0.3184
  828MOL0     C 9200   4.290   7.701  -0.715 -1.0587 -0.0123  0.4053
  828MOL0     C 9201   4.276   7.848  -0.769 -0.5024  0.2544 -0.4198
  828MOL0     C 9202   4.302   7.947  -0.650 -0.6678 -0.1228  0.1153
  828MOL0     C 9203   4.270   8.088  -0.696 -0.3351  0.5176  0.4030
  828MOL0     C 9204   4.191   8.159  -0.594  0.4723 -0.2387 -1.0585
  828MOL0     C 9205   4.174   8.306  -0.633  0.0029 -0.6838  0.2726
  828MOL0     C 9206   4.124   8.341  -0.771 -0.3068  0.9948  0.0811
  828MOL0     C 9207   4.214   8.443  -0.837 -0.3139  0.0338  0.2185
  828MOL0    Cl 9208   4.140   8.481  -0.993 -0.2680  0.5414  0.2183
  828MOL0     C 9209   4.628   7.581  -0.673 -0.4029  0.4640 -0.2264
  828MOL0     C 9210   4.715   7.475  -0.680  0.1095  0.2214 -0.9025
  828MOL0     O 9211   4.790   7.272  -0.903 -0.0162 -0.4603  0.6685
  828MOL0     C 9212   4.991   7.072  -0.924 -0.3553  0.4315 -0.6820
  828MOL0     C 9213   5.100   6.986  -0.913 -0.7367 -0.2743  0.6016
  828MOL0     N 9214   5.503   6.567  -0.428  0.6111  0.0318  0.5476
  828MOL0     N 9215   5.587   6.484  -0.371  0.1888 -0.0871  0.4334
  828MOL0     C 9216   5.640   5.380  -0.135  0.7415  0.9881 -0.6814
  828MOL0     C 9217   5.651   5.355   0.002 -0.2207  0.1410  0.3396
  828MOL0     C 9218   5.901   5.277   0.429  0.5004  0.1009  0.3353
  828MOL0     C 9219   6.018   5.222   0.498 -1.4314 -0.0559  0.6579
  828MOL0     C 9220   6.041   5.237   0.635 -1.4253  0.1619  0.2260
  828MOL0     C 9221   5.946   5.304   0.717  0.2084 -0.1811 -0.0700
  828MOL0     O 9222   5.961   5.338   0.848  0.6156  0.3702  0.5746
  828MOL0     C 9223   6.052   5.272   0.935 -0.0196  0.2966 -0.4643
  828MOL0     C 9224   6.003   5.131   0.963  0.4749  0.2869 -0.8683
  828MOL0     C 9225   5.875   5.113   1.050  0.3272 -0.3239 -0.3252
  828MOL0     C 9226   5.755   5.185   1.013 -0.1519 -1.0162 -0.4424
  828MOL0     C 9227   5.695   5.133   0.892 -0.3249 -1.2919 -0.0449
  828MOL0     C 9228   5.644   5.103   0.787  0.2442 -0.0508 -0.0120
  828MOL0     C 9229   5.821   5.343   0.654  0.1810 -0.2736 -0.5835
  828MOL0     C 9230   5.808   5.331   0.516  0.3356 -0.0574  0.0777
  828MOL0     H 9231   5.991   5.366   0.030 -0.5484 -0.5201  2.2018
  828MOL0     H 9232   5.960   5.415  -0.224 -0.6319 -0.5175  0.0545
  828MOL0     H 9233   5.566   5.559  -0.321 -4.1200 -1.9002 -4.8819
  828MOL0     H 9234   5.653   5.557  -0.477  0.2305  2.8686  0.1938
  828MOL0     H 9235   5.847   5.670  -0.355 -1.4090 -3.0013 -2.3786
  828MOL0     H 9236   5.738   5.667  -0.199 -0.4554  0.6234 -0.1909
  828MOL0     H 9237   5.743   5.889  -0.288  1.4846 -0.0730 -0.4538
  828MOL0     H 9238   5.586   5.818  -0.285  0.5892 -1.5160 -0.2877
  828MOL0     H 9239   5.775   5.882  -0.515  0.5383  1.2630  1.2860
  828MOL0     H 9240   5.644   5.774  -0.549  0.4500  0.3204 -0.5885
  828MOL0     H 9241   5.477   5.917  -0.459  2.9483  0.2939  5.4002
  828MOL0     H 9242   5.558   5.968  -0.618 -0.1174 -1.2276  0.4930
  828MOL0     H 9243   5.575   6.100  -0.336 -1.5432  2.9642 -0.0225
  828MOL0     H 9244   5.514   6.169  -0.475  1.9823  1.2029 -0.4241
  828MOL0     H 9245   5.801   6.105  -0.438 -0.6192 -1.5884 -0.6823
  828MOL0     H 9246   5.750   6.158  -0.599  3.0305 -2.9456  0.8024
  828MOL0     H 9247   5.841   6.332  -0.473 -1.0807  1.0534 -1.2225
  828MOL0     H 9248   5.745   6.294  -0.330 -0.2617  1.6429  0.5436
  828MOL0     H 9249   5.568   6.359  -0.674 -0.9243 -1.4101  1.0170
  828MOL0     H 9250   5.308   6.660  -0.589 -0.1432 -0.2797  1.3589
  828MOL0     H 9251   5.257   6.498  -0.598  1.7194 -2.1618  0.6865
  828MOL0     H 9252   5.264   6.549  -0.837 -0.2862 -2.1314 -0.7587
  828MOL0     H 9253   5.419   6.477  -0.797 -0.6322  0.5168 -0.0864
  828MOL0     H 9254   5.508   6.722  -0.774  1.7262 -1.4221 -1.8435
  828MOL0     H 9255   5.475   6.662  -0.932  0.2484  0.8117 -0.7138
  828MOL0     H 9256   5.267   6.766  -0.956 -0.3119  2.4706  0.6836
  828MOL0     H 9257   5.381   6.882  -0.904  1.3698 -1.7465 -1.3903
  828MOL0     H 9258   5.061   6.907  -0.582 -0.0948  0.0613 -0.2967
  828MOL0     H 9259   4.922   7.079  -0.590  2.5567 -0.4206  1.5595
  828MOL0     H 9260   4.506   7.220  -0.678  2.7461 -1.1116 -0.3112
  828MOL0     H 9261   4.335   7.410  -0.698 -0.3063 -0.8121  1.2096
  828MOL0     H 9262   4.219   7.679  -0.635 -0.4304  2.7163  1.8086
  828MOL0     H 9263   4.278   7.617  -0.784  2.0385 -2.4061  2.4703
  828MOL0     H 9264   4.177   7.857  -0.815 -0.8043  1.0281  0.3484
  828MOL0     H 9265   4.341   7.872  -0.854  2.4687  1.2239  1.9416
  828MOL0     H 9266   4.409   7.937  -0.634 -0.2518  0.5574 -1.9146
  828MOL0     H 9267   4.239   7.914  -0.567 -0.9598  0.5076  0.1485
  828MOL0     H 9268   4.361   8.145  -0.718 -0.8598  1.1481 -0.1692
  828MOL0     H 9269   4.208   8.076  -0.785  2.4818  0.1683 -1.6499
  828MOL0     H 9270   4.230   8.158  -0.492  0.3523  3.8239 -0.7904
  828MOL0     H 9271   4.086   8.129  -0.588 -0.3013  2.3911  0.7678
  828MOL0     H 9272   4.270   8.350  -0.606 -1.7675  1.0348  4.5779
  828MOL0     H 9273   4.091   8.351  -0.578 -3.4011 -3.6697 -1.9459
  828MOL0     H 9274   4.117   8.249  -0.831 -0.9310  0.7558  0.5109
  828MOL0     H 9275   4.020   8.375  -0.763 -0.7244 -0.0848 -0.5165
  828MOL0     H 9276   4.313   8.401  -0.853 -0.4445  0.2202 -1.2084
  828MOL0     H 9277   4.221   8.526  -0.766 -1.1608 -0.2559  0.6537
  828MOL0     H 9278   4.655   7.686  -0.676 -0.3271  0.5143  1.3974
  828MOL0     H 9279   4.823   7.484  -0.677  0.3967 -1.5998 -2.8704
  828MOL0     H 9280   4.972   7.107  -1.025  1.0296  0.8389 -0.8228
  828MOL0     H 9281   5.147   6.964  -1.008 -0.2143  0.1647  0.7492
  828MOL0     H 9282   5.534   5.382  -0.159  0.4212 -1.2989  0.2614
  828MOL0     H 9283   5.562   5.338   0.062 -0.2002 -1.7589 -0.1028
  828MOL0     H 9284   6.093   5.172   0.438 -2.4774 -0.2375 -0.5579
  828MOL0     H 9285   6.133   5.203   0.680 -0.6589  1.0144 -0.6656
  828MOL0     H 9286   6.066   5.330   1.026  1.7234 -1.0397  0.1914
  828MOL0     H 9287   6.151   5.269   0.887 -1.0789  0.9053 -2.8183
  828MOL0     H 9288   5.984   5.078   0.869 -3.8256 -4.1632  2.0647
  828MOL0     H 9289   6.085   5.077   1.011  0.2859  1.1772  0.5062
  828MOL0     H 9290   5.899   5.130   1.155 -2.4923  1.4079  0.1413
  828MOL0     H 9291   5.841   5.009   1.044  0.6587 -0.4700  0.2850
  828MOL0     H 9292   5.672   5.170   1.083 -1.5122 -0.8643 -1.9568
  828MOL0     H 9293   5.772   5.293   1.007  0.8240 -1.0771  0.7507
  828MOL0     H 9294   5.603   5.083   0.690  1.6545 -0.0745 -0.6267
  828MOL0     H 9295   5.743   5.406   0.697  0.0422  1.2998 -2.9039
  828MOL0     H 9296   5.712   5.377   0.492  1.6781  2.9321 -0.0933
  829MOL0     O 9297   9.895   8.876   0.509 -0.0735 -0.3387  0.1096
  829MOL0     C 9298   9.895   8.919   0.625 -0.5057  1.1423 -0.2937
  829MOL0     O 9299   9.807   8.892   0.721 -0.0230  0.0667 -0.3772
  829MOL0     C 9300   9.708   8.807   0.689  0.1921 -0.8407  1.0423
  829MOL0     C 9301   9.714   8.678   0.716 -0.9952  0.4427 -0.5638
  829MOL0     C 9302   9.604   8.590   0.693  0.0515 -0.3240  0.0271
  829MOL0     C 9303   9.488   8.634   0.626 -0.6079 -0.6025  0.5353
  829MOL0     O 9304   9.377   8.559   0.590 -0.0219 -0.4139  0.2530
  829MOL0     C 9305   9.402   8.426   0.606  0.8500  1.5332 -0.1818
  829MOL0     C 9306   9.286   8.339   0.550 -0.0003  0.4121  0.6169
  829MOL0     C 9307   9.145   8.356   0.618 -0.2308 -0.7350  0.4237
  829MOL0     C 9308   9.087   8.246   0.707  0.6535  0.5869  0.1379
  829MOL0     C 9309   9.154   8.260   0.846 -0.5934  0.4955 -1.1740
  829MOL0     C 9310   9.108   8.128   0.926 -0.6461 -0.3045 -0.9452
  829MOL0     C 9311   9.122   8.160   1.081  0.5704 -0.3036  0.1220
  829MOL0     C 9312   8.995   8.234   1.122 -0.1949  0.3545 -0.1911
  829MOL0     N 9313   8.879   8.148   1.154 -0.2878  0.4666  0.4772
  829MOL0     C 9314   8.750   8.163   1.103  1.2428 -0.0381 -0.2079
  829MOL0     C 9315   8.691   8.058   1.159  1.4052  0.3170  0.1701
  829MOL0     C 9316   8.542   8.025   1.138  0.6115 -1.1546 -0.0003
  829MOL0     C 9317   8.497   8.053   0.988  0.4050  0.5690 -0.0840
  829MOL0     C 9318   8.547   7.935   0.895  0.3499 -1.2695 -0.2527
  829MOL0     C 9319   8.511   7.958   0.744  0.0956  0.2576  0.1420
  829MOL0     O 9320   8.555   8.084   0.683 -0.4995 -0.9575  0.3354
  829MOL0     C 9321   8.456   8.184   0.680  0.3592  0.3140 -0.0074
  829MOL0     C 9322   8.496   8.301   0.614  0.1735  1.0237  0.5625
  829MOL0     C 9323   8.405   8.407   0.597 -0.7564  0.9028  1.1940
  829MOL0     C 9324   8.276   8.407   0.642  0.2952 -0.7826  0.0318
  829MOL0     C 9325   8.175   8.517   0.606 -0.4856 -0.3019  0.0912
  829MOL0     O 9326   8.039   8.492   0.630  0.2615  0.4698  0.3114
  829MOL0     C 9327   7.947   8.589   0.594 -0.6953  0.2343 -0.3276
  829MOL0     C 9328   7.898   8.611   0.467 -0.0301  0.6711 -1.1247
  829MOL0     C 9329   7.826   8.727   0.430 -0.3765  0.0701 -0.7379
  829MOL0     C 9330   7.801   8.826   0.526 -0.2379  0.0724  0.2859
  829MOL0     O 9331   7.733   8.944   0.511 -0.1969 -0.2042 -0.1984
  829MOL0     C 9332   7.673   8.975   0.385  0.5623  0.7518  0.3231
  829MOL0     C 9333   7.564   9.080   0.419  0.0200  0.1825  0.9076
  829MOL0     C 9334   7.487   9.103   0.290  0.5314  0.6949 -0.3478
  829MOL0     C 9335   7.402   9.227   0.299 -0.0915 -0.3760  0.1494
  829MOL0     C 9336   7.479   9.364   0.304 -0.0049 -0.7516 -1.6504
  829MOL0     C 9337   7.585   9.394   0.196 -0.1779 -0.1586  0.9093
  829MOL0     C 9338   7.668   9.520   0.225  0.7184 -0.4775 -0.1306
  829MOL0     C 9339   7.779   9.491   0.320 -0.7021  1.2024 -0.2730
  829MOL0    Cl 9340   7.873   9.653   0.328 -0.3674 -0.4884 -0.0500
  829MOL0     C 9341   7.850   8.808   0.659 -0.4606 -0.7317 -0.2320
  829MOL0     C 9342   7.921   8.690   0.691  0.4792  0.7362  0.0832
  829MOL0     O 9343   8.209   8.618   0.537 -0.3879  0.1704 -0.3721
  829MOL0     C 9344   8.234   8.285   0.697  0.3362 -0.4922  0.3858
  829MOL0     C 9345   8.318   8.177   0.718  0.1579 -0.7369  0.9897
  829MOL0     N 9346   8.771   7.988   1.242  0.1359  0.8673 -1.3343
  829MOL0     N 9347   8.885   8.051   1.246  1.1173  0.8252  0.2531
  829MOL0     C 9348   9.483   8.777   0.602  0.1790  0.1510 -0.1032
  829MOL0     C 9349   9.589   8.859   0.627 -0.2692  0.2121  0.1279
  829MOL0     C 9350  10.005   9.024   0.650  0.5563 -0.9629  0.0039
  829MOL0     C 9351   9.997   9.094   0.779  0.1700 -0.0570  0.3055
  829MOL0     C 9352  10.068   9.214   0.801  0.5665 -0.8295  0.4131
  829MOL0     C 9353  10.158   9.250   0.704 -0.4134  0.0428  0.6194
  829MOL0     O 9354  10.218   9.373   0.717 -0.6478  0.1200 -0.2863
  829MOL0     C 9355  10.223   9.431   0.846 -0.1574  0.0189 -0.4468
  829MOL0     C 9356  10.321   9.545   0.825  0.4284  0.3917  0.9929
  829MOL0     C 9357  10.242   9.662   0.764  0.1434  0.1483 -0.8094
  829MOL0     C 9358  10.333   9.779   0.763  1.1245  0.0107  0.4901
  829MOL0     C 9359  10.243   9.886   0.711  0.1150  0.5813 -0.0476
  829MOL0     C 9360  10.191   9.984   0.669  0.5985  0.1950 -0.1968
  829MOL0     C 9361  10.169   9.186   0.580 -0.2632 -1.2795  0.0342
  829MOL0     C 9362  10.096   9.072   0.559 -0.5567 -0.3438  1.0779
  829MOL0     H 9363   9.802   8.635   0.763  0.3534  2.1828 -1.4077
  829MOL0     H 9364   9.598   8.494   0.744 -3.0015 -0.0555  0.4090
  829MOL0     H 9365   9.415   8.415   0.714  1.6200 -0.4575 -0.4293
  829MOL0     H 9366   9.491   8.400   0.548  0.5988 -0.0433  0.0900
  829MOL0     H 9367   9.310   8.233   0.563 -2.0319 -0.2375 -0.5959
  829MOL0     H 9368   9.275   8.345   0.441  4.6312  1.1899 -0.0326
  829MOL0     H 9369   9.082   8.364   0.529  1.8387  0.1414 -1.0549
  829MOL0     H 9370   9.145   8.445   0.681 -0.6221  0.9279 -1.7792
  829MOL0     H 9371   8.979   8.255   0.712  0.3222 -1.8862 -0.7915
  829MOL0     H 9372   9.115   8.149   0.664  1.3545  0.8590 -0.0418
  829MOL0     H 9373   9.119   8.352   0.894 -4.0414 -0.5602 -1.3962
  829MOL0     H 9374   9.263   8.263   0.849 -0.5802  1.6718 -2.1069
  829MOL0     H 9375   9.170   8.039   0.910 -0.9018 -1.2536  2.5390
  829MOL0     H 9376   9.009   8.097   0.890  0.8844 -0.1454 -6.2265
  829MOL0     H 9377   9.124   8.066   1.137 -0.8105 -1.0381 -1.0050
  829MOL0     H 9378   9.216   8.216   1.093  2.0189 -2.6845  0.4650
  829MOL0     H 9379   8.962   8.303   1.044 -0.9893  1.1716  0.8260
  829MOL0     H 9380   9.017   8.292   1.212  0.8617 -0.5845  0.1830
  829MOL0     H 9381   8.713   8.239   1.035  0.0200 -2.6861 -2.7083
  829MOL0     H 9382   8.491   8.092   1.207  1.6320 -0.3623 -0.0009
  829MOL0     H 9383   8.517   7.920   1.153 -1.3727 -0.9176 -1.2343
  829MOL0     H 9384   8.524   8.151   0.948 -0.0768 -0.4411 -3.1642
  829MOL0     H 9385   8.387   8.050   0.992  0.3069  2.9922  1.1692
  829MOL0     H 9386   8.657   7.937   0.891  0.4087  0.0871  1.1427
  829MOL0     H 9387   8.502   7.844   0.935 -2.7620  0.2173 -0.0948
  829MOL0     H 9388   8.405   7.937   0.727  0.6758 -1.9782 -1.0243
  829MOL0     H 9389   8.557   7.876   0.689  0.2014  2.0297 -2.5991
  829MOL0     H 9390   8.586   8.312   0.554  0.7456  3.2690  1.6978
  829MOL0     H 9391   8.438   8.490   0.534 -1.1393 -1.3565 -2.2788
  829MOL0     H 9392   7.915   8.529   0.399 -5.1034 -0.8486 -0.9963
  829MOL0     H 9393   7.801   8.739   0.325  3.8746  1.6125 -1.7967
  829MOL0     H 9394   7.630   8.888   0.333 -0.7546  1.0993  0.8035
  829MOL0     H 9395   7.747   9.023   0.320  0.4297 -0.6805 -0.9442
  829MOL0     H 9396   7.619   9.168   0.455  2.9654 -1.3205  0.4347
  829MOL0     H 9397   7.491   9.056   0.496 -3.6392  2.9150 -1.3884
  829MOL0     H 9398   7.418   9.019   0.272  0.6858  0.4344  0.2525
  829MOL0     H 9399   7.558   9.121   0.209  0.5533  0.9931 -0.2624
  829MOL0     H 9400   7.349   9.229   0.203 -0.7406  2.9802  0.4362
  829MOL0     H 9401   7.334   9.223   0.385  0.1526 -0.9275  0.3184
  829MOL0     H 9402   7.525   9.368   0.403  2.1316 -2.0969 -2.5266
  829MOL0     H 9403   7.410   9.449   0.296  1.0244  0.2249 -0.5353
  829MOL0     H 9404   7.539   9.377   0.098  0.5408 -0.5882  0.6406
  829MOL0     H 9405   7.655   9.310   0.198  1.0955  0.7910 -0.7156
  829MOL0     H 9406   7.704   9.570   0.135  4.3675 -1.3428  0.7026
  829MOL0     H 9407   7.602   9.592   0.275  0.5717  0.6044 -1.7890
  829MOL0     H 9408   7.844   9.415   0.275 -0.3667  1.4526 -0.2165
  829MOL0     H 9409   7.746   9.471   0.422 -0.6083  1.1189 -0.2589
  829MOL0     H 9410   7.833   8.892   0.726 -0.8641  0.7553 -2.0866
  829MOL0     H 9411   7.964   8.687   0.791  1.2877  1.1611 -0.2457
  829MOL0     H 9412   8.136   8.269   0.742  0.5076  3.7453  2.7405
  829MOL0     H 9413   8.282   8.083   0.757  1.9176 -1.9475 -0.1353
  829MOL0     H 9414   9.398   8.817   0.547 -0.7687 -0.2117  1.0351
  829MOL0     H 9415   9.573   8.962   0.598 -1.4304 -0.0709 -0.2882
  829MOL0     H 9416   9.925   9.060   0.852  0.2193  1.7959  1.2635
  829MOL0     H 9417  10.066   9.264   0.897 -2.1198  1.1909 -0.5566
  829MOL0     H 9418  10.261   9.357   0.917 -0.4311 -0.0444 -0.3654
  829MOL0     H 9419  10.122   9.457   0.880 -0.9166 -2.8270 -0.2470
  829MOL0     H 9420  10.359   9.591   0.917 -0.3631  1.8632  0.6103
  829MOL0     H 9421  10.412   9.522   0.768  0.0841  0.3802  0.4415
  829MOL0     H 9422  10.159   9.686   0.832  1.3287  1.0357  0.3708
  829MOL0     H 9423  10.203   9.628   0.668 -1.0005  1.5808 -0.9024
  829MOL0     H 9424  10.367   9.809   0.863  0.5991 -2.9997  1.6870
  829MOL0     H 9425  10.406   9.757   0.684  1.1864  0.9663  0.2690
  829MOL0     H 9426  10.145  10.075   0.637  0.7970 -0.4122 -2.3772
  829MOL0     H 9427  10.241   9.221   0.506 -0.3971  0.9335  0.8800
  829MOL0     H 9428  10.096   9.022   0.463 -2.2604 -0.4635  1.1138
  830MOL0     O 9429   1.879   1.652   0.824  0.2880  0.1613  0.3271
  830MOL0     C 9430   1.888   1.652   0.700  0.6719  0.0247 -0.5700
  830MOL0     O 9431   1.946   1.548   0.621  0.4979  0.1942  0.6502
  830MOL0     C 9432   1.975   1.420   0.659 -0.1592  0.0040 -0.1267
  830MOL0     C 9433   2.025   1.333   0.562  0.1341  1.1425  0.2050
  830MOL0     C 9434   2.078   1.207   0.582 -0.0305 -0.1360 -1.2273
  830MOL0     C 9435   2.074   1.153   0.716 -0.2884 -0.2748  0.1392
  830MOL0     O 9436   2.119   1.027   0.743  0.2906  0.0712 -0.2271
  830MOL0     C 9437   2.027   0.921   0.696 -0.2115  0.0306 -0.2940
  830MOL0     C 9438   2.070   0.785   0.764  0.1892  0.6009  0.4988
  830MOL0     C 9439   2.162   0.789   0.885  0.5837  0.6868 -0.5443
  830MOL0     C 9440   2.075   0.846   1.005 -0.5493  0.1575 -1.1905
  830MOL0     C 9441   2.161   0.939   1.091 -0.6417 -0.2570  1.0206
  830MOL0     C 9442   2.087   0.994   1.217  0.4627  0.2893 -1.2134
  830MOL0     C 9443   2.156   1.117   1.278  0.8562 -0.2187  0.0299
  830MOL0     C 9444   2.067   1.202   1.361  0.0396  0.5223  0.1139
  830MOL0     N 9445   2.054   1.152   1.500  0.3077 -0.0608  0.8538
  830MOL0     C 9446   2.009   1.024   1.542 -0.1703 -0.6765 -0.3445
  830MOL0     C 9447   2.036   1.020   1.672  0.2868 -0.2592 -0.5816
  830MOL0     C 9448   2.018   0.904   1.766 -0.1383  0.8853 -0.5647
  830MOL0     C 9449   1.885   0.831   1.764  0.5143  0.5341  0.2532
  830MOL0     C 9450   1.896   0.699   1.850  0.4483 -0.1111 -0.3981
  830MOL0     C 9451   1.937   0.567   1.763 -0.6240 -0.5394 -0.0980
  830MOL0     O 9452   1.829   0.535   1.669  0.6620  0.2043  0.3687
  830MOL0     C 9453   1.854   0.450   1.569  0.3070 -0.2156 -0.2928
  830MOL0     C 9454   1.758   0.452   1.469  0.7244 -1.1811  0.4491
  830MOL0     C 9455   1.766   0.368   1.357  0.1978  0.4394 -0.7086
  830MOL0     C 9456   1.886   0.298   1.337  0.2905  0.3299 -1.3476
  830MOL0     C 9457   1.891   0.214   1.216 -0.3325  0.5734  0.4211
  830MOL0     O 9458   1.971   0.103   1.250  0.2444  0.6720 -0.3223
  830MOL0     C 9459   1.974  -0.001   1.160  0.8216 -0.0125 -0.0033
  830MOL0     C 9460   2.096  -0.031   1.107 -0.6350  0.5864  0.7751
  830MOL0     C 9461   2.111  -0.144   1.020 -0.0970  0.7989  0.0526
  830MOL0     C 9462   1.988  -0.228   0.985 -0.6845  0.3085  0.4530
  830MOL0     O 9463   1.976  -0.328   0.891  0.1494  0.3104 -0.4131
  830MOL0     C 9464   2.088  -0.355   0.801  0.2188 -0.1755 -0.5645
  830MOL0     C 9465   2.067  -0.461   0.695 -0.1743  0.0236  0.2280
  830MOL0     C 9466   1.926  -0.479   0.622  0.0842  0.3961 -0.2194
  830MOL0     C 9467   1.940  -0.542   0.472  0.8482 -0.4568  0.7173
  830MOL0     C 9468   1.912  -0.689   0.458  1.1514 -0.5450 -1.6129
  830MOL0     C 9469   2.038  -0.763   0.507 -0.2386  0.4917 -0.8043
  830MOL0     C 9470   2.017  -0.914   0.498 -0.2261  0.3897  0.0951
  830MOL0     C 9471   2.125  -0.993   0.575 -0.1306  0.8541  0.5398
  830MOL0    Cl 9472   2.106  -0.984   0.751 -0.2901 -0.2427  0.1358
  830MOL0     C 9473   1.873  -0.187   1.048 -0.2408  0.6016 -0.0127
  830MOL0     C 9474   1.859  -0.072   1.125  0.0526  0.5327  0.1661
  830MOL0     O 9475   1.834   0.243   1.109 -0.3439  0.0191  0.2344
  830MOL0     C 9476   1.981   0.293   1.441  0.3097 -0.3273 -0.2750
  830MOL0     C 9477   1.965   0.369   1.555  0.1925  0.8733 -0.5540
  830MOL0     N 9478   2.088   1.141   1.706 -0.6800  0.0596 -0.1301
  830MOL0     N 9479   2.101   1.223   1.609  0.1623 -0.2536 -1.2117
  830MOL0     C 9480   2.030   1.236   0.823  0.6476  0.4560  0.6361
  830MOL0     C 9481   1.977   1.361   0.790  0.0275  0.2927  0.0923
  830MOL0     C 9482   1.843   1.776   0.627 -0.0281 -0.2086  1.2538
  830MOL0     C 9483   1.820   1.777   0.490 -0.6250 -0.4600  1.1899
  830MOL0     C 9484   1.772   1.894   0.417 -0.3646  0.6715 -0.8152
  830MOL0     C 9485   1.749   2.015   0.491 -0.3429 -0.6882 -0.5873
  830MOL0     O 9486   1.688   2.130   0.436 -0.5243 -0.1752  0.6708
  830MOL0     C 9487   1.688   2.137   0.297 -0.2405 -0.8378 -0.4134
  830MOL0     C 9488   1.663   2.289   0.273 -0.3313  0.1655  0.1381
  830MOL0     C 9489   1.522   2.335   0.324  0.4083  1.1327 -0.7015
  830MOL0     C 9490   1.477   2.459   0.250  0.6386  0.2652  0.0442
  830MOL0     C 9491   1.573   2.574   0.247  0.7156 -0.5613 -1.3632
  830MOL0     C 9492   1.659   2.664   0.259 -0.1151 -0.8915 -0.0627
  830MOL0     C 9493   1.763   2.006   0.632 -0.0514  0.0311 -0.0374
  830MOL0     C 9494   1.803   1.893   0.692  0.7122  1.2968 -0.2565
  830MOL0     H 9495   2.017   1.368   0.459  0.4101  2.3788  0.5884
  830MOL0     H 9496   2.122   1.145   0.505 -0.7043 -1.4938 -0.5536
  830MOL0     H 9497   2.046   0.916   0.588  1.2034  3.4145 -0.3468
  830MOL0     H 9498   1.926   0.946   0.730  0.5701 -0.2274  2.4614
  830MOL0     H 9499   2.129   0.727   0.692 -1.5799 -1.9700  0.9763
  830MOL0     H 9500   1.981   0.726   0.789 -0.3626  1.4292  0.5125
  830MOL0     H 9501   2.245   0.853   0.854 -0.1488 -0.2086 -5.0280
  830MOL0     H 9502   2.213   0.693   0.899  0.2476  0.2827 -1.9187
  830MOL0     H 9503   1.989   0.896   0.961 -0.1347  2.2075  0.2014
  830MOL0     H 9504   2.042   0.765   1.070 -0.7577 -0.0036 -1.4927
  830MOL0     H 9505   2.200   1.023   1.033  0.9927 -2.5470 -1.4117
  830MOL0     H 9506   2.245   0.885   1.136 -0.2419 -0.2843  0.2569
  830MOL0     H 9507   2.080   0.920   1.298 -0.2448  2.8792  1.2583
  830MOL0     H 9508   1.985   1.029   1.195 -1.3039 -2.0981  2.2190
  830MOL0     H 9509   2.248   1.083   1.326  0.5239 -3.2918 -1.3284
  830MOL0     H 9510   2.196   1.183   1.200  2.5023  0.4292  1.3429
  830MOL0     H 9511   1.968   1.220   1.318  0.3372  0.7669 -0.4928
  830MOL0     H 9512   2.115   1.299   1.377  2.4669 -0.0521 -2.7134
  830MOL0     H 9513   1.979   0.948   1.471  1.7826  1.5098 -3.8013
  830MOL0     H 9514   2.030   0.949   1.865 -1.3499  3.9037 -1.6504
  830MOL0     H 9515   2.103   0.840   1.742  0.1115  0.1439  2.0689
  830MOL0     H 9516   1.838   0.825   1.665  0.5926 -1.0602  0.2903
  830MOL0     H 9517   1.818   0.901   1.815  1.2670  0.3414  1.5241
  830MOL0     H 9518   1.961   0.708   1.937 -0.7505 -1.0697  0.6387
  830MOL0     H 9519   1.802   0.683   1.905 -0.2729  0.3983 -1.4551
  830MOL0     H 9520   1.957   0.481   1.827  4.3469  0.1637 -0.3169
  830MOL0     H 9521   2.032   0.588   1.712 -1.5230  2.9641 -0.6561
  830MOL0     H 9522   1.673   0.519   1.480  1.0564 -0.0245 -2.9992
  830MOL0     H 9523   1.687   0.365   1.282 -0.0797 -0.1033 -0.3937
  830MOL0     H 9524   2.182   0.031   1.130  0.1651 -0.9229  1.9983
  830MOL0     H 9525   2.205  -0.187   0.986 -0.5347 -0.4635  0.3817
  830MOL0     H 9526   2.169  -0.395   0.863 -0.2325 -0.4925 -0.1625
  830MOL0     H 9527   2.130  -0.266   0.753  1.6983 -1.1757 -1.2068
  830MOL0     H 9528   2.102  -0.556   0.736 -0.1358 -0.1430 -0.1886
  830MOL0     H 9529   2.150  -0.435   0.628  0.0987 -3.2313 -0.8344
  830MOL0     H 9530   1.872  -0.385   0.610  2.0454  1.6229  0.1452
  830MOL0     H 9531   1.862  -0.552   0.672 -1.9504  1.6612 -0.8784
  830MOL0     H 9532   1.876  -0.480   0.407  2.6702  1.2483  0.4450
  830MOL0     H 9533   2.041  -0.518   0.438  0.8368 -1.5649 -0.1368
  830MOL0     H 9534   1.903  -0.716   0.352  1.6778 -1.0579 -1.5331
  830MOL0     H 9535   1.824  -0.709   0.519  1.5598  2.5257  0.2078
  830MOL0     H 9536   2.064  -0.739   0.611  1.7733  0.7870 -1.3461
  830MOL0     H 9537   2.127  -0.736   0.451  0.6915 -1.0193 -0.1112
  830MOL0     H 9538   1.921  -0.942   0.545  0.2125  1.3603  1.6551
  830MOL0     H 9539   2.008  -0.939   0.392 -4.4136 -0.1345  0.3923
  830MOL0     H 9540   2.223  -0.953   0.547 -0.7088  1.6447 -0.4185
  830MOL0     H 9541   2.125  -1.097   0.542  0.3605  0.6181  1.2652
  830MOL0     H 9542   1.780  -0.240   1.033  0.5189 -1.3389  1.6740
  830MOL0     H 9543   1.769  -0.051   1.180 -1.5902  1.8709 -2.7923
  830MOL0     H 9544   2.062   0.223   1.423  1.6508  1.3396 -1.0478
  830MOL0     H 9545   2.034   0.363   1.638  3.0045 -1.9954 -2.8714
  830MOL0     H 9546   2.049   1.195   0.921  0.0613  0.4869  0.7705
  830MOL0     H 9547   1.964   1.427   0.875 -2.7445 -1.1799  0.9597
  830MOL0     H 9548   1.843   1.690   0.430 -2.9492  0.8107 -1.7897
  830MOL0     H 9549   1.755   1.891   0.310 -1.1757  3.6662 -0.8629
  830MOL0     H 9550   1.608   2.072   0.261 -1.2476  0.2071 -0.1268
  830MOL0     H 9551   1.783   2.116   0.247  0.6630 -0.7427  1.2041
  830MOL0     H 9552   1.741   2.347   0.323 -1.0751  0.4920  0.9400
  830MOL0     H 9553   1.677   2.320   0.169 -0.6231  2.2968  0.6940
  830MOL0     H 9554   1.515   2.354   0.432 -1.7680 -0.1493 -0.5370
  830MOL0     H 9555   1.445   2.260   0.303 -0.4064  1.9602 -0.7140
  830MOL0     H 9556   1.453   2.432   0.147  0.5381  1.7511 -0.3460
  830MOL0     H 9557   1.385   2.502   0.290  1.6448 -0.9011  4.0809
  830MOL0     H 9558   1.733   2.742   0.258 -1.2847  0.2432 -0.0084
  830MOL0     H 9559   1.734   2.096   0.685 -1.5178 -2.1733  3.2038
  830MOL0     H 9560   1.817   1.888   0.800  0.1512 -0.3138 -0.2357
  831MOL0     O 9561   9.530   6.790   6.230  0.8973  0.1952 -1.2586
  831MOL0     C 9562   9.459   6.843   6.319 -0.4723 -0.1016 -0.4341
  831MOL0     O 9563   9.328   6.843   6.324  0.1294  0.7116  0.0461
  831MOL0     C 9564   9.263   6.788   6.214  0.0836  0.0456 -0.7991
  831MOL0     C 9565   9.240   6.652   6.216 -0.2126  0.3945 -0.0697
  831MOL0     C 9566   9.154   6.607   6.120  0.3860  0.7860 -0.1701
  831MOL0     C 9567   9.109   6.687   6.013 -0.3214 -0.5139 -0.0299
  831MOL0     O 9568   9.030   6.649   5.913  0.2047  0.1970  0.2312
  831MOL0     C 9569   8.917   6.555   5.959 -0.1222 -0.2240  1.2115
  831MOL0     C 9570   8.805   6.576   5.858 -0.0904  0.3404  0.5949
  831MOL0     C 9571   8.671   6.520   5.905 -0.3338 -0.3003 -0.3875
  831MOL0     C 9572   8.636   6.386   5.848 -0.4119  0.8805  0.0780
  831MOL0     C 9573   8.494   6.333   5.873  0.0333 -0.2572 -0.0490
  831MOL0     C 9574   8.483   6.180   5.877 -0.7108 -0.7642  0.9353
  831MOL0     C 9575   8.338   6.133   5.888  1.1298  0.5612 -0.4090
  831MOL0     C 9576   8.255   6.192   6.001 -0.4165 -0.4843  0.1111
  831MOL0     N 9577   8.123   6.135   6.037  0.5240  0.2526  0.6838
  831MOL0     C 9578   8.053   6.169   6.151  0.2666  0.2450  0.4916
  831MOL0     C 9579   7.948   6.088   6.140 -0.0257 -0.8138  0.8574
  831MOL0     C 9580   7.848   6.049   6.250 -1.0030 -0.1291  0.5295
  831MOL0     C 9581   7.846   5.902   6.271 -0.7872  1.1909 -0.5196
  831MOL0     C 9582   7.737   5.836   6.190 -0.2272 -1.1235 -0.3744
  831MOL0     C 9583   7.742   5.688   6.215 -0.3402  0.9356 -0.0895
  831MOL0     O 9584   7.653   5.630   6.121 -0.4209  0.3718 -0.4923
  831MOL0     C 9585   7.607   5.507   6.146  0.7320 -0.2706  0.0448
  831MOL0     C 9586   7.496   5.471   6.068  0.1005 -0.0939  0.0205
  831MOL0     C 9587   7.442   5.348   6.070  0.1805 -0.8935  1.0798
  831MOL0     C 9588   7.490   5.255   6.164 -0.3931 -0.0958 -0.7188
  831MOL0     C 9589   7.438   5.114   6.166 -0.6559  0.4968  0.5654
  831MOL0     O 9590   7.497   5.022   6.250 -0.8124  0.1096 -0.0225
  831MOL0     C 9591   7.451   4.893   6.256 -0.0662 -0.6546  0.1441
  831MOL0     C 9592   7.459   4.838   6.384 -0.5952 -0.5587 -0.2682
  831MOL0     C 9593   7.411   4.711   6.409  0.7546  0.8834 -0.2628
  831MOL0     C 9594   7.352   4.630   6.309 -0.2187 -0.3899 -0.3504
  831MOL0     O 9595   7.303   4.505   6.343 -0.5007  0.5586  0.4967
  831MOL0     C 9596   7.185   4.485   6.429  0.1202  0.1043  0.4734
  831MOL0     C 9597   7.136   4.340   6.406 -0.5259 -0.4134  0.2268
  831MOL0     C 9598   7.251   4.232   6.410 -0.4216 -0.7437 -0.4304
  831MOL0     C 9599   7.330   4.218   6.544  0.2542 -0.2387  0.5970
  831MOL0     C 9600   7.234   4.180   6.657  0.2512  0.8662  0.0898
  831MOL0     C 9601   7.307   4.116   6.781  0.2258  0.0031  0.4621
  831MOL0     C 9602   7.218   4.111   6.907  1.1219  0.4925  0.5067
  831MOL0     C 9603   7.135   3.981   6.914 -0.2104  1.1120  0.1627
  831MOL0    Cl 9604   7.027   3.991   7.054 -0.0339  0.0832  0.2256
  831MOL0     C 9605   7.343   4.688   6.189 -0.4846  0.2994  0.7899
  831MOL0     C 9606   7.399   4.811   6.151 -0.1053 -0.4236  0.3615
  831MOL0     O 9607   7.345   5.086   6.089 -0.3208  0.0764  0.0710
  831MOL0     C 9608   7.604   5.284   6.239 -0.0799  0.7742  0.2782
  831MOL0     C 9609   7.661   5.415   6.234  1.0959  0.1914  0.6779
  831MOL0     N 9610   7.948   6.023   6.019 -0.5085  0.0009  0.6955
  831MOL0     N 9611   8.056   6.057   5.956 -0.0054  0.7302  0.9359
  831MOL0     C 9612   9.152   6.820   6.003  0.0730  0.4119  0.1236
  831MOL0     C 9613   9.233   6.864   6.105 -0.3640 -0.5033 -0.6518
  831MOL0     C 9614   9.540   6.908   6.429  0.2701 -0.4735 -0.4791
  831MOL0     C 9615   9.478   7.002   6.525  0.2126  0.1479 -0.1892
  831MOL0     C 9616   9.541   7.029   6.644 -0.4158 -0.7086  0.0206
  831MOL0     C 9617   9.664   6.962   6.677 -1.5281 -0.8347 -1.3942
  831MOL0     O 9618   9.735   6.980   6.795 -0.2765  0.0826 -0.9392
  831MOL0     C 9619   9.706   7.079   6.894 -0.0601  0.7606 -0.3575
  831MOL0     C 9620   9.789   7.052   7.022 -0.2207 -0.3654 -0.3541
  831MOL0     C 9621   9.729   6.944   7.113 -0.7310 -0.3407  0.0177
  831MOL0     C 9622   9.772   6.964   7.251  0.2784  0.6658 -0.1963
  831MOL0     C 9623   9.725   7.079   7.323  0.4700  0.0719  0.1181
  831MOL0     C 9624   9.686   7.161   7.400  1.0054  0.5069 -0.2476
  831MOL0     C 9625   9.735   6.880   6.582  0.5381 -0.9389 -0.8549
  831MOL0     C 9626   9.674   6.876   6.461 -0.0818 -0.4340  0.5305
  831MOL0     H 9627   9.270   6.585   6.296 -4.0332 -1.5767 -0.0525
  831MOL0     H 9628   9.116   6.506   6.118 -0.6609  1.0989 -3.3058
  831MOL0     H 9629   8.882   6.602   6.051 -0.8950  5.3752 -1.5265
  831MOL0     H 9630   8.953   6.453   5.979 -0.0548 -1.0560 -2.4382
  831MOL0     H 9631   8.829   6.525   5.764  0.2103  1.0924  0.2547
  831MOL0     H 9632   8.799   6.684   5.841  1.1270  0.5224  1.2639
  831MOL0     H 9633   8.600   6.597   5.874 -0.0034 -0.6684 -2.1643
  831MOL0     H 9634   8.673   6.510   6.014 -3.7427  0.3777 -0.1666
  831MOL0     H 9635   8.671   6.380   5.744  5.1489 -1.1125  1.6791
  831MOL0     H 9636   8.712   6.330   5.904 -0.2680 -0.8272 -1.7093
  831MOL0     H 9637   8.432   6.376   5.794  3.3663  3.1838 -1.1004
  831MOL0     H 9638   8.468   6.363   5.974  2.0076 -0.2768  0.5021
  831MOL0     H 9639   8.543   6.134   5.955  1.2785  3.6513  2.3504
  831MOL0     H 9640   8.518   6.139   5.781  0.7936  0.5960  0.8584
  831MOL0     H 9641   8.294   6.139   5.788  2.1304 -0.8019 -0.9691
  831MOL0     H 9642   8.341   6.024   5.898 -2.8091  0.2573 -1.0515
  831MOL0     H 9643   8.226   6.294   5.974 -2.7958 -1.1927 -0.1992
  831MOL0     H 9644   8.324   6.206   6.085  3.5009  1.2096 -3.0582
  831MOL0     H 9645   8.071   6.235   6.234 -1.7675  0.3828  0.8550
  831MOL0     H 9646   7.755   6.102   6.227 -1.4851  0.2172  3.0433
  831MOL0     H 9647   7.878   6.102   6.340  2.4679 -0.5398 -0.2456
  831MOL0     H 9648   7.833   5.889   6.378  0.2271 -0.7116 -0.5739
  831MOL0     H 9649   7.943   5.865   6.236 -0.2958  0.5836  1.4021
  831MOL0     H 9650   7.653   5.891   6.232  0.0951 -0.9074  0.0043
  831MOL0     H 9651   7.751   5.863   6.085  1.6523  0.0274  0.1252
  831MOL0     H 9652   7.715   5.666   6.318  0.7608 -0.3653 -0.0470
  831MOL0     H 9653   7.846   5.653   6.214 -0.8579 -0.8124  1.7301
  831MOL0     H 9654   7.460   5.546   5.998 -1.2390 -0.4806  0.2757
  831MOL0     H 9655   7.356   5.323   6.010 -1.0720  1.8581  1.5760
  831MOL0     H 9656   7.501   4.895   6.466 -0.6818 -1.8396  0.7020
  831MOL0     H 9657   7.403   4.690   6.515  1.0330  4.3238  0.5913
  831MOL0     H 9658   7.113   4.560   6.394  3.4186  2.4734 -1.8609
  831MOL0     H 9659   7.208   4.507   6.533  2.9507 -0.2530  0.0024
  831MOL0     H 9660   7.087   4.317   6.312  2.8191 -1.9272 -1.3054
  831MOL0     H 9661   7.059   4.328   6.483 -1.2403  1.0455 -0.2325
  831MOL0     H 9662   7.321   4.251   6.328 -0.2659 -0.0577 -0.1474
  831MOL0     H 9663   7.212   4.135   6.377  0.0907  0.3510 -5.0506
  831MOL0     H 9664   7.406   4.141   6.535 -2.8765 -3.5069 -0.2221
  831MOL0     H 9665   7.376   4.316   6.562 -1.5380  0.5110  1.4136
  831MOL0     H 9666   7.169   4.100   6.620 -2.8552  1.8785  2.9098
  831MOL0     H 9667   7.177   4.264   6.697  1.2889 -0.0705  3.9321
  831MOL0     H 9668   7.387   4.189   6.801 -1.5139  2.0673  0.3007
  831MOL0     H 9669   7.357   4.022   6.754  1.8003  0.6062  1.1248
  831MOL0     H 9670   7.279   4.121   6.997 -1.6991 -0.0703  2.6298
  831MOL0     H 9671   7.150   4.196   6.907  0.2004 -0.0895 -3.1075
  831MOL0     H 9672   7.204   3.896   6.925 -3.5494 -2.1540 -1.9168
  831MOL0     H 9673   7.083   3.978   6.818  1.0412  2.1760 -0.5788
  831MOL0     H 9674   7.297   4.644   6.101  0.7984 -0.9803  0.7285
  831MOL0     H 9675   7.396   4.828   6.044 -3.8976 -1.1729  0.1809
  831MOL0     H 9676   7.656   5.199   6.282 -0.5774 -0.0757 -0.7817
  831MOL0     H 9677   7.753   5.447   6.282  2.1802 -0.4804 -0.8624
  831MOL0     H 9678   9.138   6.901   5.933  0.8855  0.0223 -0.4965
  831MOL0     H 9679   9.261   6.968   6.119  1.1732 -0.9969  0.1692
  831MOL0     H 9680   9.373   7.027   6.514 -0.1318 -0.1208  1.9213
  831MOL0     H 9681   9.500   7.106   6.708  2.2774  1.0465 -0.2249
  831MOL0     H 9682   9.598   7.081   6.916 -0.2094 -0.5955 -0.8518
  831MOL0     H 9683   9.740   7.177   6.861  2.3060  0.2686  0.4913
  831MOL0     H 9684   9.895   7.028   7.006  1.0334  3.5788  0.9177
  831MOL0     H 9685   9.793   7.148   7.074 -2.4733  2.1997 -4.3787
  831MOL0     H 9686   9.767   6.846   7.083 -3.7505 -1.6184  0.0602
  831MOL0     H 9687   9.620   6.938   7.115 -0.8273  0.8028 -0.7980
  831MOL0     H 9688   9.743   6.871   7.301 -3.7658 -0.2312 -3.5999
  831MOL0     H 9689   9.880   6.968   7.268  0.7198 -2.0658 -1.7500
  831MOL0     H 9690   9.665   7.250   7.455 -0.3317 -1.2118  2.2263
  831MOL0     H 9691   9.821   6.819   6.607  2.4275  1.8618  0.0262
  831MOL0     H 9692   9.720   6.801   6.397  1.0755 -3.2844  4.3419
  832MOL0     O 9693  11.035   9.667   9.188 -0.1864  0.0246 -0.1345
  832MOL0     C 9694  10.978   9.581   9.120  0.4954  0.4089  0.7425
  832MOL0     O 9695  10.847   9.536   9.127 -0.3456 -0.1089  0.8828
  832MOL0     C 9696  10.747   9.586   9.208 -0.5480 -0.1308  0.3305
  832MOL0     C 9697  10.745   9.701   9.281 -0.6180 -0.8684 -0.4997
  832MOL0     C 9698  10.621   9.733   9.344 -0.5282  0.1390  0.3587
  832MOL0     C 9699  10.504   9.660   9.338 -0.6957 -0.1142  0.1249
  832MOL0     O 9700  10.384   9.698   9.387  0.7362  0.8336 -0.3500
  832MOL0     C 9701  10.366   9.825   9.466 -0.6993  0.2471  0.2259
  832MOL0     C 9702  10.238   9.857   9.522 -0.0627  0.4410 -0.0660
  832MOL0     C 9703  10.206   9.770   9.644  0.0826 -0.1234 -0.4633
  832MOL0     C 9704  10.074   9.817   9.706 -0.4893  0.6405  0.1079
  832MOL0     C 9705  10.011   9.712   9.792  0.1474 -0.4168  0.5585
  832MOL0     C 9706   9.883   9.761   9.861  0.3800 -0.3186  0.3808
  832MOL0     C 9707   9.901   9.860   9.973  0.2651 -0.1574 -0.2287
  832MOL0     C 9708   9.942   9.795  10.103  0.3585 -0.0319 -0.0585
  832MOL0     N 9709   9.824   9.755  10.176  0.7216  0.0181 -0.0566
  832MOL0     C 9710   9.752   9.815  10.275  0.5926  0.0714  0.1642
  832MOL0     C 9711   9.643   9.736  10.309 -0.4875 -0.2718 -0.1262
  832MOL0     C 9712   9.532   9.763  10.413 -0.2770 -0.2916 -0.4177
  832MOL0     C 9713   9.565   9.700  10.540 -0.1265  0.3567  0.5589
  832MOL0     C 9714   9.702   9.741  10.588  0.2460 -0.0040 -0.3752
  832MOL0     C 9715   9.713   9.694  10.737  0.7620  0.0839  0.6674
  832MOL0     O 9716   9.653   9.566  10.772  0.0977  0.4521  0.7137
  832MOL0     C 9717   9.648   9.531  10.908 -0.0904 -0.3139  0.3539
  832MOL0     C 9718   9.707   9.607  11.011 -0.4734  0.5000 -0.3575
  832MOL0     C 9719   9.707   9.552  11.142 -0.5943  0.2908  0.3078
  832MOL0     C 9720   9.649   9.431  11.174  0.7161  0.1506 -0.4450
  832MOL0     C 9721   9.627   9.388  11.317 -0.7054  0.3578 -0.5284
  832MOL0     O 9722   9.618   9.491  11.409  0.4583 -0.0408  0.2984
  832MOL0     C 9723   9.572   9.477  11.537 -1.0063  0.2142  0.8537
  832MOL0     C 9724   9.557   9.602  11.592 -0.3220 -0.1560  0.5767
  832MOL0     C 9725   9.495   9.619  11.715  0.5090  0.1150 -0.2048
  832MOL0     C 9726   9.449   9.508  11.784 -0.1602  0.4330  0.3916
  832MOL0     O 9727   9.398   9.528  11.909 -0.3391  0.6138  0.2947
  832MOL0     C 9728   9.342   9.656  11.946  0.4265  0.6444 -0.2870
  832MOL0     C 9729   9.250   9.629  12.071 -0.4009  0.1659 -0.1391
  832MOL0     C 9730   9.180   9.768  12.118  0.9996 -0.1351  0.3559
  832MOL0     C 9731   9.048   9.734  12.201 -0.1491 -0.4785  0.6991
  832MOL0     C 9732   9.008   9.872  12.270 -0.0410 -0.2647  0.7119
  832MOL0     C 9733   8.883   9.851  12.357  0.2197  0.0500 -0.9164
  832MOL0     C 9734   8.905   9.765  12.488  0.3021 -0.6902  1.2814
  832MOL0     C 9735   8.785   9.777  12.578  0.0091 -0.0390 -0.2412
  832MOL0    Cl 9736   8.631   9.680  12.535  0.6916  0.3150  0.4008
  832MOL0     C 9737   9.460   9.383  11.729 -0.5527  0.1338  0.1777
  832MOL0     C 9738   9.529   9.366  11.609  0.2212  0.2959 -0.3676
  832MOL0     O 9739   9.622   9.266  11.342  0.4575 -0.6166 -0.5364
  832MOL0     C 9740   9.593   9.354  11.066 -0.2705  0.9008  1.2634
  832MOL0     C 9741   9.593   9.411  10.940  0.3200 -0.5672 -0.5417
  832MOL0     N 9742   9.646   9.640  10.213  0.4244  0.4847  0.4303
  832MOL0     N 9743   9.742   9.661  10.125  0.4630  0.4829 -0.2385
  832MOL0     C 9744  10.520   9.534   9.267 -0.2795 -0.2674  0.0340
  832MOL0     C 9745  10.643   9.501   9.210 -0.0361  0.7333  0.2435
  832MOL0     C 9746  11.066   9.492   9.040 -0.0968  0.1611 -0.6518
  832MOL0     C 9747  11.008   9.378   8.981  0.3045 -0.1953 -0.1375
  832MOL0     C 9748  11.086   9.294   8.903 -0.2064 -0.4308 -1.0455
  832MOL0     C 9749  11.222   9.310   8.887 -1.0704  0.6236  1.5510
  832MOL0     O 9750  11.318   9.235   8.819 -0.2900  0.0884  0.7108
  832MOL0     C 9751  11.255   9.115   8.752  0.3630  0.5912 -1.0567
  832MOL0     C 9752  11.359   9.025   8.677 -0.4988 -1.1089  0.1640
  832MOL0     C 9753  11.302   8.923   8.570  0.3055  0.3448 -0.4361
  832MOL0     C 9754  11.251   8.796   8.643  0.7122 -0.3754 -0.7199
  832MOL0     C 9755  11.184   8.700   8.545 -0.5425  1.1130 -0.7120
  832MOL0     C 9756  11.132   8.632   8.455  0.1503 -1.3281  0.6641
  832MOL0     C 9757  11.278   9.421   8.951  0.9931 -0.2936  0.5012
  832MOL0     C 9758  11.200   9.523   9.017  0.1381 -0.6890  0.9734
  832MOL0     H 9759  10.831   9.766   9.294  0.2407 -2.0963  0.1135
  832MOL0     H 9760  10.625   9.815   9.415 -2.6169  1.9462 -1.4423
  832MOL0     H 9761  10.382   9.900   9.387  1.0377  0.7137  0.9697
  832MOL0     H 9762  10.451   9.821   9.535  1.0324 -1.5546 -1.8656
  832MOL0     H 9763  10.155   9.849   9.452  0.6366  3.3369 -1.3563
  832MOL0     H 9764  10.252   9.960   9.555 -2.5588  0.0044  2.8175
  832MOL0     H 9765  10.288   9.771   9.717 -0.9293  0.8886  0.7054
  832MOL0     H 9766  10.196   9.668   9.607 -1.8338  0.0720 -0.5725
  832MOL0     H 9767  10.093   9.907   9.767 -0.3895 -0.6158  2.0149
  832MOL0     H 9768  10.002   9.840   9.627 -2.2139  1.5013  1.8230
  832MOL0     H 9769  10.083   9.702   9.873 -0.7253  0.9932  1.5529
  832MOL0     H 9770   9.992   9.620   9.734 -1.0282  0.5855 -0.7229
  832MOL0     H 9771   9.830   9.672   9.894 -0.3893 -0.7947 -1.9832
  832MOL0     H 9772   9.831   9.802   9.774  0.7737 -0.4822  0.0690
  832MOL0     H 9773   9.968   9.940   9.941 -0.1835  0.4995  0.4422
  832MOL0     H 9774   9.813   9.923   9.995  0.5451  0.2738 -0.3269
  832MOL0     H 9775   9.992   9.870  10.165 -3.3575  1.9436  0.8624
  832MOL0     H 9776  10.011   9.711  10.097  2.1838  1.2754  1.4460
  832MOL0     H 9777   9.775   9.910  10.322 -1.5400  0.1541  1.1736
  832MOL0     H 9778   9.435   9.718  10.393  0.3066 -2.2276  0.8592
  832MOL0     H 9779   9.523   9.868  10.445  1.7153 -0.4493  0.8432
  832MOL0     H 9780   9.563   9.593  10.517 -0.1518  1.0479 -3.5363
  832MOL0     H 9781   9.483   9.723  10.608 -0.9613  0.6941 -0.5296
  832MOL0     H 9782   9.776   9.691  10.525  0.9381  1.4742 -0.7757
  832MOL0     H 9783   9.717   9.850  10.588  1.9576 -0.2111 -1.0478
  832MOL0     H 9784   9.655   9.765  10.796  2.1396  0.9452  1.0076
  832MOL0     H 9785   9.817   9.687  10.770  1.4886  0.8678 -1.3471
  832MOL0     H 9786   9.758   9.702  10.996  2.0726 -0.4786  1.4789
  832MOL0     H 9787   9.757   9.597  11.227 -2.0168 -1.2311  2.0376
  832MOL0     H 9788   9.585   9.693  11.540  2.9404 -1.3699 -0.0532
  832MOL0     H 9789   9.480   9.716  11.762  2.1212 -0.5285  1.8003
  832MOL0     H 9790   9.269   9.698  11.876  0.4186 -0.9270 -1.2476
  832MOL0     H 9791   9.411   9.737  11.971 -1.2830  1.1227  3.7406
  832MOL0     H 9792   9.307   9.607  12.162  0.2813 -0.7934 -0.7756
  832MOL0     H 9793   9.176   9.552  12.048  0.3718 -0.4625 -0.5963
  832MOL0     H 9794   9.158   9.834  12.034  0.4590 -0.3666  0.3126
  832MOL0     H 9795   9.249   9.823  12.183 -1.0435  1.4215  1.3299
  832MOL0     H 9796   8.963   9.701  12.141 -0.7496 -1.2264  1.9241
  832MOL0     H 9797   9.069   9.651  12.269  3.5040 -2.2674 -2.2354
  832MOL0     H 9798   8.986   9.949  12.195 -1.3374 -1.7085 -0.4393
  832MOL0     H 9799   9.087   9.910  12.335 -0.7050 -2.5236  2.9788
  832MOL0     H 9800   8.818   9.797  12.287  0.5726  0.6489 -1.7359
  832MOL0     H 9801   8.826   9.942  12.381 -0.5794 -1.0276  1.5597
  832MOL0     H 9802   8.936   9.664  12.463 -0.5221 -0.3503 -1.5075
  832MOL0     H 9803   8.986   9.814  12.541  1.3839 -1.1569  0.1149
  832MOL0     H 9804   8.754   9.880  12.598  0.5097 -0.1433  1.2556
  832MOL0     H 9805   8.820   9.737  12.674  0.7554  3.2989  1.0510
  832MOL0     H 9806   9.415   9.297  11.777  0.3849 -0.3674  0.1680
  832MOL0     H 9807   9.542   9.263  11.580  2.7570  0.1362  1.0358
  832MOL0     H 9808   9.561   9.251  11.082  1.8377  0.1484  0.8805
  832MOL0     H 9809   9.537   9.356  10.865 -0.7549  0.4230 -0.5024
  832MOL0     H 9810  10.427   9.478   9.261 -0.4901  0.1233 -0.4190
  832MOL0     H 9811  10.644   9.412   9.149  3.0863  1.2587 -0.6614
  832MOL0     H 9812  10.906   9.341   8.981  1.1630 -2.9216 -1.5945
  832MOL0     H 9813  11.028   9.212   8.863  0.0489 -1.5584  0.8009
  832MOL0     H 9814  11.181   9.156   8.682 -3.0122 -0.8621  1.3536
  832MOL0     H 9815  11.185   9.068   8.821 -0.1590 -0.3453 -2.1797
  832MOL0     H 9816  11.428   9.091   8.624 -0.6298  0.4182  1.7938
  832MOL0     H 9817  11.420   8.978   8.755  1.1718  1.8126  0.7930
  832MOL0     H 9818  11.389   8.907   8.506  1.6237  0.0519  1.3451
  832MOL0     H 9819  11.220   8.967   8.513 -0.8788  0.3196  1.1555
  832MOL0     H 9820  11.324   8.746   8.707 -2.1953 -2.9909  0.8414
  832MOL0     H 9821  11.167   8.827   8.707  0.3329 -0.1401 -1.3207
  832MOL0     H 9822  11.091   8.570   8.377  0.3799 -0.8513  0.1639
  832MOL0     H 9823  11.381   9.441   8.921  1.7727 -2.8288  1.1804
  832MOL0     H 9824  11.248   9.607   9.066 -1.4254 -0.7308  2.6569
  833MOL0     O 9825   9.217   3.728   0.121  0.2314 -0.0491 -0.5735
  833MOL0     C 9826   9.164   3.836   0.105 -0.8584 -0.4238 -0.5149
  833MOL0     O 9827   9.036   3.875   0.139  0.7067  1.2210  0.4195
  833MOL0     C 9828   8.945   3.773   0.168 -0.3766 -0.2598 -0.0400
  833MOL0     C 9829   8.931   3.652   0.092  0.5646  0.0057 -0.4770
  833MOL0     C 9830   8.866   3.540   0.134  0.3922 -0.1235 -0.4120
  833MOL0     C 9831   8.811   3.548   0.268 -0.5526  1.5425  0.0271
  833MOL0     O 9832   8.737   3.454   0.332 -0.3412 -0.3088 -0.7264
  833MOL0     C 9833   8.676   3.350   0.257  0.4554 -0.2825 -0.8683
  833MOL0     C 9834   8.550   3.302   0.333  0.2673 -0.2447 -0.8110
  833MOL0     C 9835   8.433   3.405   0.338 -0.4489 -0.3474  0.5815
  833MOL0     C 9836   8.469   3.557   0.365 -0.1886  0.0649  1.4794
  833MOL0     C 9837   8.333   3.629   0.356 -0.1299 -0.4824  0.2083
  833MOL0     C 9838   8.300   3.706   0.491 -0.1148  0.5258 -0.4764
  833MOL0     C 9839   8.162   3.780   0.495  0.7968 -0.7574  0.5823
  833MOL0     C 9840   8.151   3.922   0.426 -1.3515 -1.4480  0.0409
  833MOL0     N 9841   8.153   3.921   0.281 -0.5926 -0.9082 -0.2287
  833MOL0     C 9842   8.181   4.029   0.203 -1.0456  0.3814 -0.1707
  833MOL0     C 9843   8.153   3.985   0.074 -0.1309 -0.1835 -0.2851
  833MOL0     C 9844   8.152   4.082  -0.048 -0.9449  1.0474 -0.8454
  833MOL0     C 9845   8.004   4.098  -0.093 -0.0210  0.0466  0.7373
  833MOL0     C 9846   7.984   4.168  -0.229 -0.1753 -0.2594  0.7437
  833MOL0     C 9847   7.954   4.063  -0.340 -0.2574  0.7114 -0.8002
  833MOL0     O 9848   8.060   3.964  -0.362 -0.3381 -0.2417 -0.9728
  833MOL0     C 9849   8.034   3.860  -0.451 -0.4259  0.0486 -0.4812
  833MOL0     C 9850   8.137   3.772  -0.476 -0.0336  0.3129  0.6431
  833MOL0     C 9851   8.115   3.662  -0.563 -0.8091  0.2255 -0.3281
  833MOL0     C 9852   7.992   3.629  -0.623 -0.0531 -0.5759  0.2242
  833MOL0     C 9853   7.967   3.524  -0.710  0.3827  0.1930 -1.0583
  833MOL0     O 9854   7.841   3.472  -0.701 -0.2658 -0.5813  0.2528
  833MOL0     C 9855   7.799   3.374  -0.787  0.4413 -0.3954 -0.4100
  833MOL0     C 9856   7.696   3.287  -0.744  0.2839 -0.4129 -0.0616
  833MOL0     C 9857   7.637   3.191  -0.818  0.6514  0.2636  0.5211
  833MOL0     C 9858   7.672   3.177  -0.956  0.2807  0.6236 -0.5674
  833MOL0     O 9859   7.603   3.081  -1.026 -0.4011 -0.2915  0.5344
  833MOL0     C 9860   7.596   3.074  -1.175  0.3663  0.0191 -0.3854
  833MOL0     C 9861   7.476   3.141  -1.233 -0.6549 -0.3125  0.6760
  833MOL0     C 9862   7.488   3.295  -1.226 -0.2412  0.5789 -0.5211
  833MOL0     C 9863   7.381   3.368  -1.305  0.0196  0.0248  0.8598
  833MOL0     C 9864   7.364   3.517  -1.256  0.0273  0.2020  0.8138
  833MOL0     C 9865   7.304   3.605  -1.375 -0.9182  0.0562  0.1660
  833MOL0     C 9866   7.311   3.756  -1.357 -0.1043  0.0148  0.5321
  833MOL0     C 9867   7.311   3.840  -1.486 -0.6726  0.9866 -0.4095
  833MOL0    Cl 9868   7.483   3.794  -1.555  0.5284 -0.4382  0.0643
  833MOL0     C 9869   7.762   3.265  -1.010 -0.5635  0.2829 -0.5342
  833MOL0     C 9870   7.823   3.365  -0.927  0.5699  0.3951 -0.0806
  833MOL0     O 9871   8.055   3.480  -0.778 -0.6140 -0.1852  0.3703
  833MOL0     C 9872   7.887   3.718  -0.594 -0.7954  0.2617  0.8465
  833MOL0     C 9873   7.905   3.829  -0.503  1.0496  0.3431  0.0378
  833MOL0     N 9874   8.104   3.859   0.081  0.6783  0.3544 -0.3618
  833MOL0     N 9875   8.099   3.828   0.201  0.3364  1.4833  0.4833
  833MOL0     C 9876   8.823   3.663   0.348 -1.1554 -1.1081 -0.8361
  833MOL0     C 9877   8.888   3.774   0.294 -0.5043  0.6220 -0.0666
  833MOL0     C 9878   9.264   3.945   0.057  0.0634  0.0517  0.4493
  833MOL0     C 9879   9.389   3.914   0.011 -0.8492 -0.0949 -0.7879
  833MOL0     C 9880   9.480   4.021  -0.018  1.1212 -1.4219  0.5695
  833MOL0     C 9881   9.432   4.160  -0.020  0.0137  0.5147  0.4068
  833MOL0     O 9882   9.508   4.268  -0.054  0.4164  0.0061 -0.4596
  833MOL0     C 9883   9.636   4.271   0.024 -0.4867  0.1913  0.0409
  833MOL0     C 9884   9.708   4.402   0.020  0.2708 -0.1631 -1.1411
  833MOL0     C 9885   9.807   4.398   0.139  0.2094 -0.0284  0.6792
  833MOL0     C 9886   9.885   4.523   0.152 -0.3261 -0.7041 -0.4171
  833MOL0     C 9887   9.949   4.498   0.278 -0.0398  0.6128  0.0888
  833MOL0     C 9888  10.015   4.485   0.380  0.7813  0.6463  0.7091
  833MOL0     C 9889   9.302   4.183   0.032  0.3006 -0.3050  0.9476
  833MOL0     C 9890   9.219   4.077   0.065 -0.7722 -0.7263  0.6739
  833MOL0     H 9891   9.004   3.652   0.011 -0.2608  1.5355 -1.2614
  833MOL0     H 9892   8.858   3.460   0.062  0.2227 -0.3484 -0.1453
  833MOL0     H 9893   8.750   3.273   0.233  0.3228 -1.5208  2.2308
  833MOL0     H 9894   8.650   3.401   0.164  0.4265  1.3444 -0.0133
  833MOL0     H 9895   8.574   3.287   0.438  1.3313  0.1216 -0.9872
  833MOL0     H 9896   8.513   3.211   0.285 -2.0774  0.3176 -0.2280
  833MOL0     H 9897   8.370   3.370   0.420 -0.0060 -1.2633  0.5566
  833MOL0     H 9898   8.374   3.399   0.247  0.9573  1.4605 -0.5257
  833MOL0     H 9899   8.518   3.566   0.462  2.1918  4.3966  0.1573
  833MOL0     H 9900   8.539   3.595   0.290 -0.6697  0.2736  1.1254
  833MOL0     H 9901   8.252   3.574   0.307 -1.0191  3.2539 -2.9961
  833MOL0     H 9902   8.351   3.711   0.287  1.9113  1.3953  2.7906
  833MOL0     H 9903   8.367   3.789   0.516 -2.0147  2.0600 -0.2040
  833MOL0     H 9904   8.300   3.633   0.573  0.0758  0.7491 -0.2729
  833MOL0     H 9905   8.093   3.705   0.454  3.2498 -3.3439  0.8620
  833MOL0     H 9906   8.136   3.797   0.600 -1.2265 -1.0646  0.1902
  833MOL0     H 9907   8.222   4.000   0.457 -0.8070 -1.5142 -0.9936
  833MOL0     H 9908   8.064   3.975   0.467  0.1727  1.1909  0.1088
  833MOL0     H 9909   8.203   4.133   0.228  1.5658  0.6222 -2.9898
  833MOL0     H 9910   8.201   4.029  -0.130  0.5323 -0.0436  0.6795
  833MOL0     H 9911   8.196   4.179  -0.023 -0.3601  0.6893 -0.4815
  833MOL0     H 9912   7.950   4.164  -0.024 -0.5763  2.3701 -1.7456
  833MOL0     H 9913   7.949   4.004  -0.082 -0.3652 -0.2160 -2.3133
  833MOL0     H 9914   7.891   4.225  -0.234  0.9927  1.6519 -0.4925
  833MOL0     H 9915   8.076   4.216  -0.263 -0.4955  1.7419  2.5040
  833MOL0     H 9916   7.942   4.123  -0.431 -2.3838  1.9303  0.2206
  833MOL0     H 9917   7.858   4.019  -0.313 -1.1625  0.2595 -4.2741
  833MOL0     H 9918   8.238   3.791  -0.443 -0.3408 -2.8175  4.0972
  833MOL0     H 9919   8.206   3.612  -0.597  0.6491  1.4587  1.5634
  833MOL0     H 9920   7.670   3.293  -0.638  0.1351  0.7833 -0.1499
  833MOL0     H 9921   7.572   3.120  -0.767 -1.0582  2.3490  1.3914
  833MOL0     H 9922   7.589   2.969  -1.206  1.4033  0.4605 -2.2458
  833MOL0     H 9923   7.688   3.116  -1.217  1.1423  1.6448  2.6341
  833MOL0     H 9924   7.379   3.110  -1.194 -1.4270  2.1357  0.8504
  833MOL0     H 9925   7.479   3.091  -1.330 -1.0110 -2.4241  1.7083
  833MOL0     H 9926   7.587   3.327  -1.261  1.2388 -3.0738 -0.0796
  833MOL0     H 9927   7.474   3.321  -1.121  2.3707 -0.5508  0.1828
  833MOL0     H 9928   7.405   3.357  -1.411 -2.0760 -0.0558  0.3556
  833MOL0     H 9929   7.281   3.323  -1.301 -0.2297  0.5219  0.4141
  833MOL0     H 9930   7.467   3.551  -1.239 -0.3297  0.8264  1.8214
  833MOL0     H 9931   7.307   3.511  -1.163 -0.2157 -1.9462  0.5664
  833MOL0     H 9932   7.198   3.579  -1.380 -1.3345  1.6147  0.2636
  833MOL0     H 9933   7.347   3.578  -1.472 -2.8215 -0.8550 -0.4715
  833MOL0     H 9934   7.211   3.775  -1.316 -1.4750 -0.9777 -2.0788
  833MOL0     H 9935   7.383   3.797  -1.286 -1.0332  0.1999  1.3873
  833MOL0     H 9936   7.285   3.944  -1.463  1.4428  1.9342 -1.9771
  833MOL0     H 9937   7.251   3.797  -1.567  0.6828 -1.1171 -0.3676
  833MOL0     H 9938   7.800   3.272  -1.111  1.5716 -1.0950  0.0997
  833MOL0     H 9939   7.894   3.437  -0.967  0.6544 -1.0875 -2.8773
  833MOL0     H 9940   7.797   3.725  -0.654  0.3609  4.3213 -0.7201
  833MOL0     H 9941   7.818   3.890  -0.483  0.3037 -1.1710  1.6433
  833MOL0     H 9942   8.773   3.685   0.442  3.3547 -3.1084  2.4158
  833MOL0     H 9943   8.893   3.864   0.354 -0.0277  1.5402 -1.4359
  833MOL0     H 9944   9.418   3.810  -0.006  0.1609  0.3950 -2.2365
  833MOL0     H 9945   9.582   4.005  -0.052  1.5131  0.4655  0.7670
  833MOL0     H 9946   9.707   4.201  -0.020 -0.8057  0.2352 -0.5448
  833MOL0     H 9947   9.610   4.240   0.126 -0.4209  1.4036  0.4438
  833MOL0     H 9948   9.752   4.416  -0.079  0.0482 -0.5493 -1.2950
  833MOL0     H 9949   9.647   4.491   0.040  2.9388  1.6583 -0.5315
  833MOL0     H 9950   9.874   4.314   0.118  1.6983  0.7293  2.1841
  833MOL0     H 9951   9.752   4.386   0.233 -1.3065  1.9622  0.1193
  833MOL0     H 9952   9.969   4.537   0.084  0.7068 -0.8288  0.7834
  833MOL0     H 9953   9.823   4.612   0.168 -1.7307 -1.5529 -0.9383
  833MOL0     H 9954  10.050   4.481   0.481 -0.7899 -2.1621  1.2488
  833MOL0     H 9955   9.276   4.289   0.040 -1.3690 -0.5164 -0.8761
  833MOL0     H 9956   9.119   4.100   0.101 -1.9396 -2.8909 -0.9614
  834MOL0     O 9957   4.130   7.462   9.021  0.0924 -1.0877 -0.5859
  834MOL0     C 9958   4.165   7.518   8.917 -0.2298  0.5371 -0.6034
  834MOL0     O 9959   4.285   7.494   8.854 -0.7936  0.0014  0.7465
  834MOL0     C 9960   4.394   7.419   8.903  0.6724  0.3195 -0.3408
  834MOL0     C 9961   4.397   7.283   8.881  0.2397 -1.1402 -0.8762
  834MOL0     C 9962   4.506   7.209   8.935  0.6836 -0.5254  0.9105
  834MOL0     C 9963   4.613   7.271   9.004  0.3651 -0.6512  0.0784
  834MOL0     O 9964   4.705   7.192   9.065 -0.9050 -0.0783  0.2188
  834MOL0     C 9965   4.800   7.242   9.161  0.0175  0.3478  0.0972
  834MOL0     C 9966   4.930   7.277   9.082 -0.2252  0.2426 -0.4661
  834MOL0     C 9967   5.048   7.319   9.182  0.2676 -0.0363 -0.2732
  834MOL0     C 9968   5.112   7.206   9.266  0.5462 -0.1101  0.3518
  834MOL0     C 9969   5.243   7.242   9.338 -0.2810  0.1955 -0.0621
  834MOL0     C 9970   5.290   7.132   9.439 -0.4188 -0.5536 -0.0103
  834MOL0     C 9971   5.418   7.175   9.496 -0.1700 -0.7839  0.1283
  834MOL0     C 9972   5.540   7.114   9.410 -0.5515  0.6413  0.4567
  834MOL0     N 9973   5.659   7.095   9.499 -0.6279 -0.5829  0.5566
  834MOL0     C 9974   5.668   6.975   9.576  0.9032  0.0410  1.4822
  834MOL0     C 9975   5.790   6.979   9.631  0.0869  0.7841 -0.4323
  834MOL0     C 9976   5.868   6.872   9.696  0.3221 -0.7692  0.3809
  834MOL0     C 9977   5.904   6.917   9.835  0.4681  0.6689 -0.1133
  834MOL0     C 9978   6.047   6.975   9.836  0.5292 -0.5102 -0.6139
  834MOL0     C 9979   6.161   6.887   9.882  0.5975  0.1588  0.0867
  834MOL0     O 9980   6.270   6.972   9.926  0.8398 -0.2077 -0.4256
  834MOL0     C 9981   6.371   6.912   9.998 -0.5772 -0.4758 -0.4179
  834MOL0     C 9982   6.376   6.783  10.034 -0.6124 -0.1831  1.1952
  834MOL0     C 9983   6.493   6.730  10.096  0.1686 -0.1327 -0.1078
  834MOL0     C 9984   6.603   6.816  10.126  0.6571 -0.4625  0.6060
  834MOL0     C 9985   6.723   6.771  10.197 -0.4356  0.0216  0.4817
  834MOL0     O 9986   6.759   6.644  10.165 -0.0649 -0.5066 -0.9537
  834MOL0     C 9987   6.859   6.584  10.243  0.4642 -0.9851  0.3960
  834MOL0     C 9988   6.967   6.511  10.182  0.7111  0.0974  0.0930
  834MOL0     C 9989   7.066   6.435  10.247  0.2040 -1.0550  0.5718
  834MOL0     C 9990   7.067   6.434  10.388  0.0031  1.3868  0.4387
  834MOL0     O 9991   7.163   6.372  10.460  0.7193  0.4035 -0.2216
  834MOL0     C 9992   7.281   6.308  10.406  0.7512 -0.1698  0.0467
  834MOL0     C 9993   7.379   6.271  10.515 -0.7376 -0.5895 -0.0885
  834MOL0     C 9994   7.319   6.159  10.597  0.9002 -0.3719  0.7302
  834MOL0     C 9995   7.393   6.123  10.723 -0.1556 -0.3022 -0.0545
  834MOL0     C 9996   7.306   6.000  10.781  0.4271 -0.2433  0.1328
  834MOL0     C 9997   7.324   5.998  10.934  0.5319  0.0190  0.3648
  834MOL0     C 9998   7.252   5.873  10.987 -0.0849  0.0497  0.5620
  834MOL0     C 9999   7.120   5.912  11.045  0.2842  0.1286  0.8673
  834MOL0    Cl10000   7.135   6.006  11.206 -0.4198 -0.2001 -0.1036
  834MOL0     C10001   6.967   6.508  10.454  0.5382  0.2271  0.0368
  834MOL0     C10002   6.858   6.574  10.381 -0.4575 -0.0682  1.1544
  834MOL0     O10003   6.768   6.842  10.287 -0.0548 -0.1902  0.2228
  834MOL0     C10004   6.601   6.954  10.077  0.2210 -0.8348 -0.7847
  834MOL0     C10005   6.486   7.004  10.013 -0.1696 -0.0940 -0.1994
  834MOL0     N10006   5.847   7.104   9.598 -0.0681  0.3374 -0.8136
  834MOL0     N10007   5.762   7.174   9.528 -0.4677  0.9051 -0.5046
  834MOL0     C10008   4.606   7.407   9.024 -0.3994 -0.3384  0.4355
  834MOL0     C10009   4.504   7.473   8.968 -0.3603  0.4208 -0.2754
  834MOL0     C10010   4.069   7.595   8.853 -0.2914  0.1969  0.5055
  834MOL0     C10011   3.941   7.631   8.907 -0.1270  0.3093  0.5349
  834MOL0     C10012   3.863   7.728   8.844  0.4603 -0.2464  0.1156
  834MOL0     C10013   3.903   7.794   8.729 -0.4881  0.3527 -0.2929
  834MOL0     O10014   3.843   7.899   8.665 -0.3573  0.1115 -0.6779
  834MOL0     C10015   3.747   7.974   8.738 -0.6591 -0.3979 -0.2184
  834MOL0     C10016   3.806   8.061   8.851 -0.0119  0.8289  0.0865
  834MOL0     C10017   3.716   8.184   8.882 -0.4245  0.2753  1.4530
  834MOL0     C10018   3.704   8.247   9.027 -0.1300 -0.5695  0.3937
  834MOL0     C10019   3.761   8.161   9.136 -0.5261  0.4665  0.0605
  834MOL0     C10020   3.805   8.099   9.238  0.1807 -0.4462 -0.3786
  834MOL0     C10021   4.018   7.739   8.661  0.0167 -0.7368  0.2679
  834MOL0     C10022   4.101   7.646   8.735  0.1672 -0.1492 -0.6267
  834MOL0     H10023   4.329   7.234   8.813  0.5216 -1.0000 -1.2685
  834MOL0     H10024   4.514   7.108   8.897 -1.1714 -0.7703  1.1223
  834MOL0     H10025   4.811   7.169   9.241 -2.2630 -1.2487 -0.9475
  834MOL0     H10026   4.772   7.334   9.214  2.0282  0.0591  1.7773
  834MOL0     H10027   4.920   7.357   9.009  0.0464 -0.4581 -1.2847
  834MOL0     H10028   4.972   7.190   9.030 -1.3996  0.5321 -1.9838
  834MOL0     H10029   5.009   7.392   9.254 -4.2628 -0.2185 -2.2275
  834MOL0     H10030   5.128   7.361   9.119  0.2516 -2.5039 -2.0553
  834MOL0     H10031   5.039   7.185   9.344  0.5290  0.6153  0.5427
  834MOL0     H10032   5.123   7.114   9.209 -3.4077 -0.8429  0.5230
  834MOL0     H10033   5.228   7.336   9.393  2.4828  0.7093 -0.0446
  834MOL0     H10034   5.327   7.259   9.271  5.1170 -1.2567  5.5081
  834MOL0     H10035   5.290   7.031   9.397  0.6578 -0.1578 -1.0213
  834MOL0     H10036   5.224   7.123   9.526 -0.3340  1.3210  0.2834
  834MOL0     H10037   5.420   7.282   9.516  1.0100 -0.8425  0.3593
  834MOL0     H10038   5.419   7.124   9.594  0.1775  2.4307  1.9264
  834MOL0     H10039   5.573   7.181   9.330 -1.4335 -1.9727 -2.2867
  834MOL0     H10040   5.520   7.018   9.361 -0.1647  1.2430 -0.9154
  834MOL0     H10041   5.589   6.900   9.579  0.7623  0.1032 -0.1808
  834MOL0     H10042   5.959   6.843   9.644  0.5124 -0.4334  0.5271
  834MOL0     H10043   5.806   6.781   9.696 -0.2062 -0.4140  0.8715
  834MOL0     H10044   5.903   6.827   9.897  0.1932  1.0461  0.4355
  834MOL0     H10045   5.843   6.993   9.884  0.0649  0.6259 -0.5465
  834MOL0     H10046   6.073   6.992   9.732  0.5420  0.4685 -0.4570
  834MOL0     H10047   6.050   7.073   9.884  2.8521 -1.3335  1.1596
  834MOL0     H10048   6.199   6.822   9.803  1.6615  0.9125 -0.0400
  834MOL0     H10049   6.121   6.836   9.971 -0.6805  0.6832 -0.1552
  834MOL0     H10050   6.301   6.710  10.005  0.6438 -1.7225  1.6670
  834MOL0     H10051   6.508   6.622  10.102  2.3089  0.0836 -0.8429
  834MOL0     H10052   6.962   6.504  10.073 -1.9651 -1.0856  0.1997
  834MOL0     H10053   7.134   6.364  10.202 -0.3807 -1.4049  0.2396
  834MOL0     H10054   7.325   6.380  10.336  0.8843 -1.1548 -0.9113
  834MOL0     H10055   7.256   6.224  10.340  0.0611 -0.2794  0.4482
  834MOL0     H10056   7.398   6.359  10.577  4.5216 -1.3688 -0.1909
  834MOL0     H10057   7.482   6.242  10.493 -0.6715 -0.4079 -0.0196
  834MOL0     H10058   7.311   6.067  10.538 -2.7657  0.7398 -0.8105
  834MOL0     H10059   7.215   6.176  10.626  0.8969  1.5704 -0.2610
  834MOL0     H10060   7.498   6.100  10.701 -0.6317 -2.5528 -0.2220
  834MOL0     H10061   7.390   6.207  10.794  0.1523 -1.0193  0.8209
  834MOL0     H10062   7.320   5.903  10.732 -2.7751 -0.7129 -0.0491
  834MOL0     H10063   7.200   6.015  10.760  0.3763 -1.9178 -1.0097
  834MOL0     H10064   7.296   6.093  10.982  0.3306 -0.4055  1.1033
  834MOL0     H10065   7.432   5.988  10.947  0.4171 -3.1739 -0.4030
  834MOL0     H10066   7.236   5.801  10.906 -1.9585  1.4436 -0.3841
  834MOL0     H10067   7.314   5.820  11.059 -1.6361 -2.1038  0.4082
  834MOL0     H10068   7.071   5.817  11.066 -0.8251  0.8276  1.5219
  834MOL0     H10069   7.054   5.962  10.974  0.6195 -1.3668 -0.5641
  834MOL0     H10070   6.972   6.502  10.562  1.7600  0.0388 -0.0099
  834MOL0     H10071   6.771   6.629  10.418  0.7986  2.3089  0.7457
  834MOL0     H10072   6.678   7.027  10.101 -1.8593  1.0633  0.4875
  834MOL0     H10073   6.484   7.101   9.965  1.0936 -1.5805 -3.5620
  834MOL0     H10074   4.692   7.453   9.072  0.4202 -1.0541 -0.3206
  834MOL0     H10075   4.512   7.581   8.981  2.7188  0.3106 -0.3997
  834MOL0     H10076   3.904   7.591   9.001 -3.6514  0.3179 -0.7272
  834MOL0     H10077   3.771   7.741   8.899  1.7958  0.0992  2.4053
  834MOL0     H10078   3.674   7.906   8.784 -1.2955  0.4092 -0.0088
  834MOL0     H10079   3.690   8.037   8.670 -2.1649  0.2450  1.5437
  834MOL0     H10080   3.834   7.998   8.936  1.9119  2.5728  0.8375
  834MOL0     H10081   3.897   8.117   8.826  0.1232  0.5338 -0.0846
  834MOL0     H10082   3.612   8.159   8.856 -1.3355  2.8873  2.2864
  834MOL0     H10083   3.752   8.269   8.825 -0.7878  0.8777  2.1108
  834MOL0     H10084   3.762   8.340   9.034 -3.4234  1.6351  0.5627
  834MOL0     H10085   3.604   8.278   9.058  1.8200  4.0741  3.2085
  834MOL0     H10086   3.822   8.037   9.324  2.3481  0.2339 -0.2665
  834MOL0     H10087   4.040   7.775   8.560  1.2302  1.3758  1.2138
  834MOL0     H10088   4.175   7.607   8.666 -1.5752 -2.2270 -1.4554
  835MOL0     O10089   2.902   5.252   7.489  0.3788  0.0269  0.1703
  835MOL0     C10090   2.981   5.186   7.558 -0.5604 -0.0232  0.1203
  835MOL0     O10091   2.943   5.081   7.646 -0.6438 -0.7946 -0.0759
  835MOL0     C10092   2.813   5.095   7.692  0.2617  0.3012  0.3076
  835MOL0     C10093   2.707   5.046   7.610 -0.0368 -0.3326  0.2201
  835MOL0     C10094   2.582   5.058   7.647 -0.7938 -0.1942 -1.1580
  835MOL0     C10095   2.550   5.115   7.778  0.2747 -0.7176 -0.0464
  835MOL0     O10096   2.420   5.139   7.818 -0.1785 -0.0429 -0.2209
  835MOL0     C10097   2.322   5.050   7.757  0.0232  0.0822  0.2088
  835MOL0     C10098   2.202   5.036   7.850 -0.3388  0.5139 -0.2438
  835MOL0     C10099   2.113   4.925   7.799 -0.5549 -0.1918  0.7661
  835MOL0     C10100   2.006   4.888   7.902 -0.7282  0.0582 -0.7030
  835MOL0     C10101   1.921   4.771   7.861  0.3302  0.1798 -0.0749
  835MOL0     C10102   1.991   4.635   7.840 -0.0024 -0.9507 -0.7868
  835MOL0     C10103   1.881   4.525   7.840  0.0022  0.2143 -0.5137
  835MOL0     C10104   1.959   4.395   7.800  0.5680  0.2463 -0.1010
  835MOL0     N10105   1.913   4.292   7.889  0.2591 -0.0574  0.3283
  835MOL0     C10106   1.924   4.286   8.030 -0.0667  0.4263 -0.9985
  835MOL0     C10107   1.836   4.196   8.073 -0.6611  0.2620  0.7653
  835MOL0     C10108   1.796   4.141   8.203 -0.1026 -0.1103 -0.9785
  835MOL0     C10109   1.911   4.109   8.299 -0.0220 -0.0455  0.5564
  835MOL0     C10110   1.871   4.062   8.447  0.5219  0.3492  0.2481
  835MOL0     C10111   1.790   4.159   8.524  0.4145  0.4735 -0.5087
  835MOL0     O10112   1.656   4.157   8.457 -0.1662 -0.1926 -1.2843
  835MOL0     C10113   1.547   4.225   8.506  0.6986 -0.2445  0.4292
  835MOL0     C10114   1.551   4.335   8.587 -0.1365  0.2727 -0.2793
  835MOL0     C10115   1.439   4.402   8.627 -0.3000 -0.1626 -0.4282
  835MOL0     C10116   1.312   4.368   8.578  0.8211 -0.4390 -0.8281
  835MOL0     C10117   1.193   4.445   8.633 -0.4510 -0.3362  0.6826
  835MOL0     O10118   1.073   4.407   8.586  0.0745  0.4573 -0.2055
  835MOL0     C10119   0.957   4.459   8.651 -0.1446 -0.7711 -0.7630
  835MOL0     C10120   0.860   4.361   8.694 -0.1806 -0.1653  0.4373
  835MOL0     C10121   0.744   4.398   8.748 -0.2799 -0.4962 -1.7423
  835MOL0     C10122   0.715   4.533   8.770  0.6060 -0.6061  0.5175
  835MOL0     O10123   0.592   4.564   8.822  0.7549 -0.1685 -0.3405
  835MOL0     C10124   0.526   4.694   8.816 -0.5396 -0.5152  0.6215
  835MOL0     C10125   0.418   4.688   8.918 -0.2351 -0.3276  0.9675
  835MOL0     C10126   0.375   4.817   8.977  0.5279 -1.1697  0.2135
  835MOL0     C10127   0.329   4.922   8.883 -0.1773  0.4978  0.7360
  835MOL0     C10128   0.299   5.054   8.945 -0.2784  0.3877  0.3492
  835MOL0     C10129   0.408   5.127   9.006 -0.1431  0.0324 -0.8011
  835MOL0     C10130   0.355   5.265   9.042 -1.3132  0.6205 -0.1706
  835MOL0     C10131   0.278   5.262   9.172 -0.0952 -0.0960  0.2087
  835MOL0    Cl10132   0.125   5.339   9.162 -0.4951  0.0680  0.1314
  835MOL0     C10133   0.805   4.633   8.728 -0.6978 -0.1536  0.1337
  835MOL0     C10134   0.924   4.596   8.675 -0.9473  0.0578  0.2267
  835MOL0     O10135   1.215   4.532   8.711 -0.4179  0.0496  0.2837
  835MOL0     C10136   1.307   4.264   8.484  0.0789 -0.3355 -0.6595
  835MOL0     C10137   1.419   4.189   8.454  0.2627 -0.4419  0.7601
  835MOL0     N10138   1.763   4.167   7.966  0.5854  0.4438 -0.6198
  835MOL0     N10139   1.808   4.215   7.858 -0.6814 -0.4305 -1.2391
  835MOL0     C10140   2.663   5.155   7.860 -0.9123 -0.3779  0.4524
  835MOL0     C10141   2.794   5.157   7.815 -0.3884 -0.2910 -0.8851
  835MOL0     C10142   3.125   5.210   7.538 -0.1323 -0.4526 -0.6392
  835MOL0     C10143   3.174   5.298   7.436  0.2958 -0.6919 -0.5229
  835MOL0     C10144   3.308   5.337   7.440 -0.4428 -0.2507  0.1730
  835MOL0     C10145   3.391   5.286   7.543  0.1935 -0.4793  0.7505
  835MOL0     O10146   3.529   5.308   7.550  0.5493 -0.7879 -0.6064
  835MOL0     C10147   3.584   5.433   7.491  0.1697 -0.7858  0.4417
  835MOL0     C10148   3.658   5.415   7.360  0.6690  1.2625  0.0405
  835MOL0     C10149   3.750   5.286   7.369 -1.2867 -0.6835  0.0227
  835MOL0     C10150   3.886   5.328   7.384  0.5309 -0.4636 -0.3065
  835MOL0     C10151   3.921   5.377   7.520  0.3499 -0.5293  0.1167
  835MOL0     C10152   3.941   5.435   7.617  0.0585 -0.3765 -1.0427
  835MOL0     C10153   3.347   5.183   7.628  0.6594 -0.4624  0.1865
  835MOL0     C10154   3.209   5.154   7.636 -0.2421 -0.7404 -0.0849
  835MOL0     H10155   2.726   5.013   7.508 -2.0990  1.9109 -1.0023
  835MOL0     H10156   2.504   5.032   7.576  1.6313 -2.5015 -3.2273
  835MOL0     H10157   2.366   4.954   7.729 -1.8693  0.1259 -3.4958
  835MOL0     H10158   2.300   5.093   7.659  2.6178  4.2046  1.1921
  835MOL0     H10159   2.147   5.130   7.840  0.7483  0.9671 -2.5201
  835MOL0     H10160   2.242   5.014   7.950  0.6678 -0.3960 -0.8405
  835MOL0     H10161   2.148   4.822   7.785 -0.1805 -0.2844  2.2275
  835MOL0     H10162   2.070   4.948   7.701  2.0169 -2.3751 -1.0152
  835MOL0     H10163   2.052   4.866   7.999  4.8786  3.5288 -2.0737
  835MOL0     H10164   1.947   4.979   7.913  2.0593  2.0667 -1.1828
  835MOL0     H10165   1.875   4.795   7.765  0.7063 -1.0376 -0.5808
  835MOL0     H10166   1.832   4.773   7.924 -0.8868  1.4976 -1.7114
  835MOL0     H10167   2.064   4.608   7.917  0.2806 -2.0212 -1.4130
  835MOL0     H10168   2.043   4.635   7.744  0.7484 -1.5268 -0.3897
  835MOL0     H10169   1.837   4.515   7.939 -1.6243 -1.3448 -1.3286
  835MOL0     H10170   1.801   4.545   7.768 -1.0269  0.7832  0.7605
  835MOL0     H10171   2.068   4.395   7.803  0.6973 -0.9048 -2.7212
  835MOL0     H10172   1.924   4.359   7.703  1.8176 -0.5303 -0.2894
  835MOL0     H10173   1.998   4.345   8.083 -0.2690 -0.1168 -0.0865
  835MOL0     H10174   1.732   4.053   8.194  0.6918 -0.7528 -0.4727
  835MOL0     H10175   1.740   4.230   8.234 -0.4037 -0.9494  1.0060
  835MOL0     H10176   1.984   4.190   8.304 -0.6988  0.6431 -0.3397
  835MOL0     H10177   1.973   4.035   8.248  0.7591  1.9696 -1.5868
  835MOL0     H10178   1.818   3.966   8.445  0.0579  0.5633  1.3310
  835MOL0     H10179   1.958   4.046   8.511 -0.7953  0.5214  2.1663
  835MOL0     H10180   1.837   4.257   8.528 -0.4339  0.8540  2.4611
  835MOL0     H10181   1.788   4.124   8.627  2.3954 -3.0233 -1.4601
  835MOL0     H10182   1.640   4.368   8.641 -0.2957  1.0408 -0.4756
  835MOL0     H10183   1.465   4.466   8.711  2.5972 -3.5575  1.5160
  835MOL0     H10184   0.885   4.256   8.684  1.6857  0.3450 -0.7798
  835MOL0     H10185   0.667   4.325   8.770 -0.2612  0.3589  1.8143
  835MOL0     H10186   0.482   4.708   8.717 -0.5828 -2.3159  0.3517
  835MOL0     H10187   0.591   4.779   8.838 -1.5861  0.2105  0.9327
  835MOL0     H10188   0.461   4.631   9.002  1.1885 -1.4546 -0.4689
  835MOL0     H10189   0.333   4.638   8.869 -0.0738  2.1748 -2.1347
  835MOL0     H10190   0.459   4.859   9.032 -0.8503  0.7371  0.9689
  835MOL0     H10191   0.291   4.798   9.044 -1.2008  1.0868 -1.1570
  835MOL0     H10192   0.406   4.945   8.809 -1.4537 -0.8220 -1.0903
  835MOL0     H10193   0.245   4.886   8.824  0.7633 -1.5210  0.5508
  835MOL0     H10194   0.213   5.036   9.011 -0.8148 -3.1594 -1.0956
  835MOL0     H10195   0.262   5.107   8.857 -2.8021  1.1477  1.7656
  835MOL0     H10196   0.481   5.150   8.928 -0.7554 -0.9390 -1.6776
  835MOL0     H10197   0.457   5.070   9.086 -0.2782 -1.6122 -1.8543
  835MOL0     H10198   0.432   5.343   9.045  1.3207 -1.7189 -1.6984
  835MOL0     H10199   0.286   5.292   8.961 -2.7733 -1.1701  0.3860
  835MOL0     H10200   0.340   5.292   9.257 -1.4087 -0.0033  1.1706
  835MOL0     H10201   0.251   5.157   9.186  0.2551 -0.8699 -3.7361
  835MOL0     H10202   0.776   4.736   8.743  1.3117  0.2922  1.2426
  835MOL0     H10203   0.994   4.670   8.636  0.4809 -0.6006  1.4039
  835MOL0     H10204   1.211   4.241   8.437  0.1679 -0.0820 -0.9696
  835MOL0     H10205   1.423   4.109   8.381 -1.4725  2.2958 -2.6320
  835MOL0     H10206   2.652   5.176   7.966 -1.8536 -1.3011  0.5596
  835MOL0     H10207   2.874   5.194   7.878 -4.2857  3.3568  2.5767
  835MOL0     H10208   3.110   5.325   7.353  0.4594 -0.9349 -0.7317
  835MOL0     H10209   3.346   5.408   7.367 -0.9395 -1.6770 -1.5405
  835MOL0     H10210   3.652   5.473   7.567  2.9215  0.9167 -2.6554
  835MOL0     H10211   3.508   5.510   7.474  1.1508 -0.2805 -2.0288
  835MOL0     H10212   3.576   5.415   7.288  0.0225  3.1070  0.6950
  835MOL0     H10213   3.721   5.499   7.329  0.3675  0.2274 -3.8036
  835MOL0     H10214   3.749   5.237   7.271 -1.1119 -1.5565  0.4392
  835MOL0     H10215   3.724   5.212   7.446 -1.0847  0.8366  1.5994
  835MOL0     H10216   3.943   5.235   7.375 -0.7721 -1.6120  2.2055
  835MOL0     H10217   3.905   5.405   7.309 -2.0519 -0.0296 -0.5922
  835MOL0     H10218   3.967   5.479   7.710  3.0991  0.4691 -2.1650
  835MOL0     H10219   3.413   5.162   7.711  0.0846  0.5461  0.9196
  835MOL0     H10220   3.174   5.084   7.711  0.6560 -1.0284  0.0765
  836MOL0     O10221   2.425   8.583   5.525 -0.3445  0.5179 -1.1341
  836MOL0     C10222   2.507   8.600   5.444 -0.4017  0.6986  0.3781
  836MOL0     O10223   2.576   8.713   5.434 -0.8355 -0.3405  0.8366
  836MOL0     C10224   2.529   8.827   5.494  0.5693 -0.0823 -1.3372
  836MOL0     C10225   2.520   8.839   5.635  0.3385 -0.5370 -0.4776
  836MOL0     C10226   2.476   8.955   5.705 -0.1632  0.3747  0.4051
  836MOL0     C10227   2.419   9.053   5.623 -0.0709 -0.1816  0.9240
  836MOL0     O10228   2.363   9.170   5.682  0.9423 -0.1823  0.1909
  836MOL0     C10229   2.228   9.141   5.728 -0.8600 -0.0179 -0.1702
  836MOL0     C10230   2.118   9.168   5.622  0.7100 -0.5464 -0.6478
  836MOL0     C10231   2.083   9.317   5.604 -0.2052  0.1358  0.0919
  836MOL0     C10232   1.954   9.341   5.524  0.0387 -0.5919 -0.9937
  836MOL0     C10233   1.881   9.473   5.559  0.2327 -0.4175  0.8987
  836MOL0     C10234   1.946   9.601   5.504  0.0341 -0.4242 -0.2209
  836MOL0     C10235   1.837   9.697   5.444  0.7136 -0.3096 -0.0143
  836MOL0     C10236   1.899   9.824   5.393  0.4645  0.0998  0.2441
  836MOL0     N10237   1.790   9.913   5.385 -0.0148 -0.2418  0.5502
  836MOL0     C10238   1.685   9.905   5.299 -0.7964 -0.0864  1.0591
  836MOL0     C10239   1.589   9.984   5.338  0.2377 -0.4792  1.0991
  836MOL0     C10240   1.454   9.997   5.277  0.3163 -0.7230  0.6175
  836MOL0     C10241   1.384   9.855   5.290  0.0445 -0.2326  0.4002
  836MOL0     C10242   1.230   9.857   5.269  0.4212  0.2290 -0.3586
  836MOL0     C10243   1.188   9.894   5.131 -0.4426  0.1102  0.1419
  836MOL0     O10244   1.267   9.807   5.042 -0.1810 -0.7386 -0.2780
  836MOL0     C10245   1.257   9.826   4.911 -0.4294 -0.4170  0.5753
  836MOL0     C10246   1.339   9.744   4.835 -0.0189 -0.0051 -0.0125
  836MOL0     C10247   1.353   9.751   4.698 -0.0446  0.3578  0.4681
  836MOL0     C10248   1.274   9.857   4.634 -0.2190  0.0351  0.6901
  836MOL0     C10249   1.285   9.879   4.491  0.0887 -0.2505 -0.4182
  836MOL0     O10250   1.208   9.975   4.440 -0.9874 -0.0579  0.0391
  836MOL0     C10251   1.222   9.994   4.308  0.7112 -0.8306  0.0846
  836MOL0     C10252   1.126   9.948   4.218  0.0187  0.0837 -0.8493
  836MOL0     C10253   1.135   9.975   4.078 -0.2034  0.2325  0.1455
  836MOL0     C10254   1.239  10.057   4.036 -0.0514  0.1100  0.0172
  836MOL0     O10255   1.233  10.107   3.907  0.4578 -0.3361 -0.0932
  836MOL0     C10256   1.215  10.255   3.905 -0.1826 -0.4584 -0.7453
  836MOL0     C10257   1.124  10.286   3.787  0.8547  0.1934  0.0730
  836MOL0     C10258   1.174  10.255   3.650  0.0381 -0.6117 -1.1794
  836MOL0     C10259   1.059  10.247   3.548  0.6250  0.2683  0.2932
  836MOL0     C10260   1.094  10.167   3.430 -0.8853  0.1917 -0.1938
  836MOL0     C10261   0.967  10.142   3.352 -1.0418  0.8551 -0.0628
  836MOL0     C10262   1.003  10.125   3.204  0.6808 -1.0646  0.2817
  836MOL0     C10263   1.008   9.973   3.180  0.8416 -0.9111  0.2594
  836MOL0    Cl10264   1.046   9.936   2.999 -0.1861 -0.0311  0.4156
  836MOL0     C10265   1.339  10.102   4.127  0.8631 -0.3273  0.1174
  836MOL0     C10266   1.331  10.059   4.255  0.9148 -0.3459  0.1429
  836MOL0     O10267   1.361   9.810   4.424  0.0582 -0.0205  0.1017
  836MOL0     C10268   1.188   9.940   4.716 -0.5051  0.2775  0.5532
  836MOL0     C10269   1.178   9.921   4.852 -1.1735  0.5541  1.2159
  836MOL0     N10270   1.615  10.012   5.475  0.9083 -0.0068  0.3233
  836MOL0     N10271   1.747   9.991   5.493 -1.2334 -0.9407  0.2488
  836MOL0     C10272   2.429   9.040   5.477  0.1930 -1.3392  0.5128
  836MOL0     C10273   2.488   8.931   5.416  0.2707 -0.1170  0.3321
  836MOL0     C10274   2.537   8.490   5.358  0.7350  0.7031  0.7537
  836MOL0     C10275   2.632   8.496   5.259 -0.0838 -0.8253 -0.0352
  836MOL0     C10276   2.637   8.398   5.158  0.0162 -0.6502  0.4090
  836MOL0     C10277   2.571   8.274   5.166  0.3655 -0.5407 -0.2737
  836MOL0     O10278   2.582   8.176   5.072 -0.3105  0.3259  0.4601
  836MOL0     C10279   2.715   8.127   5.044  0.1392 -0.4181 -0.6025
  836MOL0     C10280   2.712   7.994   4.977  0.9495  0.8287  0.3634
  836MOL0     C10281   2.854   7.937   4.948 -0.1110 -0.7278  0.4533
  836MOL0     C10282   2.956   8.053   4.867  0.0173  0.3846 -0.0311
  836MOL0     C10283   3.024   8.134   4.971 -0.6707  0.2750  1.2502
  836MOL0     C10284   3.079   8.196   5.054 -0.1395  0.0172 -0.2291
  836MOL0     C10285   2.481   8.266   5.273  0.8106  0.2450 -0.0244
  836MOL0     C10286   2.463   8.373   5.368  0.3852  0.1188  0.4695
  836MOL0     H10287   2.546   8.752   5.695 -1.8612  1.3510  3.6463
  836MOL0     H10288   2.454   8.968   5.810 -1.5932  1.3902  0.0134
  836MOL0     H10289   2.215   9.204   5.817 -0.6742 -2.4630  1.6828
  836MOL0     H10290   2.226   9.034   5.751  1.2501 -0.1486 -0.3988
  836MOL0     H10291   2.032   9.110   5.657 -0.3029  1.7601  0.9672
  836MOL0     H10292   2.151   9.137   5.523 -0.4270  1.2396 -1.6272
  836MOL0     H10293   2.170   9.375   5.570  0.0031  1.4566  2.6015
  836MOL0     H10294   2.057   9.354   5.704 -2.0682  0.1963 -0.3832
  836MOL0     H10295   1.987   9.324   5.421 -0.8424 -1.1188 -1.1989
  836MOL0     H10296   1.890   9.256   5.549 -2.0466  1.1234 -0.1798
  836MOL0     H10297   1.853   9.494   5.663  0.2290 -1.1336  1.0486
  836MOL0     H10298   1.784   9.463   5.509 -0.2428 -2.1698  2.0328
  836MOL0     H10299   2.013   9.564   5.425  1.7535  2.6125 -0.3193
  836MOL0     H10300   2.004   9.648   5.584 -0.2027  1.8521 -1.3138
  836MOL0     H10301   1.795   9.639   5.361  5.3843 -1.6132 -1.7985
  836MOL0     H10302   1.763   9.711   5.523  1.2568 -1.5033  0.7402
  836MOL0     H10303   1.952   9.812   5.298  1.1628 -2.7833  0.8989
  836MOL0     H10304   1.964   9.851   5.476 -1.4326 -1.0725  2.1986
  836MOL0     H10305   1.675   9.849   5.207 -3.0269  2.2194 -0.2246
  836MOL0     H10306   1.458  10.020   5.170  3.1450  2.9454  1.3159
  836MOL0     H10307   1.404  10.077   5.333  0.7783 -0.1172  0.1698
  836MOL0     H10308   1.406   9.821   5.392  1.3847 -1.8468 -0.3887
  836MOL0     H10309   1.429   9.784   5.221  3.4530  0.2545  1.9262
  836MOL0     H10310   1.187   9.759   5.292  0.9919 -0.0060 -0.2902
  836MOL0     H10311   1.191   9.915   5.353  1.3491 -1.4584  1.3127
  836MOL0     H10312   1.219   9.999   5.119  1.5637 -0.6187 -1.7194
  836MOL0     H10313   1.081   9.894   5.108 -0.0399 -4.2550 -3.0221
  836MOL0     H10314   1.398   9.680   4.900  0.4597 -0.6263 -1.0236
  836MOL0     H10315   1.424   9.681   4.654 -0.8394 -1.0176  1.3166
  836MOL0     H10316   1.043   9.890   4.257  0.0689  0.8477  0.4730
  836MOL0     H10317   1.060   9.955   4.001 -0.2262  2.0772 -0.3613
  836MOL0     H10318   1.322  10.277   3.898 -0.5227  1.9833  0.5274
  836MOL0     H10319   1.185  10.309   3.995  2.7390 -0.2924  0.2325
  836MOL0     H10320   1.102  10.393   3.780  0.4917  0.1336  0.2408
  836MOL0     H10321   1.031  10.232   3.809  0.2378  0.7958 -0.9822
  836MOL0     H10322   1.235  10.165   3.660  0.3779 -0.0937  2.6065
  836MOL0     H10323   1.238  10.340   3.622  0.9189  0.4225  3.2704
  836MOL0     H10324   0.967  10.212   3.595 -0.7593  0.9009 -1.7756
  836MOL0     H10325   1.049  10.347   3.506  3.5084 -0.0150 -1.3875
  836MOL0     H10326   1.138  10.069   3.454 -1.8318 -1.1667 -3.4839
  836MOL0     H10327   1.177  10.223   3.386  0.3971  0.3755  2.2609
  836MOL0     H10328   0.893  10.222   3.357 -1.6602  0.2007  2.9812
  836MOL0     H10329   0.922  10.054   3.399 -0.2108  0.7250  0.5016
  836MOL0     H10330   0.929  10.176   3.143  0.7283 -0.3177  0.8218
  836MOL0     H10331   1.100  10.165   3.172 -0.8753  1.5307 -1.5949
  836MOL0     H10332   0.913   9.928   3.209  1.2075 -0.9820  1.3690
  836MOL0     H10333   1.098   9.929   3.224  3.5193  2.2266 -1.5717
  836MOL0     H10334   1.423  10.152   4.079  0.5253 -0.7404 -0.9458
  836MOL0     H10335   1.409  10.101   4.319 -0.6722  2.4976  0.4063
  836MOL0     H10336   1.137  10.022   4.666  1.8095  0.1975 -2.2032
  836MOL0     H10337   1.110   9.990   4.902 -0.7048  1.7453  0.2834
  836MOL0     H10338   2.396   9.123   5.415  0.1449 -2.6843 -1.3366
  836MOL0     H10339   2.483   8.938   5.308  0.8126  2.4811  0.4252
  836MOL0     H10340   2.692   8.587   5.254 -0.1827 -0.7454  0.2407
  836MOL0     H10341   2.702   8.420   5.073 -1.9787  0.7357 -0.8382
  836MOL0     H10342   2.783   8.123   5.130  1.2097  2.1188 -1.2397
  836MOL0     H10343   2.758   8.196   4.971  2.6307 -0.2440  0.9255
  836MOL0     H10344   2.664   7.914   5.034 -1.3429  0.2194 -2.1565
  836MOL0     H10345   2.657   7.991   4.882 -0.7508  1.3956  1.2822
  836MOL0     H10346   2.863   7.843   4.894 -1.2978 -1.5082  1.5406
  836MOL0     H10347   2.921   7.931   5.034  1.3615  0.5071 -0.5551
  836MOL0     H10348   3.037   8.000   4.818 -0.7639 -0.8696 -0.0188
  836MOL0     H10349   2.891   8.102   4.793  4.5629  0.9444 -4.1235
  836MOL0     H10350   3.118   8.258   5.132  0.4980  0.1578 -0.6480
  836MOL0     H10351   2.423   8.175   5.284 -1.5058  1.5192 -1.0865
  836MOL0     H10352   2.397   8.363   5.453  0.1430 -0.3627  0.2272
  837MOL0     O10353   4.834   7.572   3.143 -0.2290  0.0313  0.4526
  837MOL0     C10354   4.896   7.675   3.117 -0.5513  0.4176 -0.1666
  837MOL0     O10355   5.028   7.692   3.140  0.2784  0.3516 -0.5241
  837MOL0     C10356   5.106   7.598   3.209 -1.1464  0.0887  0.1747
  837MOL0     C10357   5.073   7.529   3.330  0.2207 -0.3060 -0.2483
  837MOL0     C10358   5.167   7.463   3.402 -0.1959  0.4550  0.7981
  837MOL0     C10359   5.303   7.455   3.362  0.1105 -0.4986 -0.2959
  837MOL0     O10360   5.395   7.384   3.437 -0.0740  0.4442  0.1649
  837MOL0     C10361   5.533   7.384   3.416 -0.3534  0.6333 -0.5878
  837MOL0     C10362   5.610   7.497   3.482  0.4851  0.4943  0.1961
  837MOL0     C10363   5.765   7.476   3.478 -0.4180 -0.5487 -0.7536
  837MOL0     C10364   5.829   7.580   3.569 -0.7396 -0.3466  0.4722
  837MOL0     C10365   5.985   7.554   3.563 -0.5489  0.3648  0.6613
  837MOL0     C10366   6.058   7.663   3.645  0.4006  0.5441 -0.0521
  837MOL0     C10367   6.204   7.638   3.638 -0.3236 -0.7433 -0.0683
  837MOL0     C10368   6.307   7.728   3.578  0.2026 -0.1363  0.5253
  837MOL0     N10369   6.434   7.667   3.575  1.0114  0.0111  0.1806
  837MOL0     C10370   6.471   7.585   3.470  0.0405 -0.1115 -0.2261
  837MOL0     C10371   6.599   7.555   3.493 -0.8369 -1.3471 -0.7826
  837MOL0     C10372   6.694   7.478   3.416 -0.3908  0.5837  0.3946
  837MOL0     C10373   6.802   7.572   3.364 -0.1872  0.0207 -0.1583
  837MOL0     C10374   6.760   7.673   3.257  0.0108  0.3534 -0.0054
  837MOL0     C10375   6.867   7.781   3.244 -0.4596 -0.5555 -0.6405
  837MOL0     O10376   6.991   7.751   3.176 -0.3105 -0.3763 -1.1930
  837MOL0     C10377   7.088   7.835   3.201 -0.5220  0.0689 -0.7599
  837MOL0     C10378   7.215   7.774   3.229  0.0265  0.4532 -1.1293
  837MOL0     C10379   7.331   7.850   3.272 -0.2695 -0.6996 -0.0859
  837MOL0     C10380   7.318   7.992   3.273  0.3048  0.1652 -0.5020
  837MOL0     C10381   7.435   8.076   3.301  0.1992  0.2366 -0.5688
  837MOL0     O10382   7.551   8.024   3.270 -0.2728 -0.6133  0.6214
  837MOL0     C10383   7.662   8.106   3.243 -0.7322 -0.9819 -0.0012
  837MOL0     C10384   7.728   8.095   3.120  1.1886  0.2686 -0.5780
  837MOL0     C10385   7.825   8.190   3.086  0.3575  0.3195 -0.4305
  837MOL0     C10386   7.869   8.286   3.178 -0.8280 -0.0213  0.2831
  837MOL0     O10387   7.974   8.372   3.153  0.1726 -0.1460 -0.2655
  837MOL0     C10388   8.089   8.326   3.076 -0.3179  0.4968 -0.1241
  837MOL0     C10389   8.192   8.444   3.085 -0.7725 -0.0668 -0.1194
  837MOL0     C10390   8.310   8.413   3.012 -0.9735  0.2343 -0.5279
  837MOL0     C10391   8.301   8.452   2.868 -0.5598  0.5352  0.8719
  837MOL0     C10392   8.432   8.410   2.784  0.6967  0.1053 -0.4542
  837MOL0     C10393   8.566   8.432   2.853 -0.9477  0.0804 -0.0959
  837MOL0     C10394   8.681   8.361   2.784 -1.1227  1.1299 -0.9704
  837MOL0     C10395   8.705   8.419   2.653  0.4967  1.3547 -0.3681
  837MOL0    Cl10396   8.878   8.373   2.608 -0.2022  0.1823 -0.3482
  837MOL0     C10397   7.813   8.282   3.307  0.3081 -0.3696  0.9480
  837MOL0     C10398   7.707   8.201   3.339  0.1673  0.6499 -0.4352
  837MOL0     O10399   7.416   8.185   3.348  0.1990  0.6980 -0.8814
  837MOL0     C10400   7.192   8.057   3.249  0.5311 -0.3493 -0.9531
  837MOL0     C10401   7.084   7.979   3.214 -0.3061  0.6878 -0.1663
  837MOL0     N10402   6.637   7.612   3.611 -0.5184 -0.0962  0.2654
  837MOL0     N10403   6.530   7.668   3.671 -0.5228  0.4464  0.1494
  837MOL0     C10404   5.344   7.528   3.249  0.8093  0.0840 -0.1871
  837MOL0     C10405   5.243   7.600   3.176  0.2488 -0.1476  0.3493
  837MOL0     C10406   4.824   7.793   3.059 -0.1421  0.8985 -0.4366
  837MOL0     C10407   4.688   7.779   3.020  0.2953 -0.3737 -0.4356
  837MOL0     C10408   4.616   7.896   2.999 -0.7426  1.3555 -0.1897
  837MOL0     C10409   4.672   8.024   3.017  0.3046 -0.1491 -0.1923
  837MOL0     O10410   4.606   8.140   3.003 -0.0891  0.5906 -0.1412
  837MOL0     C10411   4.476   8.147   2.946  0.0059 -0.1991  0.1200
  837MOL0     C10412   4.372   8.123   3.053 -0.5363 -0.4868  1.0960
  837MOL0     C10413   4.230   8.168   3.020 -0.5131 -0.2423 -0.0882
  837MOL0     C10414   4.135   8.095   3.120  0.2511 -0.4485  0.4069
  837MOL0     C10415   4.152   8.132   3.261  0.1554 -0.6556  0.4073
  837MOL0     C10416   4.142   8.173   3.369 -0.6678  0.1529  0.1706
  837MOL0     C10417   4.799   8.027   3.064 -0.1603  0.0360  0.9579
  837MOL0     C10418   4.887   7.923   3.077  0.4259  0.2131  0.1020
  837MOL0     H10419   4.970   7.531   3.364  0.9552 -2.2040  2.3654
  837MOL0     H10420   5.148   7.416   3.498  0.6949 -1.7787 -0.0429
  837MOL0     H10421   5.559   7.393   3.310 -0.0810  1.2000 -0.4801
  837MOL0     H10422   5.572   7.286   3.443  2.0365  1.7232  0.2029
  837MOL0     H10423   5.578   7.499   3.586  1.1395 -1.5001  0.4778
  837MOL0     H10424   5.582   7.592   3.436 -1.9985  0.1432  0.8726
  837MOL0     H10425   5.793   7.496   3.375  1.1209  1.7144  0.0295
  837MOL0     H10426   5.811   7.380   3.505  3.1745  1.5557  1.3505
  837MOL0     H10427   5.813   7.678   3.525  3.9525 -0.6054 -2.5976
  837MOL0     H10428   5.804   7.553   3.672  0.3583 -4.4790 -0.1452
  837MOL0     H10429   6.016   7.569   3.459  2.1799  1.4237  1.5283
  837MOL0     H10430   6.002   7.451   3.595 -3.0377  0.0322  1.0952
  837MOL0     H10431   6.017   7.647   3.745 -0.5850 -2.0570 -0.7858
  837MOL0     H10432   6.041   7.761   3.599 -0.3560 -0.0091 -0.9863
  837MOL0     H10433   6.234   7.619   3.742  2.4330  1.4092 -0.3615
  837MOL0     H10434   6.221   7.546   3.581 -0.0530  0.2032 -1.5690
  837MOL0     H10435   6.315   7.822   3.634  1.9525 -0.3465  0.7112
  837MOL0     H10436   6.284   7.754   3.474  2.9388  0.4380 -0.0402
  837MOL0     H10437   6.417   7.549   3.384  0.6070  1.1347 -1.1229
  837MOL0     H10438   6.652   7.415   3.337 -0.8375 -0.9973  1.8382
  837MOL0     H10439   6.741   7.410   3.487 -0.7104  2.5325  2.6037
  837MOL0     H10440   6.870   7.511   3.304 -0.2290  0.1485 -0.3398
  837MOL0     H10441   6.853   7.627   3.444 -0.4301 -1.2872  0.9123
  837MOL0     H10442   6.746   7.620   3.162 -1.2130 -0.7816  0.7872
  837MOL0     H10443   6.673   7.735   3.278 -1.2887 -0.8177 -1.6629
  837MOL0     H10444   6.891   7.823   3.342  0.6540 -2.1184 -0.2018
  837MOL0     H10445   6.815   7.856   3.184 -0.0501 -0.3572 -0.7552
  837MOL0     H10446   7.235   7.668   3.217  2.0992  0.9221 -2.3492
  837MOL0     H10447   7.429   7.805   3.269  0.3265  0.2623  2.4273
  837MOL0     H10448   7.681   8.040   3.039 -0.2731 -0.5884  0.7838
  837MOL0     H10449   7.871   8.184   2.988  0.4803 -0.7772 -0.3195
  837MOL0     H10450   8.057   8.320   2.971 -1.9171 -0.6191  0.4022
  837MOL0     H10451   8.128   8.233   3.117  2.5932  1.0049 -1.4825
  837MOL0     H10452   8.224   8.448   3.190  0.6799 -1.7909 -0.4315
  837MOL0     H10453   8.148   8.542   3.068  1.5781  1.6496  2.6803
  837MOL0     H10454   8.314   8.303   3.020 -2.4810  0.1642 -0.4821
  837MOL0     H10455   8.391   8.468   3.060  0.0659 -0.9344 -0.8700
  837MOL0     H10456   8.224   8.395   2.814 -1.0055  1.3190  0.6729
  837MOL0     H10457   8.277   8.558   2.861  1.6439  1.0594  0.4761
  837MOL0     H10458   8.430   8.451   2.683 -0.9224  3.0819  0.6758
  837MOL0     H10459   8.416   8.304   2.759  0.0271  0.1700 -0.3204
  837MOL0     H10460   8.560   8.391   2.955  2.7855 -1.5524 -0.3959
  837MOL0     H10461   8.592   8.538   2.870  0.3223 -0.4540  1.6592
  837MOL0     H10462   8.771   8.344   2.843 -2.5585  3.4117  2.1705
  837MOL0     H10463   8.659   8.255   2.771 -1.5692  0.9910  0.6286
  837MOL0     H10464   8.699   8.528   2.664 -1.4252  1.2056  0.2653
  837MOL0     H10465   8.626   8.379   2.590 -1.5717  3.2709  0.8357
  837MOL0     H10466   7.862   8.345   3.381  3.0084 -1.1639 -0.0535
  837MOL0     H10467   7.664   8.200   3.439 -2.5553 -0.3329 -1.5367
  837MOL0     H10468   7.188   8.165   3.249  1.9502 -0.2385 -2.7093
  837MOL0     H10469   6.990   8.024   3.185 -0.7501 -0.6022 -0.7854
  837MOL0     H10470   5.447   7.528   3.216  1.1386  0.7925  0.7875
  837MOL0     H10471   5.269   7.659   3.089  0.0467 -1.4933 -0.6525
  837MOL0     H10472   4.645   7.680   3.015 -2.1504  0.5760  0.5477
  837MOL0     H10473   4.511   7.877   2.980 -1.0181  2.1372  0.4905
  837MOL0     H10474   4.464   8.081   2.860 -0.8501  0.1794 -0.0610
  837MOL0     H10475   4.457   8.246   2.904 -2.1245 -0.2952  0.7230
  837MOL0     H10476   4.382   8.016   3.073  0.7740 -0.7008 -0.4778
  837MOL0     H10477   4.412   8.178   3.139 -0.2691  1.2498 -0.0953
  837MOL0     H10478   4.212   8.142   2.915  3.8807 -0.0555 -1.0628
  837MOL0     H10479   4.194   8.271   3.026  2.7392  1.0849 -1.3034
  837MOL0     H10480   4.037   8.132   3.089 -0.4444 -2.2196  0.3361
  837MOL0     H10481   4.141   7.986   3.115  3.0285 -0.4398  1.7524
  837MOL0     H10482   4.110   8.241   3.446  1.0339  3.4290 -1.7754
  837MOL0     H10483   4.849   8.118   3.093  3.2470 -1.4817  0.3552
  837MOL0     H10484   4.992   7.937   3.099  0.4906  1.7419 -1.0282
  838MOL0     O10485  11.437   2.479   1.874 -0.3109  0.5094 -0.6510
  838MOL0     C10486  11.477   2.378   1.829  0.7359 -0.6071 -0.7876
  838MOL0     O10487  11.418   2.254   1.851 -0.9913 -0.6035  0.0663
  838MOL0     C10488  11.302   2.231   1.923 -0.3645 -0.1889  0.3535
  838MOL0     C10489  11.289   2.250   2.059  0.6559 -0.2843  0.1963
  838MOL0     C10490  11.177   2.214   2.130  0.2902  0.2412  0.7593
  838MOL0     C10491  11.068   2.153   2.057 -0.1068 -0.3133 -0.1776
  838MOL0     O10492  10.964   2.102   2.123 -0.0463  0.0050 -0.6225
  838MOL0     C10493  10.842   2.048   2.068  0.3394  1.0619  0.0385
  838MOL0     C10494  10.760   1.975   2.185  0.6556  0.0015  0.1140
  838MOL0     C10495  10.708   2.082   2.280 -0.5010 -0.8897  0.5725
  838MOL0     C10496  10.598   2.016   2.374  0.0821 -0.6017 -0.1324
  838MOL0     C10497  10.469   2.099   2.376 -0.8904 -0.0704  0.3832
  838MOL0     C10498  10.350   2.019   2.427  0.3471  0.3810 -0.4487
  838MOL0     C10499  10.281   1.949   2.309 -0.9039 -0.0328 -0.0177
  838MOL0     C10500  10.162   1.865   2.348 -0.0345  0.5507 -0.5809
  838MOL0     N10501  10.174   1.784   2.464 -1.0076 -0.4918 -0.8077
  838MOL0     C10502  10.248   1.664   2.476  0.0511  0.2434 -1.0681
  838MOL0     C10503  10.215   1.636   2.613 -0.3257 -0.2681  0.4084
  838MOL0     C10504  10.266   1.521   2.701  0.5790 -0.8902  0.5712
  838MOL0     C10505  10.396   1.559   2.768 -0.3373  0.5123 -0.8290
  838MOL0     C10506  10.396   1.701   2.836  0.2645 -0.3184  0.0569
  838MOL0     C10507  10.283   1.753   2.931  0.3488  0.5131 -0.3864
  838MOL0     O10508  10.327   1.761   3.069  0.0850  0.7127  0.4150
  838MOL0     C10509  10.262   1.824   3.173 -1.4490 -0.1588  0.3068
  838MOL0     C10510  10.304   1.801   3.303  0.1472 -0.5293 -0.9624
  838MOL0     C10511  10.226   1.851   3.412  0.7844 -0.2185  1.0597
  838MOL0     C10512  10.122   1.941   3.380  0.5264  0.0851 -0.8770
  838MOL0     C10513  10.061   2.002   3.503 -0.3283 -0.3097  0.1806
  838MOL0     O10514   9.959   2.082   3.471 -0.3727  0.3663 -0.1715
  838MOL0     C10515   9.875   2.140   3.570 -0.6310 -0.0490  0.4759
  838MOL0     C10516   9.816   2.060   3.662  1.1562 -0.5134 -0.0433
  838MOL0     C10517   9.722   2.101   3.761 -0.1659 -0.1678  0.6259
  838MOL0     C10518   9.695   2.237   3.784 -0.8036  0.9711  0.1675
  838MOL0     O10519   9.614   2.283   3.881 -1.1765 -0.0734 -0.8589
  838MOL0     C10520   9.547   2.196   3.972  0.8969  0.5687  0.5262
  838MOL0     C10521   9.405   2.157   3.925  0.1725 -0.3910 -1.6533
  838MOL0     C10522   9.334   2.092   4.046  0.4730 -0.6911 -0.0549
  838MOL0     C10523   9.186   2.049   4.019 -0.3363 -0.3446 -0.3202
  838MOL0     C10524   9.109   2.022   4.154 -0.1775  0.5094 -0.2011
  838MOL0     C10525   8.975   1.954   4.128  0.3092  0.7881  0.6546
  838MOL0     C10526   8.887   1.954   4.246 -0.9524 -0.3685 -0.2468
  838MOL0     C10527   8.928   1.860   4.360  0.1301  0.9836  0.5496
  838MOL0    Cl10528   8.918   1.692   4.309 -0.2394  0.1564  0.4046
  838MOL0     C10529   9.751   2.319   3.686 -0.6851  0.4580 -0.1577
  838MOL0     C10530   9.836   2.271   3.583  0.0588 -0.7628 -0.3598
  838MOL0     O10531  10.102   1.983   3.618  0.0550  0.1258 -0.1960
  838MOL0     C10532  10.075   1.962   3.255  0.0456 -0.1568  0.3322
  838MOL0     C10533  10.152   1.910   3.146  0.1624  0.8733  0.2896
  838MOL0     N10534  10.132   1.740   2.665  0.0541 -0.4858 -0.1639
  838MOL0     N10535  10.103   1.825   2.577  0.1731  0.1198  0.3064
  838MOL0     C10536  11.081   2.138   1.917 -1.0352 -0.3112  0.2435
  838MOL0     C10537  11.195   2.177   1.852  0.1732 -0.5384 -0.7082
  838MOL0     C10538  11.583   2.392   1.743 -0.5366 -0.5642  1.4465
  838MOL0     C10539  11.672   2.283   1.727  1.0356  0.7517 -0.6139
  838MOL0     C10540  11.783   2.295   1.646 -0.2386  0.3529 -0.4842
  838MOL0     C10541  11.816   2.419   1.580  0.3612  0.4717 -0.2633
  838MOL0     O10542  11.934   2.445   1.507  0.3493  0.5016  0.4385
  838MOL0     C10543  12.052   2.428   1.583 -0.6625  0.2049  0.6471
  838MOL0     C10544  12.170   2.357   1.508 -0.3098  0.2827  0.5735
  838MOL0     C10545  12.247   2.451   1.409  1.0896 -0.3112  0.1095
  838MOL0     C10546  12.376   2.395   1.367  0.0472  0.7083  0.5525
  838MOL0     C10547  12.468   2.385   1.476  0.2837 -0.6453 -0.2324
  838MOL0     C10548  12.538   2.364   1.581  0.2602  0.6292  0.0881
  838MOL0     C10549  11.725   2.530   1.603 -0.2130 -0.4258 -0.6099
  838MOL0     C10550  11.620   2.517   1.686  0.2641 -0.4543 -0.1542
  838MOL0     H10551  11.368   2.286   2.124 -0.3561  0.3229  1.1246
  838MOL0     H10552  11.175   2.208   2.239  3.8791  1.8555  1.0687
  838MOL0     H10553  10.858   1.968   1.995  2.2646  0.0277  1.4835
  838MOL0     H10554  10.767   2.116   2.026 -0.1491  0.2463 -0.4433
  838MOL0     H10555  10.826   1.907   2.238 -0.5933 -3.2100 -2.1738
  838MOL0     H10556  10.665   1.930   2.156  0.1704  0.9947  0.0861
  838MOL0     H10557  10.655   2.164   2.230  0.1436 -0.3447  0.7759
  838MOL0     H10558  10.796   2.115   2.335 -0.6194  1.8536 -0.7119
  838MOL0     H10559  10.569   1.916   2.338 -1.5178  0.1152 -0.9506
  838MOL0     H10560  10.633   1.996   2.476  0.8525 -2.9891 -0.7939
  838MOL0     H10561  10.444   2.143   2.280 -2.3561 -1.2555  0.1910
  838MOL0     H10562  10.490   2.182   2.445 -1.6054 -0.8827  1.6281
  838MOL0     H10563  10.278   2.090   2.472  2.1835  0.0839  3.3662
  838MOL0     H10564  10.367   1.944   2.505  0.4193  0.4319 -0.4159
  838MOL0     H10565  10.243   2.023   2.237  0.4664  2.6276  1.8148
  838MOL0     H10566  10.351   1.883   2.257 -1.5166 -1.1813  0.5756
  838MOL0     H10567  10.152   1.803   2.259 -1.1632  1.2799 -0.9807
  838MOL0     H10568  10.075   1.929   2.367  0.7348  2.6522 -3.4213
  838MOL0     H10569  10.306   1.625   2.392  1.1709  0.5220 -0.4403
  838MOL0     H10570  10.285   1.440   2.631  0.8996 -1.1521  0.9604
  838MOL0     H10571  10.189   1.491   2.773  0.3068  0.5326  0.9038
  838MOL0     H10572  10.477   1.554   2.694 -0.5621 -1.7185 -0.9962
  838MOL0     H10573  10.428   1.491   2.848 -4.0631  0.5073  0.8563
  838MOL0     H10574  10.486   1.699   2.897 -0.3698 -1.3281  0.9927
  838MOL0     H10575  10.413   1.757   2.743 -1.2277  1.0296  0.5495
  838MOL0     H10576  10.195   1.692   2.911  2.2200 -2.0469 -1.4313
  838MOL0     H10577  10.258   1.857   2.906 -0.5960  0.2700 -0.4656
  838MOL0     H10578  10.380   1.731   3.336  1.3815  1.7311  1.3263
  838MOL0     H10579  10.256   1.824   3.513  0.1756  0.6904  1.4949
  838MOL0     H10580   9.824   1.953   3.646 -1.3569 -0.9194  1.0124
  838MOL0     H10581   9.680   2.021   3.821  2.8564  1.0717  4.8655
  838MOL0     H10582   9.532   2.242   4.071 -1.9069 -0.9828  0.9172
  838MOL0     H10583   9.604   2.106   3.996 -0.5338 -1.0715 -1.8924
  838MOL0     H10584   9.414   2.083   3.844  0.9408 -1.1986 -0.8484
  838MOL0     H10585   9.348   2.241   3.884 -1.4937  0.0726  1.3403
  838MOL0     H10586   9.333   2.176   4.117 -1.9864 -0.8248  0.1791
  838MOL0     H10587   9.392   2.005   4.074 -0.8608 -1.3678  0.6975
  838MOL0     H10588   9.127   2.124   3.965 -0.6961 -0.7761 -0.5335
  838MOL0     H10589   9.169   1.962   3.955 -2.7210  1.6995 -2.7269
  838MOL0     H10590   9.100   2.104   4.226  1.0398  1.1844 -0.7891
  838MOL0     H10591   9.157   1.941   4.210 -4.1034 -1.7511  0.2756
  838MOL0     H10592   8.988   1.848   4.103  1.1638  1.1290 -0.4526
  838MOL0     H10593   8.923   2.004   4.045 -1.8969  3.1549  3.2610
  838MOL0     H10594   8.878   2.058   4.278 -0.2008 -0.5429  0.5467
  838MOL0     H10595   8.791   1.916   4.209 -0.0105 -2.5907 -0.5640
  838MOL0     H10596   8.849   1.867   4.436 -1.2076  2.1383 -0.8770
  838MOL0     H10597   9.020   1.897   4.406  0.5782  3.6330 -2.1980
  838MOL0     H10598   9.746   2.427   3.691  0.0021  0.4304  2.1918
  838MOL0     H10599   9.874   2.328   3.499  0.2465  1.0112  0.8757
  838MOL0     H10600   9.982   2.013   3.232  0.9358  0.5204 -2.1139
  838MOL0     H10601  10.115   1.929   3.045  1.4920  1.9683 -0.0214
  838MOL0     H10602  11.006   2.095   1.851 -1.5315 -0.6790  1.0291
  838MOL0     H10603  11.191   2.162   1.745 -0.7161  1.4320 -1.0028
  838MOL0     H10604  11.655   2.208   1.804 -1.9565  1.3655 -0.5480
  838MOL0     H10605  11.852   2.215   1.626 -1.3247 -0.6749 -0.2148
  838MOL0     H10606  12.033   2.363   1.669  2.1365  0.8388  1.8452
  838MOL0     H10607  12.093   2.518   1.629  2.3854 -2.5665  3.9191
  838MOL0     H10608  12.241   2.315   1.580  1.9398  2.7440 -0.0022
  838MOL0     H10609  12.125   2.274   1.454  0.6498 -1.7737  2.7311
  838MOL0     H10610  12.259   2.544   1.466  0.8364 -2.2993  3.6856
  838MOL0     H10611  12.182   2.471   1.323  1.1884  2.2833  0.5439
  838MOL0     H10612  12.367   2.294   1.325  0.3102 -1.1920  4.6665
  838MOL0     H10613  12.429   2.458   1.295 -1.7006  0.0152 -1.4646
  838MOL0     H10614  12.589   2.344   1.673 -2.3129 -1.8083  1.1518
  838MOL0     H10615  11.757   2.628   1.567  0.8001 -0.3435  0.4617
  838MOL0     H10616  11.552   2.601   1.695 -1.2922 -1.7150  0.2108
  839MOL0     O10617   5.986   7.156  11.165 -0.0746 -0.3518  0.7734
  839MOL0     C10618   5.917   7.143  11.262  0.1585 -0.0228 -0.8136
  839MOL0     O10619   5.817   7.225  11.304  0.2071 -0.2650 -0.7881
  839MOL0     C10620   5.752   7.300  11.215 -0.7768 -0.6442  0.4933
  839MOL0     C10621   5.739   7.273  11.073  0.3707 -0.1237 -0.2426
  839MOL0     C10622   5.638   7.348  11.002  0.3716 -0.0123 -0.1381
  839MOL0     C10623   5.568   7.454  11.065  0.0616  0.2233  0.0237
  839MOL0     O10624   5.487   7.530  10.989  0.3207 -1.7676 -0.1674
  839MOL0     C10625   5.521   7.668  10.972  0.8086 -0.1310 -0.2180
  839MOL0     C10626   5.560   7.683  10.825  0.2259 -0.3944  0.3142
  839MOL0     C10627   5.604   7.822  10.816 -0.0085  0.4066  0.2245
  839MOL0     C10628   5.634   7.849  10.665 -0.0703 -0.2442 -0.7137
  839MOL0     C10629   5.626   7.996  10.632 -0.2764 -0.4305  0.0614
  839MOL0     C10630   5.745   8.084  10.678  0.1779 -0.8345 -1.2375
  839MOL0     C10631   5.874   8.057  10.599  1.1979  0.2725  0.7416
  839MOL0     C10632   5.868   8.083  10.449 -0.3334  0.6410  0.6142
  839MOL0     N10633   5.845   8.222  10.403  0.0982 -0.0933 -0.4851
  839MOL0     C10634   5.938   8.316  10.410  0.0552 -0.1470  0.1403
  839MOL0     C10635   5.894   8.433  10.358  0.9618 -0.5418 -0.1980
  839MOL0     C10636   5.970   8.566  10.341 -0.3436  0.9636  0.4230
  839MOL0     C10637   5.900   8.687  10.411  0.5090  0.0607  0.1443
  839MOL0     C10638   5.964   8.806  10.342  0.6073 -0.6125  1.0245
  839MOL0     C10639   5.903   8.842  10.203 -0.0819 -0.0012  0.1502
  839MOL0     O10640   5.846   8.966  10.204  0.2576 -0.5807  0.2040
  839MOL0     C10641   5.709   8.972  10.191 -0.1661  0.7679  0.0989
  839MOL0     C10642   5.656   9.015  10.080 -0.8651  0.4195 -0.1846
  839MOL0     C10643   5.521   9.007  10.054  1.5184  0.0340 -0.8912
  839MOL0     C10644   5.434   8.945  10.150  0.1465  0.2757 -0.4281
  839MOL0     C10645   5.291   8.931  10.140  0.0722  0.3542 -0.4528
  839MOL0     O10646   5.223   8.892  10.261 -0.0606 -0.4652 -0.4932
  839MOL0     C10647   5.093   8.865  10.251  0.3819 -0.5855 -0.5605
  839MOL0     C10648   5.007   8.928  10.337  0.4138 -0.1378  1.0372
  839MOL0     C10649   4.864   8.926  10.339  0.4275  0.6330 -0.3378
  839MOL0     C10650   4.811   8.835  10.250  0.1282 -0.3793  0.1863
  839MOL0     O10651   4.676   8.816  10.249 -0.2102 -0.6385 -0.6234
  839MOL0     C10652   4.590   8.933  10.243  0.3136  0.3280  0.0436
  839MOL0     C10653   4.438   8.892  10.197  0.4739  0.0629  0.6429
  839MOL0     C10654   4.392   8.769  10.259  0.1279  0.5851 -0.1554
  839MOL0     C10655   4.380   8.783  10.419  0.6257 -0.2584  0.4458
  839MOL0     C10656   4.238   8.839  10.443  0.0089 -0.1608 -0.3938
  839MOL0     C10657   4.208   8.862  10.591  1.0354 -0.5281 -0.3117
  839MOL0     C10658   4.098   8.978  10.608  0.1509 -0.2932  0.0743
  839MOL0     C10659   4.022   8.973  10.746  0.3693 -0.0223  0.0630
  839MOL0    Cl10660   3.915   9.114  10.757 -0.4813  0.2187  0.1592
  839MOL0     C10661   4.892   8.759  10.159 -1.1023  0.6292 -0.0929
  839MOL0     C10662   5.029   8.776  10.156 -1.8010 -0.7426  0.5877
  839MOL0     O10663   5.227   8.984  10.042  0.0913  0.0149  0.0560
  839MOL0     C10664   5.499   8.898  10.268  0.4832 -0.6097  0.1176
  839MOL0     C10665   5.635   8.912  10.287  0.6015 -0.3478 -0.8201
  839MOL0     N10666   5.759   8.412  10.327 -1.6910  0.2268 -0.1934
  839MOL0     N10667   5.732   8.286  10.345 -0.2731  0.2603 -0.4940
  839MOL0     C10668   5.605   7.490  11.197  0.1654 -0.5992  0.6925
  839MOL0     C10669   5.686   7.402  11.269 -0.2191  0.8170 -0.2972
  839MOL0     C10670   5.956   7.035  11.364 -0.0448  0.0898  0.4245
  839MOL0     C10671   6.067   6.957  11.343  1.1276 -1.0368  0.2572
  839MOL0     C10672   6.105   6.852  11.430  0.0659 -0.1474 -0.6185
  839MOL0     C10673   6.035   6.823  11.550 -0.1540  0.0016  0.4246
  839MOL0     O10674   6.063   6.734  11.654 -0.1769 -0.9255  0.2598
  839MOL0     C10675   6.147   6.623  11.621 -0.7095  0.4254  0.3787
  839MOL0     C10676   6.130   6.494  11.699 -0.4168 -0.3895  0.1243
  839MOL0     C10677   6.219   6.469  11.818  0.5662  0.1461 -0.1717
  839MOL0     C10678   6.203   6.343  11.892 -0.0615 -0.3312 -0.4469
  839MOL0     C10679   6.247   6.230  11.809 -0.5445 -0.0555  0.1826
  839MOL0     C10680   6.264   6.131  11.743 -0.3486 -0.5749 -0.4179
  839MOL0     C10681   5.927   6.906  11.573  0.7833  0.6994  0.4860
  839MOL0     C10682   5.886   7.010  11.483  0.5669 -0.3831 -0.1711
  839MOL0     H10683   5.781   7.184  11.028 -2.4126 -0.9900 -1.3469
  839MOL0     H10684   5.618   7.331  10.897  0.0544 -0.6740  0.0309
  839MOL0     H10685   5.610   7.694  11.030  1.4460 -3.0065  0.2517
  839MOL0     H10686   5.438   7.733  11.002  1.2034 -1.5343  4.9925
  839MOL0     H10687   5.486   7.649  10.752  0.2629  1.7358 -0.7880
  839MOL0     H10688   5.653   7.630  10.802  2.4065  2.4334  1.9164
  839MOL0     H10689   5.698   7.834  10.869  0.8809 -4.1176  0.0640
  839MOL0     H10690   5.527   7.883  10.865  0.1009 -0.8975  2.1112
  839MOL0     H10691   5.733   7.807  10.647 -0.4034 -1.5234  0.3072
  839MOL0     H10692   5.548   7.808  10.610 -2.4869  1.8221  1.2888
  839MOL0     H10693   5.539   8.038  10.682  0.2397 -0.4432  0.9970
  839MOL0     H10694   5.616   8.018  10.525  0.6204 -2.7403 -0.5602
  839MOL0     H10695   5.763   8.076  10.786 -0.6692 -2.7416 -1.2028
  839MOL0     H10696   5.707   8.185  10.663 -2.3281 -1.5003  0.1237
  839MOL0     H10697   5.949   8.124  10.642  2.0868 -0.9583  1.1629
  839MOL0     H10698   5.899   7.953  10.621 -2.2025 -1.2908 -1.8928
  839MOL0     H10699   5.784   8.021  10.417 -1.2446  1.6185  1.0316
  839MOL0     H10700   5.957   8.043  10.401 -2.1966 -1.0045 -1.7043
  839MOL0     H10701   6.040   8.289  10.438 -1.5516 -3.8075  3.2492
  839MOL0     H10702   5.957   8.592  10.236  0.5345  2.1345  0.5819
  839MOL0     H10703   6.077   8.557  10.362 -0.2046  3.1432  0.9289
  839MOL0     H10704   5.930   8.684  10.516 -3.0348  1.6237  1.3726
  839MOL0     H10705   5.790   8.688  10.409  0.4603  2.9218 -0.9948
  839MOL0     H10706   5.935   8.892  10.402  0.0806  2.3353 -3.0490
  839MOL0     H10707   6.073   8.796  10.347  1.0631  2.6134 -0.1672
  839MOL0     H10708   5.837   8.762  10.168 -2.6613  2.2287 -0.3832
  839MOL0     H10709   5.988   8.834  10.134  3.5651 -0.9596  4.2681
  839MOL0     H10710   5.726   9.051  10.005 -1.7990  2.0489 -0.3354
  839MOL0     H10711   5.487   9.041   9.957  1.0241 -1.5196 -1.3029
  839MOL0     H10712   5.048   8.999  10.408 -1.2753  0.5122  1.4037
  839MOL0     H10713   4.817   8.992  10.411  0.4302 -1.2808  1.4826
  839MOL0     H10714   4.630   9.013  10.180  1.5474 -0.1286  0.2170
  839MOL0     H10715   4.598   8.978  10.342  3.6910  0.6043 -0.2300
  839MOL0     H10716   4.428   8.876  10.089 -0.8516  3.6774  0.0882
  839MOL0     H10717   4.371   8.968  10.238  1.0339  1.3326 -0.6977
  839MOL0     H10718   4.464   8.689  10.237 -1.5766 -0.8545 -0.7354
  839MOL0     H10719   4.294   8.747  10.216  0.2628 -2.2410  0.7653
  839MOL0     H10720   4.375   8.680  10.454  1.6905 -1.6938 -3.1844
  839MOL0     H10721   4.465   8.835  10.465  2.5898 -2.7643 -0.1488
  839MOL0     H10722   4.165   8.772  10.397  2.0766 -1.0332 -2.6916
  839MOL0     H10723   4.231   8.934  10.389 -0.0333 -0.1330 -0.3382
  839MOL0     H10724   4.298   8.892  10.646 -0.4575  2.4332  0.7548
  839MOL0     H10725   4.171   8.767  10.632  1.2751 -1.9954 -3.2718
  839MOL0     H10726   4.162   9.066  10.614 -1.8397  1.3193 -0.8953
  839MOL0     H10727   4.039   9.002  10.518  2.8325 -1.7816 -2.2440
  839MOL0     H10728   4.098   8.970  10.825  0.9081 -0.2469 -0.4548
  839MOL0     H10729   3.958   8.886  10.764 -2.6813  2.3365  1.4339
  839MOL0     H10730   4.846   8.682  10.097  0.2655  1.0678 -1.7214
  839MOL0     H10731   5.090   8.721  10.086  2.1929  0.9797  2.3968
  839MOL0     H10732   5.437   8.859  10.348 -2.6521  0.6440 -1.5396
  839MOL0     H10733   5.686   8.883  10.378 -0.2716  1.0004  0.1464
  839MOL0     H10734   5.567   7.585  11.233  0.8136  0.5010 -1.3817
  839MOL0     H10735   5.691   7.424  11.375  1.8603 -0.4167 -0.0843
  839MOL0     H10736   6.119   6.959  11.247 -0.5958 -2.8157 -0.8054
  839MOL0     H10737   6.198   6.796  11.422 -0.1215 -0.3806 -1.1848
  839MOL0     H10738   6.246   6.662  11.649  0.2234 -0.0736 -1.9451
  839MOL0     H10739   6.147   6.600  11.514  0.6945  0.1132  0.4273
  839MOL0     H10740   6.025   6.482  11.729  0.0708 -0.3474  1.9270
  839MOL0     H10741   6.136   6.416  11.623 -4.8454 -0.1234 -0.7833
  839MOL0     H10742   6.196   6.549  11.889  0.2379  0.2342 -0.3772
  839MOL0     H10743   6.327   6.473  11.798  0.5794  3.2765  0.0548
  839MOL0     H10744   6.253   6.343  11.990  1.2097  2.0899 -1.0236
  839MOL0     H10745   6.096   6.329  11.909 -0.5262  0.3592 -2.5502
  839MOL0     H10746   6.279   6.040  11.688  1.5548 -1.7548  1.8969
  839MOL0     H10747   5.865   6.892  11.660 -3.7467  1.6017 -2.2770
  839MOL0     H10748   5.808   7.079  11.514  3.4549  1.7515  3.0694
  840MOL0     O10749   9.960  11.390  10.045 -0.8091  0.6830 -0.4391
  840MOL0     C10750   9.890  11.340   9.959  0.3416 -0.6970  0.2772
  840MOL0     O10751   9.849  11.408   9.845 -0.7061 -0.2344  1.2410
  840MOL0     C10752   9.895  11.535   9.811  0.8186 -0.8186 -0.2868
  840MOL0     C10753   9.808  11.633   9.756  0.0532  0.4710  0.1654
  840MOL0     C10754   9.861  11.760   9.708  0.4696  0.5744 -0.1159
  840MOL0     C10755   9.992  11.795   9.716 -0.1681 -0.5612  0.6255
  840MOL0     O10756  10.003  11.927   9.677  0.0209  0.4929 -0.5350
  840MOL0     C10757  10.135  11.986   9.707 -0.0186  0.2927  0.4420
  840MOL0     C10758  10.114  12.130   9.705  0.8755 -0.2033  0.5584
  840MOL0     C10759  10.068  12.180   9.566 -0.0778  0.4782 -0.9506
  840MOL0     C10760  10.070  12.331   9.547 -1.2286 -0.6705 -0.3212
  840MOL0     C10761  10.060  12.370   9.400 -0.3256 -0.4632 -0.5891
  840MOL0     C10762  10.061  12.524   9.401 -0.5615  0.0157  1.0771
  840MOL0     C10763  10.083  12.583   9.259 -0.5270  0.4784  0.4950
  840MOL0     C10764   9.968  12.531   9.161 -0.2542 -0.2935 -0.1210
  840MOL0     N10765   9.955  12.609   9.027  0.0796 -0.2243 -0.9736
  840MOL0     C10766  10.048  12.672   8.953  0.4426  0.1081  0.4667
  840MOL0     C10767   9.977  12.736   8.859 -0.0116 -0.1664  0.7966
  840MOL0     C10768  10.044  12.838   8.769 -0.0884  0.6408  0.3315
  840MOL0     C10769  10.046  12.810   8.614  0.7759  0.5660 -0.2576
  840MOL0     C10770  10.124  12.922   8.537  0.3106 -0.1085 -0.2285
  840MOL0     C10771  10.270  12.927   8.570 -0.3520  0.5882 -0.2619
  840MOL0     O10772  10.307  12.787   8.584 -0.6153 -0.7704 -0.0364
  840MOL0     C10773  10.413  12.776   8.672 -0.3669 -0.1422 -0.3981
  840MOL0     C10774  10.513  12.883   8.706  0.0936  0.7226 -0.4171
  840MOL0     C10775  10.614  12.854   8.796 -0.1519  0.5902  0.3205
  840MOL0     C10776  10.622  12.733   8.866  0.1127  0.2055 -0.6698
  840MOL0     C10777  10.732  12.720   8.963 -0.6932 -0.7453  0.2206
  840MOL0     O10778  10.740  12.610   9.034 -0.2593  0.3904  0.5851
  840MOL0     C10779  10.846  12.603   9.124 -0.1426 -0.6509 -0.4500
  840MOL0     C10780  10.952  12.512   9.108  1.0278  0.6629  0.1425
  840MOL0     C10781  11.057  12.504   9.199  0.2494 -0.5475  0.1123
  840MOL0     C10782  11.052  12.586   9.309 -0.0166  0.5780 -0.2692
  840MOL0     O10783  11.147  12.572   9.405 -0.1695  0.1362  0.7095
  840MOL0     C10784  11.160  12.435   9.452 -0.0708  0.5393  0.1095
  840MOL0     C10785  11.216  12.425   9.588 -0.4265 -0.0737 -0.1461
  840MOL0     C10786  11.129  12.356   9.693  0.0811 -0.3544  0.6894
  840MOL0     C10787  11.083  12.211   9.665  0.0155 -0.3500 -0.0133
  840MOL0     C10788  10.994  12.153   9.777  0.4153  0.5985  0.5489
  840MOL0     C10789  10.936  12.013   9.726  1.0009  0.3901 -0.9674
  840MOL0     C10790  11.036  11.888   9.742  0.2607  0.8854  0.2407
  840MOL0     C10791  11.013  11.809   9.866 -0.5706 -0.0513  0.0686
  840MOL0    Cl10792  11.174  11.721   9.916 -0.1361  0.1852  0.1670
  840MOL0     C10793  10.953  12.681   9.333  0.4131  0.4071  0.3655
  840MOL0     C10794  10.841  12.684   9.237 -0.2220  1.1825 -0.6866
  840MOL0     O10795  10.819  12.812   8.966  0.4942 -0.0772  0.3796
  840MOL0     C10796  10.514  12.639   8.845  0.5131  0.6093  0.0099
  840MOL0     C10797  10.415  12.663   8.751  0.0005 -0.1688 -0.7532
  840MOL0     N10798   9.850  12.696   8.860 -0.5574 -0.6314  0.3970
  840MOL0     N10799   9.844  12.615   8.959  0.8717  0.2284  0.1618
  840MOL0     C10800  10.079  11.690   9.757  0.1802 -0.3764  0.5811
  840MOL0     C10801  10.035  11.570   9.809  0.5829 -0.2724 -0.4357
  840MOL0     C10802   9.852  11.199   9.985 -1.1834 -0.1459  0.5167
  840MOL0     C10803   9.762  11.130   9.895  0.2063  1.3850  0.0956
  840MOL0     C10804   9.739  10.994   9.917  0.3765  0.2685  0.0787
  840MOL0     C10805   9.794  10.930  10.028  1.0368  0.0853 -0.1029
  840MOL0     O10806   9.754  10.797  10.041 -0.7138  0.1302 -0.2302
  840MOL0     C10807   9.789  10.702  10.145 -0.4569  0.5938 -0.7520
  840MOL0     C10808   9.715  10.566  10.134  0.6740 -0.2924  0.2554
  840MOL0     C10809   9.764  10.444  10.222  0.1814  0.6875 -0.8888
  840MOL0     C10810   9.684  10.318  10.200 -0.5128  0.4045  0.5038
  840MOL0     C10811   9.700  10.210  10.307  0.0643 -0.1504 -0.4555
  840MOL0     C10812   9.713  10.141  10.397  0.0278 -0.2057 -0.4915
  840MOL0     C10813   9.881  10.994  10.119 -1.0583 -0.6134  0.0015
  840MOL0     C10814   9.914  11.131  10.096 -0.5639 -0.1823  0.5190
  840MOL0     H10815   9.703  11.607   9.749  0.0120  0.2210  1.5505
  840MOL0     H10816   9.787  11.834   9.680 -2.4136 -1.8421  0.5425
  840MOL0     H10817  10.205  11.956   9.628 -3.7227 -2.8248 -2.0541
  840MOL0     H10818  10.168  11.948   9.804 -0.5311  1.0101  0.9051
  840MOL0     H10819  10.213  12.172   9.728 -0.1230  1.2393  2.5397
  840MOL0     H10820  10.054  12.164   9.790  2.2540  0.6188  1.2611
  840MOL0     H10821   9.967  12.151   9.538  0.8327 -1.4320 -2.5481
  840MOL0     H10822  10.131  12.134   9.489  2.2760  1.8147  0.0454
  840MOL0     H10823   9.984  12.373   9.599 -0.5516 -0.7830  0.9268
  840MOL0     H10824  10.156  12.379   9.595  0.0078 -2.4151 -0.6729
  840MOL0     H10825   9.967  12.336   9.356 -1.3807  2.1454 -0.5251
  840MOL0     H10826  10.151  12.341   9.347  0.2163  0.4347 -0.1790
  840MOL0     H10827  10.137  12.576   9.460 -0.9165  3.0907 -0.9088
  840MOL0     H10828   9.962  12.556   9.435 -1.8088 -0.9476 -1.3757
  840MOL0     H10829  10.105  12.691   9.257 -0.9095  0.5565 -0.7800
  840MOL0     H10830  10.173  12.533   9.223 -1.2456  0.8016 -1.9758
  840MOL0     H10831   9.873  12.539   9.215  0.4517  1.9562  0.9061
  840MOL0     H10832   9.986  12.426   9.137  0.2362 -0.1992 -0.1720
  840MOL0     H10833  10.155  12.680   8.970  0.5810 -1.4505  0.4655
  840MOL0     H10834  10.149  12.841   8.800 -1.0881 -2.1538  5.0018
  840MOL0     H10835   9.987  12.930   8.789 -4.2015 -1.9572  1.8205
  840MOL0     H10836   9.943  12.809   8.578  0.8760  0.2608 -0.5444
  840MOL0     H10837  10.086  12.711   8.590 -1.6131  0.2935 -3.8586
  840MOL0     H10838  10.118  12.896   8.431  2.2975  1.1820 -0.6896
  840MOL0     H10839  10.075  13.014   8.569 -0.0472 -1.2021  2.7501
  840MOL0     H10840  10.299  12.994   8.651  2.1123  0.0308 -0.5905
  840MOL0     H10841  10.323  12.966   8.483  0.3616 -0.4923 -0.3323
  840MOL0     H10842  10.517  12.977   8.652 -0.9784  0.5930 -0.7413
  840MOL0     H10843  10.687  12.932   8.813  1.2704 -0.4628 -0.6105
  840MOL0     H10844  10.940  12.445   9.024  1.5129  0.4634  0.2330
  840MOL0     H10845  11.139  12.438   9.172  4.2773  2.6426  3.2315
  840MOL0     H10846  11.233  12.387   9.387 -1.6369  2.2022 -3.0818
  840MOL0     H10847  11.068  12.375   9.453 -0.5733  1.2709  1.9463
  840MOL0     H10848  11.258  12.520   9.621  2.3058 -0.9575 -0.8301
  840MOL0     H10849  11.311  12.373   9.579 -0.0254  0.9219 -2.4744
  840MOL0     H10850  11.037  12.413   9.709  0.9240  0.8405  1.4446
  840MOL0     H10851  11.181  12.365   9.789  4.6693 -0.1654 -1.5481
  840MOL0     H10852  11.010  12.214   9.583 -1.5404  1.7733  1.3484
  840MOL0     H10853  11.166  12.142   9.646 -0.3207 -0.2691 -1.9410
  840MOL0     H10854  10.907  12.219   9.779 -1.4065 -1.5633 -1.8175
  840MOL0     H10855  11.045  12.148   9.874 -0.0203  3.1647  0.9720
  840MOL0     H10856  10.889  12.010   9.628 -0.3661 -1.8179 -0.3093
  840MOL0     H10857  10.852  12.008   9.795  2.2346 -1.3169  0.4809
  840MOL0     H10858  11.011  11.827   9.655  0.0906  2.2435 -0.7015
  840MOL0     H10859  11.141  11.919   9.736  0.3491  0.3969 -1.0647
  840MOL0     H10860  10.922  11.749   9.864 -1.7815  1.6297  1.8797
  840MOL0     H10861  11.008  11.877   9.951  1.3083 -0.3834  0.4963
  840MOL0     H10862  10.961  12.746   9.420  3.0813 -0.9327  1.2317
  840MOL0     H10863  10.784  12.776   9.240  0.6881  1.7612 -0.7938
  840MOL0     H10864  10.511  12.555   8.913 -1.0634  0.9480  0.3982
  840MOL0     H10865  10.334  12.591   8.752  1.0092 -1.3633  1.0505
  840MOL0     H10866  10.186  11.700   9.746 -0.0175  0.8622 -0.6027
  840MOL0     H10867  10.099  11.489   9.841  2.9941  1.3500 -0.8366
  840MOL0     H10868   9.711  11.178   9.812  1.2055  2.2064 -0.0691
  840MOL0     H10869   9.682  10.934   9.848  0.5989  0.1739 -0.0223
  840MOL0     H10870   9.752  10.741  10.240 -1.2835  0.0813 -0.8485
  840MOL0     H10871   9.894  10.672  10.147 -0.3610  0.6694 -2.7220
  840MOL0     H10872   9.608  10.583  10.141  0.8340  0.1251  2.6968
  840MOL0     H10873   9.741  10.531  10.033  0.9988 -2.3215  0.9969
  840MOL0     H10874   9.752  10.462  10.330  0.8305  1.0245 -0.8702
  840MOL0     H10875   9.871  10.430  10.210  0.1246 -0.8613  0.0027
  840MOL0     H10876   9.580  10.342  10.176 -1.5181 -3.0657  0.7185
  840MOL0     H10877   9.708  10.270  10.105 -2.9383 -0.7681  0.3948
  840MOL0     H10878   9.720  10.086  10.489 -2.2769 -1.9706 -1.3040
  840MOL0     H10879   9.921  10.934  10.201  2.3818 -1.2028 -1.9270
  840MOL0     H10880   9.972  11.174  10.177  3.9922 -2.9236 -0.9402
  841MOL0     O10881   5.762   3.284   4.332  0.3556  1.0173  0.3531
  841MOL0     C10882   5.725   3.402   4.296 -0.5314  0.2464 -0.3482
  841MOL0     O10883   5.751   3.516   4.356 -0.0368  0.1587  0.3191
  841MOL0     C10884   5.851   3.532   4.449  1.3860 -0.2028  0.3110
  841MOL0     C10885   5.971   3.538   4.408  0.1313  1.0447 -0.4859
  841MOL0     C10886   6.074   3.562   4.498  0.1675 -0.1281 -0.1825
  841MOL0     C10887   6.055   3.598   4.627 -1.3728  0.3419 -0.8224
  841MOL0     O10888   6.161   3.637   4.710  0.6336  0.9108  0.0471
  841MOL0     C10889   6.251   3.528   4.737  0.3670  0.3601  0.4545
  841MOL0     C10890   6.257   3.500   4.877  0.0875 -0.6947 -0.3845
  841MOL0     C10891   6.370   3.404   4.907 -0.4973  0.7222  0.3603
  841MOL0     C10892   6.504   3.465   4.890 -0.2236  0.1574 -0.6971
  841MOL0     C10893   6.607   3.425   4.992 -0.0305  0.3875  0.6514
  841MOL0     C10894   6.734   3.500   4.970 -0.2494 -0.1267 -0.5879
  841MOL0     C10895   6.848   3.442   5.063 -0.7124 -0.9562  0.7004
  841MOL0     C10896   6.835   3.448   5.219  0.1731 -0.2800  1.1796
  841MOL0     N10897   6.879   3.575   5.281 -0.9376  0.3283  0.4842
  841MOL0     C10898   7.002   3.589   5.351  0.6951 -0.1468  0.6069
  841MOL0     C10899   7.011   3.717   5.368  0.5488 -1.2740 -0.4660
  841MOL0     C10900   7.113   3.780   5.460  0.9244 -0.9580  0.2977
  841MOL0     C10901   7.183   3.900   5.388 -0.3970  0.3329 -0.0264
  841MOL0     C10902   7.236   3.992   5.496 -0.2999  0.5933 -0.4405
  841MOL0     C10903   7.357   3.931   5.571  0.4546  0.1343 -0.8201
  841MOL0     O10904   7.373   3.986   5.703  0.5221 -0.1340  0.2161
  841MOL0     C10905   7.411   4.114   5.732  0.8931 -0.5759  0.9193
  841MOL0     C10906   7.476   4.193   5.645  0.0744  0.1362  0.8089
  841MOL0     C10907   7.497   4.331   5.661 -0.0308 -0.0097 -0.7138
  841MOL0     C10908   7.458   4.392   5.788 -0.4514 -0.1993 -0.1937
  841MOL0     C10909   7.472   4.531   5.811  0.4660 -1.0152  0.1543
  841MOL0     O10910   7.525   4.613   5.709  0.3911 -0.6563  0.2087
  841MOL0     C10911   7.577   4.735   5.739  0.4720  0.8768 -0.0301
  841MOL0     C10912   7.498   4.850   5.787  0.1412  0.0715  0.5940
  841MOL0     C10913   7.574   4.970   5.813  0.2897  0.5829 -0.7183
  841MOL0     C10914   7.714   4.969   5.804 -0.5393  0.1283  0.8139
  841MOL0     O10915   7.791   5.082   5.817  0.0536  0.4628 -0.2679
  841MOL0     C10916   7.761   5.193   5.904 -0.6117 -0.5941  1.3497
  841MOL0     C10917   7.866   5.302   5.885 -0.6136 -0.6097  0.8492
  841MOL0     C10918   7.829   5.393   5.770  0.9748 -0.1234 -0.6379
  841MOL0     C10919   7.929   5.492   5.714  0.4248 -0.6428 -0.9577
  841MOL0     C10920   7.983   5.591   5.816  0.2325 -0.0654 -0.7917
  841MOL0     C10921   8.032   5.726   5.756  0.6962  0.2783  0.0747
  841MOL0     C10922   8.178   5.706   5.706 -0.4801 -0.0307  0.1798
  841MOL0     C10923   8.230   5.836   5.648 -0.2084  0.2805  0.6590
  841MOL0    Cl10924   8.383   5.818   5.567 -0.3154 -0.2876  0.0463
  841MOL0     C10925   7.777   4.857   5.752 -0.4854  0.6619  0.0783
  841MOL0     C10926   7.709   4.739   5.728  0.1112 -1.2957 -0.5356
  841MOL0     O10927   7.463   4.571   5.929  0.2843 -0.5655  0.7006
  841MOL0     C10928   7.399   4.306   5.886  0.0019  1.3508  0.0969
  841MOL0     C10929   7.378   4.170   5.857 -1.0823  0.0890  1.0659
  841MOL0     N10930   6.899   3.781   5.317 -0.5672  0.8090 -0.1872
  841MOL0     N10931   6.823   3.699   5.252 -0.7497 -0.2390  0.5951
  841MOL0     C10932   5.925   3.593   4.671  0.4265  0.4045 -0.3975
  841MOL0     C10933   5.817   3.572   4.580 -0.8719 -0.1830  0.2702
  841MOL0     C10934   5.640   3.407   4.172  0.2166  0.1576 -0.8503
  841MOL0     C10935   5.590   3.524   4.132  0.4640 -0.2047 -0.1377
  841MOL0     C10936   5.501   3.527   4.015 -1.3811 -0.1456 -0.5457
  841MOL0     C10937   5.466   3.408   3.952  0.0077 -0.4748  0.4074
  841MOL0     O10938   5.369   3.406   3.850 -0.3395 -0.1776  0.0415
  841MOL0     C10939   5.251   3.488   3.876  0.0511 -0.8098 -0.0285
  841MOL0     C10940   5.259   3.623   3.811 -0.9478  0.2058  0.4518
  841MOL0     C10941   5.222   3.610   3.665  0.1153 -1.0855 -0.0354
  841MOL0     C10942   5.239   3.738   3.581 -0.0045 -0.4914  0.0274
  841MOL0     C10943   5.116   3.785   3.523 -0.2975  0.5088  0.5889
  841MOL0     C10944   5.027   3.852   3.482  0.4632  0.6742 -0.3317
  841MOL0     C10945   5.523   3.291   3.993 -0.2845 -0.2352 -0.1746
  841MOL0     C10946   5.603   3.296   4.105 -0.7899  0.7020  1.1195
  841MOL0     H10947   5.991   3.508   4.306  0.2130  0.8515 -0.4129
  841MOL0     H10948   6.175   3.563   4.458 -0.2068 -0.0668 -1.1477
  841MOL0     H10949   6.345   3.557   4.689 -1.2218  2.7243 -1.5146
  841MOL0     H10950   6.218   3.431   4.701  0.9721  0.0673  0.6702
  841MOL0     H10951   6.162   3.456   4.909  0.0317 -1.4421 -1.5376
  841MOL0     H10952   6.260   3.590   4.940  0.8609 -1.3047  0.4913
  841MOL0     H10953   6.354   3.317   4.844  0.3978  1.3096 -0.7055
  841MOL0     H10954   6.368   3.362   5.009 -0.0185 -1.2667 -0.4041
  841MOL0     H10955   6.540   3.432   4.792 -1.5139 -2.1154 -0.4790
  841MOL0     H10956   6.487   3.573   4.894 -0.4096  0.0958  0.2226
  841MOL0     H10957   6.623   3.317   4.982 -0.1767  0.5510 -2.0848
  841MOL0     H10958   6.571   3.450   5.092 -0.1172 -0.1069  0.7490
  841MOL0     H10959   6.722   3.607   4.990  2.7473  0.1136  0.4305
  841MOL0     H10960   6.764   3.485   4.866  3.2330 -0.2337  0.3056
  841MOL0     H10961   6.870   3.342   5.025  1.7843 -0.2188  0.0086
  841MOL0     H10962   6.940   3.496   5.036 -1.3047 -1.2622 -2.3590
  841MOL0     H10963   6.883   3.360   5.264 -2.3750 -2.1883  0.3864
  841MOL0     H10964   6.731   3.434   5.248 -0.4275 -0.2620 -0.8534
  841MOL0     H10965   7.054   3.520   5.416 -0.7465  1.4047  3.6353
  841MOL0     H10966   7.194   3.707   5.468  0.3573 -1.5073  1.3264
  841MOL0     H10967   7.062   3.802   5.554  1.3022  1.9230 -0.0738
  841MOL0     H10968   7.100   3.950   5.338 -0.8658 -0.9282 -0.5585
  841MOL0     H10969   7.258   3.861   5.319 -0.7979  0.8595 -0.7619
  841MOL0     H10970   7.275   4.083   5.450  0.2101 -0.5111 -2.3246
  841MOL0     H10971   7.154   3.996   5.568 -2.0115 -1.0564 -2.1616
  841MOL0     H10972   7.453   3.937   5.518 -0.2335  1.9522 -1.9383
  841MOL0     H10973   7.334   3.827   5.594 -3.6074  1.0969  0.2314
  841MOL0     H10974   7.520   4.153   5.554  1.1983  2.8146  0.0934
  841MOL0     H10975   7.535   4.393   5.580 -1.0443  1.6497  0.0291
  841MOL0     H10976   7.393   4.847   5.812  0.2472  2.9882  1.7494
  841MOL0     H10977   7.511   5.056   5.835 -1.6284 -1.1632  1.0441
  841MOL0     H10978   7.760   5.154   6.006  0.3181 -1.1887  1.1394
  841MOL0     H10979   7.663   5.233   5.877 -0.8868 -1.8448  0.4223
  841MOL0     H10980   7.967   5.265   5.865 -1.3954 -1.8117 -1.2039
  841MOL0     H10981   7.864   5.363   5.976  0.9498 -1.6230  1.5841
  841MOL0     H10982   7.737   5.447   5.795 -1.1689 -2.4709 -2.8291
  841MOL0     H10983   7.796   5.328   5.689  1.0786 -0.6759 -0.2442
  841MOL0     H10984   8.010   5.441   5.660 -0.6459 -0.0940 -3.2245
  841MOL0     H10985   7.874   5.550   5.639 -0.3784  1.8634  1.4392
  841MOL0     H10986   8.065   5.549   5.875  2.0840  4.3241  0.2132
  841MOL0     H10987   7.906   5.612   5.892 -0.0591 -0.4398 -0.9820
  841MOL0     H10988   8.038   5.798   5.838 -0.0057  0.6819 -0.2174
  841MOL0     H10989   7.959   5.761   5.683  2.3858  2.0082 -0.8860
  841MOL0     H10990   8.243   5.679   5.790  2.5079  1.6996 -1.3853
  841MOL0     H10991   8.193   5.622   5.637  5.0034 -1.4338  2.5563
  841MOL0     H10992   8.232   5.906   5.732  1.5862  2.0407 -0.7259
  841MOL0     H10993   8.154   5.867   5.575 -1.5820  0.4866  2.1260
  841MOL0     H10994   7.884   4.859   5.734 -0.3277 -1.5027  0.4219
  841MOL0     H10995   7.770   4.663   5.680  1.6976 -1.1542  1.1484
  841MOL0     H10996   7.370   4.328   5.988  0.8230  1.3900  0.3290
  841MOL0     H10997   7.325   4.115   5.935  0.1082 -2.1080  0.4122
  841MOL0     H10998   5.909   3.625   4.773 -3.2600  2.2551 -1.4149
  841MOL0     H10999   5.714   3.578   4.613 -0.0296  3.8243  2.8236
  841MOL0     H11000   5.632   3.616   4.171  0.1199  1.1145 -2.6563
  841MOL0     H11001   5.457   3.622   3.986  1.7724  2.3021  1.8587
  841MOL0     H11002   5.233   3.514   3.981 -0.5684  2.2079 -0.7904
  841MOL0     H11003   5.159   3.431   3.859 -1.2124  1.1599 -0.1486
  841MOL0     H11004   5.174   3.672   3.860 -2.6395 -2.3171  0.2121
  841MOL0     H11005   5.354   3.678   3.815 -0.0152 -0.9617 -2.7790
  841MOL0     H11006   5.113   3.602   3.673  0.1972 -0.5668  2.2979
  841MOL0     H11007   5.268   3.523   3.617  0.2014  0.2450 -2.5360
  841MOL0     H11008   5.267   3.822   3.646 -0.3215 -0.6560  0.3776
  841MOL0     H11009   5.308   3.715   3.499 -0.6587  0.6007 -0.8540
  841MOL0     H11010   4.939   3.905   3.451  0.1534  0.5007  0.2492
  841MOL0     H11011   5.474   3.202   3.956  0.0178  0.1776 -1.6482
  841MOL0     H11012   5.629   3.199   4.146 -1.6389 -1.1068 -2.2552
  842MOL0     O11013   7.467   1.401   8.846 -0.0687 -0.2444 -0.3107
  842MOL0     C11014   7.481   1.482   8.753 -0.5976  0.3868  0.3426
  842MOL0     O11015   7.428   1.604   8.736  0.6162 -0.5347 -0.0016
  842MOL0     C11016   7.337   1.637   8.836  0.7773  0.0540  0.1097
  842MOL0     C11017   7.333   1.618   8.980  0.2224  0.8014  0.9627
  842MOL0     C11018   7.227   1.670   9.053 -0.4129 -0.0624  0.7833
  842MOL0     C11019   7.133   1.755   9.003 -0.5766 -0.3320  0.8055
  842MOL0     O11020   7.037   1.815   9.080 -0.7268  0.2502 -0.3656
  842MOL0     C11021   7.028   1.775   9.222  0.1849 -0.9831 -0.8104
  842MOL0     C11022   6.914   1.831   9.309  0.1204 -0.4156  0.6477
  842MOL0     C11023   6.769   1.768   9.284 -0.1343  0.3289 -0.4284
  842MOL0     C11024   6.754   1.641   9.369  0.1875  0.3407  0.5226
  842MOL0     C11025   6.704   1.514   9.289 -0.5881  0.0674  0.6950
  842MOL0     C11026   6.807   1.469   9.188  0.9412  0.2978 -0.8174
  842MOL0     C11027   6.771   1.322   9.140  0.6567 -0.9915 -0.3864
  842MOL0     C11028   6.878   1.281   9.045  0.9349  0.3637  0.3882
  842MOL0     N11029   6.990   1.208   9.120  0.8622  0.5913  0.3455
  842MOL0     C11030   6.974   1.088   9.186 -0.4499  0.1844 -0.6299
  842MOL0     C11031   7.055   1.099   9.299 -0.2829  0.3246  0.5540
  842MOL0     C11032   7.069   1.004   9.411  0.8714  0.3144 -0.6323
  842MOL0     C11033   6.971   1.030   9.520  0.3773 -0.7466 -0.3924
  842MOL0     C11034   6.969   0.912   9.623 -0.0972  0.3461 -0.4293
  842MOL0     C11035   7.083   0.948   9.731 -0.4694 -0.4883 -0.6617
  842MOL0     O11036   7.125   0.834   9.800  0.2985  0.8425  0.4409
  842MOL0     C11037   7.217   0.749   9.737  0.8164 -0.0990 -0.2248
  842MOL0     C11038   7.249   0.628   9.802  0.0749  0.2755 -0.6759
  842MOL0     C11039   7.340   0.527   9.753  0.2479 -0.1700 -0.3840
  842MOL0     C11040   7.366   0.538   9.614  0.3832 -0.1926  0.1170
  842MOL0     C11041   7.442   0.438   9.538 -0.7134 -0.0440  0.7443
  842MOL0     O11042   7.534   0.359   9.613  0.2014  0.0434 -0.4473
  842MOL0     C11043   7.607   0.271   9.548 -0.8087  0.1319 -0.5233
  842MOL0     C11044   7.562   0.158   9.476  0.2368 -0.5316 -1.0240
  842MOL0     C11045   7.642   0.065   9.416 -0.5094 -0.3127  0.9235
  842MOL0     C11046   7.780   0.081   9.411  0.2140 -0.8004 -1.2231
  842MOL0     O11047   7.858   0.000   9.327  0.5165  0.4652 -0.5360
  842MOL0     C11048   7.994  -0.046   9.360 -0.5339  0.0506  0.3513
  842MOL0     C11049   8.040  -0.163   9.274 -0.9059 -0.6967  0.4035
  842MOL0     C11050   7.933  -0.268   9.257  0.8189  0.7241 -0.5250
  842MOL0     C11051   7.992  -0.403   9.221  0.2813  0.7801  0.8042
  842MOL0     C11052   7.906  -0.523   9.258 -0.4269  0.9631  0.4069
  842MOL0     C11053   7.874  -0.551   9.406  0.0148 -0.1345  0.1974
  842MOL0     C11054   7.828  -0.695   9.425 -0.3661 -0.2656  0.0284
  842MOL0     C11055   7.799  -0.715   9.572  0.3378  0.0072 -0.0246
  842MOL0    Cl11056   7.818  -0.892   9.612  0.2376 -0.0809  0.0133
  842MOL0     C11057   7.829   0.199   9.470 -0.1433 -0.2056  0.6138
  842MOL0     C11058   7.743   0.282   9.542  0.4921 -0.6273 -0.3952
  842MOL0     O11059   7.434   0.436   9.416 -1.1979  0.3101  0.4970
  842MOL0     C11060   7.331   0.659   9.555 -0.4200  0.3911  0.5929
  842MOL0     C11061   7.272   0.759   9.617  0.0442  0.3405  0.0314
  842MOL0     N11062   7.132   1.216   9.297  0.0246  0.7960  0.3296
  842MOL0     N11063   7.087   1.280   9.198 -0.2118  0.0832  0.4488
  842MOL0     C11064   7.134   1.779   8.869 -0.3675  0.2924  0.2418
  842MOL0     C11065   7.241   1.728   8.787  0.1331  0.3061 -0.2651
  842MOL0     C11066   7.559   1.442   8.630 -0.1560  0.3593 -0.5750
  842MOL0     C11067   7.585   1.525   8.514  0.2365  0.3638 -0.3907
  842MOL0     C11068   7.672   1.476   8.413  0.6327 -0.2677 -0.3542
  842MOL0     C11069   7.723   1.350   8.412 -0.0367  0.0934 -0.9475
  842MOL0     O11070   7.783   1.309   8.299 -0.7577 -0.1849  0.4302
  842MOL0     C11071   7.884   1.200   8.294 -0.1330  0.7769  0.0622
  842MOL0     C11072   7.964   1.226   8.167 -0.3425  0.6800  0.1299
  842MOL0     C11073   8.067   1.342   8.173  0.0873  0.3041  0.1625
  842MOL0     C11074   8.182   1.343   8.070  0.1861  0.1509  0.0019
  842MOL0     C11075   8.132   1.299   7.937  1.1940  0.6307  0.0755
  842MOL0     C11076   8.084   1.284   7.831 -0.1208  0.0373  0.5039
  842MOL0     C11077   7.685   1.270   8.517 -0.1184 -0.4271 -0.3580
  842MOL0     C11078   7.605   1.310   8.620  0.3683  0.7794  0.2476
  842MOL0     H11079   7.408   1.572   9.043  0.5288 -2.5112 -1.5458
  842MOL0     H11080   7.230   1.646   9.159 -0.3051 -1.4461  0.4907
  842MOL0     H11081   7.117   1.817   9.270  0.6468 -1.0709 -1.5718
  842MOL0     H11082   7.031   1.667   9.239 -1.9746 -0.7403  1.8151
  842MOL0     H11083   6.900   1.937   9.286 -1.2265 -1.0696 -1.9534
  842MOL0     H11084   6.935   1.812   9.415  1.5195  1.3327  0.7451
  842MOL0     H11085   6.745   1.763   9.177  0.1402 -3.2757 -0.4441
  842MOL0     H11086   6.704   1.844   9.328 -0.7872 -0.7245  0.4705
  842MOL0     H11087   6.846   1.619   9.423 -0.4335  1.3892  2.0909
  842MOL0     H11088   6.677   1.645   9.446  0.5468  1.4480  0.8358
  842MOL0     H11089   6.608   1.524   9.238 -0.3523 -2.4603 -0.3753
  842MOL0     H11090   6.671   1.435   9.357 -0.3222 -3.2051 -2.6565
  842MOL0     H11091   6.909   1.465   9.229  0.6197 -1.6704 -0.0938
  842MOL0     H11092   6.804   1.543   9.108 -0.7267  0.7448 -0.3808
  842MOL0     H11093   6.765   1.260   9.230  1.4214 -0.2724  0.1829
  842MOL0     H11094   6.672   1.333   9.095 -0.7640 -0.8676  2.5301
  842MOL0     H11095   6.920   1.363   8.986 -2.9082  0.3589 -2.7724
  842MOL0     H11096   6.831   1.214   8.972 -0.6387 -1.0878  2.6069
  842MOL0     H11097   6.910   1.010   9.145  1.1915 -0.6525 -1.7077
  842MOL0     H11098   7.171   1.026   9.443  1.0370  0.1441 -1.0316
  842MOL0     H11099   7.061   0.901   9.374  1.3071 -0.9296  2.4108
  842MOL0     H11100   6.868   1.036   9.482  0.0354 -0.3472  0.5489
  842MOL0     H11101   6.997   1.126   9.565  3.5519 -1.7222  0.0674
  842MOL0     H11102   6.868   0.904   9.665 -0.9377 -0.5659 -2.5380
  842MOL0     H11103   6.981   0.822   9.563  1.4294  0.1295  0.1607
  842MOL0     H11104   7.040   1.025   9.797  0.1764 -0.4924 -0.2345
  842MOL0     H11105   7.165   1.003   9.683  0.1035 -0.1852  0.6067
  842MOL0     H11106   7.218   0.624   9.906 -1.1610  2.2533 -0.9189
  842MOL0     H11107   7.363   0.426   9.784 -0.4950 -1.0932 -2.6290
  842MOL0     H11108   7.455   0.143   9.467  0.2419  0.1917 -2.6129
  842MOL0     H11109   7.603  -0.023   9.365  0.9013  0.4184 -1.6289
  842MOL0     H11110   8.009  -0.065   9.467 -2.4684 -2.2046  0.3205
  842MOL0     H11111   8.061   0.034   9.328  0.3540 -1.5811 -2.1276
  842MOL0     H11112   8.126  -0.193   9.335  0.2448  2.4786  0.5420
  842MOL0     H11113   8.069  -0.123   9.176 -1.8033  1.4107  0.9333
  842MOL0     H11114   7.858  -0.232   9.185 -1.9440 -2.5861  0.4347
  842MOL0     H11115   7.882  -0.288   9.352  2.3757 -2.3026 -0.2235
  842MOL0     H11116   8.015  -0.405   9.114 -1.6418 -1.6070  0.3452
  842MOL0     H11117   8.076  -0.413   9.289 -0.4292 -0.4352  1.5418
  842MOL0     H11118   7.938  -0.606   9.194  0.8442  1.7429  0.0005
  842MOL0     H11119   7.806  -0.491   9.226 -1.2498 -3.0567 -1.7622
  842MOL0     H11120   7.804  -0.478   9.446 -2.8358 -2.2264 -0.6653
  842MOL0     H11121   7.967  -0.540   9.462  1.4414 -0.8993 -1.8820
  842MOL0     H11122   7.733  -0.715   9.375 -0.8888  1.1031  0.4199
  842MOL0     H11123   7.900  -0.769   9.388 -0.6982  0.2639 -1.7619
  842MOL0     H11124   7.704  -0.665   9.595  0.1242  1.5121 -3.5571
  842MOL0     H11125   7.871  -0.658   9.632 -1.0471 -0.2167  1.9829
  842MOL0     H11126   7.934   0.220   9.456  1.1209 -4.0029  2.8894
  842MOL0     H11127   7.778   0.373   9.589 -0.7024 -0.7944  0.8715
  842MOL0     H11128   7.357   0.692   9.455 -1.3923 -1.7901 -0.4506
  842MOL0     H11129   7.260   0.852   9.562  2.2174  0.7277  0.1165
  842MOL0     H11130   7.068   1.857   8.832 -0.6918 -0.7629 -1.4861
  842MOL0     H11131   7.231   1.754   8.682 -0.7739  0.1403 -0.2308
  842MOL0     H11132   7.525   1.615   8.510 -1.3358 -0.3379  3.1797
  842MOL0     H11133   7.684   1.549   8.334 -0.3060  0.8394  0.4844
  842MOL0     H11134   7.827   1.108   8.281 -1.8114  1.6809  0.6797
  842MOL0     H11135   7.940   1.176   8.385 -2.0172 -2.5387  0.5184
  842MOL0     H11136   8.023   1.138   8.140 -1.9560  0.3770 -2.7758
  842MOL0     H11137   7.899   1.233   8.080  2.9484  2.8670 -2.4521
  842MOL0     H11138   8.118   1.335   8.270  3.1353  0.9813 -1.2727
  842MOL0     H11139   8.015   1.438   8.173 -0.5231  0.0359  2.2360
  842MOL0     H11140   8.228   1.442   8.071  0.5396  0.0013 -0.7871
  842MOL0     H11141   8.257   1.269   8.102  1.5110  0.8851 -1.2750
  842MOL0     H11142   8.046   1.273   7.732  0.3227  1.4770  0.1418
  842MOL0     H11143   7.712   1.165   8.508  0.1562 -0.3276 -0.7171
  842MOL0     H11144   7.577   1.232   8.691 -0.9024  0.5183 -0.5093
  843MOL0     O11145   8.403   3.826   6.543  0.0227  0.6481 -0.4703
  843MOL0     C11146   8.430   3.842   6.425  0.3130 -1.4607  0.2137
  843MOL0     O11147   8.376   3.791   6.312  0.0314 -0.4457 -0.2372
  843MOL0     C11148   8.256   3.726   6.352 -0.2769 -0.7519 -0.9096
  843MOL0     C11149   8.239   3.584   6.342 -0.4932 -0.6799  0.3339
  843MOL0     C11150   8.116   3.524   6.371  0.3435  0.1503 -0.9793
  843MOL0     C11151   8.004   3.608   6.388 -0.1136  0.1380  0.1482
  843MOL0     O11152   7.881   3.552   6.416 -0.3657  0.4496  0.0574
  843MOL0     C11153   7.884   3.474   6.538  0.6308  0.8136 -0.1376
  843MOL0     C11154   7.750   3.479   6.600  0.1782  0.0135 -1.3577
  843MOL0     C11155   7.688   3.622   6.627 -0.3242  0.3247  0.0414
  843MOL0     C11156   7.721   3.663   6.765  0.1520 -0.1885  0.0197
  843MOL0     C11157   7.662   3.802   6.800 -0.2732 -0.5322  0.4200
  843MOL0     C11158   7.751   3.916   6.746  0.0831  0.1995 -0.2057
  843MOL0     C11159   7.689   4.050   6.772  0.1818  0.1050  0.4453
  843MOL0     C11160   7.805   4.152   6.786 -0.6732 -0.3926  0.3031
  843MOL0     N11161   7.763   4.302   6.777 -0.6220 -0.7182  0.3751
  843MOL0     C11162   7.673   4.365   6.694 -0.8522  0.1432  0.1969
  843MOL0     C11163   7.666   4.489   6.750  0.2334 -0.4584 -0.9048
  843MOL0     C11164   7.599   4.613   6.703  0.2674 -0.0615 -1.1451
  843MOL0     C11165   7.672   4.741   6.736 -0.3741  0.0530  0.0252
  843MOL0     C11166   7.823   4.741   6.676  0.5237  0.1667  0.4990
  843MOL0     C11167   7.894   4.877   6.702 -0.6467  0.0097 -0.2394
  843MOL0     O11168   7.822   4.988   6.644  0.7401  0.4785  0.7919
  843MOL0     C11169   7.870   5.119   6.654  0.2937 -0.0732 -0.5677
  843MOL0     C11170   7.993   5.174   6.701  1.5412 -0.9560 -0.3471
  843MOL0     C11171   8.038   5.313   6.690 -0.1396  0.4790  0.7328
  843MOL0     C11172   7.936   5.401   6.630  0.3582  0.4406 -1.2301
  843MOL0     C11173   7.962   5.548   6.608  0.0868 -1.3556  0.3846
  843MOL0     O11174   8.091   5.591   6.633  0.1730  0.4962  0.1010
  843MOL0     C11175   8.114   5.721   6.621  0.0851 -0.7383  0.5778
  843MOL0     C11176   8.127   5.805   6.729 -0.0196  0.0656 -0.0615
  843MOL0     C11177   8.166   5.939   6.716  0.5652 -0.4591  0.7773
  843MOL0     C11178   8.167   5.995   6.594  0.0947 -0.4390  1.4208
  843MOL0     O11179   8.199   6.135   6.589  0.2538 -0.2260 -0.4409
  843MOL0     C11180   8.082   6.225   6.580 -0.1685  1.8609  0.1000
  843MOL0     C11181   8.040   6.273   6.726  0.3677 -0.1953  0.3223
  843MOL0     C11182   8.142   6.366   6.785  0.1072 -0.0844  0.6359
  843MOL0     C11183   8.094   6.396   6.925  0.2058  0.3870  0.2723
  843MOL0     C11184   8.158   6.295   7.028  0.8640  0.2141  0.4722
  843MOL0     C11185   8.115   6.332   7.162 -0.0242 -0.7796 -0.0543
  843MOL0     C11186   7.979   6.273   7.193 -1.0549 -0.2789 -0.5987
  843MOL0     C11187   7.943   6.291   7.347  0.4812  0.8455  1.1331
  843MOL0    Cl11188   7.886   6.465   7.385  0.0798  0.1080 -0.0272
  843MOL0     C11189   8.135   5.914   6.478  0.1234  0.0376  0.4611
  843MOL0     C11190   8.114   5.780   6.489 -0.7451  0.3673 -0.4914
  843MOL0     O11191   7.868   5.618   6.570  0.6744 -1.0228 -0.1664
  843MOL0     C11192   7.819   5.339   6.581  0.1596  0.2166 -0.5943
  843MOL0     C11193   7.782   5.207   6.599  0.2222 -0.4688 -0.9702
  843MOL0     N11194   7.760   4.497   6.854  0.3021  0.0596  0.1153
  843MOL0     N11195   7.824   4.389   6.860 -0.1690 -0.6214 -0.2496
  843MOL0     C11196   8.016   3.749   6.403 -0.9248 -1.2032 -0.0965
  843MOL0     C11197   8.143   3.811   6.378 -0.3025  0.2077  0.7657
  843MOL0     C11198   8.536   3.943   6.407  0.5357 -0.9747 -0.1297
  843MOL0     C11199   8.566   4.040   6.508 -0.0675  0.4048  0.7878
  843MOL0     C11200   8.652   4.143   6.477  0.1724 -0.1417 -0.3577
  843MOL0     C11201   8.711   4.166   6.360 -0.2969  0.2303  0.4369
  843MOL0     O11202   8.781   4.283   6.318 -0.0906  0.9945  0.4230
  843MOL0     C11203   8.735   4.356   6.202 -0.3484 -0.8877  0.4811
  843MOL0     C11204   8.643   4.465   6.249  0.4600  0.3150 -0.0383
  843MOL0     C11205   8.692   4.592   6.351 -0.0758  0.8488  0.7477
  843MOL0     C11206   8.764   4.685   6.253  0.0775  0.4296  0.1069
  843MOL0     C11207   8.799   4.807   6.327 -0.1338 -1.0706 -0.6969
  843MOL0     C11208   8.807   4.908   6.402  0.9335 -0.4916  0.5863
  843MOL0     C11209   8.682   4.075   6.256 -0.3190  0.1277 -0.3661
  843MOL0     C11210   8.587   3.972   6.279  0.7717  0.0193 -0.0061
  843MOL0     H11211   8.321   3.517   6.316 -0.5748 -0.5162 -0.3641
  843MOL0     H11212   8.089   3.420   6.381 -4.8324  1.3536  0.3444
  843MOL0     H11213   7.960   3.502   6.611  0.2433 -0.2279  0.6860
  843MOL0     H11214   7.909   3.370   6.515 -1.9090  0.2413 -0.6919
  843MOL0     H11215   7.745   3.416   6.689 -2.2829 -0.6844 -1.9032
  843MOL0     H11216   7.684   3.434   6.525 -1.7835  0.0245  0.2845
  843MOL0     H11217   7.581   3.628   6.606  0.1822 -0.6465 -3.4296
  843MOL0     H11218   7.729   3.686   6.548  1.4864  0.2203  0.8367
  843MOL0     H11219   7.688   3.583   6.832  1.0525 -1.6029 -1.1525
  843MOL0     H11220   7.829   3.672   6.777  0.2013  0.6935 -0.8588
  843MOL0     H11221   7.660   3.812   6.909 -1.3439  4.2894  0.1980
  843MOL0     H11222   7.562   3.814   6.759  0.3262  1.8299 -0.5116
  843MOL0     H11223   7.768   3.904   6.639 -4.4561  3.2508 -1.5549
  843MOL0     H11224   7.846   3.912   6.800 -0.8001 -1.2002  1.3341
  843MOL0     H11225   7.625   4.086   6.691 -2.5493  0.7187  2.7162
  843MOL0     H11226   7.613   4.043   6.850 -0.6503 -2.4693 -0.4885
  843MOL0     H11227   7.874   4.133   6.703  3.3630  2.4956  2.6841
  843MOL0     H11228   7.863   4.132   6.876 -0.8972 -1.0835  0.3073
  843MOL0     H11229   7.622   4.335   6.603 -1.0012 -0.4409  0.4706
  843MOL0     H11230   7.501   4.609   6.751  1.1163 -1.3724  0.6162
  843MOL0     H11231   7.591   4.608   6.594  3.0030  1.9337 -1.5508
  843MOL0     H11232   7.675   4.753   6.844 -1.9311  3.0797 -0.1538
  843MOL0     H11233   7.619   4.826   6.691  0.1141 -0.4843 -1.6177
  843MOL0     H11234   7.884   4.667   6.728 -0.5525 -0.5589  0.7594
  843MOL0     H11235   7.822   4.702   6.574 -1.0405 -2.7399  1.5253
  843MOL0     H11236   7.993   4.856   6.660 -1.2187  0.3060 -1.8168
  843MOL0     H11237   7.908   4.898   6.808 -2.5345  0.5230 -0.0624
  843MOL0     H11238   8.070   5.113   6.748 -0.2796 -2.3275  0.9860
  843MOL0     H11239   8.139   5.341   6.719  1.5936 -3.0066 -1.3548
  843MOL0     H11240   8.136   5.758   6.826  2.4129 -4.2556 -2.0491
  843MOL0     H11241   8.160   5.993   6.810 -2.3257  0.3838  0.1831
  843MOL0     H11242   7.999   6.173   6.532  2.3023 -2.6571  0.1409
  843MOL0     H11243   8.113   6.301   6.508 -0.2643 -0.4696 -2.5330
  843MOL0     H11244   8.024   6.187   6.791  1.0643  0.7686  1.8237
  843MOL0     H11245   7.946   6.326   6.709 -0.4661 -1.3239  1.2739
  843MOL0     H11246   8.127   6.458   6.726  0.3493 -0.1539  0.4637
  843MOL0     H11247   8.245   6.331   6.771  0.3475  1.5207 -2.6247
  843MOL0     H11248   8.142   6.491   6.950  0.3637  0.8188 -1.5568
  843MOL0     H11249   7.984   6.402   6.922  0.1904  0.0457 -2.1428
  843MOL0     H11250   8.265   6.313   7.014  0.6937  0.1214 -1.2311
  843MOL0     H11251   8.130   6.194   6.996  2.2269  1.0076 -3.9034
  843MOL0     H11252   8.119   6.441   7.169  1.1677 -0.8703  1.1465
  843MOL0     H11253   8.185   6.313   7.245 -1.0114  1.5496  1.4206
  843MOL0     H11254   7.902   6.319   7.131  0.1121  1.3829 -0.9047
  843MOL0     H11255   7.991   6.165   7.183 -1.4780 -0.3323 -0.5241
  843MOL0     H11256   8.023   6.267   7.418  2.2538  0.9238 -0.7491
  843MOL0     H11257   7.864   6.220   7.372 -0.5892  1.8161  0.5867
  843MOL0     H11258   8.140   5.975   6.388  3.7700  1.3310  1.3606
  843MOL0     H11259   8.075   5.734   6.399 -1.1993  2.5622 -1.4584
  843MOL0     H11260   7.741   5.396   6.533 -2.4408 -2.5348  0.1026
  843MOL0     H11261   7.694   5.160   6.555 -1.1447 -0.6072  1.6967
  843MOL0     H11262   7.937   3.823   6.416  1.9164  2.3497 -1.4670
  843MOL0     H11263   8.150   3.919   6.372 -0.2103  0.2887  2.0531
  843MOL0     H11264   8.515   4.037   6.603  0.8432  0.8737  1.2989
  843MOL0     H11265   8.662   4.212   6.560 -0.3008  2.0280 -2.0383
  843MOL0     H11266   8.684   4.293   6.128 -0.4137  0.5282 -0.7181
  843MOL0     H11267   8.822   4.405   6.158 -2.2889  1.1590 -1.3301
  843MOL0     H11268   8.600   4.508   6.158  3.0148  1.2608 -0.8657
  843MOL0     H11269   8.562   4.404   6.292  1.8416 -0.7830  1.0903
  843MOL0     H11270   8.765   4.565   6.428  1.9704  1.0547 -1.0371
  843MOL0     H11271   8.606   4.644   6.394 -1.2254 -0.4776  0.1313
  843MOL0     H11272   8.849   4.629   6.210 -1.4986 -1.1879 -1.0405
  843MOL0     H11273   8.697   4.717   6.173  2.2057 -2.4822 -3.2092
  843MOL0     H11274   8.812   5.004   6.450 -3.6993 -0.3132  1.2015
  843MOL0     H11275   8.714   4.099   6.155  2.2377  0.0420  0.3703
  843MOL0     H11276   8.552   3.906   6.200 -2.5598  2.6943 -1.0035
  844MOL0     O11277   0.447   1.812   1.403 -0.3742 -0.5316  0.4897
  844MOL0     C11278   0.363   1.906   1.403  0.0705 -0.3481 -0.3556
  844MOL0     O11279   0.378   2.018   1.329 -0.2214  0.0770  0.2518
  844MOL0     C11280   0.437   2.004   1.207  0.6882 -0.0602  1.0185
  844MOL0     C11281   0.533   2.096   1.169  0.2001 -0.1135 -0.1716
  844MOL0     C11282   0.601   2.088   1.048 -0.1843 -0.4901 -0.5534
  844MOL0     C11283   0.566   1.992   0.951 -1.1076 -0.6219  1.2708
  844MOL0     O11284   0.638   1.972   0.836 -1.1897 -0.0061  0.2010
  844MOL0     C11285   0.755   2.060   0.817 -0.3664 -0.3916 -0.8454
  844MOL0     C11286   0.853   1.998   0.714 -0.7176 -0.0093 -0.4541
  844MOL0     C11287   0.964   2.097   0.658  0.7494 -0.5774 -0.2097
  844MOL0     C11288   1.078   2.024   0.594  0.4142 -0.6966  0.5618
  844MOL0     C11289   1.205   2.111   0.597 -0.4044  0.4877  0.2643
  844MOL0     C11290   1.270   2.106   0.735 -0.0313 -0.3025 -0.0405
  844MOL0     C11291   1.387   2.199   0.746 -0.1932  0.3867  0.2410
  844MOL0     C11292   1.368   2.322   0.835 -0.1735  0.3044 -0.4338
  844MOL0     N11293   1.265   2.409   0.779  0.0247 -0.3172  0.0281
  844MOL0     C11294   1.143   2.434   0.841  0.1685 -0.5847 -0.6484
  844MOL0     C11295   1.103   2.553   0.796  0.1676 -1.3730  0.0550
  844MOL0     C11296   0.983   2.632   0.858  0.3250  0.9299 -0.3318
  844MOL0     C11297   0.865   2.590   0.781  0.8175 -0.3692  0.0626
  844MOL0     C11298   0.735   2.653   0.815  0.4196 -0.1172  0.5928
  844MOL0     C11299   0.663   2.582   0.927  0.7113  0.1598 -0.4539
  844MOL0     O11300   0.584   2.462   0.877 -0.8758 -0.0128 -0.7773
  844MOL0     C11301   0.496   2.394   0.959 -1.0085  0.9765 -0.3220
  844MOL0     C11302   0.451   2.428   1.089  0.1694 -0.0745  0.2745
  844MOL0     C11303   0.340   2.365   1.147 -0.1814 -0.9317  0.8556
  844MOL0     C11304   0.257   2.271   1.076 -1.5790  0.0540  0.5168
  844MOL0     C11305   0.129   2.221   1.129  1.5219 -0.1169 -0.4139
  844MOL0     O11306   0.090   2.257   1.257 -0.3538 -0.5294  0.8887
  844MOL0     C11307  -0.042   2.282   1.300 -0.1440  0.8237 -0.4633
  844MOL0     C11308  -0.053   2.312   1.431  0.6124 -0.4316  0.4107
  844MOL0     C11309  -0.181   2.347   1.490  1.3215  1.0107  0.0515
  844MOL0     C11310  -0.299   2.347   1.411 -0.2394  0.8625  0.6513
  844MOL0     O11311  -0.417   2.382   1.477 -0.3957 -0.4863 -0.0442
  844MOL0     C11312  -0.524   2.292   1.448 -0.5401  0.8420 -0.1489
  844MOL0     C11313  -0.643   2.333   1.540  0.3327 -0.7451  0.1743
  844MOL0     C11314  -0.625   2.325   1.690  0.0122  0.4717  1.1969
  844MOL0     C11315  -0.759   2.309   1.767 -0.2847  0.6936 -0.0217
  844MOL0     C11316  -0.812   2.166   1.764 -0.9106 -0.7947 -0.0440
  844MOL0     C11317  -0.937   2.158   1.857  0.4709 -0.1404 -0.5027
  844MOL0     C11318  -0.997   2.013   1.858 -0.0029  0.3677  0.6947
  844MOL0     C11319  -1.134   2.008   1.918 -0.0904  0.9762 -0.7919
  844MOL0    Cl11320  -1.186   1.847   1.967 -0.3149  0.2471  0.0475
  844MOL0     C11321  -0.290   2.306   1.277 -0.0396  0.4449 -0.6871
  844MOL0     C11322  -0.166   2.277   1.226  0.1121  1.2083  0.1324
  844MOL0     O11323   0.056   2.162   1.046 -0.5091  0.1431  0.5051
  844MOL0     C11324   0.311   2.235   0.948  0.3003  0.0723  0.4820
  844MOL0     C11325   0.434   2.293   0.899 -0.1663  0.2041  0.6915
  844MOL0     N11326   1.191   2.602   0.697  0.2995  0.1453 -0.2236
  844MOL0     N11327   1.284   2.516   0.687 -0.2580  0.7583 -0.8920
  844MOL0     C11328   0.466   1.899   0.984 -0.3975  0.6397 -0.5775
  844MOL0     C11329   0.401   1.911   1.111 -0.2046  0.5865  0.9062
  844MOL0     C11330   0.267   1.907   1.513 -0.9400 -0.5147 -0.2818
  844MOL0     C11331   0.254   1.812   1.611  0.3619 -0.2532  0.2070
  844MOL0     C11332   0.153   1.818   1.707 -0.1209 -0.2555  0.6407
  844MOL0     C11333   0.052   1.918   1.699 -0.6618  0.4907  0.2009
  844MOL0     O11334  -0.055   1.942   1.776  0.5863  0.2160 -0.0333
  844MOL0     C11335  -0.077   1.861   1.889  0.3159 -0.1093  0.1759
  844MOL0     C11336   0.014   1.922   2.008 -0.2031  0.7834  0.0402
  844MOL0     C11337  -0.029   1.920   2.155 -0.0968  0.0964 -0.8612
  844MOL0     C11338  -0.102   1.783   2.166  0.6183 -0.0119  0.0698
  844MOL0     C11339  -0.132   1.743   2.306  0.5984 -0.4819  0.0292
  844MOL0     C11340  -0.165   1.712   2.414 -0.7901  0.9999  0.6523
  844MOL0     C11341   0.064   2.019   1.601 -0.6462  0.3460  0.6553
  844MOL0     C11342   0.180   2.012   1.514  0.0686  0.6505 -0.2871
  844MOL0     H11343   0.558   2.174   1.240  0.6468  1.0906 -1.6115
  844MOL0     H11344   0.674   2.166   1.032 -0.6498  0.1002  0.1438
  844MOL0     H11345   0.823   2.070   0.902 -0.2054 -3.4922 -0.4604
  844MOL0     H11346   0.719   2.160   0.792 -2.1591 -0.5250  0.9835
  844MOL0     H11347   0.792   1.974   0.627 -1.7513  0.4053  0.1355
  844MOL0     H11348   0.909   1.908   0.739  0.2636  0.4595 -0.8970
  844MOL0     H11349   0.999   2.154   0.744 -0.3683  2.3833 -1.6006
  844MOL0     H11350   0.925   2.175   0.592 -2.1487 -0.2460  1.7141
  844MOL0     H11351   1.098   1.933   0.650  1.1566 -1.8844 -1.5076
  844MOL0     H11352   1.057   1.999   0.489 -3.2066  1.0653  0.7158
  844MOL0     H11353   1.180   2.211   0.559  2.6787 -0.1914 -4.3472
  844MOL0     H11354   1.278   2.059   0.534  0.7388  2.0467  0.2263
  844MOL0     H11355   1.306   2.005   0.758  1.5952 -0.2955 -2.2678
  844MOL0     H11356   1.198   2.144   0.809 -0.7803  2.4248 -2.0329
  844MOL0     H11357   1.474   2.158   0.798 -2.9410 -1.6200  3.7466
  844MOL0     H11358   1.412   2.245   0.650  0.7141  1.5330  0.9945
  844MOL0     H11359   1.467   2.366   0.820 -0.1691 -0.1825 -2.0288
  844MOL0     H11360   1.353   2.289   0.938 -2.0136  1.7414 -0.1988
  844MOL0     H11361   1.098   2.373   0.919 -1.0663 -1.2491 -1.8221
  844MOL0     H11362   1.007   2.737   0.840  1.2692  0.2889 -3.4530
  844MOL0     H11363   0.986   2.608   0.964  1.0804  0.1904 -0.5077
  844MOL0     H11364   0.870   2.481   0.784  1.5424 -0.4687 -2.5024
  844MOL0     H11365   0.876   2.629   0.680  0.4235 -0.4262 -0.0045
  844MOL0     H11366   0.744   2.756   0.851 -2.1370  0.6293 -0.6796
  844MOL0     H11367   0.676   2.666   0.723  0.7224 -2.2316  0.0557
  844MOL0     H11368   0.596   2.655   0.973  1.2753 -1.2081  2.8154
  844MOL0     H11369   0.724   2.553   1.013  0.4208 -0.8806 -0.5801
  844MOL0     H11370   0.498   2.510   1.144 -0.1211 -0.1568  0.6511
  844MOL0     H11371   0.322   2.401   1.248  0.2365 -0.5065  0.7830
  844MOL0     H11372   0.031   2.325   1.498  1.5642  0.0606 -0.8227
  844MOL0     H11373  -0.182   2.376   1.594  0.8053  1.5372 -0.0937
  844MOL0     H11374  -0.488   2.189   1.446  1.6193  1.4895  1.4776
  844MOL0     H11375  -0.560   2.303   1.345  1.3334 -0.8438 -1.0624
  844MOL0     H11376  -0.734   2.278   1.516  0.0584 -0.8417  1.3985
  844MOL0     H11377  -0.664   2.438   1.517  1.5069 -0.8089 -1.3811
  844MOL0     H11378  -0.593   2.428   1.712 -0.9150  0.8589  0.7678
  844MOL0     H11379  -0.544   2.256   1.715  1.6229  1.5567 -0.7124
  844MOL0     H11380  -0.749   2.337   1.872 -2.7880 -0.4786  0.5953
  844MOL0     H11381  -0.833   2.372   1.715  0.5786  0.6865 -1.3061
  844MOL0     H11382  -0.740   2.096   1.806 -1.0001  0.4274  2.3080
  844MOL0     H11383  -0.859   2.137   1.669 -1.5505 -2.0673  0.6249
  844MOL0     H11384  -1.019   2.222   1.821  1.1593 -0.3655 -2.6467
  844MOL0     H11385  -0.900   2.190   1.954  1.0873  2.7325 -1.5635
  844MOL0     H11386  -0.999   1.964   1.760  0.7220 -2.7741  2.1059
  844MOL0     H11387  -0.933   1.949   1.920 -0.7302  0.1739  1.2479
  844MOL0     H11388  -1.211   2.052   1.854 -1.2641  1.8881  1.1662
  844MOL0     H11389  -1.126   2.068   2.009 -1.0906 -0.2663  0.1486
  844MOL0     H11390  -0.381   2.282   1.223 -0.3855 -1.4787  0.6358
  844MOL0     H11391  -0.177   2.240   1.124  0.1128 -2.2006  1.2406
  844MOL0     H11392   0.252   2.164   0.889 -1.7845  0.6781  1.7426
  844MOL0     H11393   0.472   2.250   0.807 -0.8661 -1.0550  0.9680
  844MOL0     H11394   0.445   1.813   0.921 -0.9611  0.3500  0.0025
  844MOL0     H11395   0.332   1.837   1.150 -1.7808  1.1673 -0.6697
  844MOL0     H11396   0.312   1.720   1.615  0.9026 -0.0215 -1.5568
  844MOL0     H11397   0.147   1.752   1.792  3.5326  1.8252  2.8227
  844MOL0     H11398  -0.054   1.754   1.883  0.5564 -0.3141  3.2590
  844MOL0     H11399  -0.180   1.870   1.925  0.4298 -3.7031  1.8597
  844MOL0     H11400   0.113   1.877   1.990 -0.2793  0.8189 -0.4960
  844MOL0     H11401   0.022   2.025   1.973 -3.7705  0.0789 -3.5243
  844MOL0     H11402  -0.094   2.001   2.189 -1.0029 -0.6614 -0.7404
  844MOL0     H11403   0.053   1.919   2.227  1.1632  2.3575 -2.1373
  844MOL0     H11404  -0.192   1.775   2.104  1.4274  1.6083 -1.4115
  844MOL0     H11405  -0.039   1.711   2.114  0.2211 -1.1725  1.1550
  844MOL0     H11406  -0.174   1.687   2.517  0.9055 -0.5284  0.4721
  844MOL0     H11407  -0.000   2.107   1.606 -0.7626  0.2119  3.9702
  844MOL0     H11408   0.176   2.084   1.432 -0.7312  0.3768 -0.4921
  845MOL0     O11409  11.299   1.421   7.742 -0.3452  0.4062  0.0428
  845MOL0     C11410  11.402   1.352   7.762 -0.9395 -1.1904  0.3563
  845MOL0     O11411  11.528   1.407   7.783  0.5823  0.1445 -0.0677
  845MOL0     C11412  11.553   1.537   7.792  0.8128  0.4764  0.0441
  845MOL0     C11413  11.669   1.572   7.853  0.7393 -0.3109  0.2060
  845MOL0     C11414  11.715   1.707   7.868 -0.2649 -0.0266  0.8627
  845MOL0     C11415  11.631   1.813   7.815 -0.0332  0.7576 -0.0166
  845MOL0     O11416  11.666   1.942   7.820  0.6070 -0.3272  0.6660
  845MOL0     C11417  11.605   2.025   7.919  0.3254  0.0674  0.2974
  845MOL0     C11418  11.640   2.174   7.906 -0.1791 -0.4026  0.7161
  845MOL0     C11419  11.785   2.205   7.875  0.0358 -0.2038  0.1377
  845MOL0     C11420  11.883   2.154   7.975  0.4103  0.4320 -0.4842
  845MOL0     C11421  12.027   2.200   7.957  0.2884  0.1057  0.4622
  845MOL0     C11422  12.089   2.143   7.834 -0.5451 -0.0758  0.3641
  845MOL0     C11423  12.126   2.003   7.874 -0.7199  0.4124  0.5706
  845MOL0     C11424  12.238   1.946   7.796 -0.1269  0.2063  1.0054
  845MOL0     N11425  12.224   1.808   7.757  0.9010  0.3432 -0.3230
  845MOL0     C11426  12.228   1.702   7.838 -0.0502  0.6024  0.1936
  845MOL0     C11427  12.203   1.591   7.761  0.9415  0.0347 -0.0859
  845MOL0     C11428  12.201   1.452   7.804 -0.9516 -0.3586  0.0158
  845MOL0     C11429  12.065   1.420   7.871 -0.1821  0.6886 -0.1583
  845MOL0     C11430  12.021   1.272   7.852 -0.0687  0.8590  0.2919
  845MOL0     C11431  11.876   1.228   7.901 -0.3319 -1.4772 -0.2876
  845MOL0     O11432  11.851   1.089   7.870 -1.0141  0.4802  0.1056
  845MOL0     C11433  11.945   1.000   7.904 -0.2896 -0.4908  0.9529
  845MOL0     C11434  11.987   1.002   8.029  0.0302  0.1410 -1.1765
  845MOL0     C11435  12.092   0.927   8.077 -0.9202 -0.1736  0.0718
  845MOL0     C11436  12.162   0.838   7.993  0.2139  0.0299 -0.2948
  845MOL0     C11437  12.280   0.766   8.038  0.6092 -0.0562 -0.0713
  845MOL0     O11438  12.363   0.699   7.949 -0.0588  0.1111 -0.4366
  845MOL0     C11439  12.449   0.602   7.992  1.7700  0.4654  0.7087
  845MOL0     C11440  12.441   0.527   8.111  0.4488 -0.3142  0.3198
  845MOL0     C11441  12.546   0.426   8.134  0.1552 -0.3856 -0.8215
  845MOL0     C11442  12.648   0.395   8.048 -0.1513  0.4932  1.3257
  845MOL0     O11443  12.739   0.293   8.048 -0.0468  0.1881 -0.5003
  845MOL0     C11444  12.789   0.258   8.174  0.0212 -0.3854  0.0853
  845MOL0     C11445  12.931   0.199   8.141  0.1506 -0.3020  0.9968
  845MOL0     C11446  12.986   0.124   8.264 -0.1727  0.4835  0.1270
  845MOL0     C11447  13.120   0.170   8.322 -0.4121  0.5320  1.2744
  845MOL0     C11448  13.177   0.072   8.427 -0.7201  0.2714 -0.2247
  845MOL0     C11449  13.331   0.085   8.444 -0.3140 -0.1301 -0.5347
  845MOL0     C11450  13.374  -0.023   8.543 -0.4232 -0.5892  0.0886
  845MOL0     C11451  13.423   0.031   8.678  0.3672 -0.1319 -0.1225
  845MOL0    Cl11452  13.390  -0.080   8.815  0.0051 -0.1369 -0.5006
  845MOL0     C11453  12.648   0.477   7.929  0.4366 -0.7348 -0.0538
  845MOL0     C11454  12.547   0.570   7.899 -0.1495 -0.2344 -0.2496
  845MOL0     O11455  12.316   0.787   8.155  0.2839  0.7746 -0.1954
  845MOL0     C11456  12.120   0.843   7.861  0.0615 -1.0764  0.5601
  845MOL0     C11457  12.011   0.914   7.817  0.5587 -1.2644  0.4705
  845MOL0     N11458  12.189   1.635   7.635 -0.1703  0.2944  0.3288
  845MOL0     N11459  12.191   1.764   7.632  0.0522  1.0894 -0.7805
  845MOL0     C11460  11.521   1.777   7.744  0.8905 -0.1399  0.5882
  845MOL0     C11461  11.484   1.639   7.730  0.4017 -0.1212  0.1086
  845MOL0     C11462  11.387   1.213   7.748 -0.7358 -0.5477 -0.4182
  845MOL0     C11463  11.262   1.162   7.703 -0.0064 -0.5953 -0.3428
  845MOL0     C11464  11.238   1.029   7.727  0.4053  0.4338 -0.0620
  845MOL0     C11465  11.343   0.939   7.762 -0.8023  0.5759  0.5791
  845MOL0     O11466  11.331   0.797   7.783 -0.4225 -1.0591  0.3004
  845MOL0     C11467  11.200   0.744   7.750 -0.5221 -0.3124 -0.9011
  845MOL0     C11468  11.198   0.587   7.776  0.0746 -1.2867 -0.5380
  845MOL0     C11469  11.287   0.526   7.658  0.0039 -0.3622 -0.5509
  845MOL0     C11470  11.321   0.365   7.670 -0.7828 -0.8536 -0.1325
  845MOL0     C11471  11.230   0.284   7.740  0.1709  0.1872  0.3481
  845MOL0     C11472  11.151   0.214   7.800  0.8778  0.0894 -0.1066
  845MOL0     C11473  11.464   0.998   7.794  0.6907  0.5154 -0.3841
  845MOL0     C11474  11.492   1.130   7.795 -0.5978 -0.2602  0.1185
  845MOL0     H11475  11.728   1.486   7.883  1.4503  0.3876  0.8401
  845MOL0     H11476  11.810   1.729   7.916 -1.4312  0.4319  3.1145
  845MOL0     H11477  11.649   1.993   8.013 -2.3682 -2.9211  0.7223
  845MOL0     H11478  11.499   2.001   7.937  0.0150 -1.8841 -3.2238
  845MOL0     H11479  11.603   2.232   7.991 -0.9134  1.8855 -1.0758
  845MOL0     H11480  11.580   2.215   7.825 -0.3350  1.9625  1.9487
  845MOL0     H11481  11.802   2.312   7.867 -1.5649  0.0303 -0.3933
  845MOL0     H11482  11.811   2.162   7.777  1.9342  4.0378 -1.4365
  845MOL0     H11483  11.844   2.196   8.068  0.5173  0.0904 -0.2821
  845MOL0     H11484  11.877   2.045   7.977 -2.6980  0.5227  0.7195
  845MOL0     H11485  12.081   2.178   8.050  1.0300 -0.1368 -0.0171
  845MOL0     H11486  12.024   2.309   7.948 -3.5127  0.0818 -0.1556
  845MOL0     H11487  12.169   2.211   7.802  0.3772 -1.3816 -0.2128
  845MOL0     H11488  12.019   2.135   7.750 -1.5229  2.1380  0.9075
  845MOL0     H11489  12.147   2.001   7.981 -1.4875  1.6724  0.7699
  845MOL0     H11490  12.042   1.934   7.861 -0.7055  0.6564 -0.9984
  845MOL0     H11491  12.330   1.945   7.856 -0.1535  0.0744  1.0439
  845MOL0     H11492  12.253   1.999   7.702  0.6495 -2.7608 -0.6641
  845MOL0     H11493  12.229   1.698   7.946 -2.3459 -1.6666  0.2311
  845MOL0     H11494  12.286   1.431   7.870 -1.2323 -1.4849  0.0434
  845MOL0     H11495  12.203   1.393   7.712  3.1396  1.8667 -1.5655
  845MOL0     H11496  11.988   1.483   7.825  0.4693 -0.3056 -2.8412
  845MOL0     H11497  12.090   1.448   7.973 -3.1931 -0.5535  1.0454
  845MOL0     H11498  12.005   1.262   7.745 -1.5538 -1.5725  0.6605
  845MOL0     H11499  12.100   1.213   7.898 -1.7509 -1.5208  0.3038
  845MOL0     H11500  11.818   1.293   7.835  1.9655  1.4334  0.3495
  845MOL0     H11501  11.849   1.250   8.004  0.9868 -0.1375 -0.1851
  845MOL0     H11502  11.939   1.063   8.106  3.0114 -0.2894  1.2129
  845MOL0     H11503  12.119   0.958   8.178  1.1120 -2.0690  0.1707
  845MOL0     H11504  12.369   0.535   8.192  0.2725 -1.6224  0.3068
  845MOL0     H11505  12.548   0.378   8.231  1.5665 -0.6237 -0.9523
  845MOL0     H11506  12.722   0.183   8.217  1.9644 -3.2603 -1.5731
  845MOL0     H11507  12.818   0.336   8.246 -2.9131  0.6251  0.3104
  845MOL0     H11508  12.993   0.284   8.112  0.6746 -1.1471 -0.4921
  845MOL0     H11509  12.927   0.127   8.058 -0.8557 -0.7343  1.4017
  845MOL0     H11510  12.994   0.017   8.240 -0.5901  0.2867  0.8334
  845MOL0     H11511  12.920   0.141   8.349 -0.7017 -2.4766  0.4156
  845MOL0     H11512  13.183   0.178   8.234 -1.6130  1.5239  0.4787
  845MOL0     H11513  13.137   0.272   8.358  5.1677  1.2464 -2.2401
  845MOL0     H11514  13.142  -0.026   8.394 -2.7546 -0.5317  3.6451
  845MOL0     H11515  13.120   0.111   8.512 -1.7779 -0.6622 -0.4907
  845MOL0     H11516  13.352   0.185   8.485 -3.7468 -0.2760  1.9929
  845MOL0     H11517  13.378   0.067   8.347  1.1680  1.1216 -0.0968
  845MOL0     H11518  13.302  -0.104   8.557 -0.2285 -0.3926  2.7721
  845MOL0     H11519  13.465  -0.073   8.508 -1.0129 -1.3737 -0.3526
  845MOL0     H11520  13.367   0.122   8.701  0.0277 -0.4430  0.3125
  845MOL0     H11521  13.528   0.060   8.680 -0.0219  1.3362  0.9565
  845MOL0     H11522  12.729   0.465   7.858 -0.8976 -0.9429 -1.5911
  845MOL0     H11523  12.551   0.641   7.817  0.9545  0.6410  0.5347
  845MOL0     H11524  12.171   0.784   7.785 -1.3885 -2.3680  0.5212
  845MOL0     H11525  11.970   0.906   7.716  0.6952 -4.5730  0.5675
  845MOL0     H11526  11.453   1.851   7.702 -0.2661 -2.6050 -2.2732
  845MOL0     H11527  11.390   1.611   7.682 -0.0626  1.3595  0.1015
  845MOL0     H11528  11.184   1.230   7.670  0.3998 -0.9319 -2.1087
  845MOL0     H11529  11.139   0.987   7.742  0.4061  1.2372  2.6169
  845MOL0     H11530  11.166   0.764   7.648 -0.6928  2.1752 -0.4156
  845MOL0     H11531  11.128   0.789   7.818  0.2408 -2.5458  1.5373
  845MOL0     H11532  11.241   0.569   7.875 -2.6321  5.0420  2.2879
  845MOL0     H11533  11.093   0.559   7.786 -0.7331  1.8786  0.9300
  845MOL0     H11534  11.385   0.572   7.644 -0.7230  1.2232 -0.6920
  845MOL0     H11535  11.226   0.520   7.567 -0.8549 -1.4299  0.0735
  845MOL0     H11536  11.328   0.318   7.572  0.3742 -2.1109  0.5285
  845MOL0     H11537  11.421   0.363   7.713 -0.6665  0.0809 -0.3387
  845MOL0     H11538  11.077   0.144   7.832 -1.1697  2.6293  1.1010
  845MOL0     H11539  11.541   0.925   7.816  1.3781  0.4318 -2.7905
  845MOL0     H11540  11.591   1.166   7.818 -0.2138 -1.2992  0.1624
  846MOL0     O11541   3.207   2.626  10.463 -0.1363 -0.3978 -0.3447
  846MOL0     C11542   3.281   2.718  10.438  0.4540 -0.0170  0.6630
  846MOL0     O11543   3.242   2.833  10.374 -0.1333  0.4363 -0.1048
  846MOL0     C11544   3.113   2.863  10.347  0.1006 -0.4164  0.3181
  846MOL0     C11545   3.039   2.770  10.271 -0.1154  1.1864 -0.7124
  846MOL0     C11546   2.902   2.778  10.248  0.0228 -0.2936  0.3968
  846MOL0     C11547   2.833   2.882  10.292 -0.1638  0.6026  0.7479
  846MOL0     O11548   2.697   2.880  10.274 -0.6844  0.2845  0.4764
  846MOL0     C11549   2.616   2.988  10.300  0.6516 -1.0063 -0.2630
  846MOL0     C11550   2.484   2.945  10.256 -0.2277  0.3776 -0.0648
  846MOL0     C11551   2.384   3.046  10.316  0.9626  0.4400 -0.4231
  846MOL0     C11552   2.235   3.016  10.281 -0.1801 -0.4871  0.6475
  846MOL0     C11553   2.187   2.912  10.383 -0.1509  0.8415 -0.4838
  846MOL0     C11554   2.042   2.877  10.384  0.9960 -0.2578  0.4822
  846MOL0     C11555   1.970   2.824  10.509 -0.3978  0.0753  0.1777
  846MOL0     C11556   1.815   2.829  10.493 -0.0029  0.3619 -1.3905
  846MOL0     N11557   1.751   2.783  10.370 -1.1584 -0.5778 -0.3947
  846MOL0     C11558   1.754   2.654  10.313 -0.7156 -0.5456 -1.0421
  846MOL0     C11559   1.708   2.677  10.186 -0.1658 -0.4407  0.1905
  846MOL0     C11560   1.664   2.581  10.081  0.7236  0.7917  0.3716
  846MOL0     C11561   1.538   2.505  10.108  0.1013  1.2116 -0.1980
  846MOL0     C11562   1.519   2.384  10.012  0.2114  0.0831 -0.1466
  846MOL0     C11563   1.381   2.317  10.034  0.1789  0.7225  0.2982
  846MOL0     O11564   1.270   2.418  10.041  0.6597  0.3185 -0.0251
  846MOL0     C11565   1.182   2.428   9.936  1.1772  0.1290  0.3391
  846MOL0     C11566   1.046   2.423   9.954  0.3599 -0.5279 -0.7857
  846MOL0     C11567   0.958   2.418   9.851  0.3979  1.5113 -0.4382
  846MOL0     C11568   1.004   2.432   9.726  1.0447  0.2932  0.5308
  846MOL0     C11569   0.920   2.411   9.601  0.2826  0.2557 -0.3444
  846MOL0     O11570   0.971   2.447   9.486 -1.0458 -0.0108 -0.3808
  846MOL0     C11571   0.912   2.426   9.368 -0.3413 -0.4024  0.2158
  846MOL0     C11572   0.999   2.437   9.251 -0.2364 -0.2562 -0.2510
  846MOL0     C11573   0.946   2.405   9.120  0.4711 -0.4155 -0.3356
  846MOL0     C11574   0.816   2.383   9.106 -0.1865  0.0551  0.2147
  846MOL0     O11575   0.774   2.347   8.980  0.3852 -0.4935 -0.3607
  846MOL0     C11576   0.813   2.216   8.943 -0.6179 -0.0789  0.7849
  846MOL0     C11577   0.735   2.194   8.817 -0.4466 -0.3992 -0.6288
  846MOL0     C11578   0.766   2.068   8.745  0.7153 -0.5604 -0.5696
  846MOL0     C11579   0.661   2.037   8.639 -0.8101  0.0526  0.2570
  846MOL0     C11580   0.712   1.900   8.564  0.4300  0.1673  0.1278
  846MOL0     C11581   0.630   1.888   8.434 -0.0816  0.1570 -0.3911
  846MOL0     C11582   0.654   1.747   8.378 -0.8202 -0.5741  0.2891
  846MOL0     C11583   0.661   1.750   8.231  0.4480 -0.4592  0.8885
  846MOL0    Cl11584   0.485   1.716   8.182 -0.3952  0.2852  0.2344
  846MOL0     C11585   0.724   2.385   9.211 -0.1297 -0.1347  0.2128
  846MOL0     C11586   0.775   2.412   9.341  0.5513  0.2521  0.3171
  846MOL0     O11587   0.823   2.339   9.615 -0.8081  0.3776 -0.5666
  846MOL0     C11588   1.144   2.429   9.699 -1.1053 -0.2082  0.2891
  846MOL0     C11589   1.232   2.438   9.805 -0.8182 -0.1352  1.2137
  846MOL0     N11590   1.710   2.810  10.164  0.1305 -0.6695  0.5837
  846MOL0     N11591   1.740   2.877  10.273 -0.2245  1.1431  0.0802
  846MOL0     C11592   2.905   2.982  10.369  0.7249  0.5480  0.1275
  846MOL0     C11593   3.043   2.976  10.394 -0.2499 -0.4934 -0.1871
  846MOL0     C11594   3.421   2.696  10.471  0.4777 -0.4224  0.5856
  846MOL0     C11595   3.458   2.576  10.530 -0.1832  0.8625  0.1974
  846MOL0     C11596   3.598   2.555  10.557  0.3408  0.2590 -0.4029
  846MOL0     C11597   3.692   2.645  10.522  0.0884 -0.5968 -0.1379
  846MOL0     O11598   3.819   2.606  10.542 -0.1493 -0.0672 -0.4988
  846MOL0     C11599   3.892   2.601  10.419  0.2724 -0.9810 -1.5847
  846MOL0     C11600   4.007   2.500  10.432  0.3824  0.1656  0.2747
  846MOL0     C11601   4.139   2.538  10.356  1.3862  0.6276  0.6953
  846MOL0     C11602   4.237   2.423  10.371  0.1049  0.4075  0.7675
  846MOL0     C11603   4.314   2.447  10.489 -0.2276 -0.3918 -1.1147
  846MOL0     C11604   4.367   2.483  10.589 -0.6984  0.9817 -0.6612
  846MOL0     C11605   3.663   2.763  10.444 -0.4788  0.5075 -0.9981
  846MOL0     C11606   3.525   2.788  10.421 -0.1919  0.0039  0.6378
  846MOL0     H11607   3.094   2.689  10.225 -0.0240  1.8701 -1.8475
  846MOL0     H11608   2.859   2.699  10.187  0.1736  2.4367 -3.6044
  846MOL0     H11609   2.645   3.065  10.227  1.5124 -0.6802  0.3904
  846MOL0     H11610   2.617   3.036  10.399 -2.8342 -2.8076  0.8098
  846MOL0     H11611   2.459   2.852  10.308 -1.4370  0.1671 -0.9582
  846MOL0     H11612   2.485   2.934  10.147  0.3222 -0.0522 -0.0174
  846MOL0     H11613   2.418   3.139  10.270  1.6247 -1.4230 -4.0550
  846MOL0     H11614   2.390   3.056  10.425 -0.6644 -2.7876  0.1166
  846MOL0     H11615   2.178   3.109  10.287 -2.0415 -1.4710 -0.8176
  846MOL0     H11616   2.221   2.975  10.181 -3.4565  1.7258  0.0566
  846MOL0     H11617   2.210   2.957  10.479 -1.7446  1.1998 -0.2347
  846MOL0     H11618   2.238   2.816  10.367  1.6538  1.7882 -0.6342
  846MOL0     H11619   2.017   2.811  10.301  0.2363 -0.8550  1.1624
  846MOL0     H11620   1.993   2.974  10.372  0.3901 -0.2884  2.3100
  846MOL0     H11621   2.004   2.721  10.526  0.5687  0.4894  0.8190
  846MOL0     H11622   1.998   2.866  10.606 -1.8425  1.3444  0.0871
  846MOL0     H11623   1.790   2.930  10.527  2.5923 -0.6327  4.5675
  846MOL0     H11624   1.764   2.778  10.575  0.5254  0.4037 -1.0327
  846MOL0     H11625   1.784   2.561  10.361 -0.4263 -0.6175 -1.3523
  846MOL0     H11626   1.751   2.516  10.070  1.3794  2.0772 -4.9686
  846MOL0     H11627   1.656   2.633   9.985  0.4849  1.8610  0.9465
  846MOL0     H11628   1.446   2.564  10.093  0.0326  0.8083 -1.4715
  846MOL0     H11629   1.530   2.483  10.215  1.6046  2.2310  0.1444
  846MOL0     H11630   1.527   2.407   9.906  1.1331 -2.4348 -0.6998
  846MOL0     H11631   1.595   2.307  10.028 -0.2910 -0.4236 -0.1660
  846MOL0     H11632   1.399   2.283  10.136 -3.3667 -0.1287  0.7728
  846MOL0     H11633   1.356   2.237   9.963  3.0760  0.5424 -0.6660
  846MOL0     H11634   1.016   2.421  10.058  3.9183 -0.4481  0.3813
  846MOL0     H11635   0.853   2.411   9.878  0.2182 -1.1537 -1.5965
  846MOL0     H11636   1.106   2.450   9.263 -0.3607  0.8025 -0.1978
  846MOL0     H11637   1.018   2.395   9.039  1.9837  1.9425  0.6019
  846MOL0     H11638   0.804   2.146   9.027  2.2814 -0.3387  0.9714
  846MOL0     H11639   0.915   2.214   8.904 -0.2673  2.6431  1.3786
  846MOL0     H11640   0.765   2.272   8.746 -3.1859 -0.6055 -2.1553
  846MOL0     H11641   0.627   2.193   8.833 -0.2150  0.3318  1.2069
  846MOL0     H11642   0.765   1.988   8.819 -1.5540  3.9341  5.0512
  846MOL0     H11643   0.866   2.077   8.700  1.0787  1.0496  0.4748
  846MOL0     H11644   0.564   2.020   8.686 -1.9925  2.2935 -1.2403
  846MOL0     H11645   0.648   2.121   8.570 -0.0792  1.2053  1.4739
  846MOL0     H11646   0.697   1.822   8.639  0.3501  1.1147  1.1304
  846MOL0     H11647   0.819   1.905   8.546  0.6638 -1.0516  1.0374
  846MOL0     H11648   0.663   1.967   8.366  0.7934  0.1620  0.0183
  846MOL0     H11649   0.524   1.893   8.462  0.7744 -0.2007  3.4056
  846MOL0     H11650   0.748   1.712   8.422 -1.8091 -2.2467  1.1548
  846MOL0     H11651   0.591   1.670   8.424  0.4196  0.1542  3.4625
  846MOL0     H11652   0.735   1.681   8.191  0.7791  0.7756 -0.7396
  846MOL0     H11653   0.681   1.846   8.183 -0.6521 -2.6898 -4.7386
  846MOL0     H11654   0.623   2.347   9.198  0.6740 -2.3975  0.1828
  846MOL0     H11655   0.708   2.422   9.427  1.0710 -1.0123  0.8896
  846MOL0     H11656   1.176   2.422   9.596 -0.5249 -2.4674  0.5750
  846MOL0     H11657   1.340   2.443   9.794 -0.9119  0.7819  0.6347
  846MOL0     H11658   2.848   3.061  10.419  2.9600  0.1033  3.8109
  846MOL0     H11659   3.096   3.052  10.451  5.2796 -2.9569 -1.2959
  846MOL0     H11660   3.383   2.508  10.567  0.1414 -0.2930 -1.1673
  846MOL0     H11661   3.632   2.463  10.603 -0.9247 -0.8257 -1.5735
  846MOL0     H11662   3.941   2.698  10.406 -0.9328  0.1004  1.2257
  846MOL0     H11663   3.831   2.580  10.331  0.4599  0.8993 -2.2124
  846MOL0     H11664   4.045   2.501  10.535 -0.4371  2.9497  0.6347
  846MOL0     H11665   3.987   2.392  10.423  2.8446 -0.3161 -0.2469
  846MOL0     H11666   4.178   2.630  10.401  3.2440  0.1607  0.1187
  846MOL0     H11667   4.121   2.552  10.249  3.2027  1.1279  0.4180
  846MOL0     H11668   4.172   2.335  10.378  0.3782  0.3118  2.7294
  846MOL0     H11669   4.295   2.406  10.280 -0.7405  0.3979  0.2170
  846MOL0     H11670   4.421   2.505  10.679 -1.4889 -1.4095  0.4673
  846MOL0     H11671   3.742   2.835  10.425  0.4725  0.7160  2.9425
  846MOL0     H11672   3.500   2.861  10.345  0.4111 -2.7293 -2.4149
  847MOL0     O11673   6.500   0.326   2.761  0.1895 -0.1465 -0.2473
  847MOL0     C11674   6.552   0.436   2.749 -0.0465  0.7415 -0.6286
  847MOL0     O11675   6.491   0.546   2.710 -0.0723  0.6448 -0.1538
  847MOL0     C11676   6.350   0.562   2.709  0.8821  0.6560  0.2574
  847MOL0     C11677   6.246   0.489   2.771 -0.0178 -0.0635  0.1373
  847MOL0     C11678   6.116   0.512   2.753  1.5273 -0.6002 -0.0124
  847MOL0     C11679   6.077   0.620   2.669  0.4537  0.3469  0.2551
  847MOL0     O11680   5.946   0.660   2.641  0.3407 -0.9859 -0.2934
  847MOL0     C11681   5.875   0.551   2.580 -0.1488  0.4063  1.2001
  847MOL0     C11682   5.735   0.556   2.619 -0.0794 -0.2348  0.2753
  847MOL0     C11683   5.639   0.445   2.563 -0.1939  0.2115 -0.1525
  847MOL0     C11684   5.632   0.426   2.406 -0.3291 -0.9514  0.1995
  847MOL0     C11685   5.582   0.576   2.344  0.1215 -0.3805 -0.9537
  847MOL0     C11686   5.435   0.628   2.377  0.3639 -0.4012 -0.1832
  847MOL0     C11687   5.317   0.535   2.334 -0.3966  0.3476 -0.3581
  847MOL0     C11688   5.171   0.571   2.379  0.4214 -1.6852  0.3848
  847MOL0     N11689   5.165   0.585   2.523 -0.0236 -0.2407  0.2000
  847MOL0     C11690   5.231   0.508   2.616  0.4785  0.9486  0.0040
  847MOL0     C11691   5.247   0.590   2.721 -1.0098  0.0434 -0.9681
  847MOL0     C11692   5.317   0.574   2.848 -0.4488  0.3185 -0.3713
  847MOL0     C11693   5.210   0.560   2.959 -0.4660 -0.1756  0.8123
  847MOL0     C11694   5.120   0.434   2.942 -1.4788  0.0237  0.0698
  847MOL0     C11695   4.979   0.471   2.909 -0.9670 -0.0047  0.0047
  847MOL0     O11696   4.898   0.356   2.860 -1.6342 -0.4556 -0.1104
  847MOL0     C11697   4.839   0.265   2.945 -0.2826 -0.6886  0.2775
  847MOL0     C11698   4.825   0.298   3.077  0.3373 -0.1421 -0.1894
  847MOL0     C11699   4.754   0.214   3.167  0.3150  0.5068  0.2667
  847MOL0     C11700   4.696   0.092   3.116 -0.4288 -0.1382 -1.2519
  847MOL0     C11701   4.621  -0.006   3.200 -0.2613  0.3657 -0.1605
  847MOL0     O11702   4.600  -0.134   3.147 -0.5171  0.4013  0.4009
  847MOL0     C11703   4.542  -0.232   3.218  0.0238 -0.4022  0.0749
  847MOL0     C11704   4.398  -0.226   3.220  0.0490  0.5064  0.4815
  847MOL0     C11705   4.326  -0.339   3.264 -0.4711  0.1750  0.4357
  847MOL0     C11706   4.400  -0.444   3.318  0.2414  0.5754 -0.5475
  847MOL0     O11707   4.320  -0.550   3.353 -0.8049  0.1331  0.3157
  847MOL0     C11708   4.348  -0.609   3.485  0.1772  0.4871  0.0457
  847MOL0     C11709   4.245  -0.722   3.505  0.2515  0.9394 -0.0235
  847MOL0     C11710   4.289  -0.824   3.615 -0.1058  0.2077  0.9528
  847MOL0     C11711   4.184  -0.937   3.639 -0.2122  0.1051 -0.9807
  847MOL0     C11712   4.207  -0.998   3.782 -1.0439  0.1635  0.6541
  847MOL0     C11713   4.323  -1.102   3.798 -0.7543  0.5699  0.8554
  847MOL0     C11714   4.301  -1.195   3.918 -0.1962  0.3088  0.1321
  847MOL0     C11715   4.293  -1.145   4.061 -0.2988 -0.0578 -0.2825
  847MOL0    Cl11716   4.453  -1.066   4.087  0.2579 -0.6593  0.6155
  847MOL0     C11717   4.540  -0.441   3.324  0.2396 -0.5859 -0.5308
  847MOL0     C11718   4.612  -0.340   3.268  0.4514  0.4844 -0.0359
  847MOL0     O11719   4.577   0.030   3.305  1.1560 -0.0444 -0.2672
  847MOL0     C11720   4.717   0.057   2.986 -0.2622  0.1323  0.5189
  847MOL0     C11721   4.782   0.145   2.902 -0.7332  0.5045  0.7492
  847MOL0     N11722   5.178   0.707   2.697 -0.3733  0.0071 -0.9931
  847MOL0     N11723   5.135   0.707   2.576  0.2504 -0.2633 -0.2105
  847MOL0     C11724   6.172   0.705   2.618  0.9738  1.1659  0.3524
  847MOL0     C11725   6.311   0.673   2.635  0.1613  1.2370  0.4214
  847MOL0     C11726   6.687   0.457   2.804  0.0913  0.3267 -0.0603
  847MOL0     C11727   6.746   0.586   2.796  0.0663 -0.0707  0.0750
  847MOL0     C11728   6.869   0.604   2.839 -0.0832 -0.9825  0.1640
  847MOL0     C11729   6.948   0.494   2.882  1.1953 -1.2031  0.7372
  847MOL0     O11730   7.066   0.522   2.918  0.1954 -0.6444  0.4330
  847MOL0     C11731   7.086   0.537   3.060  0.6160 -0.3580 -0.3005
  847MOL0     C11732   7.218   0.462   3.096 -0.0666  0.2137 -0.2942
  847MOL0     C11733   7.235   0.443   3.248 -0.2868 -0.9068  0.5522
  847MOL0     C11734   7.241   0.572   3.333  0.5305 -0.0673  0.0448
  847MOL0     C11735   7.254   0.553   3.477  0.2654  0.4064 -0.3311
  847MOL0     C11736   7.251   0.541   3.602  0.2260  0.0018 -0.2226
  847MOL0     C11737   6.895   0.364   2.878 -1.0270  0.3164 -0.2771
  847MOL0     C11738   6.768   0.343   2.833  0.3038 -0.6956 -0.3990
  847MOL0     H11739   6.264   0.412   2.846 -5.5353  0.1834  2.1731
  847MOL0     H11740   6.042   0.450   2.802  1.2175 -0.3716 -0.1894
  847MOL0     H11741   5.920   0.456   2.611  4.0994  2.0837  0.9356
  847MOL0     H11742   5.895   0.571   2.474  0.2961  0.0354  1.2119
  847MOL0     H11743   5.688   0.650   2.589 -0.6981 -0.8937 -0.8954
  847MOL0     H11744   5.726   0.567   2.727 -0.0653 -1.4211  0.4054
  847MOL0     H11745   5.537   0.452   2.602  0.2685  0.8148  0.9859
  847MOL0     H11746   5.668   0.350   2.608 -0.0252  0.8694  1.1702
  847MOL0     H11747   5.736   0.405   2.378  0.0701 -1.2840  1.8407
  847MOL0     H11748   5.565   0.348   2.367 -0.1766 -0.5239 -0.9747
  847MOL0     H11749   5.583   0.566   2.235 -0.0990 -2.4806 -0.8144
  847MOL0     H11750   5.656   0.646   2.384  1.5821 -2.1171 -0.4243
  847MOL0     H11751   5.418   0.730   2.342 -1.2379  0.0658  1.7852
  847MOL0     H11752   5.433   0.631   2.486 -2.1117 -1.0710 -0.1628
  847MOL0     H11753   5.321   0.525   2.225 -0.2827 -1.6733 -0.2081
  847MOL0     H11754   5.348   0.435   2.366  1.1933  0.9922  0.2348
  847MOL0     H11755   5.106   0.488   2.350 -1.9556  0.3498 -0.4548
  847MOL0     H11756   5.142   0.661   2.324 -0.8983 -2.7830 -0.7879
  847MOL0     H11757   5.281   0.412   2.613  0.7268  1.0690  0.1876
  847MOL0     H11758   5.381   0.656   2.882 -2.2864  2.4709 -1.7269
  847MOL0     H11759   5.372   0.481   2.841  0.6013  1.0376 -2.3468
  847MOL0     H11760   5.153   0.652   2.970  0.0232  0.2362  0.0032
  847MOL0     H11761   5.255   0.555   3.058 -2.3679  0.1506  1.7310
  847MOL0     H11762   5.155   0.361   2.867  0.3170  0.1145  0.7606
  847MOL0     H11763   5.125   0.379   3.036  0.1878 -2.8255 -1.5238
  847MOL0     H11764   4.980   0.550   2.834 -0.5855 -0.3958 -0.4100
  847MOL0     H11765   4.949   0.525   2.999  2.5974 -1.0348  2.0266
  847MOL0     H11766   4.861   0.387   3.128  1.1741 -0.8590  0.5051
  847MOL0     H11767   4.751   0.234   3.274 -4.1515  3.4159 -0.1004
  847MOL0     H11768   4.342  -0.149   3.167  0.3113 -0.8441 -1.9080
  847MOL0     H11769   4.218  -0.331   3.266 -0.4187  0.8435  1.8934
  847MOL0     H11770   4.345  -0.538   3.569  2.8487 -0.3008  0.9140
  847MOL0     H11771   4.448  -0.651   3.491 -0.3536 -0.7375  0.6608
  847MOL0     H11772   4.226  -0.765   3.406 -2.8310  1.0294  0.4444
  847MOL0     H11773   4.153  -0.667   3.525  0.2949  1.4294 -1.1063
  847MOL0     H11774   4.312  -0.760   3.701  0.9049  0.9947  0.1427
  847MOL0     H11775   4.387  -0.870   3.597 -1.6751 -2.7135 -0.8831
  847MOL0     H11776   4.082  -0.900   3.628 -0.5978 -0.9891 -1.1514
  847MOL0     H11777   4.196  -1.009   3.558  0.2420  0.7496 -1.4963
  847MOL0     H11778   4.118  -1.057   3.806 -0.1250 -0.6171  2.3030
  847MOL0     H11779   4.223  -0.920   3.857 -2.3902  1.3486 -0.2468
  847MOL0     H11780   4.417  -1.052   3.821 -0.2650 -1.8014  5.0193
  847MOL0     H11781   4.320  -1.167   3.710  0.3465  0.5432  0.8313
  847MOL0     H11782   4.215  -1.261   3.898  0.7154 -1.3835  1.5376
  847MOL0     H11783   4.380  -1.271   3.919 -0.9021 -0.4419  0.5040
  847MOL0     H11784   4.281  -1.235   4.122 -1.0219 -0.0982 -0.4813
  847MOL0     H11785   4.204  -1.085   4.086 -1.6069 -1.6012 -1.0912
  847MOL0     H11786   4.600  -0.525   3.358  1.5173 -0.0104 -1.2728
  847MOL0     H11787   4.720  -0.333   3.263  0.4135  0.2936 -1.8867
  847MOL0     H11788   4.681  -0.035   2.941 -1.2577  1.1323 -0.7967
  847MOL0     H11789   4.768   0.118   2.798 -0.4371 -2.6945  1.4575
  847MOL0     H11790   6.143   0.790   2.556  0.7321 -0.4545 -1.8705
  847MOL0     H11791   6.395   0.721   2.585 -0.1318  0.5289 -0.7946
  847MOL0     H11792   6.694   0.666   2.743 -1.5925 -1.8678 -1.1438
  847MOL0     H11793   6.909   0.704   2.827  0.5313 -1.2604 -0.1867
  847MOL0     H11794   7.007   0.484   3.114 -0.4253  1.4761  0.0505
  847MOL0     H11795   7.082   0.641   3.094  2.3826 -1.2450  3.0609
  847MOL0     H11796   7.218   0.364   3.048 -0.6696 -1.1542  2.3155
  847MOL0     H11797   7.294   0.526   3.049 -0.5364  1.4434  0.5517
  847MOL0     H11798   7.328   0.389   3.266  0.5384 -0.1108 -1.0395
  847MOL0     H11799   7.152   0.384   3.289  1.2813 -2.7099  1.2780
  847MOL0     H11800   7.328   0.630   3.302  1.1579 -0.7265  0.5199
  847MOL0     H11801   7.150   0.630   3.316  1.5899  1.9998  1.0493
  847MOL0     H11802   7.231   0.528   3.706 -1.2166 -1.0709 -0.5908
  847MOL0     H11803   6.964   0.286   2.909 -2.1208 -0.1958  0.9445
  847MOL0     H11804   6.716   0.248   2.832  0.6314 -0.8758 -1.4990
  848MOL0     O11805   8.056   7.045   1.850 -0.2246  0.6546  0.1382
  848MOL0     C11806   8.091   6.978   1.942 -0.4755  0.2933 -0.0959
  848MOL0     O11807   8.078   6.838   1.952  0.0773  0.3278  0.3508
  848MOL0     C11808   8.010   6.766   1.856 -0.7353  1.3234  1.4109
  848MOL0     C11809   7.893   6.695   1.893 -0.2747  0.2360  0.6282
  848MOL0     C11810   7.838   6.600   1.807  0.4575 -0.0137  0.9583
  848MOL0     C11811   7.882   6.583   1.682  0.1021  0.1581  1.2796
  848MOL0     O11812   7.828   6.481   1.597 -0.4725  0.4486 -0.3409
  848MOL0     C11813   7.905   6.371   1.552 -1.0489 -0.4681 -0.0156
  848MOL0     C11814   7.804   6.285   1.484 -0.7222  0.6268  0.0326
  848MOL0     C11815   7.679   6.256   1.567 -0.6183  0.2947 -0.0955
  848MOL0     C11816   7.715   6.154   1.670  0.5186 -0.1984 -0.1894
  848MOL0     C11817   7.577   6.098   1.738 -0.7286 -0.2457 -0.8939
  848MOL0     C11818   7.602   6.015   1.869  0.6191 -0.1140  0.5094
  848MOL0     C11819   7.491   6.047   1.968 -0.3017 -1.2469  1.0420
  848MOL0     C11820   7.353   6.016   1.927  0.7000 -0.0429  0.1488
  848MOL0     N11821   7.252   6.099   1.989 -0.7258 -0.4356  0.2607
  848MOL0     C11822   7.237   6.231   1.969  0.1169 -0.0995  0.0049
  848MOL0     C11823   7.183   6.282   2.090  0.4442 -0.5764  0.1923
  848MOL0     C11824   7.176   6.431   2.113 -0.1961 -0.6850  0.9298
  848MOL0     C11825   7.219   6.511   1.984 -0.1677  0.5131  0.0639
  848MOL0     C11826   7.265   6.650   2.032  0.1584  0.2870 -0.3218
  848MOL0     C11827   7.303   6.737   1.917 -0.2671 -0.4450  0.0105
  848MOL0     O11828   7.175   6.798   1.893  0.4983 -0.8837  0.2904
  848MOL0     C11829   7.158   6.930   1.929 -0.1301  0.3461  0.6502
  848MOL0     C11830   7.219   6.991   2.037 -0.7269  0.1859  0.6197
  848MOL0     C11831   7.206   7.131   2.067 -0.2741  0.5506  0.2547
  848MOL0     C11832   7.145   7.218   1.977  0.9127  0.2714 -0.7297
  848MOL0     C11833   7.154   7.366   1.993  0.6099  0.2558 -0.2447
  848MOL0     O11834   7.049   7.437   1.948  0.0400  0.3680  0.4029
  848MOL0     C11835   7.042   7.572   1.954 -0.8433 -0.2249 -1.0192
  848MOL0     C11836   7.014   7.655   1.840  0.4719 -0.3980  0.6525
  848MOL0     C11837   7.027   7.803   1.846  0.3060  0.9856  0.4814
  848MOL0     C11838   7.054   7.862   1.973 -0.0087  0.9495  1.1589
  848MOL0     O11839   7.077   7.989   1.980  0.0876 -0.9058  0.7035
  848MOL0     C11840   7.203   8.035   1.920 -0.3154 -1.0332 -0.0689
  848MOL0     C11841   7.200   8.193   1.878 -0.7633  0.8512 -0.3884
  848MOL0     C11842   7.173   8.296   1.993 -0.9415  1.1354 -0.6331
  848MOL0     C11843   7.195   8.449   1.950 -0.0140  0.7169 -0.4791
  848MOL0     C11844   7.219   8.527   2.083 -0.2959 -0.3111 -0.3361
  848MOL0     C11845   7.251   8.671   2.058  0.0289  0.5867  0.2605
  848MOL0     C11846   7.136   8.749   1.981  0.1787 -0.0803  0.4840
  848MOL0     C11847   7.186   8.893   1.980 -0.0159 -0.9585  0.1098
  848MOL0    Cl11848   7.282   8.932   1.829 -0.0565  0.0419  0.1347
  848MOL0     C11849   7.062   7.778   2.090  0.4962  0.6192 -0.0033
  848MOL0     C11850   7.061   7.644   2.072  0.6787 -0.6502 -0.2700
  848MOL0     O11851   7.251   7.412   2.053 -0.0088  0.2550 -0.3025
  848MOL0     C11852   7.079   7.156   1.869  1.0243 -0.2495 -0.1971
  848MOL0     C11853   7.083   7.018   1.849 -0.7413  0.5113  0.7829
  848MOL0     N11854   7.167   6.185   2.185 -0.6373 -0.5092 -0.7094
  848MOL0     N11855   7.216   6.080   2.121 -0.0027  0.3428  0.5683
  848MOL0     C11856   7.989   6.659   1.633  0.3534  0.2574  0.2356
  848MOL0     C11857   8.052   6.754   1.720 -0.3947 -0.1049 -0.4447
  848MOL0     C11858   8.148   7.050   2.066 -1.2584 -0.2252 -0.0996
  848MOL0     C11859   8.215   7.178   2.055  0.1828 -0.6444  0.3689
  848MOL0     C11860   8.261   7.238   2.169 -0.6284  0.3193 -0.0402
  848MOL0     C11861   8.245   7.173   2.300 -0.5212  1.5748 -0.3425
  848MOL0     O11862   8.272   7.223   2.426  0.7389  0.3721 -0.4123
  848MOL0     C11863   8.314   7.359   2.448  0.4875  1.1362  0.7570
  848MOL0     C11864   8.264   7.393   2.587  0.3050 -0.2687 -0.1686
  848MOL0     C11865   8.100   7.397   2.584  0.5178  0.8177 -0.5102
  848MOL0     C11866   8.042   7.396   2.731 -0.5725  0.0631  0.0685
  848MOL0     C11867   8.054   7.276   2.809  0.3947  0.0840  0.7446
  848MOL0     C11868   8.069   7.173   2.876 -0.2757 -0.9440 -0.8189
  848MOL0     C11869   8.204   7.042   2.303  1.2953  0.7191 -0.0973
  848MOL0     C11870   8.158   6.974   2.182  0.0007 -0.0338 -0.1446
  848MOL0     H11871   7.844   6.709   1.988 -3.5444 -3.5091 -0.2263
  848MOL0     H11872   7.759   6.538   1.849  0.7005  0.3968  2.0559
  848MOL0     H11873   7.949   6.323   1.640 -1.7863  1.6297  1.5974
  848MOL0     H11874   7.989   6.401   1.489  2.4545 -1.3940  3.7959
  848MOL0     H11875   7.840   6.188   1.447  2.4918  0.0351  4.0528
  848MOL0     H11876   7.774   6.340   1.394  1.9287 -0.9818 -2.0444
  848MOL0     H11877   7.600   6.212   1.505 -1.6693 -0.2451  1.5375
  848MOL0     H11878   7.640   6.343   1.621  1.1179  0.6793  0.6096
  848MOL0     H11879   7.776   6.070   1.634 -2.2514 -2.0965 -0.7538
  848MOL0     H11880   7.762   6.194   1.760 -3.1178 -1.9539  2.7723
  848MOL0     H11881   7.520   6.045   1.661  1.9891 -2.7228 -1.3885
  848MOL0     H11882   7.515   6.183   1.768  1.2225  0.6752  0.7910
  848MOL0     H11883   7.696   6.050   1.913 -0.0027  0.2037  1.6458
  848MOL0     H11884   7.613   5.908   1.849  1.7255  0.2938 -1.2093
  848MOL0     H11885   7.507   6.002   2.067  3.6996 -0.6703  0.8538
  848MOL0     H11886   7.505   6.154   1.984  1.6424 -1.5507  1.6967
  848MOL0     H11887   7.333   5.910   1.945  1.0535  0.3856  3.6730
  848MOL0     H11888   7.329   6.034   1.822 -1.2043  0.2539  0.5928
  848MOL0     H11889   7.258   6.289   1.880  1.1416  0.2464  0.4513
  848MOL0     H11890   7.246   6.463   2.191 -0.2318  0.5541  0.4806
  848MOL0     H11891   7.074   6.465   2.135 -0.3055 -0.3520 -0.0232
  848MOL0     H11892   7.143   6.500   1.905 -0.7677 -2.3999  0.9132
  848MOL0     H11893   7.312   6.461   1.955  0.5016 -0.4604  3.4144
  848MOL0     H11894   7.190   6.705   2.090  0.9880  1.6594 -0.5078
  848MOL0     H11895   7.338   6.645   2.114  0.0510  3.1986  0.0408
  848MOL0     H11896   7.322   6.674   1.829 -1.4722  0.2030 -0.7350
  848MOL0     H11897   7.381   6.811   1.938 -1.0380  1.4964 -3.2467
  848MOL0     H11898   7.276   6.932   2.107  0.3268  0.6578  0.1888
  848MOL0     H11899   7.247   7.187   2.150  3.1180  5.0882 -3.9019
  848MOL0     H11900   7.006   7.596   1.749  0.8682 -1.2215  1.1307
  848MOL0     H11901   7.023   7.871   1.762  0.3457  2.5405  1.6943
  848MOL0     H11902   7.241   7.972   1.838  0.9985  0.6688 -0.8185
  848MOL0     H11903   7.283   8.041   1.995  1.2145 -1.9424 -1.5546
  848MOL0     H11904   7.116   8.198   1.808 -0.7228  0.0176 -0.5086
  848MOL0     H11905   7.293   8.209   1.822  0.3322 -1.6439  0.5324
  848MOL0     H11906   7.251   8.262   2.062 -1.9979 -0.5381 -0.2228
  848MOL0     H11907   7.076   8.277   2.040  0.1151  2.6512  2.4335
  848MOL0     H11908   7.291   8.448   1.897 -0.6607  0.7476 -1.6753
  848MOL0     H11909   7.108   8.495   1.902  1.3533  2.2907 -1.5477
  848MOL0     H11910   7.299   8.485   2.144  0.6933  1.4418 -0.3451
  848MOL0     H11911   7.123   8.525   2.136 -1.5402 -1.6062 -2.5219
  848MOL0     H11912   7.348   8.659   2.009  0.3386  0.8652  0.7884
  848MOL0     H11913   7.279   8.709   2.157  0.0979 -1.9405  1.2672
  848MOL0     H11914   7.118   8.710   1.880 -1.0210  0.0209  0.6441
  848MOL0     H11915   7.049   8.728   2.045 -0.6537 -1.9546 -1.1387
  848MOL0     H11916   7.250   8.905   2.067 -0.3483 -0.2355  0.2646
  848MOL0     H11917   7.119   8.979   1.993 -0.1433 -1.2883  1.8676
  848MOL0     H11918   7.070   7.825   2.188 -3.2905  2.5174 -0.3981
  848MOL0     H11919   7.084   7.591   2.164 -1.6247 -0.7445  0.3158
  848MOL0     H11920   7.023   7.220   1.802  2.5999 -2.2792 -3.6960
  848MOL0     H11921   7.043   6.976   1.757  1.5423 -3.0565  1.2254
  848MOL0     H11922   8.031   6.637   1.535 -2.6212 -3.8618 -0.3624
  848MOL0     H11923   8.142   6.809   1.696 -0.9421  0.5215 -1.1264
  848MOL0     H11924   8.232   7.216   1.955 -0.6428 -2.9104 -0.7123
  848MOL0     H11925   8.313   7.333   2.178  0.6827 -0.4722  1.0746
  848MOL0     H11926   8.268   7.426   2.375  1.1934  1.7182  0.8468
  848MOL0     H11927   8.422   7.367   2.435  0.5383  3.1400  2.1303
  848MOL0     H11928   8.305   7.325   2.662 -1.5451 -2.9797 -1.4554
  848MOL0     H11929   8.290   7.493   2.621  0.7453 -0.9216  1.4920
  848MOL0     H11930   8.062   7.309   2.530 -2.1265  2.6732 -1.8698
  848MOL0     H11931   8.075   7.484   2.523  0.6154 -0.1596 -2.0208
  848MOL0     H11932   8.101   7.465   2.793  1.6625 -2.3954  0.8696
  848MOL0     H11933   7.939   7.433   2.730 -0.1396  1.4040  1.4429
  848MOL0     H11934   8.078   7.075   2.917  1.6689 -0.6018 -0.3589
  848MOL0     H11935   8.213   6.981   2.392  0.6727  2.0694  0.9241
  848MOL0     H11936   8.137   6.868   2.190  1.4808 -0.3963 -0.6317
  849MOL0     O11937   1.098   6.776   1.859  0.4970 -0.5471 -1.0205
  849MOL0     C11938   1.156   6.825   1.760 -0.4048  0.2323  0.5285
  849MOL0     O11939   1.288   6.825   1.739  0.8951 -0.0030  0.3899
  849MOL0     C11940   1.358   6.733   1.809 -0.5110  0.1897 -0.3236
  849MOL0     C11941   1.326   6.598   1.818  1.6450 -0.4618  0.2488
  849MOL0     C11942   1.403   6.500   1.858 -0.4420  0.1717 -0.5954
  849MOL0     C11943   1.523   6.540   1.916  0.0384  0.1805 -0.8340
  849MOL0     O11944   1.603   6.441   1.975  0.1553  0.4092 -0.3161
  849MOL0     C11945   1.634   6.326   1.898 -0.4715 -0.2670 -0.1784
  849MOL0     C11946   1.760   6.260   1.961 -0.1507  0.3166  0.6019
  849MOL0     C11947   1.717   6.201   2.094 -0.4521  0.3576  0.4693
  849MOL0     C11948   1.829   6.124   2.167 -0.1260  0.2983  1.2702
  849MOL0     C11949   1.780   6.005   2.250  0.2867  0.0541 -0.0721
  849MOL0     C11950   1.893   5.939   2.322  0.9018  0.1773  0.3463
  849MOL0     C11951   1.976   5.868   2.217 -0.4206 -0.1167 -0.2900
  849MOL0     C11952   1.910   5.757   2.131 -0.0951 -0.5720  0.4531
  849MOL0     N11953   2.015   5.692   2.050  0.4721 -0.3176  0.6880
  849MOL0     C11954   2.082   5.578   2.071  0.2233  0.5291 -0.0815
  849MOL0     C11955   2.166   5.563   1.971 -1.7321  0.4948  0.1258
  849MOL0     C11956   2.259   5.445   1.957  0.3292  0.9663  1.2715
  849MOL0     C11957   2.207   5.362   1.834 -0.6423  0.2892 -0.4076
  849MOL0     C11958   2.319   5.281   1.772 -0.9761  0.0105 -1.0159
  849MOL0     C11959   2.259   5.205   1.652 -0.3127  0.4537 -1.0558
  849MOL0     O11960   2.361   5.145   1.571 -0.1811  0.2353 -0.5091
  849MOL0     C11961   2.319   5.073   1.466 -0.0789  0.2036  0.7285
  849MOL0     C11962   2.196   5.099   1.389 -1.2226 -0.9701  1.0026
  849MOL0     C11963   2.167   5.025   1.276  0.0147  0.3541  0.0245
  849MOL0     C11964   2.234   4.908   1.247 -0.5989  0.6978 -0.0767
  849MOL0     C11965   2.176   4.823   1.138 -0.0349  0.5023 -0.6152
  849MOL0     O11966   2.189   4.691   1.164 -0.1382  0.1379 -0.3005
  849MOL0     C11967   2.149   4.594   1.074  0.1816 -0.9139 -0.6862
  849MOL0     C11968   2.245   4.545   0.977 -0.1383 -0.4692 -0.8785
  849MOL0     C11969   2.205   4.443   0.896 -0.3986  0.4174  0.3532
  849MOL0     C11970   2.071   4.383   0.896 -0.5267  0.4679 -0.2587
  849MOL0     O11971   2.017   4.274   0.837 -0.7390 -0.5130 -0.7075
  849MOL0     C11972   2.092   4.208   0.735 -0.2756 -0.5120 -0.1141
  849MOL0     C11973   2.003   4.095   0.685  0.1875  0.1465 -0.6653
  849MOL0     C11974   2.017   3.965   0.771  0.0085 -0.4696 -0.8776
  849MOL0     C11975   1.922   3.865   0.722 -0.5993 -0.3467  0.4719
  849MOL0     C11976   1.906   3.734   0.796  0.5431 -0.5946  1.1915
  849MOL0     C11977   1.856   3.622   0.713 -0.0526  0.6196  0.9950
  849MOL0     C11978   1.826   3.496   0.796 -0.9613  0.3713  1.1174
  849MOL0     C11979   1.756   3.391   0.715  0.0365 -0.9170  0.0911
  849MOL0    Cl11980   1.860   3.313   0.597  0.8018  0.1216 -0.4387
  849MOL0     C11981   1.989   4.439   0.988  0.1990 -0.4177 -0.4418
  849MOL0     C11982   2.019   4.541   1.079 -0.7131  0.0600 -0.4740
  849MOL0     O11983   2.145   4.868   1.033 -0.1354  0.4524  0.4918
  849MOL0     C11984   2.348   4.872   1.319 -0.6281 -1.1341 -0.3832
  849MOL0     C11985   2.392   4.958   1.422  0.9870 -0.0435  0.2445
  849MOL0     N11986   2.171   5.674   1.894  0.0589  0.1712  0.2368
  849MOL0     N11987   2.077   5.750   1.938 -0.8732  0.0246  0.0189
  849MOL0     C11988   1.564   6.676   1.920  0.0729  1.0705 -0.0669
  849MOL0     C11989   1.482   6.773   1.865 -0.2165  0.4345  0.2490
  849MOL0     C11990   1.066   6.892   1.669  0.4553 -0.5564 -0.3394
  849MOL0     C11991   0.929   6.920   1.698  0.4577  0.3286  0.1513
  849MOL0     C11992   0.850   6.977   1.596 -0.8468  0.2425  0.2593
  849MOL0     C11993   0.898   7.020   1.474  0.6873 -1.1555  0.9605
  849MOL0     O11994   0.821   7.067   1.363  0.3683 -0.5849  0.1100
  849MOL0     C11995   0.686   7.042   1.367  0.8329  1.1920  0.2791
  849MOL0     C11996   0.625   7.070   1.227 -0.1247 -0.4295  0.2027
  849MOL0     C11997   0.481   7.014   1.204  0.2023 -0.4166  0.2140
  849MOL0     C11998   0.475   6.935   1.073 -0.3121 -0.1215 -0.3074
  849MOL0     C11999   0.507   7.024   0.965  0.2242 -0.1924  0.2555
  849MOL0     C12000   0.519   7.075   0.858 -1.0551 -0.6124  0.0907
  849MOL0     C12001   1.033   7.009   1.455  0.9363  0.1359 -0.4518
  849MOL0     C12002   1.123   6.943   1.549  0.3734 -0.1964  0.6299
  849MOL0     H12003   1.228   6.560   1.792  1.3695 -0.2422  0.9374
  849MOL0     H12004   1.381   6.394   1.861  1.6344 -0.3033 -0.7741
  849MOL0     H12005   1.653   6.341   1.791  0.9143  0.0819  0.1064
  849MOL0     H12006   1.553   6.252   1.906 -2.3213  1.4682 -1.7420
  849MOL0     H12007   1.834   6.340   1.969 -0.3440  1.5209 -5.1735
  849MOL0     H12008   1.799   6.185   1.891  1.1336  1.6119 -0.1239
  849MOL0     H12009   1.627   6.140   2.089 -1.8783  2.4347 -1.9037
  849MOL0     H12010   1.691   6.280   2.165  3.0443 -0.2155  2.6070
  849MOL0     H12011   1.890   6.094   2.082 -2.6650  1.1180 -0.9973
  849MOL0     H12012   1.892   6.184   2.233  0.2427  1.2540  0.0784
  849MOL0     H12013   1.723   5.928   2.197 -1.1092 -0.0904  1.5616
  849MOL0     H12014   1.724   6.060   2.325  1.4653 -1.1750  1.7955
  849MOL0     H12015   1.855   5.871   2.399 -3.6787  1.8094 -0.1594
  849MOL0     H12016   1.949   6.019   2.373 -1.5010  1.6861  0.7804
  849MOL0     H12017   2.017   5.945   2.150 -1.6687  0.2216 -0.6922
  849MOL0     H12018   2.068   5.825   2.258  0.5561  0.1981 -2.0705
  849MOL0     H12019   1.828   5.808   2.078 -0.7951 -0.0895  1.9518
  849MOL0     H12020   1.857   5.680   2.188 -0.2746 -0.1937  0.8041
  849MOL0     H12021   2.094   5.519   2.161  3.1095  0.5577 -0.3339
  849MOL0     H12022   2.270   5.374   2.039  2.1284 -1.2717 -0.7396
  849MOL0     H12023   2.356   5.491   1.939  0.3961  0.2306 -0.5286
  849MOL0     H12024   2.170   5.430   1.756  2.3933  0.9236 -1.4234
  849MOL0     H12025   2.130   5.290   1.862  0.3117  0.5560  3.4106
  849MOL0     H12026   2.395   5.345   1.727 -0.4651 -0.4023 -0.7424
  849MOL0     H12027   2.366   5.208   1.838 -2.2935 -0.1547 -0.2184
  849MOL0     H12028   2.193   5.265   1.588 -0.7164  0.5799 -0.5307
  849MOL0     H12029   2.204   5.124   1.701 -0.3174  1.1002  0.0357
  849MOL0     H12030   2.136   5.186   1.414  0.2463  1.5389 -3.2368
  849MOL0     H12031   2.082   5.040   1.211 -3.9446 -1.9236  4.1313
  849MOL0     H12032   2.346   4.585   0.974 -1.0909  2.3307  0.3884
  849MOL0     H12033   2.266   4.414   0.811 -0.8464  0.3398  0.0534
  849MOL0     H12034   2.182   4.173   0.786 -0.1824  0.6444  0.5536
  849MOL0     H12035   2.121   4.277   0.655 -1.8984 -0.5590 -0.7779
  849MOL0     H12036   2.030   4.064   0.584  0.5785 -0.8603 -0.2640
  849MOL0     H12037   1.898   4.127   0.686 -0.2217 -1.1335 -0.2246
  849MOL0     H12038   1.989   3.993   0.873 -0.4544  1.2438 -1.4412
  849MOL0     H12039   2.117   3.922   0.766 -0.2644 -1.4694  1.2069
  849MOL0     H12040   1.825   3.917   0.720  0.7482  2.4310  1.8875
  849MOL0     H12041   1.963   3.837   0.625 -0.0317 -0.5455  0.7674
  849MOL0     H12042   1.831   3.762   0.869  0.8369 -1.2724  1.7652
  849MOL0     H12043   2.003   3.710   0.842  0.9741 -0.9862  0.1303
  849MOL0     H12044   1.922   3.595   0.630 -2.7692 -0.9881 -0.7806
  849MOL0     H12045   1.765   3.670   0.678 -0.8706  0.3536  2.6502
  849MOL0     H12046   1.924   3.458   0.826 -0.8917  1.5404  2.4573
  849MOL0     H12047   1.769   3.512   0.888  1.5256  2.1411  2.4562
  849MOL0     H12048   1.674   3.426   0.652 -0.9504 -0.3205  1.6371
  849MOL0     H12049   1.720   3.315   0.785  0.2273  2.6080  4.4758
  849MOL0     H12050   1.890   4.393   0.990  0.2418 -0.4784  0.5209
  849MOL0     H12051   1.948   4.565   1.157 -0.4609  0.5314 -0.3900
  849MOL0     H12052   2.393   4.778   1.289  0.6570 -0.3597 -0.9374
  849MOL0     H12053   2.485   4.924   1.468  1.7263 -0.4304 -1.4416
  849MOL0     H12054   1.667   6.696   1.947  0.5512 -0.5452 -0.5417
  849MOL0     H12055   1.502   6.880   1.865  3.0400  0.1462 -5.0724
  849MOL0     H12056   0.886   6.903   1.796  0.0014 -2.7619 -0.4690
  849MOL0     H12057   0.744   6.991   1.616 -0.9902 -0.3925 -0.0414
  849MOL0     H12058   0.635   7.093   1.449 -0.4540 -0.2193  0.4167
  849MOL0     H12059   0.671   6.934   1.376  0.5588  1.0110 -1.9490
  849MOL0     H12060   0.638   7.177   1.215 -1.0186 -0.2542  0.7246
  849MOL0     H12061   0.687   7.016   1.155 -0.0567 -1.8254  1.2572
  849MOL0     H12062   0.409   7.096   1.208  1.1444  0.7677 -3.5797
  849MOL0     H12063   0.467   6.940   1.284  2.6469 -2.7852 -1.3800
  849MOL0     H12064   0.543   6.850   1.082 -1.7871 -1.1984  1.3989
  849MOL0     H12065   0.373   6.898   1.063  0.0636 -2.0284  2.0145
  849MOL0     H12066   0.525   7.120   0.761 -1.1307 -1.3877 -0.2795
  849MOL0     H12067   1.084   7.055   1.372  1.0270  3.9591  1.4982
  849MOL0     H12068   1.229   6.938   1.527  0.1298  2.6182 -1.9423
  850MOL0     O12069   1.060   1.603   4.777  0.7837 -0.3190  0.3600
  850MOL0     C12070   1.122   1.625   4.675  0.5436  0.4588  0.7650
  850MOL0     O12071   1.253   1.594   4.640  0.5607 -0.5581 -0.6748
  850MOL0     C12072   1.337   1.537   4.733  0.1084 -0.4769 -0.2217
  850MOL0     C12073   1.307   1.414   4.791  0.1464  0.6208  0.4529
  850MOL0     C12074   1.384   1.375   4.896 -0.2096 -0.2405  0.1902
  850MOL0     C12075   1.503   1.435   4.937  0.0450  0.8214 -0.5878
  850MOL0     O12076   1.578   1.394   5.051 -0.0821  0.2948 -0.6818
  850MOL0     C12077   1.681   1.467   5.108  0.3377 -0.2181  0.0092
  850MOL0     C12078   1.743   1.396   5.226  0.5775 -0.2544 -0.3492
  850MOL0     C12079   1.827   1.492   5.310  0.1006 -0.7272 -0.4290
  850MOL0     C12080   1.914   1.397   5.396  0.5298  0.1310 -0.2602
  850MOL0     C12081   2.006   1.476   5.489  0.3469 -0.0253  0.2675
  850MOL0     C12082   1.937   1.589   5.558  0.4839 -0.4410 -0.4875
  850MOL0     C12083   2.046   1.662   5.640 -0.2954  0.5485 -1.4427
  850MOL0     C12084   2.017   1.804   5.684  0.0314 -0.4695 -0.7168
  850MOL0     N12085   2.133   1.860   5.756  0.4243 -0.5448  0.4274
  850MOL0     C12086   2.182   1.802   5.870 -0.1560 -0.0447 -0.6827
  850MOL0     C12087   2.288   1.884   5.893  0.5046  0.5115 -0.0996
  850MOL0     C12088   2.366   1.884   6.025  0.0466 -0.6596 -0.0526
  850MOL0     C12089   2.517   1.864   5.996 -0.3420  0.2300 -1.3704
  850MOL0     C12090   2.584   1.990   5.962  0.3217 -0.3903  0.7929
  850MOL0     C12091   2.634   2.086   6.073 -0.1603  0.1777 -0.3801
  850MOL0     O12092   2.665   2.213   6.002  0.2724  0.6668 -0.6534
  850MOL0     C12093   2.695   2.312   6.093  0.0608 -0.0195  0.4448
  850MOL0     C12094   2.821   2.371   6.110  0.2005 -0.3366 -0.9062
  850MOL0     C12095   2.830   2.470   6.208  0.3057  0.9707 -0.5193
  850MOL0     C12096   2.723   2.512   6.284  0.2213 -0.4066 -0.6798
  850MOL0     C12097   2.736   2.631   6.368  0.3816 -0.9506  0.1863
  850MOL0     O12098   2.835   2.722   6.340 -0.0144  0.2098  0.2280
  850MOL0     C12099   2.847   2.839   6.415  0.6749  0.0118  0.1705
  850MOL0     C12100   2.825   2.963   6.349 -0.5788  1.2199  0.0451
  850MOL0     C12101   2.839   3.086   6.401 -0.1168 -0.3937 -0.6853
  850MOL0     C12102   2.860   3.099   6.539 -0.2652  0.8867 -0.3503
  850MOL0     O12103   2.852   3.217   6.610  0.1126  0.0167  0.6349
  850MOL0     C12104   2.789   3.332   6.545 -0.2787  0.1373  0.5035
  850MOL0     C12105   2.799   3.453   6.632 -0.1489 -0.2103  0.2907
  850MOL0     C12106   2.695   3.462   6.738 -0.1386  0.4351 -1.0859
  850MOL0     C12107   2.739   3.573   6.840 -0.3633  1.0073  0.1361
  850MOL0     C12108   2.664   3.591   6.964 -0.3945 -0.0195 -0.1622
  850MOL0     C12109   2.515   3.626   6.927  0.0930 -0.3127 -0.5601
  850MOL0     C12110   2.429   3.614   7.062 -0.3040 -0.4558 -0.3286
  850MOL0     C12111   2.283   3.548   7.040 -0.2423 -0.6165 -0.4748
  850MOL0    Cl12112   2.199   3.665   6.955 -0.0170  0.2026  0.8304
  850MOL0     C12113   2.858   2.983   6.611  1.0704  0.2981 -0.2370
  850MOL0     C12114   2.860   2.853   6.549 -0.3107  1.1506  0.2429
  850MOL0     O12115   2.656   2.647   6.458 -0.0044 -0.0495 -0.4677
  850MOL0     C12116   2.598   2.445   6.270 -0.0398 -0.1193 -0.1962
  850MOL0     C12117   2.586   2.352   6.170 -0.4759  0.0825  0.6641
  850MOL0     N12118   2.302   1.977   5.796 -0.2937 -0.4482  0.5726
  850MOL0     N12119   2.209   1.962   5.713  0.6165  0.2846  0.1208
  850MOL0     C12120   1.544   1.551   4.859  0.6775  0.6077  0.2758
  850MOL0     C12121   1.451   1.608   4.763  0.5060  1.2794  0.8730
  850MOL0     C12122   1.046   1.699   4.561  0.0480  0.6976  0.0344
  850MOL0     C12123   1.108   1.744   4.446 -0.2280 -0.2879  0.0021
  850MOL0     C12124   1.048   1.820   4.351  0.6894  0.5747 -0.0308
  850MOL0     C12125   0.910   1.858   4.372  1.1121  0.5204 -0.2510
  850MOL0     O12126   0.841   1.928   4.270  0.2808 -0.2456  0.8599
  850MOL0     C12127   0.892   2.038   4.192  0.7376 -0.4734 -0.2219
  850MOL0     C12128   0.888   2.172   4.268 -0.0840 -0.2403  0.4068
  850MOL0     C12129   0.753   2.226   4.303  0.6598 -0.3141  0.7272
  850MOL0     C12130   0.676   2.303   4.193 -0.1382 -0.8068 -0.0428
  850MOL0     C12131   0.531   2.270   4.185  0.0260  0.1715 -1.0161
  850MOL0     C12132   0.413   2.248   4.165 -0.1995 -0.7299  0.1304
  850MOL0     C12133   0.839   1.805   4.480 -0.1862  0.3918  1.2337
  850MOL0     C12134   0.908   1.726   4.574 -0.8140  0.8752  0.0528
  850MOL0     H12135   1.213   1.369   4.760  0.3587 -0.2169  1.0039
  850MOL0     H12136   1.350   1.283   4.943  2.9081 -1.6562 -0.0947
  850MOL0     H12137   1.642   1.563   5.142  1.8100 -1.1268  4.9536
  850MOL0     H12138   1.755   1.482   5.029  0.1339  1.3836  0.1018
  850MOL0     H12139   1.794   1.309   5.183 -1.4447 -0.0257 -3.5478
  850MOL0     H12140   1.661   1.351   5.283  0.4771  1.9552  1.3515
  850MOL0     H12141   1.749   1.547   5.363  0.1735 -1.5402  0.5499
  850MOL0     H12142   1.886   1.561   5.250 -1.3267 -1.4509 -2.8106
  850MOL0     H12143   1.848   1.330   5.452  1.4053 -0.2222  0.3569
  850MOL0     H12144   1.974   1.335   5.329 -0.3906 -2.4612  1.1937
  850MOL0     H12145   2.086   1.517   5.427  0.3989 -1.0542 -0.3666
  850MOL0     H12146   2.044   1.404   5.562 -1.5824  1.5401  2.9967
  850MOL0     H12147   1.856   1.548   5.619 -2.3188  3.9536 -0.7722
  850MOL0     H12148   1.890   1.664   5.493 -4.5687  0.8606  3.9591
  850MOL0     H12149   2.086   1.604   5.723  1.7621  1.5815 -1.6340
  850MOL0     H12150   2.138   1.660   5.581  0.0612 -0.6105 -0.8693
  850MOL0     H12151   1.924   1.790   5.739  0.9810 -1.9871  0.6044
  850MOL0     H12152   1.999   1.867   5.597 -0.4820 -0.0215 -0.2898
  850MOL0     H12153   2.149   1.717   5.929 -1.9559  1.3325  0.3716
  850MOL0     H12154   2.350   1.793   6.083  2.5567 -2.3914 -1.8772
  850MOL0     H12155   2.343   1.975   6.081 -0.1803 -0.2470 -0.7920
  850MOL0     H12156   2.528   1.792   5.915  3.6143  0.0331 -0.8495
  850MOL0     H12157   2.568   1.816   6.080  1.1468 -1.5213 -3.1631
  850MOL0     H12158   2.676   1.972   5.904  0.6755  0.1982  1.1658
  850MOL0     H12159   2.528   2.053   5.893  0.7247 -0.5667  0.2968
  850MOL0     H12160   2.730   2.050   6.112 -0.7862 -0.7969  0.3075
  850MOL0     H12161   2.557   2.084   6.150  2.5456 -2.6892  2.5545
  850MOL0     H12162   2.916   2.355   6.060  2.0180 -1.3310  2.5463
  850MOL0     H12163   2.920   2.528   6.231 -1.2609  2.1823  3.4305
  850MOL0     H12164   2.780   2.956   6.250 -1.2252  0.6560  0.3681
  850MOL0     H12165   2.832   3.174   6.339  0.9842  0.7757  0.7550
  850MOL0     H12166   2.684   3.305   6.530 -0.4620  0.7944  0.5704
  850MOL0     H12167   2.831   3.352   6.446  2.1101  1.2916  1.6514
  850MOL0     H12168   2.793   3.546   6.576 -2.6940  2.0295  3.8428
  850MOL0     H12169   2.895   3.447   6.684 -0.2030 -3.1552  0.2690
  850MOL0     H12170   2.679   3.362   6.778  2.8666 -1.7361 -4.6519
  850MOL0     H12171   2.595   3.485   6.701 -0.1512 -1.7848 -2.6275
  850MOL0     H12172   2.844   3.556   6.865 -0.2191  1.8846  0.1368
  850MOL0     H12173   2.745   3.665   6.781  0.8032  1.3867  0.8117
  850MOL0     H12174   2.706   3.677   7.016 -1.8673  1.1180 -0.7831
  850MOL0     H12175   2.660   3.500   7.026 -1.1516 -0.3270 -0.6408
  850MOL0     H12176   2.467   3.561   6.853 -0.6011  2.0645 -2.2934
  850MOL0     H12177   2.509   3.730   6.896 -0.3958  0.5519  2.2077
  850MOL0     H12178   2.477   3.553   7.139  2.7288  1.8210 -0.2343
  850MOL0     H12179   2.417   3.715   7.104 -0.0354 -1.3291  1.9752
  850MOL0     H12180   2.229   3.541   7.135 -0.6902  0.7754 -0.6086
  850MOL0     H12181   2.291   3.452   6.988 -3.5255 -0.3324 -1.6777
  850MOL0     H12182   2.852   2.984   6.720 -0.1837 -0.0076 -0.2824
  850MOL0     H12183   2.845   2.768   6.615 -7.0506  0.6690 -1.2125
  850MOL0     H12184   2.507   2.476   6.320 -0.5908 -1.6311 -0.2153
  850MOL0     H12185   2.491   2.300   6.164  0.2750 -1.1902 -0.7705
  850MOL0     H12186   1.639   1.602   4.874 -0.3970  2.8668 -0.2947
  850MOL0     H12187   1.471   1.700   4.708  0.3920  1.0324  0.4128
  850MOL0     H12188   1.210   1.713   4.426  0.1361  0.3596  0.8168
  850MOL0     H12189   1.097   1.837   4.256 -2.3725 -0.3088 -1.9083
  850MOL0     H12190   0.839   2.064   4.100 -1.7154  1.8203  1.6945
  850MOL0     H12191   0.994   2.016   4.158  0.0784 -1.9657 -1.3430
  850MOL0     H12192   0.954   2.174   4.355  0.8669  1.1443 -0.3087
  850MOL0     H12193   0.933   2.244   4.198 -0.2958 -2.7153 -2.4919
  850MOL0     H12194   0.763   2.296   4.387  0.4570  1.7420 -0.8778
  850MOL0     H12195   0.681   2.146   4.323 -0.9224  0.6235 -0.9134
  850MOL0     H12196   0.696   2.410   4.198  3.6311 -1.4125  1.1023
  850MOL0     H12197   0.706   2.276   4.091 -1.7627  2.4225 -1.5066
  850MOL0     H12198   0.314   2.212   4.145 -0.7940  1.7449 -1.8538
  850MOL0     H12199   0.734   1.830   4.490 -1.0267 -0.7816 -2.6864
  850MOL0     H12200   0.867   1.680   4.663 -1.4479 -0.4140 -0.8742
  851MOL0     O12201   7.776   4.336   2.555 -0.0683  0.3295  0.2415
  851MOL0     C12202   7.862   4.378   2.637  0.5318  0.2415 -0.0282
  851MOL0     O12203   7.929   4.303   2.735 -0.4349  0.0236  0.1454
  851MOL0     C12204   7.888   4.179   2.766 -0.5551  0.2390 -0.2968
  851MOL0     C12205   7.753   4.141   2.776 -0.4648 -0.2125  0.1063
  851MOL0     C12206   7.711   4.015   2.835 -0.3778  0.4619  0.2480
  851MOL0     C12207   7.818   3.934   2.886  0.0723 -0.7064 -0.0850
  851MOL0     O12208   7.786   3.824   2.952  0.0471 -0.5747  0.1028
  851MOL0     C12209   7.752   3.724   2.849  0.1512  0.2926  0.7779
  851MOL0     C12210   7.723   3.597   2.924 -0.3376  0.4368  0.0990
  851MOL0     C12211   7.607   3.599   3.021 -0.7827  0.5922  0.4437
  851MOL0     C12212   7.597   3.465   3.090 -1.2276 -0.0108 -0.4201
  851MOL0     C12213   7.476   3.453   3.184  0.8666 -0.5713 -0.0909
  851MOL0     C12214   7.454   3.315   3.225  0.4832 -0.4336  0.3860
  851MOL0     C12215   7.369   3.316   3.352  0.0583 -0.9547  0.0258
  851MOL0     C12216   7.445   3.346   3.482 -0.0724  0.1549  0.0054
  851MOL0     N12217   7.366   3.310   3.599  0.2839  0.8609  0.2191
  851MOL0     C12218   7.281   3.392   3.672 -1.0199 -0.0353  0.4995
  851MOL0     C12219   7.219   3.314   3.763 -0.3097  0.5838 -0.3213
  851MOL0     C12220   7.124   3.349   3.866 -0.8950 -0.9897  0.5174
  851MOL0     C12221   6.982   3.378   3.801 -0.6595  0.2617  0.2199
  851MOL0     C12222   6.894   3.470   3.892 -0.5269  0.0272  0.5626
  851MOL0     C12223   6.881   3.421   4.032  0.5348  0.7835  0.3924
  851MOL0     O12224   6.754   3.471   4.083  0.5844  0.0805  0.1354
  851MOL0     C12225   6.755   3.606   4.123  0.5845  0.0409 -0.5867
  851MOL0     C12226   6.866   3.691   4.133 -0.9105  0.0433  0.7810
  851MOL0     C12227   6.853   3.825   4.174  0.2670 -0.1917 -0.7713
  851MOL0     C12228   6.723   3.870   4.213 -0.3610  0.0806  0.5714
  851MOL0     C12229   6.701   4.019   4.243 -0.5589 -0.0937 -0.1846
  851MOL0     O12230   6.579   4.071   4.277  0.7161 -1.0534 -0.7941
  851MOL0     C12231   6.577   4.207   4.299 -0.2103  0.4078 -0.2767
  851MOL0     C12232   6.559   4.283   4.189  0.1109  0.3004  0.0285
  851MOL0     C12233   6.536   4.415   4.206 -0.4008  0.7120  0.1562
  851MOL0     C12234   6.536   4.477   4.333  0.2090  0.0441  0.6704
  851MOL0     O12235   6.535   4.613   4.336  0.7044 -0.6485 -0.6102
  851MOL0     C12236   6.410   4.666   4.291 -0.7012 -0.2452  0.7324
  851MOL0     C12237   6.398   4.817   4.328 -0.1669 -0.2001  0.1659
  851MOL0     C12238   6.288   4.883   4.249  0.5380  0.2950  0.3133
  851MOL0     C12239   6.142   4.860   4.297 -0.2028 -0.1029  0.8341
  851MOL0     C12240   6.075   4.957   4.393  0.9323  0.1613 -0.3129
  851MOL0     C12241   5.925   4.923   4.426  0.2103  0.2917 -0.8756
  851MOL0     C12242   5.821   4.905   4.307 -0.0474  0.0617  0.4945
  851MOL0     C12243   5.670   4.908   4.357 -0.1129 -1.3091  1.3777
  851MOL0    Cl12244   5.561   4.912   4.218  0.0663  0.4288 -0.2310
  851MOL0     C12245   6.558   4.404   4.447  0.1175  1.0031 -1.1361
  851MOL0     C12246   6.568   4.268   4.432 -0.1793  0.0675 -0.7685
  851MOL0     O12247   6.812   4.078   4.241  0.3335  0.6241 -0.0461
  851MOL0     C12248   6.614   3.784   4.206  0.3773  0.2342 -0.7625
  851MOL0     C12249   6.636   3.645   4.173  0.4720  0.5576 -0.2444
  851MOL0     N12250   7.262   3.177   3.741  0.3260  0.4268  0.3807
  851MOL0     N12251   7.345   3.177   3.642 -0.6307 -0.6780  0.5734
  851MOL0     C12252   7.957   3.964   2.856  0.6899  0.0573  0.3273
  851MOL0     C12253   7.988   4.085   2.807  0.7308  1.0835 -0.1108
  851MOL0     C12254   7.901   4.516   2.604 -1.8356 -0.9397  0.5590
  851MOL0     C12255   7.864   4.567   2.480  0.1071 -0.3252 -0.0959
  851MOL0     C12256   7.925   4.684   2.426 -0.1913 -0.7607  1.1242
  851MOL0     C12257   7.984   4.771   2.515  0.3347 -0.3021  0.3082
  851MOL0     O12258   8.022   4.895   2.475  0.2829  0.0127  0.5196
  851MOL0     C12259   8.042   5.007   2.569 -0.9258  0.0468  0.2921
  851MOL0     C12260   8.027   5.144   2.502  0.0522  0.3934 -0.1312
  851MOL0     C12261   8.144   5.211   2.429 -0.4123 -0.9978  0.2773
  851MOL0     C12262   8.095   5.335   2.345 -0.4650 -0.3275 -0.0051
  851MOL0     C12263   8.074   5.452   2.437 -0.0009  0.1433 -0.3767
  851MOL0     C12264   8.058   5.546   2.512 -0.1170  0.4173  0.2362
  851MOL0     C12265   7.991   4.738   2.652  0.3191  0.0240  0.1762
  851MOL0     C12266   7.957   4.603   2.702  0.1564 -0.0577  0.0710
  851MOL0     H12267   7.684   4.217   2.740 -0.6543 -0.5070 -0.1560
  851MOL0     H12268   7.612   3.983   2.863  0.4792 -2.4403  0.2583
  851MOL0     H12269   7.831   3.706   2.776  1.9102  0.3590  2.5844
  851MOL0     H12270   7.657   3.743   2.800 -0.9328 -3.6542  1.0131
  851MOL0     H12271   7.817   3.565   2.970 -1.6568 -0.3893  2.3657
  851MOL0     H12272   7.713   3.520   2.847  1.3405  0.8513 -0.5925
  851MOL0     H12273   7.512   3.609   2.968  1.0014 -1.2546 -3.5266
  851MOL0     H12274   7.620   3.681   3.092  2.0073  0.9613 -0.3597
  851MOL0     H12275   7.581   3.390   3.011  0.6006 -0.3985 -0.4826
  851MOL0     H12276   7.694   3.443   3.137  0.5343 -0.9791 -4.0951
  851MOL0     H12277   7.383   3.484   3.135 -0.7127  0.9483  3.5215
  851MOL0     H12278   7.499   3.510   3.274 -0.3691 -0.0149 -0.1037
  851MOL0     H12279   7.546   3.259   3.244 -0.3111 -0.9097  3.2978
  851MOL0     H12280   7.396   3.256   3.154  1.6803  2.0016 -2.8772
  851MOL0     H12281   7.290   3.389   3.332 -0.1562 -1.4249 -0.8824
  851MOL0     H12282   7.326   3.217   3.367  1.6427 -1.7568 -0.4462
  851MOL0     H12283   7.477   3.450   3.491  1.8159 -0.4364  0.4811
  851MOL0     H12284   7.534   3.284   3.488 -0.1352  0.2213  2.3262
  851MOL0     H12285   7.273   3.499   3.655 -1.6770 -0.3453 -1.3712
  851MOL0     H12286   7.156   3.436   3.924  2.6776 -2.2961  0.7630
  851MOL0     H12287   7.125   3.261   3.932 -1.6124 -0.2901  1.4992
  851MOL0     H12288   6.935   3.281   3.778 -0.5102  0.6094 -1.7889
  851MOL0     H12289   7.000   3.435   3.709  0.5244 -1.1808 -0.4924
  851MOL0     H12290   6.932   3.572   3.879 -1.3966  0.0923 -2.0606
  851MOL0     H12291   6.791   3.461   3.855 -0.1608 -2.0585 -0.0384
  851MOL0     H12292   6.963   3.459   4.093  3.1118 -1.6303 -1.3377
  851MOL0     H12293   6.883   3.312   4.039  3.4842  0.8087  1.3158
  851MOL0     H12294   6.964   3.678   4.088 -0.0003  1.3538  2.2884
  851MOL0     H12295   6.942   3.886   4.170  0.0619  0.0770 -3.7052
  851MOL0     H12296   6.571   4.247   4.088 -1.0666 -0.6769  0.2146
  851MOL0     H12297   6.519   4.487   4.126  0.1337  1.5812  0.8062
  851MOL0     H12298   6.323   4.608   4.322 -4.1243  3.0770 -1.5731
  851MOL0     H12299   6.404   4.651   4.182 -2.2514 -1.5941  0.9617
  851MOL0     H12300   6.491   4.874   4.316 -0.6890  0.5337 -0.5461
  851MOL0     H12301   6.374   4.826   4.434 -0.8561  2.5156 -0.1465
  851MOL0     H12302   6.309   4.841   4.150  1.1711 -0.9793  0.9642
  851MOL0     H12303   6.297   4.992   4.237  0.2275  0.1790 -1.2358
  851MOL0     H12304   6.092   4.864   4.200  1.0231 -0.6582  0.1668
  851MOL0     H12305   6.131   4.759   4.338 -0.1722 -0.5202 -0.1540
  851MOL0     H12306   6.068   5.060   4.358 -0.5861  0.4643  0.7758
  851MOL0     H12307   6.129   4.965   4.488 -0.1283  2.9028  0.1655
  851MOL0     H12308   5.890   5.003   4.491 -1.6651  0.0185 -1.4756
  851MOL0     H12309   5.923   4.849   4.507 -2.5911  0.0174 -1.0714
  851MOL0     H12310   5.844   4.980   4.230  2.1366  0.6408  1.6299
  851MOL0     H12311   5.823   4.804   4.266 -2.9308  0.5980 -1.2794
  851MOL0     H12312   5.649   4.989   4.428 -1.3677 -2.7534  2.7316
  851MOL0     H12313   5.648   4.810   4.400 -0.1167 -1.7549  0.3856
  851MOL0     H12314   6.568   4.443   4.548 -0.3802  2.3055 -1.5657
  851MOL0     H12315   6.580   4.216   4.527  0.1835  0.5305 -0.5575
  851MOL0     H12316   6.520   3.830   4.234  2.3029  2.0977  3.8615
  851MOL0     H12317   6.548   3.583   4.179 -0.1837  1.2474 -2.1147
  851MOL0     H12318   8.030   3.893   2.895 -2.3142 -2.4096  2.0214
  851MOL0     H12319   8.093   4.115   2.811  0.3134  2.6292  0.0788
  851MOL0     H12320   7.817   4.504   2.405 -0.7253  1.3097 -0.9966
  851MOL0     H12321   7.903   4.721   2.327  2.7429  0.5536  0.8637
  851MOL0     H12322   8.142   5.005   2.614 -1.2834  0.2791  1.1279
  851MOL0     H12323   7.966   5.000   2.648 -1.3671  0.2368 -0.1122
  851MOL0     H12324   7.937   5.138   2.440 -1.3074 -2.6565  1.8898
  851MOL0     H12325   8.005   5.217   2.580 -1.4289  1.7487 -1.7425
  851MOL0     H12326   8.182   5.142   2.353 -2.1024 -1.9304  0.2117
  851MOL0     H12327   8.218   5.255   2.496  0.5284  1.2036 -2.0606
  851MOL0     H12328   8.178   5.365   2.281  1.0417 -0.6072  1.7358
  851MOL0     H12329   8.007   5.327   2.280 -1.0126  1.5140  0.4485
  851MOL0     H12330   8.067   5.617   2.592  1.3462 -0.3055  0.7622
  851MOL0     H12331   8.033   4.809   2.722 -3.1498  3.9838 -1.2910
  851MOL0     H12332   7.964   4.560   2.801 -0.8774 -3.2477 -1.1264
  852MOL0     O12333   5.823   3.187   0.516  0.2610 -0.2398 -0.0104
  852MOL0     C12334   5.872   3.103   0.587  0.5241 -0.9569  0.2097
  852MOL0     O12335   5.964   3.011   0.536  0.8254 -0.6431 -0.1235
  852MOL0     C12336   6.011   3.026   0.409  0.9076 -0.2961  0.0298
  852MOL0     C12337   6.136   3.078   0.374  0.1540  0.7616 -0.4430
  852MOL0     C12338   6.182   3.080   0.248  0.0436  0.1446  0.3524
  852MOL0     C12339   6.095   3.034   0.144 -0.8688  0.9233 -0.5633
  852MOL0     O12340   6.139   3.026   0.019 -0.8567 -0.0570 -0.3213
  852MOL0     C12341   6.221   2.915  -0.012  0.2746 -0.4526  1.0457
  852MOL0     C12342   6.193   2.874  -0.155 -0.2276  0.3979  0.4928
  852MOL0     C12343   6.048   2.827  -0.169 -0.3772 -0.5556 -0.4225
  852MOL0     C12344   6.022   2.772  -0.313 -0.1891 -0.2408 -1.2219
  852MOL0     C12345   5.898   2.688  -0.309  0.0676  0.1642 -0.1916
  852MOL0     C12346   5.859   2.621  -0.448 -1.1335  0.1861 -0.3500
  852MOL0     C12347   5.865   2.721  -0.557 -0.1573  0.1480 -0.3867
  852MOL0     C12348   5.834   2.655  -0.696 -0.6584  0.8145 -0.9048
  852MOL0     N12349   5.755   2.743  -0.782 -0.1352 -0.3941  0.0195
  852MOL0     C12350   5.755   2.724  -0.919  0.1695  0.1000  0.2624
  852MOL0     C12351   5.660   2.816  -0.969  0.7189 -0.7983 -0.8226
  852MOL0     C12352   5.637   2.841  -1.111 -0.0237 -1.2942 -0.1589
  852MOL0     C12353   5.717   2.966  -1.146 -0.2282 -0.8169 -0.2123
  852MOL0     C12354   5.753   2.989  -1.289  0.4941 -0.3955  0.8266
  852MOL0     C12355   5.850   3.108  -1.318  0.0798 -1.3269 -0.9585
  852MOL0     O12356   5.880   3.127  -1.456  0.4239 -0.3811  0.4833
  852MOL0     C12357   5.808   3.221  -1.528  0.2699  0.4908  0.4319
  852MOL0     C12358   5.783   3.192  -1.658 -0.8561  0.1130  1.0118
  852MOL0     C12359   5.704   3.262  -1.745  0.3268 -0.0738  0.0117
  852MOL0     C12360   5.642   3.377  -1.688  0.8585 -1.0143 -0.5433
  852MOL0     C12361   5.544   3.458  -1.775  0.3353 -0.4827  0.3301
  852MOL0     O12362   5.551   3.420  -1.915  0.4742 -1.1123 -0.2010
  852MOL0     C12363   5.461   3.471  -2.007 -0.1645  0.0998 -0.1857
  852MOL0     C12364   5.462   3.602  -2.065 -0.1111 -0.3544  0.5608
  852MOL0     C12365   5.363   3.632  -2.157  0.3561  0.2724  0.3301
  852MOL0     C12366   5.259   3.535  -2.187 -0.3132 -0.8957 -0.4956
  852MOL0     O12367   5.161   3.549  -2.283 -0.2377  0.3294 -0.3240
  852MOL0     C12368   5.156   3.669  -2.365  0.3209  0.8601 -0.4830
  852MOL0     C12369   5.014   3.679  -2.422 -0.9369  0.6320 -0.1641
  852MOL0     C12370   4.993   3.808  -2.502 -0.1518  0.4063  0.0525
  852MOL0     C12371   4.850   3.803  -2.554 -0.1204 -0.4883  0.0731
  852MOL0     C12372   4.832   3.890  -2.681 -0.6960  0.0079  0.6102
  852MOL0     C12373   4.679   3.903  -2.711  1.5498  0.5903  0.1559
  852MOL0     C12374   4.632   3.992  -2.827  0.1190  0.4445 -0.0075
  852MOL0     C12375   4.693   3.959  -2.969 -1.5141 -0.7997 -0.0576
  852MOL0    Cl12376   4.613   3.807  -3.035 -0.1493  0.1955 -0.4825
  852MOL0     C12377   5.257   3.413  -2.135 -0.9520 -0.3045 -0.9058
  852MOL0     C12378   5.352   3.383  -2.036  0.1672 -0.2657  0.2759
  852MOL0     O12379   5.476   3.553  -1.736  0.0087  0.0933  0.0480
  852MOL0     C12380   5.678   3.418  -1.556  0.3946 -0.7119 -0.9963
  852MOL0     C12381   5.760   3.346  -1.477  0.6396  0.7319 -0.1559
  852MOL0     N12382   5.600   2.872  -0.853  0.4458  0.3818  0.6406
  852MOL0     N12383   5.654   2.818  -0.745  0.7589 -0.8827  0.5543
  852MOL0     C12384   5.961   2.988   0.174  0.5330 -0.5757 -0.7725
  852MOL0     C12385   5.922   2.981   0.309 -0.1562 -0.4033  0.2923
  852MOL0     C12386   5.850   3.108   0.731  0.7156 -0.6053 -0.0198
  852MOL0     C12387   5.773   3.212   0.792 -0.1894 -0.5425 -0.7667
  852MOL0     C12388   5.752   3.219   0.928 -0.6629 -0.4648  0.6472
  852MOL0     C12389   5.807   3.136   1.011  0.0578 -0.1689 -0.0651
  852MOL0     O12390   5.770   3.146   1.147  0.5151  0.8491 -0.7167
  852MOL0     C12391   5.879   3.112   1.244  0.1059  0.0012  0.2858
  852MOL0     C12392   5.848   2.974   1.296 -0.9779 -0.2744 -0.0373
  852MOL0     C12393   5.726   2.965   1.387 -0.6229 -0.5055  0.2087
  852MOL0     C12394   5.757   3.040   1.522  0.3980 -1.0786  0.6661
  852MOL0     C12395   5.862   3.000   1.611 -0.7853  0.0752  0.0295
  852MOL0     C12396   5.964   2.987   1.676  0.1998  0.7884 -0.4307
  852MOL0     C12397   5.895   3.030   0.960  0.8755 -0.0320 -0.7027
  852MOL0     C12398   5.907   3.020   0.823  0.0486  0.0562  0.5140
  852MOL0     H12399   6.192   3.117   0.458  1.4757  2.7931 -2.1718
  852MOL0     H12400   6.279   3.118   0.218 -1.1042  0.7043 -3.1179
  852MOL0     H12401   6.193   2.831   0.051 -2.8473  1.6307  2.6770
  852MOL0     H12402   6.328   2.923   0.008 -0.0995  2.4185  2.4141
  852MOL0     H12403   6.266   2.796  -0.179 -0.0708  1.3255 -2.3312
  852MOL0     H12404   6.208   2.954  -0.228 -2.2141 -1.0014 -1.5901
  852MOL0     H12405   5.979   2.910  -0.149  2.4929  1.2460  3.4854
  852MOL0     H12406   6.049   2.749  -0.092  2.0110  0.3709  0.5991
  852MOL0     H12407   6.006   2.861  -0.375  0.3173  0.0512 -0.9453
  852MOL0     H12408   6.106   2.714  -0.352 -0.1945 -0.0944 -1.4516
  852MOL0     H12409   5.808   2.740  -0.275 -1.2255 -0.7858 -1.9882
  852MOL0     H12410   5.915   2.601  -0.245 -0.4199 -0.4927 -0.9337
  852MOL0     H12411   5.765   2.566  -0.444 -0.5014 -0.8544  1.9492
  852MOL0     H12412   5.931   2.542  -0.468 -2.1254 -0.3401 -1.9730
  852MOL0     H12413   5.784   2.785  -0.521 -2.0669 -3.5695  2.6882
  852MOL0     H12414   5.965   2.763  -0.572 -1.2026  2.8055 -0.3694
  852MOL0     H12415   5.768   2.572  -0.667  1.6071  0.1827  3.3779
  852MOL0     H12416   5.927   2.631  -0.748 -0.2341 -1.6131  0.8082
  852MOL0     H12417   5.818   2.661  -0.981 -0.3541  1.6334 -1.9541
  852MOL0     H12418   5.530   2.857  -1.124  0.0504 -0.7000 -0.0886
  852MOL0     H12419   5.670   2.750  -1.160  2.1259 -0.3187 -0.6737
  852MOL0     H12420   5.813   2.954  -1.095  0.0369  2.1105  0.1544
  852MOL0     H12421   5.663   3.055  -1.112 -1.5029 -1.2837 -0.9492
  852MOL0     H12422   5.802   2.899  -1.327 -0.2863  0.5255 -2.6861
  852MOL0     H12423   5.668   2.982  -1.357  0.7358 -2.3593  0.6616
  852MOL0     H12424   5.948   3.096  -1.270 -1.2911 -0.7707  2.2268
  852MOL0     H12425   5.801   3.192  -1.269 -0.6912 -2.5829  0.5195
  852MOL0     H12426   5.822   3.097  -1.693 -0.3347  0.7851 -0.2838
  852MOL0     H12427   5.678   3.228  -1.845  0.4095  3.1391 -1.2309
  852MOL0     H12428   5.540   3.671  -2.035  0.3459 -1.4378  1.9691
  852MOL0     H12429   5.370   3.728  -2.207 -2.3322 -1.2007 -3.4782
  852MOL0     H12430   5.225   3.668  -2.449 -1.9709  3.1203 -2.5592
  852MOL0     H12431   5.170   3.766  -2.316 -1.4721  0.3690  1.1303
  852MOL0     H12432   4.949   3.679  -2.334  2.6211  0.7232  2.7185
  852MOL0     H12433   4.995   3.588  -2.481 -1.5879 -0.6382  1.8946
  852MOL0     H12434   5.055   3.799  -2.592  0.2878 -4.8379  0.5722
  852MOL0     H12435   5.012   3.896  -2.438 -0.4500  0.2592  0.3463
  852MOL0     H12436   4.823   3.702  -2.587  0.9566 -0.2740 -1.5912
  852MOL0     H12437   4.781   3.840  -2.478  0.3662  1.7695 -0.5163
  852MOL0     H12438   4.881   3.845  -2.767 -2.7916  0.7922 -1.0941
  852MOL0     H12439   4.883   3.985  -2.660  2.6933 -0.7352 -3.1441
  852MOL0     H12440   4.629   3.937  -2.620  0.2388 -2.1667  0.5543
  852MOL0     H12441   4.636   3.806  -2.734 -0.9734  2.0891 -2.0070
  852MOL0     H12442   4.523   3.983  -2.834 -0.1421  2.6191  0.4803
  852MOL0     H12443   4.656   4.093  -2.791  2.3230  0.1294 -0.4583
  852MOL0     H12444   4.801   3.941  -2.966 -1.5526 -0.9083  2.0836
  852MOL0     H12445   4.668   4.048  -3.028 -0.6630  0.3476  1.2407
  852MOL0     H12446   5.170   3.354  -2.162 -1.4274 -0.1773  0.2846
  852MOL0     H12447   5.353   3.287  -1.986  1.0331  0.5364  1.8794
  852MOL0     H12448   5.630   3.507  -1.516  2.3509 -1.1048  2.5477
  852MOL0     H12449   5.769   3.388  -1.378  0.3575 -1.8753  1.0463
  852MOL0     H12450   5.903   2.949   0.091  1.7037 -2.0500 -0.9418
  852MOL0     H12451   5.836   2.930   0.350  1.8879 -1.7728  3.3113
  852MOL0     H12452   5.744   3.296   0.730  0.8672 -1.3528 -2.4381
  852MOL0     H12453   5.702   3.297   0.984  1.1985 -0.1548  1.9868
  852MOL0     H12454   5.885   3.196   1.314  0.6941 -0.4096  0.7459
  852MOL0     H12455   5.974   3.126   1.191  2.1991 -2.4516  3.0247
  852MOL0     H12456   5.842   2.902   1.213  0.6401 -0.7964  0.2655
  852MOL0     H12457   5.934   2.933   1.351 -0.5434 -2.1381 -1.9853
  852MOL0     H12458   5.700   2.860   1.402  6.0311 -2.8820 -1.6453
  852MOL0     H12459   5.634   3.014   1.352 -2.0779 -1.3180  2.5915
  852MOL0     H12460   5.771   3.146   1.498 -1.5680  0.1787  4.2648
  852MOL0     H12461   5.662   3.042   1.576  0.3084 -1.6181  0.5344
  852MOL0     H12462   6.058   2.996   1.726 -1.1897  0.4633  2.4477
  852MOL0     H12463   5.941   2.956   1.024  3.0896 -0.1678 -2.3380
  852MOL0     H12464   5.961   2.939   0.776 -2.4049 -0.8086 -1.0179
  853MOL0     O12465  11.383   3.039  10.993 -0.1234 -0.7942  0.4808
  853MOL0     C12466  11.426   3.015  11.108  0.8219  0.8376 -0.3079
  853MOL0     O12467  11.361   3.033  11.219  0.7746 -0.2229 -0.6871
  853MOL0     C12468  11.230   3.061  11.210  0.4747 -0.6901 -0.3973
  853MOL0     C12469  11.131   2.971  11.263 -0.8775 -0.3009 -0.7435
  853MOL0     C12470  10.994   3.004  11.282 -0.6519 -0.1447 -0.8839
  853MOL0     C12471  10.942   3.127  11.244 -0.9423  0.0865  0.2093
  853MOL0     O12472  10.809   3.158  11.283 -0.1982 -0.3513  0.4275
  853MOL0     C12473  10.786   3.296  11.268 -0.3496 -0.4123 -0.0119
  853MOL0     C12474  10.643   3.326  11.316 -0.0873  0.7169  0.9298
  853MOL0     C12475  10.653   3.431  11.437  0.2920  0.5069  0.6519
  853MOL0     C12476  10.507   3.462  11.481  1.4378  0.9600  0.0404
  853MOL0     C12477  10.496   3.549  11.599  0.8480 -0.6548  0.5789
  853MOL0     C12478  10.575   3.500  11.720 -0.4419 -0.6592  0.1129
  853MOL0     C12479  10.542   3.599  11.833 -0.2236  0.2760 -0.2266
  853MOL0     C12480  10.606   3.538  11.968 -0.9490 -0.3241 -0.0220
  853MOL0     N12481  10.553   3.608  12.089  0.2102 -0.3056 -0.4832
  853MOL0     C12482  10.427   3.606  12.145  0.7618 -0.1697  0.7490
  853MOL0     C12483  10.424   3.707  12.234 -0.7669 -0.2868 -0.2191
  853MOL0     C12484  10.312   3.757  12.318 -0.4424  0.9464 -0.0956
  853MOL0     C12485  10.216   3.847  12.230 -1.0199  0.4329 -0.5457
  853MOL0     C12486  10.092   3.885  12.304 -0.4979  0.8260  0.6147
  853MOL0     C12487   9.989   3.778  12.350 -1.0475  0.1897 -0.0220
  853MOL0     O12488   9.933   3.732  12.231  0.0541  0.0431  1.1530
  853MOL0     C12489   9.888   3.605  12.231  0.1540  0.3511 -0.8461
  853MOL0     C12490   9.744   3.591  12.227 -0.5814 -0.4570 -0.0902
  853MOL0     C12491   9.695   3.464  12.218 -0.7314 -0.0818 -0.0721
  853MOL0     C12492   9.785   3.350  12.203  0.0921  0.2525  0.3129
  853MOL0     C12493   9.733   3.200  12.181 -1.1636  0.6290 -0.7276
  853MOL0     O12494   9.597   3.183  12.210  0.5004 -0.0737 -0.0892
  853MOL0     C12495   9.543   3.058  12.219 -0.4716 -0.2822  0.6395
  853MOL0     C12496   9.428   3.013  12.142 -0.2060  0.4877  0.0519
  853MOL0     C12497   9.377   2.887  12.154 -0.3832  0.7187  0.2859
  853MOL0     C12498   9.416   2.793  12.248  0.2792  0.6535  0.2628
  853MOL0     O12499   9.341   2.675  12.269 -0.4943 -0.8864  0.1537
  853MOL0     C12500   9.339   2.610  12.407 -0.1822 -0.1220 -0.0493
  853MOL0     C12501   9.235   2.498  12.402  0.8517 -0.0431  0.9102
  853MOL0     C12502   9.223   2.405  12.528  0.7063  0.1322  1.0906
  853MOL0     C12503   9.152   2.268  12.478  0.5505  0.5626 -1.1305
  853MOL0     C12504   9.004   2.261  12.444 -0.1177 -0.0965 -0.0745
  853MOL0     C12505   8.909   2.213  12.551  0.5411  0.3421 -0.5287
  853MOL0     C12506   8.755   2.201  12.492  0.8961  0.4961  0.6574
  853MOL0     C12507   8.700   2.065  12.537 -0.0442  0.6916 -1.2324
  853MOL0    Cl12508   8.774   1.936  12.445  0.1749 -0.5613  0.0531
  853MOL0     C12509   9.526   2.823  12.330  0.4433  0.2416  0.0911
  853MOL0     C12510   9.581   2.965  12.314 -0.0616  0.7636 -0.1206
  853MOL0     O12511   9.812   3.108  12.151  0.5204 -1.0661 -0.5306
  853MOL0     C12512   9.929   3.372  12.211  0.5101 -0.3233  0.1690
  853MOL0     C12513   9.979   3.504  12.224 -0.8927 -0.1463  0.3974
  853MOL0     N12514  10.551   3.770  12.238 -0.0040  0.2452  0.2776
  853MOL0     N12515  10.629   3.706  12.156  0.5158 -0.0064  0.2239
  853MOL0     C12516  11.032   3.218  11.190 -0.9983 -0.1363  0.4855
  853MOL0     C12517  11.175   3.191  11.172  0.2095  0.1342  0.5332
  853MOL0     C12518  11.544   2.932  11.114 -0.3740 -0.4364  0.0258
  853MOL0     C12519  11.590   2.874  10.999 -0.3922  0.1492  0.6339
  853MOL0     C12520  11.685   2.777  11.013 -0.6495 -0.1425 -0.4937
  853MOL0     C12521  11.750   2.747  11.134  0.6061 -1.0218 -0.3747
  853MOL0     O12522  11.848   2.654  11.149  0.4207 -0.7959  0.4203
  853MOL0     C12523  11.852   2.546  11.053  1.3176 -0.3872 -0.5742
  853MOL0     C12524  11.925   2.428  11.111 -0.3522  0.3659 -0.4772
  853MOL0     C12525  12.077   2.432  11.095  1.0333  0.5073 -1.3459
  853MOL0     C12526  12.144   2.458  11.234  0.7463 -0.1899  0.3367
  853MOL0     C12527  12.110   2.579  11.301 -0.1673 -0.6025 -0.3789
  853MOL0     C12528  12.089   2.682  11.357  0.4500  0.1950  0.4460
  853MOL0     C12529  11.706   2.816  11.243 -0.2426  0.8210 -0.0362
  853MOL0     C12530  11.606   2.909  11.239 -0.4274 -0.1845  0.3151
  853MOL0     H12531  11.173   2.887  11.318 -0.4081  1.8352  2.4807
  853MOL0     H12532  10.929   2.920  11.304 -1.6221  0.6181 -0.7243
  853MOL0     H12533  10.816   3.333  11.170  1.4679  2.2827  1.4451
  853MOL0     H12534  10.852   3.351  11.336  0.2213 -0.5117 -0.4761
  853MOL0     H12535  10.595   3.236  11.357 -0.7803  0.8786  0.4865
  853MOL0     H12536  10.589   3.356  11.226 -1.6880 -2.7946  0.5260
  853MOL0     H12537  10.706   3.525  11.421  1.2368 -0.1650 -0.2976
  853MOL0     H12538  10.701   3.374  11.517 -1.1227 -2.3057 -0.3610
  853MOL0     H12539  10.458   3.509  11.396 -1.4971  0.8165  1.5317
  853MOL0     H12540  10.455   3.367  11.496  2.7314  0.5665  2.5112
  853MOL0     H12541  10.392   3.559  11.630  1.1809 -0.6410  1.7508
  853MOL0     H12542  10.522   3.649  11.563 -0.9066 -0.2512  0.3697
  853MOL0     H12543  10.683   3.513  11.705  0.1046  0.6402  3.9594
  853MOL0     H12544  10.546   3.397  11.741 -1.7220 -0.5511 -0.9982
  853MOL0     H12545  10.589   3.697  11.819 -0.7817  0.2106 -3.0786
  853MOL0     H12546  10.434   3.611  11.847 -0.3447 -1.8938  1.1881
  853MOL0     H12547  10.714   3.533  11.983 -0.7107  1.8873 -0.5922
  853MOL0     H12548  10.572   3.434  11.965  0.5333 -1.0018 -5.7662
  853MOL0     H12549  10.340   3.548  12.116  1.7174 -0.2296 -2.3391
  853MOL0     H12550  10.362   3.820  12.393  0.3729  1.8920 -1.3881
  853MOL0     H12551  10.260   3.673  12.365 -0.9425  1.0923 -0.3765
  853MOL0     H12552  10.190   3.783  12.145 -1.9004 -1.5417  1.1010
  853MOL0     H12553  10.259   3.943  12.201 -3.7850  1.4607 -1.6469
  853MOL0     H12554  10.125   3.940  12.393 -2.3527  1.1696  1.1423
  853MOL0     H12555  10.034   3.948  12.236  1.6332  1.9100 -0.2885
  853MOL0     H12556   9.912   3.820  12.415  0.3142  2.0557  0.4431
  853MOL0     H12557  10.052   3.705  12.402 -0.7032  1.4345  1.3737
  853MOL0     H12558   9.675   3.675  12.225 -1.6064 -1.3060 -1.1573
  853MOL0     H12559   9.589   3.451  12.197 -1.0482 -1.5515  2.1211
  853MOL0     H12560   9.383   3.064  12.057 -5.5220 -1.7026  1.1296
  853MOL0     H12561   9.290   2.863  12.094 -1.3216  1.5209  1.2762
  853MOL0     H12562   9.300   2.683  12.478 -0.5892 -0.4715  0.0954
  853MOL0     H12563   9.433   2.565  12.439 -1.1238 -0.8760  1.7527
  853MOL0     H12564   9.255   2.432  12.318 -2.6836 -1.4847  0.9969
  853MOL0     H12565   9.141   2.551  12.381  1.9580  1.8655  0.5765
  853MOL0     H12566   9.170   2.459  12.607  0.3445  0.3281  0.7230
  853MOL0     H12567   9.321   2.375  12.564  1.4804 -0.2260 -1.1230
  853MOL0     H12568   9.205   2.228  12.391  1.9321 -3.1794  1.1736
  853MOL0     H12569   9.161   2.195  12.559 -1.1623  2.0837  0.5299
  853MOL0     H12570   9.002   2.186  12.364  1.8958  2.0391 -2.2797
  853MOL0     H12571   8.963   2.356  12.409 -0.6949 -0.6631 -0.9759
  853MOL0     H12572   8.926   2.279  12.636  1.8753  1.6994 -1.7641
  853MOL0     H12573   8.942   2.114  12.583 -0.8868 -0.0928 -0.3572
  853MOL0     H12574   8.708   2.285  12.544  1.2763  1.1539 -0.0471
  853MOL0     H12575   8.743   2.206  12.384  0.4739  1.5551  0.7426
  853MOL0     H12576   8.592   2.063  12.522 -0.0019  1.3364 -1.7094
  853MOL0     H12577   8.707   2.066  12.646 -0.8266  2.5150 -1.1568
  853MOL0     H12578   9.577   2.749  12.392 -0.6560 -0.0931  0.6108
  853MOL0     H12579   9.666   2.985  12.378 -0.5916 -1.2935  1.3118
  853MOL0     H12580  10.002   3.293  12.200 -0.7273 -1.3917 -0.6053
  853MOL0     H12581  10.082   3.538  12.212 -1.6756  2.4781  0.5051
  853MOL0     H12582  11.001   3.317  11.161 -1.4621 -0.5382 -0.4324
  853MOL0     H12583  11.228   3.276  11.130 -4.0972  2.6201 -0.4714
  853MOL0     H12584  11.550   2.875  10.898  0.7937 -0.0340  0.1434
  853MOL0     H12585  11.718   2.725  10.924  0.4820 -3.6447  1.7883
  853MOL0     H12586  11.898   2.585  10.961  6.8406 -0.9557  1.5490
  853MOL0     H12587  11.753   2.503  11.038  2.1560 -2.8200  0.4472
  853MOL0     H12588  11.892   2.420  11.214 -0.8512 -0.8662 -0.7145
  853MOL0     H12589  11.882   2.343  11.057 -0.9737  1.0081 -1.0252
  853MOL0     H12590  12.104   2.512  11.025 -1.1619  1.5304 -1.1147
  853MOL0     H12591  12.116   2.337  11.056  0.2806 -0.8483  0.9641
  853MOL0     H12592  12.122   2.381  11.308  0.4585 -3.5376 -2.9391
  853MOL0     H12593  12.249   2.464  11.205  0.4301 -1.1899 -1.0880
  853MOL0     H12594  12.047   2.767  11.407 -2.6553 -1.9048  1.6926
  853MOL0     H12595  11.767   2.815  11.333 -2.3165 -1.4272  1.4904
  853MOL0     H12596  11.566   2.958  11.326 -0.0436 -0.1298  0.4639
  854MOL0     O12597   0.220   2.323   3.555 -0.1989  0.1974  0.5747
  854MOL0     C12598   0.219   2.374   3.666  0.6688 -0.4740  0.0637
  854MOL0     O12599   0.116   2.393   3.754 -1.0302  0.2735  0.3869
  854MOL0     C12600   0.004   2.354   3.707  0.5596  0.5525 -0.6773
  854MOL0     C12601  -0.020   2.221   3.664  0.5086  0.4413  0.2532
  854MOL0     C12602  -0.148   2.174   3.643  1.1759 -0.1015 -0.8824
  854MOL0     C12603  -0.246   2.265   3.619  1.1650 -1.1394  0.6101
  854MOL0     O12604  -0.372   2.240   3.573  0.1794 -0.0453 -0.0636
  854MOL0     C12605  -0.400   2.113   3.529 -0.1640  0.3295 -0.7699
  854MOL0     C12606  -0.526   2.108   3.436 -0.3288 -0.5264  0.0342
  854MOL0     C12607  -0.651   2.044   3.496 -0.4971  0.8122  0.1327
  854MOL0     C12608  -0.777   2.052   3.421 -0.5324 -0.4029 -1.0099
  854MOL0     C12609  -0.877   1.954   3.463  0.7377 -0.1280 -0.5026
  854MOL0     C12610  -0.940   1.969   3.605 -0.2806 -0.9827 -0.5424
  854MOL0     C12611  -1.001   2.112   3.640 -1.0771  0.4310 -0.4579
  854MOL0     C12612  -1.069   2.091   3.773  0.1788  0.1077  0.3094
  854MOL0     N12613  -1.120   2.213   3.821  0.2545  1.2299 -0.6893
  854MOL0     C12614  -1.221   2.275   3.753 -0.2166 -0.5688  0.0206
  854MOL0     C12615  -1.236   2.387   3.827  0.1911  0.3452  0.8353
  854MOL0     C12616  -1.316   2.503   3.786 -0.0135 -0.1126 -0.2827
  854MOL0     C12617  -1.295   2.522   3.629  0.0303  0.2236 -0.6293
  854MOL0     C12618  -1.159   2.561   3.598 -0.1382 -1.0861 -0.0978
  854MOL0     C12619  -1.136   2.591   3.450 -0.3614  0.7516  0.3245
  854MOL0     O12620  -0.999   2.602   3.387 -0.4689 -0.6262  0.3789
  854MOL0     C12621  -0.887   2.658   3.464  0.5330 -0.0159  0.0151
  854MOL0     C12622  -0.842   2.788   3.436 -0.5073 -0.3635 -0.6623
  854MOL0     C12623  -0.724   2.837   3.490  0.1745  0.3090 -0.4840
  854MOL0     C12624  -0.636   2.755   3.563 -0.2688 -0.1461 -0.0932
  854MOL0     C12625  -0.518   2.803   3.618 -0.8315 -0.7913  0.1863
  854MOL0     O12626  -0.424   2.713   3.643 -0.8463 -0.8937  0.3702
  854MOL0     C12627  -0.308   2.751   3.703  0.2834  0.2094 -0.2909
  854MOL0     C12628  -0.299   2.726   3.842  0.7761  0.8491  0.6036
  854MOL0     C12629  -0.185   2.755   3.917 -0.7209  0.2897  0.0319
  854MOL0     C12630  -0.067   2.802   3.846 -0.0189 -0.2680 -0.0385
  854MOL0     O12631   0.038   2.846   3.924  0.5187  0.0304  0.8820
  854MOL0     C12632   0.174   2.844   3.876  0.2717  0.3136  0.0606
  854MOL0     C12633   0.259   2.865   4.000 -0.1334 -1.0370 -0.2638
  854MOL0     C12634   0.277   3.004   4.053  0.1851  0.8959 -0.0084
  854MOL0     C12635   0.387   3.025   4.160 -0.5014 -0.4462 -0.2885
  854MOL0     C12636   0.385   3.161   4.222  0.4061 -0.5824  0.3095
  854MOL0     C12637   0.315   3.162   4.357 -0.3922 -0.5854  1.2103
  854MOL0     C12638   0.297   3.307   4.394  0.5968 -0.5437  0.6344
  854MOL0     C12639   0.217   3.325   4.516  0.2501 -1.0811 -1.0107
  854MOL0    Cl12640   0.190   3.496   4.540 -0.0367 -0.4451  0.0491
  854MOL0     C12641  -0.085   2.828   3.713 -0.8172 -0.1511  0.0469
  854MOL0     C12642  -0.201   2.806   3.640 -1.4508 -0.3246  0.9253
  854MOL0     O12643  -0.510   2.920   3.629  0.0195 -0.3489  0.0770
  854MOL0     C12644  -0.679   2.628   3.592  0.8086 -0.4185 -0.3890
  854MOL0     C12645  -0.804   2.581   3.541 -0.8531  0.4208  0.3625
  854MOL0     N12646  -1.159   2.376   3.942  0.1213  1.0930 -0.2577
  854MOL0     N12647  -1.093   2.271   3.939  0.0946  0.7741  0.5449
  854MOL0     C12648  -0.230   2.401   3.650  0.2277 -0.0915 -0.2988
  854MOL0     C12649  -0.106   2.437   3.707 -1.1797  0.0103  0.4534
  854MOL0     C12650   0.354   2.398   3.720 -0.9616  0.3142  0.1551
  854MOL0     C12651   0.382   2.491   3.824 -0.5281 -0.3870  0.7794
  854MOL0     C12652   0.506   2.531   3.863 -0.4089  0.0520  0.2312
  854MOL0     C12653   0.615   2.466   3.805  0.7922 -1.4909  0.3305
  854MOL0     O12654   0.737   2.489   3.852  0.2893 -0.5382 -0.4251
  854MOL0     C12655   0.780   2.625   3.829 -1.2786  0.5240 -0.9287
  854MOL0     C12656   0.933   2.625   3.853 -0.2635  0.9895 -0.7116
  854MOL0     C12657   0.971   2.657   4.002 -0.3364  0.4166  0.1856
  854MOL0     C12658   1.124   2.659   4.023 -0.1176  0.2999 -0.4313
  854MOL0     C12659   1.174   2.527   4.063  0.7093 -1.1505  0.2710
  854MOL0     C12660   1.215   2.415   4.073  0.9105  0.0196  0.1039
  854MOL0     C12661   0.590   2.377   3.700 -0.3177  0.3654 -1.0444
  854MOL0     C12662   0.467   2.339   3.658  0.7645 -0.1618  0.8288
  854MOL0     H12663   0.066   2.156   3.666  0.2939 -0.0329 -2.1702
  854MOL0     H12664  -0.149   2.067   3.627  1.9893 -0.4622  1.2607
  854MOL0     H12665  -0.429   2.046   3.611 -0.1931  0.7862 -0.4082
  854MOL0     H12666  -0.312   2.066   3.484  0.8762  2.4607 -1.0751
  854MOL0     H12667  -0.503   2.045   3.350  2.9576  1.9655 -1.1112
  854MOL0     H12668  -0.556   2.210   3.409  0.0831  0.0891  1.7745
  854MOL0     H12669  -0.670   2.101   3.587  1.5782  4.3898 -1.4651
  854MOL0     H12670  -0.630   1.938   3.511 -0.6957  0.8164  0.4512
  854MOL0     H12671  -0.815   2.152   3.447  3.3056  0.7704  0.7776
  854MOL0     H12672  -0.757   2.046   3.313 -1.6523 -1.5392 -1.1847
  854MOL0     H12673  -0.835   1.854   3.445 -1.4743 -0.9267 -1.6689
  854MOL0     H12674  -0.967   1.948   3.401 -0.3219 -2.1895  1.0988
  854MOL0     H12675  -0.860   1.943   3.674 -0.3667  0.9436  0.3408
  854MOL0     H12676  -1.002   1.880   3.620  1.3023 -2.5465 -2.6353
  854MOL0     H12677  -0.915   2.179   3.648 -1.9554  1.5152  0.2264
  854MOL0     H12678  -1.075   2.154   3.571 -0.9345 -0.6163 -1.2823
  854MOL0     H12679  -0.993   2.059   3.844 -1.1554  1.7331  2.5755
  854MOL0     H12680  -1.152   2.019   3.772  0.8849 -0.7447 -1.4054
  854MOL0     H12681  -1.267   2.242   3.660 -3.0924  1.4250  0.6280
  854MOL0     H12682  -1.273   2.593   3.831  2.2448 -0.5298 -1.4623
  854MOL0     H12683  -1.420   2.503   3.820 -0.6580 -4.2784 -1.6467
  854MOL0     H12684  -1.359   2.605   3.600 -1.9093 -0.2106  2.0630
  854MOL0     H12685  -1.319   2.430   3.574 -1.6882 -1.3041  2.3816
  854MOL0     H12686  -1.142   2.656   3.650 -0.5853 -0.4274 -1.1241
  854MOL0     H12687  -1.095   2.474   3.613 -1.0716 -2.0513 -1.4477
  854MOL0     H12688  -1.181   2.685   3.417 -0.9480 -0.0452 -1.2528
  854MOL0     H12689  -1.192   2.515   3.396 -1.9890  2.2605 -0.1956
  854MOL0     H12690  -0.906   2.841   3.366 -3.7084 -1.0882  1.5047
  854MOL0     H12691  -0.696   2.938   3.463  0.8308  0.2996  0.1261
  854MOL0     H12692  -0.371   2.658   3.885  1.4839  1.0444  2.1629
  854MOL0     H12693  -0.177   2.740   4.024 -3.2408  1.5099  0.4609
  854MOL0     H12694   0.194   2.916   3.796 -0.0326  1.7711  1.2481
  854MOL0     H12695   0.198   2.743   3.842  0.3401 -0.1917  1.5442
  854MOL0     H12696   0.361   2.834   3.974  1.3223  1.8988  1.3663
  854MOL0     H12697   0.232   2.802   4.086  1.3856  0.1111  1.1418
  854MOL0     H12698   0.183   3.014   4.109  0.7811  3.1198  0.6941
  854MOL0     H12699   0.290   3.084   3.979 -1.4615 -2.6945 -4.7033
  854MOL0     H12700   0.378   2.948   4.238 -0.9083  0.4990  0.6320
  854MOL0     H12701   0.490   3.021   4.123 -0.6191  1.1686 -0.8622
  854MOL0     H12702   0.339   3.228   4.150 -0.1852  1.7389  2.6947
  854MOL0     H12703   0.483   3.204   4.244 -0.2375  0.5712  0.9695
  854MOL0     H12704   0.381   3.103   4.421 -2.0160 -1.6504  1.9635
  854MOL0     H12705   0.219   3.110   4.356 -1.5472  1.3201 -1.6665
  854MOL0     H12706   0.396   3.346   4.420  1.4906 -0.6674 -2.2742
  854MOL0     H12707   0.252   3.363   4.311  2.1881  0.1722  0.2250
  854MOL0     H12708   0.283   3.285   4.594  0.1859  0.6764  0.0221
  854MOL0     H12709   0.120   3.279   4.530 -0.0217  0.1358  1.9055
  854MOL0     H12710   0.005   2.870   3.670  0.3954 -0.6469  2.0067
  854MOL0     H12711  -0.222   2.823   3.535  0.5485  1.7725  0.7838
  854MOL0     H12712  -0.622   2.560   3.654 -1.2396 -1.8861 -0.0207
  854MOL0     H12713  -0.812   2.473   3.542  0.1893  0.3292  0.1585
  854MOL0     H12714  -0.312   2.470   3.630  0.2288  0.0937  0.3266
  854MOL0     H12715  -0.075   2.539   3.727  1.9896 -0.2908 -2.1646
  854MOL0     H12716   0.289   2.531   3.864  0.6185 -1.0647  4.6197
  854MOL0     H12717   0.531   2.603   3.941  4.5799  0.1095 -1.0490
  854MOL0     H12718   0.732   2.690   3.903 -2.9550  1.0934 -2.4499
  854MOL0     H12719   0.751   2.664   3.732 -2.4650  2.6200  0.1934
  854MOL0     H12720   0.983   2.529   3.835 -0.0747  1.3800 -2.4688
  854MOL0     H12721   0.975   2.703   3.790 -1.0677  1.4120 -0.7354
  854MOL0     H12722   0.919   2.585   4.066 -2.5511 -0.6278 -2.6050
  854MOL0     H12723   0.932   2.757   4.026  1.1660  0.6684  1.8109
  854MOL0     H12724   1.166   2.692   3.927 -0.0529 -1.9244 -1.2317
  854MOL0     H12725   1.162   2.716   4.108 -0.7315 -0.3621  0.2945
  854MOL0     H12726   1.266   2.321   4.073  3.3822  1.2626 -0.5048
  854MOL0     H12727   0.674   2.333   3.648  1.4286  0.2241  1.6786
  854MOL0     H12728   0.464   2.269   3.576  0.6832 -0.4054  1.0392
  855MOL0     O12729   1.468   0.440   3.896 -0.1179  0.2191 -0.2737
  855MOL0     C12730   1.547   0.517   3.845 -0.1737 -0.3148  0.3607
  855MOL0     O12731   1.679   0.536   3.885 -0.8572  0.9660  0.4718
  855MOL0     C12732   1.724   0.505   4.018 -0.6289 -0.6737 -0.6324
  855MOL0     C12733   1.864   0.479   4.027  0.1010  0.5315 -0.8871
  855MOL0     C12734   1.918   0.441   4.155 -0.6692  0.1742  0.4353
  855MOL0     C12735   1.846   0.427   4.268  0.9575 -0.2380 -0.8691
  855MOL0     O12736   1.904   0.411   4.391  0.1355 -0.0233 -0.4442
  855MOL0     C12737   2.029   0.357   4.402  0.0842  0.0673 -0.4275
  855MOL0     C12738   2.142   0.458   4.387  0.9602  0.0640  0.1652
  855MOL0     C12739   2.224   0.443   4.511 -0.7703 -0.2845 -0.1922
  855MOL0     C12740   2.366   0.492   4.481  0.2318  1.2577 -0.5829
  855MOL0     C12741   2.439   0.462   4.615  0.7434 -0.7987  1.2239
  855MOL0     C12742   2.582   0.500   4.597 -0.1778 -0.5038  0.0956
  855MOL0     C12743   2.664   0.450   4.712 -0.0579  0.4911 -1.3223
  855MOL0     C12744   2.653   0.544   4.823 -0.2346  0.7558  0.1539
  855MOL0     N12745   2.727   0.512   4.945  0.0350 -0.0502 -0.2609
  855MOL0     C12746   2.677   0.439   5.056  0.1302 -0.6633 -0.3230
  855MOL0     C12747   2.780   0.428   5.140  0.0431 -0.3157  0.1700
  855MOL0     C12748   2.783   0.334   5.256  0.4043  0.7340  0.4592
  855MOL0     C12749   2.920   0.264   5.282 -0.9442  0.4741 -0.3510
  855MOL0     C12750   2.960   0.173   5.171  0.5041  0.7245  0.5006
  855MOL0     C12751   3.067   0.055   5.205  0.4218 -0.1725  0.1707
  855MOL0     O12752   3.195   0.116   5.223  0.6556 -0.1729  0.0480
  855MOL0     C12753   3.304   0.032   5.207  0.5496 -1.1169 -0.5292
  855MOL0     C12754   3.434   0.083   5.228 -0.1660 -0.9092 -0.3313
  855MOL0     C12755   3.553   0.004   5.228  0.0469 -0.3251  0.4886
  855MOL0     C12756   3.541  -0.130   5.207 -0.6851 -0.5969  0.7417
  855MOL0     C12757   3.669  -0.208   5.188 -0.8769 -0.4900 -0.0861
  855MOL0     O12758   3.651  -0.327   5.136 -0.5894 -0.2376  0.0462
  855MOL0     C12759   3.730  -0.426   5.185  0.1961 -0.3659 -0.3964
  855MOL0     C12760   3.726  -0.445   5.322 -0.6366  0.5879 -0.1460
  855MOL0     C12761   3.803  -0.553   5.374 -0.9398  0.4502 -0.3819
  855MOL0     C12762   3.888  -0.636   5.300 -0.2431 -0.4852  2.0101
  855MOL0     O12763   3.967  -0.732   5.368  0.6619 -0.3796  0.6347
  855MOL0     C12764   4.106  -0.718   5.357 -0.2665 -0.5270 -0.9501
  855MOL0     C12765   4.180  -0.844   5.419  0.0728  0.3280 -1.0288
  855MOL0     C12766   4.334  -0.851   5.385  0.3101 -0.3433 -0.7441
  855MOL0     C12767   4.417  -0.753   5.464  0.2355 -0.1025 -0.0305
  855MOL0     C12768   4.556  -0.710   5.403  0.2756 -0.2611  0.4834
  855MOL0     C12769   4.681  -0.798   5.377  0.4989  1.1717  0.4040
  855MOL0     C12770   4.644  -0.917   5.293 -0.2835 -0.3333 -0.6020
  855MOL0     C12771   4.757  -0.961   5.210 -0.0162  1.0401  0.0074
  855MOL0    Cl12772   4.888  -1.034   5.308 -0.2722  0.2171  0.5490
  855MOL0     C12773   3.905  -0.592   5.163  0.4074 -0.6834 -0.1338
  855MOL0     C12774   3.825  -0.493   5.109 -0.2129  0.0675  0.6110
  855MOL0     O12775   3.777  -0.153   5.217 -0.3120  0.3189  0.3240
  855MOL0     C12776   3.416  -0.187   5.189  0.0061  0.1894 -1.6990
  855MOL0     C12777   3.302  -0.108   5.180  0.0048  0.3277 -0.4958
  855MOL0     N12778   2.885   0.507   5.089  0.6821 -1.0675 -0.4659
  855MOL0     N12779   2.846   0.572   4.982  0.3473 -0.6872  0.0029
  855MOL0     C12780   1.714   0.452   4.255 -1.2464  0.6185  0.6261
  855MOL0     C12781   1.651   0.498   4.141  0.2492 -0.3177 -0.0209
  855MOL0     C12782   1.508   0.576   3.715 -0.0108  0.9521 -0.0959
  855MOL0     C12783   1.590   0.669   3.646  0.2941 -0.6537  0.3193
  855MOL0     C12784   1.546   0.734   3.527 -0.2205 -0.2506 -0.4506
  855MOL0     C12785   1.417   0.714   3.483  0.1003  0.4487 -0.4257
  855MOL0     O12786   1.387   0.767   3.366 -0.4873 -0.4342 -0.5262
  855MOL0     C12787   1.282   0.719   3.277 -0.5819 -0.6371 -0.0209
  855MOL0     C12788   1.330   0.585   3.230 -0.1808  0.1080  0.1998
  855MOL0     C12789   1.271   0.542   3.098  0.1837  0.3011 -0.0420
  855MOL0     C12790   1.131   0.477   3.109  0.5788  0.6972  0.3714
  855MOL0     C12791   1.024   0.564   3.152 -0.3242  0.8407 -1.1972
  855MOL0     C12792   0.919   0.603   3.189 -0.3211 -0.3310  0.7890
  855MOL0     C12793   1.322   0.629   3.558  0.5522 -0.0241  0.9099
  855MOL0     C12794   1.370   0.559   3.671 -0.1915 -0.7098 -0.5393
  855MOL0     H12795   1.929   0.493   3.942  0.4337 -0.5605 -0.8316
  855MOL0     H12796   2.026   0.435   4.161 -0.6269  1.3309  4.9701
  855MOL0     H12797   2.056   0.273   4.336  1.2852 -0.9621  1.3013
  855MOL0     H12798   2.027   0.301   4.496  0.4071  1.4798  0.4340
  855MOL0     H12799   2.103   0.560   4.380 -4.3080 -1.5145  1.6006
  855MOL0     H12800   2.194   0.438   4.294 -1.0356  1.9714 -1.4696
  855MOL0     H12801   2.216   0.339   4.541 -1.0609 -0.6433 -1.4456
  855MOL0     H12802   2.181   0.516   4.581  2.2251 -1.1772  2.8076
  855MOL0     H12803   2.413   0.436   4.401 -0.9014 -2.6617  1.2663
  855MOL0     H12804   2.364   0.598   4.452 -3.9024  0.7167 -3.1765
  855MOL0     H12805   2.428   0.357   4.642 -0.9372 -0.7011  1.0179
  855MOL0     H12806   2.391   0.516   4.697 -1.5082  2.3965 -1.9125
  855MOL0     H12807   2.606   0.603   4.570 -3.5696  0.8716  1.6889
  855MOL0     H12808   2.622   0.446   4.511 -0.3749  1.9141 -1.6247
  855MOL0     H12809   2.627   0.356   4.754 -1.6507  1.1354 -1.1891
  855MOL0     H12810   2.769   0.442   4.682  0.0124  0.2826 -1.0252
  855MOL0     H12811   2.549   0.557   4.852 -0.2143 -0.5626  0.9164
  855MOL0     H12812   2.695   0.633   4.776  2.0029 -0.8506 -1.0991
  855MOL0     H12813   2.580   0.399   5.083 -0.1985  1.4058  1.7606
  855MOL0     H12814   2.725   0.243   5.237  3.2390 -2.1014  3.7332
  855MOL0     H12815   2.748   0.383   5.347 -0.1521 -0.9993  1.2229
  855MOL0     H12816   2.927   0.208   5.375  2.3447 -0.9038 -1.2588
  855MOL0     H12817   2.993   0.345   5.288 -2.5642  1.9105  0.5283
  855MOL0     H12818   2.878   0.109   5.136  2.9586 -1.3198 -1.9024
  855MOL0     H12819   3.004   0.236   5.093  0.5420 -0.1712 -0.2155
  855MOL0     H12820   3.064  -0.028   5.134 -0.5057  0.4604 -0.5696
  855MOL0     H12821   3.032   0.006   5.296 -1.0810 -1.1146 -0.8533
  855MOL0     H12822   3.450   0.187   5.256 -3.3398 -0.8862  2.0380
  855MOL0     H12823   3.653   0.044   5.245 -0.3031  0.3288  1.0746
  855MOL0     H12824   3.667  -0.383   5.389 -0.9572 -1.4518  1.5428
  855MOL0     H12825   3.788  -0.565   5.481 -4.0296 -0.5263 -0.8449
  855MOL0     H12826   4.145  -0.629   5.406  1.4455 -0.9580 -1.4645
  855MOL0     H12827   4.121  -0.719   5.248 -1.9708 -1.7332 -1.2083
  855MOL0     H12828   4.130  -0.939   5.398 -0.3777  0.8742 -2.4849
  855MOL0     H12829   4.173  -0.833   5.528  1.1911  3.0813 -1.1584
  855MOL0     H12830   4.342  -0.832   5.278  0.4359  1.6433 -0.4306
  855MOL0     H12831   4.347  -0.958   5.406 -2.6625 -0.7889 -0.7289
  855MOL0     H12832   4.355  -0.669   5.498 -0.4367 -0.5673 -0.0774
  855MOL0     H12833   4.426  -0.815   5.554 -0.7947  1.5910  1.3006
  855MOL0     H12834   4.582  -0.636   5.479 -0.8032 -2.0849  2.7368
  855MOL0     H12835   4.546  -0.647   5.313 -0.0224  0.4958  1.0349
  855MOL0     H12836   4.717  -0.829   5.475 -2.7467 -1.7408  0.8580
  855MOL0     H12837   4.752  -0.730   5.329  0.0068 -0.0277 -2.1543
  855MOL0     H12838   4.593  -0.993   5.353  0.0205  0.9331  1.3738
  855MOL0     H12839   4.574  -0.887   5.215  1.5044 -1.4255 -2.7370
  855MOL0     H12840   4.803  -0.881   5.151  0.7905  0.1832 -0.5648
  855MOL0     H12841   4.724  -1.041   5.142 -0.3438  1.4379 -0.3074
  855MOL0     H12842   3.979  -0.632   5.094  0.0014 -2.6528  0.5086
  855MOL0     H12843   3.862  -0.458   5.013 -0.7302  3.8331  1.6284
  855MOL0     H12844   3.414  -0.294   5.173  2.6779 -0.2528  0.3051
  855MOL0     H12845   3.218  -0.167   5.147  0.7408 -1.3075  0.4117
  855MOL0     H12846   1.649   0.433   4.339 -3.7633  2.1890 -0.8245
  855MOL0     H12847   1.545   0.516   4.125  0.4119  1.2166  0.4898
  855MOL0     H12848   1.688   0.695   3.684  0.2072 -1.3149  1.0197
  855MOL0     H12849   1.625   0.783   3.471  0.7503 -2.7985 -1.4883
  855MOL0     H12850   1.287   0.784   3.189  1.0600 -2.8009 -1.6319
  855MOL0     H12851   1.182   0.718   3.321 -1.5429 -1.7231 -2.1145
  855MOL0     H12852   1.439   0.588   3.231 -0.1716  2.4556 -1.1840
  855MOL0     H12853   1.295   0.507   3.300  0.4563 -0.0983  0.2952
  855MOL0     H12854   1.335   0.463   3.058 -2.4369 -1.6248 -0.6976
  855MOL0     H12855   1.277   0.622   3.024  1.2654  0.3740  0.1094
  855MOL0     H12856   1.102   0.445   3.009 -1.7244  1.4223  0.7485
  855MOL0     H12857   1.141   0.386   3.170  0.7006  0.9681  0.7580
  855MOL0     H12858   0.821   0.635   3.220 -0.7948 -0.5026 -0.4836
  855MOL0     H12859   1.219   0.612   3.527 -0.6288  2.5600  2.9796
  855MOL0     H12860   1.297   0.505   3.731  0.1634  1.0832  1.6516
  856MOL0     O12861   2.100   4.923   6.174  0.9149 -0.2372 -0.1295
  856MOL0     C12862   2.011   4.878   6.102  0.0326 -0.7200 -0.3660
  856MOL0     O12863   1.974   4.743   6.095 -0.0674 -0.5463  0.3753
  856MOL0     C12864   2.043   4.642   6.158 -0.0943 -0.0451 -0.3338
  856MOL0     C12865   1.966   4.521   6.179 -0.2630 -0.4340  0.8112
  856MOL0     C12866   2.020   4.407   6.238  0.2718 -0.2735  0.6458
  856MOL0     C12867   2.156   4.415   6.294  1.5125  0.3419  0.0752
  856MOL0     O12868   2.190   4.308   6.373  0.1087  0.0899  0.5237
  856MOL0     C12869   2.329   4.301   6.414 -0.0964  0.8639 -0.4022
  856MOL0     C12870   2.360   4.174   6.506 -0.2211  0.1871  0.2771
  856MOL0     C12871   2.318   4.197   6.646 -0.5013 -0.2107 -1.0583
  856MOL0     C12872   2.399   4.310   6.725 -0.2184 -0.6849 -1.1893
  856MOL0     C12873   2.357   4.309   6.875  0.2184 -0.2766  0.2973
  856MOL0     C12874   2.391   4.181   6.960 -0.3575  0.5196 -0.2055
  856MOL0     C12875   2.534   4.126   6.922  0.1655  0.2004 -0.7758
  856MOL0     C12876   2.643   4.207   6.985 -0.1926  0.0580  0.6336
  856MOL0     N12877   2.773   4.149   6.945 -0.0558 -0.7808 -0.2339
  856MOL0     C12878   2.839   4.052   7.007 -0.0364  0.5532 -0.4689
  856MOL0     C12879   2.956   4.057   6.946  0.1436 -0.0674  0.1015
  856MOL0     C12880   3.085   3.992   6.979  0.0279  0.7479 -1.3613
  856MOL0     C12881   3.094   3.941   7.127  0.0464 -0.4160  0.4191
  856MOL0     C12882   3.053   3.792   7.130 -0.4979  0.2071  0.2400
  856MOL0     C12883   3.046   3.742   7.276  0.8661 -0.5635 -0.0486
  856MOL0     O12884   2.954   3.824   7.337  0.2467  0.4800 -0.5411
  856MOL0     C12885   2.819   3.773   7.351  0.4133 -0.5290  0.5524
  856MOL0     C12886   2.781   3.636   7.344  0.2930 -0.1827 -0.3866
  856MOL0     C12887   2.652   3.588   7.377  0.3092 -0.2753 -0.5381
  856MOL0     C12888   2.546   3.674   7.410  0.0385  0.9878  0.3484
  856MOL0     C12889   2.403   3.635   7.431 -0.9883 -0.1464  0.1167
  856MOL0     O12890   2.322   3.738   7.450  0.0907  0.0790 -1.0904
  856MOL0     C12891   2.185   3.713   7.465 -0.6722 -0.8179 -0.0007
  856MOL0     C12892   2.106   3.820   7.426 -0.6921  0.3601 -0.3255
  856MOL0     C12893   1.960   3.811   7.433 -0.5785  0.2995  0.7410
  856MOL0     C12894   1.898   3.690   7.476 -0.0771  0.2612 -0.2235
  856MOL0     O12895   1.755   3.691   7.482 -0.0956  0.8853 -0.6762
  856MOL0     C12896   1.691   3.649   7.365 -0.0105  0.6598 -0.5581
  856MOL0     C12897   1.540   3.647   7.401  0.3254  0.3085  0.0581
  856MOL0     C12898   1.440   3.658   7.268 -0.9783  0.1020  0.6401
  856MOL0     C12899   1.471   3.795   7.182 -0.2340  0.4520  0.3660
  856MOL0     C12900   1.378   3.783   7.059  0.0802 -0.2625  0.8052
  856MOL0     C12901   1.239   3.827   7.094  0.7461  0.4762 -0.0180
  856MOL0     C12902   1.157   3.860   6.969  1.0807  1.0082  0.6945
  856MOL0     C12903   1.013   3.800   6.987 -0.9800 -0.5349 -0.3839
  856MOL0    Cl12904   0.910   3.904   7.096 -0.4098  0.1627 -0.0932
  856MOL0     C12905   1.978   3.587   7.523 -0.2987  0.5706 -0.5563
  856MOL0     C12906   2.115   3.598   7.512 -0.5243 -0.0901  0.8243
  856MOL0     O12907   2.378   3.514   7.429 -0.7812 -0.3864 -0.5837
  856MOL0     C12908   2.578   3.812   7.389  0.4456  0.8371 -0.2961
  856MOL0     C12909   2.705   3.857   7.358  0.7581  0.5778 -0.1665
  856MOL0     N12910   2.960   4.150   6.843 -0.2503 -0.6988 -0.9980
  856MOL0     N12911   2.844   4.204   6.839  0.4906 -0.2931 -0.0816
  856MOL0     C12912   2.235   4.526   6.260  0.6965  0.3474 -0.1570
  856MOL0     C12913   2.182   4.638   6.189 -0.6019 -0.1893  0.6604
  856MOL0     C12914   1.910   4.981   6.075 -0.7706 -0.5222 -0.5172
  856MOL0     C12915   1.919   5.115   6.125  0.4520  0.4138 -0.4441
  856MOL0     C12916   1.810   5.199   6.105  0.0814 -0.6463 -0.4405
  856MOL0     C12917   1.714   5.178   6.017  0.2909 -1.0877 -0.4099
  856MOL0     O12918   1.617   5.275   5.987  0.0327 -0.4878 -0.6617
  856MOL0     C12919   1.556   5.338   6.100  0.0225 -1.0808 -0.6961
  856MOL0     C12920   1.437   5.427   6.075 -0.2341 -0.9843 -0.3675
  856MOL0     C12921   1.380   5.433   5.929 -0.0004 -0.0879 -0.1824
  856MOL0     C12922   1.269   5.527   5.892 -0.4032 -0.8698  0.1686
  856MOL0     C12923   1.166   5.550   5.989  0.7551  0.6760  0.1475
  856MOL0     C12924   1.101   5.553   6.087  0.6655 -0.5829 -0.9692
  856MOL0     C12925   1.700   5.047   5.965 -0.9513  0.1302  0.1329
  856MOL0     C12926   1.793   4.955   6.005  0.4371  0.5023  0.0179
  856MOL0     H12927   1.861   4.499   6.159  0.8527 -4.1734 -2.1680
  856MOL0     H12928   1.949   4.326   6.256 -1.1548  1.0966  1.4645
  856MOL0     H12929   2.354   4.392   6.468  0.0999 -1.1664  3.2620
  856MOL0     H12930   2.383   4.282   6.321 -1.5399  1.8750 -1.5019
  856MOL0     H12931   2.470   4.171   6.502 -0.2528 -0.6727 -2.9768
  856MOL0     H12932   2.321   4.086   6.454  2.5233  1.2400 -4.1199
  856MOL0     H12933   2.333   4.105   6.703  1.1036 -0.4527 -1.8029
  856MOL0     H12934   2.215   4.232   6.649  0.4901  3.0316  0.6270
  856MOL0     H12935   2.506   4.297   6.706  0.4989  2.6255 -0.1735
  856MOL0     H12936   2.376   4.408   6.680  2.5607 -0.7117 -2.9424
  856MOL0     H12937   2.250   4.327   6.892 -0.3220 -2.3726 -0.4932
  856MOL0     H12938   2.416   4.387   6.922  1.4660  1.1273 -3.2920
  856MOL0     H12939   2.323   4.103   6.925  0.8116 -0.6813  0.0717
  856MOL0     H12940   2.392   4.197   7.069  0.0171  2.1043 -0.4298
  856MOL0     H12941   2.535   4.019   6.945  0.4900  0.2574 -0.5164
  856MOL0     H12942   2.555   4.131   6.815  0.5800  2.0743 -0.6475
  856MOL0     H12943   2.655   4.229   7.092  1.4311 -0.3032  0.5558
  856MOL0     H12944   2.634   4.301   6.929  1.8218 -0.1657 -0.1338
  856MOL0     H12945   2.813   3.987   7.090  1.4700 -1.0787 -1.2204
  856MOL0     H12946   3.165   4.057   6.941  0.3426  0.9175 -0.4378
  856MOL0     H12947   3.086   3.903   6.914 -0.3734  0.6146 -1.1842
  856MOL0     H12948   3.016   3.997   7.179 -3.2488 -1.6614 -2.7403
  856MOL0     H12949   3.194   3.969   7.162  0.1263  1.3160 -1.0292
  856MOL0     H12950   2.952   3.776   7.089 -0.8200  2.5432 -0.0280
  856MOL0     H12951   3.128   3.731   7.079  0.2156  2.6890 -1.8890
  856MOL0     H12952   3.148   3.755   7.314  1.0672 -3.6711  0.7792
  856MOL0     H12953   3.037   3.633   7.270  1.5056 -0.9157  3.4144
  856MOL0     H12954   2.866   3.568   7.336  2.5346  2.4024 -0.3144
  856MOL0     H12955   2.646   3.481   7.397 -0.0737  0.3082  3.1813
  856MOL0     H12956   2.146   3.916   7.396  0.7915 -0.0866  0.1509
  856MOL0     H12957   1.897   3.897   7.413 -1.2900 -0.0359  1.5183
  856MOL0     H12958   1.709   3.548   7.327 -0.4503  1.0010 -1.7248
  856MOL0     H12959   1.731   3.714   7.287  3.9579 -1.3399 -0.4294
  856MOL0     H12960   1.515   3.736   7.458  1.6620  2.1037 -1.9867
  856MOL0     H12961   1.518   3.554   7.454  2.6513  1.3748  3.1813
  856MOL0     H12962   1.337   3.663   7.305 -1.5795  1.3075 -1.0608
  856MOL0     H12963   1.447   3.568   7.207 -0.0413 -0.4792  1.5699
  856MOL0     H12964   1.458   3.881   7.248  0.7139  1.2766 -0.4877
  856MOL0     H12965   1.575   3.794   7.149 -0.4530  0.6836 -0.3699
  856MOL0     H12966   1.364   3.679   7.027  0.1312  0.2720 -1.0595
  856MOL0     H12967   1.416   3.847   6.979 -3.6041  1.4601  0.2312
  856MOL0     H12968   1.245   3.911   7.164  1.6164 -1.5618  2.5068
  856MOL0     H12969   1.193   3.743   7.148 -1.4534  0.1402 -2.2301
  856MOL0     H12970   1.138   3.965   6.947 -1.2738  0.3829 -0.6340
  856MOL0     H12971   1.203   3.806   6.886  2.1664  1.4771  0.9870
  856MOL0     H12972   1.020   3.703   7.036 -0.2993  1.5101  4.0486
  856MOL0     H12973   0.951   3.789   6.898 -2.0204 -3.0519  0.5694
  856MOL0     H12974   1.922   3.502   7.561 -1.1216  1.4296  0.2068
  856MOL0     H12975   2.177   3.515   7.546  1.1333 -0.7530 -3.2081
  856MOL0     H12976   2.500   3.885   7.410 -2.6101 -2.3939  0.4874
  856MOL0     H12977   2.730   3.962   7.367  0.6608  0.6381 -0.5499
  856MOL0     H12978   2.337   4.533   6.295  0.5648  5.8683  0.0604
  856MOL0     H12979   2.247   4.724   6.180  2.8668 -2.5256  1.5182
  856MOL0     H12980   2.006   5.151   6.179  0.3056 -1.0602  0.8061
  856MOL0     H12981   1.828   5.288   6.165  3.7119 -0.7067 -1.1897
  856MOL0     H12982   1.630   5.403   6.148 -2.3168 -0.4357  2.3100
  856MOL0     H12983   1.530   5.265   6.176  0.9686 -0.0081  0.7109
  856MOL0     H12984   1.359   5.393   6.144  0.1710  2.8668  2.2847
  856MOL0     H12985   1.468   5.529   6.100 -1.0540 -0.7525 -0.2698
  856MOL0     H12986   1.332   5.339   5.899 -2.8645  1.4113 -0.6434
  856MOL0     H12987   1.464   5.446   5.860 -0.3773 -1.0190 -0.8455
  856MOL0     H12988   1.313   5.626   5.874 -0.2166 -0.3692  2.9508
  856MOL0     H12989   1.221   5.495   5.799 -1.1978  1.2986 -0.2408
  856MOL0     H12990   1.042   5.556   6.177 -1.0745 -0.2314 -2.0556
  856MOL0     H12991   1.624   5.021   5.892 -0.7893  0.1014 -0.0255
  856MOL0     H12992   1.774   4.851   5.978 -2.2347  0.5696  1.3513
  857MOL0     O12993   5.158   0.889   1.088  0.2126  0.4138  0.3282
  857MOL0     C12994   5.157   0.771   1.119  0.0551 -0.6322  0.1032
  857MOL0     O12995   5.243   0.713   1.208 -0.4560 -0.5302  0.3059
  857MOL0     C12996   5.328   0.793   1.282 -0.9080 -0.2344 -0.5444
  857MOL0     C12997   5.381   0.926   1.264  0.6397  0.1263  0.3975
  857MOL0     C12998   5.492   0.964   1.343  0.8061  1.0956 -0.5878
  857MOL0     C12999   5.548   0.898   1.443 -0.2606  0.6001  0.7882
  857MOL0     O13000   5.654   0.959   1.499 -0.1596  0.0802  0.7820
  857MOL0     C13001   5.683   0.955   1.641 -0.2829  0.0811  0.2598
  857MOL0     C13002   5.839   0.989   1.660 -0.2336 -0.3964 -0.7275
  857MOL0     C13003   5.895   1.024   1.800  1.2116 -0.2274  0.9097
  857MOL0     C13004   6.050   1.037   1.793  0.0912 -0.1276  0.8287
  857MOL0     C13005   6.098   1.094   1.922 -0.4204  0.7725 -0.3377
  857MOL0     C13006   6.240   1.129   1.953  0.4623 -0.2823  0.5204
  857MOL0     C13007   6.268   1.171   2.103 -0.0023 -0.0746 -0.0197
  857MOL0     C13008   6.209   1.307   2.133  0.4581 -0.4942  1.0179
  857MOL0     N13009   6.151   1.313   2.268  0.1349  0.0621 -0.2752
  857MOL0     C13010   6.200   1.367   2.383  0.0185 -0.4411 -0.0717
  857MOL0     C13011   6.106   1.351   2.480  0.2424 -1.1190 -0.0888
  857MOL0     C13012   6.121   1.382   2.633 -0.1504 -0.2205 -0.8271
  857MOL0     C13013   6.175   1.250   2.711 -0.0337 -0.4234 -0.0419
  857MOL0     C13014   6.321   1.197   2.681 -0.5544 -0.6380  0.3600
  857MOL0     C13015   6.342   1.054   2.717 -1.7807  0.0966 -0.7867
  857MOL0     O13016   6.481   1.028   2.714  0.3867  0.7352  0.3876
  857MOL0     C13017   6.540   0.961   2.817  0.5142  0.1661  0.7849
  857MOL0     C13018   6.658   1.009   2.859  0.2124 -0.9050  0.2633
  857MOL0     C13019   6.741   0.957   2.953 -0.5169 -0.2705 -0.4591
  857MOL0     C13020   6.700   0.838   3.005  0.4171  0.3871 -0.6514
  857MOL0     C13021   6.781   0.766   3.115  0.5847 -0.2015  0.3544
  857MOL0     O13022   6.741   0.653   3.175  0.1548 -1.0121  0.1997
  857MOL0     C13023   6.790   0.592   3.285  0.0888  0.1456  0.6468
  857MOL0     C13024   6.759   0.459   3.304  0.1847 -0.2083  0.5919
  857MOL0     C13025   6.815   0.381   3.413 -0.5449  0.4132 -0.4478
  857MOL0     C13026   6.877   0.441   3.519  0.2840  0.6270  0.5235
  857MOL0     O13027   6.917   0.361   3.618  0.0352  1.0582  0.3899
  857MOL0     C13028   6.928   0.422   3.748 -0.0397  0.4072 -0.4750
  857MOL0     C13029   6.793   0.461   3.809 -0.5037  0.7046  0.5407
  857MOL0     C13030   6.798   0.457   3.966  0.1824  0.2401 -0.1822
  857MOL0     C13031   6.669   0.510   4.034 -0.2436 -0.2794 -0.5255
  857MOL0     C13032   6.660   0.457   4.177 -0.5610 -0.4179 -0.9736
  857MOL0     C13033   6.553   0.523   4.262 -0.2293  0.0465  0.6841
  857MOL0     C13034   6.553   0.487   4.408 -0.0624  0.5476  0.0173
  857MOL0     C13035   6.436   0.562   4.467 -0.7685 -0.7092  0.0265
  857MOL0    Cl13036   6.473   0.605   4.637 -0.5393 -0.0398  0.1521
  857MOL0     C13037   6.900   0.580   3.499  0.3283  0.4959  0.6892
  857MOL0     C13038   6.856   0.658   3.390  0.1790  0.0236 -0.1917
  857MOL0     O13039   6.886   0.826   3.155 -0.1634 -0.0823  0.0817
  857MOL0     C13040   6.575   0.776   2.972 -0.2947 -0.1341 -0.0900
  857MOL0     C13041   6.497   0.848   2.877 -1.1356  0.3119  0.1510
  857MOL0     N13042   5.994   1.300   2.418 -0.2625 -0.6185 -0.0795
  857MOL0     N13043   6.021   1.286   2.286  0.2771 -0.0168  0.2280
  857MOL0     C13044   5.498   0.774   1.467 -0.6407  0.1180 -0.0547
  857MOL0     C13045   5.395   0.720   1.386 -0.6016 -0.5249  0.4138
  857MOL0     C13046   5.049   0.682   1.052  0.1557 -0.9812 -0.5320
  857MOL0     C13047   5.060   0.541   1.048  0.0279  1.0673  0.8470
  857MOL0     C13048   4.951   0.464   0.992 -0.0859 -0.2427 -1.0748
  857MOL0     C13049   4.836   0.534   0.952  1.0484 -0.2701 -0.1648
  857MOL0     O13050   4.723   0.475   0.892  0.1949  0.2274 -0.0024
  857MOL0     C13051   4.734   0.338   0.853 -1.5131 -0.4837 -0.3834
  857MOL0     C13052   4.612   0.298   0.774 -0.0226  0.2366 -0.3990
  857MOL0     C13053   4.610   0.376   0.634  0.2582  0.4827  1.0958
  857MOL0     C13054   4.476   0.363   0.556  0.3817 -0.6424  0.3558
  857MOL0     C13055   4.449   0.237   0.492 -0.3776  0.9167  0.2368
  857MOL0     C13056   4.445   0.118   0.459  0.6875  1.1548  0.4490
  857MOL0     C13057   4.838   0.671   0.927  0.2379  0.1028  0.0187
  857MOL0     C13058   4.937   0.745   0.983 -1.7754  0.3494 -0.5319
  857MOL0     H13059   5.333   0.990   1.190 -2.2661 -1.7218  0.4908
  857MOL0     H13060   5.540   1.058   1.317  3.1791 -0.4218 -2.0618
  857MOL0     H13061   5.662   0.853   1.676  0.5104  0.2154  1.1795
  857MOL0     H13062   5.625   1.023   1.704 -0.9054 -1.4186  1.3721
  857MOL0     H13063   5.866   1.073   1.594 -0.7116  0.1035 -0.2981
  857MOL0     H13064   5.893   0.899   1.628  1.4830  0.1732  0.4377
  857MOL0     H13065   5.871   0.942   1.868 -0.0484  1.0424  2.0584
  857MOL0     H13066   5.853   1.119   1.833  1.2082 -0.0982  0.5386
  857MOL0     H13067   6.087   0.938   1.764  3.3348  1.1454  0.2303
  857MOL0     H13068   6.080   1.102   1.711  1.3435  2.0876  2.9140
  857MOL0     H13069   6.060   1.032   2.004 -1.7689 -0.1732 -1.6142
  857MOL0     H13070   6.051   1.191   1.941 -0.1680  0.9720 -0.7133
  857MOL0     H13071   6.255   1.221   1.897 -0.9745  0.3237  1.0867
  857MOL0     H13072   6.309   1.047   1.929 -1.2083 -1.5193 -0.3146
  857MOL0     H13073   6.231   1.091   2.167 -0.7809  0.7949  0.6574
  857MOL0     H13074   6.376   1.188   2.108  0.1311 -0.6085 -0.9277
  857MOL0     H13075   6.120   1.322   2.072 -1.2224  1.4142  3.7126
  857MOL0     H13076   6.281   1.387   2.111 -0.1087 -0.5122 -1.0445
  857MOL0     H13077   6.302   1.403   2.386  1.4442 -4.1313 -0.3118
  857MOL0     H13078   6.026   1.424   2.669  0.5757  0.6300  0.1844
  857MOL0     H13079   6.190   1.466   2.653  0.3560 -1.3840  3.2566
  857MOL0     H13080   6.108   1.166   2.691 -3.6479  2.1764  0.0564
  857MOL0     H13081   6.155   1.274   2.816 -3.4074 -1.8208 -0.2211
  857MOL0     H13082   6.351   1.225   2.579  2.4417 -0.7261  1.1029
  857MOL0     H13083   6.382   1.256   2.751  2.3899 -0.6957 -1.9286
  857MOL0     H13084   6.286   0.990   2.648 -0.7064 -2.1445  0.3167
  857MOL0     H13085   6.303   1.024   2.814 -2.0500  1.5122 -0.4356
  857MOL0     H13086   6.693   1.098   2.807  2.2975 -1.9512 -0.2422
  857MOL0     H13087   6.831   1.013   2.976 -0.0631 -0.0565 -2.6116
  857MOL0     H13088   6.695   0.412   3.230  0.3172  0.8619 -0.2290
  857MOL0     H13089   6.800   0.273   3.410  2.0113 -0.0512  0.9589
  857MOL0     H13090   6.993   0.510   3.753 -0.6153  0.8304 -0.1944
  857MOL0     H13091   6.967   0.342   3.811  1.1637 -0.0135 -1.7201
  857MOL0     H13092   6.713   0.392   3.784 -0.9591  0.0085  3.5092
  857MOL0     H13093   6.774   0.567   3.785 -2.9345  0.5383  1.4796
  857MOL0     H13094   6.886   0.509   4.004 -0.0848 -0.8246  2.0174
  857MOL0     H13095   6.810   0.352   3.992 -0.1320 -0.1791 -1.6296
  857MOL0     H13096   6.665   0.619   4.038  2.3403 -0.1571  0.8060
  857MOL0     H13097   6.583   0.466   3.983 -0.1836 -0.6104 -0.3440
  857MOL0     H13098   6.759   0.473   4.221  0.4804 -2.0406 -2.5916
  857MOL0     H13099   6.663   0.348   4.188  2.0887 -0.2536  1.0008
  857MOL0     H13100   6.456   0.486   4.227  1.4822 -5.5434  0.9379
  857MOL0     H13101   6.558   0.632   4.256 -1.1876  0.1837  1.9912
  857MOL0     H13102   6.550   0.379   4.425 -0.6707  0.8374  2.0123
  857MOL0     H13103   6.640   0.533   4.455 -1.7713  1.8386  2.1335
  857MOL0     H13104   6.344   0.502   4.463 -0.8155 -0.5833 -1.2044
  857MOL0     H13105   6.416   0.652   4.409 -1.5237 -1.1973 -0.4869
  857MOL0     H13106   6.946   0.640   3.577 -0.2611 -0.9750  2.2362
  857MOL0     H13107   6.870   0.766   3.394  1.7092 -0.1852  2.0860
  857MOL0     H13108   6.551   0.677   3.008 -0.5758  0.0571  0.2507
  857MOL0     H13109   6.405   0.798   2.849 -2.5030  3.0845 -0.6536
  857MOL0     H13110   5.541   0.706   1.539  2.1028  0.7559 -0.9682
  857MOL0     H13111   5.378   0.613   1.396 -1.9077 -0.1944  2.1832
  857MOL0     H13112   5.142   0.486   1.092  0.4880  1.6559  0.7354
  857MOL0     H13113   4.939   0.356   0.998  1.2300 -0.3226  0.7575
  857MOL0     H13114   4.763   0.266   0.929  4.1569  0.4119 -1.2477
  857MOL0     H13115   4.826   0.336   0.793  1.3563  2.0936  3.4324
  857MOL0     H13116   4.622   0.191   0.755 -1.8089 -0.0733  0.2059
  857MOL0     H13117   4.514   0.315   0.820  0.1593 -0.5079  0.2757
  857MOL0     H13118   4.684   0.338   0.564 -0.2118  1.8325 -0.1991
  857MOL0     H13119   4.647   0.477   0.653  3.5827 -0.3850 -0.1387
  857MOL0     H13120   4.387   0.374   0.618  0.9554  0.0128  1.0677
  857MOL0     H13121   4.489   0.441   0.481  0.3448 -0.6175  0.3756
  857MOL0     H13122   4.457   0.019   0.419  1.2508  1.3756  0.0524
  857MOL0     H13123   4.761   0.725   0.871 -1.0798  0.0351  1.6717
  857MOL0     H13124   4.934   0.853   0.972  0.1343  0.6339  1.1848
  858MOL0     O13125   9.960   3.477   5.163  0.1422  0.6806  0.1056
  858MOL0     C13126   9.881   3.564   5.146  0.9951  0.0158  0.2174
  858MOL0     O13127   9.802   3.584   5.034  0.5985  0.2265  0.4245
  858MOL0     C13128   9.837   3.534   4.914  0.3716 -0.3732  0.1294
  858MOL0     C13129   9.783   3.621   4.813 -0.5131  0.3417  0.0271
  858MOL0     C13130   9.809   3.590   4.678 -1.1151  0.5004 -0.1770
  858MOL0     C13131   9.874   3.464   4.644 -0.7693 -0.2447 -0.0983
  858MOL0     O13132   9.891   3.423   4.510 -0.0730 -0.1985  0.5337
  858MOL0     C13133   9.976   3.514   4.425 -0.4738  0.1851 -0.0192
  858MOL0     C13134   9.912   3.525   4.285 -0.2096 -0.2794 -0.6951
  858MOL0     C13135   9.942   3.391   4.213  0.0533 -0.5412 -0.2854
  858MOL0     C13136   9.865   3.403   4.081 -1.2712  0.5912 -0.3613
  858MOL0     C13137   9.895   3.293   3.973 -0.4094 -0.2349 -0.9098
  858MOL0     C13138  10.036   3.296   3.924 -0.4188 -0.8076  0.3857
  858MOL0     C13139  10.081   3.215   3.800  0.1270 -0.0686  0.7513
  858MOL0     C13140  10.132   3.081   3.848  0.1575  1.0257 -0.5463
  858MOL0     N13141  10.024   2.980   3.866  0.3941 -0.2370  0.5448
  858MOL0     C13142   9.898   2.987   3.813  0.1729  0.6034  0.1915
  858MOL0     C13143   9.834   2.872   3.860  0.1791 -1.0186 -0.6708
  858MOL0     C13144   9.691   2.844   3.846 -0.3883  0.6752 -0.3966
  858MOL0     C13145   9.671   2.720   3.761  0.7632  0.5579 -0.7056
  858MOL0     C13146   9.530   2.675   3.745 -0.2489  0.3605  0.3233
  858MOL0     C13147   9.469   2.612   3.871  0.3809  0.3185 -0.5774
  858MOL0     O13148   9.346   2.672   3.916 -0.9003  0.2339  0.1768
  858MOL0     C13149   9.324   2.638   4.041  0.8372  0.0259 -0.8845
  858MOL0     C13150   9.207   2.556   4.057  0.5623 -0.3694  0.0831
  858MOL0     C13151   9.167   2.544   4.188  0.5766 -0.8570 -0.7272
  858MOL0     C13152   9.240   2.582   4.302 -0.2578  0.2575  0.6984
  858MOL0     C13153   9.198   2.574   4.445  0.8769  0.2692 -0.0859
  858MOL0     O13154   9.278   2.615   4.542  0.6610 -0.1631 -0.0298
  858MOL0     C13155   9.243   2.577   4.666 -0.8145  0.3885 -0.6065
  858MOL0     C13156   9.205   2.676   4.754  0.0101  0.2947 -1.1777
  858MOL0     C13157   9.162   2.649   4.882 -0.6426  0.7986 -0.0829
  858MOL0     C13158   9.162   2.509   4.922 -0.4072 -0.3155  0.5528
  858MOL0     O13159   9.111   2.481   5.049 -0.8910 -0.6840  1.0119
  858MOL0     C13160   9.038   2.358   5.079  0.6297  0.6063  0.0794
  858MOL0     C13161   8.961   2.384   5.207  1.0597  0.6927  0.3458
  858MOL0     C13162   8.841   2.284   5.223 -0.6465  0.4935  0.0832
  858MOL0     C13163   8.769   2.321   5.364 -1.2129 -1.3079  0.4762
  858MOL0     C13164   8.664   2.227   5.414  0.6151  0.9755  0.0207
  858MOL0     C13165   8.532   2.212   5.341  0.3575 -1.1102 -0.1024
  858MOL0     C13166   8.413   2.159   5.425  0.0785  0.1706  0.5105
  858MOL0     C13167   8.278   2.151   5.350 -0.0026 -0.2538 -0.2505
  858MOL0    Cl13168   8.231   2.318   5.300  0.2289  0.4595 -0.0767
  858MOL0     C13169   9.207   2.410   4.825 -0.0316 -0.2880 -0.5041
  858MOL0     C13170   9.257   2.450   4.703  0.5080  0.0480 -0.1732
  858MOL0     O13171   9.090   2.519   4.460 -0.6779 -1.1252 -0.7017
  858MOL0     C13172   9.355   2.657   4.277 -0.1115  0.6637 -0.2753
  858MOL0     C13173   9.389   2.691   4.144  0.0994 -0.3786  0.2451
  858MOL0     N13174   9.926   2.809   3.944 -0.3076  0.6612  0.0075
  858MOL0     N13175  10.036   2.870   3.940 -0.4206  0.9163 -0.0559
  858MOL0     C13176   9.924   3.377   4.746  0.1426 -0.6099 -1.3139
  858MOL0     C13177   9.904   3.414   4.883  0.5239 -0.6055  0.5530
  858MOL0     C13178   9.875   3.657   5.262  0.9898 -0.0161 -0.7729
  858MOL0     C13179   9.957   3.630   5.377  0.9907  0.0438  0.0093
  858MOL0     C13180   9.955   3.722   5.492 -0.2473 -0.1312  0.1415
  858MOL0     C13181   9.860   3.827   5.490  1.0279 -0.7425 -0.1547
  858MOL0     O13182   9.837   3.901   5.603 -0.4032 -0.5139 -0.8092
  858MOL0     C13183   9.950   3.962   5.665  0.3038 -0.0088  0.4360
  858MOL0     C13184   9.888   4.078   5.746 -0.7371  0.0606 -0.6767
  858MOL0     C13185   9.999   4.158   5.830  0.2390 -0.1346  0.6825
  858MOL0     C13186   9.968   4.169   5.978  0.2719  0.1580  0.2449
  858MOL0     C13187   9.841   4.237   5.994  0.4361  0.4558  0.6264
  858MOL0     C13188   9.749   4.306   5.986  1.8110  0.3947  0.3524
  858MOL0     C13189   9.776   3.848   5.382  0.2660  0.0829 -0.9462
  858MOL0     C13190   9.794   3.764   5.263 -0.5009  0.3524  0.4750
  858MOL0     H13191   9.740   3.713   4.852  0.0203 -0.9269  4.0751
  858MOL0     H13192   9.760   3.657   4.609 -0.5707  0.1287 -0.9397
  858MOL0     H13193  10.072   3.462   4.427  0.2746  1.4795 -0.7368
  858MOL0     H13194   9.979   3.614   4.471  1.6485  0.5445 -0.8444
  858MOL0     H13195   9.963   3.609   4.237  1.2551  0.3038  1.7325
  858MOL0     H13196   9.806   3.552   4.287 -0.9458 -2.4205  4.2060
  858MOL0     H13197   9.916   3.307   4.278 -1.1281 -0.4973 -0.6744
  858MOL0     H13198  10.048   3.385   4.188 -0.1293 -0.6965 -1.0413
  858MOL0     H13199   9.758   3.394   4.102 -1.2027  1.9703  0.7241
  858MOL0     H13200   9.901   3.495   4.034  4.3039  0.4641  2.8377
  858MOL0     H13201   9.817   3.294   3.897 -0.4702 -1.5494 -0.8999
  858MOL0     H13202   9.882   3.198   4.028 -2.2851  0.4464 -0.0964
  858MOL0     H13203  10.103   3.279   4.008  0.9529 -1.6556 -0.8253
  858MOL0     H13204  10.045   3.402   3.898  1.4567 -0.8988  0.5435
  858MOL0     H13205  10.001   3.198   3.727 -2.1870  0.3489  3.0564
  858MOL0     H13206  10.158   3.268   3.743 -3.2452  1.0546 -3.2624
  858MOL0     H13207  10.187   3.096   3.942  1.0475  3.1604 -1.3587
  858MOL0     H13208  10.213   3.043   3.786 -1.7720 -1.5224 -1.6781
  858MOL0     H13209   9.860   3.065   3.748  3.8231  0.4796 -2.3849
  858MOL0     H13210   9.644   2.927   3.793 -0.3900 -0.2336 -1.8900
  858MOL0     H13211   9.639   2.830   3.941 -2.6719 -3.7127 -1.9764
  858MOL0     H13212   9.730   2.638   3.803  0.7494  1.0507  0.3046
  858MOL0     H13213   9.713   2.729   3.660  2.1996  0.3505 -0.1404
  858MOL0     H13214   9.482   2.772   3.724  0.7561  0.3664 -2.3253
  858MOL0     H13215   9.506   2.609   3.662 -2.7091  1.3927  0.1233
  858MOL0     H13216   9.544   2.637   3.947 -0.2285  1.6954 -0.3938
  858MOL0     H13217   9.457   2.505   3.849  0.2725  0.4582 -1.2192
  858MOL0     H13218   9.155   2.499   3.981 -2.8785  1.6798  0.6995
  858MOL0     H13219   9.082   2.480   4.206  0.9803 -0.4580  3.7333
  858MOL0     H13220   9.191   2.775   4.712 -1.2941  1.5470  1.9095
  858MOL0     H13221   9.119   2.726   4.945 -0.7522  0.2107  0.5823
  858MOL0     H13222   9.107   2.273   5.083 -1.6266 -1.3368  0.4483
  858MOL0     H13223   8.970   2.342   4.994 -1.2074  2.3589  1.1429
  858MOL0     H13224   8.919   2.485   5.204 -2.2785 -0.5794 -1.8196
  858MOL0     H13225   9.026   2.376   5.295  0.4342  0.6974  0.8138
  858MOL0     H13226   8.895   2.189   5.229  0.2387  1.0786  2.9532
  858MOL0     H13227   8.778   2.296   5.135 -0.5352 -0.1450 -0.0854
  858MOL0     H13228   8.852   2.334   5.434 -1.9172 -1.0691  1.2861
  858MOL0     H13229   8.717   2.417   5.354  2.7125  0.9125 -0.4959
  858MOL0     H13230   8.643   2.241   5.520  2.0252  1.5344  0.2519
  858MOL0     H13231   8.705   2.125   5.415 -0.1721  0.6510 -0.1785
  858MOL0     H13232   8.550   2.142   5.259  0.1954 -5.2611  3.1042
  858MOL0     H13233   8.507   2.311   5.302  2.0353 -0.4776  0.3530
  858MOL0     H13234   8.434   2.054   5.448 -4.1172 -0.8901  0.2755
  858MOL0     H13235   8.408   2.213   5.520 -0.4023 -0.4289  0.8342
  858MOL0     H13236   8.196   2.107   5.408 -0.7074  1.5827  0.2349
  858MOL0     H13237   8.283   2.096   5.256 -0.0912 -2.5484  1.0319
  858MOL0     H13238   9.194   2.308   4.859  3.0924 -0.1710  1.5257
  858MOL0     H13239   9.295   2.375   4.635  0.5326 -0.7779  0.7144
  858MOL0     H13240   9.412   2.692   4.362  2.4272 -1.3644 -1.0339
  858MOL0     H13241   9.481   2.746   4.127  1.1534 -2.6903 -2.0635
  858MOL0     H13242   9.974   3.284   4.723  1.8795  0.1558 -0.7391
  858MOL0     H13243   9.944   3.344   4.956 -0.2869  0.2905  1.8958
  858MOL0     H13244  10.025   3.545   5.378  1.5700  0.5008  0.5438
  858MOL0     H13245  10.014   3.685   5.575 -1.2384 -2.8828 -0.2771
  858MOL0     H13246  10.017   3.995   5.585  3.0710 -1.7072  1.9111
  858MOL0     H13247   9.991   3.885   5.730 -0.6513 -0.8742  0.0357
  858MOL0     H13248   9.844   4.153   5.679 -0.0286  1.9511  0.8886
  858MOL0     H13249   9.820   4.031   5.816  1.0590 -0.4445  0.8073
  858MOL0     H13250  10.015   4.249   5.772 -3.2351  0.9128  1.1054
  858MOL0     H13251  10.092   4.102   5.819  1.3360  1.6944  0.3154
  858MOL0     H13252   9.952   4.071   6.024 -0.8439  0.5875  0.8118
  858MOL0     H13253  10.047   4.218   6.034 -0.6822  3.4702 -1.0641
  858MOL0     H13254   9.657   4.360   5.981  2.0171  0.9562  2.0326
  858MOL0     H13255   9.723   3.942   5.380 -2.4494 -1.2620  1.1829
  858MOL0     H13256   9.731   3.775   5.175  2.6516 -0.5986 -2.0641
  859MOL0     O13257   6.687  10.074   3.987  0.5616 -0.3756 -0.1025
  859MOL0     C13258   6.760  10.089   4.086 -0.6295 -0.0604 -0.1369
  859MOL0     O13259   6.838   9.989   4.143  0.5962  0.4541 -0.8062
  859MOL0     C13260   6.852   9.858   4.103 -0.2177  0.3937  0.3284
  859MOL0     C13261   6.912   9.764   4.189  1.1715  0.2311  0.6080
  859MOL0     C13262   6.939   9.629   4.155  1.1405  0.5425  0.0071
  859MOL0     C13263   6.916   9.590   4.029  0.3936  1.1854 -0.3108
  859MOL0     O13264   6.954   9.458   4.007  0.3642 -0.1545  0.9703
  859MOL0     C13265   6.840   9.362   4.001  0.2780 -0.4872  0.8405
  859MOL0     C13266   6.897   9.227   4.014 -0.1376  0.3888 -0.3026
  859MOL0     C13267   6.944   9.167   3.882  0.3190 -0.4810 -0.0806
  859MOL0     C13268   6.831   9.159   3.775  0.3553 -0.8837  0.0690
  859MOL0     C13269   6.875   9.080   3.658 -0.4251 -0.1887  0.4161
  859MOL0     C13270   6.925   8.935   3.677 -0.4448  0.3158 -0.0051
  859MOL0     C13271   6.820   8.824   3.685 -0.0678  0.1523 -0.7256
  859MOL0     C13272   6.714   8.855   3.784  0.5179  0.1563 -0.4390
  859MOL0     N13273   6.617   8.738   3.816  0.3306  0.4130  0.6627
  859MOL0     C13274   6.507   8.704   3.738 -0.9106 -0.0197  0.6041
  859MOL0     C13275   6.445   8.616   3.814 -0.1281 -0.3451 -0.7292
  859MOL0     C13276   6.311   8.554   3.789  0.2527 -0.3369  0.2396
  859MOL0     C13277   6.322   8.439   3.693 -0.6481 -0.1499 -0.0076
  859MOL0     C13278   6.399   8.322   3.752  0.8291 -1.0725 -0.3380
  859MOL0     C13279   6.439   8.218   3.656 -0.6157 -0.6335  0.3469
  859MOL0     O13280   6.327   8.128   3.624 -0.4484  0.2306  0.5638
  859MOL0     C13281   6.230   8.153   3.528 -0.4056 -0.8123  0.0423
  859MOL0     C13282   6.122   8.064   3.528  0.2363  0.7981  0.0373
  859MOL0     C13283   6.029   8.070   3.423  0.0965 -0.2186  0.5209
  859MOL0     C13284   6.055   8.155   3.307 -0.7874 -0.3792 -0.3915
  859MOL0     C13285   5.952   8.167   3.201  0.1241  0.1594  0.4969
  859MOL0     O13286   5.947   8.281   3.131 -0.4265 -0.1074  0.7249
  859MOL0     C13287   5.835   8.351   3.090 -0.4240 -0.3317 -0.2873
  859MOL0     C13288   5.862   8.466   3.015 -0.6744 -0.0828 -0.3326
  859MOL0     C13289   5.760   8.552   2.979 -0.2474  0.7659 -0.2275
  859MOL0     C13290   5.626   8.523   3.018  0.9163 -0.3174 -0.3654
  859MOL0     O13291   5.529   8.601   2.951 -0.3927 -0.1661 -0.1457
  859MOL0     C13292   5.392   8.592   2.987  0.4127 -0.0111  0.2044
  859MOL0     C13293   5.297   8.662   2.879 -0.2955  0.0757 -1.0160
  859MOL0     C13294   5.333   8.814   2.874  0.3025  0.0404 -0.3095
  859MOL0     C13295   5.240   8.889   2.775  0.5630  0.6630  0.3395
  859MOL0     C13296   5.274   9.036   2.755  0.7535 -0.6590 -2.1048
  859MOL0     C13297   5.176   9.117   2.665 -0.0155  0.3285 -0.0053
  859MOL0     C13298   5.190   9.267   2.690 -1.5432  1.4181  0.0852
  859MOL0     C13299   5.120   9.343   2.577  0.2469  0.8174 -0.2839
  859MOL0    Cl13300   5.120   9.513   2.629  0.0257 -0.4468  0.0725
  859MOL0     C13301   5.604   8.413   3.097  0.4298 -0.0596 -0.1232
  859MOL0     C13302   5.707   8.330   3.139  0.3655  0.5551 -0.3084
  859MOL0     O13303   5.868   8.075   3.196  0.2682  1.1988  0.4407
  859MOL0     C13304   6.159   8.248   3.317  0.3454  0.2428  0.1331
  859MOL0     C13305   6.250   8.237   3.420  0.1176 -0.4042  0.7695
  859MOL0     N13306   6.518   8.589   3.929  1.1695 -0.6644 -0.0542
  859MOL0     N13307   6.620   8.673   3.931 -0.1575  0.6791  0.2181
  859MOL0     C13308   6.869   9.680   3.932  0.3813 -0.0808 -0.2573
  859MOL0     C13309   6.837   9.810   3.972 -0.2844  0.7474  0.1347
  859MOL0     C13310   6.770  10.214   4.155  0.5611  0.0960  0.4827
  859MOL0     C13311   6.716  10.333   4.095  0.8260 -0.3198  0.2322
  859MOL0     C13312   6.720  10.458   4.167  0.1648  0.4051  0.1590
  859MOL0     C13313   6.791  10.476   4.288 -0.4699 -0.0774 -0.6323
  859MOL0     O13314   6.816  10.595   4.346 -0.2989  0.0760  0.3296
  859MOL0     C13315   6.706  10.694   4.353 -0.2445  0.2888  0.8314
  859MOL0     C13316   6.740  10.783   4.476  0.0702  0.2614  0.4238
  859MOL0     C13317   6.830  10.899   4.436 -0.0008 -0.0134  0.3023
  859MOL0     C13318   6.754  11.004   4.347  0.1734 -0.3085 -0.0151
  859MOL0     C13319   6.831  11.019   4.219  0.0269  0.4412  0.2211
  859MOL0     C13320   6.874  11.015   4.106 -0.6557 -0.1222 -0.3307
  859MOL0     C13321   6.859  10.357   4.336 -0.8374 -1.0142 -0.3841
  859MOL0     C13322   6.843  10.234   4.275  0.3163 -0.2525 -0.5294
  859MOL0     H13323   6.922   9.788   4.295  0.1115  1.6092  0.4261
  859MOL0     H13324   6.982   9.565   4.231  2.7901  1.1485 -0.3619
  859MOL0     H13325   6.799   9.381   3.901  0.0825 -0.6990  0.8823
  859MOL0     H13326   6.767   9.384   4.078 -1.6945  1.4897 -1.4341
  859MOL0     H13327   6.823   9.169   4.070 -0.9810  3.2251  1.7418
  859MOL0     H13328   6.981   9.236   4.083 -1.5308 -0.2628  1.5502
  859MOL0     H13329   6.970   9.064   3.909 -0.3704 -0.8241 -0.7051
  859MOL0     H13330   7.034   9.216   3.842 -1.0767  1.9363 -0.4356
  859MOL0     H13331   6.748   9.107   3.823 -1.4260  2.2824  0.6600
  859MOL0     H13332   6.802   9.257   3.739  2.0817 -0.1266  0.6003
  859MOL0     H13333   6.952   9.137   3.605  0.0696 -1.2374 -0.0043
  859MOL0     H13334   6.795   9.079   3.583  0.6948 -0.6112 -0.8142
  859MOL0     H13335   6.986   8.921   3.766  0.1377 -1.1467 -0.5904
  859MOL0     H13336   6.987   8.915   3.589 -0.5900 -0.8356  0.1306
  859MOL0     H13337   6.767   8.799   3.593  0.1053 -3.8376  0.1021
  859MOL0     H13338   6.873   8.736   3.721 -1.3093 -0.1709  0.3726
  859MOL0     H13339   6.655   8.945   3.764  2.1453  0.6244 -3.9176
  859MOL0     H13340   6.757   8.886   3.879  1.4026  0.6472 -0.9858
  859MOL0     H13341   6.474   8.744   3.643  2.4022  0.3599 -0.4960
  859MOL0     H13342   6.242   8.620   3.735  0.0419  0.7824  1.7998
  859MOL0     H13343   6.267   8.520   3.884  2.9133 -2.2975  0.8893
  859MOL0     H13344   6.374   8.471   3.602 -0.4385  0.7870  0.4281
  859MOL0     H13345   6.221   8.406   3.667 -1.1108  0.4763  0.9505
  859MOL0     H13346   6.489   8.360   3.802 -1.1772 -0.1457  2.7932
  859MOL0     H13347   6.332   8.278   3.825  1.9891 -2.7116 -0.2025
  859MOL0     H13348   6.517   8.160   3.706  2.6533  2.2605 -0.9628
  859MOL0     H13349   6.482   8.268   3.569  0.1944  1.0719  1.6690
  859MOL0     H13350   6.115   7.995   3.612 -2.2899  1.4865  0.4763
  859MOL0     H13351   5.955   7.991   3.414 -0.7792  0.7366 -0.9926
  859MOL0     H13352   5.956   8.497   2.973 -1.2839  3.2017  0.4606
  859MOL0     H13353   5.787   8.646   2.932 -2.1490  0.8922 -1.1420
  859MOL0     H13354   5.362   8.638   3.081  0.9019  2.5878 -0.8336
  859MOL0     H13355   5.359   8.487   2.994  1.3439 -0.6726 -3.2304
  859MOL0     H13356   5.190   8.654   2.902 -0.1995 -0.0074 -0.5856
  859MOL0     H13357   5.301   8.617   2.780 -3.0880  2.3008 -2.2654
  859MOL0     H13358   5.438   8.826   2.844  0.0560  2.0555 -0.5054
  859MOL0     H13359   5.321   8.856   2.974  0.7047  2.8325 -1.3160
  859MOL0     H13360   5.230   8.851   2.673 -0.8105  1.6284  0.1020
  859MOL0     H13361   5.142   8.885   2.822  0.9897  2.2889  1.4736
  859MOL0     H13362   5.376   9.052   2.719  1.9000  2.1141  1.7633
  859MOL0     H13363   5.269   9.092   2.848 -0.0208  0.3279 -2.7249
  859MOL0     H13364   5.068   9.101   2.678  0.1797 -2.0640 -0.8767
  859MOL0     H13365   5.200   9.100   2.560  2.0323  2.1440  0.0959
  859MOL0     H13366   5.149   9.286   2.790  0.3437 -2.4921  1.8214
  859MOL0     H13367   5.296   9.291   2.690 -0.5757 -2.1332 -1.7373
  859MOL0     H13368   5.011   9.336   2.571  0.0935 -0.2860  2.3059
  859MOL0     H13369   5.179   9.330   2.487  2.0110 -0.8540  1.0272
  859MOL0     H13370   5.503   8.382   3.125 -0.5698  1.3035 -2.0098
  859MOL0     H13371   5.691   8.243   3.201  2.1798  0.9768  0.8231
  859MOL0     H13372   6.186   8.311   3.233  0.8962 -2.8496 -2.1760
  859MOL0     H13373   6.342   8.295   3.410 -0.2229  0.1542  0.8259
  859MOL0     H13374   6.859   9.637   3.833  3.2273 -1.4462 -0.0348
  859MOL0     H13375   6.791   9.873   3.897  0.5416 -1.4481 -2.3640
  859MOL0     H13376   6.678  10.331   3.994 -1.5914 -0.8311  1.0888
  859MOL0     H13377   6.678  10.539   4.109 -0.2798  1.7717  2.2890
  859MOL0     H13378   6.616  10.642   4.386 -1.2366  1.2488 -0.2771
  859MOL0     H13379   6.694  10.750   4.260 -0.5645 -1.5025 -0.2510
  859MOL0     H13380   6.649  10.824   4.522 -2.1502  2.0206 -4.7555
  859MOL0     H13381   6.784  10.713   4.547  1.0708  0.2882 -0.1473
  859MOL0     H13382   6.913  10.851   4.383 -1.3924 -1.1278 -0.9306
  859MOL0     H13383   6.862  10.959   4.522 -0.7063  1.1481 -0.2260
  859MOL0     H13384   6.652  10.979   4.320  0.7544 -2.8027 -0.1763
  859MOL0     H13385   6.756  11.095   4.408  1.8758 -3.1800  4.8574
  859MOL0     H13386   6.923  11.014   4.010 -1.0839  3.3656 -0.7102
  859MOL0     H13387   6.908  10.374   4.432  0.2941 -0.6744 -1.0030
  859MOL0     H13388   6.903  10.152   4.314 -1.2331  0.8279  5.0121
  860MOL0     O13389   3.272   6.825   8.696  0.9472  0.8135  0.9012
  860MOL0     C13390   3.212   6.809   8.805 -0.2329 -0.0009 -0.5001
  860MOL0     O13391   3.104   6.879   8.842 -0.2024 -0.7945 -0.0993
  860MOL0     C13392   3.076   6.996   8.768 -1.1368  0.6838 -0.7582
  860MOL0     C13393   2.977   6.988   8.678 -0.4556  0.6324 -0.0336
  860MOL0     C13394   2.951   7.096   8.595 -0.5900  0.5062 -0.0726
  860MOL0     C13395   3.040   7.201   8.581  0.3409  0.6197 -0.0348
  860MOL0     O13396   3.025   7.292   8.476 -0.2901 -0.3725 -0.4290
  860MOL0     C13397   3.053   7.427   8.482 -0.3687  0.2608 -0.5194
  860MOL0     C13398   3.195   7.453   8.418  0.3157 -0.3565 -0.1114
  860MOL0     C13399   3.202   7.427   8.266  0.6056  0.0320  0.3629
  860MOL0     C13400   3.306   7.502   8.188 -0.6294 -0.2179  1.0187
  860MOL0     C13401   3.256   7.651   8.151  0.3836  0.9389 -0.4531
  860MOL0     C13402   3.367   7.755   8.115  0.9081  0.6988  0.1160
  860MOL0     C13403   3.358   7.792   7.964 -0.2075 -0.0048  0.1181
  860MOL0     C13404   3.487   7.868   7.933 -0.2435 -0.1837  0.2492
  860MOL0     N13405   3.494   7.995   8.014 -0.1626  0.6132  0.1447
  860MOL0     C13406   3.616   8.049   8.060  0.0980 -0.5153  0.0150
  860MOL0     C13407   3.582   8.166   8.119 -0.1495  1.2321 -0.3657
  860MOL0     C13408   3.684   8.267   8.171 -0.5388 -0.0569 -0.6968
  860MOL0     C13409   3.632   8.412   8.138  0.0585  0.4437 -0.5467
  860MOL0     C13410   3.717   8.515   8.187 -0.2923 -0.0819 -0.1568
  860MOL0     C13411   3.691   8.658   8.135 -0.0273  0.5100  0.4475
  860MOL0     O13412   3.705   8.755   8.244  0.2040  0.8454  0.1403
  860MOL0     C13413   3.836   8.778   8.293 -0.2581  0.4000  0.4086
  860MOL0     C13414   3.961   8.743   8.232  0.0379  0.1580 -0.9555
  860MOL0     C13415   4.075   8.754   8.307  0.3393  0.8084 -0.2908
  860MOL0     C13416   4.082   8.805   8.434 -0.0480 -0.3342 -0.2417
  860MOL0     C13417   4.203   8.802   8.519  0.6737  0.0439 -0.2508
  860MOL0     O13418   4.316   8.745   8.457 -0.1819  1.4901  0.2723
  860MOL0     C13419   4.434   8.739   8.519 -0.0460 -0.7468  0.6527
  860MOL0     C13420   4.511   8.623   8.498  0.5110  0.6411  0.0497
  860MOL0     C13421   4.629   8.599   8.570 -0.6319 -0.2341 -0.0438
  860MOL0     C13422   4.690   8.692   8.655  0.6062 -0.1580 -0.3812
  860MOL0     O13423   4.811   8.661   8.704 -0.1680  0.5008  0.7111
  860MOL0     C13424   4.877   8.748   8.786  0.5039  0.0787  0.4054
  860MOL0     C13425   5.019   8.704   8.814 -0.2250  0.5144 -0.3801
  860MOL0     C13426   5.075   8.775   8.938  0.9088 -0.0636  0.9836
  860MOL0     C13427   5.225   8.774   8.945  0.4243  0.6208  0.7691
  860MOL0     C13428   5.289   8.834   9.063 -0.5731 -0.5386 -0.8356
  860MOL0     C13429   5.435   8.828   9.063 -0.1066 -1.3807 -0.1545
  860MOL0     C13430   5.504   8.911   8.956  0.2941 -0.2935 -0.7085
  860MOL0     C13431   5.651   8.920   8.999 -0.6953 -0.8974 -0.5251
  860MOL0    Cl13432   5.729   8.758   9.044  0.7057  0.3203  0.4691
  860MOL0     C13433   4.616   8.811   8.669  0.6120 -0.8477 -0.6795
  860MOL0     C13434   4.495   8.835   8.604  0.2373 -0.0504  1.6329
  860MOL0     O13435   4.201   8.844   8.637  0.5124 -0.4877  0.3609
  860MOL0     C13436   3.954   8.840   8.493 -1.1948 -0.0582 -0.4601
  860MOL0     C13437   3.837   8.831   8.419  0.3512 -0.2581  0.3033
  860MOL0     N13438   3.445   8.171   8.117  0.0940  0.5121  0.2570
  860MOL0     N13439   3.399   8.073   8.044  0.8155 -0.5343 -0.8938
  860MOL0     C13440   3.146   7.209   8.668  0.8909  0.6991 -0.4388
  860MOL0     C13441   3.162   7.106   8.767  0.0149 -0.1648 -0.2579
  860MOL0     C13442   3.256   6.688   8.892  0.7207 -1.0077 -0.8832
  860MOL0     C13443   3.226   6.693   9.032 -0.0654  0.9516  0.1443
  860MOL0     C13444   3.293   6.584   9.100 -0.0161 -0.5129  0.4345
  860MOL0     C13445   3.343   6.469   9.036  0.0799  0.4237 -0.2182
  860MOL0     O13446   3.375   6.376   9.129 -0.2266 -1.1291  0.5772
  860MOL0     C13447   3.430   6.261   9.078  0.2744 -0.0694  0.5851
  860MOL0     C13448   3.440   6.174   9.200  0.0798 -0.4455 -0.1626
  860MOL0     C13449   3.557   6.066   9.173 -0.8725 -0.7929  1.4942
  860MOL0     C13450   3.553   5.969   9.054 -0.7357  0.5577 -0.2545
  860MOL0     C13451   3.687   5.912   9.020  0.1007 -0.0317 -0.5393
  860MOL0     C13452   3.789   5.856   8.984  0.8329  1.1537 -0.4764
  860MOL0     C13453   3.349   6.471   8.899  0.2357 -0.0240 -0.0998
  860MOL0     C13454   3.320   6.583   8.831 -0.0652  0.6307  0.2154
  860MOL0     H13455   2.925   6.893   8.672  0.1172  0.3608 -0.9021
  860MOL0     H13456   2.869   7.093   8.524 -0.5308  1.7541 -0.2105
  860MOL0     H13457   3.055   7.455   8.588 -0.1359  1.1108 -0.7329
  860MOL0     H13458   2.976   7.485   8.429 -1.1703 -0.0477  0.2762
  860MOL0     H13459   3.272   7.392   8.466  0.8010 -1.8814 -2.6160
  860MOL0     H13460   3.206   7.561   8.429  0.2815 -0.2528 -1.0017
  860MOL0     H13461   3.103   7.437   8.218  0.1529 -1.9912  0.7892
  860MOL0     H13462   3.214   7.320   8.248  0.7971  0.2383 -0.8784
  860MOL0     H13463   3.399   7.502   8.247 -1.6373 -0.5852  2.6802
  860MOL0     H13464   3.333   7.452   8.095  2.9452 -1.4887  2.5208
  860MOL0     H13465   3.195   7.698   8.229  1.0219 -0.5301  0.9993
  860MOL0     H13466   3.184   7.646   8.069 -3.1703  1.8607  2.3521
  860MOL0     H13467   3.466   7.714   8.137  1.6079  1.5145 -1.3591
  860MOL0     H13468   3.367   7.841   8.182 -0.4655  0.1836  0.8162
  860MOL0     H13469   3.350   7.708   7.894  3.1742 -0.8657  0.6030
  860MOL0     H13470   3.261   7.841   7.958  0.7566  1.7993 -2.2976
  860MOL0     H13471   3.486   7.888   7.826  1.3147  5.1436  0.9528
  860MOL0     H13472   3.569   7.799   7.957  0.5738 -0.4339 -2.8882
  860MOL0     H13473   3.717   8.014   8.042  1.3714  1.7731  2.0840
  860MOL0     H13474   3.782   8.250   8.123 -0.3524 -0.6511 -0.1147
  860MOL0     H13475   3.710   8.272   8.277 -0.2728  3.1774 -0.8137
  860MOL0     H13476   3.529   8.433   8.169 -0.1443  3.2550 -2.7348
  860MOL0     H13477   3.624   8.416   8.029 -0.8729 -4.0014 -0.8639
  860MOL0     H13478   3.712   8.522   8.296  1.1607 -0.1126 -0.0645
  860MOL0     H13479   3.819   8.481   8.165 -0.6226 -1.4570  0.3752
  860MOL0     H13480   3.585   8.649   8.109 -0.8609  2.4655  2.7341
  860MOL0     H13481   3.751   8.677   8.046  0.6637  0.7955  0.9553
  860MOL0     H13482   3.959   8.681   8.143  1.7282  0.9674 -1.5934
  860MOL0     H13483   4.169   8.730   8.257  1.0036  0.6719  0.9791
  860MOL0     H13484   4.469   8.561   8.420 -0.7362  1.0832  0.3417
  860MOL0     H13485   4.675   8.501   8.563  0.5037 -0.0675  3.2597
  860MOL0     H13486   4.823   8.755   8.882 -1.0566  0.9390 -0.4879
  860MOL0     H13487   4.891   8.848   8.745 -0.8509 -0.6664 -2.0507
  860MOL0     H13488   5.085   8.723   8.729  0.1700 -0.2270 -0.2378
  860MOL0     H13489   5.030   8.598   8.836  0.7622  0.9122  1.1526
  860MOL0     H13490   5.041   8.734   9.034 -1.7861 -0.0701  0.0982
  860MOL0     H13491   5.040   8.878   8.932 -3.9191 -1.5521 -1.1964
  860MOL0     H13492   5.254   8.669   8.938 -3.9668 -0.9992  3.2020
  860MOL0     H13493   5.253   8.821   8.850  0.4028 -1.5160 -0.3464
  860MOL0     H13494   5.257   8.775   9.150 -1.5838  0.5046 -0.4765
  860MOL0     H13495   5.250   8.933   9.087  0.1010 -1.0367  2.9160
  860MOL0     H13496   5.470   8.724   9.053  0.9870 -0.8811 -2.0523
  860MOL0     H13497   5.476   8.858   9.160  1.3354  0.4823 -1.2770
  860MOL0     H13498   5.491   8.846   8.869  0.9396 -1.3660 -0.0212
  860MOL0     H13499   5.465   9.013   8.946  0.9840 -0.1599 -2.2337
  860MOL0     H13500   5.650   8.964   9.099  0.0084 -3.2749  0.5932
  860MOL0     H13501   5.714   8.985   8.937  0.3432  0.4997  1.8565
  860MOL0     H13502   4.662   8.893   8.723  2.1960 -1.2558 -1.3582
  860MOL0     H13503   4.450   8.932   8.623  0.7983  1.6869 -4.0836
  860MOL0     H13504   3.948   8.872   8.597  0.3060  0.8364 -0.6193
  860MOL0     H13505   3.755   8.874   8.476  0.5845  1.0774 -0.3359
  860MOL0     H13506   3.224   7.284   8.669  2.6880 -1.0900  0.5053
  860MOL0     H13507   3.241   7.097   8.842 -0.7764 -3.1087  0.3421
  860MOL0     H13508   3.167   6.767   9.085  1.0369 -0.1246  3.0577
  860MOL0     H13509   3.296   6.583   9.208  2.5352 -3.5340  0.4946
  860MOL0     H13510   3.529   6.283   9.037 -0.2125 -0.4768 -0.8677
  860MOL0     H13511   3.376   6.205   9.002  1.3553 -0.6572  0.2341
  860MOL0     H13512   3.473   6.222   9.293 -0.1095 -1.0587  0.2314
  860MOL0     H13513   3.345   6.126   9.226  0.5845 -2.0455 -1.1032
  860MOL0     H13514   3.572   6.002   9.260  4.7317 -1.7949  0.2095
  860MOL0     H13515   3.657   6.110   9.179 -1.8843  1.8833  0.3864
  860MOL0     H13516   3.480   5.891   9.079  0.0220  0.4140  1.6866
  860MOL0     H13517   3.515   6.019   8.964  0.0449  0.1729 -0.8069
  860MOL0     H13518   3.875   5.799   8.958  3.1654  2.7968  2.9070
  860MOL0     H13519   3.392   6.390   8.843 -2.4131 -1.1938 -0.6130
  860MOL0     H13520   3.328   6.595   8.723 -2.3103  0.1072 -0.0669
  861MOL0     O13521   5.147   3.715  10.748  0.0712 -0.2815  0.5939
  861MOL0     C13522   5.128   3.751  10.629 -0.6241 -0.6414 -0.4572
  861MOL0     O13523   5.084   3.667  10.528  0.1836 -0.4554 -0.3562
  861MOL0     C13524   5.013   3.549  10.555 -1.2561 -0.2911 -0.2706
  861MOL0     C13525   4.937   3.501  10.445 -0.3343  0.0198 -0.2326
  861MOL0     C13526   4.865   3.383  10.435  0.3467  0.2857 -0.1963
  861MOL0     C13527   4.883   3.294  10.546 -0.1263  0.3728  0.8925
  861MOL0     O13528   4.817   3.172  10.535 -0.1674  0.0677  0.3762
  861MOL0     C13529   4.824   3.082  10.651  0.6382  0.5903 -0.9425
  861MOL0     C13530   4.716   2.974  10.622 -0.1304  0.2073  0.2852
  861MOL0     C13531   4.769   2.858  10.535  1.2021 -0.1877  0.9596
  861MOL0     C13532   4.642   2.773  10.492  0.4263  0.6219  0.5507
  861MOL0     C13533   4.624   2.786  10.335  0.9905  0.2380 -0.3605
  861MOL0     C13534   4.592   2.658  10.260 -0.0282  0.0069 -1.1253
  861MOL0     C13535   4.572   2.691  10.109 -0.4238  0.5479  0.4807
  861MOL0     C13536   4.529   2.562  10.038  1.0993  1.1011  0.4960
  861MOL0     N13537   4.539   2.560   9.894  0.0491 -0.4132 -0.1644
  861MOL0     C13538   4.441   2.642   9.838 -0.3568  0.1071  1.8221
  861MOL0     C13539   4.470   2.626   9.711  0.5076 -0.7538  0.5037
  861MOL0     C13540   4.394   2.680   9.594  0.1693 -0.2625 -0.5943
  861MOL0     C13541   4.324   2.577   9.506  0.8226 -0.2688 -0.2689
  861MOL0     C13542   4.225   2.495   9.583 -0.1673 -0.8119 -0.8861
  861MOL0     C13543   4.107   2.470   9.505  1.3883  0.5019  0.1363
  861MOL0     O13544   4.034   2.371   9.583  0.0060  0.1846 -0.3932
  861MOL0     C13545   3.902   2.358   9.553  0.1423 -0.1984  1.2979
  861MOL0     C13546   3.834   2.404   9.434  0.1525  0.9497 -0.3015
  861MOL0     C13547   3.698   2.376   9.415 -0.5921  0.6310 -0.5433
  861MOL0     C13548   3.630   2.286   9.502  0.7001 -0.6463  0.4879
  861MOL0     C13549   3.478   2.271   9.495  0.1011 -0.0591  0.1994
  861MOL0     O13550   3.417   2.296   9.375 -0.2018  0.3165  0.1181
  861MOL0     C13551   3.283   2.285   9.351  0.2133  0.1356 -0.3531
  861MOL0     C13552   3.238   2.219   9.233  0.8293  0.1256 -0.0917
  861MOL0     C13553   3.096   2.215   9.215  0.5097 -0.6479  1.3199
  861MOL0     C13554   3.003   2.270   9.297  0.1212  0.5932 -0.1124
  861MOL0     O13555   2.880   2.298   9.233  0.1914 -0.5261 -0.1544
  861MOL0     C13556   2.765   2.332   9.307 -0.4357  0.5105  0.0750
  861MOL0     C13557   2.710   2.209   9.367 -0.4052 -0.0260  0.5742
  861MOL0     C13558   2.565   2.215   9.431  0.2842  0.7135  0.1412
  861MOL0     C13559   2.556   2.285   9.568 -0.4900 -0.3212  0.0149
  861MOL0     C13560   2.423   2.260   9.645 -0.2083  0.3516  1.1469
  861MOL0     C13561   2.399   2.370   9.749  0.9494  0.6420 -0.0055
  861MOL0     C13562   2.282   2.330   9.838  0.5454  0.4879 -0.0996
  861MOL0     C13563   2.223   2.442   9.916  0.9347  1.0078  0.5953
  861MOL0    Cl13564   2.123   2.394  10.050 -0.0480 -0.0458  0.0894
  861MOL0     C13565   3.055   2.321   9.419  0.5264  0.8221 -0.7613
  861MOL0     C13566   3.191   2.333   9.446 -1.2718  0.0018  0.2226
  861MOL0     O13567   3.421   2.228   9.596 -0.3494 -0.6492  0.0821
  861MOL0     C13568   3.697   2.243   9.612 -0.1779 -0.3486 -0.2935
  861MOL0     C13569   3.830   2.279   9.641  0.6695  0.0974  0.1003
  861MOL0     N13570   4.579   2.535   9.693  0.2500 -0.2675  0.1113
  861MOL0     N13571   4.615   2.495   9.808 -0.1454  0.3405 -0.2709
  861MOL0     C13572   4.962   3.331  10.656 -0.7186 -0.0317  0.4912
  861MOL0     C13573   5.028   3.459  10.654  0.1041 -0.0207  0.1211
  861MOL0     C13574   5.143   3.894  10.604  0.6246  0.3390 -0.0415
  861MOL0     C13575   5.088   3.941  10.488 -0.0335  0.6208 -0.3225
  861MOL0     C13576   5.087   4.083  10.464 -0.5576  0.2494  0.2604
  861MOL0     C13577   5.151   4.174  10.555  0.2741  0.0041 -0.2425
  861MOL0     O13578   5.133   4.312  10.530 -0.9449 -0.4136  1.2137
  861MOL0     C13579   5.243   4.401  10.554 -0.1840 -0.1230  0.4742
  861MOL0     C13580   5.362   4.349  10.471 -0.9139 -0.1195  0.1836
  861MOL0     C13581   5.489   4.438  10.494  0.0339  0.5832 -0.1884
  861MOL0     C13582   5.600   4.390  10.405 -0.3680  0.1310  0.8091
  861MOL0     C13583   5.656   4.262  10.430 -1.0518 -0.2327 -0.8543
  861MOL0     C13584   5.691   4.147  10.460  0.4636 -0.2317 -1.2348
  861MOL0     C13585   5.193   4.125  10.680  0.3630  0.4964  1.1802
  861MOL0     C13586   5.190   3.989  10.706 -0.2228 -0.0004 -0.3226
  861MOL0     H13587   4.934   3.579  10.369  3.7058 -0.8574 -1.5151
  861MOL0     H13588   4.812   3.344  10.348 -0.4848  2.3548 -0.6700
  861MOL0     H13589   4.796   3.148  10.734 -0.4281  3.3839 -3.3537
  861MOL0     H13590   4.922   3.036  10.667 -0.8431 -2.1820  1.2462
  861MOL0     H13591   4.630   3.018  10.572  1.0446 -0.1034 -2.1189
  861MOL0     H13592   4.685   2.932  10.718 -2.9597  0.6786 -0.3417
  861MOL0     H13593   4.837   2.799  10.597  2.6159 -0.8088 -1.0405
  861MOL0     H13594   4.834   2.888  10.452  0.0850 -1.1993 -0.3314
  861MOL0     H13595   4.664   2.671  10.524  1.1517  0.9265  1.0594
  861MOL0     H13596   4.543   2.798  10.531 -1.1017  3.4065 -4.3222
  861MOL0     H13597   4.714   2.821  10.284  1.8745 -1.7529 -0.2612
  861MOL0     H13598   4.545   2.862  10.335  0.5348 -0.1080  2.3740
  861MOL0     H13599   4.504   2.608  10.302  1.3314 -0.7813  0.9818
  861MOL0     H13600   4.672   2.590  10.291  0.2667  1.5369  1.8665
  861MOL0     H13601   4.505   2.775  10.088  2.8612  3.2119 -0.3834
  861MOL0     H13602   4.660   2.739  10.064 -2.0565  0.0991 -3.6056
  861MOL0     H13603   4.427   2.544  10.073  1.2246  1.1183  0.8782
  861MOL0     H13604   4.582   2.471  10.067 -2.0895 -2.0713 -2.5909
  861MOL0     H13605   4.361   2.695   9.888 -1.8977  2.1026 -2.3034
  861MOL0     H13606   4.469   2.728   9.531  0.6524 -0.4816 -0.1949
  861MOL0     H13607   4.318   2.755   9.619 -0.2709 -0.0957 -2.2972
  861MOL0     H13608   4.405   2.514   9.468  0.6727 -0.5329 -0.1583
  861MOL0     H13609   4.259   2.627   9.434 -5.2628 -3.2002  2.4320
  861MOL0     H13610   4.266   2.398   9.612  3.6805  0.2604 -2.1518
  861MOL0     H13611   4.205   2.561   9.669 -2.5024  4.3199 -4.7863
  861MOL0     H13612   4.122   2.433   9.403  1.5017 -0.3799  0.4675
  861MOL0     H13613   4.046   2.561   9.499 -0.1586 -0.4647  0.6688
  861MOL0     H13614   3.894   2.455   9.359  0.7811  3.0196  1.5157
  861MOL0     H13615   3.642   2.397   9.324  1.1834 -0.2422 -1.9255
  861MOL0     H13616   3.306   2.172   9.163  0.7634 -0.4919  0.2536
  861MOL0     H13617   3.054   2.183   9.121 -2.4499  1.5225  1.7577
  861MOL0     H13618   2.691   2.373   9.238  0.4754  0.0218 -1.2246
  861MOL0     H13619   2.781   2.398   9.393  1.9981 -0.6464  0.6188
  861MOL0     H13620   2.786   2.182   9.441  1.1765  4.1328  0.6964
  861MOL0     H13621   2.694   2.131   9.291 -1.8289 -0.3377  1.1577
  861MOL0     H13622   2.539   2.112   9.457  5.3687 -0.6092  0.9212
  861MOL0     H13623   2.492   2.266   9.367 -0.2058  2.1305  1.7490
  861MOL0     H13624   2.639   2.251   9.630 -0.5140 -1.7163 -0.6888
  861MOL0     H13625   2.562   2.390   9.538 -1.4836 -0.7653 -1.9134
  861MOL0     H13626   2.433   2.161   9.691  0.6775 -1.1765 -2.0473
  861MOL0     H13627   2.350   2.236   9.567  2.9611 -0.4156 -1.8546
  861MOL0     H13628   2.383   2.465   9.698  0.9067  1.0587  0.7633
  861MOL0     H13629   2.484   2.384   9.817 -0.9108 -0.3702  2.6941
  861MOL0     H13630   2.214   2.275   9.771  2.9237 -0.7769 -1.5961
  861MOL0     H13631   2.301   2.257   9.917 -1.7988  0.5675  0.6393
  861MOL0     H13632   2.159   2.503   9.852 -1.1330  0.5769  2.1741
  861MOL0     H13633   2.302   2.501   9.964  1.4864  2.3428 -1.7964
  861MOL0     H13634   2.977   2.350   9.489  1.6120  0.1103  0.7973
  861MOL0     H13635   3.220   2.362   9.547  2.6512  0.8236 -0.9780
  861MOL0     H13636   3.647   2.172   9.678 -2.7235  0.5857 -1.0975
  861MOL0     H13637   3.894   2.245   9.722  0.2298 -2.0693 -0.3967
  861MOL0     H13638   4.969   3.259  10.737 -1.6142 -3.2413 -2.0809
  861MOL0     H13639   5.093   3.475  10.739  1.7318 -3.4451 -0.2878
  861MOL0     H13640   5.042   3.875  10.416 -0.0331 -2.0356  1.9444
  861MOL0     H13641   5.041   4.129  10.377 -0.2492  0.1202  0.0302
  861MOL0     H13642   5.271   4.402  10.659  0.9099 -1.5363  0.2463
  861MOL0     H13643   5.211   4.501  10.523  0.9966  1.4785  3.9248
  861MOL0     H13644   5.379   4.243  10.490 -2.3159 -0.5242 -0.6647
  861MOL0     H13645   5.331   4.350  10.367 -3.7692 -2.3337  0.8759
  861MOL0     H13646   5.522   4.432  10.598  1.7509 -0.3705 -0.7565
  861MOL0     H13647   5.468   4.541  10.462 -0.2386  0.8681  0.8659
  861MOL0     H13648   5.557   4.383  10.305 -1.6698  1.3051  1.2576
  861MOL0     H13649   5.675   4.470  10.414 -1.2607  1.1072 -0.1164
  861MOL0     H13650   5.723   4.051  10.495 -1.7122 -0.4778  0.2893
  861MOL0     H13651   5.214   4.196  10.759 -0.0430  2.5068 -0.4176
  861MOL0     H13652   5.215   3.958  10.806 -1.7104  1.2160  0.4801
  862MOL0     O13653   6.699   0.811   9.132  0.4337  0.4453 -0.3346
  862MOL0     C13654   6.656   0.703   9.176  0.1282 -0.5153 -0.0227
  862MOL0     O13655   6.633   0.585   9.114  0.1478 -0.4289  0.1243
  862MOL0     C13656   6.664   0.587   8.985  0.2956 -0.5254 -1.0752
  862MOL0     C13657   6.795   0.581   8.954 -1.0239  0.0335  0.8569
  862MOL0     C13658   6.829   0.585   8.818 -0.5617 -0.6251 -1.1491
  862MOL0     C13659   6.735   0.594   8.715  1.1017  0.3569  0.9832
  862MOL0     O13660   6.785   0.610   8.588 -0.4090  0.5119  0.3221
  862MOL0     C13661   6.737   0.527   8.479  0.4098  0.1311 -0.3472
  862MOL0     C13662   6.853   0.432   8.443  0.0854 -0.6831 -0.0960
  862MOL0     C13663   6.976   0.517   8.414  0.4047  0.8647 -0.3986
  862MOL0     C13664   7.084   0.439   8.360  0.0725 -0.3039  0.2311
  862MOL0     C13665   7.084   0.461   8.208  0.0651 -0.4126  0.8927
  862MOL0     C13666   7.148   0.593   8.164 -0.2237 -0.6317 -0.8551
  862MOL0     C13667   7.156   0.603   8.016 -0.5809  0.7532  0.5245
  862MOL0     C13668   7.027   0.669   7.965  0.3248  0.1411 -1.0578
  862MOL0     N13669   7.019   0.728   7.828 -0.0771  0.6808  0.0154
  862MOL0     C13670   7.117   0.781   7.750  0.5313 -0.2156  0.3074
  862MOL0     C13671   7.061   0.814   7.628  0.0883  0.2758 -0.0378
  862MOL0     C13672   7.128   0.887   7.511  1.0377  0.4541 -0.3842
  862MOL0     C13673   7.151   0.802   7.382  0.7976  0.3027 -0.5715
  862MOL0     C13674   7.203   0.887   7.267 -0.0032  0.1340  0.1863
  862MOL0     C13675   7.186   0.816   7.136 -0.1620  0.8204  0.2561
  862MOL0     O13676   7.238   0.916   7.046 -0.4585 -0.9627 -1.0006
  862MOL0     C13677   7.280   0.880   6.920  0.1022 -0.3973 -0.3867
  862MOL0     C13678   7.361   0.967   6.845 -0.3204 -0.0404  0.3270
  862MOL0     C13679   7.385   0.938   6.712  0.0705  0.7596 -0.0545
  862MOL0     C13680   7.344   0.814   6.651  0.6249  0.3721 -0.1145
  862MOL0     C13681   7.363   0.785   6.514 -0.5826  0.1798  0.4798
  862MOL0     O13682   7.400   0.885   6.437 -0.4460 -0.5559  0.1067
  862MOL0     C13683   7.391   0.877   6.297 -0.0435 -0.7264 -0.4319
  862MOL0     C13684   7.475   0.784   6.227  0.5336 -0.3035 -0.6983
  862MOL0     C13685   7.467   0.787   6.084 -0.5787 -0.2678 -0.3768
  862MOL0     C13686   7.404   0.885   6.014  1.4365  0.8639  0.2780
  862MOL0     O13687   7.427   0.887   5.877 -0.2112  0.3202  0.3343
  862MOL0     C13688   7.378   0.994   5.800 -0.7956 -0.5147 -0.1202
  862MOL0     C13689   7.429   0.965   5.657  0.9548 -0.0934 -0.3393
  862MOL0     C13690   7.353   0.853   5.582 -0.8528 -0.9267  0.0113
  862MOL0     C13691   7.434   0.845   5.441 -0.3124 -0.5314  0.2818
  862MOL0     C13692   7.343   0.790   5.326 -0.3953  0.2786  0.6175
  862MOL0     C13693   7.365   0.859   5.191 -0.5588 -0.3525  0.2418
  862MOL0     C13694   7.484   0.812   5.105 -0.7661 -0.3327 -0.8691
  862MOL0     C13695   7.477   0.669   5.057  0.6987 -1.2913 -0.2285
  862MOL0    Cl13696   7.367   0.652   4.925 -0.1091  0.6543  0.0614
  862MOL0     C13697   7.331   0.984   6.090  0.5349  0.6209  0.7546
  862MOL0     C13698   7.318   0.977   6.227  0.1384  0.1205 -0.2834
  862MOL0     O13699   7.347   0.666   6.479  0.6403  0.0028  0.4718
  862MOL0     C13700   7.273   0.724   6.732 -0.8363 -1.0344  1.0440
  862MOL0     C13701   7.235   0.761   6.855 -0.0515  1.4484  0.3698
  862MOL0     N13702   6.931   0.772   7.636  0.3952 -1.1907  0.3051
  862MOL0     N13703   6.906   0.716   7.750 -0.1904 -0.6944 -0.2614
  862MOL0     C13704   6.591   0.601   8.756 -0.4087 -0.4102 -0.1312
  862MOL0     C13705   6.559   0.596   8.889  0.7559  0.8316  1.0810
  862MOL0     C13706   6.616   0.713   9.320  0.1664 -0.1770 -0.1419
  862MOL0     C13707   6.622   0.603   9.407  0.4995  0.8895  0.4781
  862MOL0     C13708   6.572   0.611   9.536 -0.3633 -0.9052 -0.2134
  862MOL0     C13709   6.519   0.727   9.588 -0.2814 -0.5923 -1.0340
  862MOL0     O13710   6.487   0.747   9.720 -0.1057  0.1130 -0.0669
  862MOL0     C13711   6.540   0.653   9.817 -0.2271 -0.6620 -0.2058
  862MOL0     C13712   6.516   0.709   9.953 -1.0937 -0.3946  0.2027
  862MOL0     C13713   6.372   0.737   9.999 -0.4469 -1.0506  0.4054
  862MOL0     C13714   6.324   0.875   9.965 -0.2396  0.2636  0.2795
  862MOL0     C13715   6.186   0.892  10.028 -0.0176  0.0648  0.1595
  862MOL0     C13716   6.073   0.883  10.085  0.5576  0.5459  0.2986
  862MOL0     C13717   6.499   0.836   9.500  0.4341  0.1897 -0.3424
  862MOL0     C13718   6.556   0.827   9.372 -0.3969 -0.0130 -0.2988
  862MOL0     H13719   6.875   0.580   9.027 -1.1987  1.6238  1.0944
  862MOL0     H13720   6.929   0.593   8.778 -1.7268  0.3749 -4.1305
  862MOL0     H13721   6.711   0.587   8.391  1.5134  1.1918  0.0231
  862MOL0     H13722   6.644   0.474   8.500 -0.9485  1.1698 -3.1460
  862MOL0     H13723   6.819   0.366   8.363 -1.2923 -4.0507  3.0076
  862MOL0     H13724   6.874   0.375   8.533  1.5935  1.7352  1.1906
  862MOL0     H13725   7.012   0.559   8.508  1.4129  0.7937 -0.7377
  862MOL0     H13726   6.949   0.607   8.358 -3.4818  2.5925  3.7410
  862MOL0     H13727   7.181   0.469   8.402  1.1550 -0.1474 -2.2445
  862MOL0     H13728   7.062   0.333   8.376 -0.7057 -0.1114  0.5360
  862MOL0     H13729   6.980   0.457   8.175 -0.1938 -1.0355  1.7502
  862MOL0     H13730   7.126   0.376   8.152 -2.5442 -0.9202 -0.4341
  862MOL0     H13731   7.252   0.599   8.197 -0.5190  1.2521 -0.1396
  862MOL0     H13732   7.089   0.675   8.205  0.3353 -1.1401  1.0358
  862MOL0     H13733   7.245   0.662   7.993  0.3628  0.1178  2.3209
  862MOL0     H13734   7.176   0.505   7.973  1.5476  1.8957 -1.2676
  862MOL0     H13735   7.020   0.765   8.016  3.9709  1.7864 -3.2371
  862MOL0     H13736   6.943   0.601   7.982  0.0409  0.3011 -1.7504
  862MOL0     H13737   7.219   0.806   7.778 -0.3627  2.7944  1.2251
  862MOL0     H13738   7.217   0.925   7.563  0.3160 -0.5149  1.7052
  862MOL0     H13739   7.054   0.962   7.480 -0.6395 -0.6008  0.8812
  862MOL0     H13740   7.056   0.754   7.357  0.9979 -1.4493  1.6655
  862MOL0     H13741   7.219   0.726   7.421  1.9803  1.6314  0.0444
  862MOL0     H13742   7.157   0.985   7.251 -0.1322 -0.3455 -3.1510
  862MOL0     H13743   7.309   0.905   7.286  0.4237 -0.7576 -1.2439
  862MOL0     H13744   7.084   0.779   7.125  0.6395 -1.4664 -0.0913
  862MOL0     H13745   7.247   0.725   7.140 -0.5138  0.5663 -0.0547
  862MOL0     H13746   7.383   1.063   6.889 -0.8384  0.0136  0.4855
  862MOL0     H13747   7.434   1.015   6.653  1.0621 -1.0485 -1.7429
  862MOL0     H13748   7.537   0.708   6.273 -0.6767 -0.9861 -0.1220
  862MOL0     H13749   7.535   0.724   6.028  1.5703  3.6788 -2.5583
  862MOL0     H13750   7.413   1.094   5.830 -4.8194  1.2793 -0.7441
  862MOL0     H13751   7.269   0.998   5.808 -0.6228  0.3582  3.2541
  862MOL0     H13752   7.529   0.926   5.677 -0.7091 -3.4940  2.3446
  862MOL0     H13753   7.428   1.050   5.588 -0.7458 -1.5964 -2.2636
  862MOL0     H13754   7.248   0.882   5.566 -1.2953 -2.2738  0.3705
  862MOL0     H13755   7.352   0.761   5.641 -2.5198 -0.6836  0.4302
  862MOL0     H13756   7.468   0.944   5.411  2.0572 -0.7146  2.0557
  862MOL0     H13757   7.525   0.786   5.457  2.5300  3.3672 -0.1205
  862MOL0     H13758   7.240   0.820   5.350 -0.5666  0.1264  0.1014
  862MOL0     H13759   7.343   0.682   5.308 -3.4992  0.6747 -3.4565
  862MOL0     H13760   7.378   0.964   5.217  0.5463 -1.2519  3.9234
  862MOL0     H13761   7.278   0.849   5.125 -0.5515  3.3207 -0.5106
  862MOL0     H13762   7.474   0.876   5.017 -1.5023 -0.1124 -0.6329
  862MOL0     H13763   7.579   0.826   5.157 -1.6540  1.5738  0.3835
  862MOL0     H13764   7.455   0.597   5.136  1.0987 -3.2898 -1.8606
  862MOL0     H13765   7.581   0.654   5.028  1.6572 -0.5970  2.5975
  862MOL0     H13766   7.276   1.059   6.035 -0.6828 -1.7220 -1.4050
  862MOL0     H13767   7.264   1.056   6.278 -0.1975 -0.6652  0.5962
  862MOL0     H13768   7.231   0.630   6.696 -1.4296  0.4934 -2.7033
  862MOL0     H13769   7.173   0.687   6.905 -0.1724  2.0352  1.1091
  862MOL0     H13770   6.525   0.610   8.670  3.1880  2.6164 -2.9169
  862MOL0     H13771   6.458   0.581   8.925  0.5468  1.9084  0.9770
  862MOL0     H13772   6.667   0.509   9.377  1.0615  1.2588  0.1420
  862MOL0     H13773   6.575   0.526   9.604 -5.1635 -0.9182  0.3420
  862MOL0     H13774   6.645   0.639   9.792 -0.1111  1.6339 -1.2100
  862MOL0     H13775   6.487   0.558   9.806 -3.6929  1.3994 -4.0385
  862MOL0     H13776   6.560   0.634  10.019  1.3952 -2.2056 -3.2045
  862MOL0     H13777   6.564   0.806   9.972  1.2862 -1.6980  1.3873
  862MOL0     H13778   6.380   0.736  10.108 -2.4969 -2.2792  0.6005
  862MOL0     H13779   6.301   0.659   9.971 -0.0774 -1.5998  0.9595
  862MOL0     H13780   6.395   0.948  10.005 -1.5427  2.8603 -1.8219
  862MOL0     H13781   6.312   0.877   9.856 -0.2279 -2.3940  0.1454
  862MOL0     H13782   5.975   0.885  10.129  0.4390  3.4502  0.1090
  862MOL0     H13783   6.453   0.925   9.541 -3.5035 -2.5281  1.7453
  862MOL0     H13784   6.535   0.912   9.308 -0.3626 -1.0424 -1.7382
  863MOL0     O13785   9.981   4.738  10.382  0.4744 -0.6578  0.1911
  863MOL0     C13786  10.009   4.675  10.280  0.0766 -0.3401  0.7452
  863MOL0     O13787  10.033   4.730  10.160  0.0400 -1.1347 -0.3543
  863MOL0     C13788  10.057   4.865  10.141  0.1009  0.1426  1.2552
  863MOL0     C13789  10.110   4.905  10.016  0.3839 -0.8681 -0.4285
  863MOL0     C13790  10.155   5.038   9.998 -0.2707  0.2466 -0.7116
  863MOL0     C13791  10.138   5.137  10.095 -0.6395 -0.6890 -0.4693
  863MOL0     O13792  10.192   5.264  10.078  1.2912  0.0125 -0.1865
  863MOL0     C13793  10.093   5.375  10.080 -0.0961 -0.4045 -0.3655
  863MOL0     C13794  10.138   5.484  10.172 -0.2920 -0.0194  0.9769
  863MOL0     C13795  10.295   5.513  10.166  0.3361 -0.1335 -0.3258
  863MOL0     C13796  10.319   5.643  10.238  0.1697 -0.0881  0.3046
  863MOL0     C13797  10.462   5.666  10.282 -0.0794 -0.7126  0.0879
  863MOL0     C13798  10.500   5.810  10.272 -0.4683  0.4234 -0.2411
  863MOL0     C13799  10.520   5.852  10.112 -0.9520  1.2989 -0.7066
  863MOL0     C13800  10.406   5.942  10.069  0.3279  0.5512 -0.4858
  863MOL0     N13801  10.433   6.007   9.943  0.0804 -0.0380 -0.0106
  863MOL0     C13802  10.390   5.972   9.816 -0.2360  0.1421  0.3777
  863MOL0     C13803  10.445   6.067   9.724  0.5632  0.4989 -0.7043
  863MOL0     C13804  10.445   6.043   9.575  0.1191  0.0810 -0.1384
  863MOL0     C13805  10.585   6.000   9.543 -0.9077  1.1127 -0.0996
  863MOL0     C13806  10.634   5.860   9.610  0.1457 -0.7892  0.2277
  863MOL0     C13807  10.699   5.757   9.512 -1.1333 -0.0552 -0.3697
  863MOL0     O13808  10.791   5.817   9.415  0.2088 -0.7069  0.4891
  863MOL0     C13809  10.908   5.877   9.458 -0.7098  0.4962  0.1187
  863MOL0     C13810  10.977   5.943   9.359  0.1839 -0.2911 -0.9823
  863MOL0     C13811  11.109   5.999   9.397 -0.0018 -0.5562 -0.5127
  863MOL0     C13812  11.162   5.982   9.526 -0.8376 -0.2067 -0.6866
  863MOL0     C13813  11.294   6.036   9.573 -0.8088  0.2808 -0.2870
  863MOL0     O13814  11.308   6.046   9.710  0.2480 -0.1140 -0.9378
  863MOL0     C13815  11.432   6.087   9.760  0.1527 -0.2855 -0.1428
  863MOL0     C13816  11.469   6.032   9.880 -0.2182  0.7621 -0.2707
  863MOL0     C13817  11.578   6.066   9.953  0.1584 -0.1315 -0.9448
  863MOL0     C13818  11.656   6.167   9.902 -0.0630  1.1784  0.2505
  863MOL0     O13819  11.759   6.212   9.976  0.3604  0.1518  0.2300
  863MOL0     C13820  11.750   6.343  10.034  0.7679  0.0986  0.4070
  863MOL0     C13821  11.700   6.324  10.174 -1.4313 -0.5631 -0.2257
  863MOL0     C13822  11.801   6.254  10.276  0.0206  0.0148 -0.9409
  863MOL0     C13823  11.730   6.239  10.412 -0.3371  0.5442  0.5922
  863MOL0     C13824  11.827   6.194  10.523 -0.0373 -0.2385  0.3675
  863MOL0     C13825  11.881   6.058  10.498  0.2209  0.4209 -0.0552
  863MOL0     C13826  11.899   5.998  10.637 -0.4514 -0.1121 -1.1785
  863MOL0     C13827  12.018   5.899  10.642  1.0922 -0.2209 -1.0561
  863MOL0    Cl13828  12.162   5.973  10.711 -0.3598 -0.0315  0.1059
  863MOL0     C13829  11.621   6.237   9.780  0.5099 -1.0404 -0.1929
  863MOL0     C13830  11.505   6.202   9.711 -0.6047 -0.5542 -0.7320
  863MOL0     O13831  11.371   6.086   9.485  0.4371 -1.4365  0.7991
  863MOL0     C13832  11.087   5.927   9.620  0.7752  0.8263 -0.8489
  863MOL0     C13833  10.962   5.861   9.587  0.3373  0.1229  0.1762
  863MOL0     N13834  10.521   6.158   9.803  0.3167  0.4174 -0.0313
  863MOL0     N13835  10.509   6.118   9.931 -0.3739 -0.0478  0.0395
  863MOL0     C13836  10.074   5.101  10.211 -1.2082 -0.1742 -0.6210
  863MOL0     C13837  10.030   4.967  10.234  0.5101 -0.5756  1.0534
  863MOL0     C13838  10.043   4.523  10.281  0.3125 -0.2178  0.0514
  863MOL0     C13839  10.106   4.462  10.170 -0.5452  0.4800  0.0929
  863MOL0     C13840  10.154   4.333  10.171 -0.3523 -0.2828 -0.2609
  863MOL0     C13841  10.133   4.254  10.288  0.2538 -0.1767  0.4056
  863MOL0     O13842  10.157   4.111  10.295  0.0460  0.1844  0.8165
  863MOL0     C13843  10.192   4.044  10.171 -0.1339 -0.0934 -0.3996
  863MOL0     C13844  10.196   3.890  10.195  0.5119 -0.0638  0.2680
  863MOL0     C13845  10.235   3.806  10.073 -1.0868  0.6352  0.4043
  863MOL0     C13846  10.389   3.781  10.073  0.4567 -0.5594  0.0162
  863MOL0     C13847  10.427   3.687  10.178  0.1444 -0.1008  0.3233
  863MOL0     C13848  10.468   3.597  10.253  0.1899  0.2403  0.4609
  863MOL0     C13849  10.067   4.317  10.396 -0.1278 -0.0038 -0.2428
  863MOL0     C13850  10.035   4.444  10.395  0.9479 -0.0476  0.1231
  863MOL0     H13851  10.126   4.823   9.947 -2.5438 -2.0245  0.1008
  863MOL0     H13852  10.200   5.052   9.900  0.4215 -1.4321 -0.6741
  863MOL0     H13853   9.992   5.333  10.083 -0.4920  0.5690  0.7571
  863MOL0     H13854  10.095   5.422   9.981  0.7438 -0.1503 -0.2402
  863MOL0     H13855  10.110   5.464  10.276  2.3372  1.8638  2.1767
  863MOL0     H13856  10.081   5.570  10.136  2.0149 -0.1433 -3.7388
  863MOL0     H13857  10.326   5.537  10.064 -2.7888  1.4149 -1.0502
  863MOL0     H13858  10.354   5.431  10.208  0.2263 -0.2904 -0.4802
  863MOL0     H13859  10.270   5.726  10.186 -0.4222 -0.1218  0.7908
  863MOL0     H13860  10.270   5.651  10.335  2.7958  2.6971  1.5618
  863MOL0     H13861  10.539   5.612  10.226  0.8875 -0.4891  1.1622
  863MOL0     H13862  10.481   5.627  10.383 -4.1642 -0.7700  0.9972
  863MOL0     H13863  10.594   5.818  10.328  0.1324  0.9293 -1.3024
  863MOL0     H13864  10.429   5.870  10.329  1.2010  0.7816  1.5681
  863MOL0     H13865  10.619   5.897  10.098  0.0850 -0.9933 -1.3167
  863MOL0     H13866  10.537   5.763  10.050 -2.0856  1.2075 -0.8972
  863MOL0     H13867  10.382   6.023  10.139  1.6208 -0.4686  1.2533
  863MOL0     H13868  10.309   5.893  10.055  0.2168  0.5206  0.3053
  863MOL0     H13869  10.332   5.885   9.790  0.9401 -0.4467 -0.3699
  863MOL0     H13870  10.417   6.134   9.521  0.4984  0.8686  0.9564
  863MOL0     H13871  10.375   5.961   9.557 -0.3539  0.3292  0.5371
  863MOL0     H13872  10.655   6.084   9.550  1.4514 -0.6464 -1.2444
  863MOL0     H13873  10.602   5.974   9.439  1.9806 -3.4131  1.2016
  863MOL0     H13874  10.688   5.888   9.701  2.9426  2.7581 -2.2377
  863MOL0     H13875  10.541   5.813   9.644 -1.6098  3.1165  1.4021
  863MOL0     H13876  10.619   5.718   9.448  0.7243  0.4635 -3.1739
  863MOL0     H13877  10.745   5.674   9.566 -1.1245 -0.1429 -0.5107
  863MOL0     H13878  10.943   5.950   9.257 -1.6211 -0.7169 -0.4465
  863MOL0     H13879  11.157   6.048   9.313  0.9078  0.7943  0.7486
  863MOL0     H13880  11.416   5.938   9.894 -2.4857  1.9096 -0.6425
  863MOL0     H13881  11.593   6.013  10.046 -0.4936  0.8277 -0.2699
  863MOL0     H13882  11.684   6.398   9.966  0.0746  0.0397  1.0095
  863MOL0     H13883  11.843   6.400  10.038 -0.1220  1.6278  0.0115
  863MOL0     H13884  11.607   6.267  10.186 -2.1312  0.1038 -2.0683
  863MOL0     H13885  11.676   6.423  10.214 -1.8648 -0.3904 -0.8932
  863MOL0     H13886  11.895   6.309  10.292 -0.7372  1.6647 -1.8856
  863MOL0     H13887  11.834   6.166  10.220  0.2642  0.6934 -1.9010
  863MOL0     H13888  11.683   6.337  10.425 -0.0535  1.5007 -3.8581
  863MOL0     H13889  11.652   6.165  10.397 -0.4822  0.5601  1.2700
  863MOL0     H13890  11.764   6.187  10.613 -2.3669  2.8279 -0.8386
  863MOL0     H13891  11.898   6.276  10.539 -1.0995  0.6041  0.9047
  863MOL0     H13892  11.965   6.070  10.428 -3.1725  2.5843 -4.2189
  863MOL0     H13893  11.813   5.997  10.438 -0.1262  0.7626 -0.0129
  863MOL0     H13894  11.922   6.068  10.718 -2.3867 -0.9842  0.2033
  863MOL0     H13895  11.806   5.949  10.670  0.5030 -3.3401 -2.8058
  863MOL0     H13896  12.043   5.863  10.542  2.4204 -0.1608 -0.7721
  863MOL0     H13897  11.985   5.816  10.705 -4.4808  1.6665 -1.0031
  863MOL0     H13898  11.676   6.320   9.737 -5.2186  3.0030 -0.8182
  863MOL0     H13899  11.469   6.243   9.617 -2.4957 -0.6947 -0.0984
  863MOL0     H13900  11.111   5.924   9.726  0.1610  2.1909 -0.6527
  863MOL0     H13901  10.909   5.813   9.669 -1.3028  2.1368  0.4072
  863MOL0     H13902  10.031   5.169  10.284  0.5565 -1.1138  1.4175
  863MOL0     H13903   9.966   4.963  10.321 -2.9446  3.9214 -0.8368
  863MOL0     H13904  10.118   4.518  10.077 -1.8109 -0.6952 -0.8115
  863MOL0     H13905  10.203   4.290  10.084  2.1942  0.4188  0.7224
  863MOL0     H13906  10.288   4.078  10.129 -1.0140 -0.7533 -3.1821
  863MOL0     H13907  10.109   4.060  10.102 -0.9147 -0.7938  0.3521
  863MOL0     H13908  10.255   3.862  10.283  0.2529 -1.3413  0.0662
  863MOL0     H13909  10.092   3.864  10.212  0.0689 -1.7694 -3.7668
  863MOL0     H13910  10.199   3.854   9.981 -0.1647 -0.4767 -0.5718
  863MOL0     H13911  10.195   3.704  10.084  2.9897 -1.1323  0.5023
  863MOL0     H13912  10.417   3.742   9.975  0.3901 -0.5876  0.0080
  863MOL0     H13913  10.443   3.874  10.089 -0.4652 -0.2793  1.8299
  863MOL0     H13914  10.509   3.528  10.324 -1.3966  0.7972  2.0058
  863MOL0     H13915  10.042   4.260  10.485  0.6963 -0.8853 -0.5560
  863MOL0     H13916   9.989   4.499  10.477  0.3265 -1.1628  0.5537
  864MOL0     O13917   2.055   6.427   7.653 -0.2139 -0.0542 -0.3914
  864MOL0     C13918   2.023   6.316   7.706  0.1413 -0.5055 -0.7206
  864MOL0     O13919   1.899   6.255   7.695 -0.0195 -0.1186  0.4778
  864MOL0     C13920   1.810   6.323   7.613 -0.2839  0.4787 -0.4484
  864MOL0     C13921   1.798   6.292   7.474  0.2328  0.0895 -0.1300
  864MOL0     C13922   1.686   6.330   7.399 -0.0472 -0.4354  0.7028
  864MOL0     C13923   1.592   6.418   7.460 -1.1157 -0.3556  1.2852
  864MOL0     O13924   1.486   6.479   7.405 -0.3286 -0.2446  0.5489
  864MOL0     C13925   1.481   6.463   7.264  0.2731  0.8014 -0.8644
  864MOL0     C13926   1.356   6.525   7.205 -1.0945 -0.4420 -0.6655
  864MOL0     C13927   1.220   6.459   7.272  0.5243 -0.5508 -0.6323
  864MOL0     C13928   1.117   6.383   7.175  0.0338 -0.7155  0.5630
  864MOL0     C13929   0.980   6.366   7.242 -0.0624  0.5397 -0.3513
  864MOL0     C13930   0.862   6.307   7.156 -0.0204  0.8809 -0.1442
  864MOL0     C13931   0.734   6.279   7.250 -1.0162 -0.9501 -0.1048
  864MOL0     C13932   0.656   6.155   7.217  0.4368 -0.1710  1.3256
  864MOL0     N13933   0.602   6.157   7.075 -0.5060 -0.4310 -0.1204
  864MOL0     C13934   0.546   6.262   7.013  0.8128 -0.9210  0.6580
  864MOL0     C13935   0.528   6.222   6.890 -0.3533  0.0637  0.1490
  864MOL0     C13936   0.460   6.288   6.772 -1.2468  0.2575 -0.0864
  864MOL0     C13937   0.564   6.367   6.680 -0.0901  1.2983  0.4982
  864MOL0     C13938   0.612   6.262   6.574  0.0327  0.6728  1.2615
  864MOL0     C13939   0.740   6.314   6.509  0.2254 -0.4377  1.1374
  864MOL0     O13940   0.828   6.217   6.456 -0.1441 -0.5348 -0.1582
  864MOL0     C13941   0.898   6.142   6.553  0.5957 -0.0027 -0.5430
  864MOL0     C13942   0.877   6.145   6.694 -0.7016 -0.0876  0.1960
  864MOL0     C13943   0.967   6.067   6.777 -0.1624 -1.1151 -0.2033
  864MOL0     C13944   1.079   6.005   6.726 -0.3543  1.0786  0.1675
  864MOL0     C13945   1.180   5.927   6.815 -0.5152 -0.0882  0.2172
  864MOL0     O13946   1.260   5.832   6.762 -0.0637 -0.4502 -0.0367
  864MOL0     C13947   1.355   5.762   6.835 -0.2026  0.8681  1.2455
  864MOL0     C13948   1.316   5.664   6.926 -0.6508 -0.3108  1.0610
  864MOL0     C13949   1.411   5.583   6.991  0.4140  0.4845 -0.0871
  864MOL0     C13950   1.549   5.589   6.962 -0.7978  0.1534 -0.4018
  864MOL0     O13951   1.638   5.512   7.037 -0.3333  0.7675  0.0688
  864MOL0     C13952   1.756   5.462   6.970  1.1107 -1.4775 -0.0927
  864MOL0     C13953   1.799   5.343   7.041 -0.6626  0.7102 -0.9711
  864MOL0     C13954   1.868   5.235   6.951  0.2659  0.6797  0.0932
  864MOL0     C13955   1.943   5.130   7.047  0.4434 -0.1710 -0.0053
  864MOL0     C13956   2.038   5.054   6.965  0.2842 -0.2258  0.0497
  864MOL0     C13957   2.097   4.937   7.042  0.3767  0.5716 -0.2455
  864MOL0     C13958   2.025   4.797   7.024 -0.7955 -0.3822 -0.4096
  864MOL0     C13959   2.118   4.695   7.101  0.5584 -0.5712 -0.3711
  864MOL0    Cl13960   2.036   4.534   7.111  0.0929 -0.1438 -0.3437
  864MOL0     C13961   1.590   5.692   6.870 -0.7652 -0.2237  0.4857
  864MOL0     C13962   1.492   5.775   6.806  0.0377  0.1444 -0.5133
  864MOL0     O13963   1.175   5.953   6.931  0.1679 -0.8403 -1.1854
  864MOL0     C13964   1.098   6.017   6.587  0.0818  0.0367  1.0912
  864MOL0     C13965   1.009   6.083   6.499  0.6000  0.5046  0.7335
  864MOL0     N13966   0.591   6.098   6.874  0.1214  0.4075  0.4782
  864MOL0     N13967   0.628   6.059   6.987 -0.2084  0.8845 -1.0691
  864MOL0     C13968   1.605   6.460   7.589 -0.7242  0.7881 -0.1653
  864MOL0     C13969   1.705   6.399   7.673  0.5564  0.8237  0.5653
  864MOL0     C13970   2.133   6.242   7.782  0.8579 -0.7293 -0.0015
  864MOL0     C13971   2.269   6.275   7.760 -0.1734  0.0794  0.5251
  864MOL0     C13972   2.362   6.214   7.836 -0.8145  0.9165 -0.4781
  864MOL0     C13973   2.337   6.108   7.926 -0.2922 -0.6585 -0.3386
  864MOL0     O13974   2.444   6.054   7.987 -0.1593 -0.7693 -0.2101
  864MOL0     C13975   2.421   5.932   8.057 -0.3783 -0.3130  0.5408
  864MOL0     C13976   2.559   5.893   8.116  0.0699 -0.1357 -0.7994
  864MOL0     C13977   2.615   6.002   8.207 -0.5088  0.2913  0.8637
  864MOL0     C13978   2.538   6.052   8.326  1.4084 -0.5647 -0.7033
  864MOL0     C13979   2.623   6.160   8.381  0.3681 -0.1169  0.7265
  864MOL0     C13980   2.666   6.255   8.446 -1.0577 -0.7501 -0.1630
  864MOL0     C13981   2.205   6.065   7.935 -0.2599 -0.0950 -1.0352
  864MOL0     C13982   2.110   6.141   7.872  0.3663  0.6951  0.3379
  864MOL0     H13983   1.873   6.226   7.431  1.2345  1.3306 -0.3519
  864MOL0     H13984   1.690   6.290   7.298  2.1680 -0.5416  0.7685
  864MOL0     H13985   1.461   6.357   7.245 -0.7698  1.0589 -1.2750
  864MOL0     H13986   1.573   6.495   7.215  1.8412  1.1355  2.0315
  864MOL0     H13987   1.364   6.508   7.098 -2.0641 -0.6466 -0.7130
  864MOL0     H13988   1.362   6.634   7.216 -0.8327 -0.4452 -0.7584
  864MOL0     H13989   1.165   6.544   7.311  1.1976  0.0733 -1.0100
  864MOL0     H13990   1.240   6.386   7.351 -0.8918 -0.4297 -0.1483
  864MOL0     H13991   1.099   6.432   7.079  0.0639 -2.2297 -0.2417
  864MOL0     H13992   1.152   6.286   7.141  0.4098  0.4106 -2.5439
  864MOL0     H13993   0.948   6.464   7.279 -0.4516  1.5370 -3.0569
  864MOL0     H13994   0.993   6.302   7.330  0.9949 -0.9581 -1.5457
  864MOL0     H13995   0.886   6.212   7.107 -0.5619  0.0524  1.1357
  864MOL0     H13996   0.843   6.381   7.078  1.3694 -2.2668 -3.7781
  864MOL0     H13997   0.760   6.263   7.355  0.1688 -2.5987 -0.5958
  864MOL0     H13998   0.665   6.360   7.225  0.8458 -0.2513 -3.5410
  864MOL0     H13999   0.572   6.152   7.288  0.4870 -2.8740  1.3694
  864MOL0     H14000   0.721   6.069   7.234 -1.9902 -1.8400  2.7908
  864MOL0     H14001   0.497   6.351   7.052  2.9128  0.1751  0.9402
  864MOL0     H14002   0.407   6.378   6.805 -0.7529  0.1705  0.9871
  864MOL0     H14003   0.392   6.215   6.726 -3.4713  1.2946  1.3795
  864MOL0     H14004   0.648   6.405   6.739  1.0002  0.8614 -0.7408
  864MOL0     H14005   0.511   6.440   6.618 -2.8326 -1.1519 -0.2475
  864MOL0     H14006   0.632   6.161   6.613 -3.4780 -1.8406 -2.5475
  864MOL0     H14007   0.538   6.246   6.495  2.1024  0.6359 -0.7672
  864MOL0     H14008   0.792   6.390   6.568 -2.2531  1.3180  1.2083
  864MOL0     H14009   0.718   6.372   6.419  0.9272  0.1330  1.3181
  864MOL0     H14010   0.796   6.202   6.739  0.9476  0.6464  2.4091
  864MOL0     H14011   0.942   6.065   6.883 -0.3892  2.7451 -0.0537
  864MOL0     H14012   1.208   5.671   6.935 -0.9207  0.0300 -1.5513
  864MOL0     H14013   1.373   5.517   7.068 -1.6832 -0.8600 -2.1277
  864MOL0     H14014   1.824   5.546   6.957 -2.3495  1.2692 -2.3570
  864MOL0     H14015   1.720   5.435   6.871 -3.7455 -2.4357  1.6467
  864MOL0     H14016   1.710   5.290   7.076  1.5414 -1.6217  1.6172
  864MOL0     H14017   1.868   5.367   7.122 -0.9364  0.7983 -0.7630
  864MOL0     H14018   1.941   5.274   6.879 -0.1888  0.4331 -0.5125
  864MOL0     H14019   1.791   5.185   6.891  0.3344  1.2610 -0.4875
  864MOL0     H14020   2.008   5.189   7.113 -0.7007 -0.8613  1.7926
  864MOL0     H14021   1.872   5.062   7.095 -0.2759  0.2770 -0.4233
  864MOL0     H14022   2.113   5.123   6.926 -0.4794  0.5452 -0.0860
  864MOL0     H14023   1.976   5.016   6.883 -2.6818 -0.7068  2.3550
  864MOL0     H14024   2.084   4.964   7.147 -3.2115 -0.2987 -0.3301
  864MOL0     H14025   2.200   4.932   7.007  0.4309 -1.3656  0.0878
  864MOL0     H14026   1.925   4.811   7.068  0.2590  0.8203  1.7658
  864MOL0     H14027   2.017   4.775   6.917 -1.5194 -1.0840 -0.2262
  864MOL0     H14028   2.134   4.726   7.205  3.4765 -1.8028 -0.3490
  864MOL0     H14029   2.218   4.690   7.056  1.9934  0.6278  2.3992
  864MOL0     H14030   1.694   5.719   6.856 -1.4189  2.6348  0.5302
  864MOL0     H14031   1.525   5.844   6.729 -0.9146  0.7945 -0.3523
  864MOL0     H14032   1.182   5.966   6.540 -0.9328 -1.7929  1.1538
  864MOL0     H14033   1.037   6.099   6.396 -0.0104  1.0875  0.6595
  864MOL0     H14034   1.531   6.526   7.634 -1.0358 -0.7440  1.6999
  864MOL0     H14035   1.700   6.425   7.779 -0.2031  2.5521  0.1481
  864MOL0     H14036   2.288   6.342   7.676  0.4164 -2.0677 -1.1553
  864MOL0     H14037   2.465   6.243   7.819 -0.7029  0.1721 -1.1218
  864MOL0     H14038   2.390   5.861   7.980 -0.3139  0.8696 -0.6214
  864MOL0     H14039   2.351   5.950   8.139  1.3876 -0.0005  2.0566
  864MOL0     H14040   2.537   5.814   8.189 -2.5990 -0.2636 -1.6233
  864MOL0     H14041   2.636   5.872   8.041  1.6933 -0.4896  0.9100
  864MOL0     H14042   2.640   6.086   8.142  1.7529  0.1245  1.4430
  864MOL0     H14043   2.709   5.970   8.253  0.8841  1.8081 -0.7747
  864MOL0     H14044   2.437   6.087   8.300  0.2499 -1.1333  2.6409
  864MOL0     H14045   2.523   5.975   8.402  1.7461  1.0637  1.0900
  864MOL0     H14046   2.713   6.322   8.515 -0.9107 -0.7473 -0.2667
  864MOL0     H14047   2.160   5.978   7.983  1.2292 -0.9400 -1.1135
  864MOL0     H14048   2.005   6.123   7.889  0.6721 -0.6853  0.8840
  865MOL0     O14049   5.865   4.630   2.628  0.7290 -0.5393 -0.4974
  865MOL0     C14050   5.870   4.684   2.733  0.7681 -0.7189  0.0996
  865MOL0     O14051   5.903   4.617   2.852 -0.0452  0.8233 -0.7490
  865MOL0     C14052   5.981   4.501   2.851  0.5854  0.5023 -1.6191
  865MOL0     C14053   6.098   4.490   2.787 -0.2123  0.0906 -0.4690
  865MOL0     C14054   6.179   4.380   2.799 -0.1775 -0.7991 -0.0516
  865MOL0     C14055   6.136   4.275   2.880 -1.0307 -0.4553  0.6289
  865MOL0     O14056   6.228   4.175   2.904  0.3696  0.1229 -0.0569
  865MOL0     C14057   6.181   4.040   2.898  0.3994 -0.2800 -0.7828
  865MOL0     C14058   6.301   3.962   2.926  0.3045  1.0239 -0.1409
  865MOL0     C14059   6.272   3.819   2.951  0.4414 -0.3521  0.0975
  865MOL0     C14060   6.402   3.759   2.990  0.5229 -0.0451 -0.4951
  865MOL0     C14061   6.389   3.620   3.058  0.3317 -0.5049  0.2840
  865MOL0     C14062   6.358   3.634   3.206  0.5261 -0.8374 -0.2144
  865MOL0     C14063   6.394   3.509   3.282 -0.0274 -1.3204  0.9381
  865MOL0     C14064   6.292   3.497   3.406 -0.7393 -0.2041 -0.1058
  865MOL0     N14065   6.333   3.603   3.502  0.3407 -0.2182  0.0210
  865MOL0     C14066   6.432   3.587   3.609  0.8023 -0.4292  0.2142
  865MOL0     C14067   6.423   3.706   3.680  0.0249 -0.3759 -0.8175
  865MOL0     C14068   6.502   3.733   3.810 -1.1624 -0.3338  0.7237
  865MOL0     C14069   6.492   3.886   3.851  1.1713 -0.0758 -0.5461
  865MOL0     C14070   6.360   3.921   3.918 -0.8203  0.0189 -0.4796
  865MOL0     C14071   6.343   4.061   3.978  0.2184 -1.4728 -0.4494
  865MOL0     O14072   6.206   4.086   3.983 -0.0490  0.6444 -0.7533
  865MOL0     C14073   6.140   4.160   3.893  0.4816 -0.1699  0.0749
  865MOL0     C14074   6.193   4.199   3.769  0.0022 -0.5791 -0.0873
  865MOL0     C14075   6.111   4.266   3.689  0.4642  0.3874  1.1219
  865MOL0     C14076   5.970   4.276   3.710  0.0290  0.3441  0.3383
  865MOL0     C14077   5.892   4.333   3.601 -0.1382 -0.1891  0.8924
  865MOL0     O14078   5.946   4.352   3.482 -0.2777 -0.4412 -0.7453
  865MOL0     C14079   5.856   4.383   3.377 -0.2481 -0.0540 -0.4794
  865MOL0     C14080   5.860   4.511   3.321 -0.4764 -0.6602  0.0671
  865MOL0     C14081   5.769   4.553   3.214 -0.5212  0.3275  0.0679
  865MOL0     C14082   5.676   4.460   3.161  0.0435  0.5828  0.5161
  865MOL0     O14083   5.599   4.500   3.051 -0.9401 -0.0211 -0.1892
  865MOL0     C14084   5.500   4.414   3.003 -0.9836  0.5465  0.2658
  865MOL0     C14085   5.437   4.464   2.872  0.4631 -0.6317 -0.6563
  865MOL0     C14086   5.332   4.374   2.806 -0.1637 -0.8537  0.1321
  865MOL0     C14087   5.186   4.409   2.861  0.0430 -0.8506 -0.8420
  865MOL0     C14088   5.076   4.389   2.760  0.9899  0.4288  0.7719
  865MOL0     C14089   5.047   4.235   2.754  0.0817  0.0861 -0.2393
  865MOL0     C14090   4.953   4.186   2.641 -0.2957  0.8230 -0.0822
  865MOL0     C14091   5.038   4.184   2.510  0.5234  0.1179  0.0497
  865MOL0    Cl14092   4.922   4.153   2.382 -0.0126 -0.0040 -0.1846
  865MOL0     C14093   5.670   4.326   3.214  0.3213 -1.0460  0.1176
  865MOL0     C14094   5.760   4.292   3.320  0.6054 -0.4692 -0.2178
  865MOL0     O14095   5.774   4.351   3.632 -0.5737  0.1513  0.5903
  865MOL0     C14096   5.923   4.229   3.831 -0.0940  0.4011 -0.7788
  865MOL0     C14097   6.002   4.163   3.917  0.7980  0.4393  0.3720
  865MOL0     N14098   6.327   3.789   3.624 -0.0583 -0.7692  0.4115
  865MOL0     N14099   6.273   3.723   3.521 -0.3641 -0.0171  0.2188
  865MOL0     C14100   6.025   4.283   2.951 -0.3186  0.1676 -0.2808
  865MOL0     C14101   5.943   4.397   2.933  0.3079 -0.1960  0.3173
  865MOL0     C14102   5.775   4.798   2.752  0.3438 -0.0284 -0.3103
  865MOL0     C14103   5.653   4.800   2.682  0.2390 -0.7371 -0.3158
  865MOL0     C14104   5.570   4.916   2.691 -0.4471 -0.9801  0.1197
  865MOL0     C14105   5.601   5.017   2.785  0.1560  0.5120  1.1988
  865MOL0     O14106   5.539   5.138   2.784 -0.6101 -0.2116  0.6908
  865MOL0     C14107   5.406   5.141   2.739 -0.0640  0.1004 -0.4667
  865MOL0     C14108   5.344   5.267   2.788  0.1070 -0.3846 -0.0898
  865MOL0     C14109   5.330   5.279   2.937 -0.3375 -1.0891 -0.7080
  865MOL0     C14110   5.275   5.412   2.987 -1.2861 -0.5910 -0.1864
  865MOL0     C14111   5.132   5.420   2.984 -0.1264  0.0132  0.5343
  865MOL0     C14112   5.018   5.416   2.964 -0.7733 -0.3544  0.8529
  865MOL0     C14113   5.715   5.012   2.858 -0.1962  0.5034  0.8178
  865MOL0     C14114   5.806   4.904   2.844 -0.1477  0.4718 -0.6979
  865MOL0     H14115   6.147   4.567   2.728  1.0816 -2.2799 -2.6592
  865MOL0     H14116   6.274   4.394   2.747  0.1291 -0.5209  0.5790
  865MOL0     H14117   6.148   4.012   2.797  0.9523  0.8244 -1.2808
  865MOL0     H14118   6.100   4.015   2.967  0.6692 -2.5713 -1.2202
  865MOL0     H14119   6.359   4.002   3.010  3.2863 -0.9986 -1.0551
  865MOL0     H14120   6.369   3.974   2.841  1.6738 -1.7948  0.4502
  865MOL0     H14121   6.226   3.766   2.867  4.7044 -2.7321 -1.0611
  865MOL0     H14122   6.197   3.816   3.030  0.2916 -1.0387 -0.0586
  865MOL0     H14123   6.473   3.751   2.906  1.7870  2.0048  0.3100
  865MOL0     H14124   6.442   3.818   3.073  2.2414 -3.5605  1.4349
  865MOL0     H14125   6.487   3.571   3.056  0.2198 -0.7166 -0.6509
  865MOL0     H14126   6.311   3.561   3.009  0.6171 -0.3065 -0.4270
  865MOL0     H14127   6.250   3.653   3.211  0.6988  0.6105 -1.3754
  865MOL0     H14128   6.396   3.730   3.243 -3.4013  1.1769 -0.7600
  865MOL0     H14129   6.385   3.427   3.210  1.7313 -1.8308  1.2633
  865MOL0     H14130   6.494   3.520   3.325  0.0779  0.3972  0.3293
  865MOL0     H14131   6.311   3.401   3.455  1.7293  0.0911 -0.3196
  865MOL0     H14132   6.185   3.501   3.385 -0.6203  0.1740 -0.6545
  865MOL0     H14133   6.488   3.499   3.637  1.2937 -1.5904 -3.8685
  865MOL0     H14134   6.607   3.712   3.787 -0.7838  1.5294  0.6060
  865MOL0     H14135   6.474   3.669   3.894  0.3129 -2.7020 -0.4793
  865MOL0     H14136   6.516   3.956   3.770 -0.3173 -0.0180 -0.9615
  865MOL0     H14137   6.572   3.909   3.922  0.2922  0.5889  0.2457
  865MOL0     H14138   6.270   3.905   3.857 -1.3048  2.2567 -0.4599
  865MOL0     H14139   6.352   3.840   3.991 -1.0484 -4.4377 -4.9324
  865MOL0     H14140   6.389   4.149   3.930 -0.4342 -0.3978  0.8337
  865MOL0     H14141   6.391   4.071   4.076 -1.3653  1.3273  0.1364
  865MOL0     H14142   6.297   4.181   3.744  0.1353  0.1339 -0.0806
  865MOL0     H14143   6.156   4.306   3.599 -1.6342  0.7860  0.2082
  865MOL0     H14144   5.941   4.574   3.359  0.3625 -0.8894 -1.2616
  865MOL0     H14145   5.779   4.650   3.167 -0.0942  0.5384  0.5878
  865MOL0     H14146   5.423   4.400   3.079 -1.1725  0.3004  0.0324
  865MOL0     H14147   5.561   4.325   2.982  2.1418  2.0619  2.2104
  865MOL0     H14148   5.516   4.464   2.795  0.6194 -0.0888 -0.4989
  865MOL0     H14149   5.391   4.561   2.891 -2.6676 -2.2653  0.8569
  865MOL0     H14150   5.339   4.268   2.833 -4.2359 -1.6683 -1.2004
  865MOL0     H14151   5.338   4.401   2.700 -2.7016  2.4025  0.6524
  865MOL0     H14152   5.171   4.342   2.947  2.0634 -0.3411 -0.0388
  865MOL0     H14153   5.179   4.514   2.891 -0.6292 -2.1114  4.5011
  865MOL0     H14154   5.091   4.439   2.664 -0.7867 -0.4224  0.0097
  865MOL0     H14155   4.989   4.444   2.799 -0.5136  2.0323 -4.0976
  865MOL0     H14156   4.999   4.231   2.852  1.7635  3.7616  0.8931
  865MOL0     H14157   5.140   4.179   2.764 -0.0089  0.0132  0.2345
  865MOL0     H14158   4.929   4.083   2.669  4.9715 -0.0024  2.9110
  865MOL0     H14159   4.865   4.250   2.644 -0.2461  0.9634  3.6609
  865MOL0     H14160   5.100   4.095   2.524 -1.2588 -0.8590  2.4515
  865MOL0     H14161   5.097   4.275   2.500 -1.8928  2.1016  2.2800
  865MOL0     H14162   5.601   4.256   3.167  2.0416 -1.5064 -1.8648
  865MOL0     H14163   5.764   4.188   3.353  0.2184 -1.1890 -2.2762
  865MOL0     H14164   5.815   4.234   3.837 -0.0792 -0.4065  0.8272
  865MOL0     H14165   5.972   4.117   4.011  2.7608 -3.6839 -0.7901
  865MOL0     H14166   6.003   4.207   3.025 -0.8141 -0.0528 -0.6513
  865MOL0     H14167   5.846   4.390   2.982 -0.7027 -3.4935 -1.8439
  865MOL0     H14168   5.619   4.727   2.609  0.7363 -0.4910 -0.7998
  865MOL0     H14169   5.493   4.917   2.615 -1.0036  0.0507  0.6678
  865MOL0     H14170   5.352   5.049   2.765 -0.0848 -0.5050 -2.4457
  865MOL0     H14171   5.416   5.142   2.630  1.9138  2.3997 -0.3412
  865MOL0     H14172   5.391   5.361   2.757  0.3555  0.1222  1.7104
  865MOL0     H14173   5.251   5.271   2.731 -0.8449  0.5855  1.4543
  865MOL0     H14174   5.429   5.259   2.979  0.6065 -3.7887 -3.7795
  865MOL0     H14175   5.272   5.192   2.967  0.6423 -1.2615  0.7716
  865MOL0     H14176   5.322   5.440   3.081  0.2242 -0.1132 -1.0396
  865MOL0     H14177   5.319   5.492   2.928  0.8524 -2.4429 -1.2715
  865MOL0     H14178   4.920   5.422   2.921 -0.7387  1.9270  0.9876
  865MOL0     H14179   5.735   5.087   2.933 -0.5566  0.1036  1.3265
  865MOL0     H14180   5.895   4.900   2.906 -0.0146 -2.7425 -0.9131
  866MOL0     O14181   7.406   4.794   1.013 -0.1538 -0.2185  0.2847
  866MOL0     C14182   7.434   4.751   0.896  0.6602  0.8622 -0.6587
  866MOL0     O14183   7.443   4.832   0.783  0.1352 -0.1319 -0.4317
  866MOL0     C14184   7.395   4.965   0.793  0.0242  1.3427  1.2975
  866MOL0     C14185   7.259   4.985   0.820 -0.0652  0.0219  0.6173
  866MOL0     C14186   7.200   5.107   0.821 -0.5159 -0.5709  0.5313
  866MOL0     C14187   7.272   5.221   0.774 -1.8446  0.7134 -0.3600
  866MOL0     O14188   7.196   5.332   0.743 -0.1924  0.4852  0.3010
  866MOL0     C14189   7.208   5.374   0.605 -0.4247  0.2674  0.1218
  866MOL0     C14190   7.142   5.273   0.502 -0.4014 -0.2172  0.8796
  866MOL0     C14191   7.186   5.305   0.363  0.2538 -0.2971 -0.7800
  866MOL0     C14192   7.081   5.234   0.270 -0.1802 -0.3287  0.1945
  866MOL0     C14193   7.078   5.271   0.120  0.7071  0.8360  0.2182
  866MOL0     C14194   7.207   5.248   0.037 -0.1732  0.6966  0.0435
  866MOL0     C14195   7.266   5.100   0.021 -0.1769 -0.4069  0.2425
  866MOL0     C14196   7.387   5.092  -0.072  0.5039  0.1337  0.3334
  866MOL0     N14197   7.356   5.121  -0.208 -0.2976  0.1406 -0.1414
  866MOL0     C14198   7.339   5.243  -0.273  0.5937 -0.4671 -0.3200
  866MOL0     C14199   7.301   5.216  -0.400 -0.4643 -0.8971  0.5299
  866MOL0     C14200   7.253   5.300  -0.508 -0.0128 -0.0346  0.7636
  866MOL0     C14201   7.102   5.306  -0.533 -0.4048 -0.1510  0.2867
  866MOL0     C14202   7.027   5.362  -0.415  0.6213  0.1063 -0.1191
  866MOL0     C14203   6.896   5.285  -0.391 -0.3005  0.2265  1.2876
  866MOL0     O14204   6.856   5.248  -0.262  0.0159  0.4967 -0.1305
  866MOL0     C14205   6.882   5.116  -0.215  0.1398  0.2510  0.1093
  866MOL0     C14206   6.809   5.078  -0.099 -0.9373  0.5810 -0.6973
  866MOL0     C14207   6.805   4.945  -0.051 -0.6788 -0.6637 -0.6679
  866MOL0     C14208   6.906   4.858  -0.109  0.2528  0.3121 -0.5991
  866MOL0     C14209   6.914   4.717  -0.047  0.3585  0.2228 -0.3598
  866MOL0     O14210   7.035   4.648  -0.086 -0.2899 -0.1436 -0.4415
  866MOL0     C14211   7.065   4.551   0.011  0.6846 -0.3729 -0.6343
  866MOL0     C14212   7.035   4.419   0.018  0.4790  0.0652  0.6138
  866MOL0     C14213   7.073   4.341   0.129  0.3918  0.1944 -0.3220
  866MOL0     C14214   7.132   4.398   0.239 -0.1301  1.0027 -0.2936
  866MOL0     O14215   7.139   4.301   0.336 -0.1458 -0.6310  0.2508
  866MOL0     C14216   7.207   4.322   0.458  0.7659 -1.0523 -0.0734
  866MOL0     C14217   7.284   4.192   0.493 -0.4398  0.2121 -0.3438
  866MOL0     C14218   7.383   4.143   0.383 -0.3467  0.1696 -0.4762
  866MOL0     C14219   7.461   4.011   0.437  0.1723  0.6658  0.8887
  866MOL0     C14220   7.537   3.943   0.318 -0.1037  1.5144 -0.9561
  866MOL0     C14221   7.610   3.808   0.362 -0.0411  0.0510 -0.4293
  866MOL0     C14222   7.709   3.759   0.261 -0.6627 -0.6744  0.4164
  866MOL0     C14223   7.793   3.642   0.301  0.5868  0.2689 -0.5576
  866MOL0    Cl14224   7.684   3.510   0.340 -0.3771 -0.0854  0.5450
  866MOL0     C14225   7.175   4.532   0.238  1.0513  0.5680  0.2634
  866MOL0     C14226   7.143   4.601   0.123  0.0630  0.0315  0.3677
  866MOL0     O14227   6.826   4.671   0.023  0.2304 -0.0532 -0.0157
  866MOL0     C14228   6.984   4.901  -0.216  0.0022 -0.0214  0.6960
  866MOL0     C14229   6.965   5.024  -0.267 -0.4173 -0.3198  0.8879
  866MOL0     N14230   7.284   5.078  -0.402  0.5932  0.2893  0.5988
  866MOL0     N14231   7.318   5.017  -0.297  0.0172 -0.4814 -0.3653
  866MOL0     C14232   7.409   5.208   0.737  0.4116  0.1664  0.1627
  866MOL0     C14233   7.471   5.083   0.744  0.4552 -0.4920 -0.8583
  866MOL0     C14234   7.469   4.610   0.873 -0.1552 -0.6008  0.0273
  866MOL0     C14235   7.469   4.518   0.974 -1.1446 -0.2567 -0.3587
  866MOL0     C14236   7.491   4.385   0.951 -0.6533  0.0289  0.4524
  866MOL0     C14237   7.519   4.340   0.819  0.0687  0.0047 -0.0795
  866MOL0     O14238   7.535   4.206   0.775  0.0660 -0.7712 -0.4040
  866MOL0     C14239   7.510   4.102   0.869  0.1579  0.4004 -0.7735
  866MOL0     C14240   7.543   3.966   0.816 -0.6025  0.9829  0.1589
  866MOL0     C14241   7.471   3.850   0.897 -0.4604  0.2646  0.4640
  866MOL0     C14242   7.355   3.801   0.818  1.6620 -0.4492  0.2261
  866MOL0     C14243   7.236   3.894   0.832 -1.5052  0.4662 -0.0972
  866MOL0     C14244   7.132   3.954   0.830  0.1166  0.0508  0.1094
  866MOL0     C14245   7.524   4.437   0.715  0.9039  0.0443 -0.0447
  866MOL0     C14246   7.497   4.570   0.746 -0.8942  0.3249  0.7857
  866MOL0     H14247   7.207   4.890   0.829  0.3038 -0.3959 -1.2074
  866MOL0     H14248   7.094   5.117   0.841 -0.2630  2.0380  0.9475
  866MOL0     H14249   7.314   5.397   0.588  0.3076 -1.8313  1.4627
  866MOL0     H14250   7.157   5.470   0.593 -0.8881 -0.0099 -0.1051
  866MOL0     H14251   7.033   5.282   0.507 -0.9257  0.7921 -5.1855
  866MOL0     H14252   7.172   5.170   0.523 -1.5550 -0.8409 -0.3715
  866MOL0     H14253   7.289   5.273   0.342  0.7389  0.8889 -0.3092
  866MOL0     H14254   7.165   5.411   0.345 -0.2059 -0.1249  0.6056
  866MOL0     H14255   7.111   5.129   0.280  1.4960  0.3577  4.4214
  866MOL0     H14256   6.977   5.254   0.299 -0.8412 -2.7437 -0.2821
  866MOL0     H14257   7.057   5.377   0.109  0.5568  0.5615 -2.8021
  866MOL0     H14258   6.996   5.219   0.070  1.8607  0.3751 -1.2553
  866MOL0     H14259   7.292   5.307   0.072  2.9191 -1.9685 -2.3595
  866MOL0     H14260   7.183   5.290  -0.061 -2.9037  0.2951  0.4633
  866MOL0     H14261   7.307   5.062   0.115  1.2927  1.0390  0.2308
  866MOL0     H14262   7.186   5.033  -0.012 -1.0778  0.6012  0.3407
  866MOL0     H14263   7.409   4.987  -0.095 -1.6094  0.3213 -3.1452
  866MOL0     H14264   7.475   5.149  -0.041  0.6936  1.1888 -1.9664
  866MOL0     H14265   7.337   5.343  -0.232  0.7401 -0.4433 -0.3706
  866MOL0     H14266   7.311   5.276  -0.597 -2.4609 -1.6157 -0.5351
  866MOL0     H14267   7.269   5.405  -0.483  1.3874 -0.1667  0.5035
  866MOL0     H14268   7.055   5.214  -0.569 -0.9185  0.1741  0.1178
  866MOL0     H14269   7.093   5.377  -0.616  1.4144  0.1845  0.3466
  866MOL0     H14270   7.097   5.336  -0.335  1.4443 -0.1876 -0.9152
  866MOL0     H14271   7.006   5.469  -0.419  0.1895  0.2364  3.3127
  866MOL0     H14272   6.897   5.191  -0.448  0.7118 -0.0735  1.7641
  866MOL0     H14273   6.821   5.346  -0.441 -1.1865 -3.1257 -1.9583
  866MOL0     H14274   6.736   5.152  -0.067 -0.2728  0.1181  2.1269
  866MOL0     H14275   6.731   4.912   0.020 -1.0664 -1.2687 -1.3493
  866MOL0     H14276   6.989   4.367  -0.066 -0.9539  2.7989 -0.3927
  866MOL0     H14277   7.037   4.239   0.130  2.0399 -0.4263  1.1218
  866MOL0     H14278   7.119   4.343   0.519 -0.0628 -2.2189 -0.8297
  866MOL0     H14279   7.274   4.408   0.450  1.6373 -1.5725  1.2499
  866MOL0     H14280   7.205   4.120   0.515  1.1758 -0.8744  2.4752
  866MOL0     H14281   7.357   4.196   0.575  3.8579  1.3434 -3.8487
  866MOL0     H14282   7.458   4.221   0.366 -1.1451  0.5976 -2.2193
  866MOL0     H14283   7.333   4.131   0.286  1.5420  2.5332 -1.8528
  866MOL0     H14284   7.536   4.038   0.512 -0.7732 -0.0995  2.1347
  866MOL0     H14285   7.390   3.947   0.489 -2.5552  2.1013 -0.8376
  866MOL0     H14286   7.602   4.017   0.270 -0.2467  0.3352 -3.0611
  866MOL0     H14287   7.465   3.910   0.243 -0.3587 -0.6644  0.1800
  866MOL0     H14288   7.529   3.735   0.379  0.3589 -0.2587  0.2114
  866MOL0     H14289   7.655   3.826   0.460 -0.3271 -2.5101  0.2701
  866MOL0     H14290   7.653   3.746   0.168  1.5069 -1.6329 -0.8213
  866MOL0     H14291   7.780   3.840   0.243  0.3252 -1.3786  1.0209
  866MOL0     H14292   7.860   3.650   0.387  1.6162  0.8566 -1.3954
  866MOL0     H14293   7.868   3.610   0.228  1.1372 -0.2059  0.2012
  866MOL0     H14294   7.231   4.577   0.320  0.2853 -1.9329  2.2821
  866MOL0     H14295   7.191   4.696   0.141  1.3049 -0.6820  0.9964
  866MOL0     H14296   7.061   4.835  -0.254 -2.0603 -1.9806 -0.2980
  866MOL0     H14297   7.037   5.041  -0.346  0.6955 -2.0191  1.4745
  866MOL0     H14298   7.476   5.284   0.699 -1.2303  0.5677 -2.1101
  866MOL0     H14299   7.576   5.067   0.720  1.2201 -1.4297  2.6544
  866MOL0     H14300   7.465   4.557   1.076  2.0194 -1.6281  0.4150
  866MOL0     H14301   7.481   4.311   1.030 -0.6825 -0.4046  0.0461
  866MOL0     H14302   7.409   4.115   0.909  0.3218  2.2207 -0.8379
  866MOL0     H14303   7.577   4.122   0.954 -1.0660 -1.0108  0.6035
  866MOL0     H14304   7.515   3.950   0.711  1.3869 -2.7387  0.0503
  866MOL0     H14305   7.652   3.955   0.821 -0.4673  1.8082 -0.5525
  866MOL0     H14306   7.447   3.873   1.002  1.8121  0.8441  0.9145
  866MOL0     H14307   7.551   3.776   0.902  0.4240  0.9880 -1.8936
  866MOL0     H14308   7.365   3.776   0.712  0.4588 -0.5212  0.1123
  866MOL0     H14309   7.332   3.712   0.877 -0.9947  0.9834  1.5477
  866MOL0     H14310   7.048   4.021   0.826  1.5671  2.0310  0.7557
  866MOL0     H14311   7.545   4.392   0.618  2.1727 -0.2081  0.3317
  866MOL0     H14312   7.488   4.649   0.672 -1.2759  2.2198  2.7496
  867MOL0     O14313   6.264   4.145   2.080  0.5909 -0.8826  0.2330
  867MOL0     C14314   6.177   4.107   2.000 -0.2403  1.0830 -0.2578
  867MOL0     O14315   6.068   4.177   1.950  0.3737 -0.2755 -0.0900
  867MOL0     C14316   6.047   4.302   2.006  0.0138  1.1945  0.1238
  867MOL0     C14317   5.998   4.306   2.138  0.6597 -0.7456 -0.6468
  867MOL0     C14318   5.969   4.428   2.200 -0.2185  0.3101  0.2082
  867MOL0     C14319   5.984   4.545   2.131  0.4407 -0.4412  0.4273
  867MOL0     O14320   5.954   4.664   2.180 -0.0100  0.3380  0.2995
  867MOL0     C14321   5.884   4.680   2.303  0.6746  0.0894 -1.1718
  867MOL0     C14322   5.821   4.812   2.316 -0.1421 -0.6207 -1.2994
  867MOL0     C14323   5.742   4.845   2.200 -0.0760 -1.2441  0.2387
  867MOL0     C14324   5.630   4.945   2.232 -0.4880 -0.4070  0.9879
  867MOL0     C14325   5.531   4.990   2.116  0.3478 -0.3972 -0.6766
  867MOL0     C14326   5.591   5.069   2.005 -1.1497 -0.5521 -0.6407
  867MOL0     C14327   5.643   5.200   2.055  0.3875  0.0737 -0.4069
  867MOL0     C14328   5.750   5.265   1.948  1.3778 -0.3313  0.4057
  867MOL0     N14329   5.690   5.273   1.810 -0.4423 -0.1484  0.2772
  867MOL0     C14330   5.573   5.331   1.779  0.5631 -0.6226  1.5779
  867MOL0     C14331   5.565   5.314   1.643 -0.0872 -0.2039 -1.1775
  867MOL0     C14332   5.457   5.361   1.558  0.7685  0.2658  1.0626
  867MOL0     C14333   5.504   5.395   1.414 -0.9512 -0.0982  0.3565
  867MOL0     C14334   5.626   5.494   1.411  0.7037  0.3750  0.5476
  867MOL0     C14335   5.695   5.513   1.285  0.4089 -0.1652 -0.0013
  867MOL0     O14336   5.767   5.637   1.272  0.4771  0.3275  0.1771
  867MOL0     C14337   5.886   5.633   1.337  0.0839  0.2178 -0.0002
  867MOL0     C14338   5.989   5.553   1.287 -0.4669 -0.1438  0.1566
  867MOL0     C14339   6.119   5.554   1.347 -0.0952  0.1873  0.0599
  867MOL0     C14340   6.153   5.635   1.450  0.0277 -0.1774  0.3868
  867MOL0     C14341   6.291   5.645   1.511 -0.3772  0.6037  0.1660
  867MOL0     O14342   6.319   5.749   1.597 -0.3927  0.3748 -0.1505
  867MOL0     C14343   6.442   5.762   1.653 -0.3256  0.2263 -0.4759
  867MOL0     C14344   6.453   5.803   1.787  0.1668  0.0876  0.1865
  867MOL0     C14345   6.577   5.795   1.851 -0.4431  0.0007 -0.4366
  867MOL0     C14346   6.696   5.767   1.782  0.0078 -0.3041  0.6644
  867MOL0     O14347   6.806   5.769   1.853 -0.1718  0.4717 -0.1517
  867MOL0     C14348   6.923   5.807   1.788 -0.5597 -0.0471 -0.6648
  867MOL0     C14349   7.045   5.837   1.886  0.5926  0.3631  1.1213
  867MOL0     C14350   7.048   5.726   1.987 -0.3087 -0.0784  0.2911
  867MOL0     C14351   7.166   5.735   2.089  0.1575 -1.0730 -0.7238
  867MOL0     C14352   7.162   5.632   2.205  0.3450  0.2673  0.0657
  867MOL0     C14353   7.178   5.485   2.163 -0.9806 -0.3274 -0.5276
  867MOL0     C14354   7.052   5.403   2.162 -0.6249  0.0051  0.7038
  867MOL0     C14355   7.055   5.268   2.077  0.2190  0.6814 -0.1096
  867MOL0    Cl14356   7.144   5.149   2.176 -0.1128 -0.0059  0.4318
  867MOL0     C14357   6.682   5.731   1.644 -0.1635 -0.3326 -1.1541
  867MOL0     C14358   6.564   5.733   1.575 -0.0358  0.6524 -0.5204
  867MOL0     O14359   6.366   5.554   1.490 -0.7156  0.1270  0.1986
  867MOL0     C14360   6.045   5.714   1.497 -0.1899  0.3596 -0.0096
  867MOL0     C14361   5.918   5.717   1.438  0.6908 -0.3018 -0.2768
  867MOL0     N14362   5.677   5.246   1.591 -0.1801  0.5800 -0.0971
  867MOL0     N14363   5.747   5.223   1.701  0.0893  0.6799 -0.3110
  867MOL0     C14364   6.025   4.532   1.998  0.2282  0.7059 -0.1790
  867MOL0     C14365   6.061   4.418   1.937  0.5090  0.2273  0.2122
  867MOL0     C14366   6.173   3.964   1.977  0.2106  0.3280 -0.4469
  867MOL0     C14367   6.243   3.882   2.067 -0.4570 -0.1328  0.1693
  867MOL0     C14368   6.253   3.748   2.035 -0.2203 -0.0448  0.9052
  867MOL0     C14369   6.201   3.693   1.912 -1.0693 -0.0604  0.1318
  867MOL0     O14370   6.234   3.566   1.878  0.3020 -0.1446 -0.1490
  867MOL0     C14371   6.375   3.548   1.848 -0.7455  0.3582  0.3783
  867MOL0     C14372   6.418   3.401   1.862 -0.2115 -1.2982 -1.6011
  867MOL0     C14373   6.339   3.328   1.756  0.0575  0.2431 -0.2852
  867MOL0     C14374   6.333   3.178   1.778 -1.0496  0.3631 -1.0448
  867MOL0     C14375   6.301   3.146   1.917  0.1729 -0.3865  0.6850
  867MOL0     C14376   6.258   3.113   2.022  0.7234  1.0588  0.5594
  867MOL0     C14377   6.149   3.778   1.818 -0.2456  0.3315  0.3730
  867MOL0     C14378   6.121   3.907   1.865 -0.6020 -0.0658  0.5474
  867MOL0     H14379   5.987   4.207   2.181 -0.1417  0.0373  1.0496
  867MOL0     H14380   5.936   4.401   2.300  0.8416  0.6660  0.6676
  867MOL0     H14381   5.947   4.644   2.385 -1.9159 -1.3311  0.3155
  867MOL0     H14382   5.796   4.615   2.308 -0.4496  1.6051 -0.6767
  867MOL0     H14383   5.890   4.892   2.342  2.0745 -1.4676 -4.0428
  867MOL0     H14384   5.752   4.796   2.400 -0.8826 -2.4612 -2.1938
  867MOL0     H14385   5.695   4.754   2.161  1.4203 -1.8574 -0.1874
  867MOL0     H14386   5.811   4.877   2.121 -0.9020 -1.2813 -0.5233
  867MOL0     H14387   5.562   4.898   2.304 -0.0610  1.1539  2.4835
  867MOL0     H14388   5.685   5.030   2.273 -1.7195  0.1545  1.5306
  867MOL0     H14389   5.443   5.034   2.162  0.1803 -2.3930  1.0581
  867MOL0     H14390   5.491   4.895   2.077  1.3437 -0.0035 -2.8361
  867MOL0     H14391   5.509   5.091   1.936 -2.1745  0.3147  0.7927
  867MOL0     H14392   5.677   5.023   1.955  0.1834  0.9323  0.1743
  867MOL0     H14393   5.561   5.267   2.081  1.9516  2.3313 -0.9296
  867MOL0     H14394   5.707   5.185   2.143  1.6156  0.8027 -1.1449
  867MOL0     H14395   5.845   5.212   1.937  2.0360  1.3050 -4.4613
  867MOL0     H14396   5.778   5.366   1.978  0.4246 -0.6395  2.4641
  867MOL0     H14397   5.503   5.378   1.847 -1.3292 -0.8991 -0.0759
  867MOL0     H14398   5.420   5.457   1.594  3.0203  0.9464  1.6857
  867MOL0     H14399   5.372   5.292   1.547  2.6151 -1.7546 -3.0071
  867MOL0     H14400   5.431   5.423   1.337  2.7692 -0.5690 -3.7808
  867MOL0     H14401   5.538   5.294   1.389 -0.3471  0.0784  0.4490
  867MOL0     H14402   5.585   5.592   1.436 -0.4377  1.0896 -3.3574
  867MOL0     H14403   5.698   5.458   1.484 -1.1294  0.2584  2.3977
  867MOL0     H14404   5.629   5.518   1.199 -1.6922  2.5959  1.5992
  867MOL0     H14405   5.770   5.433   1.278  1.5409  0.6503  1.8229
  867MOL0     H14406   5.979   5.492   1.198  0.7539 -0.3103  0.1050
  867MOL0     H14407   6.189   5.495   1.289 -1.7504 -2.8538  0.9224
  867MOL0     H14408   6.359   5.822   1.836 -0.0605  0.5266 -0.4094
  867MOL0     H14409   6.576   5.820   1.956  1.6373 -2.7003  0.3613
  867MOL0     H14410   6.911   5.906   1.744  2.3514 -0.1554 -1.9438
  867MOL0     H14411   6.950   5.725   1.720  0.2926 -2.4966  2.4060
  867MOL0     H14412   7.038   5.937   1.931 -1.9013 -0.5821  3.0654
  867MOL0     H14413   7.142   5.830   1.836 -0.1897 -1.6244 -0.2564
  867MOL0     H14414   7.056   5.628   1.938  0.2625  0.3634 -0.5254
  867MOL0     H14415   6.953   5.723   2.041 -0.7329  0.7274 -0.3963
  867MOL0     H14416   7.266   5.729   2.045  0.9947  0.9469  0.7880
  867MOL0     H14417   7.168   5.832   2.139  1.6455  1.1287 -4.6492
  867MOL0     H14418   7.067   5.637   2.258  0.0348 -1.8742 -0.1807
  867MOL0     H14419   7.237   5.655   2.281 -2.1718 -0.3314  2.9055
  867MOL0     H14420   7.246   5.433   2.231 -0.6222 -0.4211 -0.9557
  867MOL0     H14421   7.227   5.475   2.065  0.3931  0.5935  0.0434
  867MOL0     H14422   7.036   5.378   2.268 -0.1993 -1.2167  0.5066
  867MOL0     H14423   6.968   5.462   2.126  0.1148  0.4818 -0.2896
  867MOL0     H14424   7.092   5.292   1.976 -0.3295 -0.1952 -0.5266
  867MOL0     H14425   6.963   5.214   2.056  0.5040  0.3182 -0.4368
  867MOL0     H14426   6.776   5.695   1.604  0.1408 -0.2352 -0.5529
  867MOL0     H14427   6.563   5.704   1.471  2.0727  1.4390 -0.8006
  867MOL0     H14428   6.062   5.787   1.576 -0.4749  0.6637 -0.2253
  867MOL0     H14429   5.839   5.784   1.469 -1.1454 -2.8171  0.8472
  867MOL0     H14430   6.007   4.618   1.934 -6.1156 -0.9688 -1.3304
  867MOL0     H14431   6.104   4.415   1.837 -0.7177 -0.5483 -0.3164
  867MOL0     H14432   6.295   3.910   2.159  1.5542  1.1859 -1.2789
  867MOL0     H14433   6.318   3.687   2.097 -1.2054 -1.7874  0.3041
  867MOL0     H14434   6.423   3.604   1.928  1.8967 -0.2066 -0.6933
  867MOL0     H14435   6.393   3.594   1.750 -1.6174  2.0812  0.9979
  867MOL0     H14436   6.526   3.382   1.855  0.7011  3.1884 -4.4827
  867MOL0     H14437   6.384   3.376   1.962 -0.6270  1.3763 -0.9791
  867MOL0     H14438   6.372   3.349   1.654 -0.8975 -0.8368 -0.8427
  867MOL0     H14439   6.236   3.355   1.776  0.0443 -1.2230  2.0438
  867MOL0     H14440   6.274   3.127   1.701  0.7313  1.8698 -3.5770
  867MOL0     H14441   6.431   3.136   1.753 -0.8106 -1.3320  2.2592
  867MOL0     H14442   6.227   3.081   2.120  0.0055 -0.6553 -0.1867
  867MOL0     H14443   6.114   3.750   1.718  1.6166 -1.1804  0.0927
  867MOL0     H14444   6.063   3.972   1.800  0.6471 -2.3038 -3.0871
  868MOL0     O14445   1.054   6.179   4.002  0.0162 -0.0363  0.3084
  868MOL0     C14446   1.141   6.128   4.073 -0.7213  0.0325 -0.7395
  868MOL0     O14447   1.180   6.003   4.076 -0.2785  0.7560  0.2604
  868MOL0     C14448   1.088   5.898   4.108  0.3042  0.2767 -0.1188
  868MOL0     C14449   1.127   5.766   4.089 -0.3697  0.3174 -0.1844
  868MOL0     C14450   1.038   5.659   4.081 -0.7080  0.3255  0.2102
  868MOL0     C14451   0.898   5.686   4.094  0.7666  0.1476 -0.4952
  868MOL0     O14452   0.796   5.596   4.105 -1.1400 -0.0361 -0.6745
  868MOL0     C14453   0.832   5.457   4.125  0.3922  0.1289 -0.5516
  868MOL0     C14454   0.689   5.398   4.136 -0.2514 -0.3330  0.8567
  868MOL0     C14455   0.619   5.433   4.268 -0.0938 -0.1364 -0.7804
  868MOL0     C14456   0.468   5.403   4.255  0.3404 -0.8883 -0.0018
  868MOL0     C14457   0.398   5.427   4.385  0.8615 -0.1884  0.2056
  868MOL0     C14458   0.241   5.421   4.369  0.0991 -0.7026  0.6244
  868MOL0     C14459   0.180   5.283   4.357  0.8720  0.7771  0.2587
  868MOL0     C14460   0.122   5.239   4.488 -0.1782 -0.2978 -0.8590
  868MOL0     N14461   0.076   5.097   4.499  0.5302 -1.0399 -0.1058
  868MOL0     C14462   0.139   4.986   4.553  0.0782 -0.3116  0.0673
  868MOL0     C14463   0.085   4.877   4.499  0.0097 -0.2797  0.8780
  868MOL0     C14464   0.118   4.734   4.534  0.4689  0.9515 -0.0892
  868MOL0     C14465   0.014   4.666   4.631 -0.2041  0.3343  0.1254
  868MOL0     C14466   0.017   4.724   4.773  0.4659 -0.0652 -1.2630
  868MOL0     C14467  -0.088   4.665   4.869  0.3050  0.3023  0.3348
  868MOL0     O14468  -0.040   4.537   4.927 -0.1617 -0.6708  0.7170
  868MOL0     C14469  -0.137   4.465   5.003  1.4353 -0.0453  0.1612
  868MOL0     C14470  -0.271   4.512   5.037 -0.1757  0.1290 -0.3097
  868MOL0     C14471  -0.352   4.437   5.125 -0.1076  0.4451 -0.6740
  868MOL0     C14472  -0.304   4.309   5.176 -0.1796  0.2142  1.1227
  868MOL0     C14473  -0.381   4.228   5.265 -0.4296  0.3425 -0.9264
  868MOL0     O14474  -0.308   4.132   5.324  0.1159 -0.1743 -0.5475
  868MOL0     C14475  -0.316   4.123   5.460  0.9209  0.1957  0.5236
  868MOL0     C14476  -0.187   4.126   5.522 -0.6163  0.2128  0.0744
  868MOL0     C14477  -0.170   4.094   5.658  0.4842 -1.4920 -0.5516
  868MOL0     C14478  -0.290   4.074   5.733 -0.4220  0.4973 -0.0332
  868MOL0     O14479  -0.293   4.051   5.864  0.1712  0.2991 -0.0029
  868MOL0     C14480  -0.173   4.056   5.952  0.0295 -0.1304 -0.3715
  868MOL0     C14481  -0.070   3.937   5.943 -0.3641  0.4812 -0.3488
  868MOL0     C14482   0.019   3.922   6.068  0.9348 -0.3259  0.4308
  868MOL0     C14483   0.093   3.792   6.059  0.9105 -0.7037 -0.7082
  868MOL0     C14484   0.131   3.725   6.190 -0.4570  0.2515  1.0330
  868MOL0     C14485   0.248   3.790   6.264 -0.1191 -0.2390  0.0844
  868MOL0     C14486   0.285   3.718   6.393 -0.4353  0.0805  0.8691
  868MOL0     C14487   0.344   3.574   6.352 -0.2418  0.3250 -0.1492
  868MOL0    Cl14488   0.414   3.510   6.507  0.1698  0.1427 -0.2839
  868MOL0     C14489  -0.414   4.076   5.674  1.0251  0.2404  1.1235
  868MOL0     C14490  -0.429   4.096   5.535  0.2154 -0.2256 -0.0719
  868MOL0     O14491  -0.489   4.270   5.310  0.3894  0.1179 -0.2876
  868MOL0     C14492  -0.173   4.273   5.156 -0.7624 -0.7270 -0.8850
  868MOL0     C14493  -0.093   4.344   5.066  0.0632  0.3308  1.3863
  868MOL0     N14494   0.004   4.930   4.392  0.6587 -0.0253  0.2277
  868MOL0     N14495  -0.009   5.060   4.398  0.2510 -0.0335 -0.2772
  868MOL0     C14496   0.859   5.826   4.125 -0.2523 -0.1035 -0.5936
  868MOL0     C14497   0.949   5.925   4.129 -0.0165  0.3765 -0.0779
  868MOL0     C14498   1.215   6.210   4.169 -0.2390  0.0904 -0.0226
  868MOL0     C14499   1.328   6.154   4.237 -1.0260  0.5202 -0.0676
  868MOL0     C14500   1.405   6.228   4.325  0.1994 -0.3559  0.0252
  868MOL0     C14501   1.372   6.356   4.355 -0.1423 -0.6142 -0.9511
  868MOL0     O14502   1.448   6.431   4.435 -0.1041  0.2260  0.6166
  868MOL0     C14503   1.576   6.473   4.380  0.1683  0.8728 -1.1075
  868MOL0     C14504   1.560   6.622   4.340 -0.2147 -0.1199 -0.1516
  868MOL0     C14505   1.516   6.706   4.462  1.0793  1.5701  0.4620
  868MOL0     C14506   1.525   6.854   4.424 -0.0617 -0.8422  0.2254
  868MOL0     C14507   1.469   6.889   4.293 -0.7601  0.1812 -0.0139
  868MOL0     C14508   1.410   6.920   4.192  0.7435  0.1532  0.0581
  868MOL0     C14509   1.256   6.418   4.295 -0.3046 -0.6350 -0.2758
  868MOL0     C14510   1.177   6.344   4.201 -0.2680 -0.2129  0.1263
  868MOL0     H14511   1.229   5.730   4.078 -0.7634 -1.3344  1.0427
  868MOL0     H14512   1.066   5.560   4.048  0.1666 -0.3542  2.7089
  868MOL0     H14513   0.887   5.445   4.219 -2.5837 -1.5200  1.1462
  868MOL0     H14514   0.875   5.418   4.033  0.4941  0.3277 -0.5860
  868MOL0     H14515   0.699   5.289   4.130 -0.4211 -0.2932 -0.3861
  868MOL0     H14516   0.641   5.445   4.050  2.6467  3.0006  0.8253
  868MOL0     H14517   0.626   5.541   4.286  3.5908 -0.5248  0.9726
  868MOL0     H14518   0.662   5.379   4.352  0.1270 -0.0952 -0.8645
  868MOL0     H14519   0.427   5.476   4.184 -0.0115 -0.5124  0.5806
  868MOL0     H14520   0.453   5.308   4.204 -1.0947  0.8652 -3.1424
  868MOL0     H14521   0.415   5.530   4.418  0.5433  0.5167 -1.7378
  868MOL0     H14522   0.439   5.355   4.456  0.5301 -1.2259 -0.6374
  868MOL0     H14523   0.221   5.493   4.289  0.8861  2.9792  3.4516
  868MOL0     H14524   0.205   5.476   4.456 -2.4582  0.1377 -0.8419
  868MOL0     H14525   0.094   5.285   4.289 -1.6897  2.6968  3.2866
  868MOL0     H14526   0.251   5.206   4.324  0.9947  0.8783  0.2881
  868MOL0     H14527   0.039   5.306   4.515 -1.5282 -2.7944  1.8806
  868MOL0     H14528   0.194   5.261   4.568 -2.0982  0.0116  0.8779
  868MOL0     H14529   0.217   4.996   4.628  0.6405  1.0992 -0.6712
  868MOL0     H14530   0.215   4.737   4.585  0.1851  1.0241  0.4638
  868MOL0     H14531   0.124   4.674   4.443 -0.1407 -0.2356  0.6210
  868MOL0     H14532   0.042   4.561   4.642  3.1773  1.3458  2.8869
  868MOL0     H14533  -0.084   4.683   4.586  0.4419  0.2699 -1.3953
  868MOL0     H14534   0.118   4.716   4.814  0.6282  2.8491 -0.8321
  868MOL0     H14535   0.004   4.833   4.773 -1.6980 -0.2738  0.0744
  868MOL0     H14536  -0.176   4.656   4.805  1.8147  0.2019 -1.8404
  868MOL0     H14537  -0.111   4.738   4.948 -5.2554 -1.6534  1.0002
  868MOL0     H14538  -0.315   4.610   5.023  0.2632  0.8204  2.5510
  868MOL0     H14539  -0.451   4.478   5.140 -1.5997 -3.2861  0.7418
  868MOL0     H14540  -0.096   4.135   5.465  0.5699  0.1084  1.8736
  868MOL0     H14541  -0.075   4.095   5.711  0.5113 -0.3831 -0.6107
  868MOL0     H14542  -0.198   4.060   6.058 -0.2816 -2.8639 -0.2853
  868MOL0     H14543  -0.117   4.149   5.940 -0.8153  0.9159  2.9063
  868MOL0     H14544  -0.004   3.949   5.856  0.9779  0.4069  0.6283
  868MOL0     H14545  -0.121   3.842   5.929 -2.1830  1.3014  0.4569
  868MOL0     H14546  -0.034   3.910   6.163  2.6460  0.2567  1.5116
  868MOL0     H14547   0.086   4.009   6.058 -0.5154  0.5715 -2.9608
  868MOL0     H14548   0.041   3.710   6.007  1.6894 -0.0660 -2.6034
  868MOL0     H14549   0.177   3.792   5.989 -0.4540 -0.7573 -2.4125
  868MOL0     H14550   0.165   3.622   6.173  1.0360  0.5487  2.0682
  868MOL0     H14551   0.037   3.718   6.247  0.2195  0.7885  2.2572
  868MOL0     H14552   0.222   3.895   6.281 -0.5660 -0.3439  0.0531
  868MOL0     H14553   0.337   3.795   6.200  0.0341  1.6222  0.4005
  868MOL0     H14554   0.363   3.776   6.443 -1.2015  0.9612  1.0752
  868MOL0     H14555   0.196   3.706   6.455 -0.0086  1.7809  1.8705
  868MOL0     H14556   0.415   3.581   6.270 -2.7205  0.9936 -2.3757
  868MOL0     H14557   0.258   3.510   6.329 -1.4261  1.6814  0.3487
  868MOL0     H14558  -0.502   4.042   5.728 -1.1850  1.9748 -1.1197
  868MOL0     H14559  -0.528   4.093   5.490  0.6048 -1.7204 -0.8952
  868MOL0     H14560  -0.132   4.182   5.199  1.1945  0.6116  0.2014
  868MOL0     H14561  -0.000   4.304   5.026  0.1684  1.6986  0.2184
  868MOL0     H14562   0.761   5.844   4.168 -1.3496  0.3087 -3.0830
  868MOL0     H14563   0.922   6.029   4.146  0.7920  0.0996  3.9173
  868MOL0     H14564   1.354   6.054   4.203 -0.0069  0.7536  0.0024
  868MOL0     H14565   1.500   6.192   4.362 -0.2485 -2.7515 -0.9381
  868MOL0     H14566   1.613   6.413   4.297  1.9599 -0.7842  0.7873
  868MOL0     H14567   1.649   6.459   4.460 -1.9943 -1.2010  0.6400
  868MOL0     H14568   1.665   6.644   4.319  0.5293 -2.8430  0.3516
  868MOL0     H14569   1.497   6.635   4.252 -0.4921 -0.1493  0.0392
  868MOL0     H14570   1.576   6.684   4.551 -0.6064  2.2424  1.8069
  868MOL0     H14571   1.411   6.690   4.486  0.0965  0.5136 -3.6766
  868MOL0     H14572   1.466   6.914   4.494  0.0110  1.6190 -1.7081
  868MOL0     H14573   1.624   6.900   4.418 -1.3278  1.8747 -2.9363
  868MOL0     H14574   1.345   6.939   4.110  0.6511 -0.8918 -0.1295
  868MOL0     H14575   1.225   6.514   4.334  1.4625 -0.7779  1.6320
  868MOL0     H14576   1.079   6.377   4.168 -2.2372 -2.7399  2.9367
  869MOL0     O14577   0.435   8.807  11.400 -0.6277  0.1407  0.6591
  869MOL0     C14578   0.375   8.913  11.408 -0.1762 -0.3629  0.7548
  869MOL0     O14579   0.344   8.982  11.521 -0.1302 -0.5513  0.5726
  869MOL0     C14580   0.343   8.932  11.649 -0.0536  0.7604 -0.6673
  869MOL0     C14581   0.358   9.028  11.756 -0.0310  0.7105 -0.4338
  869MOL0     C14582   0.332   8.993  11.892 -0.0396 -0.3094  0.2493
  869MOL0     C14583   0.335   8.858  11.932  0.6049 -0.7704 -1.2028
  869MOL0     O14584   0.300   8.834  12.066  0.2126  0.4415 -0.6778
  869MOL0     C14585   0.290   8.700  12.117 -0.2476  0.0563  0.2987
  869MOL0     C14586   0.166   8.637  12.068  0.4417  0.1788 -0.0075
  869MOL0     C14587   0.040   8.718  12.095  1.2304  0.4814  0.0138
  869MOL0     C14588  -0.080   8.626  12.123 -0.7581  0.1866  0.0253
  869MOL0     C14589  -0.216   8.698  12.107  0.1166  0.4373 -0.0486
  869MOL0     C14590  -0.243   8.793  12.221 -0.0598  0.0842  0.1347
  869MOL0     C14591  -0.378   8.855  12.203  0.3022 -0.2190  0.1058
  869MOL0     C14592  -0.431   8.926  12.336  0.2932  0.4162 -0.7540
  869MOL0     N14593  -0.546   9.007  12.329 -0.4580 -0.0385 -0.3289
  869MOL0     C14594  -0.593   9.065  12.215  0.0190  0.6213 -0.8024
  869MOL0     C14595  -0.720   9.102  12.246  0.3074  0.3682  0.6630
  869MOL0     C14596  -0.818   9.175  12.159 -0.6190  0.0552  0.1390
  869MOL0     C14597  -0.951   9.098  12.168 -0.4304  0.8536 -0.0927
  869MOL0     C14598  -0.943   8.966  12.084  0.4998  0.7245  0.2197
  869MOL0     C14599  -1.078   8.898  12.042 -0.4846 -0.1451 -0.0902
  869MOL0     O14600  -1.052   8.754  12.007  0.7584  0.3644 -0.2867
  869MOL0     C14601  -1.163   8.666  12.007 -0.2205  0.4799 -0.0399
  869MOL0     C14602  -1.293   8.697  12.035  1.6656  1.1891 -0.6407
  869MOL0     C14603  -1.391   8.599  12.036 -0.4323  0.2155  0.4638
  869MOL0     C14604  -1.366   8.462  11.998 -0.5290 -0.4416  0.1695
  869MOL0     C14605  -1.457   8.347  12.025 -1.1360  0.4327  0.4179
  869MOL0     O14606  -1.572   8.367  12.102  0.0063 -0.0132 -0.0849
  869MOL0     C14607  -1.666   8.272  12.129  0.7340 -0.5036  1.0007
  869MOL0     C14608  -1.725   8.262  12.260  0.2399  0.5970  0.2802
  869MOL0     C14609  -1.828   8.169  12.278  1.4280  0.4582  0.1738
  869MOL0     C14610  -1.878   8.100  12.169  1.1001  0.4486 -0.3445
  869MOL0     O14611  -1.990   8.024  12.171  0.5985 -0.0019 -0.0932
  869MOL0     C14612  -2.034   7.973  12.305  0.0934  0.0131  0.8535
  869MOL0     C14613  -1.933   7.890  12.382  0.9635  0.1765 -0.9632
  869MOL0     C14614  -1.884   7.767  12.317 -0.2182  0.5046  0.3597
  869MOL0     C14615  -1.794   7.685  12.407 -0.4041  0.1015 -0.0819
  869MOL0     C14616  -1.808   7.539  12.376 -0.0148 -0.4264 -0.0607
  869MOL0     C14617  -1.702   7.454  12.453 -0.5272 -0.3834  0.5678
  869MOL0     C14618  -1.561   7.488  12.404  0.0803 -0.6756 -0.6702
  869MOL0     C14619  -1.448   7.408  12.472  0.4579  0.1081  0.6355
  869MOL0    Cl14620  -1.435   7.403  12.655  0.0066  0.0394  0.4046
  869MOL0     C14621  -1.823   8.105  12.036 -1.0709 -0.4837 -1.2922
  869MOL0     C14622  -1.712   8.192  12.020  0.4202  0.0516 -1.2083
  869MOL0     O14623  -1.420   8.234  11.985  0.2181 -0.8045  1.1432
  869MOL0     C14624  -1.227   8.432  11.963 -0.2525 -0.3950 -0.5667
  869MOL0     C14625  -1.124   8.532  11.971 -0.0256 -0.1017 -0.4046
  869MOL0     N14626  -0.734   9.083  12.386 -0.8454 -0.2896  0.1211
  869MOL0     N14627  -0.630   9.026  12.434  0.6397 -0.0335  0.6761
  869MOL0     C14628   0.346   8.767  11.836 -0.6048 -0.1824  1.1177
  869MOL0     C14629   0.337   8.797  11.693  0.0987  0.3480  0.3713
  869MOL0     C14630   0.347   8.982  11.275 -0.0760 -0.5468 -0.2069
  869MOL0     C14631   0.365   8.909  11.159 -0.1591  0.2630  0.2457
  869MOL0     C14632   0.350   8.976  11.035 -0.2430  0.0826 -0.3391
  869MOL0     C14633   0.322   9.111  11.031 -0.7732  0.9214  0.5604
  869MOL0     O14634   0.328   9.158  10.908  0.0605 -0.3954  0.7807
  869MOL0     C14635   0.260   9.285  10.879 -1.0398  0.2614 -0.2987
  869MOL0     C14636   0.364   9.404  10.896  0.6601  1.3102  1.2846
  869MOL0     C14637   0.447   9.437  10.774 -0.0237  0.1332 -0.7843
  869MOL0     C14638   0.531   9.569  10.792  0.1870  0.2126 -0.1356
  869MOL0     C14639   0.612   9.581  10.917 -0.7722 -0.6200 -0.3689
  869MOL0     C14640   0.658   9.593  11.027  1.2135  0.5141 -0.3105
  869MOL0     C14641   0.311   9.181  11.151 -0.5566 -1.2533 -0.9107
  869MOL0     C14642   0.323   9.118  11.270 -0.3917  0.4774 -0.3585
  869MOL0     H14643   0.374   9.133  11.735  0.6432  0.6833 -0.0584
  869MOL0     H14644   0.315   9.062  11.973  1.8064 -1.0968  1.3771
  869MOL0     H14645   0.282   8.699  12.226  2.2080 -0.0971  0.5334
  869MOL0     H14646   0.381   8.644  12.092  0.6184  1.7963 -0.6636
  869MOL0     H14647   0.149   8.545  12.124  3.9600  0.1298  1.1961
  869MOL0     H14648   0.165   8.635  11.959 -0.2313  4.6044 -0.2747
  869MOL0     H14649   0.018   8.783  12.010  0.3689  0.5404  0.2745
  869MOL0     H14650   0.059   8.791  12.175  1.2991  0.8975 -0.3744
  869MOL0     H14651  -0.071   8.541  12.055 -1.4856 -1.8192  2.2914
  869MOL0     H14652  -0.077   8.578  12.222 -1.4631 -2.6683 -1.2277
  869MOL0     H14653  -0.293   8.620  12.109 -1.7045  2.1253  1.9148
  869MOL0     H14654  -0.232   8.741  12.008  0.7597  0.3251 -0.1991
  869MOL0     H14655  -0.170   8.874  12.209  0.3952 -0.5555 -1.7723
  869MOL0     H14656  -0.236   8.731  12.311 -1.1943 -1.6683 -0.9246
  869MOL0     H14657  -0.383   8.921  12.116 -0.6009  0.0014  0.3069
  869MOL0     H14658  -0.457   8.782  12.184 -0.9437  0.3090  2.7176
  869MOL0     H14659  -0.348   8.971  12.393  0.3065  1.1325 -1.3186
  869MOL0     H14660  -0.446   8.849  12.411  0.0883  1.1800  0.0044
  869MOL0     H14661  -0.545   9.079  12.119 -2.3841  0.8004 -2.0322
  869MOL0     H14662  -0.773   9.188  12.060 -0.4344 -1.5472 -0.0035
  869MOL0     H14663  -0.840   9.271  12.208 -1.6719  0.0309 -0.2662
  869MOL0     H14664  -1.029   9.153  12.114  1.8253  0.7192 -3.8921
  869MOL0     H14665  -0.983   9.074  12.269 -0.6220 -1.4355 -0.6507
  869MOL0     H14666  -0.895   8.981  11.986  0.9625 -0.6624  0.2124
  869MOL0     H14667  -0.872   8.900  12.135  3.6651  1.0286 -3.3586
  869MOL0     H14668  -1.114   8.944  11.949  2.0095  0.4352 -0.8513
  869MOL0     H14669  -1.150   8.915  12.123 -0.6970 -0.7688 -0.1444
  869MOL0     H14670  -1.324   8.800  12.051 -1.2479  0.3229 -0.1193
  869MOL0     H14671  -1.494   8.621  12.062 -1.2683 -1.9447 -0.7394
  869MOL0     H14672  -1.697   8.330  12.340 -2.9330  2.2775  0.1318
  869MOL0     H14673  -1.873   8.151  12.375 -1.9545 -1.0530 -1.4868
  869MOL0     H14674  -2.120   7.907  12.289  2.0464 -2.3966 -0.5781
  869MOL0     H14675  -2.061   8.058  12.368 -0.4919 -1.3448  2.5081
  869MOL0     H14676  -1.982   7.854  12.474  2.4793 -2.1854 -1.0024
  869MOL0     H14677  -1.855   7.954  12.424  2.0121 -0.0572 -2.4678
  869MOL0     H14678  -1.839   7.789  12.220  2.7398 -0.0318  1.4977
  869MOL0     H14679  -1.972   7.707  12.293 -0.3244  0.2666  1.2934
  869MOL0     H14680  -1.690   7.716  12.393 -0.5610  0.2609 -0.9355
  869MOL0     H14681  -1.810   7.704  12.513  1.6302  1.5137  0.0329
  869MOL0     H14682  -1.808   7.528  12.268 -3.8955 -2.2662 -0.0350
  869MOL0     H14683  -1.904   7.499  12.411 -1.2697  3.2888  1.2722
  869MOL0     H14684  -1.722   7.348  12.437  1.3118 -0.3972 -2.5476
  869MOL0     H14685  -1.699   7.467  12.561  1.9518 -0.8790  0.6275
  869MOL0     H14686  -1.557   7.487  12.295 -0.6453 -1.2283 -0.7007
  869MOL0     H14687  -1.547   7.590  12.439 -2.6459 -0.5448  0.2311
  869MOL0     H14688  -1.362   7.472  12.447 -1.7343  2.1788 -2.4638
  869MOL0     H14689  -1.439   7.310  12.426  0.5718  0.6755 -0.5994
  869MOL0     H14690  -1.867   8.040  11.962 -1.2675 -2.6411  0.5932
  869MOL0     H14691  -1.677   8.191  11.918 -0.2492  0.6210 -1.4492
  869MOL0     H14692  -1.196   8.329  11.948 -2.1244 -1.3545  1.5633
  869MOL0     H14693  -1.022   8.510  11.943 -0.5327 -2.2763 -0.7086
  869MOL0     H14694   0.340   8.665  11.871 -3.3112  0.5542  3.0869
  869MOL0     H14695   0.342   8.713  11.624  2.0158 -0.4933  1.4511
  869MOL0     H14696   0.389   8.804  11.154  0.7863  0.5179 -1.5107
  869MOL0     H14697   0.373   8.921  10.944  1.6581 -1.1680  0.8147
  869MOL0     H14698   0.188   9.311  10.958  0.5278 -0.7457  1.5405
  869MOL0     H14699   0.225   9.300  10.777 -1.2535 -1.9039 -0.5984
  869MOL0     H14700   0.308   9.488  10.936 -0.0412  1.7198 -0.4482
  869MOL0     H14701   0.432   9.374  10.976 -1.2699 -4.6034  1.2320
  869MOL0     H14702   0.378   9.450  10.690 -0.6090 -1.7146 -0.6288
  869MOL0     H14703   0.514   9.355  10.745 -0.0255  0.2128 -1.0144
  869MOL0     H14704   0.593   9.581  10.702  3.1970 -1.4577  1.5645
  869MOL0     H14705   0.460   9.652  10.793  0.1412  0.2297  2.9058
  869MOL0     H14706   0.686   9.595  11.131 -0.7502 -1.5669  0.3296
  869MOL0     H14707   0.305   9.288  11.164 -0.5966 -1.5950  3.0196
  869MOL0     H14708   0.309   9.161  11.368 -1.5624 -1.0403  0.1710
  870MOL0     O14709   8.812   9.733   8.579 -0.3084 -0.6196  0.1063
  870MOL0     C14710   8.826   9.778   8.691  0.3402  0.0911 -0.7005
  870MOL0     O14711   8.842   9.698   8.803 -0.5610  0.2697  0.6116
  870MOL0     C14712   8.779   9.579   8.814 -0.6665  0.0032 -0.2114
  870MOL0     C14713   8.674   9.526   8.736  0.6349 -0.0442  0.0723
  870MOL0     C14714   8.604   9.409   8.779  0.4006  0.2258  0.0001
  870MOL0     C14715   8.636   9.347   8.900  0.7362 -0.8329  0.0216
  870MOL0     O14716   8.573   9.228   8.937 -0.5787 -0.2503 -0.5628
  870MOL0     C14717   8.653   9.128   8.998  0.0672 -0.6640  0.7714
  870MOL0     C14718   8.583   9.002   9.027 -0.6073 -1.2312 -0.5653
  870MOL0     C14719   8.543   8.925   8.904 -0.8426 -0.6108  0.3400
  870MOL0     C14720   8.465   8.798   8.948 -0.7796  0.6408 -0.2074
  870MOL0     C14721   8.397   8.735   8.823  0.0105 -0.4740 -0.4259
  870MOL0     C14722   8.345   8.593   8.852 -0.0358 -0.0084  0.0288
  870MOL0     C14723   8.443   8.478   8.867 -0.0976 -0.0279 -0.2204
  870MOL0     C14724   8.395   8.348   8.931  0.1696 -0.0153  0.1186
  870MOL0     N14725   8.259   8.302   8.896  0.1748  0.1518 -0.2328
  870MOL0     C14726   8.152   8.273   8.975  1.0132 -0.1324  0.1524
  870MOL0     C14727   8.042   8.248   8.903 -0.4818  0.4631  0.9260
  870MOL0     C14728   7.902   8.224   8.961  0.0869  0.5320  0.6061
  870MOL0     C14729   7.862   8.085   9.018  0.1743  0.2615  0.0771
  870MOL0     C14730   7.850   7.967   8.916  0.3993 -0.1480  0.3097
  870MOL0     C14731   7.881   7.835   8.968 -0.2106  0.6492 -1.0112
  870MOL0     O14732   8.002   7.828   9.045  0.4471  0.7049 -1.3699
  870MOL0     C14733   8.036   7.690   9.075  0.3737 -0.5867 -0.5882
  870MOL0     C14734   7.951   7.577   9.068 -0.9126  0.6070 -0.4088
  870MOL0     C14735   7.988   7.444   9.098  0.2439  0.5913  0.2311
  870MOL0     C14736   8.120   7.419   9.149 -0.2045 -0.2754  0.3664
  870MOL0     C14737   8.164   7.286   9.195 -0.1016  0.2921 -0.8690
  870MOL0     O14738   8.079   7.185   9.169 -0.3251 -0.3192  0.1122
  870MOL0     C14739   8.125   7.048   9.191 -0.6240 -0.4453  0.8058
  870MOL0     C14740   8.102   6.968   9.076  0.0683  0.4261 -0.5456
  870MOL0     C14741   8.148   6.833   9.080 -0.7120 -0.3439  0.0865
  870MOL0     C14742   8.206   6.779   9.193 -0.2053  0.1873 -0.2791
  870MOL0     O14743   8.247   6.649   9.206  0.0612  0.1344 -0.2528
  870MOL0     C14744   8.245   6.571   9.078 -1.0363 -0.0524  0.0086
  870MOL0     C14745   8.309   6.435   9.105 -0.5600  0.1650 -0.8953
  870MOL0     C14746   8.464   6.437   9.145 -1.0371  1.1162  0.5481
  870MOL0     C14747   8.511   6.296   9.194  0.5825 -0.1585  0.1783
  870MOL0     C14748   8.669   6.280   9.205 -0.7230  0.5478  0.3946
  870MOL0     C14749   8.715   6.139   9.226  1.1950  0.0728  0.8705
  870MOL0     C14750   8.672   6.089   9.361  0.0243 -0.0920  0.3273
  870MOL0     C14751   8.751   5.961   9.389  0.0522 -0.3385 -0.0784
  870MOL0    Cl14752   8.742   5.956   9.566 -0.1674 -0.2822  0.1128
  870MOL0     C14753   8.228   6.861   9.302 -0.1375 -0.7604 -0.7780
  870MOL0     C14754   8.193   6.999   9.300  0.8587 -0.5998 -1.0434
  870MOL0     O14755   8.267   7.277   9.256  0.7492  0.9341  0.1281
  870MOL0     C14756   8.211   7.528   9.142  0.7358  0.6692 -0.6565
  870MOL0     C14757   8.166   7.661   9.102 -0.3610 -0.4867 -0.2988
  870MOL0     N14758   8.081   8.255   8.769 -1.0973 -0.0998  0.4296
  870MOL0     N14759   8.199   8.304   8.769  0.1783  0.2394 -0.3324
  870MOL0     C14760   8.739   9.404   8.970  0.6008 -0.6771 -0.0421
  870MOL0     C14761   8.807   9.516   8.935  0.4437 -0.4477 -0.4058
  870MOL0     C14762   8.829   9.931   8.712  0.1336 -0.0972  0.4505
  870MOL0     C14763   8.829  10.025   8.606 -0.7652  0.9518  0.0685
  870MOL0     C14764   8.843  10.160   8.627 -1.1834 -0.6817 -0.4140
  870MOL0     C14765   8.856  10.214   8.755  0.6955  0.1115  0.2910
  870MOL0     O14766   8.867  10.351   8.753  0.1607  0.1577 -0.3173
  870MOL0     C14767   8.868  10.411   8.882  0.1660 -0.6468 -0.3552
  870MOL0     C14768   8.850  10.563   8.867  0.4436 -0.1081 -0.5264
  870MOL0     C14769   8.698  10.601   8.857 -0.4281 -0.0505  1.1784
  870MOL0     C14770   8.627  10.541   8.731 -0.5635 -0.0286  0.4592
  870MOL0     C14771   8.513  10.627   8.706  0.3639  0.1670  0.7178
  870MOL0     C14772   8.411  10.691   8.673  0.0631 -0.1638  0.3451
  870MOL0     C14773   8.837  10.123   8.868 -0.3976  0.9064  0.1765
  870MOL0     C14774   8.832   9.981   8.840  0.3138 -0.8094  0.1128
  870MOL0     H14775   8.648   9.565   8.638  0.8908  0.9859  0.4137
  870MOL0     H14776   8.522   9.377   8.716  0.1031 -3.0421  1.7897
  870MOL0     H14777   8.688   9.167   9.094 -1.3082 -0.3195  1.1515
  870MOL0     H14778   8.738   9.108   8.931 -0.4307  0.5514 -0.2549
  870MOL0     H14779   8.495   9.035   9.083 -2.1220 -0.7976 -3.0327
  870MOL0     H14780   8.638   8.936   9.095  0.7165  1.3401  1.0229
  870MOL0     H14781   8.629   8.915   8.836 -1.6957  1.3634 -1.1263
  870MOL0     H14782   8.479   8.992   8.846  0.1976  1.1277  1.1349
  870MOL0     H14783   8.533   8.728   8.997 -0.6469  0.6494 -0.3800
  870MOL0     H14784   8.381   8.815   9.016  1.2052  1.9654  2.0953
  870MOL0     H14785   8.473   8.736   8.744  0.2475  2.1305 -0.2553
  870MOL0     H14786   8.312   8.798   8.795 -0.6795  0.2109  2.7638
  870MOL0     H14787   8.284   8.573   8.764  0.7830  1.3312 -0.8862
  870MOL0     H14788   8.279   8.590   8.939  3.6434  1.2202  3.1459
  870MOL0     H14789   8.491   8.440   8.777  1.0534 -1.4230  0.9279
  870MOL0     H14790   8.523   8.526   8.925  0.2203  1.1846 -1.5953
  870MOL0     H14791   8.385   8.363   9.039 -1.4274  2.4658 -0.3006
  870MOL0     H14792   8.458   8.260   8.915  2.0724  1.1130  1.0398
  870MOL0     H14793   8.149   8.264   9.083  0.6883 -1.9485  0.0162
  870MOL0     H14794   7.828   8.240   8.882  1.5074  0.0545 -0.8928
  870MOL0     H14795   7.880   8.290   9.045 -1.9465 -1.2179  1.5337
  870MOL0     H14796   7.759   8.104   9.050  0.1925  0.6367 -0.0712
  870MOL0     H14797   7.932   8.062   9.099  0.7495 -0.3408 -0.5843
  870MOL0     H14798   7.751   7.958   8.872  0.8456  1.3062 -1.0581
  870MOL0     H14799   7.921   7.990   8.836 -0.3650 -0.1834 -0.3835
  870MOL0     H14800   7.868   7.755   8.895 -1.7528  0.8600 -0.9992
  870MOL0     H14801   7.789   7.819   9.026  0.0812 -1.6499 -1.0992
  870MOL0     H14802   7.846   7.595   9.046 -1.2967 -1.7156 -0.7815
  870MOL0     H14803   7.901   7.380   9.101  1.5377 -1.3302 -1.0039
  870MOL0     H14804   8.041   7.013   8.998 -1.6806 -0.2093  0.3876
  870MOL0     H14805   8.140   6.779   8.986  1.8334  2.3381 -1.8482
  870MOL0     H14806   8.306   6.620   9.001  0.6599  1.8453  2.3810
  870MOL0     H14807   8.141   6.555   9.050 -1.5445 -2.6957  2.8398
  870MOL0     H14808   8.304   6.372   9.016  0.1543 -1.5084  0.1974
  870MOL0     H14809   8.244   6.384   9.177 -1.6279  0.0928 -1.8862
  870MOL0     H14810   8.485   6.515   9.219 -1.7298 -1.2666  3.4459
  870MOL0     H14811   8.526   6.456   9.057 -4.0601 -2.0722 -2.5774
  870MOL0     H14812   8.466   6.281   9.292 -2.9069  2.8774 -0.7532
  870MOL0     H14813   8.473   6.224   9.120 -0.1697  0.7647 -0.3550
  870MOL0     H14814   8.705   6.342   9.288  0.8262  0.7397 -0.3852
  870MOL0     H14815   8.714   6.316   9.112 -1.5818 -1.1082 -0.7008
  870MOL0     H14816   8.823   6.133   9.209  0.8779 -2.2929 -0.8762
  870MOL0     H14817   8.661   6.087   9.147  2.4950  1.7493 -1.2447
  870MOL0     H14818   8.699   6.170   9.429 -1.7856  1.7770 -1.0597
  870MOL0     H14819   8.566   6.063   9.363  0.4151 -1.8241  2.5723
  870MOL0     H14820   8.857   5.960   9.360  0.3165  2.7196  0.4853
  870MOL0     H14821   8.708   5.872   9.342  1.0260 -0.8794  0.0156
  870MOL0     H14822   8.264   6.821   9.396 -0.0368  0.8858 -0.0842
  870MOL0     H14823   8.208   7.063   9.386 -0.4564 -0.1749 -1.1158
  870MOL0     H14824   8.314   7.509   9.167  0.5180 -0.4935 -0.5897
  870MOL0     H14825   8.229   7.748   9.117  0.9539 -0.8515 -3.0681
  870MOL0     H14826   8.778   9.356   9.059  0.7136  0.1449  0.3547
  870MOL0     H14827   8.870   9.560   9.011 -1.8328  0.1348  1.2751
  870MOL0     H14828   8.791   9.985   8.512 -0.2475 -0.5296  0.4706
  870MOL0     H14829   8.843  10.214   8.533  1.5745 -3.6499 -2.3548
  870MOL0     H14830   8.961  10.393   8.937 -1.2469  0.4824  2.6542
  870MOL0     H14831   8.792  10.368   8.948  2.7556 -0.1045  3.2859
  870MOL0     H14832   8.897  10.605   8.957 -0.1231 -1.0198  0.2152
  870MOL0     H14833   8.905  10.595   8.778  0.8532  1.0127  0.1133
  870MOL0     H14834   8.694  10.710   8.863  0.3583 -0.0888  3.8807
  870MOL0     H14835   8.653  10.564   8.950 -3.0727  0.7385  0.3247
  870MOL0     H14836   8.684  10.531   8.639  3.1818  1.0606  2.4357
  870MOL0     H14837   8.590  10.443   8.761 -0.5830  0.4581  2.1853
  870MOL0     H14838   8.316  10.724   8.639  0.2354 -0.0284 -0.0061
  870MOL0     H14839   8.820  10.157   8.970  0.6929  1.1074  0.2946
  870MOL0     H14840   8.831   9.916   8.927  1.3464 -0.8090  0.1316
  871MOL0     O14841   5.191   3.082   0.214 -0.5477  0.8360 -0.0104
  871MOL0     C14842   5.144   3.188   0.191  0.3562  1.2765  0.2213
  871MOL0     O14843   5.091   3.270   0.289  0.3627 -0.5582  0.0513
  871MOL0     C14844   5.056   3.219   0.411  1.6166 -0.5578 -0.5476
  871MOL0     C14845   5.057   3.303   0.525 -0.1823 -0.3621  0.4750
  871MOL0     C14846   5.006   3.254   0.643 -0.3725 -0.3656 -0.0952
  871MOL0     C14847   4.961   3.126   0.660  0.0347  0.1785  0.3068
  871MOL0     O14848   4.902   3.103   0.777  0.8295  0.0145  0.4531
  871MOL0     C14849   4.947   3.167   0.895 -0.2591 -0.0462 -0.4491
  871MOL0     C14850   4.919   3.100   1.023  0.2170 -0.3187 -0.2608
  871MOL0     C14851   4.773   3.056   1.028 -0.1606  1.0033 -0.4307
  871MOL0     C14852   4.739   2.991   1.167 -0.2031 -1.0517 -0.7339
  871MOL0     C14853   4.583   2.997   1.176 -0.0896 -0.3105 -0.1161
  871MOL0     C14854   4.542   2.933   1.305 -0.0089  0.1709  1.0852
  871MOL0     C14855   4.395   2.913   1.324  0.3137 -0.6047 -0.1554
  871MOL0     C14856   4.371   2.905   1.482 -0.4072  0.8060  1.0417
  871MOL0     N14857   4.259   2.984   1.528  0.0328 -0.3886 -1.0331
  871MOL0     C14858   4.139   2.951   1.490  0.6771  0.0060  0.6604
  871MOL0     C14859   4.058   2.989   1.585  0.3059  0.1445 -0.5735
  871MOL0     C14860   3.909   2.978   1.584  0.4030  0.7767 -1.0141
  871MOL0     C14861   3.865   2.837   1.529 -0.2726 -1.1171 -0.8947
  871MOL0     C14862   3.724   2.784   1.576  0.2093 -0.4510  0.6942
  871MOL0     C14863   3.728   2.728   1.717 -0.8923 -0.3718  0.9333
  871MOL0     O14864   3.836   2.637   1.722 -1.2963 -0.2891  0.1121
  871MOL0     C14865   3.897   2.630   1.840 -1.2827  0.3126  0.3509
  871MOL0     C14866   3.990   2.727   1.883 -0.2940  0.0244  0.4992
  871MOL0     C14867   4.059   2.718   2.005  0.1791  0.9449  0.1298
  871MOL0     C14868   4.042   2.606   2.086  0.0658  0.6059 -0.2512
  871MOL0     C14869   4.129   2.584   2.210  0.9393 -0.3965  1.1806
  871MOL0     O14870   4.215   2.687   2.236  0.2953  0.6569 -0.5311
  871MOL0     C14871   4.264   2.702   2.364 -0.6296  0.6751 -0.2414
  871MOL0     C14872   4.178   2.674   2.474 -0.5357  0.2246 -0.2314
  871MOL0     C14873   4.219   2.705   2.606  0.5301 -0.0555  0.6741
  871MOL0     C14874   4.355   2.741   2.640 -0.1676 -0.5091 -0.0977
  871MOL0     O14875   4.384   2.762   2.777 -0.8369 -0.9379 -0.7395
  871MOL0     C14876   4.521   2.742   2.813  0.4055 -1.2321 -0.5851
  871MOL0     C14877   4.538   2.777   2.966 -0.1483  0.4259 -0.3455
  871MOL0     C14878   4.690   2.794   2.992 -1.3622  0.0271  0.0549
  871MOL0     C14879   4.784   2.674   2.962  0.6732  0.0293  0.0819
  871MOL0     C14880   4.921   2.692   3.029 -1.1216  0.1342 -0.8281
  871MOL0     C14881   4.917   2.655   3.179  0.3360  1.5282  0.2717
  871MOL0     C14882   5.049   2.674   3.245  0.0805 -0.1582  1.1311
  871MOL0     C14883   5.050   2.649   3.390 -0.0682  0.6731 -0.5580
  871MOL0    Cl14884   5.212   2.576   3.410  0.3225 -0.7572  0.3387
  871MOL0     C14885   4.432   2.783   2.532 -0.2365  0.4347  0.0367
  871MOL0     C14886   4.391   2.759   2.396 -0.0670  0.4194  0.2526
  871MOL0     O14887   4.124   2.472   2.264  0.8636 -0.1568 -0.2196
  871MOL0     C14888   3.961   2.500   2.033 -0.5156 -0.1009 -0.0981
  871MOL0     C14889   3.886   2.520   1.921 -0.0034 -0.0313  1.1143
  871MOL0     N14890   4.128   3.045   1.692  0.0250  0.0147  1.1319
  871MOL0     N14891   4.248   3.035   1.656 -0.8250  0.2731  0.2771
  871MOL0     C14892   4.953   3.038   0.547  0.2908  0.0524 -1.1735
  871MOL0     C14893   4.994   3.094   0.431 -0.1293 -0.2735 -0.2839
  871MOL0     C14894   5.165   3.238   0.047 -0.0295  0.9965  0.4866
  871MOL0     C14895   5.248   3.176  -0.051 -0.8681 -0.0689  0.2727
  871MOL0     C14896   5.263   3.219  -0.175  0.1860 -0.3388 -0.5919
  871MOL0     C14897   5.199   3.335  -0.208  0.2810 -0.9445 -0.1549
  871MOL0     O14898   5.203   3.391  -0.338 -0.4144 -0.7272 -1.0675
  871MOL0     C14899   5.300   3.356  -0.437 -0.1567  0.1079 -0.2391
  871MOL0     C14900   5.306   3.474  -0.528  0.5564  0.2182 -0.8938
  871MOL0     C14901   5.394   3.578  -0.463  0.5209  0.7595  1.2041
  871MOL0     C14902   5.374   3.615  -0.310 -0.7981  0.0007 -0.0802
  871MOL0     C14903   5.246   3.681  -0.289 -0.1037  0.3747 -0.3787
  871MOL0     C14904   5.141   3.731  -0.250 -0.0248 -1.1774 -0.1700
  871MOL0     C14905   5.130   3.406  -0.118  0.7066  0.4403  0.1453
  871MOL0     C14906   5.112   3.359   0.014  0.5797  0.8138  0.3952
  871MOL0     H14907   5.098   3.404   0.522 -4.8186  1.7483 -0.7386
  871MOL0     H14908   5.006   3.321   0.729 -2.1591 -1.4885  0.8319
  871MOL0     H14909   4.908   3.267   0.918  3.3522  1.0330  2.0728
  871MOL0     H14910   5.056   3.163   0.891 -0.2109 -2.2114  1.3428
  871MOL0     H14911   4.942   3.164   1.109  3.7709 -1.4106 -0.2309
  871MOL0     H14912   4.982   3.012   1.036 -0.0717 -0.3551  1.0928
  871MOL0     H14913   4.751   2.973   0.960 -0.5351  1.9122 -1.4291
  871MOL0     H14914   4.706   3.137   0.999  0.7472  0.4268 -4.7596
  871MOL0     H14915   4.777   2.891   1.191 -2.4488 -2.0107 -0.9511
  871MOL0     H14916   4.776   3.064   1.240 -1.9050  0.3455 -1.2028
  871MOL0     H14917   4.541   2.941   1.092 -3.3452  3.0085 -0.9270
  871MOL0     H14918   4.534   3.094   1.185 -2.9133 -1.4521 -1.8015
  871MOL0     H14919   4.587   3.002   1.377 -0.8287  3.7500 -1.5424
  871MOL0     H14920   4.595   2.842   1.334  2.9213  1.4564  0.1504
  871MOL0     H14921   4.341   3.003   1.292  0.0293 -1.1842 -1.3631
  871MOL0     H14922   4.360   2.824   1.272 -0.5331  0.5593 -1.6595
  871MOL0     H14923   4.462   2.939   1.533  1.4608  0.1663 -1.6338
  871MOL0     H14924   4.348   2.800   1.503  1.5141  0.1378  0.0733
  871MOL0     H14925   4.116   2.879   1.412 -1.8440  0.1288  1.2123
  871MOL0     H14926   3.864   3.055   1.519 -2.8926 -0.8074 -0.8247
  871MOL0     H14927   3.866   2.976   1.684 -1.4344 -3.2954 -1.6650
  871MOL0     H14928   3.943   2.764   1.552  0.2940  0.7633  4.6155
  871MOL0     H14929   3.862   2.832   1.419  1.0027  2.4568 -1.2465
  871MOL0     H14930   3.654   2.864   1.552  2.1818  0.6822 -1.8400
  871MOL0     H14931   3.700   2.705   1.505  1.4095 -1.6149  1.5471
  871MOL0     H14932   3.644   2.667   1.751  0.0072 -1.7886  0.6957
  871MOL0     H14933   3.739   2.813   1.785 -0.0391 -0.3402  0.7634
  871MOL0     H14934   4.009   2.802   1.807  0.3613 -0.5610  0.0710
  871MOL0     H14935   4.127   2.803   2.011  1.8547  0.2343 -4.5754
  871MOL0     H14936   4.078   2.644   2.444 -0.9117  4.3993 -4.5322
  871MOL0     H14937   4.145   2.688   2.683 -0.6209 -0.9482 -0.5780
  871MOL0     H14938   4.580   2.816   2.759 -0.2653 -0.1217  0.1720
  871MOL0     H14939   4.550   2.638   2.796 -1.5193 -1.3508 -4.4260
  871MOL0     H14940   4.491   2.695   3.021 -2.2671  0.8115 -1.4659
  871MOL0     H14941   4.469   2.858   2.990 -1.6589  0.6791 -4.7093
  871MOL0     H14942   4.699   2.831   3.095 -1.0435  1.9957 -0.6379
  871MOL0     H14943   4.725   2.878   2.932 -2.4307 -1.2796 -2.5464
  871MOL0     H14944   4.728   2.584   2.988 -3.3797  2.4176  0.4778
  871MOL0     H14945   4.791   2.663   2.853 -0.5975  1.2099 -0.1421
  871MOL0     H14946   4.940   2.799   3.013 -0.3723  0.6672  2.6989
  871MOL0     H14947   5.005   2.641   2.980 -1.2934  1.2928 -2.4005
  871MOL0     H14948   4.887   2.551   3.191  1.7318  1.0324 -0.3046
  871MOL0     H14949   4.859   2.728   3.237  0.8717 -0.1296  3.0910
  871MOL0     H14950   5.127   2.614   3.197  0.6719  2.0928 -0.9121
  871MOL0     H14951   5.079   2.778   3.226  0.8074 -0.0669  2.6382
  871MOL0     H14952   4.974   2.573   3.409 -0.7434  0.7557 -2.7513
  871MOL0     H14953   5.034   2.740   3.449 -2.1740  0.5114 -0.8324
  871MOL0     H14954   4.531   2.828   2.538 -1.0011  3.6069 -4.9534
  871MOL0     H14955   4.462   2.795   2.322 -1.3249  0.7013 -0.8561
  871MOL0     H14956   3.956   2.399   2.072 -1.7285 -1.2480 -3.0083
  871MOL0     H14957   3.810   2.444   1.906  0.8548 -1.2465  2.5930
  871MOL0     H14958   4.905   2.941   0.558  1.4342 -0.5299 -1.2344
  871MOL0     H14959   4.973   3.034   0.343 -1.6522 -0.1368 -0.0372
  871MOL0     H14960   5.301   3.088  -0.015 -2.2955  0.0899  3.0501
  871MOL0     H14961   5.319   3.174  -0.256  0.4341 -1.4944  0.1966
  871MOL0     H14962   5.270   3.259  -0.477 -0.6090  1.0071 -2.1998
  871MOL0     H14963   5.399   3.348  -0.391 -1.0795  0.5776  1.9712
  871MOL0     H14964   5.366   3.449  -0.616  2.0439  0.4207  0.0279
  871MOL0     H14965   5.208   3.514  -0.556 -0.0738  0.0469  0.9410
  871MOL0     H14966   5.384   3.668  -0.525 -1.1875 -0.0173  0.2981
  871MOL0     H14967   5.498   3.545  -0.469  0.0636 -0.5754  0.2069
  871MOL0     H14968   5.377   3.526  -0.246 -1.4495 -0.5214 -0.7553
  871MOL0     H14969   5.456   3.683  -0.287  0.4768 -1.1350 -1.0936
  871MOL0     H14970   5.055   3.782  -0.210  0.6437  0.9214 -1.2733
  871MOL0     H14971   5.095   3.507  -0.138 -0.4049  0.0206 -0.0690
  871MOL0     H14972   5.073   3.419   0.096 -2.9142 -1.4836  0.6478
  872MOL0     O14973   9.455   5.948   4.396  1.2617 -0.3953  0.0763
  872MOL0     C14974   9.520   5.846   4.377  0.4010  0.1013 -0.6973
  872MOL0     O14975   9.575   5.816   4.253  0.6955  0.2216 -0.1433
  872MOL0     C14976   9.627   5.919   4.188 -0.3907 -0.0154  0.6804
  872MOL0     C14977   9.682   6.033   4.246 -0.2306 -0.0683 -0.7796
  872MOL0     C14978   9.737   6.140   4.168  0.5697 -0.4133 -0.0557
  872MOL0     C14979   9.736   6.136   4.024  0.6666  0.4456  0.6366
  872MOL0     O14980   9.773   6.246   3.944 -0.0344  0.5441  0.1587
  872MOL0     C14981   9.851   6.246   3.827  0.1778  1.3212  0.2920
  872MOL0     C14982  10.005   6.227   3.854 -0.6541  1.0321  0.8647
  872MOL0     C14983  10.064   6.338   3.936  0.0748 -0.2310  0.4761
  872MOL0     C14984  10.189   6.398   3.860  0.6569  0.1902 -0.2402
  872MOL0     C14985  10.293   6.452   3.964  0.4090  0.4412 -0.3096
  872MOL0     C14986  10.361   6.572   3.916  0.2668  0.4791 -0.5434
  872MOL0     C14987  10.486   6.622   3.999 -0.4863  0.1993 -0.0743
  872MOL0     C14988  10.619   6.557   3.960 -0.0344 -0.2217  0.7803
  872MOL0     N14989  10.722   6.619   4.044  0.4107  0.4061 -0.1287
  872MOL0     C14990  10.705   6.661   4.176 -0.9494 -0.1399 -0.5566
  872MOL0     C14991  10.825   6.706   4.217 -1.0657 -0.0241  0.1808
  872MOL0     C14992  10.849   6.763   4.346 -1.0413 -0.5185  0.5649
  872MOL0     C14993  10.819   6.909   4.370  0.1592  0.6718 -0.1003
  872MOL0     C14994  10.656   6.930   4.395 -1.2359 -0.2246  0.3138
  872MOL0     C14995  10.619   6.867   4.528  0.4128 -0.3268  0.0390
  872MOL0     O14996  10.497   6.916   4.581  0.8661  0.9118  0.6948
  872MOL0     C14997  10.524   6.991   4.691  0.7653  0.0736 -0.9146
  872MOL0     C14998  10.452   6.956   4.802 -0.4664 -0.4372 -0.1138
  872MOL0     C14999  10.447   7.049   4.914 -0.0200  0.5625  0.3984
  872MOL0     C15000  10.511   7.172   4.909 -0.2687  0.6698  0.1756
  872MOL0     C15001  10.484   7.269   5.021  1.3750 -0.3369 -0.2367
  872MOL0     O15002  10.440   7.223   5.142 -0.4927  0.4920 -0.2923
  872MOL0     C15003  10.402   7.302   5.247 -0.1303 -0.1321 -0.7849
  872MOL0     C15004  10.504   7.387   5.295  0.0660 -1.5258  0.2749
  872MOL0     C15005  10.472   7.482   5.396 -0.5750  0.0662  0.6612
  872MOL0     C15006  10.340   7.484   5.454 -0.5447 -0.0934 -0.7388
  872MOL0     O15007  10.305   7.559   5.569  0.1639  0.6459  0.1207
  872MOL0     C15008  10.323   7.479   5.685 -0.4453  0.6740 -0.7296
  872MOL0     C15009  10.307   7.566   5.804 -1.0502 -0.0539 -0.2975
  872MOL0     C15010  10.291   7.482   5.921 -0.3803 -0.0436  0.2501
  872MOL0     C15011  10.423   7.416   5.964 -0.0833 -0.2260 -0.1415
  872MOL0     C15012  10.403   7.332   6.093  0.1346  0.3579 -0.4656
  872MOL0     C15013  10.533   7.299   6.170 -0.4535  0.3213 -0.8309
  872MOL0     C15014  10.590   7.414   6.256 -0.0489  0.5010 -0.1874
  872MOL0     C15015  10.742   7.419   6.263  0.4841  0.2953 -0.1651
  872MOL0    Cl15016  10.815   7.469   6.103  0.4187  0.2471  0.0450
  872MOL0     C15017  10.246   7.395   5.406 -0.3026  1.4758 -0.4013
  872MOL0     C15018  10.275   7.300   5.306  0.9893  0.6450  0.1411
  872MOL0     O15019  10.489   7.388   4.997 -0.8238 -0.8769  0.1994
  872MOL0     C15020  10.597   7.193   4.799 -0.5123  0.3015 -1.4301
  872MOL0     C15021  10.596   7.112   4.688  0.0734  0.3172  0.7473
  872MOL0     N15022  10.914   6.694   4.109 -1.4906 -0.1489 -0.9165
  872MOL0     N15023  10.857   6.641   4.014  0.2984 -0.1688  0.0784
  872MOL0     C15024   9.671   6.024   3.966  0.4848  1.3019 -0.0160
  872MOL0     C15025   9.614   5.924   4.047 -0.1523  0.4329 -0.0442
  872MOL0     C15026   9.496   5.744   4.479  0.7333  1.6905  0.2307
  872MOL0     C15027   9.394   5.743   4.579  0.5611 -0.0641  0.2057
  872MOL0     C15028   9.364   5.634   4.655  0.4688  0.7283 -1.0465
  872MOL0     C15029   9.417   5.507   4.629  0.6110  0.6255  0.0345
  872MOL0     O15030   9.364   5.396   4.691  0.4316 -0.1785  0.4778
  872MOL0     C15031   9.372   5.402   4.832  0.3244  0.3255  0.4538
  872MOL0     C15032   9.351   5.265   4.894 -0.3634 -0.3163 -0.0255
  872MOL0     C15033   9.460   5.170   4.924  0.1778 -0.4615  0.4072
  872MOL0     C15034   9.542   5.126   4.803 -0.5268 -0.5326 -0.5427
  872MOL0     C15035   9.527   4.982   4.793 -0.3731 -0.3457 -0.4819
  872MOL0     C15036   9.510   4.857   4.790 -0.9371  0.6814  0.7743
  872MOL0     C15037   9.512   5.488   4.522 -0.0024  0.0793  0.0914
  872MOL0     C15038   9.554   5.607   4.456 -1.1623 -0.5634  0.0449
  872MOL0     H15039   9.695   6.048   4.353  2.5825  0.9447 -1.1751
  872MOL0     H15040   9.774   6.235   4.205 -0.8712  0.1569 -0.0055
  872MOL0     H15041   9.846   6.341   3.774 -0.5463 -0.2860 -2.7726
  872MOL0     H15042   9.823   6.168   3.756 -2.8802  2.1228  0.4837
  872MOL0     H15043  10.044   6.221   3.752 -1.8762 -2.6713  0.4568
  872MOL0     H15044  10.030   6.130   3.896 -2.1252 -0.4008 -1.3316
  872MOL0     H15045  10.103   6.297   4.030 -0.9792  0.7273  1.3752
  872MOL0     H15046   9.986   6.414   3.951  1.8902  1.9830 -0.5610
  872MOL0     H15047  10.233   6.322   3.795 -0.5083  1.7386 -3.0432
  872MOL0     H15048  10.156   6.488   3.806  0.0207  0.9063  1.2770
  872MOL0     H15049  10.364   6.372   3.988 -0.5242 -1.0237 -2.0911
  872MOL0     H15050  10.240   6.492   4.051 -0.3607 -0.1719 -0.4799
  872MOL0     H15051  10.295   6.659   3.918  2.7778  2.5013  0.3236
  872MOL0     H15052  10.393   6.566   3.811  1.5036 -1.2537 -0.1310
  872MOL0     H15053  10.490   6.729   3.975 -3.1208  0.3403 -0.1231
  872MOL0     H15054  10.453   6.620   4.104 -2.2887 -0.9024 -0.6217
  872MOL0     H15055  10.652   6.584   3.859 -0.9798  2.6278  1.1525
  872MOL0     H15056  10.609   6.452   3.989 -1.3341 -0.2670  0.2401
  872MOL0     H15057  10.612   6.653   4.231 -0.0782  2.9459  1.6960
  872MOL0     H15058  10.955   6.753   4.371 -0.4722  3.5618  0.5679
  872MOL0     H15059  10.807   6.694   4.419  2.2762 -2.6735  0.6272
  872MOL0     H15060  10.850   6.963   4.280 -1.4685  4.6515  1.4947
  872MOL0     H15061  10.877   6.957   4.449 -0.9328  1.6175  0.1572
  872MOL0     H15062  10.626   7.035   4.403 -1.7105 -0.4586  1.8296
  872MOL0     H15063  10.602   6.886   4.310 -1.0780  0.2108 -0.0154
  872MOL0     H15064  10.697   6.857   4.603  3.6124  3.4297 -2.3715
  872MOL0     H15065  10.604   6.764   4.494 -1.1155  0.3815 -1.6422
  872MOL0     H15066  10.387   6.870   4.786 -0.2710 -0.5814 -0.1387
  872MOL0     H15067  10.382   7.013   4.993 -1.0939 -1.0244 -1.1160
  872MOL0     H15068  10.603   7.384   5.251 -0.8713 -0.8236 -2.0202
  872MOL0     H15069  10.536   7.559   5.437  0.6103 -1.8690  2.6142
  872MOL0     H15070  10.412   7.415   5.687 -0.8124  0.1598 -0.3044
  872MOL0     H15071  10.242   7.405   5.680  0.3511 -0.2203 -0.6625
  872MOL0     H15072  10.224   7.635   5.788  0.8382  2.2917 -0.4258
  872MOL0     H15073  10.396   7.629   5.814  1.5262 -3.0341 -2.4535
  872MOL0     H15074  10.221   7.400   5.900 -1.3923  0.7103  0.5972
  872MOL0     H15075  10.258   7.551   5.999  1.6345  2.5479 -1.0327
  872MOL0     H15076  10.453   7.346   5.886 -0.6254 -2.0101  1.1953
  872MOL0     H15077  10.497   7.493   5.986 -2.5792  2.5862 -0.9088
  872MOL0     H15078  10.360   7.237   6.061  0.4164 -0.3747  1.2215
  872MOL0     H15079  10.339   7.375   6.170  1.5685  0.5473  0.6663
  872MOL0     H15080  10.618   7.270   6.108  1.0619 -1.1162  1.7456
  872MOL0     H15081  10.509   7.224   6.246 -1.6356  3.9476  2.7585
  872MOL0     H15082  10.549   7.511   6.227  1.9924  1.5472  0.2335
  872MOL0     H15083  10.556   7.392   6.358 -0.3809  1.1284 -0.1576
  872MOL0     H15084  10.778   7.316   6.278  1.8839  0.7122 -0.4949
  872MOL0     H15085  10.769   7.492   6.339 -1.1986 -0.3144  1.0692
  872MOL0     H15086  10.151   7.387   5.458  0.1996 -0.8775  0.2932
  872MOL0     H15087  10.194   7.236   5.274 -1.5508  1.0668  4.8663
  872MOL0     H15088  10.670   7.272   4.792  0.8426 -0.7866 -0.2883
  872MOL0     H15089  10.648   7.134   4.595  0.7902 -1.3306  0.7179
  872MOL0     H15090   9.656   6.018   3.858 -0.2044 -2.5893  0.1404
  872MOL0     H15091   9.561   5.839   4.006 -3.7343  2.0299  0.8644
  872MOL0     H15092   9.346   5.834   4.614  1.0723 -0.3573  1.7748
  872MOL0     H15093   9.291   5.642   4.734  1.4118 -0.7735  0.0280
  872MOL0     H15094   9.287   5.461   4.866 -0.6820 -1.2828  0.7980
  872MOL0     H15095   9.467   5.443   4.867  0.6821 -0.9654  1.0537
  872MOL0     H15096   9.288   5.279   4.983 -1.7420  1.4467 -1.2238
  872MOL0     H15097   9.280   5.210   4.831  0.2863 -1.8084  0.4888
  872MOL0     H15098   9.400   5.097   4.978  1.2029 -0.2150  1.9406
  872MOL0     H15099   9.529   5.221   4.992 -0.6539  2.4245 -0.7324
  872MOL0     H15100   9.502   5.175   4.713 -0.0954 -0.9961 -0.9986
  872MOL0     H15101   9.648   5.148   4.813 -0.1236 -2.4108 -0.2953
  872MOL0     H15102   9.487   4.752   4.791  1.7051  0.0138 -0.0573
  872MOL0     H15103   9.562   5.394   4.499  2.0337  0.5500  2.2188
  872MOL0     H15104   9.635   5.597   4.385  0.5621 -0.1230  1.8666
  873MOL0     O15105   1.289   2.461   2.699 -0.5811 -0.1451  0.2125
  873MOL0     C15106   1.181   2.508   2.733  0.0098 -0.4524  0.6915
  873MOL0     O15107   1.140   2.525   2.862  0.0754 -0.4822 -0.1464
  873MOL0     C15108   1.231   2.496   2.963 -0.8529 -0.2982 -0.1608
  873MOL0     C15109   1.290   2.362   2.983  0.3806 -0.1443 -0.8408
  873MOL0     C15110   1.386   2.348   3.090  0.6231 -1.5308 -0.4143
  873MOL0     C15111   1.407   2.457   3.184 -0.0179 -0.2051 -0.4129
  873MOL0     O15112   1.483   2.460   3.299  0.3078 -0.4932 -0.1896
  873MOL0     C15113   1.554   2.346   3.347 -0.1820  0.0663 -0.0400
  873MOL0     C15114   1.699   2.334   3.288 -0.1373  0.2877  0.5442
  873MOL0     C15115   1.784   2.228   3.353 -0.1314  0.3280 -0.0553
  873MOL0     C15116   1.835   2.130   3.246 -0.6048 -0.1620 -0.6859
  873MOL0     C15117   1.929   2.016   3.295  0.0782 -0.4771 -0.3708
  873MOL0     C15118   2.045   2.065   3.386  0.6802 -0.6757  0.4993
  873MOL0     C15119   2.120   2.177   3.314  0.0827  1.3217  1.0610
  873MOL0     C15120   2.265   2.196   3.362  0.1557  1.3412  1.1986
  873MOL0     N15121   2.345   2.066   3.350 -0.1431 -0.1853  0.5340
  873MOL0     C15122   2.324   1.958   3.278  1.2473 -0.4188  0.7450
  873MOL0     C15123   2.414   1.865   3.304  0.2254  0.2508 -1.1719
  873MOL0     C15124   2.408   1.723   3.256  0.3103 -0.5044  0.8577
  873MOL0     C15125   2.512   1.644   3.340  0.7298  0.2192 -0.0877
  873MOL0     C15126   2.522   1.498   3.289 -0.2818 -1.3790  0.2738
  873MOL0     C15127   2.603   1.408   3.380 -0.4192  0.5417  0.5888
  873MOL0     O15128   2.631   1.275   3.319  0.2695 -0.8595  0.7065
  873MOL0     C15129   2.651   1.175   3.408  0.5556 -0.3602 -0.9117
  873MOL0     C15130   2.696   1.190   3.537  0.0997  0.1723 -0.4542
  873MOL0     C15131   2.744   1.087   3.614  0.2677  0.2126 -1.0741
  873MOL0     C15132   2.753   0.962   3.563 -0.2493 -0.1359  0.5245
  873MOL0     C15133   2.808   0.855   3.645  0.3183  0.7235 -1.7457
  873MOL0     O15134   2.811   0.731   3.582  0.1070 -0.0437  0.2456
  873MOL0     C15135   2.860   0.623   3.646  0.6970 -0.5094 -0.3319
  873MOL0     C15136   2.786   0.565   3.748  0.3629  0.6905 -0.0660
  873MOL0     C15137   2.824   0.447   3.816 -0.0347  0.4017  0.4170
  873MOL0     C15138   2.938   0.383   3.781 -0.5672  0.0569 -0.2599
  873MOL0     O15139   2.977   0.279   3.865 -0.1134  0.1870 -0.6526
  873MOL0     C15140   3.112   0.234   3.869 -0.6702 -0.1313 -0.2471
  873MOL0     C15141   3.128   0.096   3.926 -0.8185 -0.5092 -0.0784
  873MOL0     C15142   3.273   0.049   3.916  0.2221 -0.1726 -0.4426
  873MOL0     C15143   3.294  -0.040   3.788  1.1758 -0.4710 -0.2177
  873MOL0     C15144   3.445  -0.045   3.746  0.2041 -1.0623 -0.2864
  873MOL0     C15145   3.490  -0.166   3.670  0.5388  0.3364 -0.0297
  873MOL0     C15146   3.457  -0.151   3.526 -0.1306  0.6753 -0.2636
  873MOL0     C15147   3.505  -0.263   3.447  0.8752  0.4826 -0.0279
  873MOL0    Cl15148   3.538  -0.204   3.279  0.1767 -0.1231  0.3810
  873MOL0     C15149   3.020   0.443   3.683 -0.6325  1.3421  0.1634
  873MOL0     C15150   2.978   0.556   3.611  0.1518  0.1444 -0.0753
  873MOL0     O15151   2.840   0.873   3.758 -0.3006  0.1070  0.4490
  873MOL0     C15152   2.707   0.937   3.433  0.8402 -0.6477  1.2326
  873MOL0     C15153   2.645   1.044   3.362 -0.2552 -0.4433  0.7055
  873MOL0     N15154   2.515   1.926   3.387  0.1857  0.2666 -0.4459
  873MOL0     N15155   2.466   2.041   3.419 -0.0560  0.6941 -0.4549
  873MOL0     C15156   1.342   2.579   3.159  0.4637  0.5060 -1.0390
  873MOL0     C15157   1.249   2.594   3.053  0.5504 -0.4976 -0.3234
  873MOL0     C15158   1.091   2.550   2.622  0.3957 -0.5580 -0.7508
  873MOL0     C15159   0.950   2.547   2.639  0.0784 -0.1174 -0.5463
  873MOL0     C15160   0.864   2.557   2.527 -0.3630  0.8801 -0.9192
  873MOL0     C15161   0.910   2.576   2.396  0.2367 -0.5170 -0.5086
  873MOL0     O15162   0.835   2.593   2.291 -0.0336 -0.2870  0.5185
  873MOL0     C15163   0.698   2.550   2.300  0.3096 -0.1529  0.4046
  873MOL0     C15164   0.616   2.574   2.173 -0.2487  0.4660 -0.3396
  873MOL0     C15165   0.676   2.502   2.049  0.2431 -0.0029  0.2931
  873MOL0     C15166   0.589   2.523   1.921  1.0723  0.2345  0.2904
  873MOL0     C15167   0.444   2.508   1.954  0.2448  0.2506  0.6089
  873MOL0     C15168   0.324   2.523   1.974  0.3339  0.4117  0.2774
  873MOL0     C15169   1.048   2.591   2.384 -1.2661  0.5147 -0.1801
  873MOL0     C15170   1.138   2.551   2.490  0.2525 -0.7166 -0.4884
  873MOL0     H15171   1.262   2.297   2.900 -1.9927  3.4043 -3.0933
  873MOL0     H15172   1.439   2.254   3.099  2.0401 -0.5955  1.9823
  873MOL0     H15173   1.498   2.253   3.335 -0.1923  0.3601 -2.9367
  873MOL0     H15174   1.564   2.363   3.455 -0.0781  2.5806 -0.3869
  873MOL0     H15175   1.745   2.433   3.293 -1.5517  1.2057 -2.4563
  873MOL0     H15176   1.705   2.307   3.182  1.5328  2.1794  0.0911
  873MOL0     H15177   1.719   2.178   3.425 -0.2234 -0.7819 -0.8690
  873MOL0     H15178   1.869   2.273   3.405 -0.7422 -0.1432  1.3778
  873MOL0     H15179   1.750   2.077   3.202 -1.1266 -1.2794  1.5066
  873MOL0     H15180   1.893   2.172   3.163  0.9931  2.1256  1.4387
  873MOL0     H15181   1.976   1.956   3.216  0.7916  0.9910 -1.1264
  873MOL0     H15182   1.871   1.947   3.357  0.4080  0.3024  0.8419
  873MOL0     H15183   2.108   1.985   3.427  3.3779  1.8514  1.6309
  873MOL0     H15184   1.995   2.116   3.469  0.5841 -0.2571  0.1874
  873MOL0     H15185   2.112   2.159   3.207 -2.3683 -0.2838  1.4367
  873MOL0     H15186   2.072   2.274   3.322 -3.3785 -0.0760 -0.8345
  873MOL0     H15187   2.267   2.226   3.468  0.3199  1.3744  1.1873
  873MOL0     H15188   2.322   2.279   3.318  1.2072  0.1396  0.2306
  873MOL0     H15189   2.236   1.935   3.218  1.8144 -2.2822  0.5499
  873MOL0     H15190   2.440   1.707   3.153  2.6013  3.8310  0.6231
  873MOL0     H15191   2.307   1.685   3.270  0.1415  0.8286  4.2784
  873MOL0     H15192   2.477   1.655   3.443  1.2739  1.1700  0.0112
  873MOL0     H15193   2.611   1.692   3.333 -0.0526  2.2189  1.4089
  873MOL0     H15194   2.421   1.456   3.284 -0.0702 -1.7872 -1.0013
  873MOL0     H15195   2.567   1.499   3.190 -2.0463 -2.1533 -0.5777
  873MOL0     H15196   2.554   1.387   3.476  1.5270  1.1456  1.7701
  873MOL0     H15197   2.696   1.461   3.401 -1.0536  0.6069  3.6977
  873MOL0     H15198   2.689   1.286   3.588  1.4411 -1.4954  3.2411
  873MOL0     H15199   2.790   1.092   3.713  2.6556 -3.9053 -1.7388
  873MOL0     H15200   2.684   0.599   3.764 -0.7832 -3.0259  1.5086
  873MOL0     H15201   2.761   0.405   3.894  2.1944 -1.8130  1.1575
  873MOL0     H15202   3.167   0.293   3.943 -1.5841 -0.2206  0.5174
  873MOL0     H15203   3.161   0.248   3.772 -0.6289  1.8666  0.0087
  873MOL0     H15204   3.050   0.030   3.887 -0.9219 -2.4115  3.0037
  873MOL0     H15205   3.096   0.092   4.031 -0.0191 -1.0691  0.1545
  873MOL0     H15206   3.305  -0.009   4.002 -3.0535 -1.7525 -0.1718
  873MOL0     H15207   3.345   0.132   3.918  1.0930 -0.8836  2.7583
  873MOL0     H15208   3.250  -0.136   3.814 -1.0885  0.1887 -1.2887
  873MOL0     H15209   3.232  -0.007   3.703 -0.2746  0.0972  1.0168
  873MOL0     H15210   3.498  -0.040   3.842  1.0557  4.8865 -0.7377
  873MOL0     H15211   3.487   0.044   3.700  0.3961 -0.4883  0.9642
  873MOL0     H15212   3.453  -0.260   3.715  1.1899  1.0867  2.1898
  873MOL0     H15213   3.598  -0.156   3.675  0.4268  2.3821 -1.0054
  873MOL0     H15214   3.349  -0.140   3.511 -0.2229 -2.6478 -3.6833
  873MOL0     H15215   3.507  -0.059   3.492  5.0736 -1.5922  0.3271
  873MOL0     H15216   3.412  -0.320   3.440 -1.5861  4.3012 -3.7440
  873MOL0     H15217   3.589  -0.317   3.491  0.6261  0.3227  0.2558
  873MOL0     H15218   3.121   0.408   3.662 -0.4936  0.7458  1.6661
  873MOL0     H15219   3.026   0.589   3.520 -2.1891  1.9465 -0.7545
  873MOL0     H15220   2.697   0.837   3.390  1.8328  0.3943 -1.7255
  873MOL0     H15221   2.593   1.022   3.269  0.3817 -0.4220  0.3429
  873MOL0     H15222   1.355   2.663   3.227  2.2909  0.0720 -0.8022
  873MOL0     H15223   1.197   2.689   3.044 -0.2446 -1.0949 -3.0881
  873MOL0     H15224   0.909   2.522   2.736  1.1840 -0.0379 -0.0322
  873MOL0     H15225   0.757   2.553   2.543 -0.3900 -2.9793 -1.1434
  873MOL0     H15226   0.646   2.601   2.382  1.7355  0.9429  0.6660
  873MOL0     H15227   0.699   2.443   2.323  0.3529 -0.3992 -0.7033
  873MOL0     H15228   0.521   2.538   2.213 -1.1842  1.3095 -1.7011
  873MOL0     H15229   0.626   2.680   2.148 -2.2715  0.0585 -3.4344
  873MOL0     H15230   0.691   2.396   2.071  2.5251  0.0482 -0.6741
  873MOL0     H15231   0.770   2.547   2.016 -1.5975  1.3386 -3.7771
  873MOL0     H15232   0.620   2.619   1.879  3.4542 -0.1838  0.9451
  873MOL0     H15233   0.630   2.442   1.859 -0.1036 -1.4170  1.5723
  873MOL0     H15234   0.219   2.540   1.981  0.4150  0.2756  2.3813
  873MOL0     H15235   1.094   2.634   2.295  0.8355  1.7018  1.4140
  873MOL0     H15236   1.246   2.552   2.476  0.4601  2.9158  0.2071
  874MOL0     O15237  10.153   1.351   2.211  0.7124 -0.0109 -0.4295
  874MOL0     C15238  10.129   1.276   2.309  1.0264  0.3796 -0.2363
  874MOL0     O15239  10.005   1.227   2.345 -0.5224 -0.8022  1.5455
  874MOL0     C15240   9.894   1.305   2.318 -0.2075  0.2804 -0.3055
  874MOL0     C15241   9.890   1.444   2.338  0.1934 -1.1849  0.1061
  874MOL0     C15242   9.768   1.520   2.327 -0.3040 -0.3058 -0.3706
  874MOL0     C15243   9.648   1.457   2.296  0.3004  0.5990 -0.6849
  874MOL0     O15244   9.533   1.533   2.299  0.0422 -0.4043  0.5530
  874MOL0     C15245   9.414   1.451   2.313 -0.3586 -0.0715 -0.2577
  874MOL0     C15246   9.291   1.552   2.330 -0.6655 -0.2539 -0.1841
  874MOL0     C15247   9.169   1.474   2.336 -0.2759  0.0742 -0.7602
  874MOL0     C15248   9.051   1.559   2.370  0.3662  0.3730  0.4482
  874MOL0     C15249   8.936   1.478   2.423  0.5970  0.0076 -0.3595
  874MOL0     C15250   8.949   1.446   2.572 -1.6212 -0.7978 -0.6985
  874MOL0     C15251   8.843   1.340   2.608  0.6897 -0.1354  0.6694
  874MOL0     C15252   8.862   1.294   2.758  0.2327  0.8193 -0.0139
  874MOL0     N15253   8.766   1.192   2.793 -0.8399 -0.1312 -0.5029
  874MOL0     C15254   8.695   1.115   2.703  0.2602  0.1530 -0.8055
  874MOL0     C15255   8.628   1.028   2.785 -0.2894 -0.1824 -0.1457
  874MOL0     C15256   8.540   0.918   2.743  1.4090 -0.0445  1.0775
  874MOL0     C15257   8.411   0.987   2.686  1.1242 -0.1517  0.5555
  874MOL0     C15258   8.288   0.888   2.656  0.6811  0.0668  0.2268
  874MOL0     C15259   8.222   0.847   2.782 -0.1341 -0.1184  0.2857
  874MOL0     O15260   8.149   0.727   2.736 -0.2545  0.2154 -0.3482
  874MOL0     C15261   8.094   0.647   2.836  0.1575 -0.5385  0.0421
  874MOL0     C15262   8.088   0.687   2.968 -0.5306 -0.3522 -1.1099
  874MOL0     C15263   8.018   0.601   3.057  0.9359  0.9082 -0.0578
  874MOL0     C15264   7.954   0.480   3.018 -0.2406 -0.2191  1.0971
  874MOL0     C15265   7.853   0.417   3.104 -0.7118 -0.3716  0.8973
  874MOL0     O15266   7.870   0.442   3.234  0.4592 -0.2230  0.3762
  874MOL0     C15267   7.781   0.393   3.326  0.0119 -0.3790  0.4415
  874MOL0     C15268   7.642   0.412   3.331  0.0987 -1.2985  0.0925
  874MOL0     C15269   7.560   0.342   3.428  0.5204  0.4056 -0.8982
  874MOL0     C15270   7.619   0.273   3.538 -0.5181  0.0964 -0.3504
  874MOL0     O15271   7.565   0.221   3.648  0.5821 -0.0677 -1.0191
  874MOL0     C15272   7.445   0.284   3.703  0.0447  0.0805 -0.3918
  874MOL0     C15273   7.408   0.216   3.827  0.3053  1.0328  0.5680
  874MOL0     C15274   7.278   0.279   3.880 -1.8877  0.7556 -0.0750
  874MOL0     C15275   7.186   0.206   3.978  0.6696  0.2223  0.9443
  874MOL0     C15276   7.101   0.096   3.903 -0.0881 -0.2228  0.2755
  874MOL0     C15277   6.999   0.041   4.000 -0.7169  0.6490 -0.0464
  874MOL0     C15278   6.888  -0.033   3.919  0.2028 -0.2781 -0.5873
  874MOL0     C15279   6.788  -0.091   3.999  0.2953 -0.1266 -0.0043
  874MOL0    Cl15280   6.700  -0.223   3.914 -0.1952 -0.1003  0.0096
  874MOL0     C15281   7.765   0.270   3.534  0.5343  0.6825 -0.4823
  874MOL0     C15282   7.844   0.330   3.440 -0.2415 -0.1186  0.2580
  874MOL0     O15283   7.769   0.341   3.054 -1.0416 -0.6665 -0.1391
  874MOL0     C15284   7.971   0.450   2.884 -0.7286 -0.1337 -0.3265
  874MOL0     C15285   8.041   0.527   2.800  1.0639  0.3234 -0.4196
  874MOL0     N15286   8.657   1.056   2.911  0.6930  0.0530 -0.8529
  874MOL0     N15287   8.743   1.150   2.920  1.8116 -0.4947  0.4754
  874MOL0     C15288   9.659   1.319   2.266  1.0550 -0.3744 -0.1005
  874MOL0     C15289   9.780   1.245   2.291  0.5396 -0.3451 -0.8575
  874MOL0     C15290  10.243   1.227   2.381 -0.0918  0.0522 -1.0135
  874MOL0     C15291  10.353   1.300   2.399  1.0560 -0.4278  0.5297
  874MOL0     C15292  10.467   1.260   2.473 -0.0219  0.1615 -0.3409
  874MOL0     C15293  10.473   1.133   2.520 -0.8435 -0.2627  0.2876
  874MOL0     O15294  10.583   1.102   2.605  0.7774  0.5826 -0.1803
  874MOL0     C15295  10.566   0.984   2.691  0.2214  0.1037  0.9436
  874MOL0     C15296  10.669   1.009   2.804  0.9024  0.4713  0.0328
  874MOL0     C15297  10.678   0.870   2.880 -0.0082  0.6572  0.9293
  874MOL0     C15298  10.789   0.875   2.980  0.5262 -0.1535  0.3187
  874MOL0     C15299  10.790   0.754   3.065 -0.1173 -0.5366 -0.3557
  874MOL0     C15300  10.814   0.656   3.137  0.7203 -0.1372 -0.5534
  874MOL0     C15301  10.365   1.054   2.491 -0.5097  0.3181  0.1185
  874MOL0     C15302  10.251   1.100   2.423 -0.6332  0.6948 -0.8089
  874MOL0     H15303   9.975   1.497   2.379 -1.0277 -0.0245  1.2071
  874MOL0     H15304   9.758   1.628   2.336 -1.7436 -0.4963  0.5445
  874MOL0     H15305   9.426   1.375   2.391  0.2408 -0.2246 -0.4894
  874MOL0     H15306   9.398   1.405   2.216 -2.3925  2.7849 -1.4099
  874MOL0     H15307   9.270   1.613   2.242 -1.4351 -2.2061 -1.4164
  874MOL0     H15308   9.295   1.623   2.414 -4.8311  2.9507 -2.2923
  874MOL0     H15309   9.174   1.392   2.408  0.5708  1.4657  0.8512
  874MOL0     H15310   9.142   1.412   2.250 -1.3313 -3.3551  1.7767
  874MOL0     H15311   9.084   1.635   2.441 -0.0355  2.8965 -1.8898
  874MOL0     H15312   9.025   1.611   2.277  0.7900 -0.1098  0.0531
  874MOL0     H15313   8.908   1.389   2.365 -1.5524  0.0924  0.4457
  874MOL0     H15314   8.847   1.543   2.416  1.9856  2.3101  1.6964
  874MOL0     H15315   8.936   1.539   2.628 -1.0559 -1.8159  1.2169
  874MOL0     H15316   9.045   1.401   2.598 -0.8528 -0.4461 -2.7662
  874MOL0     H15317   8.739   1.370   2.592  1.1735  1.5294  0.5220
  874MOL0     H15318   8.864   1.261   2.535  0.1553  0.9028 -0.6485
  874MOL0     H15319   8.840   1.384   2.816  0.5744  0.5260  0.5765
  874MOL0     H15320   8.960   1.247   2.774  0.1342  0.8445  0.6547
  874MOL0     H15321   8.686   1.132   2.596  1.7048 -0.8080 -1.1213
  874MOL0     H15322   8.515   0.860   2.832 -0.5200 -1.1766 -0.1277
  874MOL0     H15323   8.592   0.862   2.665 -0.2944  1.5901 -1.3794
  874MOL0     H15324   8.456   1.025   2.594  4.3602  1.1033  2.4685
  874MOL0     H15325   8.378   1.075   2.742  2.3728  1.2114 -0.7363
  874MOL0     H15326   8.219   0.950   2.598 -0.2284 -0.5773  0.5823
  874MOL0     H15327   8.306   0.802   2.592  0.0404  0.4848 -0.5281
  874MOL0     H15328   8.145   0.915   2.820  0.1408  0.0587  0.5362
  874MOL0     H15329   8.291   0.823   2.863 -0.5409 -1.3726  0.2706
  874MOL0     H15330   8.127   0.783   3.000 -0.7884  0.2661 -2.5496
  874MOL0     H15331   8.016   0.630   3.162 -0.3064  1.1375 -0.1330
  874MOL0     H15332   7.601   0.477   3.254  1.5119 -0.8786 -0.3226
  874MOL0     H15333   7.452   0.352   3.428  0.1279 -2.6204  0.4139
  874MOL0     H15334   7.362   0.279   3.632  0.3362 -0.1030 -0.7215
  874MOL0     H15335   7.466   0.388   3.730  2.9743 -0.8810  1.5181
  874MOL0     H15336   7.491   0.234   3.897  0.2882 -0.2461  0.9542
  874MOL0     H15337   7.387   0.111   3.802  0.5597  1.2045 -0.3939
  874MOL0     H15338   7.216   0.308   3.795 -1.8609  2.8582  0.5636
  874MOL0     H15339   7.310   0.365   3.940  0.0320  0.0691 -0.0592
  874MOL0     H15340   7.252   0.160   4.052  4.0698 -0.4696 -2.2189
  874MOL0     H15341   7.112   0.271   4.025 -0.8681 -0.9189  0.1986
  874MOL0     H15342   7.151   0.003   3.874  0.0114  0.4217 -1.7491
  874MOL0     H15343   7.061   0.138   3.810 -0.2541  0.9792  0.8770
  874MOL0     H15344   6.955   0.124   4.057  1.1739  1.2966  0.5201
  874MOL0     H15345   7.061  -0.010   4.074 -3.1802  5.1455  5.9914
  874MOL0     H15346   6.846   0.042   3.851  2.3393  0.3495 -1.3013
  874MOL0     H15347   6.929  -0.115   3.859  0.4370 -1.6329  1.3284
  874MOL0     H15348   6.717  -0.016   4.035  0.6497  1.0065 -1.5724
  874MOL0     H15349   6.832  -0.128   4.092  1.0335 -1.7496 -0.9436
  874MOL0     H15350   7.797   0.218   3.623  0.7298  1.4203 -0.1183
  874MOL0     H15351   7.952   0.317   3.432 -0.2205  0.9458 -2.3586
  874MOL0     H15352   7.936   0.350   2.860 -0.3496 -0.8078  1.7031
  874MOL0     H15353   8.047   0.496   2.696 -0.7091 -0.2363 -0.3821
  874MOL0     H15354   9.576   1.274   2.211 -1.6731  4.3164 -0.3075
  874MOL0     H15355   9.777   1.137   2.280 -2.0835 -0.5136  0.7146
  874MOL0     H15356  10.358   1.399   2.354 -2.4401  0.2418  1.3081
  874MOL0     H15357  10.545   1.334   2.479 -1.5567  1.7765  0.3915
  874MOL0     H15358  10.598   0.896   2.634 -2.1481  0.6984 -1.4860
  874MOL0     H15359  10.463   0.980   2.727 -1.2794  2.0013 -2.6180
  874MOL0     H15360  10.763   1.055   2.773  0.5825 -1.4040 -4.4755
  874MOL0     H15361  10.619   1.086   2.864 -2.8324 -0.1087 -1.9910
  874MOL0     H15362  10.697   0.790   2.808 -0.6043  0.2212  1.2404
  874MOL0     H15363  10.585   0.851   2.934  1.5937  0.8344  3.9491
  874MOL0     H15364  10.881   0.891   2.923  1.5010  0.3978  1.9919
  874MOL0     H15365  10.776   0.960   3.048  0.8310  0.9014 -0.9026
  874MOL0     H15366  10.835   0.576   3.205  1.5033 -0.4035 -1.0947
  874MOL0     H15367  10.360   0.950   2.524 -0.3857  0.5176  0.7861
  874MOL0     H15368  10.164   1.038   2.404  1.8058 -3.5441  0.6833
  875MOL0     O15369   9.788  11.113   3.233  0.1070  0.6720 -0.5665
  875MOL0     C15370   9.705  11.088   3.322  0.5690  0.4969  0.3031
  875MOL0     O15371   9.601  11.162   3.364  0.1859  0.1305  0.8509
  875MOL0     C15372   9.562  11.277   3.292 -0.2680  0.8225 -0.2316
  875MOL0     C15373   9.471  11.247   3.184 -0.3937 -0.3565  0.1941
  875MOL0     C15374   9.434  11.351   3.105 -0.0325 -0.2437  0.4238
  875MOL0     C15375   9.482  11.487   3.119 -0.5940  1.0019 -1.0887
  875MOL0     O15376   9.450  11.599   3.048  0.0462 -0.9268  0.5935
  875MOL0     C15377   9.321  11.613   2.975 -0.4878 -0.6395  0.2576
  875MOL0     C15378   9.300  11.759   2.932  0.6970 -0.8733 -0.8752
  875MOL0     C15379   9.267  11.854   3.059  1.3469  0.5435  0.0691
  875MOL0     C15380   9.124  11.819   3.125 -0.5575 -0.1480  1.1597
  875MOL0     C15381   9.075  11.927   3.214  0.5754 -0.0551 -0.1901
  875MOL0     C15382   9.049  12.056   3.142 -0.6131 -0.7525 -0.2214
  875MOL0     C15383   8.969  12.171   3.212  0.3376 -0.5026 -1.3763
  875MOL0     C15384   8.835  12.145   3.274 -0.0187 -0.4508  0.4975
  875MOL0     N15385   8.744  12.060   3.193  0.1603 -0.0564  0.9538
  875MOL0     C15386   8.644  12.114   3.115  0.0564  0.3757 -0.2075
  875MOL0     C15387   8.575  12.008   3.061  0.1986  1.0099 -0.1590
  875MOL0     C15388   8.462  12.005   2.965  0.4345  0.1524  0.1886
  875MOL0     C15389   8.369  11.878   2.985 -0.2637 -1.0333 -0.2432
  875MOL0     C15390   8.305  11.864   3.122 -0.6263 -0.3668 -0.1506
  875MOL0     C15391   8.253  11.717   3.157  1.2889 -0.4068 -0.5451
  875MOL0     O15392   8.371  11.630   3.168 -0.5927 -0.5509 -0.3189
  875MOL0     C15393   8.423  11.611   3.289 -0.0153  0.5479 -0.3689
  875MOL0     C15394   8.360  11.529   3.390 -0.5018  0.0305  0.6989
  875MOL0     C15395   8.426  11.490   3.508  1.0463  0.6779  0.7062
  875MOL0     C15396   8.556  11.526   3.533  0.0328  0.9938  0.3915
  875MOL0     C15397   8.628  11.470   3.648 -0.1100  0.9255 -0.2499
  875MOL0     O15398   8.553  11.407   3.751  0.0904  0.4919  0.1691
  875MOL0     C15399   8.619  11.335   3.856  0.0576 -0.1375 -1.0186
  875MOL0     C15400   8.743  11.365   3.918  1.3627 -0.9704 -1.2511
  875MOL0     C15401   8.797  11.277   4.015  0.1185 -0.3691  0.2247
  875MOL0     C15402   8.734  11.149   4.030  0.0612  0.0559 -0.1172
  875MOL0     O15403   8.773  11.072   4.135 -0.4615  0.5179 -0.0680
  875MOL0     C15404   8.754  10.934   4.158  0.8495  0.5985 -0.8493
  875MOL0     C15405   8.823  10.836   4.062 -0.2155  0.0171 -0.5532
  875MOL0     C15406   8.966  10.795   4.101  0.5121  0.8434  0.3176
  875MOL0     C15407   9.006  10.664   4.029  0.1231  0.0063  0.6196
  875MOL0     C15408   9.139  10.613   4.071 -0.3204 -0.0625  0.0902
  875MOL0     C15409   9.114  10.506   4.176  0.6789  0.1714 -0.4246
  875MOL0     C15410   9.243  10.453   4.229 -0.2424  0.0390 -0.6275
  875MOL0     C15411   9.228  10.370   4.362 -0.6020  0.0206  1.0538
  875MOL0    Cl15412   9.202  10.206   4.302 -0.3287 -0.0639 -0.1009
  875MOL0     C15413   8.610  11.124   3.965 -0.4848  0.1041 -1.3282
  875MOL0     C15414   8.559  11.214   3.878  0.7159 -0.0103  0.3543
  875MOL0     O15415   8.754  11.482   3.652  0.5541 -0.0756 -0.7064
  875MOL0     C15416   8.624  11.601   3.437 -0.4262  0.6580 -1.1326
  875MOL0     C15417   8.562  11.643   3.317  0.8382 -0.2137  0.7187
  875MOL0     N15418   8.645  11.898   3.095  0.0368  0.2817  0.0977
  875MOL0     N15419   8.747  11.925   3.168 -0.7204 -0.3784  0.0891
  875MOL0     C15420   9.572  11.510   3.224  0.1775  0.0466  0.0157
  875MOL0     C15421   9.609  11.405   3.315  0.8425 -0.2806 -0.4315
  875MOL0     C15422   9.743  10.982   3.422 -1.2129 -0.0496  0.7919
  875MOL0     C15423   9.838  10.878   3.392  0.4740  0.1322  0.6577
  875MOL0     C15424   9.880  10.776   3.483  0.4737  0.6165  0.0140
  875MOL0     C15425   9.838  10.774   3.621 -0.2013 -0.3549 -0.9656
  875MOL0     O15426   9.886  10.684   3.714  0.0421  0.4029  0.9070
  875MOL0     C15427  10.012  10.611   3.713 -0.2420 -0.1891 -0.4602
  875MOL0     C15428  10.052  10.546   3.845  0.1855 -0.4021  0.9487
  875MOL0     C15429  10.084  10.646   3.964  0.9638 -0.4898  0.2593
  875MOL0     C15430  10.227  10.702   3.968  0.1983 -0.1335 -0.1108
  875MOL0     C15431  10.240  10.798   4.073  0.1886  0.1381  0.4300
  875MOL0     C15432  10.237  10.898   4.144 -0.2693 -0.4605  0.0288
  875MOL0     C15433   9.750  10.873   3.646  1.0010  1.0921 -0.7246
  875MOL0     C15434   9.700  10.969   3.555 -0.5862  0.0510  0.2912
  875MOL0     H15435   9.426  11.148   3.188 -1.1743  0.0099  0.5700
  875MOL0     H15436   9.348  11.340   3.039  0.1533  2.2556 -0.3555
  875MOL0     H15437   9.233  11.580   3.031  1.0535 -2.8050  1.5700
  875MOL0     H15438   9.317  11.553   2.884  0.2203 -1.2123  0.5949
  875MOL0     H15439   9.235  11.771   2.844  0.2688  0.3523 -0.4193
  875MOL0     H15440   9.393  11.795   2.888 -0.6798  1.0797 -2.3773
  875MOL0     H15441   9.278  11.960   3.033 -1.2859  1.0202  0.6819
  875MOL0     H15442   9.344  11.833   3.134  1.4774  3.0094  0.7005
  875MOL0     H15443   9.059  11.820   3.038  0.0331  2.5672  0.6594
  875MOL0     H15444   9.127  11.715   3.160  2.3991 -0.5217  0.1244
  875MOL0     H15445   9.142  11.962   3.294 -2.7027  0.7967  2.4227
  875MOL0     H15446   8.978  11.902   3.259  1.1509 -3.1977 -0.5256
  875MOL0     H15447   9.002  12.041   3.044 -0.0525  2.1717 -1.0312
  875MOL0     H15448   9.145  12.098   3.112 -0.5257 -0.3138  0.6701
  875MOL0     H15449   9.032  12.211   3.293 -2.0850 -1.1884  0.9890
  875MOL0     H15450   8.950  12.254   3.144 -0.1884  0.0869 -0.5315
  875MOL0     H15451   8.794  12.234   3.323  1.9449 -0.3675  2.1017
  875MOL0     H15452   8.869  12.097   3.366  0.7985  1.9075  1.5010
  875MOL0     H15453   8.627  12.216   3.082  1.5006  0.2758 -1.3323
  875MOL0     H15454   8.490  12.012   2.859  1.9547  1.6866  0.6412
  875MOL0     H15455   8.395  12.088   2.989 -1.1194 -1.7189  2.7799
  875MOL0     H15456   8.435  11.791   2.979  0.6127 -0.3491 -0.9693
  875MOL0     H15457   8.302  11.878   2.898 -0.5999 -2.4608 -0.0023
  875MOL0     H15458   8.379  11.897   3.196 -0.5889  2.4747 -1.3148
  875MOL0     H15459   8.225  11.938   3.130 -0.2207 -0.0736  1.8676
  875MOL0     H15460   8.180  11.674   3.088 -0.0109  0.2037  0.4105
  875MOL0     H15461   8.198  11.728   3.251  1.0884 -0.1438 -0.6879
  875MOL0     H15462   8.257  11.508   3.365 -0.8817  1.6609  0.7444
  875MOL0     H15463   8.359  11.424   3.562  0.1968 -1.1370 -2.3342
  875MOL0     H15464   8.800  11.457   3.909 -1.7316  1.4964  1.5796
  875MOL0     H15465   8.883  11.290   4.081  0.2327 -1.1286  0.2337
  875MOL0     H15466   8.647  10.911   4.151  1.0991 -0.6456 -0.7712
  875MOL0     H15467   8.785  10.907   4.259 -0.0827 -0.3788 -0.8000
  875MOL0     H15468   8.821  10.873   3.959  0.2503  1.7707  0.0235
  875MOL0     H15469   8.777  10.737   4.063 -0.2548  0.0315 -0.8698
  875MOL0     H15470   8.970  10.764   4.205 -0.8372 -3.3946 -0.7061
  875MOL0     H15471   9.031  10.881   4.081  0.8758  1.1258  2.5199
  875MOL0     H15472   8.934  10.583   4.036 -2.9637  2.7061  4.3997
  875MOL0     H15473   9.029  10.685   3.924  0.1170  1.0674  0.8147
  875MOL0     H15474   9.204  10.691   4.113  1.9335  1.1736 -4.9253
  875MOL0     H15475   9.189  10.571   3.983  0.0728 -0.2205  0.3887
  875MOL0     H15476   9.059  10.422   4.132  0.3790  1.2905 -2.3013
  875MOL0     H15477   9.049  10.544   4.255  0.4272  2.4262 -1.6385
  875MOL0     H15478   9.281  10.380   4.157  2.6199 -0.3146  1.1080
  875MOL0     H15479   9.318  10.531   4.245  0.0018 -0.3501  0.1694
  875MOL0     H15480   9.148  10.407   4.427 -2.2963  2.5945 -2.1777
  875MOL0     H15481   9.324  10.368   4.414 -1.1539  0.8211  2.1436
  875MOL0     H15482   8.567  11.026   3.977  1.2879 -0.4857  1.1416
  875MOL0     H15483   8.466  11.186   3.829 -0.4113 -1.1316  2.9281
  875MOL0     H15484   8.725  11.637   3.456 -0.5834 -0.6900  3.5219
  875MOL0     H15485   8.624  11.714   3.263  0.0817 -0.5281 -0.5869
  875MOL0     H15486   9.608  11.611   3.242  0.0262  0.3658 -1.4283
  875MOL0     H15487   9.666  11.422   3.405 -0.8846  0.2770  0.6001
  875MOL0     H15488   9.893  10.861   3.300  1.6849  1.2358  1.1471
  875MOL0     H15489   9.953  10.698   3.466  1.3349  1.1626  1.0596
  875MOL0     H15490  10.087  10.689   3.694 -2.6651  1.9089 -2.0472
  875MOL0     H15491  10.019  10.542   3.629  2.2798 -2.3928  1.3744
  875MOL0     H15492   9.976  10.468   3.860  0.2998 -1.0687 -1.4307
  875MOL0     H15493  10.147  10.494   3.830 -1.4640 -2.6588 -3.7247
  875MOL0     H15494  10.060  10.599   4.060 -1.9507 -0.8585 -0.5659
  875MOL0     H15495  10.002  10.718   3.968  1.9699  0.7337 -0.5610
  875MOL0     H15496  10.306  10.627   3.978  1.7294  1.7125  3.3424
  875MOL0     H15497  10.237  10.749   3.870 -0.3799  4.0409  1.6214
  875MOL0     H15498  10.239  10.984   4.208  2.6334  0.4034 -1.0624
  875MOL0     H15499   9.708  10.881   3.746 -0.1551 -0.2585 -1.0607
  875MOL0     H15500   9.625  11.036   3.595 -1.1380 -1.1500  1.3649
  876MOL0     O15501  11.184   3.927   9.591 -0.0152 -0.3019  0.1338
  876MOL0     C15502  11.105   3.916   9.679  0.1157 -0.5371 -0.3588
  876MOL0     O15503  10.992   3.832   9.691 -0.0346 -0.2921  0.1431
  876MOL0     C15504  10.966   3.737   9.592  0.1787  0.8415  0.8442
  876MOL0     C15505  10.916   3.615   9.631 -0.3852  0.2993 -0.0389
  876MOL0     C15506  10.882   3.520   9.539  0.4794 -0.7657 -0.0944
  876MOL0     C15507  10.889   3.542   9.405 -0.2340 -0.2764  0.6879
  876MOL0     O15508  10.839   3.445   9.326 -0.5250  0.6226 -0.1661
  876MOL0     C15509  10.789   3.475   9.194  0.0135  0.9666  0.5347
  876MOL0     C15510  10.691   3.364   9.162  0.4164 -0.8986 -0.9765
  876MOL0     C15511  10.620   3.380   9.017  0.4344  0.5958  0.6412
  876MOL0     C15512  10.511   3.272   9.017 -0.6098 -0.9046  0.3169
  876MOL0     C15513  10.423   3.284   8.896  0.3057  0.7846  0.4821
  876MOL0     C15514  10.301   3.379   8.923  1.5135  0.3196 -0.0095
  876MOL0     C15515  10.197   3.362   8.810  0.1566 -0.8605  0.4770
  876MOL0     C15516  10.101   3.250   8.829 -0.6726  0.7030  0.3581
  876MOL0     N15517   9.997   3.273   8.927  0.1233 -0.3858  1.0690
  876MOL0     C15518  10.003   3.363   9.029 -0.1845 -0.7440  0.4720
  876MOL0     C15519   9.879   3.350   9.088 -0.5138 -0.2732 -0.9596
  876MOL0     C15520   9.824   3.423   9.207 -0.8130  0.9368  0.0821
  876MOL0     C15521   9.673   3.435   9.203 -0.7486 -0.0893  0.3113
  876MOL0     C15522   9.618   3.486   9.333  0.6795 -0.2553  0.6026
  876MOL0     C15523   9.466   3.468   9.331  0.4646 -1.4735  0.0751
  876MOL0     O15524   9.410   3.527   9.216  0.1211  0.6664  0.0417
  876MOL0     C15525   9.320   3.635   9.231 -0.4669  0.6497 -0.0647
  876MOL0     C15526   9.320   3.740   9.144  0.5331  0.8435  0.5798
  876MOL0     C15527   9.244   3.859   9.155 -0.8285  1.5638  1.0294
  876MOL0     C15528   9.144   3.861   9.258  1.0959  0.7021  0.3908
  876MOL0     C15529   9.066   3.982   9.274  0.0911 -1.0848 -0.5150
  876MOL0     O15530   9.036   4.067   9.169  0.1658  0.3152 -0.2846
  876MOL0     C15531   8.954   4.181   9.184 -0.5438 -0.1495 -0.0434
  876MOL0     C15532   8.928   4.251   9.305 -0.5282 -0.4580 -0.3328
  876MOL0     C15533   8.865   4.377   9.285 -0.7026  1.5272  0.3281
  876MOL0     C15534   8.822   4.437   9.170 -0.1386 -0.5060  0.2735
  876MOL0     O15535   8.747   4.558   9.157  0.2953  0.5306  0.9026
  876MOL0     C15536   8.665   4.593   9.268  0.2922 -0.3727  0.0721
  876MOL0     C15537   8.602   4.732   9.242  0.4418  0.4043 -0.5754
  876MOL0     C15538   8.508   4.735   9.124 -0.5633 -0.6935 -0.3859
  876MOL0     C15539   8.428   4.858   9.116 -0.0053 -0.3995 -0.6346
  876MOL0     C15540   8.345   4.884   8.990 -0.0276 -0.3857  1.0080
  876MOL0     C15541   8.443   4.875   8.867 -0.4553 -0.4048 -0.2772
  876MOL0     C15542   8.402   4.931   8.734  0.4845 -0.2421 -0.6301
  876MOL0     C15543   8.484   4.898   8.609  0.6853  0.0492 -0.4892
  876MOL0    Cl15544   8.652   4.911   8.643 -0.4483 -0.2535  0.5551
  876MOL0     C15545   8.865   4.371   9.050 -0.0715  0.6751 -0.2457
  876MOL0     C15546   8.916   4.241   9.060 -0.4831  0.3008  0.7002
  876MOL0     O15547   9.051   4.014   9.392  0.6469  1.0365  0.1035
  876MOL0     C15548   9.141   3.763   9.358  0.3947  0.2573  1.0039
  876MOL0     C15549   9.233   3.652   9.340  0.6076 -0.0009 -0.8592
  876MOL0     N15550   9.803   3.255   9.022  0.5715  0.4128 -0.0843
  876MOL0     N15551   9.875   3.203   8.932 -0.3509 -0.8309 -1.1987
  876MOL0     C15552  10.951   3.657   9.362  0.0644 -0.1127 -0.0779
  876MOL0     C15553  10.986   3.757   9.452 -0.3586 -1.3820  0.3142
  876MOL0     C15554  11.135   3.988   9.803  0.6689 -0.1052 -0.4311
  876MOL0     C15555  11.181   4.119   9.804 -0.9741  0.5181  0.5607
  876MOL0     C15556  11.194   4.194   9.926  0.0102 -1.3222 -0.4798
  876MOL0     C15557  11.146   4.139  10.043  0.1864 -0.4654  0.3118
  876MOL0     O15558  11.183   4.218  10.153 -0.7548  0.0656  0.0857
  876MOL0     C15559  11.128   4.177  10.280  0.0002 -0.7698  0.5654
  876MOL0     C15560  10.975   4.199  10.292  0.0356  0.5703 -0.0771
  876MOL0     C15561  10.922   4.332  10.361 -0.4038  0.3634 -0.6262
  876MOL0     C15562  10.990   4.374  10.492 -0.3005  0.2907  0.0160
  876MOL0     C15563  10.918   4.467  10.578 -0.5630  0.2003  0.0287
  876MOL0     C15564  10.847   4.542  10.645  0.6193  0.9510 -0.5345
  876MOL0     C15565  11.085   4.013  10.046  0.5326 -0.5651 -0.7496
  876MOL0     C15566  11.087   3.939   9.924 -0.5487  0.1393  0.1089
  876MOL0     H15567  10.899   3.608   9.738 -0.5074 -1.4756 -0.1395
  876MOL0     H15568  10.827   3.435   9.576 -3.6778  1.3961 -0.7171
  876MOL0     H15569  10.878   3.480   9.131  0.8690 -0.5730  1.5469
  876MOL0     H15570  10.734   3.569   9.198  0.4368  1.2104  0.7464
  876MOL0     H15571  10.615   3.351   9.239  2.4477  2.2724  1.8471
  876MOL0     H15572  10.744   3.269   9.149  2.3453  0.3066 -2.5313
  876MOL0     H15573  10.685   3.353   8.934 -0.2655 -0.6190  0.4599
  876MOL0     H15574  10.583   3.482   9.005 -0.2558  0.3915  0.9542
  876MOL0     H15575  10.560   3.175   9.028  0.1970 -0.4319  0.9857
  876MOL0     H15576  10.444   3.293   9.101 -0.8501  1.5530 -0.4132
  876MOL0     H15577  10.391   3.183   8.867  3.5026  0.3372 -2.0797
  876MOL0     H15578  10.483   3.313   8.809  0.6532  1.1708  0.8425
  876MOL0     H15579  10.326   3.484   8.936 -1.6480  0.7758  5.0095
  876MOL0     H15580  10.256   3.355   9.020  1.5494 -0.0119 -0.0713
  876MOL0     H15581  10.140   3.456   8.801  3.6853  1.4166 -0.2640
  876MOL0     H15582  10.248   3.341   8.716  0.9257  3.2483 -0.2324
  876MOL0     H15583  10.148   3.156   8.858 -1.2117  0.6201  0.9760
  876MOL0     H15584  10.064   3.219   8.730  3.8158  1.4086 -1.8123
  876MOL0     H15585  10.078   3.438   9.055 -2.0698  1.5798 -0.4104
  876MOL0     H15586   9.874   3.520   9.220  1.4280 -0.0280 -0.7530
  876MOL0     H15587   9.866   3.372   9.294  0.4272  1.5564 -0.1213
  876MOL0     H15588   9.624   3.349   9.157 -2.3531  2.2658 -2.7788
  876MOL0     H15589   9.644   3.508   9.126 -0.7281 -2.1488 -1.7653
  876MOL0     H15590   9.660   3.433   9.419  1.3766  0.4233  0.6920
  876MOL0     H15591   9.657   3.588   9.340  4.5586 -1.6225  2.1429
  876MOL0     H15592   9.427   3.515   9.421 -0.1055  1.8270 -1.7513
  876MOL0     H15593   9.437   3.362   9.327 -3.1609 -0.6040 -3.0694
  876MOL0     H15594   9.393   3.743   9.063  2.5957  0.6602  2.3278
  876MOL0     H15595   9.248   3.934   9.077  1.4903 -1.1515 -1.7285
  876MOL0     H15596   8.951   4.223   9.407  1.2749  2.5269  0.1941
  876MOL0     H15597   8.848   4.434   9.375 -0.1519  4.0298 -1.0699
  876MOL0     H15598   8.726   4.603   9.359 -0.2383  0.9418  0.3067
  876MOL0     H15599   8.581   4.524   9.278 -1.1135  1.3642  0.8521
  876MOL0     H15600   8.687   4.800   9.235  2.9040 -2.2132  1.4753
  876MOL0     H15601   8.548   4.753   9.335 -1.5975 -2.2635 -1.0140
  876MOL0     H15602   8.436   4.653   9.135 -2.4463  1.0108  0.7184
  876MOL0     H15603   8.570   4.729   9.034  1.7092 -0.9378  1.1120
  876MOL0     H15604   8.364   4.866   9.205  2.8957  0.3724  1.5390
  876MOL0     H15605   8.495   4.944   9.113  0.4239 -0.6594  0.6034
  876MOL0     H15606   8.308   4.986   9.000  0.9216 -0.1167  1.9996
  876MOL0     H15607   8.260   4.816   8.983 -1.1857  1.0055  1.1703
  876MOL0     H15608   8.470   4.770   8.857  3.2080  0.2660  0.8620
  876MOL0     H15609   8.533   4.931   8.895 -0.4443 -1.4791  2.1521
  876MOL0     H15610   8.298   4.905   8.716  0.4256 -1.3627  1.1345
  876MOL0     H15611   8.413   5.038   8.756  0.8491 -0.2383 -0.8190
  876MOL0     H15612   8.459   4.976   8.537 -2.7855  1.4678  1.9681
  876MOL0     H15613   8.450   4.797   8.583 -0.5740  0.1202  0.7378
  876MOL0     H15614   8.837   4.403   8.950  0.4763 -0.2658 -0.7154
  876MOL0     H15615   8.938   4.183   8.971 -2.5812 -0.3437  0.5449
  876MOL0     H15616   9.070   3.784   9.437  2.0130  0.1162  2.5684
  876MOL0     H15617   9.232   3.578   9.419  3.4831  0.4269 -0.3152
  876MOL0     H15618  10.972   3.672   9.256  3.3081 -2.0001  0.1344
  876MOL0     H15619  11.035   3.848   9.420 -3.7802  1.4116  2.2803
  876MOL0     H15620  11.215   4.162   9.710  1.9094  0.3566  1.4253
  876MOL0     H15621  11.239   4.292   9.919  0.6158 -1.7107 -2.4608
  876MOL0     H15622  11.171   4.234  10.363 -1.8621  1.2193  0.2351
  876MOL0     H15623  11.150   4.071  10.295 -0.4947 -0.9802 -0.1474
  876MOL0     H15624  10.921   4.172  10.200 -1.4114  0.2564  0.8373
  876MOL0     H15625  10.941   4.131  10.371 -1.5812  1.3837 -0.0408
  876MOL0     H15626  10.817   4.307  10.380 -0.1475  0.2030  0.6876
  876MOL0     H15627  10.928   4.420  10.297  1.7407  0.3673 -0.5004
  876MOL0     H15628  11.000   4.285  10.555  5.4732  1.7281  1.7746
  876MOL0     H15629  11.091   4.409  10.466 -0.5171  1.0094  0.1229
  876MOL0     H15630  10.781   4.612  10.693 -0.6357 -0.0088 -0.8123
  876MOL0     H15631  11.061   3.967  10.142  0.1210 -2.1207 -1.5782
  876MOL0     H15632  11.029   3.848   9.934 -1.6361  0.5012 -2.2848
  877MOL0     O15633   7.599   5.629   0.449  0.2470 -0.0003 -0.4625
  877MOL0     C15634   7.627   5.752   0.465 -0.4157 -0.1337 -0.0602
  877MOL0     O15635   7.615   5.827   0.576  0.2044 -0.7513  0.2654
  877MOL0     C15636   7.537   5.789   0.681  0.3182  0.6038 -0.4617
  877MOL0     C15637   7.420   5.717   0.669 -0.0864 -0.3267  0.4548
  877MOL0     C15638   7.350   5.670   0.779 -0.2108  0.0828  0.8119
  877MOL0     C15639   7.381   5.721   0.911  0.4360  0.2713  0.0056
  877MOL0     O15640   7.308   5.700   1.027  0.0397 -0.0991  0.3406
  877MOL0     C15641   7.231   5.585   1.040  0.4181 -0.1053 -0.2306
  877MOL0     C15642   7.157   5.587   1.172  0.6781 -0.0732  0.9635
  877MOL0     C15643   7.077   5.460   1.208  0.9680  0.6569 -0.0766
  877MOL0     C15644   7.159   5.333   1.229 -0.0483  0.5408  0.4875
  877MOL0     C15645   7.076   5.217   1.284 -0.0154 -0.8771 -0.4420
  877MOL0     C15646   6.973   5.168   1.185 -0.6228  0.1161 -0.5488
  877MOL0     C15647   6.914   5.029   1.218  0.5524  0.4473 -0.7502
  877MOL0     C15648   7.011   4.912   1.184 -0.1146 -0.8366  0.7576
  877MOL0     N15649   7.095   4.873   1.300  0.7925  0.9616  0.2345
  877MOL0     C15650   7.047   4.857   1.423  0.4419  0.9802 -0.3833
  877MOL0     C15651   7.165   4.856   1.502  0.6901 -0.6082  0.3525
  877MOL0     C15652   7.164   4.809   1.642  0.2831  0.8920 -0.3593
  877MOL0     C15653   7.153   4.918   1.752  1.0514  0.4935 -0.4086
  877MOL0     C15654   7.263   5.028   1.743  0.1875 -0.2433 -0.0173
  877MOL0     C15655   7.414   4.965   1.755 -0.1829 -0.5440  0.3210
  877MOL0     O15656   7.508   5.068   1.770  0.3452  0.7769 -0.5218
  877MOL0     C15657   7.509   5.154   1.874 -0.1558 -0.1153 -0.4582
  877MOL0     C15658   7.435   5.157   1.994 -0.6284  1.0107  0.0690
  877MOL0     C15659   7.448   5.255   2.098 -0.5430  0.9044  0.5973
  877MOL0     C15660   7.545   5.354   2.073  0.4584 -0.1148 -0.5785
  877MOL0     C15661   7.566   5.452   2.180 -0.1119 -0.3207  0.0729
  877MOL0     O15662   7.631   5.560   2.137  0.4564  0.0302 -0.0240
  877MOL0     C15663   7.667   5.659   2.232 -1.3678 -0.1938  0.5333
  877MOL0     C15664   7.569   5.719   2.312  0.2476  0.0339 -0.4875
  877MOL0     C15665   7.600   5.821   2.397  0.0940  0.6684  0.4169
  877MOL0     C15666   7.730   5.865   2.411  0.7866 -0.0318 -0.3405
  877MOL0     O15667   7.741   5.978   2.491 -0.0036  0.1552 -1.1262
  877MOL0     C15668   7.862   6.025   2.541  0.6574  0.3060  0.2667
  877MOL0     C15669   7.847   6.166   2.583  0.6338  0.1950 -0.3842
  877MOL0     C15670   7.969   6.238   2.651  0.4940  0.4159  0.6530
  877MOL0     C15671   7.938   6.378   2.702 -0.3195  1.1648 -0.1787
  877MOL0     C15672   8.059   6.456   2.738 -0.3295  0.1715  0.0437
  877MOL0     C15673   8.024   6.583   2.816 -0.4586  0.1785  0.3118
  877MOL0     C15674   7.980   6.691   2.710  0.2785  0.4913 -0.5367
  877MOL0     C15675   7.932   6.818   2.775  0.3736 -0.0883 -0.4562
  877MOL0    Cl15676   7.876   6.927   2.635 -0.2023  0.2300  0.1911
  877MOL0     C15677   7.831   5.797   2.336  0.2979 -0.3281 -0.7623
  877MOL0     C15678   7.800   5.690   2.245 -0.5386 -0.7224 -0.8606
  877MOL0     O15679   7.516   5.431   2.293  0.0154  0.5949 -0.2927
  877MOL0     C15680   7.621   5.357   1.964  0.2760 -0.3657  0.1100
  877MOL0     C15681   7.602   5.259   1.865 -0.0730  0.4332  0.1521
  877MOL0     N15682   7.269   4.860   1.415 -0.2957  0.2428 -0.8664
  877MOL0     N15683   7.227   4.868   1.291 -0.3972 -0.6719 -0.8027
  877MOL0     C15684   7.493   5.803   0.927  1.0263  0.5993  0.3687
  877MOL0     C15685   7.569   5.833   0.813 -0.0242  0.4240 -0.0202
  877MOL0     C15686   7.671   5.830   0.349 -0.0226 -0.1856  0.6416
  877MOL0     C15687   7.704   5.977   0.361  0.2482  0.2642  0.3914
  877MOL0     C15688   7.746   6.043   0.244 -0.7208  0.1476  0.2624
  877MOL0     C15689   7.770   5.980   0.114 -0.4950  0.5133  0.2066
  877MOL0     O15690   7.814   6.037  -0.004 -0.0221 -0.2704  0.1166
  877MOL0     C15691   7.800   6.172  -0.039  0.2276 -0.2777 -0.2278
  877MOL0     C15692   7.792   6.185  -0.189 -0.0892 -0.0231  0.2488
  877MOL0     C15693   7.657   6.168  -0.258 -0.2468 -0.7661  0.7153
  877MOL0     C15694   7.675   6.198  -0.409 -0.4437  0.8996 -0.2299
  877MOL0     C15695   7.693   6.340  -0.430  0.2225  0.7838  0.2403
  877MOL0     C15696   7.695   6.458  -0.452 -1.0901  0.6535 -0.0047
  877MOL0     C15697   7.740   5.844   0.115  0.1734  0.1667 -1.0370
  877MOL0     C15698   7.688   5.774   0.223 -0.6823  0.6981  0.7412
  877MOL0     H15699   7.393   5.676   0.572  1.4624 -2.6752  0.9319
  877MOL0     H15700   7.261   5.612   0.755  0.2212 -0.2665 -0.0148
  877MOL0     H15701   7.298   5.499   1.033 -1.3138 -1.4326 -1.2571
  877MOL0     H15702   7.157   5.581   0.960  1.3956 -1.4087 -1.1145
  877MOL0     H15703   7.089   5.673   1.174 -0.2211 -0.7396  0.1667
  877MOL0     H15704   7.229   5.597   1.253  0.8654 -0.1445  0.8063
  877MOL0     H15705   7.004   5.434   1.131  1.9294 -1.2180 -0.4262
  877MOL0     H15706   7.023   5.475   1.302  0.7713 -1.3391  0.1747
  877MOL0     H15707   7.199   5.311   1.129 -0.8950 -1.6596  0.5687
  877MOL0     H15708   7.237   5.355   1.302 -0.4656 -2.9326  2.1960
  877MOL0     H15709   7.014   5.248   1.369 -2.2342 -2.6401 -1.3379
  877MOL0     H15710   7.141   5.134   1.316  2.1721  0.7764 -0.3949
  877MOL0     H15711   7.016   5.157   1.085  0.4983  1.5564 -0.2625
  877MOL0     H15712   6.892   5.240   1.167  0.5796  2.1055  1.4493
  877MOL0     H15713   6.894   5.031   1.326 -1.9929  1.7518 -1.1867
  877MOL0     H15714   6.827   5.021   1.153 -2.3162 -5.1670  3.0216
  877MOL0     H15715   7.084   4.934   1.104  1.6212 -3.5564  1.4365
  877MOL0     H15716   6.957   4.820   1.157 -1.0113 -0.5443  1.5333
  877MOL0     H15717   6.947   4.865   1.465  1.5370  3.2718  2.0468
  877MOL0     H15718   7.250   4.743   1.653  1.2721  2.0833 -0.7400
  877MOL0     H15719   7.080   4.740   1.649  0.5872  0.6469  0.9605
  877MOL0     H15720   7.166   4.877   1.852 -1.5489  1.2918  0.3202
  877MOL0     H15721   7.053   4.958   1.763  0.9253 -0.6096  4.9964
  877MOL0     H15722   7.258   5.097   1.659 -0.7926 -0.8814 -0.4971
  877MOL0     H15723   7.239   5.094   1.827  2.7118  1.4272 -0.5075
  877MOL0     H15724   7.433   4.884   1.685 -5.4683 -1.7693 -0.1292
  877MOL0     H15725   7.432   4.914   1.851  3.2070 -2.4367 -1.1466
  877MOL0     H15726   7.368   5.074   2.018  3.2243 -1.3327  4.4854
  877MOL0     H15727   7.389   5.256   2.189 -1.8455 -3.3951 -0.0013
  877MOL0     H15728   7.468   5.679   2.299  0.0812 -0.4000  1.7011
  877MOL0     H15729   7.518   5.870   2.449 -0.9500  0.9614 -1.4260
  877MOL0     H15730   7.939   6.001   2.467 -1.9563 -2.6363 -1.7358
  877MOL0     H15731   7.901   5.969   2.627 -1.8815 -1.2086  0.5272
  877MOL0     H15732   7.761   6.148   2.648  0.5399 -1.2105 -0.8437
  877MOL0     H15733   7.807   6.220   2.496  0.9551 -0.3085 -0.8579
  877MOL0     H15734   8.055   6.239   2.584 -2.1325  1.6379 -3.0128
  877MOL0     H15735   7.991   6.184   2.743 -1.2606 -0.1663  0.7775
  877MOL0     H15736   7.899   6.429   2.614 -1.5646  0.9819  0.2400
  877MOL0     H15737   7.879   6.361   2.793  1.7145  1.2434  1.2260
  877MOL0     H15738   8.141   6.458   2.666  0.9457 -2.7043  1.2547
  877MOL0     H15739   8.106   6.393   2.814 -1.9701  0.9025  1.7432
  877MOL0     H15740   8.116   6.606   2.871 -0.3269 -1.4590  0.8186
  877MOL0     H15741   7.941   6.555   2.881  0.5480 -4.6222 -0.0825
  877MOL0     H15742   8.068   6.717   2.650  0.6074  0.9162  0.1236
  877MOL0     H15743   7.900   6.654   2.646 -0.2164  3.1157 -1.5512
  877MOL0     H15744   8.014   6.867   2.829 -0.9893  0.7321  0.9771
  877MOL0     H15745   7.847   6.808   2.844  1.4139  1.3043  1.1206
  877MOL0     H15746   7.934   5.830   2.332  0.3546 -0.6237 -2.8177
  877MOL0     H15747   7.877   5.633   2.194 -0.3941 -0.6212 -0.7568
  877MOL0     H15748   7.680   5.447   1.949  2.5901 -1.5792  1.2727
  877MOL0     H15749   7.656   5.267   1.772  0.6759 -2.8062  0.2080
  877MOL0     H15750   7.518   5.854   1.020  4.2181  1.4035 -0.7816
  877MOL0     H15751   7.652   5.903   0.821 -1.2438  1.7997  1.1217
  877MOL0     H15752   7.677   6.036   0.448 -2.8353  2.4709 -1.8453
  877MOL0     H15753   7.778   6.147   0.239  0.7558 -0.2745  0.3884
  877MOL0     H15754   7.884   6.222   0.011 -0.8664  0.2649  1.1604
  877MOL0     H15755   7.708   6.212   0.007  0.9605 -0.2865  1.3136
  877MOL0     H15756   7.819   6.286  -0.221  0.9421 -0.3171  0.1491
  877MOL0     H15757   7.860   6.109  -0.230 -0.3917  0.8972 -2.1077
  877MOL0     H15758   7.586   6.235  -0.208 -0.1035  2.4551 -2.9240
  877MOL0     H15759   7.617   6.067  -0.245  0.4194 -1.3090 -1.1435
  877MOL0     H15760   7.768   6.148  -0.439 -0.5914 -1.3501  2.6376
  877MOL0     H15761   7.594   6.156  -0.469 -1.0229 -0.1741  1.2570
  877MOL0     H15762   7.700   6.563  -0.471  3.2698  0.9947  1.7907
  877MOL0     H15763   7.756   5.782   0.027 -2.1788 -1.2058 -0.5673
  877MOL0     H15764   7.665   5.670   0.203  1.0454  0.3114  0.6017
  878MOL0     O15765   6.092   7.455   0.631  0.1361  0.2112 -0.5670
  878MOL0     C15766   6.118   7.464   0.512 -0.2695  0.5193 -0.3421
  878MOL0     O15767   6.230   7.511   0.455  1.1737  0.3931  0.5655
  878MOL0     C15768   6.354   7.468   0.497  0.6971 -0.8223 -0.0642
  878MOL0     C15769   6.460   7.492   0.400  0.4835  0.3826  0.2786
  878MOL0     C15770   6.593   7.462   0.432  0.2063  0.1264 -0.6466
  878MOL0     C15771   6.635   7.413   0.556  0.2464  0.1178 -0.3455
  878MOL0     O15772   6.755   7.364   0.588 -0.8478  0.4843  0.0929
  878MOL0     C15773   6.867   7.421   0.516 -0.2237  0.1777  0.5595
  878MOL0     C15774   6.912   7.339   0.393 -1.1355 -0.4897  0.6644
  878MOL0     C15775   7.053   7.266   0.411 -0.2341  0.5556 -0.2506
  878MOL0     C15776   7.173   7.352   0.420  0.6924 -0.3842  1.0887
  878MOL0     C15777   7.302   7.272   0.453 -0.3844 -0.8699  0.2205
  878MOL0     C15778   7.425   7.366   0.491  0.0222 -0.1773 -0.0048
  878MOL0     C15779   7.524   7.280   0.590  0.6821  1.0121  0.0823
  878MOL0     C15780   7.506   7.325   0.736 -0.1923  0.4120 -1.0719
  878MOL0     N15781   7.362   7.312   0.775 -0.4495  0.5256  0.0748
  878MOL0     C15782   7.300   7.425   0.828  1.4350  0.3107  0.9852
  878MOL0     C15783   7.177   7.381   0.856 -0.4946 -0.2651 -0.5582
  878MOL0     C15784   7.080   7.466   0.940  0.1650  0.5364 -0.4286
  878MOL0     C15785   6.930   7.443   0.910  0.8336  0.0371  0.7578
  878MOL0     C15786   6.819   7.535   0.971  0.4293 -0.1696 -0.7477
  878MOL0     C15787   6.821   7.525   1.118 -0.3863 -0.2782 -1.3698
  878MOL0     O15788   6.937   7.568   1.191  0.3261  0.3163  0.1229
  878MOL0     C15789   6.923   7.685   1.260  0.3701  0.0856  0.2228
  878MOL0     C15790   6.864   7.703   1.380 -0.0127 -0.2227  0.5088
  878MOL0     C15791   6.860   7.830   1.437 -0.4603 -0.0641  1.2800
  878MOL0     C15792   6.928   7.933   1.366  0.9636 -0.4038  0.0700
  878MOL0     C15793   6.914   8.075   1.421 -0.1496 -0.1041  1.1427
  878MOL0     O15794   6.844   8.095   1.536  0.4129  0.3196 -0.4663
  878MOL0     C15795   6.862   8.223   1.607  0.2498  0.6925  0.3884
  878MOL0     C15796   6.841   8.212   1.743 -0.2967  0.2604 -0.6659
  878MOL0     C15797   6.824   8.329   1.825  0.1254  1.1952 -0.2861
  878MOL0     C15798   6.850   8.457   1.771  0.5227  0.3441 -0.6250
  878MOL0     O15799   6.826   8.568   1.844  0.0671 -0.3678 -0.6762
  878MOL0     C15800   6.838   8.698   1.779  0.2053 -0.3226  0.2995
  878MOL0     C15801   6.757   8.790   1.875 -0.2912 -0.9728 -1.1982
  878MOL0     C15802   6.656   8.898   1.808 -0.1547  0.3128  0.5435
  878MOL0     C15803   6.592   9.002   1.890 -0.0971 -0.4280 -0.2880
  878MOL0     C15804   6.521   8.921   2.006 -0.3269  0.0084  0.0778
  878MOL0     C15805   6.387   8.848   1.967 -0.3570 -0.5281  0.0296
  878MOL0     C15806   6.320   8.772   2.090 -0.8688  0.2356 -0.2519
  878MOL0     C15807   6.275   8.846   2.208 -0.3625 -0.8084  0.9432
  878MOL0    Cl15808   6.170   8.752   2.308 -0.1014  0.0218 -0.1245
  878MOL0     C15809   6.890   8.463   1.643 -0.0504 -0.5408  0.2751
  878MOL0     C15810   6.891   8.351   1.564  0.1666  0.0267  0.1910
  878MOL0     O15811   6.973   8.164   1.355  0.3595  0.2214  0.0489
  878MOL0     C15812   7.005   7.909   1.260 -0.5979  0.6082 -0.7408
  878MOL0     C15813   6.997   7.787   1.203 -0.7609 -0.3848 -0.6940
  878MOL0     N15814   7.174   7.241   0.838 -0.2097  0.1321 -0.4528
  878MOL0     N15815   7.293   7.207   0.794  0.2694 -0.2448 -0.0887
  878MOL0     C15816   6.521   7.380   0.645  0.1524 -0.7828  0.6233
  878MOL0     C15817   6.386   7.411   0.617 -0.5404  0.7742 -0.6122
  878MOL0     C15818   6.018   7.430   0.425 -0.0528 -0.9678 -0.4097
  878MOL0     C15819   5.919   7.341   0.471  0.8186 -0.9313 -0.8437
  878MOL0     C15820   5.808   7.306   0.387  0.9248 -0.1749 -1.1851
  878MOL0     C15821   5.797   7.368   0.262 -0.5428 -1.1304 -0.0966
  878MOL0     O15822   5.684   7.372   0.194 -0.2221  0.8035  0.1473
  878MOL0     C15823   5.608   7.249   0.178 -0.4521  0.1198  0.1069
  878MOL0     C15824   5.469   7.246   0.242 -0.0400 -0.3868 -0.0112
  878MOL0     C15825   5.381   7.129   0.198 -0.4426 -0.3102  0.6748
  878MOL0     C15826   5.251   7.133   0.265 -0.0614  0.5257  0.4363
  878MOL0     C15827   5.166   7.237   0.215  0.4838 -0.0884 -0.1617
  878MOL0     C15828   5.129   7.317   0.130 -0.6693 -0.9864 -0.2702
  878MOL0     C15829   5.889   7.465   0.224  0.3811  0.3096  0.5873
  878MOL0     C15830   5.997   7.489   0.301 -0.2438  0.2061  0.3543
  878MOL0     H15831   6.430   7.541   0.307  2.3588  3.7864  1.3048
  878MOL0     H15832   6.663   7.479   0.351  0.9818  0.7054  0.1217
  878MOL0     H15833   6.951   7.407   0.584  0.7228 -2.5297 -1.0415
  878MOL0     H15834   6.853   7.529   0.502  0.2871  0.3342  1.2125
  878MOL0     H15835   6.910   7.408   0.308 -2.0746 -2.8997 -1.4036
  878MOL0     H15836   6.832   7.270   0.363 -1.8879  0.0703  1.3580
  878MOL0     H15837   7.049   7.184   0.339 -2.0493 -2.0178  2.5341
  878MOL0     H15838   7.050   7.207   0.503 -0.7191  0.7772 -0.1205
  878MOL0     H15839   7.191   7.383   0.317 -1.3066 -0.9237  0.5315
  878MOL0     H15840   7.157   7.434   0.490  0.3772 -1.3017  2.1114
  878MOL0     H15841   7.328   7.202   0.372 -0.6764 -1.3384  0.5288
  878MOL0     H15842   7.269   7.215   0.540 -0.2413  0.3418  1.0908
  878MOL0     H15843   7.407   7.467   0.528  1.4814 -0.1463  0.7177
  878MOL0     H15844   7.479   7.377   0.397 -1.2246  2.8799 -0.4553
  878MOL0     H15845   7.500   7.174   0.582  0.2736  0.9919  1.4236
  878MOL0     H15846   7.627   7.280   0.552 -0.0659  0.7449 -2.0482
  878MOL0     H15847   7.536   7.430   0.747 -0.7212  0.4981 -0.4160
  878MOL0     H15848   7.578   7.269   0.796 -0.0911  0.2084 -1.3773
  878MOL0     H15849   7.321   7.531   0.828 -0.6353  0.7851  2.5160
  878MOL0     H15850   7.108   7.570   0.927 -3.2305  1.8683  1.6251
  878MOL0     H15851   7.084   7.436   1.045 -1.0587 -4.0989 -1.4733
  878MOL0     H15852   6.911   7.335   0.915  0.0439  0.0075 -1.5310
  878MOL0     H15853   6.913   7.456   0.803  0.4790  0.6527  0.8822
  878MOL0     H15854   6.833   7.634   0.926  4.1440  0.1344  0.7053
  878MOL0     H15855   6.719   7.501   0.941 -0.3494  1.0105  0.3996
  878MOL0     H15856   6.802   7.422   1.148  0.1343 -0.9814 -3.3183
  878MOL0     H15857   6.732   7.575   1.158  0.1132 -0.1438 -0.3892
  878MOL0     H15858   6.817   7.618   1.430  0.9132  0.2661  2.3105
  878MOL0     H15859   6.807   7.846   1.530  2.0894 -1.8154  3.1776
  878MOL0     H15860   6.816   8.114   1.784  1.4180 -1.9088 -4.2956
  878MOL0     H15861   6.790   8.310   1.926  1.9824  0.5517  0.2658
  878MOL0     H15862   6.791   8.703   1.680  0.9897  0.6893 -0.0438
  878MOL0     H15863   6.945   8.720   1.766  0.3666 -0.3484  1.5171
  878MOL0     H15864   6.828   8.837   1.944 -1.6617  0.3785 -0.6522
  878MOL0     H15865   6.696   8.727   1.940  0.7938  1.6297  2.7040
  878MOL0     H15866   6.575   8.850   1.751  0.7766  0.9686 -1.4031
  878MOL0     H15867   6.707   8.950   1.726 -0.3938 -1.4848 -0.8198
  878MOL0     H15868   6.679   9.061   1.920 -1.1796  0.4427  1.2795
  878MOL0     H15869   6.522   9.065   1.833  0.0749 -0.4926 -0.5707
  878MOL0     H15870   6.493   8.996   2.081  2.7576  0.6093  0.7769
  878MOL0     H15871   6.591   8.859   2.062 -1.5559 -0.4896  1.1296
  878MOL0     H15872   6.389   8.776   1.885 -4.1805  1.4155 -2.0908
  878MOL0     H15873   6.320   8.926   1.928 -1.2800 -1.0999  0.4369
  878MOL0     H15874   6.241   8.718   2.036  2.5026 -1.1529 -4.2836
  878MOL0     H15875   6.382   8.695   2.137 -0.3236  0.0336 -1.2819
  878MOL0     H15876   6.220   8.925   2.155  1.2287 -0.6725 -0.6111
  878MOL0     H15877   6.351   8.897   2.269 -1.7259 -0.7699  2.6890
  878MOL0     H15878   6.915   8.557   1.595  0.5163 -0.2726  1.0760
  878MOL0     H15879   6.895   8.362   1.456 -0.3973  2.5405  0.3726
  878MOL0     H15880   7.068   7.988   1.220 -1.4674  3.7430  3.3567
  878MOL0     H15881   7.064   7.756   1.123  3.0370  0.4840  1.8696
  878MOL0     H15882   6.540   7.331   0.740 -1.2115  1.5227  2.1802
  878MOL0     H15883   6.306   7.391   0.688  0.8324  0.2437  0.8548
  878MOL0     H15884   5.927   7.298   0.571 -2.4978  2.7092  1.3093
  878MOL0     H15885   5.732   7.250   0.441  1.6543 -0.8444 -0.8305
  878MOL0     H15886   5.659   7.161   0.219 -1.9025  0.1053  2.0135
  878MOL0     H15887   5.577   7.244   0.073  2.2584  1.6894 -0.8767
  878MOL0     H15888   5.472   7.259   0.350  0.9421  1.6300 -0.2368
  878MOL0     H15889   5.413   7.337   0.215 -2.7871 -2.4597 -1.8323
  878MOL0     H15890   5.433   7.038   0.228 -1.9178 -0.5605  2.7434
  878MOL0     H15891   5.365   7.128   0.090 -0.0921 -1.8323  0.6215
  878MOL0     H15892   5.206   7.033   0.263  0.7798  0.1626 -1.6138
  878MOL0     H15893   5.260   7.168   0.369  0.3159  1.4349  0.1096
  878MOL0     H15894   5.101   7.401   0.068 -2.8697 -1.1520  0.4234
  878MOL0     H15895   5.877   7.534   0.140 -0.6061 -2.3356 -1.5969
  878MOL0     H15896   6.060   7.574   0.279  0.3112 -0.1147  0.6954
  879MOL0     O15897   7.573   5.556  10.412 -0.1091 -0.0455 -1.4270
  879MOL0     C15898   7.558   5.436  10.414  0.3448 -0.4034  0.6274
  879MOL0     O15899   7.462   5.364  10.470  0.8636 -0.6131  0.3309
  879MOL0     C15900   7.337   5.424  10.479 -0.5801 -0.3768 -0.1989
  879MOL0     C15901   7.311   5.507  10.591  0.6040 -0.4313 -0.4157
  879MOL0     C15902   7.182   5.559  10.604 -0.2126 -0.7140  0.8455
  879MOL0     C15903   7.078   5.527  10.508 -0.3677 -0.3223  0.9017
  879MOL0     O15904   6.947   5.574  10.525  0.2561 -0.6037 -0.8960
  879MOL0     C15905   6.907   5.681  10.618 -0.0004 -0.1556  0.5481
  879MOL0     C15906   6.756   5.654  10.637 -0.1422 -0.5521  0.5228
  879MOL0     C15907   6.704   5.753  10.745  0.2042 -0.0549  1.2060
  879MOL0     C15908   6.727   5.697  10.881  0.4077 -1.1912 -0.1094
  879MOL0     C15909   6.716   5.818  10.991  0.0899  0.5563  0.7659
  879MOL0     C15910   6.578   5.883  10.990 -0.8642 -0.0881  0.3549
  879MOL0     C15911   6.568   5.966  11.113 -0.0549  1.0830 -0.4284
  879MOL0     C15912   6.439   6.046  11.108  0.2459 -0.3251  0.5292
  879MOL0     N15913   6.419   6.113  11.234  0.6192 -0.2818 -0.1254
  879MOL0     C15914   6.496   6.216  11.281 -0.2987  0.2383  0.4086
  879MOL0     C15915   6.463   6.230  11.410  0.4853  0.1494  0.7824
  879MOL0     C15916   6.531   6.324  11.502  0.1534 -0.1800  0.5548
  879MOL0     C15917   6.554   6.457  11.442  0.0118 -0.7636  0.8161
  879MOL0     C15918   6.424   6.512  11.371 -0.2469 -0.3312 -0.8948
  879MOL0     C15919   6.447   6.654  11.319 -0.9023 -0.3054 -0.4226
  879MOL0     O15920   6.451   6.753  11.419 -0.4883 -0.5731 -0.4362
  879MOL0     C15921   6.554   6.839  11.411  0.0383 -0.6522 -0.2111
  879MOL0     C15922   6.591   6.910  11.299 -0.3212 -1.2026  0.7046
  879MOL0     C15923   6.687   7.009  11.306 -0.2708  0.4496  0.1655
  879MOL0     C15924   6.756   7.030  11.423 -0.8466 -0.0911 -1.1041
  879MOL0     C15925   6.854   7.141  11.433  0.7052 -0.3496 -0.2456
  879MOL0     O15926   6.892   7.194  11.325 -0.7190  0.3283  0.5546
  879MOL0     C15927   6.969   7.312  11.333 -0.3858  0.5732  0.5099
  879MOL0     C15928   7.095   7.320  11.282  0.6887 -0.0068  0.7360
  879MOL0     C15929   7.158   7.441  11.274  0.5601  0.5354 -0.3956
  879MOL0     C15930   7.106   7.561  11.318  0.5981  0.2307 -0.7266
  879MOL0     O15931   7.171   7.677  11.312  0.3194 -0.7501  0.7211
  879MOL0     C15932   7.217   7.717  11.176  0.8052 -0.3636  0.1760
  879MOL0     C15933   7.194   7.856  11.156 -0.3171 -0.7406  0.5633
  879MOL0     C15934   7.277   7.936  11.257  0.4136  0.8406 -0.7140
  879MOL0     C15935   7.275   8.086  11.232 -0.1428  0.2196  0.6741
  879MOL0     C15936   7.408   8.143  11.245 -0.7654 -0.4564 -1.7013
  879MOL0     C15937   7.445   8.168  11.394 -1.0858 -1.0663 -0.4819
  879MOL0     C15938   7.556   8.272  11.412 -0.5779 -0.1972  0.4423
  879MOL0     C15939   7.579   8.318  11.558 -0.5106 -0.0364  0.5545
  879MOL0    Cl15940   7.665   8.489  11.562  0.0041  0.5014  0.5736
  879MOL0     C15941   6.979   7.570  11.374  0.0337  0.1233 -0.5213
  879MOL0     C15942   6.916   7.437  11.382 -1.1813 -1.0542  0.9066
  879MOL0     O15943   6.889   7.179  11.543 -0.4306 -0.1168  0.6562
  879MOL0     C15944   6.737   6.943  11.529  0.2148  0.1254 -0.8865
  879MOL0     C15945   6.625   6.853  11.530 -0.0757  0.2361  0.1375
  879MOL0     N15946   6.363   6.135  11.438  0.6660 -0.2884  0.6457
  879MOL0     N15947   6.338   6.067  11.333  0.2665  0.4120 -0.8237
  879MOL0     C15948   7.099   5.430  10.412  1.1092  0.0565 -0.3271
  879MOL0     C15949   7.227   5.367  10.411  0.0820 -0.7910  0.4101
  879MOL0     C15950   7.657   5.360  10.334  1.1047 -0.2226  0.2436
  879MOL0     C15951   7.629   5.238  10.270  0.3841  0.4676  0.2811
  879MOL0     C15952   7.720   5.177  10.186 -0.3393  0.2530 -0.1948
  879MOL0     C15953   7.840   5.243  10.155  1.5185  0.9724 -0.3842
  879MOL0     O15954   7.918   5.172  10.070  0.1209  0.0003  0.1815
  879MOL0     C15955   8.052   5.173  10.113  0.1283  0.3903  0.9693
  879MOL0     C15956   8.119   5.055  10.051  0.2016  0.4511  0.9106
  879MOL0     C15957   8.260   5.036  10.089  0.1042  0.3746  0.4407
  879MOL0     C15958   8.319   4.900  10.054 -0.1068  1.0809 -0.3973
  879MOL0     C15959   8.285   4.793  10.143  0.3321 -0.9397 -0.8095
  879MOL0     C15960   8.270   4.724  10.240  0.3323  0.0048 -0.4787
  879MOL0     C15961   7.862   5.365  10.216 -1.2177 -0.0374 -0.0908
  879MOL0     C15962   7.779   5.418  10.304  0.0637 -0.8093  0.4148
  879MOL0     H15963   7.391   5.540  10.656 -0.3864  1.2578  0.0165
  879MOL0     H15964   7.177   5.628  10.687  0.5351  1.4206 -0.7748
  879MOL0     H15965   6.923   5.782  10.580 -2.5647  1.1207  2.5093
  879MOL0     H15966   6.953   5.671  10.717 -0.6888  1.9280  1.1271
  879MOL0     H15967   6.727   5.551  10.659  0.7772 -1.1807 -1.0781
  879MOL0     H15968   6.703   5.683  10.546 -1.2718  2.4637  1.9994
  879MOL0     H15969   6.596   5.764  10.729  0.5430  0.5846 -0.8538
  879MOL0     H15970   6.735   5.856  10.726 -3.8522  1.2776  0.6348
  879MOL0     H15971   6.664   5.614  10.913  2.1731 -1.5040  3.0330
  879MOL0     H15972   6.830   5.660  10.894  0.9303 -0.1630 -1.1397
  879MOL0     H15973   6.796   5.892  10.980  1.5465 -0.7901  1.8372
  879MOL0     H15974   6.727   5.767  11.087 -0.7802 -2.7075 -0.7192
  879MOL0     H15975   6.502   5.805  10.980 -0.8080  0.0528 -1.4973
  879MOL0     H15976   6.579   5.940  10.897 -1.0615 -1.6759 -0.6480
  879MOL0     H15977   6.549   5.894  11.193 -2.0634 -0.2070 -1.9563
  879MOL0     H15978   6.654   6.029  11.137  1.4173 -1.3284  0.9339
  879MOL0     H15979   6.355   5.979  11.091 -0.5798  1.1447 -1.5343
  879MOL0     H15980   6.447   6.111  11.021 -0.5726 -0.4351  0.3629
  879MOL0     H15981   6.583   6.263  11.238  0.4595 -2.3772 -1.1445
  879MOL0     H15982   6.623   6.277  11.538  1.8900  1.4636 -1.5355
  879MOL0     H15983   6.467   6.349  11.588  1.7316  0.1038  1.6989
  879MOL0     H15984   6.639   6.453  11.373 -3.1594 -1.6515 -3.4859
  879MOL0     H15985   6.573   6.537  11.514 -1.1839  0.5482 -0.2625
  879MOL0     H15986   6.383   6.454  11.288 -3.2297 -2.9232  2.1213
  879MOL0     H15987   6.343   6.514  11.444 -0.5075 -3.2733 -0.9921
  879MOL0     H15988   6.362   6.686  11.260 -1.7857  2.3175  2.0524
  879MOL0     H15989   6.534   6.652  11.253 -1.8863 -1.5952 -1.7294
  879MOL0     H15990   6.540   6.886  11.206 -0.9342  1.3998  0.2911
  879MOL0     H15991   6.701   7.064  11.214 -1.0303 -0.4937 -0.5449
  879MOL0     H15992   7.141   7.230  11.240  0.1874  0.5141 -1.0263
  879MOL0     H15993   7.254   7.455  11.225  3.1443 -1.3226  3.6202
  879MOL0     H15994   7.169   7.663  11.093 -0.6386  0.9959  0.0645
  879MOL0     H15995   7.324   7.702  11.166  0.8114 -0.3097  0.1597
  879MOL0     H15996   7.088   7.884  11.166 -0.5480 -1.2636 -0.3129
  879MOL0     H15997   7.220   7.875  11.051 -0.3049 -0.2792  0.6481
  879MOL0     H15998   7.373   7.885  11.269  1.7413  3.1429 -0.9143
  879MOL0     H15999   7.238   7.913  11.357 -0.2517 -1.6918 -1.4790
  879MOL0     H16000   7.235   8.099  11.131  0.2415  1.0057  0.6069
  879MOL0     H16001   7.212   8.144  11.299  0.5426  0.0594  1.4696
  879MOL0     H16002   7.405   8.241  11.196 -2.5500  0.1202 -0.5354
  879MOL0     H16003   7.483   8.080  11.197  1.2539  1.1985 -0.8539
  879MOL0     H16004   7.470   8.074  11.444 -1.5205 -0.1949  1.5072
  879MOL0     H16005   7.359   8.218  11.441 -0.2073  0.9976 -0.9830
  879MOL0     H16006   7.649   8.238  11.366 -0.1724  0.3819  0.8307
  879MOL0     H16007   7.528   8.368  11.369  0.1827  0.7061  1.8854
  879MOL0     H16008   7.632   8.237  11.610 -2.3265 -1.2724  0.5552
  879MOL0     H16009   7.481   8.314  11.606 -1.0999 -2.1575 -0.7172
  879MOL0     H16010   6.935   7.665  11.400 -1.0720  0.5455 -3.5833
  879MOL0     H16011   6.815   7.432  11.422 -3.1985  2.1420 -2.9567
  879MOL0     H16012   6.811   6.957  11.607  1.4432  0.6348 -2.1169
  879MOL0     H16013   6.616   6.807  11.627 -1.7867  2.1291  0.9704
  879MOL0     H16014   7.011   5.394  10.358  0.1067 -0.5444  1.5958
  879MOL0     H16015   7.230   5.286  10.340 -2.8476  0.5257 -1.3633
  879MOL0     H16016   7.533   5.192  10.293 -1.8130  3.8880 -1.1264
  879MOL0     H16017   7.694   5.074  10.162  0.9866 -0.7675  2.2550
  879MOL0     H16018   8.065   5.166  10.222  2.4631  1.6150  0.8437
  879MOL0     H16019   8.102   5.261  10.070 -0.9707 -0.1433 -1.5366
  879MOL0     H16020   8.054   4.971  10.078  0.8629  0.0217  1.1888
  879MOL0     H16021   8.112   5.070   9.943 -2.0536  0.4693  1.0094
  879MOL0     H16022   8.266   5.043  10.198  0.5508 -3.5169  0.7937
  879MOL0     H16023   8.321   5.105  10.030 -2.0474  0.7798 -1.4304
  879MOL0     H16024   8.299   4.864   9.952 -1.7468 -2.2017  0.9492
  879MOL0     H16025   8.427   4.912  10.069 -0.2235 -1.1110  3.3126
  879MOL0     H16026   8.276   4.669  10.332 -0.6211 -1.4005 -1.2241
  879MOL0     H16027   7.957   5.417  10.210  0.5897 -2.4098  3.7783
  879MOL0     H16028   7.807   5.517  10.338  1.1270 -0.7341 -0.6485
  880MOL0     O16029   0.375   0.857   7.411 -0.3961 -0.3219 -0.1593
  880MOL0     C16030   0.418   0.883   7.303  0.5566 -0.3287  0.5674
  880MOL0     O16031   0.539   0.942   7.280  0.1372  0.0115  0.3072
  880MOL0     C16032   0.625   0.950   7.379 -0.6245 -0.2713 -0.8386
  880MOL0     C16033   0.642   1.073   7.445  1.6498 -0.4624  0.3321
  880MOL0     C16034   0.744   1.079   7.547  0.4132  0.4846 -0.2106
  880MOL0     C16035   0.826   0.967   7.572 -0.7029 -0.0114  0.3868
  880MOL0     O16036   0.910   0.954   7.682 -0.3114 -0.0443  1.1057
  880MOL0     C16037   1.014   1.055   7.690  0.6154  0.2669  0.1018
  880MOL0     C16038   1.149   0.988   7.717  0.2441 -0.0795 -0.1269
  880MOL0     C16039   1.265   1.086   7.714 -0.8658 -0.8478  0.1798
  880MOL0     C16040   1.334   1.114   7.856  0.7436 -0.6122 -0.7805
  880MOL0     C16041   1.426   1.244   7.860 -0.0460  0.3348 -0.7478
  880MOL0     C16042   1.453   1.270   8.013  0.3262  0.0503 -0.2145
  880MOL0     C16043   1.555   1.385   8.034 -0.0089 -0.8607  0.5389
  880MOL0     C16044   1.559   1.430   8.183 -0.6166  0.5059  0.3319
  880MOL0     N16045   1.625   1.568   8.189 -0.6316 -0.3744  0.0607
  880MOL0     C16046   1.690   1.623   8.304  1.4991 -0.1443  0.1248
  880MOL0     C16047   1.711   1.761   8.271  0.0626  0.1530 -0.9082
  880MOL0     C16048   1.788   1.859   8.363  0.6463  0.1418  0.0289
  880MOL0     C16049   1.772   1.832   8.512  0.6786 -0.1903  0.8512
  880MOL0     C16050   1.632   1.843   8.579  0.5197 -0.1055  0.0626
  880MOL0     C16051   1.572   1.983   8.590  0.7076  0.6034  0.6976
  880MOL0     O16052   1.658   2.091   8.620 -0.0236  1.0368 -0.3891
  880MOL0     C16053   1.601   2.215   8.620  0.9069 -0.1180  1.2567
  880MOL0     C16054   1.459   2.232   8.597  0.3245  0.2261 -1.4283
  880MOL0     C16055   1.399   2.358   8.597 -0.5551 -0.0084  0.2258
  880MOL0     C16056   1.483   2.476   8.616  0.6752 -1.0995 -1.1203
  880MOL0     C16057   1.421   2.604   8.619  0.4876  0.1697  0.8278
  880MOL0     O16058   1.495   2.714   8.630  0.8005 -0.2406  0.4599
  880MOL0     C16059   1.444   2.834   8.587  0.0674  0.4965 -0.2309
  880MOL0     C16060   1.475   2.949   8.662  0.2242  0.0316 -0.4716
  880MOL0     C16061   1.441   3.078   8.616  0.4886 -1.1323 -1.0836
  880MOL0     C16062   1.383   3.093   8.484  0.2128  0.6332 -0.0074
  880MOL0     O16063   1.380   3.219   8.431  0.0892 -0.5244 -0.4878
  880MOL0     C16064   1.274   3.264   8.341  0.4934 -0.0073  0.8414
  880MOL0     C16065   1.263   3.417   8.360 -0.8892  0.6195 -0.2637
  880MOL0     C16066   1.153   3.470   8.267 -0.1815 -0.2182 -0.4702
  880MOL0     C16067   1.125   3.624   8.293  1.0271  1.0886  0.1027
  880MOL0     C16068   1.042   3.648   8.416  0.2193 -0.3552  0.1674
  880MOL0     C16069   1.003   3.796   8.433  0.0619  0.9203  0.7756
  880MOL0     C16070   0.896   3.813   8.546 -0.2705  0.8813 -0.5922
  880MOL0     C16071   0.860   3.956   8.561  0.4513  0.0423  0.3307
  880MOL0    Cl16072   0.769   3.981   8.708  0.1709  0.0059 -0.3706
  880MOL0     C16073   1.344   2.978   8.418 -0.9424 -0.2152  0.3852
  880MOL0     C16074   1.374   2.842   8.462 -0.4239 -0.9615  0.0767
  880MOL0     O16075   1.300   2.605   8.603 -0.3361  0.2280 -0.2059
  880MOL0     C16076   1.623   2.460   8.628  0.6905  1.2122 -1.0611
  880MOL0     C16077   1.679   2.329   8.618 -0.3080  0.2204  0.5055
  880MOL0     N16078   1.662   1.781   8.150 -0.0378  0.0051  0.3277
  880MOL0     N16079   1.603   1.674   8.108 -0.6401  0.6923  0.6887
  880MOL0     C16080   0.811   0.852   7.500  0.6698 -0.0261 -0.5477
  880MOL0     C16081   0.706   0.844   7.403 -1.4511  0.0348  0.8865
  880MOL0     C16082   0.328   0.862   7.185  0.6391  0.5018 -0.4315
  880MOL0     C16083   0.215   0.787   7.193  0.6258  0.5654 -0.3113
  880MOL0     C16084   0.123   0.783   7.089  0.2388 -0.2123 -0.7933
  880MOL0     C16085   0.149   0.852   6.977  0.3575  0.7002  1.2645
  880MOL0     O16086   0.061   0.837   6.862  0.3896 -0.7048  0.7250
  880MOL0     C16087   0.106   0.898   6.738  0.7145 -0.5396  0.6253
  880MOL0     C16088  -0.002   0.893   6.623 -0.7398  0.9538 -0.5242
  880MOL0     C16089  -0.129   0.965   6.672  0.8174 -0.0782  0.4943
  880MOL0     C16090  -0.246   0.926   6.584  0.2788  0.1102  0.1754
  880MOL0     C16091  -0.303   0.806   6.614 -0.2837  0.3107 -0.9752
  880MOL0     C16092  -0.348   0.690   6.628 -0.5784 -0.5868  0.2297
  880MOL0     C16093   0.277   0.918   6.962 -0.2624 -0.0196 -0.2659
  880MOL0     C16094   0.357   0.929   7.069  0.0462 -0.2712  0.8513
  880MOL0     H16095   0.574   1.153   7.418  0.2403 -0.8074  2.6568
  880MOL0     H16096   0.737   1.162   7.617 -1.7507 -1.1726  1.7262
  880MOL0     H16097   0.993   1.119   7.776 -1.1679  1.4024 -1.1060
  880MOL0     H16098   1.024   1.109   7.595  0.8370 -0.8062 -0.4953
  880MOL0     H16099   1.163   0.897   7.657 -1.6930 -1.8982  1.9789
  880MOL0     H16100   1.132   0.933   7.810 -1.7491 -0.2143 -0.5171
  880MOL0     H16101   1.232   1.181   7.671  1.5188  0.4029  0.9889
  880MOL0     H16102   1.340   1.051   7.643  0.9100  1.3589  0.8906
  880MOL0     H16103   1.244   1.117   7.918  1.9480  0.5545  1.0226
  880MOL0     H16104   1.386   1.025   7.892 -1.1995 -2.8840 -3.1906
  880MOL0     H16105   1.372   1.330   7.819 -0.4631 -0.2044 -1.3494
  880MOL0     H16106   1.519   1.234   7.803  0.0195 -0.2366 -0.5492
  880MOL0     H16107   1.488   1.183   8.069 -2.5917 -0.4580  0.9915
  880MOL0     H16108   1.357   1.298   8.056  0.3612 -2.8687  2.0444
  880MOL0     H16109   1.649   1.347   7.994 -0.8572 -2.3387 -0.1599
  880MOL0     H16110   1.528   1.470   7.971 -0.2251  0.8178  2.7646
  880MOL0     H16111   1.604   1.356   8.250 -1.1452  1.8218  2.2260
  880MOL0     H16112   1.458   1.453   8.216 -0.4063 -2.3081  3.5273
  880MOL0     H16113   1.730   1.568   8.388  1.2864 -3.0603 -1.5584
  880MOL0     H16114   1.768   1.965   8.349  2.5812  0.6251  0.5561
  880MOL0     H16115   1.894   1.848   8.335  0.3198  1.9173 -2.1809
  880MOL0     H16116   1.844   1.885   8.574  2.8256 -0.9001 -0.9041
  880MOL0     H16117   1.810   1.730   8.523  1.6314 -0.0801 -0.9438
  880MOL0     H16118   1.566   1.778   8.522 -1.0406 -1.9514  3.6861
  880MOL0     H16119   1.639   1.803   8.680  2.0647 -1.8147 -0.6724
  880MOL0     H16120   1.486   1.975   8.657 -1.3594 -0.2865 -1.8758
  880MOL0     H16121   1.532   2.005   8.490 -0.3666 -1.8861  0.4933
  880MOL0     H16122   1.395   2.146   8.581 -0.8767  1.0730 -1.3432
  880MOL0     H16123   1.291   2.358   8.609 -0.5410  2.2222  0.8421
  880MOL0     H16124   1.531   2.935   8.754 -2.6354 -0.1580  1.3637
  880MOL0     H16125   1.463   3.170   8.669  1.2415 -0.3943 -2.6076
  880MOL0     H16126   1.184   3.211   8.373  0.5372 -0.6633 -0.0767
  880MOL0     H16127   1.288   3.239   8.235 -4.6632  0.3033 -0.1745
  880MOL0     H16128   1.361   3.464   8.346  1.0190 -2.8338  0.0657
  880MOL0     H16129   1.237   3.443   8.463 -0.5933 -0.3562  0.0764
  880MOL0     H16130   1.066   3.406   8.281  0.9422 -1.6076  0.4387
  880MOL0     H16131   1.185   3.468   8.163 -1.1240 -0.9657 -0.7565
  880MOL0     H16132   1.200   3.702   8.281 -0.4103  2.4979 -0.0138
  880MOL0     H16133   1.062   3.643   8.205 -1.2056 -1.9994  0.8383
  880MOL0     H16134   1.091   3.619   8.509  1.1300  1.4577  0.3034
  880MOL0     H16135   0.956   3.582   8.405  1.6332 -2.0345 -1.6686
  880MOL0     H16136   0.952   3.839   8.347  1.8291  0.7535 -0.4213
  880MOL0     H16137   1.098   3.846   8.457 -0.1994  1.3626  0.8777
  880MOL0     H16138   0.800   3.767   8.519  0.5718 -0.5623 -1.2685
  880MOL0     H16139   0.915   3.767   8.643 -2.8145  2.8418  0.9853
  880MOL0     H16140   0.813   4.005   8.474 -0.9235 -1.4224  0.2140
  880MOL0     H16141   0.951   4.013   8.584 -0.5895  1.3156  1.4615
  880MOL0     H16142   1.310   3.001   8.317 -1.3161  0.0342  0.5642
  880MOL0     H16143   1.349   2.754   8.404  0.1069 -1.4813  0.6269
  880MOL0     H16144   1.681   2.549   8.648  0.3241  0.3967  5.8262
  880MOL0     H16145   1.786   2.326   8.603 -0.6611 -0.5469 -2.5559
  880MOL0     H16146   0.868   0.767   7.535  0.0900 -0.3271 -0.3338
  880MOL0     H16147   0.704   0.744   7.362  0.4704 -0.3545  1.6205
  880MOL0     H16148   0.193   0.723   7.278  4.4613 -0.3153  0.2111
  880MOL0     H16149   0.028   0.736   7.114  0.8701 -1.5039 -0.6945
  880MOL0     H16150   0.192   0.845   6.696 -0.2022 -1.7444  0.2228
  880MOL0     H16151   0.143   1.001   6.746 -0.3017 -0.3011  2.9075
  880MOL0     H16152   0.032   0.945   6.533  0.9959  1.0697  0.1602
  880MOL0     H16153  -0.013   0.792   6.584  0.4380  1.7348 -3.1129
  880MOL0     H16154  -0.107   1.072   6.665 -0.3294  0.1836  0.6732
  880MOL0     H16155  -0.128   0.958   6.781  1.0004 -1.4246  0.4237
  880MOL0     H16156  -0.332   0.992   6.603 -0.3805 -0.4771 -0.7014
  880MOL0     H16157  -0.211   0.935   6.481  0.1302  4.7311  0.2962
  880MOL0     H16158  -0.395   0.596   6.650 -1.2154 -0.0399  1.2995
  880MOL0     H16159   0.320   0.970   6.877  1.8280 -1.9607 -0.4817
  880MOL0     H16160   0.445   0.986   7.046 -0.9035 -0.0729 -2.8414
  881MOL0     O16161   2.446   5.475   8.124 -0.4137  0.9487  0.4576
  881MOL0     C16162   2.462   5.496   7.999 -0.2557 -0.7791 -0.1273
  881MOL0     O16163   2.368   5.538   7.916 -0.2993 -0.5447  0.4032
  881MOL0     C16164   2.236   5.511   7.936  0.2443  1.2348  0.2630
  881MOL0     C16165   2.182   5.427   8.025 -0.2186  0.4507 -0.0715
  881MOL0     C16166   2.048   5.400   8.023  0.3121 -0.5014  0.0297
  881MOL0     C16167   1.959   5.474   7.929 -0.5818 -0.0947 -0.6796
  881MOL0     O16168   1.818   5.468   7.926 -1.0409  0.2741 -0.5969
  881MOL0     C16169   1.768   5.342   7.985  0.4862 -0.3247  0.1291
  881MOL0     C16170   1.766   5.227   7.874  0.3568  0.1844 -0.4175
  881MOL0     C16171   1.684   5.110   7.934 -0.1317  0.3959  0.5673
  881MOL0     C16172   1.654   5.009   7.823 -0.1515  0.4380 -0.7224
  881MOL0     C16173   1.521   5.034   7.738  0.0498  0.8712 -0.1370
  881MOL0     C16174   1.421   4.920   7.736 -0.4229 -0.8905  0.7849
  881MOL0     C16175   1.348   4.892   7.862 -0.6939  0.0422  0.7556
  881MOL0     C16176   1.238   4.786   7.836  0.2294 -0.0546  1.0292
  881MOL0     N16177   1.304   4.651   7.830  1.1035 -0.1877  0.5176
  881MOL0     C16178   1.394   4.592   7.735  1.1704  0.6229 -0.9176
  881MOL0     C16179   1.409   4.461   7.766  0.0911 -0.0544 -0.9518
  881MOL0     C16180   1.502   4.359   7.707 -0.3409 -0.0648  0.1731
  881MOL0     C16181   1.449   4.309   7.567 -0.6288 -0.0103  1.0444
  881MOL0     C16182   1.475   4.151   7.550  0.4362 -0.0423  0.0228
  881MOL0     C16183   1.624   4.128   7.545  0.1383 -0.1755  0.1224
  881MOL0     O16184   1.705   4.227   7.479  0.0930  0.8578 -1.1038
  881MOL0     C16185   1.842   4.220   7.484 -0.5029 -0.1939  0.5178
  881MOL0     C16186   1.915   4.129   7.557 -1.0795 -0.6151  0.0176
  881MOL0     C16187   2.059   4.131   7.543  0.3043  0.0339 -0.3899
  881MOL0     C16188   2.122   4.233   7.470  0.0348  0.4929  0.8267
  881MOL0     C16189   2.255   4.237   7.441 -0.6750 -0.0951  0.7751
  881MOL0     O16190   2.334   4.343   7.462  0.0073 -0.9575  0.3277
  881MOL0     C16191   2.462   4.346   7.412  0.5838 -0.0640 -0.4307
  881MOL0     C16192   2.511   4.441   7.325 -0.4482 -0.0708  1.0152
  881MOL0     C16193   2.647   4.442   7.290 -0.0240 -0.1319  0.3140
  881MOL0     C16194   2.731   4.338   7.336  0.3150 -0.7291 -0.0596
  881MOL0     O16195   2.870   4.346   7.300  0.3660 -0.2387  0.2126
  881MOL0     C16196   2.971   4.258   7.337 -0.3497 -0.1979  0.3401
  881MOL0     C16197   3.010   4.300   7.489 -0.5338  0.9271 -0.7639
  881MOL0     C16198   3.151   4.251   7.531  0.3715  0.0528 -0.0823
  881MOL0     C16199   3.173   4.280   7.686  0.2996  0.0295 -0.1551
  881MOL0     C16200   3.321   4.259   7.718 -0.6576  1.0488 -0.3287
  881MOL0     C16201   3.369   4.112   7.698 -0.1163  0.2936  0.0890
  881MOL0     C16202   3.426   4.031   7.811  0.2825 -0.2644 -0.2141
  881MOL0     C16203   3.308   3.984   7.907  0.3465 -0.1564 -0.1721
  881MOL0    Cl16204   3.347   3.873   8.036  1.2397  0.3202  0.1282
  881MOL0     C16205   2.684   4.242   7.426 -0.5715  0.2864 -0.5052
  881MOL0     C16206   2.544   4.251   7.464 -0.8101  0.8350  0.2740
  881MOL0     O16207   2.297   4.140   7.374  0.2691  0.2736 -0.2569
  881MOL0     C16208   2.037   4.329   7.402  0.0102 -0.2645  1.0955
  881MOL0     C16209   1.898   4.320   7.410 -1.3562  0.4149  0.3376
  881MOL0     N16210   1.322   4.442   7.878  0.2648 -0.9001 -0.5455
  881MOL0     N16211   1.260   4.548   7.911 -0.8912  0.1091 -0.5110
  881MOL0     C16212   2.015   5.570   7.841  0.4122 -0.3065  0.3540
  881MOL0     C16213   2.157   5.588   7.853  0.9247  0.3150  0.6955
  881MOL0     C16214   2.599   5.499   7.945 -0.1869  0.1346 -0.5767
  881MOL0     C16215   2.629   5.484   7.810 -0.3024  0.0271 -0.3879
  881MOL0     C16216   2.760   5.501   7.770  0.8201  0.3457 -0.8563
  881MOL0     C16217   2.868   5.520   7.853  0.2082 -0.0320 -0.3105
  881MOL0     O16218   3.006   5.517   7.823  0.3820 -0.2822 -0.3451
  881MOL0     C16219   3.053   5.565   7.695 -0.0663  0.5935 -0.5843
  881MOL0     C16220   3.193   5.631   7.705 -0.2452  0.1495 -0.6476
  881MOL0     C16221   3.207   5.720   7.836  0.4023  0.2088 -1.0466
  881MOL0     C16222   3.326   5.819   7.816  0.7915 -0.3073  1.1591
  881MOL0     C16223   3.354   5.899   7.936 -0.2060 -0.0645 -0.6906
  881MOL0     C16224   3.408   5.946   8.042  0.1025  0.6967  0.2814
  881MOL0     C16225   2.846   5.519   7.994  0.7305 -0.3334 -0.4001
  881MOL0     C16226   2.712   5.511   8.039 -0.1373 -0.2095  0.0686
  881MOL0     H16227   2.236   5.381   8.107 -2.7130 -2.0572  0.3001
  881MOL0     H16228   2.005   5.321   8.084 -3.3988  2.4337  1.5999
  881MOL0     H16229   1.664   5.362   8.013  0.3737  1.0888 -1.1757
  881MOL0     H16230   1.817   5.302   8.074 -0.9184 -3.6364 -0.4230
  881MOL0     H16231   1.868   5.199   7.845  0.9524 -1.0200  2.4926
  881MOL0     H16232   1.708   5.269   7.791  0.4092 -0.3666 -0.7364
  881MOL0     H16233   1.588   5.147   7.973 -0.3042 -0.5237  1.0337
  881MOL0     H16234   1.740   5.059   8.012  0.3021  0.9578  0.6311
  881MOL0     H16235   1.731   4.992   7.748 -1.6726 -1.5500 -1.9405
  881MOL0     H16236   1.638   4.913   7.873 -1.9747  2.3941  2.8258
  881MOL0     H16237   1.553   5.065   7.638 -0.1716 -2.5326 -1.3656
  881MOL0     H16238   1.467   5.113   7.791 -2.0238 -1.1522  0.9541
  881MOL0     H16239   1.488   4.834   7.724  1.7957  0.2324  3.7954
  881MOL0     H16240   1.357   4.939   7.649  1.4209 -2.9698 -1.1804
  881MOL0     H16241   1.423   4.872   7.939 -0.2166 -1.0277  0.0387
  881MOL0     H16242   1.296   4.984   7.892  1.4134  0.8876  2.0003
  881MOL0     H16243   1.200   4.798   7.734  2.4194 -1.8815 -0.0835
  881MOL0     H16244   1.161   4.792   7.913 -2.7206  0.0236 -1.7028
  881MOL0     H16245   1.456   4.638   7.658  2.6949 -2.2893 -1.5843
  881MOL0     H16246   1.525   4.286   7.785  0.3646 -1.3655 -1.1912
  881MOL0     H16247   1.595   4.414   7.692  0.0344 -0.1883  1.8219
  881MOL0     H16248   1.509   4.363   7.493  0.0740  0.1389  1.7080
  881MOL0     H16249   1.345   4.338   7.553 -0.1783  2.4408  2.2573
  881MOL0     H16250   1.429   4.090   7.629 -4.4407 -0.1031 -2.4922
  881MOL0     H16251   1.434   4.111   7.457  0.0540 -4.0539  1.6942
  881MOL0     H16252   1.630   4.027   7.504 -4.2099  0.2487 -2.0539
  881MOL0     H16253   1.659   4.118   7.648 -1.0876 -1.5919  0.4247
  881MOL0     H16254   1.864   4.063   7.626 -2.6615  0.9032  0.3621
  881MOL0     H16255   2.113   4.047   7.585  1.4910  1.3689  0.9044
  881MOL0     H16256   2.437   4.511   7.286 -2.1774 -1.5316  1.5369
  881MOL0     H16257   2.690   4.511   7.219 -1.2474 -0.2692 -0.6016
  881MOL0     H16258   3.061   4.280   7.280 -2.9442  1.9442 -3.3066
  881MOL0     H16259   2.926   4.160   7.316 -0.7705 -0.6242  2.8741
  881MOL0     H16260   2.944   4.251   7.562  0.4966  1.5008  0.6015
  881MOL0     H16261   3.015   4.409   7.496  2.1413  0.8329 -0.3688
  881MOL0     H16262   3.231   4.298   7.473 -0.7187 -1.9051 -3.4350
  881MOL0     H16263   3.150   4.142   7.519 -0.4926 -0.3071  2.4480
  881MOL0     H16264   3.144   4.380   7.722 -7.5828 -1.2074 -1.3035
  881MOL0     H16265   3.104   4.217   7.743  0.3402 -1.4045 -1.6351
  881MOL0     H16266   3.346   4.282   7.822  2.7779 -0.8338 -0.5937
  881MOL0     H16267   3.392   4.313   7.655  0.7377 -0.1635  0.1299
  881MOL0     H16268   3.444   4.132   7.620  0.5494  1.2468  0.9467
  881MOL0     H16269   3.294   4.050   7.648 -0.3991 -1.3529  2.3941
  881MOL0     H16270   3.477   3.944   7.767 -2.0202 -4.0222  3.7674
  881MOL0     H16271   3.489   4.100   7.867 -0.0639  1.5442 -1.9158
  881MOL0     H16272   3.232   3.935   7.845  3.9756 -4.4108 -1.7609
  881MOL0     H16273   3.265   4.068   7.962  1.6918  0.9801 -0.8068
  881MOL0     H16274   2.749   4.172   7.476 -0.3504  0.6078 -0.3420
  881MOL0     H16275   2.508   4.180   7.538  1.2824 -2.7505 -1.8622
  881MOL0     H16276   2.077   4.410   7.342 -2.3443  1.1087  1.2596
  881MOL0     H16277   1.834   4.387   7.352  1.1173  1.8966 -0.8523
  881MOL0     H16278   1.968   5.645   7.779  2.4354 -2.1083 -3.7851
  881MOL0     H16279   2.194   5.667   7.788 -3.5830  1.6835 -0.5768
  881MOL0     H16280   2.551   5.467   7.737  0.6145 -0.4715 -1.2637
  881MOL0     H16281   2.785   5.495   7.664  0.1708 -2.2625 -0.9316
  881MOL0     H16282   2.987   5.648   7.671 -3.5707 -1.4352  1.2498
  881MOL0     H16283   3.045   5.492   7.614 -3.1006  1.1233 -0.8508
  881MOL0     H16284   3.274   5.558   7.713  4.1964  4.7455  2.1673
  881MOL0     H16285   3.216   5.687   7.614 -2.5157  1.6157 -0.4126
  881MOL0     H16286   3.224   5.656   7.923  0.5013  0.2279 -1.0524
  881MOL0     H16287   3.116   5.778   7.853  0.0965  0.0857 -2.1853
  881MOL0     H16288   3.407   5.756   7.780 -2.1016 -2.2619 -2.6401
  881MOL0     H16289   3.306   5.888   7.733  1.7680 -2.6333 -1.1408
  881MOL0     H16290   3.460   5.985   8.127  0.4709 -1.9178  1.3469
  881MOL0     H16291   2.933   5.514   8.059  0.2637  1.6114  0.4611
  881MOL0     H16292   2.708   5.526   8.147  0.5216  0.6658 -0.0226
  882MOL0     O16293   0.517   5.859  10.097 -0.5493  0.3952 -0.4134
  882MOL0     C16294   0.625   5.882  10.046  0.4878 -1.0375 -0.4100
  882MOL0     O16295   0.654   5.893   9.913  0.4250 -0.0539  0.7064
  882MOL0     C16296   0.548   5.852   9.836  0.0678 -0.5277  0.3927
  882MOL0     C16297   0.439   5.933   9.817 -0.5151 -0.5481  0.1139
  882MOL0     C16298   0.343   5.892   9.723  0.7283  0.4101 -0.1902
  882MOL0     C16299   0.356   5.772   9.653  0.4998 -1.3347  1.2183
  882MOL0     O16300   0.265   5.715   9.564  0.7095  0.2737 -0.3158
  882MOL0     C16301   0.132   5.775   9.562 -0.7642 -0.7926 -0.1844
  882MOL0     C16302   0.034   5.702   9.472 -0.3447 -0.1971 -0.4507
  882MOL0     C16303  -0.093   5.643   9.538 -0.1783 -0.9032  0.3392
  882MOL0     C16304  -0.181   5.566   9.445  0.5463  0.2443 -0.0375
  882MOL0     C16305  -0.284   5.488   9.527  1.0292 -0.1258  0.3163
  882MOL0     C16306  -0.411   5.440   9.446 -0.1426 -0.0358  0.1026
  882MOL0     C16307  -0.500   5.550   9.386 -0.1570  0.2295  0.4301
  882MOL0     C16308  -0.635   5.483   9.328 -0.0634  0.6173 -0.5149
  882MOL0     N16309  -0.616   5.365   9.242 -0.0870  0.1189  0.2745
  882MOL0     C16310  -0.604   5.365   9.107 -0.6217 -0.5897 -1.4842
  882MOL0     C16311  -0.615   5.235   9.077  0.4380  0.0666  0.1791
  882MOL0     C16312  -0.603   5.180   8.935 -0.2250  0.6447 -0.6800
  882MOL0     C16313  -0.730   5.087   8.921  1.0745 -0.6222 -1.2502
  882MOL0     C16314  -0.808   5.115   8.801 -0.0210  0.4989 -0.2778
  882MOL0     C16315  -0.901   5.231   8.788 -0.0309 -0.7878 -0.6407
  882MOL0     O16316  -0.979   5.242   8.910 -0.1993 -0.0940 -0.3263
  882MOL0     C16317  -0.989   5.367   8.964  0.8443  0.2017 -0.4938
  882MOL0     C16318  -0.960   5.391   9.100 -0.2539  0.0705 -0.7387
  882MOL0     C16319  -0.987   5.505   9.169  0.8049  0.3097 -0.1994
  882MOL0     C16320  -1.042   5.609   9.096  0.7620 -0.7138 -0.9822
  882MOL0     C16321  -1.074   5.736   9.167  0.4076 -0.3113  0.1188
  882MOL0     O16322  -1.135   5.831   9.090 -0.5139 -0.4151 -0.4573
  882MOL0     C16323  -1.170   5.954   9.149 -0.8179 -0.6234  0.7958
  882MOL0     C16324  -1.303   6.008   9.140  0.0376  0.1950 -0.0063
  882MOL0     C16325  -1.328   6.139   9.190  0.4504  0.3333  0.6182
  882MOL0     C16326  -1.230   6.221   9.243 -0.6554  1.2506 -0.6600
  882MOL0     O16327  -1.253   6.340   9.317  0.1846  0.8679  0.4608
  882MOL0     C16328  -1.388   6.376   9.338  0.2350 -0.2364  0.2741
  882MOL0     C16329  -1.400   6.502   9.425 -0.2594  0.0260  0.3817
  882MOL0     C16330  -1.306   6.605   9.363 -0.0725 -0.4959  0.1640
  882MOL0     C16331  -1.352   6.737   9.413 -0.3617 -0.7109  1.3261
  882MOL0     C16332  -1.253   6.854   9.379  0.1432  0.1609 -0.4171
  882MOL0     C16333  -1.283   6.998   9.441  0.0788  0.0142 -0.0918
  882MOL0     C16334  -1.161   7.090   9.423  1.0269  0.5554  0.5265
  882MOL0     C16335  -1.177   7.225   9.524  0.4526  0.5688 -0.8487
  882MOL0    Cl16336  -1.016   7.300   9.501  0.1553  0.0017  0.1575
  882MOL0     C16337  -1.104   6.173   9.240 -1.2061 -0.3548  1.2404
  882MOL0     C16338  -1.074   6.045   9.200  0.1586  0.1158 -0.0527
  882MOL0     O16339  -1.039   5.747   9.283 -0.0243  0.1513  0.1274
  882MOL0     C16340  -1.069   5.594   8.955 -0.7901 -0.5771  0.4274
  882MOL0     C16341  -1.042   5.475   8.892  0.2371 -0.4244 -0.0608
  882MOL0     N16342  -0.642   5.161   9.188 -0.2524  0.3351  0.2873
  882MOL0     N16343  -0.641   5.240   9.290 -0.2179 -0.5857 -0.2458
  882MOL0     C16344   0.470   5.697   9.666  1.3264 -0.6892  0.0286
  882MOL0     C16345   0.570   5.738   9.755 -0.0281  0.0822  0.4057
  882MOL0     C16346   0.733   5.898  10.140  0.3478  0.0778 -0.0659
  882MOL0     C16347   0.711   5.899  10.276 -0.2504  0.5132  0.3785
  882MOL0     C16348   0.811   5.932  10.356 -0.4091 -0.7634 -0.2582
  882MOL0     C16349   0.932   5.976  10.313 -0.3809 -0.3374 -0.9423
  882MOL0     O16350   1.021   5.992  10.420 -0.3999 -0.0185 -0.5694
  882MOL0     C16351   1.087   6.121  10.420  1.7791 -0.2831 -0.8352
  882MOL0     C16352   1.238   6.107  10.453  0.7502  0.2455  0.7484
  882MOL0     C16353   1.260   6.060  10.597  0.1359 -0.2961 -0.3435
  882MOL0     C16354   1.413   6.044  10.617  0.0582 -0.6574 -0.2306
  882MOL0     C16355   1.451   6.052  10.758 -0.1263  0.6622 -0.4075
  882MOL0     C16356   1.477   6.035  10.876 -1.1711 -0.2884  0.0704
  882MOL0     C16357   0.955   5.983  10.177  0.5092 -1.2334 -0.3514
  882MOL0     C16358   0.855   5.941  10.093  1.2742 -0.0627  0.3826
  882MOL0     H16359   0.436   6.029   9.867  0.3907 -1.2873  1.6223
  882MOL0     H16360   0.259   5.955   9.696  1.7790  1.7155 -0.5386
  882MOL0     H16361   0.154   5.873   9.519 -0.4151  0.7851  3.2791
  882MOL0     H16362   0.091   5.792   9.662 -2.7022  3.8597 -1.4649
  882MOL0     H16363   0.087   5.624   9.417  1.1639  0.3198  0.2155
  882MOL0     H16364   0.006   5.768   9.388  0.7931 -0.2572 -0.8949
  882MOL0     H16365  -0.158   5.723   9.575 -2.1795 -1.6853 -1.2301
  882MOL0     H16366  -0.070   5.566   9.612  1.3450 -1.5469 -0.7580
  882MOL0     H16367  -0.233   5.639   9.383 -0.3551 -1.0824 -0.9039
  882MOL0     H16368  -0.122   5.497   9.383 -0.2093  0.2721 -0.7998
  882MOL0     H16369  -0.311   5.551   9.612 -1.9428  1.5946 -1.7443
  882MOL0     H16370  -0.239   5.397   9.568 -2.2122 -1.0830  2.0494
  882MOL0     H16371  -0.478   5.380   9.508 -1.3312  1.6984  0.5617
  882MOL0     H16372  -0.379   5.371   9.367  0.5362  1.9376 -1.4221
  882MOL0     H16373  -0.519   5.632   9.455 -4.3777  1.1848 -1.5557
  882MOL0     H16374  -0.452   5.591   9.297  2.0150 -0.9688  0.9759
  882MOL0     H16375  -0.683   5.566   9.274  1.3603  1.8424  0.0129
  882MOL0     H16376  -0.693   5.454   9.416  1.9296 -0.2566  0.5850
  882MOL0     H16377  -0.589   5.447   9.038  0.9614  1.0625  0.6814
  882MOL0     H16378  -0.513   5.120   8.918  0.0828  0.8477  0.1933
  882MOL0     H16379  -0.597   5.261   8.862  0.2494  0.8283 -0.4409
  882MOL0     H16380  -0.800   5.067   9.003  0.2574 -2.0565 -2.2466
  882MOL0     H16381  -0.678   4.992   8.913  2.6669 -0.0859  1.4953
  882MOL0     H16382  -0.747   5.114   8.710 -1.8876  2.0979 -1.6207
  882MOL0     H16383  -0.858   5.018   8.788  3.2983 -1.2815 -0.7017
  882MOL0     H16384  -0.971   5.227   8.704 -0.2501 -2.6046 -0.4124
  882MOL0     H16385  -0.837   5.319   8.778 -1.3378  0.0533 -2.1255
  882MOL0     H16386  -0.901   5.315   9.152 -0.3542 -1.2271 -2.4230
  882MOL0     H16387  -0.966   5.514   9.275 -1.2132  2.0417  0.1312
  882MOL0     H16388  -1.372   5.939   9.092  2.8152 -1.8516 -1.3289
  882MOL0     H16389  -1.433   6.167   9.181 -0.0493 -1.9337 -3.6847
  882MOL0     H16390  -1.434   6.294   9.394 -2.1430  0.7226 -0.1909
  882MOL0     H16391  -1.438   6.393   9.243 -0.8352  1.8708  1.1619
  882MOL0     H16392  -1.372   6.484   9.529 -0.9767 -1.7338  0.3042
  882MOL0     H16393  -1.505   6.527   9.406 -1.5743 -4.4211  0.6412
  882MOL0     H16394  -1.285   6.595   9.256  4.1647  1.1093  0.6328
  882MOL0     H16395  -1.206   6.590   9.406  1.8807  1.0454 -3.3750
  882MOL0     H16396  -1.447   6.780   9.381  1.3424  1.3125 -1.5109
  882MOL0     H16397  -1.360   6.738   9.523 -1.3313 -2.0349  1.2951
  882MOL0     H16398  -1.252   6.858   9.270 -1.5970  0.6451 -0.4598
  882MOL0     H16399  -1.160   6.820   9.426 -2.7273 -0.3545  6.0030
  882MOL0     H16400  -1.312   6.994   9.546  0.2299  3.3194  0.1641
  882MOL0     H16401  -1.368   7.049   9.394 -0.1298  1.1877  1.4805
  882MOL0     H16402  -1.065   7.043   9.447  2.1119  1.6603 -1.4111
  882MOL0     H16403  -1.163   7.117   9.317 -2.5062  0.3646  0.4208
  882MOL0     H16404  -1.191   7.210   9.631  3.1087 -0.3625 -0.5463
  882MOL0     H16405  -1.262   7.285   9.491  1.3180  1.1145 -2.2111
  882MOL0     H16406  -1.016   6.228   9.272 -1.9131  1.1492  0.6998
  882MOL0     H16407  -0.978   5.998   9.183 -1.8436 -3.1479 -4.0523
  882MOL0     H16408  -1.105   5.673   8.889  0.0352 -0.2368  0.3702
  882MOL0     H16409  -1.082   5.455   8.793 -0.3485 -2.9223  0.6057
  882MOL0     H16410   0.476   5.605   9.609 -0.8938  0.0584 -1.5671
  882MOL0     H16411   0.655   5.672   9.764 -1.3657 -1.8656 -0.5165
  882MOL0     H16412   0.619   5.854  10.313 -0.2355  1.8002  2.1004
  882MOL0     H16413   0.796   5.915  10.462  0.3918  1.3272  0.2273
  882MOL0     H16414   1.043   6.182  10.498  0.0727 -1.2431 -1.0021
  882MOL0     H16415   1.068   6.177  10.328 -0.8371 -1.3404 -1.0047
  882MOL0     H16416   1.283   6.025  10.396 -2.8468  0.3537 -2.6696
  882MOL0     H16417   1.290   6.199  10.424 -1.8287  0.9564 -2.2344
  882MOL0     H16418   1.206   5.966  10.613 -1.6149  0.8960  1.2090
  882MOL0     H16419   1.222   6.137  10.665  1.2079 -0.6880  0.7457
  882MOL0     H16420   1.446   5.948  10.575 -1.6029 -1.1247 -0.5569
  882MOL0     H16421   1.461   6.123  10.558  0.9496 -1.3961 -0.5199
  882MOL0     H16422   1.501   6.022  10.979 -0.9079  1.2670  0.2257
  882MOL0     H16423   1.049   6.010  10.131 -0.1153  1.2327 -0.3099
  882MOL0     H16424   0.858   5.952   9.986 -2.8611  0.8420  0.1930
  883MOL0     O16425   9.626   9.163   4.843 -0.1537  0.4373 -0.0149
  883MOL0     C16426   9.557   9.085   4.914  1.0231 -0.0867  0.3659
  883MOL0     O16427   9.423   9.068   4.891  0.5732  0.9248 -0.8652
  883MOL0     C16428   9.378   9.112   4.771  0.6909 -0.2536  0.3800
  883MOL0     C16429   9.309   9.237   4.748  0.2549  0.4212  0.7141
  883MOL0     C16430   9.264   9.260   4.612  0.4205  0.3820  1.0928
  883MOL0     C16431   9.273   9.167   4.503  0.6005 -0.8583  0.5767
  883MOL0     O16432   9.259   9.198   4.369 -0.0157  0.0566  0.2622
  883MOL0     C16433   9.320   9.325   4.339 -0.6791  0.7907  0.6458
  883MOL0     C16434   9.351   9.347   4.187 -0.3256  0.9315  0.1609
  883MOL0     C16435   9.489   9.294   4.148 -0.3826  0.8252 -0.8287
  883MOL0     C16436   9.529   9.311   3.998 -0.3382  1.0283 -1.2061
  883MOL0     C16437   9.672   9.259   3.975  0.0560  0.3860  0.3533
  883MOL0     C16438   9.735   9.321   3.847 -0.6803 -0.2161  0.6419
  883MOL0     C16439   9.872   9.259   3.835 -0.3940 -0.3152  0.6215
  883MOL0     C16440   9.976   9.324   3.925 -0.2531 -0.5617  0.3186
  883MOL0     N16441  10.046   9.438   3.850 -0.8960  0.0238 -0.4184
  883MOL0     C16442  10.165   9.494   3.893 -0.1810 -0.4652 -0.1690
  883MOL0     C16443  10.182   9.605   3.821 -0.0497 -0.8096  0.1255
  883MOL0     C16444  10.271   9.713   3.860  0.3580  0.0515  0.4500
  883MOL0     C16445  10.413   9.691   3.810 -0.3999  0.4240 -0.3035
  883MOL0     C16446  10.412   9.673   3.654 -0.2003 -0.1153 -0.0641
  883MOL0     C16447  10.545   9.739   3.599 -0.1851  0.3094 -0.1889
  883MOL0     O16448  10.553   9.879   3.575  0.7159 -0.1752  0.5072
  883MOL0     C16449  10.491   9.928   3.460  0.6045 -0.3891 -0.6347
  883MOL0     C16450  10.441   9.857   3.350  0.0626 -0.3376 -0.5453
  883MOL0     C16451  10.377   9.917   3.244 -0.5425 -0.1367  0.1708
  883MOL0     C16452  10.381  10.060   3.231 -0.6285  0.0644 -0.2799
  883MOL0     C16453  10.316  10.128   3.119  0.0477  0.4411 -0.1646
  883MOL0     O16454  10.240  10.059   3.035  0.3869  0.8709 -0.6945
  883MOL0     C16455  10.162  10.107   2.928  0.1345  0.4337 -0.4092
  883MOL0     C16456  10.195  10.228   2.857 -0.5085  0.3597 -0.3242
  883MOL0     C16457  10.118  10.264   2.756  0.2390  0.6757  1.1918
  883MOL0     C16458  10.006  10.187   2.709 -0.4004  0.9708 -0.4367
  883MOL0     O16459   9.928  10.211   2.602 -0.9264  0.0045  0.1542
  883MOL0     C16460   9.887  10.348   2.593 -0.8118 -0.2653  0.8746
  883MOL0     C16461   9.788  10.387   2.699  0.0478 -0.6265  0.4542
  883MOL0     C16462   9.768  10.536   2.706  0.2729 -0.3516  0.0872
  883MOL0     C16463   9.705  10.603   2.577  0.4425  0.1439 -0.2746
  883MOL0     C16464   9.677  10.755   2.603 -0.5940 -0.7348  0.1208
  883MOL0     C16465   9.611  10.837   2.490  0.0395 -0.4552  0.3381
  883MOL0     C16466   9.482  10.770   2.442  0.0294  0.4378 -0.2640
  883MOL0     C16467   9.402  10.857   2.348  0.1582 -0.1265  0.5740
  883MOL0    Cl16468   9.240  10.805   2.295 -0.5857 -0.3883 -0.0654
  883MOL0     C16469   9.989  10.061   2.769  0.7061  0.1430 -0.9281
  883MOL0     C16470  10.063  10.024   2.885  0.2566 -0.1547  0.1523
  883MOL0     O16471  10.336  10.246   3.119 -0.0276  0.0705  0.0699
  883MOL0     C16472  10.440  10.129   3.339  0.2808  0.8286  0.2986
  883MOL0     C16473  10.497  10.065   3.448 -0.3823  0.3962 -0.7343
  883MOL0     N16474  10.071   9.610   3.743  0.7120 -0.1197 -0.2404
  883MOL0     N16475   9.993   9.503   3.746  0.0525 -0.2795 -0.0816
  883MOL0     C16476   9.323   9.043   4.533 -0.2786  0.1385  0.2400
  883MOL0     C16477   9.379   9.017   4.664  0.9481 -0.2118  0.6578
  883MOL0     C16478   9.606   9.023   5.039 -0.6873  0.8723 -0.0476
  883MOL0     C16479   9.742   9.018   5.065  0.0402  0.4317 -0.0748
  883MOL0     C16480   9.798   8.977   5.189  0.4569 -0.6730 -1.2271
  883MOL0     C16481   9.708   8.923   5.288 -0.0907 -0.3774 -0.3171
  883MOL0     O16482   9.780   8.890   5.407  0.9218  0.0267 -0.3337
  883MOL0     C16483   9.703   8.846   5.519  0.1049  1.6754 -0.5840
  883MOL0     C16484   9.797   8.797   5.633 -0.0642 -0.2032  0.3340
  883MOL0     C16485   9.885   8.673   5.588  0.6046 -0.4735  0.3653
  883MOL0     C16486   9.969   8.620   5.705 -0.3089 -0.8248 -0.4321
  883MOL0     C16487  10.083   8.543   5.652  0.3044  0.5009 -0.5356
  883MOL0     C16488  10.188   8.494   5.611  0.1436 -0.7350 -0.4949
  883MOL0     C16489   9.578   8.930   5.265  0.5395 -0.5413  0.6629
  883MOL0     C16490   9.528   8.975   5.146 -0.6602  0.2327 -0.9295
  883MOL0     H16491   9.323   9.308   4.829 -1.6499  0.2079  1.2914
  883MOL0     H16492   9.228   9.360   4.588 -3.9287 -1.6818 -2.4490
  883MOL0     H16493   9.415   9.335   4.391  1.5034  0.5734 -2.9459
  883MOL0     H16494   9.255   9.410   4.361  0.7942  1.7257  1.5176
  883MOL0     H16495   9.352   9.453   4.162  0.0904  0.9806  0.3839
  883MOL0     H16496   9.275   9.311   4.115  0.7394 -0.6200 -0.2438
  883MOL0     H16497   9.486   9.184   4.148 -2.5799  0.6931 -4.9020
  883MOL0     H16498   9.566   9.340   4.210 -1.6923  0.7515  0.9267
  883MOL0     H16499   9.458   9.256   3.936  2.8975 -2.8274 -1.8490
  883MOL0     H16500   9.529   9.420   3.991  3.4603  1.2104 -0.4456
  883MOL0     H16501   9.679   9.151   3.960 -1.6665  0.5159 -1.9999
  883MOL0     H16502   9.737   9.281   4.061  0.0739 -6.1276  2.5266
  883MOL0     H16503   9.741   9.430   3.859  1.4957 -0.1133 -0.8597
  883MOL0     H16504   9.688   9.284   3.756  1.3191 -0.7910 -0.2296
  883MOL0     H16505   9.869   9.155   3.867  2.7139  0.1553  2.9579
  883MOL0     H16506   9.898   9.273   3.730  2.0088 -1.4682  0.9853
  883MOL0     H16507  10.057   9.258   3.955 -0.0521  0.7744  3.0517
  883MOL0     H16508   9.933   9.376   4.011  2.6926  2.7115  0.0276
  883MOL0     H16509  10.234   9.450   3.965 -1.5411 -2.4453 -0.0084
  883MOL0     H16510  10.265   9.730   3.968  1.1595  2.6467  0.1676
  883MOL0     H16511  10.236   9.807   3.815 -0.0011 -1.4899 -2.7635
  883MOL0     H16512  10.465   9.614   3.867 -1.4994  1.6396  2.5817
  883MOL0     H16513  10.482   9.772   3.837 -0.4771  0.7535 -1.0775
  883MOL0     H16514  10.421   9.570   3.619 -2.8302  0.6915 -3.7808
  883MOL0     H16515  10.329   9.711   3.593 -0.5562 -2.2319 -0.9851
  883MOL0     H16516  10.579   9.673   3.518  1.7526  0.5907  0.3552
  883MOL0     H16517  10.620   9.711   3.673 -1.4923  0.2274  1.1488
  883MOL0     H16518  10.439   9.749   3.358  0.6955 -0.3683 -0.8086
  883MOL0     H16519  10.332   9.844   3.178 -0.6795  1.2423 -1.3439
  883MOL0     H16520  10.270  10.303   2.880 -2.8727  2.4222  1.1002
  883MOL0     H16521  10.141  10.349   2.692 -1.6001 -0.8969 -1.7564
  883MOL0     H16522   9.841  10.362   2.495  0.3454  1.6281  0.5477
  883MOL0     H16523   9.972  10.417   2.597  0.4625 -1.6786 -0.7049
  883MOL0     H16524   9.821  10.357   2.798  0.8826  1.0125  0.7103
  883MOL0     H16525   9.694  10.345   2.662 -0.5515  1.2570 -0.3092
  883MOL0     H16526   9.866  10.583   2.723  2.1573 -3.8464 -0.2762
  883MOL0     H16527   9.688  10.548   2.779 -0.2641  0.4838 -0.6168
  883MOL0     H16528   9.764  10.583   2.487  1.5645 -1.0162  0.6844
  883MOL0     H16529   9.606  10.561   2.555  0.0602  1.1780 -0.6291
  883MOL0     H16530   9.775  10.803   2.609 -2.0029  2.1378  2.1098
  883MOL0     H16531   9.627  10.765   2.700  2.7146  0.5228  1.8673
  883MOL0     H16532   9.683  10.829   2.409  0.0888 -0.9115  0.4250
  883MOL0     H16533   9.596  10.940   2.524  1.8942 -0.0831  0.1182
  883MOL0     H16534   9.498  10.672   2.397 -0.0881  1.2269 -2.1127
  883MOL0     H16535   9.420  10.743   2.529 -0.1555  0.8129 -0.2752
  883MOL0     H16536   9.460  10.853   2.256  1.2783  2.2421  1.0934
  883MOL0     H16537   9.417  10.961   2.379  4.1589 -0.5516  0.5800
  883MOL0     H16538   9.902  10.011   2.725  1.7697 -1.7881 -0.9523
  883MOL0     H16539  10.039   9.939   2.947 -0.0706  1.8665  2.9962
  883MOL0     H16540  10.452  10.237   3.333  2.5171  0.7298  1.7357
  883MOL0     H16541  10.561  10.105   3.526 -0.1899 -0.4054 -0.4745
  883MOL0     H16542   9.328   8.966   4.456  1.8983 -0.6618  1.1019
  883MOL0     H16543   9.409   8.913   4.678  1.1802 -0.1616  0.5300
  883MOL0     H16544   9.813   9.054   4.991 -1.8621  1.4003 -1.4984
  883MOL0     H16545   9.902   9.002   5.202  0.0862  0.8870 -1.0397
  883MOL0     H16546   9.631   8.767   5.498  1.4741  0.1983  0.1337
  883MOL0     H16547   9.650   8.924   5.576  0.1413  0.3382  1.3581
  883MOL0     H16548   9.859   8.881   5.665 -3.1231  2.3064  0.0841
  883MOL0     H16549   9.732   8.766   5.715 -2.0806  4.4849  0.7768
  883MOL0     H16550   9.944   8.700   5.500  0.3607  1.8186  0.8373
  883MOL0     H16551   9.818   8.593   5.553 -4.0414  2.0082  2.5968
  883MOL0     H16552  10.016   8.703   5.758 -0.0669 -1.6498  0.6894
  883MOL0     H16553   9.916   8.565   5.783 -0.2261 -1.3979 -0.7695
  883MOL0     H16554  10.286   8.455   5.596  0.5040 -2.3455  4.2711
  883MOL0     H16555   9.507   8.926   5.347 -0.1710 -2.0496  0.0109
  883MOL0     H16556   9.421   8.996   5.142 -1.0208 -0.3693  2.4429
  884MOL0     O16557   3.299  10.151   2.520 -0.5799  0.1855  0.2203
  884MOL0     C16558   3.315  10.248   2.448  0.3433 -0.6530  1.1298
  884MOL0     O16559   3.431  10.294   2.405 -0.9570  0.6575 -0.5124
  884MOL0     C16560   3.552  10.231   2.423 -0.3645 -0.4601  0.0946
  884MOL0     C16561   3.610  10.182   2.304  0.1332 -0.9366 -0.2643
  884MOL0     C16562   3.739  10.133   2.297 -0.4271  0.3781  0.0701
  884MOL0     C16563   3.818  10.114   2.414 -0.1298 -0.0053  0.5038
  884MOL0     O16564   3.948  10.063   2.429  0.4569 -0.2977 -0.5524
  884MOL0     C16565   4.026  10.021   2.321 -0.0821  0.6365  1.7667
  884MOL0     C16566   4.169  10.052   2.344  0.3439 -0.7860  0.8301
  884MOL0     C16567   4.264  10.037   2.229 -0.6345  0.0760 -0.8624
  884MOL0     C16568   4.263   9.892   2.166 -0.0330 -0.1471 -0.0645
  884MOL0     C16569   4.329   9.884   2.026  0.3931 -2.3005  0.4154
  884MOL0     C16570   4.454   9.963   2.018  0.2353 -0.5665 -0.1766
  884MOL0     C16571   4.535   9.953   1.882  0.3854  0.2248 -0.3104
  884MOL0     C16572   4.664  10.033   1.884 -1.1555  0.6771  0.9220
  884MOL0     N16573   4.711  10.037   1.750 -0.1268  0.1301  0.5037
  884MOL0     C16574   4.687  10.135   1.656  0.8759  1.2844 -0.3646
  884MOL0     C16575   4.724  10.081   1.542  0.4118  0.6218 -0.1635
  884MOL0     C16576   4.724  10.132   1.400  0.5497 -0.3532  0.1012
  884MOL0     C16577   4.860  10.190   1.351  0.5858 -1.0514 -0.5829
  884MOL0     C16578   4.850  10.226   1.194  0.0392 -0.0528 -0.3585
  884MOL0     C16579   4.953  10.333   1.143 -0.8984  0.2278 -0.0291
  884MOL0     O16580   5.087  10.300   1.177 -0.4203  0.1995  0.2351
  884MOL0     C16581   5.156  10.188   1.128 -0.5315  0.3460  1.0353
  884MOL0     C16582   5.273  10.139   1.175 -0.9300  0.5604  0.1984
  884MOL0     C16583   5.334  10.023   1.120 -0.0109  0.2637 -0.1496
  884MOL0     C16584   5.269   9.953   1.026  0.9827  0.3925 -0.0206
  884MOL0     C16585   5.327   9.830   0.967  0.4109  0.2283 -0.4143
  884MOL0     O16586   5.287   9.797   0.845 -0.0409  0.0989  0.7773
  884MOL0     C16587   5.361   9.694   0.787  1.3439  0.3400 -0.1484
  884MOL0     C16588   5.475   9.725   0.731 -0.3782 -0.1915  0.6142
  884MOL0     C16589   5.533   9.616   0.660  0.5362  0.4930  0.4690
  884MOL0     C16590   5.483   9.485   0.668 -0.2724 -0.3873  0.6455
  884MOL0     O16591   5.553   9.392   0.594  1.1748 -0.1773  0.1246
  884MOL0     C16592   5.483   9.266   0.571  0.3925  0.1709  0.2647
  884MOL0     C16593   5.566   9.138   0.557  0.0423 -0.0867  0.4583
  884MOL0     C16594   5.522   9.061   0.436  0.0183  0.5948 -0.4756
  884MOL0     C16595   5.549   8.911   0.454  0.7542  0.1436  0.3907
  884MOL0     C16596   5.536   8.845   0.316  1.0341  0.4071  0.2726
  884MOL0     C16597   5.404   8.869   0.236  0.6505 -0.8489  0.0978
  884MOL0     C16598   5.277   8.810   0.303  0.6654 -0.8275 -0.0316
  884MOL0     C16599   5.148   8.874   0.247 -0.6095 -0.0553  0.0826
  884MOL0    Cl16600   5.138   9.033   0.297 -0.1508  0.2231  0.0563
  884MOL0     C16601   5.351   9.474   0.722  0.1949 -0.5796  0.3236
  884MOL0     C16602   5.295   9.571   0.792  0.0095  0.6297 -0.3094
  884MOL0     O16603   5.427   9.785   1.022  0.1687  0.4595 -0.1199
  884MOL0     C16604   5.152  10.013   0.968 -0.3221 -0.2830  0.7851
  884MOL0     C16605   5.102  10.136   1.009 -0.8613  0.0236 -0.3164
  884MOL0     N16606   4.768   9.950   1.561  1.5200 -0.6130 -0.0437
  884MOL0     N16607   4.754   9.928   1.686 -0.3078 -0.3540  0.0058
  884MOL0     C16608   3.759  10.143   2.535  0.5094 -0.3936  0.2944
  884MOL0     C16609   3.630  10.212   2.536 -0.2402 -0.0074  0.3674
  884MOL0     C16610   3.189  10.325   2.419  0.1315 -0.1448  0.2492
  884MOL0     C16611   3.175  10.407   2.299 -0.7877 -0.3123  1.3265
  884MOL0     C16612   3.072  10.491   2.272  0.6042 -0.6188  0.6715
  884MOL0     C16613   2.965  10.511   2.358  0.0788 -0.5412  0.3627
  884MOL0     O16614   2.878  10.611   2.348  0.0829  0.3920  0.3227
  884MOL0     C16615   2.863  10.690   2.222  0.4282  0.7231 -1.1872
  884MOL0     C16616   2.733  10.771   2.231  0.2639 -0.0178  0.7858
  884MOL0     C16617   2.717  10.895   2.133 -1.1665 -0.4116 -0.8404
  884MOL0     C16618   2.600  10.983   2.183  0.1511 -0.3800 -0.2016
  884MOL0     C16619   2.559  11.098   2.096 -0.8771 -0.3748 -0.3663
  884MOL0     C16620   2.524  11.186   2.024  0.2271 -0.4013  0.1848
  884MOL0     C16621   2.970  10.430   2.474 -0.0185 -0.0898 -0.2249
  884MOL0     C16622   3.079  10.347   2.508  0.5250  0.4324 -0.4088
  884MOL0     H16623   3.560  10.200   2.209  1.6123  2.5287 -0.5813
  884MOL0     H16624   3.766  10.098   2.198  0.0706  0.6116  0.1203
  884MOL0     H16625   3.989  10.078   2.236  0.5368  0.7316  1.5590
  884MOL0     H16626   4.015   9.913   2.303  1.5138  1.0790 -3.6299
  884MOL0     H16627   4.211  10.003   2.432 -1.9945 -1.5634  1.5972
  884MOL0     H16628   4.172  10.156   2.378  2.6518 -0.2170 -0.9058
  884MOL0     H16629   4.363  10.061   2.269 -0.8321  1.3494 -1.0933
  884MOL0     H16630   4.238  10.121   2.164  1.4565 -1.4427 -3.9118
  884MOL0     H16631   4.309   9.818   2.232  3.2954 -1.2479 -3.2674
  884MOL0     H16632   4.160   9.858   2.152  0.2508 -0.8704 -0.4709
  884MOL0     H16633   4.255   9.936   1.963  2.4266 -1.5066 -1.4711
  884MOL0     H16634   4.340   9.781   1.990  0.9135 -0.4608 -6.1509
  884MOL0     H16635   4.517   9.910   2.091  0.0394 -1.4808 -0.6636
  884MOL0     H16636   4.447  10.068   2.047 -2.0646 -0.1989 -1.8458
  884MOL0     H16637   4.563   9.849   1.865 -2.2632 -0.7927  1.0021
  884MOL0     H16638   4.471   9.994   1.803 -1.1296  2.0786  1.7238
  884MOL0     H16639   4.738   9.984   1.946 -2.8302  0.5709  2.9363
  884MOL0     H16640   4.637  10.125   1.938 -4.8712  0.9701 -1.0522
  884MOL0     H16641   4.648  10.234   1.672 -0.4866  0.3004  3.2868
  884MOL0     H16642   4.640  10.203   1.395  1.2276  0.3866 -1.8443
  884MOL0     H16643   4.698  10.050   1.333  1.4904 -1.0647  0.5873
  884MOL0     H16644   4.949  10.126   1.361  0.9683 -0.5415 -0.6971
  884MOL0     H16645   4.884  10.277   1.413  0.5510 -1.4232 -0.0453
  884MOL0     H16646   4.861  10.132   1.140 -0.6264  0.2646 -1.0775
  884MOL0     H16647   4.750  10.270   1.183 -0.3819 -0.8062  0.4032
  884MOL0     H16648   4.932  10.428   1.193  3.3436  0.8584  0.8736
  884MOL0     H16649   4.953  10.354   1.036  1.6934  1.4001  0.1429
  884MOL0     H16650   5.326  10.196   1.251 -1.9438  1.5139  0.2196
  884MOL0     H16651   5.439  10.008   1.143 -0.1934  1.6084  1.7840
  884MOL0     H16652   5.515   9.825   0.739 -2.3646  0.6046  1.1053
  884MOL0     H16653   5.626   9.624   0.604  1.7025  0.4150  2.2931
  884MOL0     H16654   5.406   9.281   0.495  1.3869 -1.3623 -1.0960
  884MOL0     H16655   5.428   9.242   0.662  1.9889 -0.8503  1.0027
  884MOL0     H16656   5.562   9.078   0.649 -0.2534  1.3991  1.4624
  884MOL0     H16657   5.670   9.167   0.539 -0.4341  0.8717 -0.9014
  884MOL0     H16658   5.557   9.099   0.340 -1.2244  0.3403 -1.0515
  884MOL0     H16659   5.413   9.067   0.439 -0.2446 -2.6074 -0.3353
  884MOL0     H16660   5.654   8.900   0.482  1.2292  0.5264 -1.1556
  884MOL0     H16661   5.478   8.861   0.520 -2.5334  2.8310 -0.8255
  884MOL0     H16662   5.547   8.736   0.324  1.7515  0.3325 -1.3130
  884MOL0     H16663   5.616   8.884   0.251  1.5122 -1.8947 -0.6296
  884MOL0     H16664   5.399   8.823   0.137 -3.6855 -2.1316  0.6826
  884MOL0     H16665   5.397   8.977   0.224 -0.3272 -0.6502  2.1038
  884MOL0     H16666   5.266   8.702   0.288 -4.2347 -0.4367 -1.1093
  884MOL0     H16667   5.277   8.827   0.411  0.3534 -0.5459 -0.0737
  884MOL0     H16668   5.056   8.824   0.277 -0.7264 -0.1386 -0.4083
  884MOL0     H16669   5.149   8.855   0.139 -2.7594 -2.9752  0.4637
  884MOL0     H16670   5.296   9.381   0.709 -3.3182  1.3694  0.2491
  884MOL0     H16671   5.200   9.564   0.844  0.9526 -0.5563  1.3640
  884MOL0     H16672   5.108   9.965   0.881  0.3116 -3.1512  1.9372
  884MOL0     H16673   5.020  10.172   0.947  1.4725 -0.2827 -3.8848
  884MOL0     H16674   3.822  10.133   2.623 -0.8745 -0.4738  1.3034
  884MOL0     H16675   3.595  10.229   2.638 -2.5874 -2.8681  0.1585
  884MOL0     H16676   3.261  10.410   2.232 -1.9017  0.6054 -0.1195
  884MOL0     H16677   3.082  10.554   2.185 -0.2360 -2.8145 -1.1168
  884MOL0     H16678   2.867  10.632   2.130 -1.3392  2.2763 -2.3272
  884MOL0     H16679   2.945  10.762   2.213  0.0611  0.9758 -2.8618
  884MOL0     H16680   2.651  10.708   2.197 -3.6911  4.9117 -0.0753
  884MOL0     H16681   2.715  10.805   2.333  0.3127  2.7124 -0.0106
  884MOL0     H16682   2.697  10.855   2.033 -1.9589  0.6101 -1.1146
  884MOL0     H16683   2.815  10.943   2.123  0.6620 -4.0546 -1.8740
  884MOL0     H16684   2.509  10.926   2.202  0.8294 -1.5651 -0.4593
  884MOL0     H16685   2.626  11.028   2.280 -0.4078 -1.3349  0.4074
  884MOL0     H16686   2.512  11.268   1.956  3.8539  0.5216  0.4178
  884MOL0     H16687   2.887  10.435   2.543 -2.1446  0.3902 -2.6579
  884MOL0     H16688   3.091  10.296   2.603  1.6296 -2.0293 -1.7932
  885MOL0     O16689  10.866   0.440   7.925  0.3246  0.3164  0.5975
  885MOL0     C16690  10.758   0.404   7.971  0.5336 -0.0676 -0.0175
  885MOL0     O16691  10.708   0.430   8.096  0.4556  0.2513  0.4090
  885MOL0     C16692  10.784   0.519   8.167  0.5399  0.8100  0.0410
  885MOL0     C16693  10.750   0.657   8.155  0.2554 -0.4674 -0.0481
  885MOL0     C16694  10.827   0.750   8.224 -0.6780 -0.0293 -0.6877
  885MOL0     C16695  10.946   0.714   8.298 -0.2757 -0.4446 -0.7485
  885MOL0     O16696  11.032   0.807   8.362 -0.2200 -1.1705 -0.0245
  885MOL0     C16697  11.019   0.949   8.342  0.5438 -0.4116 -0.1345
  885MOL0     C16698  11.037   0.990   8.194 -0.1033  0.1610 -0.4034
  885MOL0     C16699  11.031   1.135   8.196 -0.2231 -0.2387  0.8296
  885MOL0     C16700  11.070   1.187   8.054 -0.6299  0.6345  0.6826
  885MOL0     C16701  11.158   1.311   8.070  0.3115  0.8617  0.1516
  885MOL0     C16702  11.092   1.421   8.157  0.1659  0.3682 -0.5320
  885MOL0     C16703  11.163   1.554   8.111  0.5976  0.0642 -0.4085
  885MOL0     C16704  11.080   1.616   7.998  0.4401 -0.8922 -0.2674
  885MOL0     N16705  11.114   1.764   7.996  0.7647 -0.6432 -0.8363
  885MOL0     C16706  11.041   1.850   7.923  0.0237 -0.2282 -0.3985
  885MOL0     C16707  11.100   1.970   7.911  0.1164 -0.1855 -0.4526
  885MOL0     C16708  11.051   2.079   7.820  0.3197  0.2432 -0.7406
  885MOL0     C16709  10.908   2.075   7.769 -0.2859 -0.0400  0.4029
  885MOL0     C16710  10.890   2.214   7.691  0.3085  0.5130  0.6193
  885MOL0     C16711  10.761   2.239   7.601 -0.0151 -0.3157 -0.1904
  885MOL0     O16712  10.778   2.359   7.523  0.0062 -0.5088 -0.4209
  885MOL0     C16713  10.778   2.476   7.592 -0.2813  0.3778  1.2046
  885MOL0     C16714  10.678   2.512   7.678 -0.0572  0.2572  0.0497
  885MOL0     C16715  10.683   2.642   7.741  1.0580 -0.0973 -0.4114
  885MOL0     C16716  10.783   2.737   7.719  0.1298  0.5841 -0.0864
  885MOL0     C16717  10.778   2.869   7.783 -0.3292 -0.4684  0.5760
  885MOL0     O16718  10.894   2.942   7.768  0.5830 -0.3620 -0.2786
  885MOL0     C16719  10.904   3.054   7.848 -0.3169 -0.4126 -0.2604
  885MOL0     C16720  10.881   3.058   7.989 -0.3886  0.1061  0.2704
  885MOL0     C16721  10.866   3.186   8.049  0.2406  0.4460 -1.3384
  885MOL0     C16722  10.893   3.303   7.974  0.2461  0.4961  0.1516
  885MOL0     O16723  10.882   3.424   8.033  0.5405 -0.0604 -0.3872
  885MOL0     C16724  10.997   3.498   8.060  0.3683  0.5458 -0.9783
  885MOL0     C16725  10.971   3.609   8.162 -0.5895  0.0505  0.0098
  885MOL0     C16726  11.051   3.738   8.113 -0.1147  0.1507  0.2363
  885MOL0     C16727  11.203   3.729   8.109 -0.9407  0.2588 -0.2291
  885MOL0     C16728  11.285   3.823   8.020  0.6995 -0.1691 -0.6358
  885MOL0     C16729  11.443   3.791   8.042 -1.1141 -0.0108 -0.1335
  885MOL0     C16730  11.522   3.916   8.016 -0.0652  0.8793 -0.1150
  885MOL0     C16731  11.515   3.954   7.868 -0.5405  0.3759  0.1016
  885MOL0    Cl16732  11.585   3.816   7.756 -0.3945 -0.2060  0.5154
  885MOL0     C16733  10.937   3.286   7.845 -0.1015  0.1764 -0.4923
  885MOL0     C16734  10.940   3.169   7.781  0.2510 -0.6191  0.2175
  885MOL0     O16735  10.671   2.914   7.817 -0.2658  0.4905  0.4173
  885MOL0     C16736  10.878   2.697   7.628 -1.2322 -0.4093 -0.8766
  885MOL0     C16737  10.875   2.567   7.565 -0.3154  0.2111  0.0373
  885MOL0     N16738  11.209   1.956   7.993 -0.3995 -0.2970  0.3936
  885MOL0     N16739  11.221   1.835   8.045 -0.6034 -0.7169 -0.3975
  885MOL0     C16740  10.973   0.578   8.314  0.1658  0.1471  0.9240
  885MOL0     C16741  10.891   0.480   8.244  0.0074 -0.3302 -0.1104
  885MOL0     C16742  10.668   0.324   7.881 -0.3566  0.2697 -0.0499
  885MOL0     C16743  10.670   0.351   7.741 -0.1350  0.4548  0.0945
  885MOL0     C16744  10.599   0.270   7.654 -0.4508 -0.2149 -0.8126
  885MOL0     C16745  10.528   0.158   7.701 -0.4240 -0.6753 -0.3952
  885MOL0     O16746  10.459   0.092   7.608  0.1509  0.4959 -0.1785
  885MOL0     C16747  10.320   0.055   7.637  0.1391  0.1535 -0.5032
  885MOL0     C16748  10.228   0.172   7.636  0.5942  0.2442 -0.5749
  885MOL0     C16749  10.084   0.129   7.657  0.8214 -0.4948 -0.2989
  885MOL0     C16750   9.983   0.243   7.615 -1.0984  0.2543  0.6146
  885MOL0     C16751   9.995   0.365   7.693 -0.3799 -0.3983  0.1603
  885MOL0     C16752  10.015   0.466   7.770  0.1255  0.5038  0.2465
  885MOL0     C16753  10.526   0.138   7.839 -0.3165  0.0927 -0.4724
  885MOL0     C16754  10.607   0.214   7.931  0.6611 -0.1156  0.4714
  885MOL0     H16755  10.663   0.682   8.096 -0.8174 -0.8680  1.3196
  885MOL0     H16756  10.789   0.852   8.225  1.2574  0.7442 -1.6120
  885MOL0     H16757  11.090   1.008   8.401 -1.8199  2.2556  0.2557
  885MOL0     H16758  10.922   0.981   8.381 -0.9449 -1.4390 -2.7563
  885MOL0     H16759  10.960   0.950   8.128 -0.9559 -1.0736  1.2728
  885MOL0     H16760  11.135   0.947   8.169 -0.0448 -0.5753  1.0040
  885MOL0     H16761  11.104   1.188   8.258 -0.1001 -0.8207  1.1893
  885MOL0     H16762  10.934   1.174   8.227 -1.4313 -4.0561  2.4603
  885MOL0     H16763  11.141   1.118   8.007  0.1157  0.6662  1.7354
  885MOL0     H16764  10.985   1.200   7.986  1.0040 -0.6123 -1.7717
  885MOL0     H16765  11.182   1.353   7.972  0.3916  1.4003  0.3995
  885MOL0     H16766  11.253   1.289   8.120 -0.0469 -2.8410 -0.5306
  885MOL0     H16767  11.116   1.413   8.263 -2.3464 -1.3528  0.0125
  885MOL0     H16768  10.983   1.431   8.163  0.1345 -0.0292 -0.3746
  885MOL0     H16769  11.174   1.628   8.191 -2.6850  4.0114 -3.1418
  885MOL0     H16770  11.259   1.536   8.061 -1.0891 -1.9853 -3.2379
  885MOL0     H16771  10.973   1.607   8.016  0.0767  1.8723 -0.5994
  885MOL0     H16772  11.101   1.550   7.914 -2.5768 -2.9051  0.3956
  885MOL0     H16773  10.948   1.835   7.869 -1.0363  1.9700  0.6550
  885MOL0     H16774  11.123   2.087   7.738  0.5531  3.1592 -0.3576
  885MOL0     H16775  11.062   2.177   7.868 -0.6804  1.0912 -2.1773
  885MOL0     H16776  10.839   2.066   7.852  2.1855 -1.1176  2.4840
  885MOL0     H16777  10.893   1.997   7.694  1.4844  1.5566 -1.7805
  885MOL0     H16778  10.886   2.298   7.761  4.7066  0.7364  0.8703
  885MOL0     H16779  10.984   2.233   7.638 -0.6806  1.5609 -0.8363
  885MOL0     H16780  10.667   2.249   7.657  0.9775 -0.8915  1.6508
  885MOL0     H16781  10.747   2.154   7.533  0.6045  0.4457 -1.3049
  885MOL0     H16782  10.596   2.441   7.679  0.0003  0.0342 -2.8589
  885MOL0     H16783  10.600   2.670   7.805  0.3965 -1.4274 -0.6428
  885MOL0     H16784  10.860   2.972   8.052 -2.1481  0.0371 -0.3401
  885MOL0     H16785  10.852   3.194   8.156  2.1649 -0.9567 -0.9210
  885MOL0     H16786  11.013   3.536   7.959 -3.3616  1.4211 -1.3627
  885MOL0     H16787  11.086   3.445   8.097  0.8053  1.5837 -0.4864
  885MOL0     H16788  11.007   3.579   8.261 -0.7522 -2.9775 -0.7518
  885MOL0     H16789  10.862   3.620   8.164 -1.3553 -4.6114 -2.3659
  885MOL0     H16790  11.029   3.819   8.184  1.0398  0.3291  0.4093
  885MOL0     H16791  11.012   3.757   8.013  1.8328  1.4118 -0.3473
  885MOL0     H16792  11.223   3.755   8.213 -2.3901  1.4865 -0.2292
  885MOL0     H16793  11.227   3.625   8.082  2.2947  0.6900  0.6241
  885MOL0     H16794  11.254   3.920   8.061 -0.1731 -1.5648  2.3532
  885MOL0     H16795  11.261   3.819   7.914 -0.4593  1.7532 -0.5091
  885MOL0     H16796  11.479   3.712   7.975  0.9331  1.4281 -0.8072
  885MOL0     H16797  11.468   3.746   8.138  0.6162 -2.0694 -1.4532
  885MOL0     H16798  11.485   4.003   8.070  3.3439  2.3033  0.1903
  885MOL0     H16799  11.623   3.895   8.051 -0.5014 -0.7414  0.2357
  885MOL0     H16800  11.568   4.049   7.868 -2.9985  1.8460 -0.5119
  885MOL0     H16801  11.408   3.967   7.848 -0.6086 -2.0377 -1.5987
  885MOL0     H16802  10.954   3.381   7.796 -1.0619  0.5049 -0.2124
  885MOL0     H16803  10.960   3.159   7.675 -2.0505 -1.0646 -0.2174
  885MOL0     H16804  10.958   2.763   7.595 -0.1069 -1.8338 -1.0915
  885MOL0     H16805  10.949   2.550   7.488  1.4450  0.8024  1.5126
  885MOL0     H16806  11.061   0.547   8.368  1.9321 -0.7565 -2.2569
  885MOL0     H16807  10.914   0.375   8.258  5.4415  0.3265 -1.7802
  885MOL0     H16808  10.726   0.441   7.717  0.9567  0.2509  1.7507
  885MOL0     H16809  10.601   0.305   7.551  1.2680  0.3549 -0.6271
  885MOL0     H16810  10.319   0.002   7.733  0.7455 -1.3062 -1.2814
  885MOL0     H16811  10.273  -0.009   7.561  0.1079  1.9689 -2.0929
  885MOL0     H16812  10.260   0.248   7.707  3.5153 -1.6554  0.3110
  885MOL0     H16813  10.223   0.215   7.535 -1.5120  0.3633 -0.4571
  885MOL0     H16814  10.073   0.102   7.763  0.8668  1.6254  0.3052
  885MOL0     H16815  10.067   0.035   7.605 -2.2975  0.6179 -1.5011
  885MOL0     H16816  10.000   0.276   7.512 -1.8791  0.2648  0.4814
  885MOL0     H16817   9.883   0.198   7.617 -1.9193  1.9306 -0.4379
  885MOL0     H16818  10.023   0.562   7.817 -3.4489  1.5470 -0.9636
  885MOL0     H16819  10.475   0.049   7.876  0.1634  0.0313  0.0522
  885MOL0     H16820  10.608   0.191   8.037 -0.9135 -0.3214  0.4653
  886MOL0     O16821   9.946   4.045  10.655 -0.5398  0.7997  0.0280
  886MOL0     C16822  10.052   4.054  10.717  0.4605 -0.1171 -0.7872
  886MOL0     O16823  10.124   3.944  10.770  1.2653  0.0100 -0.2850
  886MOL0     C16824  10.081   3.821  10.710 -0.4533 -0.0254  0.1302
  886MOL0     C16825  10.044   3.711  10.793  0.6677 -0.2823  0.9689
  886MOL0     C16826  10.008   3.590  10.733 -0.1827 -0.7580 -0.6007
  886MOL0     C16827  10.022   3.572  10.594 -0.9753  0.6802  0.3706
  886MOL0     O16828   9.981   3.444  10.550 -0.2170  0.5661 -0.2894
  886MOL0     C16829   9.945   3.434  10.408  0.0446  0.6293  0.0565
  886MOL0     C16830   9.892   3.292  10.385  0.1687  0.0339 -0.5386
  886MOL0     C16831   9.750   3.302  10.316 -0.1355  0.1173 -0.5363
  886MOL0     C16832   9.678   3.170  10.318  0.3953  0.5197 -0.6233
  886MOL0     C16833   9.521   3.194  10.340  0.6311 -0.1295  0.3822
  886MOL0     C16834   9.466   3.281  10.223  0.5263 -0.6982 -0.1775
  886MOL0     C16835   9.314   3.265  10.230 -0.7164 -0.8168  0.7669
  886MOL0     C16836   9.238   3.340  10.116 -0.1951  0.1575  1.2367
  886MOL0     N16837   9.271   3.488  10.108 -0.9024  0.0990 -0.5391
  886MOL0     C16838   9.245   3.573  10.212  0.6257 -0.3747  0.1506
  886MOL0     C16839   9.307   3.692  10.189 -0.6021 -0.0352  0.0722
  886MOL0     C16840   9.332   3.816  10.267 -0.0444 -0.0842 -0.2011
  886MOL0     C16841   9.215   3.916  10.261  0.8320 -0.1168  0.1584
  886MOL0     C16842   9.173   3.945  10.120 -0.5791  0.3581 -0.6419
  886MOL0     C16843   9.063   4.046  10.083  0.5017 -0.6598  0.1021
  886MOL0     O16844   8.929   4.004  10.120 -0.3134 -0.1686 -0.4047
  886MOL0     C16845   8.845   4.103  10.158  0.8542 -0.7958  0.4003
  886MOL0     C16846   8.850   4.235  10.103  0.1568 -0.2072 -0.7017
  886MOL0     C16847   8.762   4.334  10.158  0.1626 -0.9360  0.7838
  886MOL0     C16848   8.663   4.310  10.252  0.0549 -0.0165 -0.3776
  886MOL0     C16849   8.561   4.412  10.283 -0.3552 -0.5470 -0.2322
  886MOL0     O16850   8.452   4.375  10.365 -0.6776  0.5533  0.4643
  886MOL0     C16851   8.415   4.450  10.477  0.2136 -0.7393  0.5814
  886MOL0     C16852   8.298   4.418  10.550 -0.2088  0.1856 -0.5912
  886MOL0     C16853   8.276   4.487  10.672 -0.6675 -0.7628 -0.3833
  886MOL0     C16854   8.371   4.585  10.719  0.1324  0.1384 -0.0647
  886MOL0     O16855   8.377   4.642  10.841  0.0971  0.1829 -0.6082
  886MOL0     C16856   8.248   4.716  10.883  0.1465  0.6516 -0.6662
  886MOL0     C16857   8.291   4.798  11.001 -0.6648 -0.1204 -0.7885
  886MOL0     C16858   8.177   4.845  11.101 -0.5071 -0.0068  0.4122
  886MOL0     C16859   8.226   4.954  11.197 -0.9657  0.3470 -0.5952
  886MOL0     C16860   8.088   5.010  11.265 -0.3697 -0.1486  0.6307
  886MOL0     C16861   8.131   5.142  11.346  0.4917  0.0036  0.1615
  886MOL0     C16862   8.119   5.262  11.243 -0.5167  1.1245 -0.2120
  886MOL0     C16863   8.125   5.394  11.324 -0.2829 -0.3371  1.3497
  886MOL0    Cl16864   8.115   5.535  11.218  0.0961  0.1729  0.0002
  886MOL0     C16865   8.482   4.608  10.644 -0.7741 -1.2089 -0.5108
  886MOL0     C16866   8.504   4.547  10.527  0.6195  0.7160  0.2852
  886MOL0     O16867   8.571   4.527  10.228 -0.6281  1.1895 -0.1107
  886MOL0     C16868   8.667   4.185  10.315  0.3372  0.6176  0.7182
  886MOL0     C16869   8.759   4.080  10.263 -0.3011  0.1201 -0.6929
  886MOL0     N16870   9.379   3.672  10.071  0.6183  0.5258  1.4221
  886MOL0     N16871   9.359   3.546  10.023 -0.0679  0.1932  0.5009
  886MOL0     C16872  10.074   3.677  10.514 -0.3026 -0.2121  0.4120
  886MOL0     C16873  10.107   3.801  10.574 -0.2153 -0.1519  0.4618
  886MOL0     C16874  10.114   4.189  10.732 -0.1650 -1.1474 -0.7428
  886MOL0     C16875  10.256   4.211  10.756 -0.5372  0.1585  0.3604
  886MOL0     C16876  10.312   4.337  10.773  0.1205  0.5302  0.6220
  886MOL0     C16877  10.221   4.442  10.775  0.0459 -0.2781  0.3773
  886MOL0     O16878  10.268   4.566  10.812 -0.6706 -0.4846 -0.7250
  886MOL0     C16879  10.195   4.626  10.911  0.6800  0.5106 -0.5511
  886MOL0     C16880  10.301   4.729  10.969  0.2161 -0.2403 -1.0375
  886MOL0     C16881  10.394   4.684  11.090 -0.5858  0.3563 -1.0106
  886MOL0     C16882  10.406   4.790  11.209  1.1601  0.5948 -0.3977
  886MOL0     C16883  10.270   4.798  11.258 -0.5774 -0.7830  0.1507
  886MOL0     C16884  10.165   4.783  11.321 -0.6902  0.3716 -1.2159
  886MOL0     C16885  10.090   4.430  10.745  1.0376  0.2464 -0.4791
  886MOL0     C16886  10.035   4.299  10.726 -0.3291 -0.9379 -1.0440
  886MOL0     H16887  10.021   3.736  10.896 -3.4174 -0.3978  0.2454
  886MOL0     H16888   9.966   3.510  10.792 -0.5524 -1.4702 -1.7838
  886MOL0     H16889  10.041   3.458  10.361 -0.0178  3.3528  1.1352
  886MOL0     H16890   9.875   3.514  10.381 -0.2546  2.4891  5.2388
  886MOL0     H16891   9.869   3.237  10.476  1.2758 -3.9823 -2.4465
  886MOL0     H16892   9.958   3.223  10.330 -1.5101 -1.5221 -0.6877
  886MOL0     H16893   9.772   3.324  10.211 -2.0180 -0.2920 -1.0520
  886MOL0     H16894   9.687   3.380  10.358 -4.2887 -2.7483 -0.8519
  886MOL0     H16895   9.689   3.120  10.221 -2.3046 -0.8925 -0.2967
  886MOL0     H16896   9.719   3.096  10.387  1.0973 -1.8725 -3.4060
  886MOL0     H16897   9.485   3.231  10.436  0.2611 -1.4215  0.7656
  886MOL0     H16898   9.488   3.090  10.326  0.8175  0.0940 -2.4200
  886MOL0     H16899   9.510   3.259  10.125 -0.4273 -1.0800 -0.5315
  886MOL0     H16900   9.485   3.387  10.237  1.6231 -0.8423 -0.5168
  886MOL0     H16901   9.295   3.158  10.228 -1.7968 -0.6291 -0.6754
  886MOL0     H16902   9.297   3.319  10.324 -1.3134  0.3773 -0.0013
  886MOL0     H16903   9.132   3.318  10.133  0.2193 -1.4951  1.8218
  886MOL0     H16904   9.269   3.300  10.019 -0.9957  4.4867 -1.0579
  886MOL0     H16905   9.194   3.547  10.304 -0.3095 -2.0605 -0.7834
  886MOL0     H16906   9.425   3.866  10.240 -0.2335 -0.6437 -1.9789
  886MOL0     H16907   9.338   3.773  10.368  1.4722 -0.5745 -0.4809
  886MOL0     H16908   9.241   4.015  10.299 -0.7667  1.5828 -2.7979
  886MOL0     H16909   9.125   3.880  10.313  0.8305 -0.0361  0.2114
  886MOL0     H16910   9.264   3.990  10.080  0.9763 -2.2713 -0.3355
  886MOL0     H16911   9.128   3.856  10.074 -1.0251  1.8142 -3.1935
  886MOL0     H16912   9.058   4.053   9.974 -0.8191 -0.2880  0.1646
  886MOL0     H16913   9.093   4.138  10.134 -1.3916 -0.7541  1.5068
  886MOL0     H16914   8.920   4.263  10.024  2.7058 -1.1300  1.1098
  886MOL0     H16915   8.745   4.426  10.103 -2.2384 -0.9723  1.3394
  886MOL0     H16916   8.236   4.338  10.509 -2.4791  2.2085 -1.3828
  886MOL0     H16917   8.193   4.447  10.730 -0.2429 -1.3135 -0.1436
  886MOL0     H16918   8.170   4.644  10.906  1.0147  0.1086  0.7037
  886MOL0     H16919   8.210   4.786  10.808  0.3762 -1.7796 -3.2234
  886MOL0     H16920   8.340   4.886  10.958 -0.5771 -0.9560 -2.4687
  886MOL0     H16921   8.373   4.757  11.061  1.8009  2.9871 -1.7099
  886MOL0     H16922   8.143   4.760  11.161  1.9608 -0.2792  1.5264
  886MOL0     H16923   8.104   4.885  11.029 -0.2635  1.7733  1.0901
  886MOL0     H16924   8.290   4.926  11.281 -1.7360 -0.5571 -0.2947
  886MOL0     H16925   8.269   5.041  11.145 -0.7648  1.1773  0.9081
  886MOL0     H16926   8.046   4.947  11.344  0.3505 -1.7636 -0.2385
  886MOL0     H16927   8.015   5.048  11.193 -1.6515  0.1710  2.0374
  886MOL0     H16928   8.234   5.136  11.382  0.9508  2.5410 -0.5206
  886MOL0     H16929   8.066   5.152  11.433 -0.4774 -1.2793 -0.3830
  886MOL0     H16930   8.197   5.263  11.167  1.3276  0.0927  1.5518
  886MOL0     H16931   8.024   5.275  11.190 -1.9521 -0.9867  1.6468
  886MOL0     H16932   8.222   5.402  11.374  0.6141  0.4863 -0.4366
  886MOL0     H16933   8.050   5.393  11.404 -1.9006 -1.8115 -0.0984
  886MOL0     H16934   8.556   4.676  10.685 -2.4693 -1.4239  3.3064
  886MOL0     H16935   8.603   4.565  10.485  1.5097  1.1438  2.4618
  886MOL0     H16936   8.601   4.165  10.399  0.6752  0.4198  0.9405
  886MOL0     H16937   8.767   3.986  10.317  0.1704 -0.1451 -1.2102
  886MOL0     H16938  10.081   3.672  10.406 -2.5241  3.1145 -0.0262
  886MOL0     H16939  10.143   3.886  10.516  2.1394 -2.4392 -1.6946
  886MOL0     H16940  10.331   4.134  10.768 -0.1986  0.8205  3.0959
  886MOL0     H16941  10.414   4.360  10.802 -0.0883  2.4412 -0.0222
  886MOL0     H16942  10.161   4.551  10.984 -0.7005  0.0665 -1.6088
  886MOL0     H16943  10.107   4.673  10.865  0.9001 -1.5624 -3.3198
  886MOL0     H16944  10.365   4.762  10.886 -0.7499  0.5889 -1.4704
  886MOL0     H16945  10.242   4.812  11.010  0.7321  0.4355 -1.6279
  886MOL0     H16946  10.496   4.673  11.052 -0.3841  1.4610 -0.8320
  886MOL0     H16947  10.381   4.582  11.127 -0.9229  0.6467 -0.3168
  886MOL0     H16948  10.478   4.759  11.285  1.4856 -1.6975 -1.5427
  886MOL0     H16949  10.425   4.885  11.157 -0.6313  0.2156 -1.8422
  886MOL0     H16950  10.075   4.778  11.379  1.6924 -0.5846  2.7853
  886MOL0     H16951  10.026   4.517  10.742  2.3092  1.4148  2.5388
  886MOL0     H16952   9.927   4.293  10.720 -0.4779 -2.2643  1.5675
  887MOL0     O16953   4.745   7.594   4.124  0.3522  1.1535 -1.6218
  887MOL0     C16954   4.723   7.707   4.164 -0.4960 -0.2227 -0.1745
  887MOL0     O16955   4.709   7.741   4.294  0.2100  0.1642  0.4097
  887MOL0     C16956   4.729   7.648   4.388 -0.6386  0.0525 -0.0063
  887MOL0     C16957   4.856   7.577   4.398  0.3024  0.6571  0.3223
  887MOL0     C16958   4.859   7.469   4.486  0.8544 -0.3115 -0.5368
  887MOL0     C16959   4.747   7.434   4.560 -0.0435  1.1066 -0.6163
  887MOL0     O16960   4.766   7.324   4.650 -0.0331  0.2167 -0.5534
  887MOL0     C16961   4.672   7.303   4.756  0.3342 -0.5311  0.4111
  887MOL0     C16962   4.706   7.228   4.889  0.1217  0.4071  0.1770
  887MOL0     C16963   4.734   7.076   4.859 -0.1319  0.3604 -0.0344
  887MOL0     C16964   4.768   6.987   4.978 -0.2777 -0.2904  0.2384
  887MOL0     C16965   4.808   6.847   4.942 -1.2461  0.4997  0.3519
  887MOL0     C16966   4.823   6.758   5.063 -0.2574 -1.1561 -1.9364
  887MOL0     C16967   4.962   6.790   5.135  0.3029  0.0757  0.8756
  887MOL0     C16968   5.005   6.677   5.227 -0.0903 -0.1229  0.0450
  887MOL0     N16969   5.065   6.572   5.151  0.2011  0.8137  0.1766
  887MOL0     C16970   4.992   6.458   5.120 -0.4976 -1.4709 -0.0394
  887MOL0     C16971   5.076   6.384   5.045 -0.8791 -0.3331  0.5957
  887MOL0     C16972   5.060   6.256   4.977 -0.1603 -0.1643 -0.1295
  887MOL0     C16973   4.931   6.237   4.895  0.2125  0.1551 -0.3113
  887MOL0     C16974   4.891   6.357   4.808  0.2575  0.4954  0.7468
  887MOL0     C16975   4.743   6.334   4.761  0.2239 -0.0705 -0.1001
  887MOL0     O16976   4.701   6.215   4.687 -0.7153 -0.7463 -0.3344
  887MOL0     C16977   4.735   6.195   4.549 -0.4918  0.7475 -0.7301
  887MOL0     C16978   4.827   6.271   4.483 -0.1046  0.1363  0.0080
  887MOL0     C16979   4.879   6.251   4.350 -0.5351  0.3644  0.1028
  887MOL0     C16980   4.831   6.129   4.282 -0.6572  0.3378  0.5434
  887MOL0     C16981   4.892   6.088   4.147  0.0981 -0.2678  0.1063
  887MOL0     O16982   5.014   6.129   4.115 -0.4475 -0.1095 -0.1793
  887MOL0     C16983   5.082   6.078   4.017 -0.6692 -0.6085 -0.4802
  887MOL0     C16984   5.163   6.158   3.936 -0.5424 -0.5595 -0.5162
  887MOL0     C16985   5.233   6.112   3.823 -0.6292 -0.3598 -0.6956
  887MOL0     C16986   5.226   5.972   3.790  0.0151 -0.1850 -1.0919
  887MOL0     O16987   5.294   5.916   3.692  0.1120  0.0768  0.4866
  887MOL0     C16988   5.243   5.973   3.564  0.4994  0.0439  0.8934
  887MOL0     C16989   5.186   5.853   3.484 -0.3196  0.4734  0.7522
  887MOL0     C16990   5.069   5.781   3.555  0.1330 -0.6592 -0.0287
  887MOL0     C16991   4.972   5.719   3.448  0.6086  0.7695  0.5303
  887MOL0     C16992   5.036   5.653   3.327 -0.5062 -0.2973  0.8383
  887MOL0     C16993   5.130   5.538   3.368  0.7149 -0.0982  0.2559
  887MOL0     C16994   5.055   5.413   3.416  0.0203 -0.2987  0.3251
  887MOL0     C16995   5.168   5.318   3.449  0.3715 -0.9036 -0.1217
  887MOL0    Cl16996   5.255   5.255   3.306  0.1582  0.1324 -0.0015
  887MOL0     C16997   5.157   5.892   3.881 -0.2572 -0.3340 -0.2114
  887MOL0     C16998   5.085   5.942   3.989 -0.4047 -0.0112 -0.5591
  887MOL0     O16999   4.818   6.015   4.078 -0.2344  0.7041 -0.0236
  887MOL0     C17000   4.742   6.045   4.357 -0.5811 -0.0174 -0.3125
  887MOL0     C17001   4.694   6.077   4.483 -0.3382  0.9055  0.6367
  887MOL0     N17002   5.198   6.448   5.042 -0.1530 -0.4295  0.1213
  887MOL0     N17003   5.186   6.568   5.095  0.5290  0.2756 -0.0271
  887MOL0     C17004   4.629   7.494   4.548  0.1399  0.5938  0.4466
  887MOL0     C17005   4.626   7.606   4.467 -0.3979 -0.1523  0.5832
  887MOL0     C17006   4.694   7.812   4.062  1.2898 -0.0375 -0.8070
  887MOL0     C17007   4.662   7.944   4.102 -0.9069  0.9592  0.5293
  887MOL0     C17008   4.638   8.043   3.996 -0.9004  0.2021 -0.5302
  887MOL0     C17009   4.621   8.007   3.854  0.5916 -0.7354 -0.3893
  887MOL0     O17010   4.592   8.112   3.767  0.6944 -0.2084  0.7644
  887MOL0     C17011   4.572   8.089   3.625  0.2482  0.3580  0.0554
  887MOL0     C17012   4.450   7.991   3.593  0.7286 -0.2852 -0.8381
  887MOL0     C17013   4.444   7.966   3.440 -0.2034  0.2029 -0.2855
  887MOL0     C17014   4.546   7.866   3.379 -0.1162 -0.3637  0.2719
  887MOL0     C17015   4.533   7.724   3.435 -0.1418 -0.1921 -0.3384
  887MOL0     C17016   4.544   7.605   3.460 -0.5097  0.4665  0.2877
  887MOL0     C17017   4.656   7.875   3.828  0.1945 -0.3967 -0.5098
  887MOL0     C17018   4.687   7.782   3.927 -0.0143  0.9492  0.5386
  887MOL0     H17019   4.952   7.600   4.353 -0.7778  1.6365 -1.5937
  887MOL0     H17020   4.953   7.418   4.500  0.6072  0.0373  4.0126
  887MOL0     H17021   4.588   7.248   4.711  1.3830  0.3543 -2.9465
  887MOL0     H17022   4.643   7.393   4.810 -0.0086  0.3188 -1.1501
  887MOL0     H17023   4.628   7.233   4.966  2.6286  1.5839  2.8181
  887MOL0     H17024   4.788   7.276   4.944  0.1112 -0.6713  1.1664
  887MOL0     H17025   4.807   7.079   4.777  0.9138  0.8750  0.8856
  887MOL0     H17026   4.647   7.027   4.813  0.7365 -0.1070 -1.2566
  887MOL0     H17027   4.846   7.040   5.033 -0.6988 -0.4985  1.0430
  887MOL0     H17028   4.682   6.978   5.045 -1.6307 -0.2564 -1.4296
  887MOL0     H17029   4.898   6.848   4.880  1.7707  3.2048  4.2594
  887MOL0     H17030   4.738   6.785   4.885  1.7244 -1.5289 -1.3032
  887MOL0     H17031   4.813   6.652   5.037 -1.4099 -0.6376 -3.7722
  887MOL0     H17032   4.748   6.784   5.139  1.2645  1.0490 -1.0800
  887MOL0     H17033   5.042   6.794   5.060 -0.1078  2.2385  0.4825
  887MOL0     H17034   4.959   6.879   5.198 -0.3013  0.7329 -0.0554
  887MOL0     H17035   4.921   6.644   5.288  0.6333 -0.2909  0.9844
  887MOL0     H17036   5.080   6.704   5.302 -1.2054 -3.3278  2.5099
  887MOL0     H17037   4.884   6.447   5.116 -0.3408 -2.8629 -2.3187
  887MOL0     H17038   5.060   6.178   5.053 -0.7061 -0.3666 -0.3395
  887MOL0     H17039   5.151   6.243   4.917 -0.6449  0.5626 -1.0566
  887MOL0     H17040   4.858   6.215   4.973  0.3231  3.3924  0.8517
  887MOL0     H17041   4.950   6.143   4.842 -0.5581 -1.2380  1.7547
  887MOL0     H17042   4.897   6.452   4.860 -2.9711 -0.8553  4.0419
  887MOL0     H17043   4.954   6.356   4.718 -1.0472 -0.2555 -0.2032
  887MOL0     H17044   4.699   6.421   4.712  0.8145  0.1833 -0.1955
  887MOL0     H17045   4.694   6.322   4.858  1.7202  1.9757  0.9902
  887MOL0     H17046   4.871   6.362   4.521  2.7392 -0.3538 -1.7770
  887MOL0     H17047   4.970   6.298   4.316  1.2734 -3.1395 -0.3705
  887MOL0     H17048   5.186   6.262   3.955  1.8486 -1.0620 -0.2748
  887MOL0     H17049   5.301   6.180   3.773 -1.6579  1.9205  0.8328
  887MOL0     H17050   5.331   6.004   3.506  1.0960 -0.8864  1.2870
  887MOL0     H17051   5.170   6.053   3.580 -0.2985 -0.7136  1.1541
  887MOL0     H17052   5.267   5.784   3.461 -0.7402  0.8651 -2.3154
  887MOL0     H17053   5.141   5.891   3.392 -2.6403 -2.2987  0.6454
  887MOL0     H17054   5.014   5.854   3.617  1.9423  1.8805 -1.2411
  887MOL0     H17055   5.093   5.688   3.606 -1.3926 -0.7990  0.5104
  887MOL0     H17056   4.896   5.661   3.502 -0.6576  1.2522 -0.6559
  887MOL0     H17057   4.912   5.796   3.399 -1.0851  0.3090  1.7894
  887MOL0     H17058   5.103   5.725   3.278  1.2240 -1.3733  1.5018
  887MOL0     H17059   4.971   5.614   3.248  1.5518  1.7389 -2.0496
  887MOL0     H17060   5.195   5.571   3.449  1.4770 -2.8420  0.8513
  887MOL0     H17061   5.191   5.508   3.283  3.8010 -1.6006  2.8071
  887MOL0     H17062   4.988   5.445   3.497  1.4191 -0.7034  1.6871
  887MOL0     H17063   4.992   5.371   3.337 -1.7976  1.0251  1.0029
  887MOL0     H17064   5.126   5.240   3.514 -1.4003  0.0789 -0.0332
  887MOL0     H17065   5.248   5.364   3.508  2.3959  1.1835 -4.1326
  887MOL0     H17066   5.163   5.784   3.869  0.1648 -0.4654  1.0320
  887MOL0     H17067   5.026   5.870   4.045 -1.7054 -0.2635 -2.1712
  887MOL0     H17068   4.705   5.953   4.313 -0.1709 -0.0251 -0.6490
  887MOL0     H17069   4.614   6.013   4.521  0.1248  0.3988  0.7747
  887MOL0     H17070   4.542   7.447   4.591 -1.0148  2.4958  0.2983
  887MOL0     H17071   4.527   7.645   4.447 -0.4796 -1.4090 -1.9065
  887MOL0     H17072   4.673   7.966   4.207 -1.3281 -1.1421  1.0429
  887MOL0     H17073   4.631   8.148   4.021 -2.4889  0.0037 -0.0429
  887MOL0     H17074   4.664   8.043   3.587  1.0234  1.3794  0.6498
  887MOL0     H17075   4.565   8.187   3.579 -2.2122 -0.0390 -0.5141
  887MOL0     H17076   4.451   7.898   3.650 -2.1212  0.2737  0.2908
  887MOL0     H17077   4.359   8.044   3.622  0.8340 -0.4373 -0.2194
  887MOL0     H17078   4.454   8.064   3.393 -0.2596  0.8261  0.9590
  887MOL0     H17079   4.343   7.927   3.423  0.2840 -1.6768  0.8122
  887MOL0     H17080   4.531   7.866   3.271 -1.1866  3.6468  0.2524
  887MOL0     H17081   4.651   7.894   3.393  0.0598  0.3421 -2.0140
  887MOL0     H17082   4.562   7.502   3.485 -3.6913  0.0755  1.3874
  887MOL0     H17083   4.659   7.848   3.723 -0.4593  1.7161 -1.1131
  887MOL0     H17084   4.708   7.683   3.888  1.7627  1.2606  0.6328
  888MOL0     O17085   5.569   2.265   8.271  0.6421  0.1006 -0.6989
  888MOL0     C17086   5.472   2.327   8.321  0.5321 -0.1925  0.1861
  888MOL0     O17087   5.368   2.271   8.391 -0.4448 -0.4134  0.4541
  888MOL0     C17088   5.377   2.148   8.432  0.0114  0.7856 -1.6850
  888MOL0     C17089   5.297   2.059   8.362 -0.3404  0.0550 -1.5899
  888MOL0     C17090   5.299   1.925   8.387 -0.7875  0.7336 -0.8116
  888MOL0     C17091   5.398   1.864   8.473  0.2140  0.0629 -0.0625
  888MOL0     O17092   5.406   1.715   8.475 -0.0353 -0.8911 -0.4929
  888MOL0     C17093   5.439   1.656   8.603  0.4183  0.0064 -1.5920
  888MOL0     C17094   5.332   1.679   8.721 -0.8948  0.9026  0.1692
  888MOL0     C17095   5.191   1.616   8.687  1.1070 -0.9161 -0.6522
  888MOL0     C17096   5.189   1.465   8.653  1.2832  0.2275 -0.2643
  888MOL0     C17097   5.138   1.386   8.780  0.4836  0.3043 -0.0775
  888MOL0     C17098   5.228   1.394   8.900  0.5524 -0.4637 -0.2503
  888MOL0     C17099   5.194   1.289   9.002 -0.3164 -0.2648  0.3897
  888MOL0     C17100   5.251   1.325   9.140  0.4961  0.5162 -1.3790
  888MOL0     N17101   5.390   1.375   9.141 -0.0644  1.3100  0.2969
  888MOL0     C17102   5.498   1.287   9.136  0.2129  1.1419 -0.4587
  888MOL0     C17103   5.601   1.360   9.172 -0.1233 -0.2568  0.1217
  888MOL0     C17104   5.739   1.302   9.186  0.3358 -0.6747 -0.9321
  888MOL0     C17105   5.823   1.376   9.281  0.1028  0.0159 -0.9220
  888MOL0     C17106   5.775   1.354   9.433  0.6520 -0.1986  0.7786
  888MOL0     C17107   5.733   1.496   9.479  0.3511 -0.7603 -1.2680
  888MOL0     O17108   5.803   1.547   9.584 -0.2046 -0.1512  0.4965
  888MOL0     C17109   5.754   1.643   9.667  0.3534  0.2450 -0.3236
  888MOL0     C17110   5.623   1.702   9.667  0.4037  0.0604 -0.2525
  888MOL0     C17111   5.592   1.803   9.762 -0.3105  0.6186 -0.0060
  888MOL0     C17112   5.686   1.849   9.855 -0.5623 -0.4160 -0.2993
  888MOL0     C17113   5.655   1.940   9.970  0.1573  0.0166  0.5489
  888MOL0     O17114   5.518   1.956   9.997  0.7280 -0.5732  0.4227
  888MOL0     C17115   5.463   2.006  10.109 -0.1369 -0.0365 -0.4504
  888MOL0     C17116   5.341   2.075  10.100 -0.5903  0.4059  0.3437
  888MOL0     C17117   5.275   2.129  10.212  1.1243  0.7450  0.1936
  888MOL0     C17118   5.334   2.122  10.338 -0.9740  0.5570  0.1561
  888MOL0     O17119   5.288   2.174  10.455  0.2788 -0.0062 -0.5741
  888MOL0     C17120   5.149   2.197  10.458  0.1895  0.7313 -0.0610
  888MOL0     C17121   5.119   2.218  10.604  1.1005  0.1860  0.5127
  888MOL0     C17122   4.972   2.205  10.636  0.4574  0.0284 -0.2737
  888MOL0     C17123   4.878   2.319  10.582  0.2802 -0.3571  0.2059
  888MOL0     C17124   4.746   2.313  10.657 -0.2985 -0.0754 -0.5720
  888MOL0     C17125   4.653   2.204  10.627  0.4558  0.3056 -1.2034
  888MOL0     C17126   4.631   2.159  10.483  0.1314  0.0826  0.5712
  888MOL0     C17127   4.523   2.055  10.451  0.7385  0.1196  0.0468
  888MOL0    Cl17128   4.465   2.099  10.280  0.2566  0.3923 -0.2579
  888MOL0     C17129   5.450   2.042  10.353 -0.5950 -1.2880 -1.2753
  888MOL0     C17130   5.510   1.987  10.238 -0.6583 -0.0736  0.2078
  888MOL0     O17131   5.750   1.991  10.031 -0.6999 -0.8569 -0.1210
  888MOL0     C17132   5.817   1.802   9.844  0.3236 -0.7349  0.9271
  888MOL0     C17133   5.843   1.701   9.756 -0.3577 -0.0068  0.4456
  888MOL0     N17134   5.562   1.490   9.177  0.6688 -0.4365 -0.1386
  888MOL0     N17135   5.431   1.495   9.159 -0.0619  0.8193 -0.2125
  888MOL0     C17136   5.471   1.960   8.550  0.3577  0.0278  0.2425
  888MOL0     C17137   5.458   2.099   8.535 -0.6550  0.1778  0.3962
  888MOL0     C17138   5.471   2.473   8.292 -0.9665  0.5420  0.0736
  888MOL0     C17139   5.559   2.540   8.203 -0.6613  1.4791  0.4972
  888MOL0     C17140   5.564   2.672   8.193  0.9679  0.5510 -0.5357
  888MOL0     C17141   5.465   2.751   8.249  0.8898  0.2336 -0.3577
  888MOL0     O17142   5.459   2.882   8.224 -0.7351 -0.0357  0.5963
  888MOL0     C17143   5.544   2.970   8.311 -0.0531  0.4588 -0.7276
  888MOL0     C17144   5.595   3.096   8.245  0.2097  0.7762  0.0674
  888MOL0     C17145   5.626   3.065   8.094  0.7814  0.1314 -0.1924
  888MOL0     C17146   5.706   3.182   8.036 -0.0363 -0.2149 -0.1391
  888MOL0     C17147   5.605   3.293   8.002 -1.1508  0.9608  0.2117
  888MOL0     C17148   5.541   3.387   7.965  0.7416 -1.0468  0.1176
  888MOL0     C17149   5.361   2.692   8.329 -0.5233 -0.1745 -0.2081
  888MOL0     C17150   5.372   2.557   8.352 -0.1527  0.3827  0.3294
  888MOL0     H17151   5.231   2.099   8.285 -0.7547  2.3015 -0.1552
  888MOL0     H17152   5.247   1.854   8.323  0.8594  0.4360 -1.9071
  888MOL0     H17153   5.524   1.719   8.632  0.4679  0.4273 -2.6114
  888MOL0     H17154   5.473   1.552   8.608 -0.8614 -0.3615  1.4577
  888MOL0     H17155   5.314   1.782   8.752  1.2472  0.9607  1.3730
  888MOL0     H17156   5.371   1.638   8.815 -2.2417 -0.1075  0.3175
  888MOL0     H17157   5.141   1.679   8.612 -0.5516 -1.3174  0.0735
  888MOL0     H17158   5.136   1.636   8.780 -0.6066 -1.7100 -1.4620
  888MOL0     H17159   5.118   1.440   8.573  1.8567  3.6952 -2.0531
  888MOL0     H17160   5.292   1.438   8.624  0.4361 -2.5741 -0.9575
  888MOL0     H17161   5.128   1.278   8.764 -3.5003  0.0657  2.4774
  888MOL0     H17162   5.032   1.410   8.797  0.3537 -0.4154  0.2142
  888MOL0     H17163   5.219   1.495   8.941  2.2466 -0.5167  0.3211
  888MOL0     H17164   5.329   1.368   8.867  0.0136 -4.4623  0.7350
  888MOL0     H17165   5.088   1.265   9.015 -0.3435 -1.0438 -1.0794
  888MOL0     H17166   5.236   1.193   8.970  0.1047 -0.2386  0.8485
  888MOL0     H17167   5.243   1.242   9.210  0.1129  2.5253  1.0775
  888MOL0     H17168   5.193   1.413   9.168 -1.9044 -0.6687 -2.3869
  888MOL0     H17169   5.482   1.180   9.135 -1.9800  1.1353  4.6855
  888MOL0     H17170   5.791   1.305   9.089  2.3306 -0.2577  0.1054
  888MOL0     H17171   5.735   1.202   9.227 -1.0210 -0.5707 -0.7713
  888MOL0     H17172   5.835   1.480   9.250  1.6739  0.0513 -0.3323
  888MOL0     H17173   5.926   1.338   9.289 -0.7038 -1.8575  2.5415
  888MOL0     H17174   5.688   1.289   9.450  0.3460  0.5335  2.1710
  888MOL0     H17175   5.856   1.307   9.490  0.6927 -0.1253  0.7806
  888MOL0     H17176   5.625   1.491   9.494  0.3441  0.4709 -0.8477
  888MOL0     H17177   5.734   1.568   9.398 -1.9941 -0.9657 -1.5470
  888MOL0     H17178   5.548   1.672   9.595  0.7651  1.0534 -1.0658
  888MOL0     H17179   5.490   1.840   9.759 -0.4172  0.2721 -2.5510
  888MOL0     H17180   5.288   2.080  10.005 -0.7803 -1.6215  0.2878
  888MOL0     H17181   5.186   2.186  10.187  2.6689  2.8288 -0.9016
  888MOL0     H17182   5.086   2.116  10.420  1.3414  0.0549 -0.5915
  888MOL0     H17183   5.134   2.296  10.414 -0.2301  0.1527 -1.2707
  888MOL0     H17184   5.147   2.317  10.641  0.7529 -0.2418  1.9887
  888MOL0     H17185   5.170   2.136  10.656  0.9879  0.7485  1.5455
  888MOL0     H17186   4.962   2.211  10.745  0.6889  0.7667 -0.2866
  888MOL0     H17187   4.933   2.104  10.619 -3.4821  1.1696  0.8189
  888MOL0     H17188   4.926   2.412  10.613 -0.1328  0.0684 -0.4112
  888MOL0     H17189   4.856   2.325  10.475  1.3138  1.2412  0.0507
  888MOL0     H17190   4.700   2.408  10.626  2.5576  1.7255  0.2644
  888MOL0     H17191   4.758   2.330  10.764  0.5716 -0.5457 -0.5850
  888MOL0     H17192   4.552   2.217  10.666  0.9559  1.3965 -0.2358
  888MOL0     H17193   4.695   2.119  10.682 -1.7318  0.6359  1.1820
  888MOL0     H17194   4.621   2.251  10.425  0.9724 -0.3916 -0.3547
  888MOL0     H17195   4.727   2.131  10.439 -0.1221  0.2381 -0.0908
  888MOL0     H17196   4.429   2.056  10.508  0.5239 -4.0583  0.1232
  888MOL0     H17197   4.572   1.957  10.446  2.5886  0.8785  1.8245
  888MOL0     H17198   5.496   2.037  10.451 -2.9073 -0.1014 -0.0536
  888MOL0     H17199   5.601   1.930  10.251 -1.8729 -1.8488  1.3259
  888MOL0     H17200   5.883   1.817   9.929  0.8445 -1.2392  0.6244
  888MOL0     H17201   5.936   1.646   9.767 -0.3059  0.2721  1.5597
  888MOL0     H17202   5.529   1.936   8.639 -1.4624 -0.1217  1.4394
  888MOL0     H17203   5.500   2.176   8.599 -1.2558  1.9474 -1.2202
  888MOL0     H17204   5.628   2.481   8.144 -3.2636 -0.8336 -0.4588
  888MOL0     H17205   5.633   2.729   8.131 -1.3197  1.1315 -2.7138
  888MOL0     H17206   5.634   2.914   8.338 -0.0136  1.2485  0.8779
  888MOL0     H17207   5.481   2.996   8.397 -2.7005 -1.5599 -1.9073
  888MOL0     H17208   5.528   3.181   8.259 -0.2508  0.1002  2.3733
  888MOL0     H17209   5.689   3.130   8.290  1.2896 -0.7155 -0.9517
  888MOL0     H17210   5.527   3.043   8.053 -0.0198 -0.1893  1.8242
  888MOL0     H17211   5.691   2.980   8.074  0.1310 -0.1063 -1.4275
  888MOL0     H17212   5.788   3.220   8.097 -1.0011  1.4984  0.1505
  888MOL0     H17213   5.750   3.148   7.942  1.1892  1.2322 -0.1205
  888MOL0     H17214   5.507   3.479   7.921 -0.8370 -1.4037  0.5359
  888MOL0     H17215   5.290   2.761   8.373  0.8242  1.7003 -0.8286
  888MOL0     H17216   5.301   2.510   8.420  2.4064 -1.1343  2.1683
  889MOL0     O17217  10.825   9.035   8.137  0.0188 -0.0870 -0.9068
  889MOL0     C17218  10.761   9.112   8.060 -0.8031 -0.1629 -0.8215
  889MOL0     O17219  10.816   9.216   7.981 -0.1940  0.4200  0.4016
  889MOL0     C17220  10.954   9.213   7.972 -0.1600  0.5002 -1.3433
  889MOL0     C17221  11.015   9.097   7.921 -0.7773  0.3663 -0.6497
  889MOL0     C17222  11.155   9.101   7.908 -0.0224  0.0043  0.3643
  889MOL0     C17223  11.238   9.196   7.958 -0.6770  0.1109  0.2724
  889MOL0     O17224  11.369   9.183   7.925 -1.2560 -0.1093  0.0562
  889MOL0     C17225  11.461   9.268   7.991 -0.5009 -0.1596 -0.3572
  889MOL0     C17226  11.497   9.365   7.888 -0.5140  0.2618  0.3630
  889MOL0     C17227  11.548   9.494   7.940 -0.0944  0.2513  0.2831
  889MOL0     C17228  11.514   9.539   8.082  0.9172  0.3252 -0.7202
  889MOL0     C17229  11.579   9.671   8.122 -0.4937 -0.6864  0.1479
  889MOL0     C17230  11.730   9.677   8.121 -0.1143 -0.1138  0.4193
  889MOL0     C17231  11.784   9.822   8.137 -0.0125  0.6366  0.0388
  889MOL0     C17232  11.790   9.877   8.281  0.0050  0.2226 -0.4041
  889MOL0     N17233  11.866   9.786   8.376 -0.7350  1.1376  0.2128
  889MOL0     C17234  11.824   9.690   8.470  0.2954 -0.3537 -0.2897
  889MOL0     C17235  11.946   9.663   8.542  1.0214 -0.1064 -0.6804
  889MOL0     C17236  11.965   9.562   8.654 -0.2272 -0.3390 -0.3098
  889MOL0     C17237  11.906   9.423   8.636  0.4624  0.1925 -0.3915
  889MOL0     C17238  11.780   9.381   8.732 -0.6558  0.0744  0.4205
  889MOL0     C17239  11.640   9.447   8.707 -1.1560 -0.8533 -0.4903
  889MOL0     O17240  11.654   9.581   8.726 -0.2493 -0.7227 -0.4973
  889MOL0     C17241  11.638   9.635   8.855  0.0826 -0.3086  0.0971
  889MOL0     C17242  11.633   9.772   8.865 -0.2964  0.4357 -0.2659
  889MOL0     C17243  11.608   9.821   8.995  0.0477 -0.0975  0.1664
  889MOL0     C17244  11.585   9.743   9.110 -1.0873 -0.7204 -0.1114
  889MOL0     C17245  11.537   9.800   9.247 -0.5153 -0.2899  1.0521
  889MOL0     O17246  11.483   9.708   9.339  0.3635  1.0060  0.4597
  889MOL0     C17247  11.410   9.762   9.442  0.0832 -0.5178  0.3770
  889MOL0     C17248  11.267   9.749   9.437 -0.9008  0.2685 -0.3478
  889MOL0     C17249  11.180   9.821   9.531  0.5539 -0.1600  0.3376
  889MOL0     C17250  11.246   9.892   9.631  1.0716 -0.3296 -0.0853
  889MOL0     O17251  11.171   9.961   9.722 -0.0272 -0.0921 -0.3997
  889MOL0     C17252  11.120   9.881   9.829 -0.3849  0.0811  0.3520
  889MOL0     C17253  11.057   9.980   9.928 -0.7146 -0.4872  0.2698
  889MOL0     C17254  10.993   9.893  10.037 -0.4934 -0.2930  0.8729
  889MOL0     C17255  10.924   9.979  10.144 -0.9862 -0.0040 -0.0855
  889MOL0     C17256  10.786  10.030  10.095 -0.2350  0.6777 -0.2306
  889MOL0     C17257  10.740  10.143  10.195 -0.8330  0.6978  0.2983
  889MOL0     C17258  10.595  10.184  10.142 -1.3276  0.0125 -0.8609
  889MOL0     C17259  10.598  10.329  10.106  0.1020 -0.4253 -0.4726
  889MOL0    Cl17260  10.532  10.365   9.934  0.2667 -0.5204 -0.1546
  889MOL0     C17261  11.380   9.897   9.638  0.5230  0.1756 -0.0979
  889MOL0     C17262  11.462   9.825   9.549 -0.2963  0.6279 -0.6526
  889MOL0     O17263  11.530   9.922   9.249  0.7132  0.2942  0.2081
  889MOL0     C17264  11.594   9.605   9.098  0.4408  0.1450 -0.3912
  889MOL0     C17265  11.620   9.550   8.972  0.8054  0.0405  0.4289
  889MOL0     N17266  12.044   9.746   8.497  0.0546  0.3777 -0.4989
  889MOL0     N17267  11.996   9.804   8.394 -0.1512  0.2054 -1.4271
  889MOL0     C17268  11.171   9.313   8.013 -0.5283 -0.8132 -0.6447
  889MOL0     C17269  11.031   9.323   8.015  0.0795  0.0297  0.1960
  889MOL0     C17270  10.616   9.087   8.036 -0.8433  0.0828  0.7987
  889MOL0     C17271  10.554   9.158   7.923  0.6104 -0.0093  0.0266
  889MOL0     C17272  10.423   9.151   7.898  0.3452  0.0411  0.2280
  889MOL0     C17273  10.339   9.074   7.970  0.2993  0.4057  1.1362
  889MOL0     O17274  10.208   9.053   7.929  0.6959  0.6461  0.2419
  889MOL0     C17275  10.206   8.948   7.830 -0.1334 -0.0595  0.2449
  889MOL0     C17276  10.214   8.807   7.877 -0.1381 -1.3918 -1.3184
  889MOL0     C17277  10.149   8.709   7.790 -1.1236 -0.1009 -0.1880
  889MOL0     C17278  10.004   8.700   7.766 -0.7021 -0.2531  1.2841
  889MOL0     C17279   9.917   8.766   7.863  0.5100 -0.6674  0.2796
  889MOL0     C17280   9.856   8.842   7.941 -0.5312 -0.2349 -0.8492
  889MOL0     C17281  10.392   8.995   8.079 -0.0586 -0.1293 -0.8195
  889MOL0     C17282  10.530   8.995   8.108  0.3774 -0.4468 -0.7279
  889MOL0     H17283  10.950   9.018   7.886 -0.1275 -0.3074 -0.3497
  889MOL0     H17284  11.193   9.011   7.862 -3.8837 -1.0847 -1.0775
  889MOL0     H17285  11.544   9.214   8.037 -1.6290  1.0484  3.4559
  889MOL0     H17286  11.410   9.308   8.080 -0.8736 -0.2308 -0.5354
  889MOL0     H17287  11.408   9.390   7.829 -2.8688 -1.6188  2.8166
  889MOL0     H17288  11.572   9.318   7.824  1.5852  1.4604  1.8372
  889MOL0     H17289  11.498   9.571   7.879  0.6627  1.1950  0.8186
  889MOL0     H17290  11.653   9.498   7.909  0.0312 -3.9357 -0.3227
  889MOL0     H17291  11.406   9.558   8.079  0.7741 -0.5506 -1.9559
  889MOL0     H17292  11.538   9.474   8.167 -1.2267  0.8742  0.3673
  889MOL0     H17293  11.546   9.699   8.223 -3.9936 -0.5717 -0.8848
  889MOL0     H17294  11.536   9.743   8.052 -1.5266 -3.6606 -2.4846
  889MOL0     H17295  11.772   9.645   8.025 -0.8050 -1.0440  0.4142
  889MOL0     H17296  11.760   9.603   8.196  0.5404  1.6496  1.9586
  889MOL0     H17297  11.889   9.815   8.110 -0.0294  0.3180  0.0544
  889MOL0     H17298  11.730   9.891   8.072  0.6933  2.1012  0.9623
  889MOL0     H17299  11.692   9.911   8.315  1.5289  0.9091  3.9143
  889MOL0     H17300  11.847   9.970   8.266  1.6877 -1.0732 -2.8129
  889MOL0     H17301  11.726   9.648   8.486 -0.7527  1.1730 -2.2562
  889MOL0     H17302  11.938   9.610   8.748 -0.6841 -2.8320  0.9062
  889MOL0     H17303  12.072   9.541   8.655  0.2682  1.8108 -1.7288
  889MOL0     H17304  11.987   9.350   8.647  1.3931  1.4380  1.6497
  889MOL0     H17305  11.879   9.411   8.531 -0.5337 -2.1178  0.0689
  889MOL0     H17306  11.761   9.277   8.705  1.4164 -0.0771 -0.6036
  889MOL0     H17307  11.806   9.387   8.838  2.0601  3.1654 -0.2526
  889MOL0     H17308  11.557   9.392   8.753 -0.8138 -1.6516 -0.8006
  889MOL0     H17309  11.623   9.443   8.599  1.7647  1.6960 -1.1748
  889MOL0     H17310  11.636   9.830   8.774 -2.9511  2.2267  0.6590
  889MOL0     H17311  11.571   9.923   9.000 -2.0565 -0.7898 -0.5692
  889MOL0     H17312  11.207   9.694   9.364  1.8792  0.0739 -2.6629
  889MOL0     H17313  11.072   9.813   9.523  0.7825 -2.1744 -2.1898
  889MOL0     H17314  11.204   9.824   9.870 -0.7248 -1.3752 -0.8484
  889MOL0     H17315  11.047   9.814   9.783  0.0466  0.3524 -0.7884
  889MOL0     H17316  10.976  10.033   9.877  1.0980  1.2975 -0.9320
  889MOL0     H17317  11.140  10.045   9.959  0.0802 -2.0010  1.4295
  889MOL0     H17318  11.082   9.843  10.078  0.6130  0.9120  0.0116
  889MOL0     H17319  10.934   9.809   9.998 -2.2552  1.1964  0.1973
  889MOL0     H17320  10.910   9.919  10.234 -0.8543 -2.3831 -1.5693
  889MOL0     H17321  10.989  10.060  10.178 -1.3707 -0.8312  2.8699
  889MOL0     H17322  10.709   9.953  10.102 -1.2929  1.8094  1.0780
  889MOL0     H17323  10.791  10.081   9.998 -1.4723  3.4815  1.0608
  889MOL0     H17324  10.818  10.219  10.198  0.9857 -0.8977 -2.5688
  889MOL0     H17325  10.729  10.102  10.296  0.5812  1.0277  0.6088
  889MOL0     H17326  10.571  10.129  10.051  4.0568 -1.2586 -1.8885
  889MOL0     H17327  10.523  10.175  10.224 -0.7186  0.0282 -0.3091
  889MOL0     H17328  10.701  10.362  10.094 -0.2435  0.7361 -0.3260
  889MOL0     H17329  10.561  10.397  10.184  2.9619  1.8552 -0.9668
  889MOL0     H17330  11.430   9.949   9.719  4.4025 -1.9789 -0.8270
  889MOL0     H17331  11.570   9.832   9.557  0.2389 -2.9006 -2.7335
  889MOL0     H17332  11.560   9.538   9.176 -2.8114  0.6111 -1.2668
  889MOL0     H17333  11.611   9.441   8.976  1.3459 -0.1653 -2.0920
  889MOL0     H17334  11.220   9.398   8.060  0.0563  0.5327 -3.4710
  889MOL0     H17335  10.979   9.413   8.048  0.5031 -0.4966  2.4778
  889MOL0     H17336  10.617   9.228   7.868 -0.3121 -0.5800 -1.8432
  889MOL0     H17337  10.387   9.199   7.808 -2.7407 -1.9662  0.2270
  889MOL0     H17338  10.279   8.958   7.749 -1.0097 -0.3007 -0.6017
  889MOL0     H17339  10.120   8.982   7.771  1.5779  0.4001 -2.1017
  889MOL0     H17340  10.314   8.768   7.896 -1.0162 -3.3807 -0.3999
  889MOL0     H17341  10.152   8.820   7.966 -2.0586  5.2905 -3.0433
  889MOL0     H17342  10.176   8.621   7.851 -0.2972 -0.9559 -1.7347
  889MOL0     H17343  10.205   8.686   7.699 -1.3199 -0.5280 -0.2087
  889MOL0     H17344   9.985   8.739   7.666  1.2568 -1.8361  0.2173
  889MOL0     H17345   9.978   8.593   7.765  0.3620 -0.5460 -1.4410
  889MOL0     H17346   9.821   8.921   8.004  2.6520  2.1956 -1.8393
  889MOL0     H17347  10.324   8.928   8.131  1.3019 -0.1777  0.9835
  889MOL0     H17348  10.577   8.930   8.182 -2.2742 -0.6674  0.8617
  890MOL0     O17349   8.174   6.098   5.510 -0.1388  0.0103 -0.2484
  890MOL0     C17350   8.231   6.202   5.496  1.0410 -0.3631 -0.1830
  890MOL0     O17351   8.166   6.329   5.487 -0.0911  0.4655  0.1212
  890MOL0     C17352   8.032   6.352   5.498 -0.6254  0.4293  0.0970
  890MOL0     C17353   7.973   6.446   5.420 -0.8386  0.3148  0.3647
  890MOL0     C17354   7.842   6.446   5.423  0.7324 -0.2875 -0.6878
  890MOL0     C17355   7.754   6.399   5.517  0.6925  0.2569 -0.3377
  890MOL0     O17356   7.629   6.451   5.517 -0.1143 -0.6255  0.1869
  890MOL0     C17357   7.531   6.409   5.622 -0.8933 -0.0290 -0.2608
  890MOL0     C17358   7.390   6.447   5.598 -0.1380 -0.9042 -0.0252
  890MOL0     C17359   7.331   6.352   5.487 -0.2044 -0.2566 -0.0092
  890MOL0     C17360   7.186   6.391   5.442  0.4242  0.4452  0.5486
  890MOL0     C17361   7.095   6.300   5.533  0.2152  0.2194 -0.7282
  890MOL0     C17362   6.954   6.252   5.490  0.0425 -0.1891 -0.4861
  890MOL0     C17363   6.956   6.218   5.347 -1.0421  0.0525  0.7142
  890MOL0     C17364   6.833   6.142   5.310  0.4822  0.0708  0.1794
  890MOL0     N17365   6.841   6.090   5.179 -0.1950 -0.0049  0.8383
  890MOL0     C17366   6.805   6.156   5.068 -1.1607  0.2731  0.4395
  890MOL0     C17367   6.782   6.065   4.972  0.3960  0.1383 -0.5331
  890MOL0     C17368   6.795   6.076   4.828  0.2775  0.1245  0.7385
  890MOL0     C17369   6.674   6.024   4.747 -0.5696  0.5557 -0.4029
  890MOL0     C17370   6.542   6.065   4.812 -0.8296 -0.6719 -0.5666
  890MOL0     C17371   6.426   6.022   4.727  0.2562 -0.1695  0.7676
  890MOL0     O17372   6.394   5.884   4.714  0.0112 -0.2486 -0.5507
  890MOL0     C17373   6.353   5.825   4.827 -0.0290 -0.6287 -0.6088
  890MOL0     C17374   6.314   5.891   4.950 -0.1565 -0.1289  0.1473
  890MOL0     C17375   6.263   5.826   5.053 -0.4161 -0.7152  0.5524
  890MOL0     C17376   6.231   5.690   5.045 -0.1439  0.6839 -0.0091
  890MOL0     C17377   6.146   5.633   5.158 -0.4365 -0.5081  0.1070
  890MOL0     O17378   6.140   5.712   5.266  0.4868 -0.3241  0.0059
  890MOL0     C17379   6.059   5.684   5.371  0.1704  0.4051  1.1153
  890MOL0     C17380   5.927   5.663   5.344  0.3254 -0.2911 -0.4797
  890MOL0     C17381   5.836   5.635   5.448  0.3856 -0.4209  0.6994
  890MOL0     C17382   5.879   5.643   5.583  0.6058 -0.4336 -0.5146
  890MOL0     O17383   5.772   5.626   5.676 -0.4139  0.4988  0.1000
  890MOL0     C17384   5.798   5.571   5.807 -0.0175  1.1851  0.2915
  890MOL0     C17385   5.705   5.445   5.822  0.1556  0.6512  0.3139
  890MOL0     C17386   5.557   5.476   5.812  0.3765 -0.1157  0.0231
  890MOL0     C17387   5.488   5.408   5.926 -0.0915  0.0782  0.2187
  890MOL0     C17388   5.346   5.466   5.925 -0.1691 -0.2701  0.3924
  890MOL0     C17389   5.253   5.408   6.034 -0.1599  0.0871  1.1471
  890MOL0     C17390   5.203   5.266   6.015  0.2694  0.5459  0.0030
  890MOL0     C17391   5.065   5.241   6.074 -0.1600  1.1229 -0.3323
  890MOL0    Cl17392   4.951   5.378   6.057  0.3389 -0.3152 -0.1169
  890MOL0     C17393   6.011   5.672   5.616  0.2423 -1.0272  0.3023
  890MOL0     C17394   6.102   5.685   5.507  0.1392 -1.2018 -1.2094
  890MOL0     O17395   6.103   5.519   5.144  0.4476 -0.0836 -0.1095
  890MOL0     C17396   6.268   5.615   4.932  0.0748 -0.0823  0.3350
  890MOL0     C17397   6.326   5.690   4.823 -0.3838  0.0444  0.3991
  890MOL0     N17398   6.817   5.937   5.029  1.0707 -0.4705 -1.0327
  890MOL0     N17399   6.853   5.958   5.150  0.1273 -0.3370  0.5135
  890MOL0     C17400   7.812   6.309   5.610  0.5402 -0.8554  0.0131
  890MOL0     C17401   7.953   6.282   5.593 -0.1334 -0.7765 -0.3195
  890MOL0     C17402   8.370   6.205   5.464  0.0300 -0.0760 -0.3656
  890MOL0     C17403   8.434   6.096   5.404 -1.4771  0.0963  0.0912
  890MOL0     C17404   8.565   6.106   5.346 -0.4444  0.3446 -0.4866
  890MOL0     C17405   8.634   6.227   5.366 -0.3356  0.5107  0.8607
  890MOL0     O17406   8.759   6.248   5.303  0.3809  0.2030  0.8833
  890MOL0     C17407   8.805   6.160   5.199  0.7544 -0.2876  1.2355
  890MOL0     C17408   8.940   6.201   5.157 -0.1272  0.2167  0.3345
  890MOL0     C17409   8.952   6.342   5.102  0.3421  0.0090  0.5226
  890MOL0     C17410   8.991   6.438   5.214  1.3011 -0.7884  0.2043
  890MOL0     C17411   9.010   6.578   5.179  0.4419 -0.1929  0.3069
  890MOL0     C17412   9.050   6.695   5.180 -0.2925  0.4208 -0.3672
  890MOL0     C17413   8.577   6.322   5.453 -0.1183 -0.6268 -0.8923
  890MOL0     C17414   8.448   6.316   5.498 -0.8318 -1.0318 -1.3609
  890MOL0     H17415   8.036   6.509   5.358 -4.3880  2.1777 -1.6866
  890MOL0     H17416   7.794   6.511   5.350 -1.8707 -2.6318 -1.2355
  890MOL0     H17417   7.562   6.449   5.719  4.3092 -1.4883 -1.0215
  890MOL0     H17418   7.536   6.301   5.637 -1.0829  0.4339  4.4327
  890MOL0     H17419   7.393   6.547   5.553 -1.7678 -1.8727 -2.5155
  890MOL0     H17420   7.325   6.442   5.685  2.3826 -4.3572  1.8664
  890MOL0     H17421   7.339   6.246   5.515 -4.2788 -1.1501 -1.5071
  890MOL0     H17422   7.403   6.352   5.405  1.1616 -3.4033  1.0164
  890MOL0     H17423   7.165   6.497   5.456 -1.0652  0.4910 -1.5125
  890MOL0     H17424   7.162   6.368   5.337 -0.1688 -0.8780  0.9530
  890MOL0     H17425   7.080   6.351   5.628 -0.2431  0.0659 -0.7133
  890MOL0     H17426   7.148   6.205   5.545  1.8334  1.0510 -1.0362
  890MOL0     H17427   6.890   6.340   5.499  3.5735  2.5039  1.1428
  890MOL0     H17428   6.915   6.170   5.551  0.7976 -0.7413 -0.7255
  890MOL0     H17429   6.982   6.304   5.284 -2.2479 -0.3269 -0.3518
  890MOL0     H17430   7.038   6.149   5.326 -1.0856 -0.1702  1.2507
  890MOL0     H17431   6.748   6.210   5.312 -0.8609 -1.5724  1.0404
  890MOL0     H17432   6.820   6.063   5.384 -1.4052 -0.1042 -0.2951
  890MOL0     H17433   6.812   6.260   5.037 -3.8862  0.0337 -1.3358
  890MOL0     H17434   6.893   6.032   4.805  0.3306 -0.4245  1.9217
  890MOL0     H17435   6.801   6.182   4.801 -2.9492  0.5187  1.2148
  890MOL0     H17436   6.676   5.915   4.748  0.6521  0.5463 -1.6537
  890MOL0     H17437   6.676   6.066   4.646  1.5996 -1.7112 -1.4006
  890MOL0     H17438   6.530   6.017   4.909  3.8753 -2.7672 -0.7300
  890MOL0     H17439   6.530   6.174   4.808  1.6493 -0.3755 -3.2270
  890MOL0     H17440   6.441   6.065   4.628 -1.5160 -0.9438  0.1154
  890MOL0     H17441   6.340   6.074   4.770 -1.2247 -2.1428  0.3168
  890MOL0     H17442   6.338   5.995   4.968  4.4097 -0.9139 -0.3836
  890MOL0     H17443   6.241   5.875   5.148 -2.3482  0.2245 -0.3296
  890MOL0     H17444   5.884   5.664   5.245 -4.4577  0.2204  1.3253
  890MOL0     H17445   5.733   5.610   5.423  0.2922 -0.1369  0.7982
  890MOL0     H17446   5.773   5.648   5.879  0.0328  0.1548  1.4473
  890MOL0     H17447   5.904   5.544   5.816  0.1741  1.1563 -1.6205
  890MOL0     H17448   5.737   5.408   5.920  2.3380 -0.9078 -0.8832
  890MOL0     H17449   5.732   5.377   5.740 -2.1716  2.9051 -2.5604
  890MOL0     H17450   5.523   5.439   5.715 -0.4040 -1.1261  0.6562
  890MOL0     H17451   5.551   5.584   5.825 -1.3821 -0.4650  3.0735
  890MOL0     H17452   5.491   5.300   5.905 -3.0244 -0.5615  2.4556
  890MOL0     H17453   5.536   5.427   6.022  0.7640  2.1990 -0.5736
  890MOL0     H17454   5.296   5.456   5.828 -3.4887  2.6129  1.6119
  890MOL0     H17455   5.366   5.572   5.941  1.3325 -0.3431 -0.7055
  890MOL0     H17456   5.170   5.478   6.034  1.1052  1.7294 -1.6201
  890MOL0     H17457   5.308   5.421   6.128  2.9712 -0.4124 -0.4611
  890MOL0     H17458   5.205   5.238   5.909  3.6049  0.9116 -0.1309
  890MOL0     H17459   5.267   5.193   6.065  0.0329  0.5920  0.3798
  890MOL0     H17460   5.071   5.209   6.178  3.8211 -0.8237 -0.9945
  890MOL0     H17461   5.019   5.161   6.015 -1.6040  0.3502  1.7098
  890MOL0     H17462   6.042   5.686   5.719 -2.8493 -2.3208  1.5319
  890MOL0     H17463   6.205   5.694   5.541 -0.6147 -1.5866  1.4243
  890MOL0     H17464   6.249   5.508   4.921 -1.7807  0.1809  0.6809
  890MOL0     H17465   6.366   5.639   4.736  0.0687 -0.9467  1.1611
  890MOL0     H17466   7.755   6.274   5.695 -0.5105  0.8864  0.0724
  890MOL0     H17467   7.998   6.214   5.664 -2.0251 -0.6600  1.0599
  890MOL0     H17468   8.387   6.003   5.373  1.5058 -2.1371  1.6974
  890MOL0     H17469   8.604   6.031   5.278  2.4763  2.1053 -0.9103
  890MOL0     H17470   8.736   6.161   5.114  1.6671 -1.5289  0.4415
  890MOL0     H17471   8.803   6.052   5.220  1.4099 -1.1130 -2.3109
  890MOL0     H17472   9.005   6.175   5.241 -1.9750  0.4096  1.8640
  890MOL0     H17473   8.980   6.140   5.075 -3.1792  0.2556 -1.3402
  890MOL0     H17474   8.862   6.377   5.051  1.3262  0.3105 -1.0917
  890MOL0     H17475   9.033   6.338   5.028  0.5159  0.5779  0.6760
  890MOL0     H17476   8.911   6.437   5.289 -0.3176  0.5754 -1.4316
  890MOL0     H17477   9.081   6.406   5.268  2.1056  2.6112  1.1803
  890MOL0     H17478   9.078   6.799   5.176  1.8537 -0.1409 -1.5148
  890MOL0     H17479   8.637   6.409   5.479  1.0232 -1.2077 -1.5008
  890MOL0     H17480   8.409   6.400   5.555  1.6270 -1.4431  1.1120
  891MOL0     O17481   2.704   8.584   9.122  0.3747 -0.7033 -0.7135
  891MOL0     C17482   2.787   8.560   9.206  1.0298  0.1997 -0.6902
  891MOL0     O17483   2.772   8.582   9.341 -0.2474 -0.5034  0.0399
  891MOL0     C17484   2.683   8.669   9.403 -0.8196 -0.9543  0.5483
  891MOL0     C17485   2.584   8.742   9.340 -0.1468  0.1780  0.0833
  891MOL0     C17486   2.491   8.815   9.411  0.3389  0.4577 -0.6394
  891MOL0     C17487   2.497   8.826   9.547  0.6447  0.5581  0.3067
  891MOL0     O17488   2.398   8.898   9.614 -0.2172 -0.3206 -0.6203
  891MOL0     C17489   2.352   8.817   9.724  0.3582  0.1420  0.7289
  891MOL0     C17490   2.216   8.880   9.772  0.4542 -0.8328  0.1755
  891MOL0     C17491   2.192   9.027   9.799 -0.6220 -0.4493 -0.9815
  891MOL0     C17492   2.295   9.077   9.910 -0.1175 -0.4394  0.5728
  891MOL0     C17493   2.344   9.225   9.888  0.4245 -0.9096  1.2810
  891MOL0     C17494   2.224   9.329   9.909 -0.3266 -0.1942  1.3272
  891MOL0     C17495   2.229   9.440   9.798 -0.3412 -1.0122 -0.1832
  891MOL0     C17496   2.152   9.390   9.669 -0.4604 -0.8358  0.6075
  891MOL0     N17497   2.009   9.388   9.685 -0.6682 -0.8814  0.0104
  891MOL0     C17498   1.933   9.497   9.716 -0.4170 -0.2032  0.3312
  891MOL0     C17499   1.804   9.467   9.688 -0.1704  0.3115  0.1350
  891MOL0     C17500   1.689   9.564   9.706  1.0544 -0.7737  0.1338
  891MOL0     C17501   1.559   9.511   9.653  0.7074  0.2607  0.4172
  891MOL0     C17502   1.551   9.495   9.497  0.3653  0.3592 -0.8313
  891MOL0     C17503   1.425   9.407   9.461 -0.3667  0.3889 -0.0249
  891MOL0     O17504   1.459   9.268   9.473  0.3797 -0.2555 -0.6404
  891MOL0     C17505   1.368   9.182   9.535 -0.3739 -0.3643 -1.2744
  891MOL0     C17506   1.229   9.180   9.504 -0.6884  0.4693 -0.6264
  891MOL0     C17507   1.151   9.080   9.565  0.9846 -0.5077  0.3057
  891MOL0     C17508   1.203   8.986   9.651  0.9102 -0.2904  0.3980
  891MOL0     C17509   1.119   8.884   9.718 -0.6699  1.0573 -0.2624
  891MOL0     O17510   0.996   8.878   9.673 -0.0994  0.1296  0.1593
  891MOL0     C17511   0.937   8.755   9.658  0.1654 -0.1614  0.5383
  891MOL0     C17512   0.996   8.621   9.647 -0.0019 -0.7485 -0.5012
  891MOL0     C17513   0.915   8.503   9.633  0.5369 -0.2441 -0.0931
  891MOL0     C17514   0.775   8.521   9.629  0.6680  0.3733  0.0351
  891MOL0     O17515   0.692   8.411   9.613 -0.1955  0.2055  1.2201
  891MOL0     C17516   0.755   8.284   9.590  0.4718  0.4660  0.7800
  891MOL0     C17517   0.650   8.173   9.563 -0.0593 -0.1342  0.2981
  891MOL0     C17518   0.557   8.154   9.692  1.0255  0.2787  0.6053
  891MOL0     C17519   0.447   8.050   9.671  0.6646 -0.2206 -0.7790
  891MOL0     C17520   0.367   8.070   9.537 -0.0877 -0.0392 -0.4409
  891MOL0     C17521   0.223   8.017   9.550  0.1065 -0.4856 -0.1222
  891MOL0     C17522   0.159   8.015   9.408  0.8971  0.2833  0.2906
  891MOL0     C17523   0.022   7.938   9.417 -0.6420 -0.6159  0.8884
  891MOL0    Cl17524  -0.049   7.906   9.266 -0.4531 -0.0931  0.1745
  891MOL0     C17525   0.719   8.648   9.634 -0.0223 -0.3360 -1.0722
  891MOL0     C17526   0.797   8.756   9.659 -0.9687 -0.5125  0.3493
  891MOL0     O17527   1.176   8.806   9.803 -0.0811 -0.3181  0.2577
  891MOL0     C17528   1.344   8.981   9.665 -0.3861  0.0834  0.3335
  891MOL0     C17529   1.419   9.084   9.615  0.2123 -0.7333  0.1995
  891MOL0     N17530   1.802   9.339   9.631 -0.4626  0.2972  0.2503
  891MOL0     N17531   1.923   9.295   9.625 -0.8359  0.7319 -0.1495
  891MOL0     C17532   2.610   8.761   9.608  0.3896 -0.3295 -0.0143
  891MOL0     C17533   2.700   8.678   9.542 -0.2064 -0.0072  0.4771
  891MOL0     C17534   2.922   8.512   9.158  0.3444 -0.4741 -0.1511
  891MOL0     C17535   2.960   8.539   9.027 -1.2527  0.6438  0.2228
  891MOL0     C17536   3.090   8.511   8.988  0.0405  0.0337 -0.8866
  891MOL0     C17537   3.183   8.449   9.078 -0.3857  1.1287 -0.1397
  891MOL0     O17538   3.303   8.390   9.036 -0.3213  0.4998 -0.1710
  891MOL0     C17539   3.302   8.267   8.955  0.2325  0.4163  0.1336
  891MOL0     C17540   3.320   8.137   9.027 -0.5044  0.9190 -1.2254
  891MOL0     C17541   3.322   8.033   8.919  0.2887  0.1939 -0.1767
  891MOL0     C17542   3.318   7.885   8.965 -0.6136 -0.7483 -0.4577
  891MOL0     C17543   3.447   7.843   9.018  0.3742  0.2860  0.4895
  891MOL0     C17544   3.550   7.797   9.065 -0.1080  0.8066  0.2759
  891MOL0     C17545   3.147   8.416   9.208  0.1414  0.1741  0.6095
  891MOL0     C17546   3.015   8.449   9.244 -0.4361 -0.7934  0.2680
  891MOL0     H17547   2.577   8.731   9.232 -0.1222  0.9376 -0.0064
  891MOL0     H17548   2.402   8.859   9.367 -1.9866 -3.1998 -0.0304
  891MOL0     H17549   2.419   8.814   9.810  0.6642 -1.0391  0.4775
  891MOL0     H17550   2.318   8.714   9.703  0.8868 -0.7349  3.7618
  891MOL0     H17551   2.172   8.836   9.861 -2.5422  0.4108 -0.5701
  891MOL0     H17552   2.144   8.865   9.691  1.4622  0.0021 -0.9216
  891MOL0     H17553   2.087   9.035   9.828 -0.9767 -2.1687 -1.6299
  891MOL0     H17554   2.204   9.090   9.711  2.2176 -1.1188 -1.1719
  891MOL0     H17555   2.236   9.074  10.001 -0.9336  0.4402  0.0866
  891MOL0     H17556   2.378   9.008   9.926 -0.4155 -0.9822 -0.1342
  891MOL0     H17557   2.385   9.242   9.788 -1.0958 -0.1653  0.7390
  891MOL0     H17558   2.417   9.258   9.961  0.7736  0.0099  0.5425
  891MOL0     H17559   2.230   9.382  10.004  1.4961  3.0647 -0.4164
  891MOL0     H17560   2.123   9.287   9.900 -0.3359  0.1835 -1.0077
  891MOL0     H17561   2.166   9.518   9.842 -2.4485 -2.0197 -1.2372
  891MOL0     H17562   2.328   9.477   9.772 -0.0914 -1.5247  0.0377
  891MOL0     H17563   2.199   9.295   9.642  1.0331 -0.0464  0.3271
  891MOL0     H17564   2.164   9.467   9.592 -3.8528  1.3364  2.0121
  891MOL0     H17565   1.965   9.589   9.763 -2.7941  0.0556  1.5735
  891MOL0     H17566   1.718   9.660   9.661  3.2062 -1.2170  0.4845
  891MOL0     H17567   1.677   9.573   9.814  3.2918 -2.2935  0.5773
  891MOL0     H17568   1.476   9.570   9.692  1.3654  0.4642  1.5490
  891MOL0     H17569   1.549   9.409   9.691 -1.7662  0.8371  1.4930
  891MOL0     H17570   1.529   9.595   9.459  0.0256  0.4808 -0.3199
  891MOL0     H17571   1.647   9.452   9.467  1.3994  1.3333  0.8796
  891MOL0     H17572   1.389   9.427   9.359 -4.1125  2.8729  1.5383
  891MOL0     H17573   1.350   9.431   9.536 -1.5550  0.8320 -1.3060
  891MOL0     H17574   1.178   9.253   9.441 -0.4692 -0.4331 -1.8723
  891MOL0     H17575   1.044   9.084   9.548  0.9171 -0.6286  0.6915
  891MOL0     H17576   1.101   8.595   9.651  0.3775  0.5782 -1.3259
  891MOL0     H17577   0.958   8.404   9.645  0.2265 -0.0687  3.5959
  891MOL0     H17578   0.808   8.258   9.682 -1.2908  0.7150  1.9270
  891MOL0     H17579   0.822   8.289   9.504 -1.5171  1.2367 -0.8117
  891MOL0     H17580   0.703   8.082   9.535 -0.6319 -1.0831  2.1061
  891MOL0     H17581   0.589   8.210   9.480  1.0726  0.1019 -0.4383
  891MOL0     H17582   0.507   8.250   9.708  0.8018 -0.0783  2.2352
  891MOL0     H17583   0.619   8.121   9.776  0.4288 -1.6358  0.3417
  891MOL0     H17584   0.507   7.959   9.657  0.2635 -0.5435 -0.4079
  891MOL0     H17585   0.384   8.046   9.760 -0.1292  1.1205 -1.2563
  891MOL0     H17586   0.412   8.013   9.455 -0.1428 -0.1554 -0.3909
  891MOL0     H17587   0.357   8.175   9.507 -3.7188  0.6886  2.6128
  891MOL0     H17588   0.159   8.086   9.606  0.2411 -0.1055 -0.4361
  891MOL0     H17589   0.216   7.913   9.586 -0.1247 -0.3488  0.2441
  891MOL0     H17590   0.141   8.114   9.365  0.6412  0.0644 -0.1190
  891MOL0     H17591   0.232   7.973   9.337  1.0177 -0.6641  0.9609
  891MOL0     H17592  -0.056   7.993   9.471  1.3296 -0.3952  3.7586
  891MOL0     H17593   0.039   7.850   9.480 -0.4850 -0.9791  0.3438
  891MOL0     H17594   0.613   8.658   9.614 -0.2171 -1.8599 -0.8607
  891MOL0     H17595   0.756   8.857   9.664  1.2599  0.5540 -1.1396
  891MOL0     H17596   1.396   8.894   9.705  0.6389 -0.9587 -2.9326
  891MOL0     H17597   1.527   9.085   9.623  0.0862  1.3569  3.2446
  891MOL0     H17598   2.621   8.761   9.716  0.1606 -0.9591  0.0127
  891MOL0     H17599   2.783   8.625   9.588 -0.5698 -0.8568  0.1857
  891MOL0     H17600   2.894   8.586   8.955 -0.3234  3.2176  0.9521
  891MOL0     H17601   3.120   8.550   8.891  0.1100  1.5574 -0.2766
  891MOL0     H17602   3.381   8.283   8.880 -1.1863  1.0384 -1.3000
  891MOL0     H17603   3.198   8.266   8.922  0.4790  0.2809 -0.6613
  891MOL0     H17604   3.418   8.137   9.077 -0.5066 -0.6783 -1.1566
  891MOL0     H17605   3.233   8.133   9.094 -0.4188  0.8311 -1.1176
  891MOL0     H17606   3.408   8.045   8.853  1.3223  0.7172  1.2154
  891MOL0     H17607   3.233   8.057   8.860 -0.4115 -1.2626  0.2404
  891MOL0     H17608   3.238   7.876   9.040  1.1913 -0.2349  1.6305
  891MOL0     H17609   3.293   7.820   8.881  2.5324 -0.1818 -1.9600
  891MOL0     H17610   3.637   7.775   9.123 -0.9445 -3.1299  0.3244
  891MOL0     H17611   3.225   8.368   9.266  2.3408 -0.8901 -2.9145
  891MOL0     H17612   2.992   8.433   9.349 -0.1313  0.1141  0.4789
  892MOL0     O17613   7.738   8.562   3.988  0.0322  0.9465  0.3652
  892MOL0     C17614   7.754   8.516   4.105  0.4486 -0.7037  0.7200
  892MOL0     O17615   7.664   8.530   4.207  0.4280  0.6246  0.7078
  892MOL0     C17616   7.539   8.577   4.165  0.2333  0.6499 -0.0213
  892MOL0     C17617   7.429   8.492   4.183  0.3339 -0.9349 -0.2761
  892MOL0     C17618   7.306   8.547   4.154 -0.0642  0.0064  0.0342
  892MOL0     C17619   7.289   8.668   4.087  0.5345  0.1955 -0.1134
  892MOL0     O17620   7.157   8.695   4.062  0.4958 -0.9568  0.3345
  892MOL0     C17621   7.109   8.712   3.929  0.6384  1.9661 -0.1695
  892MOL0     C17622   7.068   8.577   3.871  0.3891  0.7150  0.3238
  892MOL0     C17623   6.932   8.524   3.924 -0.1599 -0.2528  0.2331
  892MOL0     C17624   6.921   8.376   3.875  0.6863 -0.6455  0.2712
  892MOL0     C17625   6.789   8.314   3.921  0.3365 -0.1122  0.5739
  892MOL0     C17626   6.778   8.279   4.065  0.1361  0.1137 -0.0643
  892MOL0     C17627   6.868   8.156   4.096  0.5833  0.5450  0.2234
  892MOL0     C17628   6.866   8.142   4.243  0.0352 -0.1659 -0.3513
  892MOL0     N17629   6.912   8.004   4.282 -0.8344 -0.4026  0.5772
  892MOL0     C17630   7.044   7.992   4.308 -0.4839 -0.0802 -0.4575
  892MOL0     C17631   7.053   7.866   4.347  0.2132 -0.4665  0.8374
  892MOL0     C17632   7.171   7.774   4.378  0.5419  0.0172 -0.1565
  892MOL0     C17633   7.191   7.684   4.259 -0.5080 -0.5291  0.3538
  892MOL0     C17634   7.336   7.654   4.231 -0.0549 -0.4529 -0.1492
  892MOL0     C17635   7.342   7.550   4.115 -0.8274 -0.2354 -1.2400
  892MOL0     O17636   7.479   7.508   4.090 -0.2338 -0.4111  0.0895
  892MOL0     C17637   7.505   7.439   3.971 -0.9303 -1.0730  0.0161
  892MOL0     C17638   7.428   7.359   3.898  0.3277 -0.1801  0.8468
  892MOL0     C17639   7.467   7.285   3.782 -0.4921 -0.6072 -0.1045
  892MOL0     C17640   7.591   7.308   3.730 -0.7333  0.7636 -0.3448
  892MOL0     C17641   7.632   7.232   3.613 -0.2984 -0.1923  0.8137
  892MOL0     O17642   7.529   7.160   3.551 -0.0875 -0.1853  0.4783
  892MOL0     C17643   7.555   7.055   3.460 -0.3965 -1.5515  0.2664
  892MOL0     C17644   7.461   7.021   3.367  0.7008  0.1196  1.9242
  892MOL0     C17645   7.488   6.902   3.290 -0.6762  0.1165 -0.1608
  892MOL0     C17646   7.600   6.821   3.301 -0.4631 -1.1255 -0.4404
  892MOL0     O17647   7.623   6.713   3.228 -0.8677 -0.2581  0.0102
  892MOL0     C17648   7.624   6.735   3.093 -0.0691  0.2617 -0.5861
  892MOL0     C17649   7.655   6.601   3.010  0.4119 -0.4626 -0.0318
  892MOL0     C17650   7.584   6.633   2.870 -0.9590 -0.1233  0.0956
  892MOL0     C17651   7.603   6.507   2.776 -0.8598  0.2538  0.4269
  892MOL0     C17652   7.499   6.496   2.670 -0.4506 -0.0610  0.2343
  892MOL0     C17653   7.547   6.373   2.579 -0.9729  0.1815 -0.0582
  892MOL0     C17654   7.437   6.303   2.500  0.0152  0.6913 -0.1761
  892MOL0     C17655   7.493   6.206   2.395  0.6695 -0.9572 -0.8700
  892MOL0    Cl17656   7.593   6.281   2.270  0.3514  0.0666 -0.1080
  892MOL0     C17657   7.692   6.862   3.406  0.1081  0.2851  0.3023
  892MOL0     C17658   7.678   6.980   3.481 -0.9455  1.3597 -0.0626
  892MOL0     O17659   7.747   7.241   3.568  1.3847  0.5628 -0.5713
  892MOL0     C17660   7.680   7.383   3.802 -1.1150 -0.3433 -0.0374
  892MOL0     C17661   7.638   7.450   3.919  0.6386 -0.7309  1.0254
  892MOL0     N17662   6.922   7.824   4.361 -0.2193  0.4911  0.5776
  892MOL0     N17663   6.835   7.904   4.316  0.4924  0.3303 -0.6026
  892MOL0     C17664   7.395   8.760   4.069 -0.0306  0.3369  0.4253
  892MOL0     C17665   7.521   8.710   4.110 -1.4175  0.3422  0.1874
  892MOL0     C17666   7.873   8.437   4.128 -0.3968  0.1081  0.2017
  892MOL0     C17667   7.982   8.438   4.039 -0.1430 -0.1760  0.3982
  892MOL0     C17668   8.097   8.369   4.071 -0.4071 -0.1397  0.2758
  892MOL0     C17669   8.112   8.286   4.185 -0.6999  1.0877 -0.5124
  892MOL0     O17670   8.238   8.226   4.202 -0.2959 -0.1022 -0.0653
  892MOL0     C17671   8.267   8.164   4.325  1.1975  0.4388 -1.0419
  892MOL0     C17672   8.400   8.103   4.309  0.5799  0.0548 -0.4447
  892MOL0     C17673   8.521   8.207   4.320 -0.3434  0.2401  0.2783
  892MOL0     C17674   8.661   8.150   4.291  0.4641 -0.3723 -0.1289
  892MOL0     C17675   8.700   8.044   4.379 -0.5803  0.9022 -0.6340
  892MOL0     C17676   8.738   7.953   4.452  0.4499  0.3702  0.0403
  892MOL0     C17677   7.998   8.278   4.271  0.8671  0.8607 -0.0926
  892MOL0     C17678   7.883   8.360   4.242 -1.1319 -0.8859  0.7500
  892MOL0     H17679   7.449   8.399   4.235  0.2171 -0.6501  0.2859
  892MOL0     H17680   7.219   8.487   4.179  0.1691 -0.2161  0.3256
  892MOL0     H17681   7.187   8.749   3.862 -0.5627  0.7213 -2.3742
  892MOL0     H17682   7.023   8.778   3.932 -0.6588  0.3037  2.4932
  892MOL0     H17683   7.139   8.496   3.889 -1.5994 -1.7829 -2.0937
  892MOL0     H17684   7.059   8.588   3.762 -2.4835 -1.4267  0.2025
  892MOL0     H17685   6.856   8.573   3.864  3.9694 -0.1336 -5.8374
  892MOL0     H17686   6.914   8.556   4.027  0.8619  1.3583 -0.0617
  892MOL0     H17687   6.934   8.375   3.766  1.7750  0.0029  0.3727
  892MOL0     H17688   7.004   8.320   3.917  0.6104  2.4941  5.4717
  892MOL0     H17689   6.780   8.225   3.858  0.2526  1.0187 -1.0716
  892MOL0     H17690   6.714   8.388   3.893 -0.0571 -0.2174  1.3318
  892MOL0     H17691   6.675   8.271   4.101  0.0452 -0.3500 -0.4124
  892MOL0     H17692   6.841   8.353   4.115  2.4192 -3.1648  2.3352
  892MOL0     H17693   6.842   8.069   4.034  2.4512  0.1200 -0.0156
  892MOL0     H17694   6.973   8.182   4.079  1.2707  0.1817  3.3818
  892MOL0     H17695   6.765   8.150   4.283  0.7885  0.0340  1.5944
  892MOL0     H17696   6.925   8.224   4.284 -1.3046  0.0849  1.1565
  892MOL0     H17697   7.118   8.071   4.308  0.0121 -0.2932  3.6465
  892MOL0     H17698   7.155   7.722   4.473  3.8142  2.0826  1.6967
  892MOL0     H17699   7.258   7.839   4.391  0.0791  0.0785  3.4745
  892MOL0     H17700   7.153   7.736   4.171  3.3788  0.2809 -1.0268
  892MOL0     H17701   7.149   7.584   4.273  3.0736 -2.8038 -3.1625
  892MOL0     H17702   7.382   7.749   4.203  1.6020 -0.8856  0.9493
  892MOL0     H17703   7.390   7.618   4.319  0.5989 -2.9952 -1.4858
  892MOL0     H17704   7.297   7.600   4.029 -1.8955  2.7514  0.9149
  892MOL0     H17705   7.275   7.464   4.131  0.1247 -1.0066 -1.2847
  892MOL0     H17706   7.342   7.324   3.953  1.4232 -2.2686  1.3294
  892MOL0     H17707   7.391   7.224   3.733  0.7140 -0.6751 -2.0083
  892MOL0     H17708   7.366   7.071   3.351  1.7540  1.2811 -1.6241
  892MOL0     H17709   7.411   6.884   3.215 -1.6696 -0.1919  0.9011
  892MOL0     H17710   7.708   6.804   3.081  2.7060 -1.0551  6.3674
  892MOL0     H17711   7.532   6.785   3.061  0.8457  3.2492  1.0595
  892MOL0     H17712   7.605   6.514   3.052 -1.3610  0.7537  0.5015
  892MOL0     H17713   7.763   6.590   2.995  0.3768  1.4949 -2.2673
  892MOL0     H17714   7.618   6.727   2.827  1.8910 -1.2806 -0.3898
  892MOL0     H17715   7.479   6.642   2.899 -0.6241 -1.4420  1.9588
  892MOL0     H17716   7.701   6.538   2.740  0.6295  1.2198  4.7117
  892MOL0     H17717   7.605   6.421   2.844 -0.7585 -0.2434 -0.1996
  892MOL0     H17718   7.477   6.590   2.618  0.8912 -0.1345 -0.5004
  892MOL0     H17719   7.400   6.458   2.699 -1.2198  0.1174 -1.9407
  892MOL0     H17720   7.596   6.296   2.639  1.5697  1.1051 -0.8217
  892MOL0     H17721   7.627   6.393   2.507  0.9632 -4.1943  0.5601
  892MOL0     H17722   7.368   6.252   2.568 -1.5533  0.4894 -1.8279
  892MOL0     H17723   7.373   6.379   2.455 -0.7347  0.5885  0.6982
  892MOL0     H17724   7.413   6.152   2.343 -0.4849 -0.7817  0.6487
  892MOL0     H17725   7.545   6.126   2.447 -1.0630 -1.3442  0.3819
  892MOL0     H17726   7.775   6.793   3.422 -0.8401 -1.0497 -0.3241
  892MOL0     H17727   7.740   6.990   3.570 -0.9774 -0.6072  0.2218
  892MOL0     H17728   7.781   7.390   3.763 -1.1539 -1.7291 -0.4275
  892MOL0     H17729   7.704   7.522   3.966 -0.2977  1.4654 -0.8566
  892MOL0     H17730   7.371   8.854   4.021 -2.1716 -1.7573 -3.0082
  892MOL0     H17731   7.611   8.770   4.100 -0.7741 -0.6468 -0.1676
  892MOL0     H17732   7.986   8.510   3.958 -2.6640  1.7396  1.8306
  892MOL0     H17733   8.180   8.376   4.002  0.7840  0.9827  1.7439
  892MOL0     H17734   8.199   8.080   4.342 -1.2097  2.5574  0.7506
  892MOL0     H17735   8.279   8.233   4.409  0.1400 -0.6164  0.0100
  892MOL0     H17736   8.408   8.042   4.399 -4.3172  1.7710  1.5390
  892MOL0     H17737   8.415   8.036   4.223  0.5955 -2.5410  1.4546
  892MOL0     H17738   8.516   8.241   4.424  0.0063  2.8424 -0.4816
  892MOL0     H17739   8.495   8.285   4.248 -1.9895 -0.8674 -0.3768
  892MOL0     H17740   8.671   8.108   4.190  2.0120 -1.2697  0.3600
  892MOL0     H17741   8.744   8.222   4.287  1.4168 -1.3966  0.7364
  892MOL0     H17742   8.772   7.871   4.511 -0.7424 -0.6647 -0.6566
  892MOL0     H17743   8.006   8.222   4.364  4.0939  1.8032  0.2980
  892MOL0     H17744   7.805   8.360   4.318 -1.6015 -1.3969  0.2751
  893MOL0     O17745   7.492  11.003  10.656  0.2417  0.3158 -0.2694
  893MOL0     C17746   7.586  11.043  10.587 -0.9012  1.6727 -0.7377
  893MOL0     O17747   7.720  11.023  10.622 -0.0913 -0.2698  0.9076
  893MOL0     C17748   7.743  11.017  10.755  0.3292  0.2807 -0.2033
  893MOL0     C17749   7.747  10.889  10.811  0.1071 -0.0580  0.3016
  893MOL0     C17750   7.771  10.872  10.948  0.1406  0.6110  0.1608
  893MOL0     C17751   7.763  10.981  11.041  0.7280  0.2509  0.9862
  893MOL0     O17752   7.758  10.971  11.175  1.4348 -0.4279 -0.7179
  893MOL0     C17753   7.870  10.917  11.241  0.4523  0.1887 -0.4751
  893MOL0     C17754   7.962  11.037  11.258  0.3246  0.2247 -0.8062
  893MOL0     C17755   8.093  11.008  11.330  0.3481  0.2263  0.3647
  893MOL0     C17756   8.078  10.928  11.454  1.0591 -0.0454 -0.4322
  893MOL0     C17757   8.204  10.918  11.544 -0.1667  0.1416  0.3045
  893MOL0     C17758   8.289  10.799  11.505 -0.1934 -0.3763 -0.2727
  893MOL0     C17759   8.384  10.755  11.611  0.8491 -0.4418 -0.7777
  893MOL0     C17760   8.480  10.641  11.570 -1.3040  0.1444  0.3366
  893MOL0     N17761   8.602  10.704  11.512 -0.4208  0.5010  0.2239
  893MOL0     C17762   8.611  10.754  11.378 -0.0618  0.1295  0.0414
  893MOL0     C17763   8.738  10.758  11.339 -0.6338 -0.0812  0.7737
  893MOL0     C17764   8.796  10.805  11.206  0.3389 -0.2287 -0.7876
  893MOL0     C17765   8.845  10.956  11.197  0.8888  0.4649  0.0169
  893MOL0     C17766   8.766  11.031  11.089 -0.4377  0.4884 -0.4476
  893MOL0     C17767   8.828  11.026  10.951 -0.0170 -0.6305 -0.0648
  893MOL0     O17768   8.746  11.129  10.892 -0.2767 -0.1363  0.5306
  893MOL0     C17769   8.723  11.125  10.759  0.3334  0.5458  0.7136
  893MOL0     C17770   8.766  11.037  10.658  0.4797  0.9559 -0.2491
  893MOL0     C17771   8.727  11.054  10.527  0.8263 -0.1495  0.5304
  893MOL0     C17772   8.655  11.173  10.483  1.2808 -0.2132  0.8919
  893MOL0     C17773   8.605  11.181  10.333 -0.3047 -0.2734  0.3359
  893MOL0     O17774   8.626  11.081  10.244  0.3937 -1.2564  0.5541
  893MOL0     C17775   8.603  11.084  10.105  0.6756 -0.1924 -0.2574
  893MOL0     C17776   8.570  11.199  10.028  0.0519 -0.5070 -0.3972
  893MOL0     C17777   8.542  11.186   9.895 -0.3829  0.2730  1.0836
  893MOL0     C17778   8.561  11.059   9.837 -0.2704  0.5047  0.3506
  893MOL0     O17779   8.556  11.068   9.697  0.8411 -0.0666 -0.3235
  893MOL0     C17780   8.511  10.955   9.623 -0.1026 -0.2302 -0.1282
  893MOL0     C17781   8.485  10.997   9.489 -0.3004 -0.7802  0.7312
  893MOL0     C17782   8.426  10.881   9.411 -0.6927  0.2243  0.5352
  893MOL0     C17783   8.413  10.919   9.260 -0.5528  0.0190 -0.3871
  893MOL0     C17784   8.339  10.806   9.183  0.8183  0.1977 -0.0820
  893MOL0     C17785   8.354  10.798   9.027  0.2016 -0.1851  0.0679
  893MOL0     C17786   8.261  10.684   8.974 -0.7567 -0.1186  0.1461
  893MOL0     C17787   8.335  10.545   8.967  0.3795  0.0766  0.6296
  893MOL0    Cl17788   8.227  10.435   8.869 -0.1692 -0.3014 -0.0907
  893MOL0     C17789   8.610  10.947   9.903 -0.2629  0.8439 -0.0008
  893MOL0     C17790   8.632  10.962  10.043  0.0236  0.3175  0.9465
  893MOL0     O17791   8.564  11.289  10.307  0.5667 -0.4989  0.4269
  893MOL0     C17792   8.620  11.263  10.586 -0.9417  0.3394 -0.4148
  893MOL0     C17793   8.659  11.236  10.712 -0.2112  0.1391 -0.3591
  893MOL0     N17794   8.814  10.710  11.457  0.8291  0.4170  0.5081
  893MOL0     N17795   8.736  10.670  11.547 -0.1643 -0.3089  0.4178
  893MOL0     C17796   7.758  11.105  10.984 -0.4576 -0.6595  0.4380
  893MOL0     C17797   7.749  11.128  10.844 -0.5897  0.4763  0.4305
  893MOL0     C17798   7.562  11.115  10.460 -0.1662 -0.3160 -0.0607
  893MOL0     C17799   7.669  11.148  10.367 -0.3600  0.8658 -0.4175
  893MOL0     C17800   7.642  11.215  10.246  0.3958 -0.3889 -1.1694
  893MOL0     C17801   7.510  11.248  10.210 -0.6355 -0.1277  0.2081
  893MOL0     O17802   7.501  11.317  10.085  0.1602  0.1088 -0.0971
  893MOL0     C17803   7.375  11.352  10.035 -0.5638 -0.4167 -0.2254
  893MOL0     C17804   7.398  11.391   9.887  0.4632 -0.7157  0.7584
  893MOL0     C17805   7.486  11.503   9.852 -0.6515 -0.5348 -0.4446
  893MOL0     C17806   7.466  11.630   9.940  0.7500  1.0568  0.8984
  893MOL0     C17807   7.322  11.661   9.944 -0.3188 -0.2617 -0.3986
  893MOL0     C17808   7.210  11.697   9.947 -0.6669  0.8462  0.0676
  893MOL0     C17809   7.405  11.226  10.305  0.6976  0.0476 -0.9157
  893MOL0     C17810   7.429  11.163  10.428  0.4377  0.0682 -0.6419
  893MOL0     H17811   7.743  10.802  10.746 -1.9856  0.5717 -0.4864
  893MOL0     H17812   7.776  10.773  10.990 -0.6758 -0.1346 -1.3921
  893MOL0     H17813   7.916  10.837  11.182 -1.1927  0.2756 -1.9654
  893MOL0     H17814   7.833  10.874  11.335 -2.5298 -1.7677 -2.3582
  893MOL0     H17815   7.908  11.118  11.309 -0.6974 -0.9087 -0.0379
  893MOL0     H17816   7.982  11.070  11.156  1.0576  4.6145  0.5489
  893MOL0     H17817   8.139  11.100  11.370  1.2493 -1.1472  2.6851
  893MOL0     H17818   8.171  10.963  11.267 -0.0897 -0.2268  0.1455
  893MOL0     H17819   7.989  10.961  11.509  0.5900 -2.2489  0.2196
  893MOL0     H17820   8.052  10.826  11.423  1.0398  0.2706 -1.4995
  893MOL0     H17821   8.176  10.893  11.646  2.4834 -1.6544  0.7045
  893MOL0     H17822   8.263  11.010  11.530 -3.4064  2.2158 -0.7004
  893MOL0     H17823   8.336  10.831  11.411 -2.8523  1.1247 -1.1724
  893MOL0     H17824   8.225  10.711  11.494  0.0163 -1.1161  3.2707
  893MOL0     H17825   8.426  10.853  11.634 -1.1918  0.0819  1.0227
  893MOL0     H17826   8.331  10.733  11.704 -1.7901 -1.7907 -2.4900
  893MOL0     H17827   8.431  10.579  11.495  0.4937  0.8938 -1.5501
  893MOL0     H17828   8.521  10.582  11.653  1.1304  0.2316 -0.7200
  893MOL0     H17829   8.525  10.775  11.316 -1.4387  2.5503  2.5572
  893MOL0     H17830   8.731  10.778  11.122 -0.4247 -1.2110  0.1065
  893MOL0     H17831   8.881  10.736  11.198  0.1580 -1.5175  4.6765
  893MOL0     H17832   8.953  10.948  11.178  1.4436  0.4801  2.7319
  893MOL0     H17833   8.817  11.017  11.283  2.0571 -0.8075  1.3709
  893MOL0     H17834   8.666  10.989  11.076 -0.0495 -2.4842  3.9213
  893MOL0     H17835   8.760  11.139  11.107  0.1521  0.6773 -1.3341
  893MOL0     H17836   8.822  10.925  10.909  4.0404 -0.0793 -2.5026
  893MOL0     H17837   8.934  11.052  10.965 -0.1020 -0.0637 -0.4313
  893MOL0     H17838   8.831  10.955  10.687  3.3659  2.4767 -1.8625
  893MOL0     H17839   8.760  10.986  10.450  1.4027 -0.1650  0.7869
  893MOL0     H17840   8.555  11.298  10.069  1.2196 -0.6183  0.3394
  893MOL0     H17841   8.486  11.260   9.838 -1.5740 -0.8840  0.6937
  893MOL0     H17842   8.418  10.917   9.665 -0.4657  4.3164  4.0267
  893MOL0     H17843   8.592  10.882   9.619 -1.8838 -2.3177 -0.2668
  893MOL0     H17844   8.583  11.023   9.448  0.0255 -0.9357  1.4005
  893MOL0     H17845   8.415  11.082   9.482 -0.2927 -0.9281 -3.7947
  893MOL0     H17846   8.330  10.849   9.454 -1.8483  1.1286 -1.2402
  893MOL0     H17847   8.507  10.808   9.420  1.7047  2.9435  3.4069
  893MOL0     H17848   8.360  11.014   9.247 -1.6941  0.0088  3.2345
  893MOL0     H17849   8.514  10.934   9.223 -0.6689 -1.2404 -1.2860
  893MOL0     H17850   8.237  10.816   9.221  0.2628 -2.4526 -0.6793
  893MOL0     H17851   8.350  10.703   9.218 -0.4387  0.0327 -0.1515
  893MOL0     H17852   8.460  10.783   9.005  0.1317  0.4315 -0.7669
  893MOL0     H17853   8.333  10.901   8.995 -0.7234  0.1314  1.5879
  893MOL0     H17854   8.173  10.672   9.038 -0.6481  2.8381  0.9830
  893MOL0     H17855   8.236  10.709   8.870 -0.8677 -2.6650 -0.5076
  893MOL0     H17856   8.345  10.506   9.069  1.1339 -2.5998 -0.3937
  893MOL0     H17857   8.435  10.560   8.926 -0.9161  2.5939 -1.9517
  893MOL0     H17858   8.643  10.854   9.858  1.6497  0.9990  0.9808
  893MOL0     H17859   8.663  10.877  10.104  0.0195  1.0080  1.9404
  893MOL0     H17860   8.553  11.347  10.574 -1.9635 -0.3990 -0.0688
  893MOL0     H17861   8.625  11.314  10.779  1.1018 -0.1856  0.7193
  893MOL0     H17862   7.775  11.200  11.035 -1.0203  0.5686 -1.5459
  893MOL0     H17863   7.742  11.230  10.808 -2.5476  0.7610  1.4388
  893MOL0     H17864   7.772  11.122  10.390  0.0203  4.0971  2.1383
  893MOL0     H17865   7.734  11.236  10.193 -0.7691  2.2319 -2.3211
  893MOL0     H17866   7.325  11.429  10.095 -2.8476 -0.6087 -1.7210
  893MOL0     H17867   7.302  11.271  10.046 -0.7089 -0.4382 -1.2183
  893MOL0     H17868   7.439  11.307   9.830 -0.2253  1.4701 -3.3270
  893MOL0     H17869   7.303  11.414   9.838  0.3248 -1.0186  0.8795
  893MOL0     H17870   7.481  11.517   9.743  1.6774 -0.6977 -0.6266
  893MOL0     H17871   7.593  11.484   9.865 -0.3261  1.5419  0.2811
  893MOL0     H17872   7.506  11.616  10.041 -1.8168  1.7984  2.1176
  893MOL0     H17873   7.517  11.714   9.892 -0.0102  0.4347 -1.0821
  893MOL0     H17874   7.110  11.735   9.948 -2.4928 -3.4182  0.6376
  893MOL0     H17875   7.302  11.248  10.277  0.1538 -0.3755  0.6553
  893MOL0     H17876   7.340  11.154  10.490  1.3916  0.0003  0.7666
  894MOL0     O17877   4.681   8.193   4.948  0.0773  1.0477  0.1313
  894MOL0     C17878   4.676   8.301   5.004  1.4625 -0.1262  0.3460
  894MOL0     O17879   4.763   8.335   5.106 -1.1393 -0.3357 -0.2815
  894MOL0     C17880   4.867   8.256   5.147 -0.2098  0.7473  0.2416
  894MOL0     C17881   4.864   8.187   5.273 -0.4325  0.5327  0.7055
  894MOL0     C17882   4.972   8.108   5.313  0.8620  0.0987  0.9738
  894MOL0     C17883   5.085   8.091   5.228 -0.2482  0.1549 -0.1272
  894MOL0     O17884   5.194   8.012   5.255  0.8761  0.2219  0.1276
  894MOL0     C17885   5.186   7.871   5.291  0.3964 -0.2008  0.1109
  894MOL0     C17886   5.140   7.798   5.164 -0.0663  0.2203  0.8480
  894MOL0     C17887   5.163   7.651   5.188 -0.5369  0.1487 -0.0464
  894MOL0     C17888   5.300   7.601   5.125  0.0762 -0.2233  0.6178
  894MOL0     C17889   5.324   7.446   5.139 -0.0778  0.1351 -0.5249
  894MOL0     C17890   5.466   7.389   5.105 -0.8639  0.3362 -0.2063
  894MOL0     C17891   5.582   7.476   5.164 -0.1109  0.4057 -0.0821
  894MOL0     C17892   5.716   7.438   5.112  0.4431  0.5216 -0.0359
  894MOL0     N17893   5.769   7.312   5.162 -0.0140  0.3586 -0.3562
  894MOL0     C17894   5.744   7.183   5.112 -0.2197  0.6796 -0.1904
  894MOL0     C17895   5.780   7.097   5.218 -0.5989 -1.0329  0.0111
  894MOL0     C17896   5.787   6.951   5.213 -0.2005 -0.1353 -0.3092
  894MOL0     C17897   5.913   6.900   5.294  0.0228 -0.0819 -0.5612
  894MOL0     C17898   5.899   6.854   5.437  0.9003 -0.4650 -0.2970
  894MOL0     C17899   6.012   6.756   5.471  1.2549  0.2482 -0.6788
  894MOL0     O17900   6.135   6.801   5.430 -0.6643 -0.6398  1.0079
  894MOL0     C17901   6.212   6.727   5.344 -0.5850 -0.6941 -0.1459
  894MOL0     C17902   6.235   6.594   5.352 -0.1834 -0.0597 -0.3616
  894MOL0     C17903   6.332   6.532   5.270 -0.5734  0.3370  0.2970
  894MOL0     C17904   6.391   6.598   5.162  0.0539 -1.1488 -0.0321
  894MOL0     C17905   6.482   6.530   5.070 -0.1391  0.6060 -0.2377
  894MOL0     O17906   6.546   6.612   4.980 -0.3130  0.1186  0.4586
  894MOL0     C17907   6.585   6.559   4.863 -0.3779  0.3227  0.4985
  894MOL0     C17908   6.497   6.509   4.758 -0.5341  0.3962 -0.9698
  894MOL0     C17909   6.550   6.441   4.645  0.0270  1.6731  0.1325
  894MOL0     C17910   6.698   6.436   4.623 -0.5420 -1.0299 -0.0771
  894MOL0     O17911   6.760   6.371   4.523 -0.2610 -0.7481 -0.8449
  894MOL0     C17912   6.681   6.332   4.420  0.9673  0.4127  1.0152
  894MOL0     C17913   6.764   6.259   4.314  1.0416 -0.8633  0.0905
  894MOL0     C17914   6.821   6.127   4.365 -0.2570 -0.0343 -0.7324
  894MOL0     C17915   6.901   6.056   4.255 -0.4119 -0.5319 -0.3428
  894MOL0     C17916   6.957   5.927   4.302  0.0070  0.1063 -0.2785
  894MOL0     C17917   7.054   5.865   4.204 -0.3956  0.8471  0.5555
  894MOL0     C17918   7.165   5.797   4.285 -0.8132 -0.0365  0.0953
  894MOL0     C17919   7.238   5.696   4.199 -0.0122 -0.3061  0.7358
  894MOL0    Cl17920   7.381   5.631   4.290  0.2134 -0.1010  0.1616
  894MOL0     C17921   6.775   6.483   4.726  0.0388 -0.8343  0.8997
  894MOL0     C17922   6.724   6.538   4.843 -0.0952 -0.2616 -0.0543
  894MOL0     O17923   6.502   6.412   5.079  0.2026  0.6845  0.3021
  894MOL0     C17924   6.358   6.740   5.148 -0.2748 -1.0543  0.4712
  894MOL0     C17925   6.264   6.792   5.234 -0.8023 -0.6965 -0.8872
  894MOL0     N17926   5.810   7.182   5.328  1.1449 -0.0933 -1.1603
  894MOL0     N17927   5.813   7.297   5.292  0.1858 -0.0122 -0.7469
  894MOL0     C17928   5.085   8.166   5.115 -0.5331 -1.2969  1.2825
  894MOL0     C17929   4.985   8.245   5.074  0.3442  0.8354 -0.4202
  894MOL0     C17930   4.592   8.404   4.952 -0.5608  0.6003  0.2592
  894MOL0     C17931   4.558   8.414   4.816 -0.8713  0.5691  0.4096
  894MOL0     C17932   4.501   8.530   4.767  0.4183  0.3792  0.1002
  894MOL0     C17933   4.472   8.648   4.848  0.3228 -0.1479  0.7852
  894MOL0     O17934   4.418   8.771   4.808 -0.4126 -0.1805 -0.4451
  894MOL0     C17935   4.334   8.769   4.680 -0.4720 -0.7204 -0.3458
  894MOL0     C17936   4.421   8.809   4.570 -0.0019 -0.2342  0.0881
  894MOL0     C17937   4.337   8.828   4.446  0.2206 -0.8161 -0.6230
  894MOL0     C17938   4.420   8.876   4.328  0.8588 -0.0078 -0.4073
  894MOL0     C17939   4.344   8.843   4.207 -0.5536  0.7808  0.3160
  894MOL0     C17940   4.302   8.805   4.102 -0.1488 -0.6196  1.2305
  894MOL0     C17941   4.508   8.633   4.983 -0.6648 -0.0892 -0.6129
  894MOL0     C17942   4.572   8.520   5.034  0.2505 -0.8049  0.2997
  894MOL0     H17943   4.788   8.209   5.348  0.8013 -0.9209  2.4896
  894MOL0     H17944   4.973   8.076   5.417  5.3618 -2.1761  0.4266
  894MOL0     H17945   5.111   7.849   5.368 -0.5629 -0.0084 -0.7420
  894MOL0     H17946   5.280   7.834   5.332 -0.6339  0.6095  3.5522
  894MOL0     H17947   5.190   7.835   5.074 -2.8209 -3.6817 -2.6543
  894MOL0     H17948   5.037   7.818   5.134  0.3940  4.0367  1.3420
  894MOL0     H17949   5.079   7.585   5.165 -0.5274 -0.1516  0.7424
  894MOL0     H17950   5.160   7.634   5.296 -1.9495  3.3428  0.5344
  894MOL0     H17951   5.307   7.618   5.017 -0.0528  0.5414  0.7203
  894MOL0     H17952   5.373   7.664   5.178 -2.5801  0.4450  3.8290
  894MOL0     H17953   5.254   7.401   5.067 -1.0450  2.1550 -0.9240
  894MOL0     H17954   5.296   7.417   5.240  0.6003  2.4019  0.3764
  894MOL0     H17955   5.475   7.384   4.996  3.0389 -2.1985  0.0455
  894MOL0     H17956   5.468   7.288   5.147  0.5523  0.8810  1.1163
  894MOL0     H17957   5.559   7.581   5.145 -1.3271  0.3447  0.9295
  894MOL0     H17958   5.590   7.464   5.272  3.5491 -3.4550 -0.5161
  894MOL0     H17959   5.779   7.526   5.131  0.0051  1.1493 -1.4022
  894MOL0     H17960   5.716   7.424   5.004 -0.3154  0.3107 -0.0094
  894MOL0     H17961   5.714   7.152   5.013  0.6173  0.9188 -0.5278
  894MOL0     H17962   5.808   6.924   5.109 -2.5045 -1.8066 -0.4133
  894MOL0     H17963   5.693   6.899   5.233 -0.3593  0.0634 -0.5381
  894MOL0     H17964   5.984   6.983   5.309  1.2222 -1.4473  1.9996
  894MOL0     H17965   5.973   6.830   5.236  1.6384  1.2169 -0.5408
  894MOL0     H17966   5.917   6.929   5.515 -0.7018 -0.0327 -0.3143
  894MOL0     H17967   5.795   6.823   5.444 -0.0912  2.6394  0.0487
  894MOL0     H17968   5.979   6.661   5.427  0.9873 -1.6501  3.1858
  894MOL0     H17969   6.009   6.730   5.577 -0.3116  0.7105 -0.5796
  894MOL0     H17970   6.185   6.524   5.419 -1.8004  3.1379  1.9954
  894MOL0     H17971   6.347   6.425   5.284 -2.2535  0.0136 -0.2379
  894MOL0     H17972   6.389   6.513   4.765 -0.4293  2.1614  0.1773
  894MOL0     H17973   6.481   6.414   4.566 -3.0661  2.7916  2.2433
  894MOL0     H17974   6.626   6.420   4.386 -4.3803 -1.9281  2.5093
  894MOL0     H17975   6.602   6.263   4.451  0.1126  1.3541  0.9591
  894MOL0     H17976   6.850   6.321   4.289  0.0646 -0.0293 -1.3211
  894MOL0     H17977   6.696   6.243   4.230 -3.0642  1.1163  2.7269
  894MOL0     H17978   6.746   6.063   4.411  0.0747  1.3715  1.9435
  894MOL0     H17979   6.888   6.134   4.451 -1.2290 -2.3669  0.2906
  894MOL0     H17980   6.839   6.036   4.167  0.5319  0.6131 -1.3136
  894MOL0     H17981   6.972   6.130   4.217 -1.8467  0.8529 -0.4739
  894MOL0     H17982   6.881   5.853   4.327 -0.4232  1.0699  1.4577
  894MOL0     H17983   7.014   5.940   4.395  2.4368 -1.9808 -1.3288
  894MOL0     H17984   7.100   5.942   4.142 -1.3882  1.5913  0.7219
  894MOL0     H17985   7.005   5.785   4.147  3.1203 -1.9238  1.0030
  894MOL0     H17986   7.241   5.864   4.326 -3.0983  0.5972  3.6900
  894MOL0     H17987   7.126   5.749   4.375 -1.3619  1.3665  0.6295
  894MOL0     H17988   7.283   5.740   4.110  2.8493 -3.6981  0.2603
  894MOL0     H17989   7.173   5.614   4.166  0.1062  0.7027 -2.3109
  894MOL0     H17990   6.880   6.475   4.699 -0.5591  2.8580 -3.9407
  894MOL0     H17991   6.797   6.567   4.918  3.2920 -2.1330 -2.3452
  894MOL0     H17992   6.418   6.801   5.081  0.6805 -1.0355  1.3145
  894MOL0     H17993   6.240   6.898   5.246  0.1165 -0.7990  5.7505
  894MOL0     H17994   5.172   8.160   5.050 -2.1066  3.6152 -1.8162
  894MOL0     H17995   4.999   8.305   4.985  1.6456  1.6044  0.2820
  894MOL0     H17996   4.558   8.318   4.767  0.2476  0.2089  1.0801
  894MOL0     H17997   4.487   8.519   4.660  3.8450 -1.2447 -0.3158
  894MOL0     H17998   4.247   8.835   4.687  0.2598  0.2216  0.1797
  894MOL0     H17999   4.294   8.672   4.649  1.7494 -1.2503 -1.7714
  894MOL0     H18000   4.473   8.902   4.595  1.3356 -1.3784  1.8589
  894MOL0     H18001   4.495   8.728   4.564 -0.7116 -1.2137  3.0029
  894MOL0     H18002   4.255   8.897   4.467  1.4902  0.5592 -0.0050
  894MOL0     H18003   4.296   8.733   4.410  1.7287 -1.3124 -1.1412
  894MOL0     H18004   4.433   8.985   4.334 -0.3732  0.0909  1.1089
  894MOL0     H18005   4.517   8.826   4.335 -0.3733 -2.3822  0.6719
  894MOL0     H18006   4.269   8.764   4.009 -0.5943  1.5006  0.3934
  894MOL0     H18007   4.492   8.714   5.053  0.3958 -1.3648  1.1990
  894MOL0     H18008   4.612   8.538   5.133  2.5161 -1.0990 -0.4985
  895MOL0     O18009   7.909  10.666  10.561 -0.9884  0.3429  0.1506
  895MOL0     C18010   7.905  10.599  10.461  0.2700 -0.4794 -0.1574
  895MOL0     O18011   7.928  10.471  10.450  0.8866 -0.7826 -0.7747
  895MOL0     C18012   7.972  10.411  10.561  0.3612  0.4436 -0.3670
  895MOL0     C18013   8.106  10.371  10.564  0.3531  1.1182 -0.3881
  895MOL0     C18014   8.152  10.290  10.670 -0.2132 -0.4171  0.0797
  895MOL0     C18015   8.067  10.255  10.777 -0.4666 -0.1391 -0.5760
  895MOL0     O18016   8.122  10.167  10.869  0.0468 -0.2547 -0.0530
  895MOL0     C18017   8.133  10.226  11.007 -0.5215 -0.1114 -0.1443
  895MOL0     C18018   8.188  10.127  11.107  0.3511  0.7430 -0.9372
  895MOL0     C18019   8.083  10.020  11.136 -0.6810  0.3215  0.5952
  895MOL0     C18020   8.151   9.897  11.190 -0.7046 -0.1701 -0.5151
  895MOL0     C18021   8.056   9.801  11.256 -0.4122  0.2681 -0.4389
  895MOL0     C18022   8.108   9.663  11.233  0.8904  0.1283  0.9229
  895MOL0     C18023   7.998   9.561  11.263 -0.0298 -1.0891  1.5871
  895MOL0     C18024   8.063   9.428  11.298  0.4886 -0.7069 -0.9719
  895MOL0     N18025   7.965   9.322  11.288  0.7980 -0.0453 -0.6674
  895MOL0     C18026   7.914   9.249  11.396 -0.3466  0.5668 -0.1832
  895MOL0     C18027   7.842   9.140  11.341 -1.1060 -0.3910  0.4232
  895MOL0     C18028   7.777   9.026  11.420 -0.4085  0.1231  0.3500
  895MOL0     C18029   7.871   8.941  11.506 -0.9452 -0.5568  0.1595
  895MOL0     C18030   8.016   8.916  11.445 -0.3389 -0.2623  1.0045
  895MOL0     C18031   8.097   8.829  11.539 -0.2906  0.1806 -0.1691
  895MOL0     O18032   8.113   8.708  11.468  0.7062  0.5724  0.0590
  895MOL0     C18033   8.155   8.590  11.522  0.6190  0.9281  0.1058
  895MOL0     C18034   8.178   8.493  11.424 -0.1849  0.5117  0.6040
  895MOL0     C18035   8.218   8.367  11.456 -0.6092 -0.4428 -0.1893
  895MOL0     C18036   8.225   8.328  11.588 -1.5253 -0.1252 -0.9742
  895MOL0     C18037   8.261   8.187  11.628 -0.3405 -0.0339 -0.9098
  895MOL0     O18038   8.229   8.159  11.759 -0.0976 -0.4337 -1.1579
  895MOL0     C18039   8.262   8.036  11.825  0.0540  0.9137  0.4601
  895MOL0     C18040   8.162   7.959  11.883 -0.0832  0.5381  0.0848
  895MOL0     C18041   8.187   7.832  11.936  1.1477 -0.6717 -0.5170
  895MOL0     C18042   8.293   7.761  11.912 -0.6343 -0.5826 -0.2587
  895MOL0     O18043   8.297   7.636  11.956  0.6488  0.2820 -0.0726
  895MOL0     C18044   8.386   7.554  11.895  0.1157 -0.5678 -0.0393
  895MOL0     C18045   8.353   7.409  11.928 -0.2251 -0.2093  0.6225
  895MOL0     C18046   8.214   7.387  11.899  1.4926  0.5368  0.4723
  895MOL0     C18047   8.185   7.236  11.912 -0.1725 -0.3258  0.0290
  895MOL0     C18048   8.038   7.213  11.909  0.0752 -0.0361 -0.4657
  895MOL0     C18049   8.001   7.070  11.896  0.0999  0.9317  0.7551
  895MOL0     C18050   8.021   7.013  11.743 -0.0016 -0.1986 -0.0985
  895MOL0     C18051   7.913   6.920  11.689  0.9922  0.6590 -0.0370
  895MOL0    Cl18052   7.750   7.001  11.687 -0.0936 -0.2075 -0.7465
  895MOL0     C18053   8.409   7.834  11.867  0.6990 -0.4368 -0.1045
  895MOL0     C18054   8.389   7.973  11.821 -0.6707  0.8715 -0.3670
  895MOL0     O18055   8.314   8.102  11.546  0.3950 -0.3690 -0.8757
  895MOL0     C18056   8.202   8.428  11.691 -0.2421 -0.4494  0.6852
  895MOL0     C18057   8.180   8.559  11.650 -1.0359 -0.6853 -0.4718
  895MOL0     N18058   7.869   9.146  11.198 -0.0592  0.5244 -0.3830
  895MOL0     N18059   7.932   9.255  11.174  0.2248 -0.8124 -0.0259
  895MOL0     C18060   7.935  10.300  10.774 -0.1198 -0.5605 -0.6283
  895MOL0     C18061   7.883  10.381  10.673 -0.3298  0.1215 -1.1883
  895MOL0     C18062   7.863  10.673  10.350 -0.2836  0.0134  0.6651
  895MOL0     C18063   7.923  10.632  10.226 -0.6850  0.7715 -0.5692
  895MOL0     C18064   7.890  10.687  10.106  0.4577 -0.1583 -1.0747
  895MOL0     C18065   7.793  10.790  10.105 -0.1190 -0.7230 -0.0902
  895MOL0     O18066   7.782  10.854   9.986 -0.0562 -0.0249  0.2682
  895MOL0     C18067   7.757  11.006   9.990 -0.2342  0.0454  0.6655
  895MOL0     C18068   7.813  11.049   9.849 -0.2562 -0.3848 -0.3439
  895MOL0     C18069   7.837  11.199   9.843 -0.0290 -0.1824 -0.0503
  895MOL0     C18070   7.890  11.238   9.700  0.3007 -0.3021  0.4770
  895MOL0     C18071   8.030  11.189   9.675  0.5631 -0.2386  0.4328
  895MOL0     C18072   8.138  11.130   9.685 -0.2479 -0.4612 -0.4688
  895MOL0     C18073   7.731  10.834  10.224 -0.1571  0.4404  0.2949
  895MOL0     C18074   7.770  10.774  10.346 -0.8242 -1.5714 -0.1805
  895MOL0     H18075   8.181  10.376  10.486  3.9596 -4.4808  2.0531
  895MOL0     H18076   8.250  10.245  10.672  0.8813  1.8402  1.9110
  895MOL0     H18077   8.037  10.266  11.041 -0.6034 -0.2677 -0.1911
  895MOL0     H18078   8.201  10.311  11.009 -0.5383  0.0727 -3.1419
  895MOL0     H18079   8.218  10.178  11.199  0.4422  2.2387 -1.7814
  895MOL0     H18080   8.281  10.085  11.067 -0.0340 -2.3115  1.0376
  895MOL0     H18081   8.022  10.005  11.046 -0.1990  1.7780  0.0070
  895MOL0     H18082   8.013  10.065  11.208 -0.6975 -0.2707  0.9592
  895MOL0     H18083   8.210   9.860  11.106  0.8428  5.1776 -2.1742
  895MOL0     H18084   8.227   9.922  11.264  2.3780  2.4016 -4.1838
  895MOL0     H18085   7.972   9.810  11.186  1.7431  1.7707 -3.0585
  895MOL0     H18086   8.031   9.830  11.358 -0.1932  2.6264 -0.9859
  895MOL0     H18087   8.188   9.636  11.302  1.1056 -2.3656 -0.2029
  895MOL0     H18088   8.142   9.647  11.130 -0.4464  2.5083  0.0406
  895MOL0     H18089   7.938   9.599  11.346  1.2060  0.9064  1.6465
  895MOL0     H18090   7.926   9.551  11.182  0.6613 -1.0969  0.9701
  895MOL0     H18091   8.101   9.438  11.400 -1.7500  1.9478 -0.2783
  895MOL0     H18092   8.144   9.401  11.230  0.7437  0.1212 -1.0087
  895MOL0     H18093   7.936   9.245  11.502 -0.1342 -0.0684 -0.2484
  895MOL0     H18094   7.742   8.964  11.337  2.4514 -0.0609 -0.8273
  895MOL0     H18095   7.689   9.061  11.473 -1.4351 -2.2737  0.3545
  895MOL0     H18096   7.825   8.842  11.516 -1.4350 -0.4795 -1.1779
  895MOL0     H18097   7.896   8.995  11.597 -0.6492  0.9613 -0.7911
  895MOL0     H18098   8.000   8.865  11.349  1.6540 -0.2613  0.6212
  895MOL0     H18099   8.070   9.010  11.431 -2.4335  0.8109 -0.4482
  895MOL0     H18100   8.040   8.825  11.633  0.8255 -1.4429  0.4906
  895MOL0     H18101   8.196   8.873  11.555  0.4419  0.2056 -3.8846
  895MOL0     H18102   8.166   8.526  11.322 -1.0472  4.9754  1.9566
  895MOL0     H18103   8.239   8.281  11.393  4.5410 -0.8283  1.5777
  895MOL0     H18104   8.063   8.000  11.898 -0.2568  0.3872 -0.5844
  895MOL0     H18105   8.108   7.781  11.991 -0.2709  2.0880  0.1906
  895MOL0     H18106   8.489   7.578  11.923 -0.6736  1.7475  1.0838
  895MOL0     H18107   8.377   7.567  11.787 -0.8030 -2.4433 -0.2285
  895MOL0     H18108   8.378   7.391  12.033 -1.3090  1.4842  1.2087
  895MOL0     H18109   8.420   7.354  11.861  0.6719  2.7367 -1.1116
  895MOL0     H18110   8.179   7.425  11.803  0.7941 -1.4101 -0.0911
  895MOL0     H18111   8.161   7.439  11.980 -1.1780 -0.5105 -0.4889
  895MOL0     H18112   8.232   7.190  11.824  0.6386 -1.7093  1.1367
  895MOL0     H18113   8.231   7.181  11.996  0.4778 -0.8903 -0.6787
  895MOL0     H18114   8.011   7.279  11.826  0.1804  2.0634  1.0795
  895MOL0     H18115   7.987   7.257  11.996 -0.9645  1.3119 -1.7089
  895MOL0     H18116   7.895   7.064  11.920 -1.0729  2.6651 -3.2829
  895MOL0     H18117   8.064   7.003  11.956 -1.2684 -0.3052  0.8527
  895MOL0     H18118   8.032   7.099  11.676 -0.0485  0.2237  0.4304
  895MOL0     H18119   8.121   6.968  11.749  0.2524  0.5421  2.3666
  895MOL0     H18120   7.903   6.832  11.753 -1.2760 -0.0376 -1.2509
  895MOL0     H18121   7.941   6.892  11.587 -1.9234  0.2197 -0.8141
  895MOL0     H18122   8.505   7.784  11.869  0.4178 -1.2130 -2.4793
  895MOL0     H18123   8.481   8.016  11.782 -0.4859 -0.0127 -0.9417
  895MOL0     H18124   8.226   8.418  11.797 -1.2342 -0.2515  0.9395
  895MOL0     H18125   8.166   8.628  11.732 -1.1659 -1.3914  0.1195
  895MOL0     H18126   7.873  10.254  10.851  0.0772  2.1787  1.3154
  895MOL0     H18127   7.783  10.424  10.673  0.8609  3.6904  3.3354
  895MOL0     H18128   8.002  10.558  10.223 -1.5230 -0.2420  1.0676
  895MOL0     H18129   7.930  10.658  10.009 -2.2693  0.9918 -2.6695
  895MOL0     H18130   7.822  11.048  10.067  1.0063  2.5163 -1.5715
  895MOL0     H18131   7.655  11.044  10.000 -0.1260  0.5528 -0.0431
  895MOL0     H18132   7.902  10.992   9.823 -0.0165  0.0744 -0.5388
  895MOL0     H18133   7.740  11.018   9.774 -0.6471 -1.2881  0.3859
  895MOL0     H18134   7.906  11.234   9.921 -3.3331  2.0884  2.1009
  895MOL0     H18135   7.739  11.245   9.857  0.5283  0.6864  1.1483
  895MOL0     H18136   7.820  11.205   9.622  1.4206  0.2276 -0.7880
  895MOL0     H18137   7.903  11.347   9.702  2.2225 -0.3346 -2.8933
  895MOL0     H18138   8.229  11.078   9.706  1.2704  2.4454  0.7068
  895MOL0     H18139   7.654  10.911  10.222  1.1248  1.7652  0.5129
  895MOL0     H18140   7.715  10.791  10.439 -0.1385  0.2113 -0.0706
  896MOL0     O18141   7.400   4.781   2.262  0.1124  0.0910  0.4497
  896MOL0     C18142   7.470   4.697   2.317  0.6662 -0.8165  0.1772
  896MOL0     O18143   7.550   4.721   2.423  0.0889 -0.6684 -0.1356
  896MOL0     C18144   7.564   4.855   2.469 -0.2292  1.0738  0.3227
  896MOL0     C18145   7.567   4.971   2.395  0.0725  0.7577  0.3887
  896MOL0     C18146   7.624   5.086   2.446  0.3159  0.6719  0.1568
  896MOL0     C18147   7.672   5.092   2.583 -1.0644  0.4163 -0.5519
  896MOL0     O18148   7.709   5.203   2.652  0.0406 -1.0095  0.2353
  896MOL0     C18149   7.651   5.331   2.604 -0.2212 -0.9762  0.0249
  896MOL0     C18150   7.723   5.441   2.696  0.2103 -0.9153 -0.3988
  896MOL0     C18151   7.668   5.581   2.679 -0.0390  0.4728 -0.5392
  896MOL0     C18152   7.742   5.687   2.772  0.4007  0.3662  0.1174
  896MOL0     C18153   7.683   5.820   2.769 -0.4996  0.8871 -0.0580
  896MOL0     C18154   7.607   5.852   2.899  0.1613 -0.5368 -0.8382
  896MOL0     C18155   7.535   5.984   2.898 -0.2440 -0.0032  0.4918
  896MOL0     C18156   7.475   6.015   3.043  0.7707 -0.1942  0.1719
  896MOL0     N18157   7.364   6.104   3.019 -0.1008  1.0394  0.4391
  896MOL0     C18158   7.233   6.080   3.038  0.0638 -0.4876  0.3538
  896MOL0     C18159   7.179   6.195   3.069  0.1164  0.3941  0.4634
  896MOL0     C18160   7.028   6.228   3.091  0.3667  0.1271 -1.0207
  896MOL0     C18161   6.945   6.108   3.127  0.3631  0.6652 -0.1414
  896MOL0     C18162   6.816   6.088   3.054  0.3314 -0.4619  1.1712
  896MOL0     C18163   6.717   5.980   3.093  1.1050  0.6191 -1.2141
  896MOL0     O18164   6.660   6.018   3.220  0.0053 -0.3928 -0.3158
  896MOL0     C18165   6.578   5.938   3.285  0.2413  0.2657 -0.2979
  896MOL0     C18166   6.574   5.798   3.262  0.7457 -0.0076  0.8223
  896MOL0     C18167   6.477   5.723   3.311  1.1188 -0.7694 -0.4983
  896MOL0     C18168   6.387   5.777   3.403  0.3079  0.5508  0.1471
  896MOL0     C18169   6.275   5.703   3.469 -0.4218  0.4375  0.4426
  896MOL0     O18170   6.244   5.585   3.402  0.3692  0.8235  0.3964
  896MOL0     C18171   6.138   5.510   3.454 -0.5587  0.6643  0.1561
  896MOL0     C18172   6.026   5.499   3.389  0.2515 -0.1292 -0.1449
  896MOL0     C18173   5.934   5.400   3.405  0.6299 -0.3636 -0.2801
  896MOL0     C18174   5.945   5.324   3.523 -0.3537 -0.7008 -0.4918
  896MOL0     O18175   5.852   5.235   3.565 -0.5186 -0.1968  0.0864
  896MOL0     C18176   5.903   5.113   3.610 -0.5500 -1.0187  0.2812
  896MOL0     C18177   5.869   5.096   3.762  0.5698  0.1941  0.4903
  896MOL0     C18178   5.720   5.138   3.777 -0.9809 -0.3283  1.1179
  896MOL0     C18179   5.616   5.083   3.672  0.3146 -0.6368  0.1805
  896MOL0     C18180   5.474   5.125   3.684  0.2302  0.5679  0.5284
  896MOL0     C18181   5.417   5.087   3.817  0.3712  1.2487  0.6806
  896MOL0     C18182   5.267   5.115   3.829 -0.3175  0.1214 -0.6735
  896MOL0     C18183   5.205   5.090   3.965 -0.7529  0.4383  0.6751
  896MOL0    Cl18184   5.286   5.191   4.093 -0.4128  0.0857 -0.4529
  896MOL0     C18185   6.059   5.346   3.606 -0.7301  0.0300 -0.7586
  896MOL0     C18186   6.150   5.447   3.576 -0.1732 -0.3506  0.4618
  896MOL0     O18187   6.223   5.750   3.565 -0.6740 -0.0225  0.0537
  896MOL0     C18188   6.393   5.918   3.428  0.4270 -0.0042 -0.5999
  896MOL0     C18189   6.483   5.999   3.366 -0.1801  1.1144 -1.0100
  896MOL0     N18190   7.280   6.286   3.079  0.3439 -0.0941  1.1582
  896MOL0     N18191   7.391   6.231   3.052 -0.6798 -0.0585 -0.4971
  896MOL0     C18192   7.660   4.973   2.655  0.3631  0.0425 -0.1919
  896MOL0     C18193   7.609   4.857   2.597  0.4262 -0.4479  0.2854
  896MOL0     C18194   7.476   4.564   2.267  0.0537 -0.6699 -0.1909
  896MOL0     C18195   7.429   4.523   2.140 -0.6494 -0.4015 -0.0793
  896MOL0     C18196   7.453   4.392   2.090  0.2374 -0.5357  0.0198
  896MOL0     C18197   7.521   4.294   2.159  0.0983 -0.0725 -0.4011
  896MOL0     O18198   7.562   4.172   2.118  0.4523  0.0115 -0.3619
  896MOL0     C18199   7.559   4.153   1.978 -0.4501  0.3758 -1.5014
  896MOL0     C18200   7.672   4.226   1.898  0.3768  0.2110  0.0685
  896MOL0     C18201   7.661   4.217   1.743  0.2806  0.1353  0.7741
  896MOL0     C18202   7.739   4.319   1.668 -0.7898  0.2460  0.9773
  896MOL0     C18203   7.673   4.449   1.662  0.7937  0.4855  0.1769
  896MOL0     C18204   7.630   4.563   1.666  0.3532 -0.7914  0.3512
  896MOL0     C18205   7.561   4.328   2.290  0.0158  0.3709 -0.8125
  896MOL0     C18206   7.542   4.462   2.341 -0.7761 -0.8707  0.3908
  896MOL0     H18207   7.522   4.978   2.297 -2.6185  1.3564  1.5718
  896MOL0     H18208   7.612   5.170   2.379 -0.0541  0.8088  0.3907
  896MOL0     H18209   7.544   5.317   2.620  0.2228 -1.9892  2.5443
  896MOL0     H18210   7.672   5.353   2.499 -0.0065  1.1397  0.4631
  896MOL0     H18211   7.829   5.432   2.672  1.4091 -1.9909  4.3541
  896MOL0     H18212   7.712   5.404   2.798 -0.5057 -2.7646 -1.0971
  896MOL0     H18213   7.563   5.572   2.707 -0.2426 -1.2106 -1.6628
  896MOL0     H18214   7.659   5.617   2.577  0.9442  1.0425 -0.4359
  896MOL0     H18215   7.727   5.650   2.874 -0.2093  1.4490  0.4364
  896MOL0     H18216   7.844   5.685   2.732  2.6132 -0.6581  5.0571
  896MOL0     H18217   7.631   5.833   2.674  0.3396 -0.6966 -0.7725
  896MOL0     H18218   7.770   5.885   2.767 -0.5931  1.0620  1.0189
  896MOL0     H18219   7.673   5.860   2.986 -1.2875  2.3358  0.1199
  896MOL0     H18220   7.538   5.768   2.913  0.4949 -0.8726 -1.1937
  896MOL0     H18221   7.598   6.065   2.859 -0.4834 -0.8355 -1.7561
  896MOL0     H18222   7.451   5.958   2.833 -0.3160  1.2227  0.0658
  896MOL0     H18223   7.552   6.053   3.111 -0.8198  3.0889  0.3160
  896MOL0     H18224   7.441   5.920   3.086 -3.4268  1.4106  0.8384
  896MOL0     H18225   7.181   5.985   3.026 -2.4623  1.0276 -1.9809
  896MOL0     H18226   6.994   6.243   2.988 -1.6729 -5.1061 -1.4099
  896MOL0     H18227   7.011   6.319   3.150  0.1702 -0.1211 -0.6929
  896MOL0     H18228   6.924   6.099   3.234  1.5461 -0.5799  0.0104
  896MOL0     H18229   7.001   6.016   3.107 -0.3367  0.3830 -0.8666
  896MOL0     H18230   6.763   6.184   3.063  1.8586  0.8102 -1.9218
  896MOL0     H18231   6.834   6.078   2.946  0.0141  5.8052  0.1343
  896MOL0     H18232   6.774   5.887   3.098 -5.1797 -3.8262  2.6219
  896MOL0     H18233   6.637   5.968   3.019  0.7653 -3.2797 -0.3995
  896MOL0     H18234   6.636   5.737   3.197  0.1087  0.3504 -0.1580
  896MOL0     H18235   6.464   5.623   3.271 -1.1768  0.0698 -2.1249
  896MOL0     H18236   6.019   5.553   3.295 -1.2787 -1.8649 -1.0972
  896MOL0     H18237   5.851   5.395   3.336  2.0384 -1.6477 -1.9833
  896MOL0     H18238   6.009   5.106   3.586 -1.0340 -0.8423 -2.2126
  896MOL0     H18239   5.868   5.026   3.554  1.3660 -0.8690 -1.2630
  896MOL0     H18240   5.926   5.165   3.825 -0.1190  1.4431 -0.2002
  896MOL0     H18241   5.889   4.993   3.791 -1.8436  0.3280  3.0654
  896MOL0     H18242   5.705   5.246   3.770 -3.5098 -0.7613 -1.8236
  896MOL0     H18243   5.688   5.104   3.876  0.0113 -1.6157  1.0269
  896MOL0     H18244   5.639   5.119   3.571 -4.5176  0.2481 -0.8883
  896MOL0     H18245   5.636   4.975   3.671  0.3128 -0.6973 -2.4944
  896MOL0     H18246   5.413   5.076   3.608  0.6321  0.1420  0.4717
  896MOL0     H18247   5.469   5.232   3.663 -2.4543 -0.1039 -3.3805
  896MOL0     H18248   5.456   5.150   3.897 -0.1692  2.4609  0.0115
  896MOL0     H18249   5.449   4.983   3.831 -0.2083  0.4428 -2.9440
  896MOL0     H18250   5.263   5.223   3.806  1.1385  0.4247  0.3906
  896MOL0     H18251   5.208   5.071   3.748 -3.7383  3.6136 -0.3817
  896MOL0     H18252   5.204   4.983   3.987  0.3120  0.3491  0.3585
  896MOL0     H18253   5.098   5.112   3.967 -1.2613 -1.8250  1.6323
  896MOL0     H18254   6.071   5.305   3.705  1.4697  0.9776 -0.5815
  896MOL0     H18255   6.228   5.474   3.646 -1.4056  1.5193  1.1861
  896MOL0     H18256   6.331   5.967   3.502  1.0916  0.4069 -0.3106
  896MOL0     H18257   6.479   6.106   3.383  3.8402  1.0079  2.3428
  896MOL0     H18258   7.709   4.986   2.751  1.5963  0.6268 -0.8777
  896MOL0     H18259   7.614   4.762   2.649  2.1990  0.1681  1.3325
  896MOL0     H18260   7.373   4.590   2.075  0.6155  0.2429 -0.5369
  896MOL0     H18261   7.399   4.365   1.999  0.3309  2.5318 -1.0561
  896MOL0     H18262   7.461   4.180   1.938 -0.6189  0.3376 -1.1246
  896MOL0     H18263   7.567   4.047   1.956  3.7213  0.6143 -1.7512
  896MOL0     H18264   7.664   4.331   1.929  1.0413  0.6850 -1.3002
  896MOL0     H18265   7.771   4.192   1.931  0.0039 -2.8847 -1.5761
  896MOL0     H18266   7.564   4.217   1.691  0.5018  0.3569  0.3508
  896MOL0     H18267   7.710   4.122   1.723  0.0366  0.0055  0.7970
  896MOL0     H18268   7.832   4.337   1.723  0.1773 -2.4470  0.3632
  896MOL0     H18269   7.762   4.276   1.570  2.7768  0.5342  1.5309
  896MOL0     H18270   7.607   4.667   1.679  2.6993  0.0235 -1.3384
  896MOL0     H18271   7.602   4.245   2.347 -0.8771 -1.3796 -2.5494
  896MOL0     H18272   7.588   4.499   2.432 -1.2846  1.7772 -0.3411
  897MOL0     O18273   7.551   9.450  10.730  0.1077  0.6433 -0.3812
  897MOL0     C18274   7.639   9.524  10.782 -0.2421  0.9602  0.4821
  897MOL0     O18275   7.762   9.506  10.772 -0.9595 -0.0047  0.5712
  897MOL0     C18276   7.816   9.408  10.697 -0.3650  0.2779 -0.5461
  897MOL0     C18277   7.813   9.412  10.558  0.3463  0.2824  0.2825
  897MOL0     C18278   7.880   9.316  10.482  0.7333 -0.1083 -0.3367
  897MOL0     C18279   7.951   9.210  10.546 -2.4372  1.1197  0.0616
  897MOL0     O18280   8.018   9.117  10.464 -0.1031  0.1736  0.1513
  897MOL0     C18281   8.102   9.015  10.529  0.3782 -0.3313 -0.1495
  897MOL0     C18282   8.155   8.942  10.412 -0.6882  0.8950 -0.1929
  897MOL0     C18283   8.247   8.833  10.449  0.4011  0.9469  0.5739
  897MOL0     C18284   8.305   8.771  10.319  0.0395 -0.7750  0.1985
  897MOL0     C18285   8.391   8.646  10.347 -0.6944 -0.0476  0.1161
  897MOL0     C18286   8.402   8.546  10.239 -0.2646  0.1653  0.5104
  897MOL0     C18287   8.503   8.432  10.259 -0.0577 -0.5958 -0.0918
  897MOL0     C18288   8.535   8.333  10.149 -0.4434  0.4273  0.5020
  897MOL0     N18289   8.636   8.237  10.172 -1.0955  0.3432  0.4167
  897MOL0     C18290   8.654   8.141  10.266  0.3482  0.9349 -0.8478
  897MOL0     C18291   8.781   8.103  10.259 -0.5528  0.2223 -0.5013
  897MOL0     C18292   8.854   8.013  10.352  0.1007  0.6978  0.1401
  897MOL0     C18293   8.969   7.943  10.287 -0.1803  0.0114 -0.6493
  897MOL0     C18294   8.920   7.864  10.167 -0.2324  0.0055 -0.2365
  897MOL0     C18295   9.017   7.748  10.114  0.1884 -0.2771 -0.9656
  897MOL0     O18296   9.053   7.645  10.205 -0.2053 -0.3588 -0.1987
  897MOL0     C18297   9.186   7.620  10.206 -0.3046 -0.3238  0.4687
  897MOL0     C18298   9.233   7.519  10.129  0.2452 -1.1452 -1.0958
  897MOL0     C18299   9.369   7.489  10.123 -0.8673 -0.4649 -0.0754
  897MOL0     C18300   9.463   7.580  10.157  0.3284 -0.1877  0.0570
  897MOL0     C18301   9.609   7.551  10.124 -0.4936 -0.0817  0.8773
  897MOL0     O18302   9.703   7.621  10.192 -0.6780  0.0372  0.0237
  897MOL0     C18303   9.835   7.585  10.189  0.1840  0.0628 -0.3661
  897MOL0     C18304   9.931   7.662  10.112 -0.5296  0.9598  0.0382
  897MOL0     C18305  10.064   7.639  10.119 -0.4784  0.7067 -0.7180
  897MOL0     C18306  10.110   7.532  10.197  0.7225  0.1532  0.1288
  897MOL0     O18307  10.247   7.512  10.195 -0.1212  0.1380 -0.4794
  897MOL0     C18308  10.299   7.390  10.140  0.1299  0.0608  0.2083
  897MOL0     C18309  10.438   7.401  10.097 -0.2392  0.0368 -0.7757
  897MOL0     C18310  10.536   7.414  10.220 -0.8265 -0.4057 -0.2159
  897MOL0     C18311  10.683   7.415  10.173 -0.2654 -0.6373  0.0354
  897MOL0     C18312  10.732   7.552  10.122  0.1107 -0.9561  0.2386
  897MOL0     C18313  10.814   7.549   9.991 -0.7659 -0.2117  0.2871
  897MOL0     C18314  10.733   7.543   9.858 -0.0638  0.1875 -0.1215
  897MOL0     C18315  10.817   7.503   9.734 -0.3071  0.5018  0.7232
  897MOL0    Cl18316  10.885   7.332   9.764  0.0819 -0.0298  0.0163
  897MOL0     C18317  10.026   7.442  10.262  0.6110 -0.7140 -0.6397
  897MOL0     C18318   9.882   7.477  10.267 -0.8514  0.7380 -0.5956
  897MOL0     O18319   9.634   7.458  10.049  0.2129 -0.2608  0.1320
  897MOL0     C18320   9.414   7.683  10.239 -0.6812  0.4134 -0.1283
  897MOL0     C18321   9.283   7.707  10.260 -0.5913 -0.2325 -0.1581
  897MOL0     N18322   8.832   8.173  10.156  0.4588 -0.5465 -0.8025
  897MOL0     N18323   8.756   8.258  10.109 -0.1338  0.3603 -0.4576
  897MOL0     C18324   7.945   9.204  10.686 -0.1497 -1.0125  0.4829
  897MOL0     C18325   7.888   9.308  10.760  0.2108  0.1811 -0.2109
  897MOL0     C18326   7.611   9.636  10.877 -0.5078 -0.2091  0.9508
  897MOL0     C18327   7.469   9.669  10.898 -0.5540  0.5869 -0.5567
  897MOL0     C18328   7.435   9.773  10.995  0.2915  0.1612  0.5391
  897MOL0     C18329   7.542   9.837  11.067 -0.1555  0.3384 -0.0232
  897MOL0     O18330   7.503   9.912  11.172  0.0484  0.2968  0.8015
  897MOL0     C18331   7.579  10.029  11.205 -0.8735  0.2705 -0.6700
  897MOL0     C18332   7.642  10.018  11.353  0.8403  0.3586  0.4454
  897MOL0     C18333   7.542  10.039  11.462  0.7215  0.2244  0.2370
  897MOL0     C18334   7.608  10.035  11.608 -0.0336  0.0050  0.3941
  897MOL0     C18335   7.704  10.140  11.638 -0.4131 -0.6449 -0.2391
  897MOL0     C18336   7.761  10.249  11.645  0.5721  0.0922 -0.0313
  897MOL0     C18337   7.678   9.797  11.036  0.4193 -1.1342  0.4000
  897MOL0     C18338   7.712   9.699  10.947 -0.7823  0.0756 -0.2084
  897MOL0     H18339   7.762   9.499  10.520 -0.9814  0.8491  3.0980
  897MOL0     H18340   7.883   9.320  10.374 -1.6507 -0.3106 -0.4668
  897MOL0     H18341   8.044   8.940  10.583  1.4296 -0.4259  0.9073
  897MOL0     H18342   8.179   9.057  10.595 -0.1465 -0.3802  0.5037
  897MOL0     H18343   8.216   9.020  10.366 -0.2905  0.0216 -1.1850
  897MOL0     H18344   8.091   8.917  10.326  0.0143  2.5376 -1.2465
  897MOL0     H18345   8.200   8.764  10.520 -0.7220  2.5179  1.4073
  897MOL0     H18346   8.327   8.880  10.507 -0.9818  1.7588  1.8818
  897MOL0     H18347   8.218   8.750  10.255 -0.5013  0.1544  0.6000
  897MOL0     H18348   8.353   8.847  10.257 -0.2206 -2.0624 -1.6484
  897MOL0     H18349   8.370   8.601  10.445  1.3602 -0.2977  0.4832
  897MOL0     H18350   8.495   8.675  10.361 -0.9534  0.4700  1.1087
  897MOL0     H18351   8.445   8.596  10.151 -1.4278  0.1133 -0.1012
  897MOL0     H18352   8.311   8.489  10.219  0.4210 -1.0969  0.8891
  897MOL0     H18353   8.595   8.477  10.297 -0.1089 -0.4765 -0.1092
  897MOL0     H18354   8.467   8.378  10.347  2.3616 -1.1369  0.6427
  897MOL0     H18355   8.551   8.388  10.056 -0.4846 -1.4160 -0.6389
  897MOL0     H18356   8.436   8.287  10.143 -1.0444  1.7824 -0.5115
  897MOL0     H18357   8.585   8.111  10.344  0.3149 -0.1005 -1.2562
  897MOL0     H18358   8.784   7.931  10.375  0.5211  0.1530 -0.5117
  897MOL0     H18359   8.892   8.075  10.434 -0.6584  2.9318 -1.1020
  897MOL0     H18360   9.011   7.878  10.364  1.6737 -0.3945 -1.9479
  897MOL0     H18361   9.047   8.015  10.261 -1.0430  0.0074 -3.6458
  897MOL0     H18362   8.826   7.815  10.191  0.1040 -0.6063 -0.1610
  897MOL0     H18363   8.898   7.928  10.081 -1.4621  1.3244  0.9848
  897MOL0     H18364   9.104   7.806  10.082  0.7464  0.1120  1.0774
  897MOL0     H18365   8.976   7.709  10.021  0.8202  0.0582 -1.3945
  897MOL0     H18366   9.160   7.457  10.078 -1.1906  1.1807 -2.0276
  897MOL0     H18367   9.401   7.405  10.062  2.9677 -0.2696  1.4319
  897MOL0     H18368   9.897   7.749  10.058 -0.5394 -0.5441 -2.5550
  897MOL0     H18369  10.133   7.689  10.053  0.3572  1.1769  0.4928
  897MOL0     H18370  10.244   7.376  10.047 -2.2140  1.2861  1.3064
  897MOL0     H18371  10.297   7.299  10.200  4.7905  1.3963  2.9098
  897MOL0     H18372  10.445   7.487  10.029  0.0251 -0.3723 -1.2760
  897MOL0     H18373  10.463   7.314  10.034 -0.6868  0.0029 -0.9081
  897MOL0     H18374  10.535   7.323  10.281  1.9201  0.3191  1.0408
  897MOL0     H18375  10.507   7.498  10.284  3.3478  0.2797  1.0620
  897MOL0     H18376  10.740   7.375  10.258 -2.3123  0.1025  1.8512
  897MOL0     H18377  10.701   7.350  10.087  0.3315 -1.2495  0.6113
  897MOL0     H18378  10.787   7.602  10.202 -1.1375  2.8460 -1.0405
  897MOL0     H18379  10.644   7.614  10.104 -1.6153 -2.9423  1.3306
  897MOL0     H18380  10.899   7.479   9.995  0.1047  0.7372 -0.8930
  897MOL0     H18381  10.870   7.642   9.982  0.0661 -0.5434  1.6992
  897MOL0     H18382  10.651   7.474   9.878  2.6977 -2.2537  4.8065
  897MOL0     H18383  10.696   7.639   9.820 -1.4951 -0.5114 -0.5371
  897MOL0     H18384  10.897   7.577   9.731 -0.5405  0.7710  1.1157
  897MOL0     H18385  10.760   7.500   9.640 -2.3208 -0.2174  1.9223
  897MOL0     H18386  10.062   7.353  10.313  0.6865 -2.5762 -3.6706
  897MOL0     H18387   9.811   7.424  10.329  0.9059  2.3999  3.1440
  897MOL0     H18388   9.489   7.748  10.283  1.0966  0.2048 -2.6497
  897MOL0     H18389   9.245   7.791  10.318 -4.6980 -2.1846  0.2973
  897MOL0     H18390   7.995   9.119  10.732 -0.5344 -2.8546 -2.2873
  897MOL0     H18391   7.894   9.307  10.868  0.8607  0.9764 -0.2302
  897MOL0     H18392   7.390   9.599  10.875  1.4896 -3.6072  3.4615
  897MOL0     H18393   7.330   9.797  11.009 -0.5899 -1.0389 -2.9796
  897MOL0     H18394   7.519  10.120  11.193 -0.9577  0.0579 -1.9191
  897MOL0     H18395   7.669  10.048  11.147  0.3504  1.4776  1.4769
  897MOL0     H18396   7.696   9.924  11.361 -1.3638 -0.9696  0.4926
  897MOL0     H18397   7.709  10.103  11.371 -0.5397  1.6027 -0.0647
  897MOL0     H18398   7.468   9.960  11.449  2.3239 -1.3662  0.3390
  897MOL0     H18399   7.491  10.135  11.449 -0.6078 -0.6989 -1.9948
  897MOL0     H18400   7.535  10.039  11.689 -1.0161 -2.6783 -0.2763
  897MOL0     H18401   7.669   9.945  11.619  1.9902  1.2392 -0.1243
  897MOL0     H18402   7.812  10.342  11.657 -0.0984  0.4745 -0.0733
  897MOL0     H18403   7.756   9.848  11.091 -0.4172  1.7420 -0.8959
  897MOL0     H18404   7.817   9.695  10.921 -1.1140  2.4328 -2.2614
  898MOL0     O18405   8.125   9.724   7.307 -0.3364 -0.4291  0.2490
  898MOL0     C18406   8.115   9.763   7.193 -0.7783 -0.4476  0.8458
  898MOL0     O18407   8.004   9.834   7.147 -0.4640 -0.0695 -0.0396
  898MOL0     C18408   7.895   9.839   7.227  0.5725 -0.3815 -0.1827
  898MOL0     C18409   7.859   9.970   7.263 -0.5763  0.2308  0.0827
  898MOL0     C18410   7.748   9.993   7.347 -0.0602 -0.9668 -0.8802
  898MOL0     C18411   7.679   9.883   7.411 -0.3715 -0.9011 -0.2259
  898MOL0     O18412   7.582   9.917   7.506  0.1605 -0.6488 -0.1725
  898MOL0     C18413   7.501  10.039   7.500 -0.2457 -0.0813 -0.5699
  898MOL0     C18414   7.376  10.019   7.580 -0.1602 -0.0616  0.1545
  898MOL0     C18415   7.287   9.917   7.517 -1.4139  0.2064 -0.6419
  898MOL0     C18416   7.175   9.911   7.625  0.1796  0.2983  0.0033
  898MOL0     C18417   7.086  10.043   7.639  1.1520 -0.4937 -0.0066
  898MOL0     C18418   6.939  10.013   7.664  0.0574 -0.6842 -0.2084
  898MOL0     C18419   6.919   9.943   7.800 -1.2720 -0.3743 -0.0870
  898MOL0     C18420   6.783   9.975   7.865  0.3597 -0.1158  0.2948
  898MOL0     N18421   6.673   9.896   7.814  0.0259 -0.6002 -0.0249
  898MOL0     C18422   6.612   9.922   7.685  0.3585 -0.9308 -0.8155
  898MOL0     C18423   6.501   9.842   7.684 -0.8793 -0.5427  0.4224
  898MOL0     C18424   6.387   9.843   7.589 -0.0813  1.3096 -0.2928
  898MOL0     C18425   6.351   9.991   7.565  0.3519  0.6460  0.3006
  898MOL0     C18426   6.302  10.069   7.685  0.1320  0.8474  0.7765
  898MOL0     C18427   6.248  10.207   7.636  0.0413  0.0136  0.9460
  898MOL0     O18428   6.114  10.194   7.576 -0.2225 -0.4206  0.9188
  898MOL0     C18429   5.996  10.186   7.644 -0.3752 -0.0498 -0.6042
  898MOL0     C18430   5.876  10.233   7.579 -0.6086 -0.2661 -0.3556
  898MOL0     C18431   5.761  10.224   7.642  1.2622 -0.0014  0.1938
  898MOL0     C18432   5.757  10.186   7.784 -0.7209  1.0791  0.2206
  898MOL0     C18433   5.633  10.150   7.847  0.3857 -0.4433  1.1034
  898MOL0     O18434   5.543  10.077   7.758 -0.6497 -0.2441 -0.7060
  898MOL0     C18435   5.434  10.039   7.822 -0.2827 -0.3632  0.7703
  898MOL0     C18436   5.336  10.128   7.860 -0.2076 -0.0150  1.1915
  898MOL0     C18437   5.216  10.080   7.916  0.0675 -0.2640 -0.2355
  898MOL0     C18438   5.183   9.943   7.921 -0.5042 -0.2820  0.0678
  898MOL0     O18439   5.071   9.890   7.981  0.8488  0.6445  0.5040
  898MOL0     C18440   4.965   9.973   8.017 -0.7741  0.4619  0.0183
  898MOL0     C18441   4.824   9.901   7.983 -0.9989 -0.7695 -0.4551
  898MOL0     C18442   4.701   9.992   8.006  0.0222  0.4055  0.1246
  898MOL0     C18443   4.571   9.918   7.994 -0.6627 -0.2916  0.9667
  898MOL0     C18444   4.565   9.828   7.871  0.2947  0.6557  0.8166
  898MOL0     C18445   4.545   9.919   7.752 -0.7949 -0.5126  0.4037
  898MOL0     C18446   4.481   9.857   7.624  0.1965 -0.1470  0.0692
  898MOL0     C18447   4.555   9.736   7.570  0.0070 -0.1527 -0.4462
  898MOL0    Cl18448   4.468   9.676   7.425 -0.2502 -0.0529  0.2561
  898MOL0     C18449   5.283   9.857   7.880 -0.0559  0.3096  0.0730
  898MOL0     C18450   5.404   9.904   7.833  0.9655  0.4797  0.1979
  898MOL0     O18451   5.608  10.188   7.964 -0.3370 -0.1045  0.5482
  898MOL0     C18452   5.881  10.172   7.850  0.3303 -0.7416  0.4079
  898MOL0     C18453   6.000  10.169   7.776  0.3300  0.4741 -0.1611
  898MOL0     N18454   6.499   9.774   7.800  0.2937 -0.6646 -0.2820
  898MOL0     N18455   6.596   9.819   7.885 -0.1874  0.1674 -0.3592
  898MOL0     C18456   7.717   9.751   7.369 -0.2595  0.7313 -0.8388
  898MOL0     C18457   7.821   9.729   7.272 -0.4268 -0.5899  0.4520
  898MOL0     C18458   8.229   9.746   7.097 -0.2124  0.1407 -0.0235
  898MOL0     C18459   8.331   9.657   7.125 -0.3641  0.2444  0.2574
  898MOL0     C18460   8.434   9.642   7.032  0.5676 -0.2041  1.1664
  898MOL0     C18461   8.433   9.709   6.913  0.8700 -0.2686  0.7368
  898MOL0     O18462   8.527   9.700   6.813  0.1007 -0.0067 -0.1962
  898MOL0     C18463   8.636   9.606   6.826  0.0373 -0.0970  0.0585
  898MOL0     C18464   8.593   9.472   6.772  0.2864 -0.0560  0.9379
  898MOL0     C18465   8.709   9.413   6.687 -0.1405  0.7765  0.3167
  898MOL0     C18466   8.669   9.275   6.623  0.0595  0.4041  0.5216
  898MOL0     C18467   8.649   9.170   6.727 -0.3086 -0.0892  0.7070
  898MOL0     C18468   8.637   9.082   6.806  0.9220  0.6535  0.5213
  898MOL0     C18469   8.328   9.805   6.893  0.5640 -0.6380  0.3535
  898MOL0     C18470   8.227   9.822   6.978  0.3049  0.0273 -0.8658
  898MOL0     H18471   7.924  10.045   7.219  0.2735 -0.3226  0.3734
  898MOL0     H18472   7.729  10.098   7.365 -1.6795 -1.0023 -2.0984
  898MOL0     H18473   7.479  10.078   7.400 -0.2995  1.8138  0.1437
  898MOL0     H18474   7.562  10.117   7.547 -2.2681  1.7769 -0.8762
  898MOL0     H18475   7.331  10.119   7.584 -2.0544 -0.8585 -0.0816
  898MOL0     H18476   7.413   9.987   7.678 -2.2647  1.4307  1.5322
  898MOL0     H18477   7.346   9.825   7.512  2.3329  2.3322  0.0647
  898MOL0     H18478   7.257   9.942   7.415 -0.3491 -1.4689 -1.4038
  898MOL0     H18479   7.107   9.831   7.594  1.6626 -1.6243  1.4587
  898MOL0     H18480   7.217   9.877   7.720 -0.8791  0.6291  0.5994
  898MOL0     H18481   7.089  10.082   7.537 -0.3099  1.4750  0.6552
  898MOL0     H18482   7.120  10.124   7.703  0.5004  1.2774 -1.8089
  898MOL0     H18483   6.903   9.960   7.576  0.7622 -0.0219 -0.9091
  898MOL0     H18484   6.890  10.110   7.675 -0.3145 -1.1104  3.1493
  898MOL0     H18485   6.930   9.835   7.788 -1.0885 -0.2094 -1.4886
  898MOL0     H18486   7.007   9.974   7.857 -2.0113 -0.1712  0.9763
  898MOL0     H18487   6.752  10.080   7.857 -0.0334 -0.3117 -1.0808
  898MOL0     H18488   6.788   9.947   7.971  1.7453  0.5349  0.4200
  898MOL0     H18489   6.638   9.992   7.606  3.3213 -2.0881 -1.0076
  898MOL0     H18490   6.308   9.786   7.640 -0.9028  0.5002 -2.3407
  898MOL0     H18491   6.397   9.788   7.494 -6.8828  1.8310 -1.8398
  898MOL0     H18492   6.280   9.984   7.482  1.8524  1.0603 -1.0933
  898MOL0     H18493   6.435  10.048   7.524  0.8469  0.5930  1.2239
  898MOL0     H18494   6.220  10.011   7.727 -0.5045  3.2013  3.0545
  898MOL0     H18495   6.374  10.063   7.767  1.5131  1.6838 -0.3177
  898MOL0     H18496   6.314  10.255   7.563 -1.0989  1.2675  0.7019
  898MOL0     H18497   6.244  10.279   7.718  1.4237 -1.2240  2.1497
  898MOL0     H18498   5.884  10.231   7.470  0.2669  0.9440 -0.3293
  898MOL0     H18499   5.667  10.231   7.587  0.4222  0.6853  1.6593
  898MOL0     H18500   5.354  10.234   7.846 -1.5712  0.2779  1.4946
  898MOL0     H18501   5.140  10.157   7.927  0.4544  0.0434  0.2824
  898MOL0     H18502   4.966  10.064   7.955 -0.1366 -0.6881 -1.7484
  898MOL0     H18503   4.972   9.989   8.125  0.1450 -0.8704  0.1722
  898MOL0     H18504   4.827   9.805   8.035  0.9787 -0.3941  0.2275
  898MOL0     H18505   4.837   9.885   7.876 -2.9179  3.5082 -1.5436
  898MOL0     H18506   4.697  10.080   7.941  1.5720 -0.0159 -0.5675
  898MOL0     H18507   4.706  10.017   8.113 -0.8332 -3.7024  1.2943
  898MOL0     H18508   4.577   9.849   8.079  3.1915 -0.3317  0.8267
  898MOL0     H18509   4.483   9.981   8.011 -0.4433  1.4283 -3.0778
  898MOL0     H18510   4.475   9.766   7.882  0.7163  0.0473  0.8680
  898MOL0     H18511   4.650   9.763   7.850 -0.9752  0.0897 -3.4177
  898MOL0     H18512   4.638   9.967   7.719 -0.8417  0.2813  1.3703
  898MOL0     H18513   4.483   9.998   7.795  2.1853  0.5277  3.2886
  898MOL0     H18514   4.375   9.835   7.641 -0.0061  0.0962 -0.8187
  898MOL0     H18515   4.483   9.924   7.538 -0.0786 -0.6221 -0.3157
  898MOL0     H18516   4.553   9.656   7.644  5.4278  1.9864  2.5726
  898MOL0     H18517   4.655   9.778   7.554 -1.8158  4.2002 -2.0037
  898MOL0     H18518   5.246   9.757   7.864 -3.4946  1.6813 -1.3904
  898MOL0     H18519   5.471   9.832   7.788 -1.1462 -1.2899 -0.2646
  898MOL0     H18520   5.889  10.149   7.956  1.3661  0.8628  0.7156
  898MOL0     H18521   6.094  10.140   7.822  0.8420 -0.9466 -2.0072
  898MOL0     H18522   7.648   9.677   7.408  1.1936  0.9946  2.5703
  898MOL0     H18523   7.855   9.637   7.226  2.5472  0.4718  0.3129
  898MOL0     H18524   8.351   9.603   7.217  2.4639 -1.4281 -1.1930
  898MOL0     H18525   8.499   9.558   7.055 -0.9410 -1.3134  1.4994
  898MOL0     H18526   8.661   9.609   6.933 -0.7368  0.4664  0.2305
  898MOL0     H18527   8.727   9.637   6.773  0.8221 -0.3941  1.1861
  898MOL0     H18528   8.552   9.404   6.848 -0.8070 -1.9561 -1.2555
  898MOL0     H18529   8.515   9.482   6.697  0.3396 -0.6570  0.7987
  898MOL0     H18530   8.798   9.411   6.751 -1.3079 -0.2431  2.0053
  898MOL0     H18531   8.731   9.470   6.597 -0.3654  1.1321  0.4884
  898MOL0     H18532   8.583   9.279   6.556  0.8920 -0.0581 -0.5955
  898MOL0     H18533   8.746   9.240   6.554 -2.3536 -0.9240 -1.6700
  898MOL0     H18534   8.618   9.008   6.880 -0.1526  0.6349  0.2379
  898MOL0     H18535   8.326   9.869   6.806 -0.1135  0.4825  1.1704
  898MOL0     H18536   8.154   9.899   6.955  0.2780  0.9274  1.9076
  899MOL0     O18537   2.438   5.273   4.804  0.0323 -0.5553  0.2161
  899MOL0     C18538   2.463   5.193   4.896  0.4158 -0.1466 -0.1436
  899MOL0     O18539   2.375   5.111   4.967 -0.1618 -1.4142  0.0858
  899MOL0     C18540   2.251   5.077   4.917 -0.3339  0.4428 -0.8886
  899MOL0     C18541   2.172   5.162   4.838 -0.5803 -0.6175 -0.0512
  899MOL0     C18542   2.035   5.134   4.822 -0.0945 -0.0308 -0.6558
  899MOL0     C18543   1.982   5.013   4.862 -0.4859  0.1198  0.8770
  899MOL0     O18544   1.842   5.007   4.832  0.1702  0.3880 -0.2530
  899MOL0     C18545   1.760   4.895   4.864  0.3729 -0.0728 -0.6988
  899MOL0     C18546   1.666   4.885   4.751  0.1417 -0.2472 -0.4273
  899MOL0     C18547   1.566   4.774   4.770 -0.6275 -0.1597 -0.4693
  899MOL0     C18548   1.451   4.757   4.662  0.6455  0.2537  1.0447
  899MOL0     C18549   1.330   4.674   4.708 -0.2197 -0.4107 -0.5742
  899MOL0     C18550   1.343   4.528   4.688 -0.5716  0.1172 -0.2863
  899MOL0     C18551   1.217   4.449   4.703  0.0130  1.0180 -0.5525
  899MOL0     C18552   1.145   4.450   4.840  0.1642 -0.9441  1.0674
  899MOL0     N18553   1.229   4.411   4.954 -0.1253  0.3329  0.3879
  899MOL0     C18554   1.298   4.494   5.036  0.4196 -0.4384 -1.1081
  899MOL0     C18555   1.372   4.417   5.125 -0.1900  1.0022  0.2699
  899MOL0     C18556   1.446   4.465   5.251 -0.5186  0.5490 -0.2431
  899MOL0     C18557   1.543   4.591   5.217 -0.4470  0.5587  0.3949
  899MOL0     C18558   1.673   4.546   5.157  0.0595 -0.4099  0.6421
  899MOL0     C18559   1.777   4.489   5.260  0.5716 -0.0533 -0.0857
  899MOL0     O18560   1.897   4.478   5.181 -0.1600 -0.0916 -0.4645
  899MOL0     C18561   2.015   4.434   5.232  0.5385 -0.0095  0.1920
  899MOL0     C18562   2.025   4.348   5.345  0.7005 -0.1027 -0.2498
  899MOL0     C18563   2.144   4.314   5.390 -0.7073 -0.2803  1.3788
  899MOL0     C18564   2.270   4.368   5.330  0.2559  0.6085  0.5708
  899MOL0     C18565   2.402   4.321   5.390 -0.8438  0.1133 -0.2671
  899MOL0     O18566   2.512   4.362   5.327 -1.2843  1.0517  0.1533
  899MOL0     C18567   2.643   4.331   5.369 -0.6488 -0.1432  0.9900
  899MOL0     C18568   2.686   4.346   5.497  0.8821  0.6943  0.6107
  899MOL0     C18569   2.820   4.346   5.521  0.5748  0.5160 -0.9871
  899MOL0     C18570   2.909   4.318   5.419  0.1135  0.1292  0.3067
  899MOL0     O18571   3.042   4.308   5.432 -0.8512  0.2724  0.2153
  899MOL0     C18572   3.107   4.295   5.565 -0.7545  0.5755 -0.0599
  899MOL0     C18573   3.134   4.435   5.628 -0.9087  0.5705 -0.4257
  899MOL0     C18574   3.247   4.436   5.736 -0.2200 -0.0515 -0.5270
  899MOL0     C18575   3.216   4.332   5.851 -0.1375  0.8262  0.8110
  899MOL0     C18576   3.315   4.336   5.971  0.4350 -0.0462 -0.3079
  899MOL0     C18577   3.459   4.350   5.942  0.5093 -0.3856  1.5261
  899MOL0     C18578   3.534   4.340   6.074 -0.7399  0.9386 -0.3497
  899MOL0     C18579   3.690   4.353   6.057  0.0532  0.7510  0.2310
  899MOL0    Cl18580   3.775   4.220   5.956 -0.5321  0.3944 -0.7843
  899MOL0     C18581   2.860   4.303   5.292 -0.1279  0.5332  0.4611
  899MOL0     C18582   2.728   4.303   5.260  0.2428 -0.2376  0.7569
  899MOL0     O18583   2.397   4.250   5.493  0.0963  0.1693 -0.5994
  899MOL0     C18584   2.254   4.451   5.218 -0.3218 -0.4287  0.1232
  899MOL0     C18585   2.124   4.481   5.163  0.4956  0.6713 -1.1910
  899MOL0     N18586   1.350   4.285   5.087  0.7393 -0.2198 -0.5510
  899MOL0     N18587   1.273   4.287   4.980  0.6668  1.3935 -0.6322
  899MOL0     C18588   2.045   4.926   4.946 -0.6858  1.4691  0.2742
  899MOL0     C18589   2.187   4.952   4.972  0.2080 -0.7967  0.6517
  899MOL0     C18590   2.606   5.184   4.927 -0.2051  0.1038 -0.2078
  899MOL0     C18591   2.698   5.200   4.823 -0.3116  0.6395  0.4473
  899MOL0     C18592   2.834   5.161   4.848 -0.3992 -0.3241  0.0305
  899MOL0     C18593   2.883   5.133   4.972  0.1127  0.5769  0.1699
  899MOL0     O18594   3.018   5.118   4.991 -1.0324 -0.3974  0.2689
  899MOL0     C18595   3.104   5.207   4.904 -0.1049  0.5892 -0.5912
  899MOL0     C18596   3.254   5.205   4.936  0.1795  1.3006  0.4477
  899MOL0     C18597   3.287   5.239   5.083 -0.1373 -0.9648  0.0594
  899MOL0     C18598   3.430   5.194   5.124  0.0280  0.5228  0.3645
  899MOL0     C18599   3.440   5.191   5.267 -0.0552  1.4629  0.6991
  899MOL0     C18600   3.454   5.199   5.385 -0.1627 -0.2481 -0.1197
  899MOL0     C18601   2.794   5.124   5.078 -0.2752  0.4128  0.4084
  899MOL0     C18602   2.660   5.143   5.052 -0.4753 -0.9593  0.4131
  899MOL0     H18603   2.216   5.250   4.792 -1.0725  0.3948  1.3418
  899MOL0     H18604   1.978   5.193   4.752 -1.1313 -1.6327 -1.2382
  899MOL0     H18605   1.696   4.919   4.950 -1.6232 -0.9191 -1.8659
  899MOL0     H18606   1.826   4.808   4.876  1.0354  0.6626  1.5794
  899MOL0     H18607   1.720   4.875   4.657  3.1253  1.5675  0.9438
  899MOL0     H18608   1.615   4.981   4.749 -1.8871 -1.0850  2.9009
  899MOL0     H18609   1.512   4.791   4.863  0.7885 -1.1436  0.5749
  899MOL0     H18610   1.629   4.685   4.777  3.0251  2.3010  1.1067
  899MOL0     H18611   1.411   4.854   4.629  2.0582  0.6363  0.3578
  899MOL0     H18612   1.488   4.706   4.572 -1.7021  3.0267 -1.7386
  899MOL0     H18613   1.249   4.694   4.637 -1.9159  2.3456  1.9338
  899MOL0     H18614   1.302   4.700   4.810  1.8633  0.6758 -0.2238
  899MOL0     H18615   1.410   4.491   4.766  1.5401  1.9741 -1.1091
  899MOL0     H18616   1.381   4.499   4.590 -0.2614  0.5849 -0.3053
  899MOL0     H18617   1.148   4.483   4.625  1.1226  1.4855 -1.3648
  899MOL0     H18618   1.244   4.346   4.677  2.8308  2.0991 -2.4619
  899MOL0     H18619   1.051   4.394   4.842  0.5484 -1.5904  1.4597
  899MOL0     H18620   1.121   4.556   4.852 -0.4547 -0.6642 -1.8908
  899MOL0     H18621   1.290   4.601   5.051 -3.9260 -0.4605 -2.1908
  899MOL0     H18622   1.510   4.385   5.290  0.6759 -1.2023 -5.0627
  899MOL0     H18623   1.374   4.493   5.328 -0.5979  2.7166 -1.0351
  899MOL0     H18624   1.563   4.660   5.299  5.1127 -2.0244  1.7463
  899MOL0     H18625   1.488   4.656   5.150 -1.6571  1.0517  1.8159
  899MOL0     H18626   1.645   4.475   5.079  0.4954 -0.4123  0.4887
  899MOL0     H18627   1.718   4.637   5.116  0.7431 -0.3008  1.5906
  899MOL0     H18628   1.753   4.387   5.291 -0.2928  1.0641  3.3641
  899MOL0     H18629   1.790   4.548   5.351  0.3192 -0.5707  0.2918
  899MOL0     H18630   1.938   4.325   5.404  0.1946 -0.9058 -1.2856
  899MOL0     H18631   2.159   4.247   5.475 -0.9068  0.0304  1.6567
  899MOL0     H18632   2.612   4.364   5.575  2.3136  0.5474  2.0530
  899MOL0     H18633   2.852   4.364   5.623 -0.5982 -0.9010 -0.3305
  899MOL0     H18634   3.209   4.256   5.563 -0.9619  0.0411 -1.0720
  899MOL0     H18635   3.048   4.233   5.632 -0.6348  1.9490  1.3818
  899MOL0     H18636   3.040   4.477   5.663 -0.5329  0.8202  0.2939
  899MOL0     H18637   3.169   4.503   5.550  1.8483 -0.9029 -0.6026
  899MOL0     H18638   3.256   4.538   5.774  0.9769 -0.6151  0.8015
  899MOL0     H18639   3.344   4.418   5.689  0.5270  2.4127 -0.0406
  899MOL0     H18640   3.114   4.335   5.890  0.1933 -1.6641  2.0690
  899MOL0     H18641   3.229   4.235   5.800  3.3812  0.7318  1.6634
  899MOL0     H18642   3.300   4.246   6.032 -3.2615 -0.7423 -1.9587
  899MOL0     H18643   3.280   4.423   6.026 -3.7823 -1.6928  0.0064
  899MOL0     H18644   3.473   4.449   5.898  1.5463 -0.4523  1.6815
  899MOL0     H18645   3.483   4.272   5.870 -1.1183 -1.2627  1.8975
  899MOL0     H18646   3.505   4.411   6.152 -1.7755 -0.9389  1.0515
  899MOL0     H18647   3.505   4.251   6.130 -1.9163  1.9011  0.6187
  899MOL0     H18648   3.734   4.343   6.157 -3.0596 -0.8167  1.6088
  899MOL0     H18649   3.718   4.450   6.016  0.7345 -0.7845 -3.2418
  899MOL0     H18650   2.918   4.279   5.204  1.9743  2.8001  1.1219
  899MOL0     H18651   2.676   4.305   5.165 -4.6288  2.0284  3.0586
  899MOL0     H18652   2.340   4.505   5.180 -0.8415  1.1621  1.1106
  899MOL0     H18653   2.105   4.555   5.087  1.4859  1.9508 -0.2366
  899MOL0     H18654   1.998   4.842   4.997  0.4264  1.4381  1.2757
  899MOL0     H18655   2.251   4.892   5.036  1.5933  0.0703  0.1127
  899MOL0     H18656   2.661   5.225   4.723 -0.0120  1.0125  0.4267
  899MOL0     H18657   2.887   5.171   4.754 -4.9924 -0.5502 -2.9255
  899MOL0     H18658   3.069   5.309   4.924  1.4729  1.2453 -1.0709
  899MOL0     H18659   3.103   5.171   4.801  1.8177 -1.1924 -0.0375
  899MOL0     H18660   3.289   5.106   4.903 -0.0147  1.6912 -1.0059
  899MOL0     H18661   3.293   5.273   4.859 -0.5479  1.1310 -0.0775
  899MOL0     H18662   3.215   5.185   5.146 -0.0393  0.8516  1.8420
  899MOL0     H18663   3.275   5.344   5.112  0.6821 -1.0082  0.5810
  899MOL0     H18664   3.450   5.101   5.070 -1.0166  1.6634 -2.1750
  899MOL0     H18665   3.503   5.270   5.094  0.0563  1.7831  3.2758
  899MOL0     H18666   3.460   5.215   5.491  0.6812  3.3497 -0.5821
  899MOL0     H18667   2.841   5.121   5.176  2.0760  1.8995 -0.5784
  899MOL0     H18668   2.592   5.119   5.133  0.3422 -0.7800  1.1641
  900MOL0     O18669   6.178   8.225   5.473  0.3446 -0.8837 -0.7248
  900MOL0     C18670   6.073   8.159   5.464  0.2396  0.2567  0.4709
  900MOL0     O18671   6.055   8.036   5.526 -0.6302 -0.1024  0.1517
  900MOL0     C18672   6.163   7.975   5.594 -0.3841 -0.0712  1.3526
  900MOL0     C18673   6.196   8.012   5.722  0.2705  0.7527  0.8582
  900MOL0     C18674   6.293   7.954   5.790 -0.6209  0.0500  0.1500
  900MOL0     C18675   6.383   7.875   5.724  0.2584  0.4447  0.3491
  900MOL0     O18676   6.506   7.824   5.773  0.5961 -0.0716 -0.5957
  900MOL0     C18677   6.578   7.911   5.860 -0.0465  0.0243 -0.5076
  900MOL0     C18678   6.553   7.898   6.009 -0.7759  0.0478  0.3585
  900MOL0     C18679   6.620   7.780   6.082  0.6911  1.0150  0.8120
  900MOL0     C18680   6.601   7.779   6.236 -0.6126 -0.3019  0.1390
  900MOL0     C18681   6.635   7.645   6.310  0.4669 -0.1390  0.6329
  900MOL0     C18682   6.777   7.644   6.364 -0.3478  0.2365  0.7845
  900MOL0     C18683   6.814   7.515   6.429  1.2436  0.2218 -0.9170
  900MOL0     C18684   6.835   7.401   6.331  0.3452  0.5964 -0.1972
  900MOL0     N18685   6.846   7.273   6.412  0.8111 -0.4156  0.3167
  900MOL0     C18686   6.944   7.260   6.500 -0.0846 -0.1688  0.0640
  900MOL0     C18687   6.897   7.156   6.589 -0.3251  0.2092  0.5326
  900MOL0     C18688   6.943   7.137   6.726 -0.2064  0.4548 -1.7289
  900MOL0     C18689   6.921   7.255   6.820  1.0730  0.3426 -0.4046
  900MOL0     C18690   6.768   7.285   6.847  0.0055  0.3310  0.5772
  900MOL0     C18691   6.732   7.435   6.840  0.8384  1.3449  0.0581
  900MOL0     O18692   6.583   7.441   6.847  0.5215 -0.3878  0.1231
  900MOL0     C18693   6.527   7.550   6.788 -0.3182  0.7503 -0.1052
  900MOL0     C18694   6.389   7.536   6.768 -0.3422  0.6990 -0.4237
  900MOL0     C18695   6.317   7.620   6.684 -0.5230  0.2805  0.7850
  900MOL0     C18696   6.387   7.726   6.619 -0.2566  0.6420  0.2324
  900MOL0     C18697   6.311   7.816   6.531 -0.3696  0.0009  0.5256
  900MOL0     O18698   6.367   7.938   6.512  0.1996  0.2280 -0.0992
  900MOL0     C18699   6.350   8.027   6.409  0.5137 -0.2377 -0.4229
  900MOL0     C18700   6.442   8.135   6.387 -0.5000  0.3332 -0.2393
  900MOL0     C18701   6.428   8.229   6.282  0.4074 -0.4032  0.4746
  900MOL0     C18702   6.328   8.217   6.192  0.2045  0.7908  0.9486
  900MOL0     O18703   6.325   8.325   6.110  0.3936 -0.1926 -0.6585
  900MOL0     C18704   6.201   8.382   6.066 -1.0122 -0.0356 -0.9348
  900MOL0     C18705   6.256   8.517   6.003  0.2132  0.3674 -0.2781
  900MOL0     C18706   6.177   8.556   5.862 -1.1101  1.2061 -0.6510
  900MOL0     C18707   6.024   8.548   5.873  0.0909  0.3848  0.4938
  900MOL0     C18708   5.944   8.608   5.764 -0.4655 -0.1220 -0.6218
  900MOL0     C18709   5.992   8.592   5.612 -0.7859 -0.7255  0.2971
  900MOL0     C18710   5.938   8.695   5.523  0.3652  0.9949 -0.0220
  900MOL0     C18711   6.033   8.699   5.410  0.0396  1.1710 -0.2319
  900MOL0    Cl18712   5.986   8.818   5.288 -0.2010 -0.8382 -0.3977
  900MOL0     C18713   6.248   8.102   6.195  0.5482  0.0519 -0.1413
  900MOL0     C18714   6.257   8.017   6.308  0.3374  0.1156  0.9863
  900MOL0     O18715   6.206   7.771   6.490 -0.2874 -0.2291 -0.5977
  900MOL0     C18716   6.528   7.742   6.645 -0.1688  0.0366  0.5830
  900MOL0     C18717   6.594   7.657   6.724 -0.2181  0.3720  0.1737
  900MOL0     N18718   6.780   7.107   6.529 -0.0949  0.9835  0.2724
  900MOL0     N18719   6.747   7.183   6.434  1.0203 -0.3200  0.7973
  900MOL0     C18720   6.362   7.838   5.586 -0.4586 -0.2503 -0.3566
  900MOL0     C18721   6.247   7.884   5.522 -0.2429 -0.4914 -0.0624
  900MOL0     C18722   5.969   8.199   5.369 -0.5651 -0.0521  0.7431
  900MOL0     C18723   5.989   8.318   5.294  1.0522 -0.5223  0.0475
  900MOL0     C18724   5.886   8.373   5.214  0.5448 -0.0322  0.2508
  900MOL0     C18725   5.764   8.303   5.199 -0.3791 -0.1610 -0.6773
  900MOL0     O18726   5.669   8.351   5.123 -0.5544 -1.6315 -0.6006
  900MOL0     C18727   5.640   8.286   5.004  0.2142 -0.3877  0.5945
  900MOL0     C18728   5.591   8.391   4.910 -0.2140  0.5815 -0.9131
  900MOL0     C18729   5.697   8.490   4.864 -0.0986 -0.1552  1.1987
  900MOL0     C18730   5.661   8.566   4.741  0.6066 -0.6246 -0.4719
  900MOL0     C18731   5.664   8.488   4.619  0.5510 -1.4279 -0.3297
  900MOL0     C18732   5.660   8.416   4.522  0.2051  1.1623 -0.4491
  900MOL0     C18733   5.741   8.190   5.279 -0.2940  0.3029  0.2599
  900MOL0     C18734   5.844   8.129   5.362  0.0075 -0.7717  0.2683
  900MOL0     H18735   6.119   8.072   5.768 -1.4447 -0.1662 -0.7022
  900MOL0     H18736   6.310   7.973   5.896  2.1474  1.4118 -0.4379
  900MOL0     H18737   6.568   8.018   5.837  1.5052  0.3584  0.2510
  900MOL0     H18738   6.683   7.897   5.831  0.1325  2.0100 -0.9583
  900MOL0     H18739   6.446   7.911   6.027 -1.3386 -1.8352 -1.2706
  900MOL0     H18740   6.597   7.986   6.057 -0.2215 -0.5512  0.9709
  900MOL0     H18741   6.724   7.774   6.048 -0.3366 -0.1128 -2.5371
  900MOL0     H18742   6.580   7.687   6.039 -0.6395  1.6994  0.5332
  900MOL0     H18743   6.658   7.857   6.287 -2.1036  0.7024  0.3344
  900MOL0     H18744   6.494   7.803   6.238 -1.0741 -1.8489 -2.0307
  900MOL0     H18745   6.601   7.552   6.264 -0.5888  0.2559  0.5988
  900MOL0     H18746   6.570   7.647   6.398 -3.1451  0.8393 -1.8404
  900MOL0     H18747   6.790   7.721   6.441  1.7825 -0.4066  1.1291
  900MOL0     H18748   6.847   7.657   6.281 -0.5518 -2.3910  0.1175
  900MOL0     H18749   6.912   7.536   6.473  0.2244  1.5025  0.8530
  900MOL0     H18750   6.738   7.487   6.503  1.0318 -0.7362 -1.4821
  900MOL0     H18751   6.923   7.416   6.267 -0.7331  0.0074 -1.8744
  900MOL0     H18752   6.741   7.385   6.277 -0.5153  0.9338  1.1735
  900MOL0     H18753   7.031   7.318   6.528 -1.1831  0.7291  1.8744
  900MOL0     H18754   7.050   7.114   6.733  0.4229  3.5163  2.3940
  900MOL0     H18755   6.892   7.058   6.781  0.8656  1.0087  0.1495
  900MOL0     H18756   6.963   7.342   6.769  2.3627 -0.4106 -0.6800
  900MOL0     H18757   6.977   7.250   6.914 -1.3816 -0.8297  1.0979
  900MOL0     H18758   6.707   7.238   6.769  0.1167 -2.9771  2.3275
  900MOL0     H18759   6.738   7.242   6.943 -0.2305  0.0231  0.3679
  900MOL0     H18760   6.763   7.472   6.742  1.6969 -2.5813 -1.3401
  900MOL0     H18761   6.773   7.493   6.924  2.7115  1.0586 -0.6099
  900MOL0     H18762   6.343   7.456   6.825 -2.5847  1.9947 -0.3150
  900MOL0     H18763   6.209   7.611   6.692 -0.5845  1.4698  1.6421
  900MOL0     H18764   6.521   8.143   6.462  0.2118  1.9157 -1.1217
  900MOL0     H18765   6.494   8.314   6.296 -0.3569 -0.2857  4.7168
  900MOL0     H18766   6.136   8.407   6.150  1.4925  1.3927  0.6966
  900MOL0     H18767   6.151   8.328   5.985  0.1665 -1.1357 -0.9717
  900MOL0     H18768   6.365   8.518   5.988  0.0083  1.3674 -1.9673
  900MOL0     H18769   6.228   8.598   6.071  0.0345 -0.5631  0.7785
  900MOL0     H18770   6.205   8.494   5.777  1.0933 -0.8067  1.3911
  900MOL0     H18771   6.213   8.655   5.833  0.6139  0.8131  0.0076
  900MOL0     H18772   6.011   8.439   5.862 -0.4710  0.6210 -1.5793
  900MOL0     H18773   5.987   8.574   5.973  3.0157 -0.9093  2.0570
  900MOL0     H18774   5.966   8.712   5.789  0.0592 -0.8793  2.3879
  900MOL0     H18775   5.839   8.579   5.772 -0.3421 -0.0683  2.0746
  900MOL0     H18776   5.967   8.494   5.570  1.4653 -1.2612  0.1053
  900MOL0     H18777   6.099   8.609   5.622 -1.2598  1.2441  3.4251
  900MOL0     H18778   5.843   8.663   5.481  2.2835 -5.1523 -0.5718
  900MOL0     H18779   5.935   8.789   5.579 -2.7696 -0.4772  2.5352
  900MOL0     H18780   6.055   8.607   5.356  1.4139  0.1346  1.9235
  900MOL0     H18781   6.128   8.737   5.449 -0.1258  0.5703  0.8004
  900MOL0     H18782   6.168   8.095   6.122  0.2666  4.8256 -0.6207
  900MOL0     H18783   6.187   7.934   6.303  3.2031 -2.8601  4.4665
  900MOL0     H18784   6.580   7.822   6.594 -2.5374  0.0149 -2.0829
  900MOL0     H18785   6.698   7.676   6.747 -0.5083  0.6903  1.2835
  900MOL0     H18786   6.426   7.766   5.537  2.9417  2.4167 -0.1894
  900MOL0     H18787   6.216   7.862   5.421 -0.2195 -0.2930 -0.1124
  900MOL0     H18788   6.083   8.371   5.290 -0.0432  1.5692  0.7770
  900MOL0     H18789   5.897   8.467   5.162  1.5514  0.3773  1.1736
  900MOL0     H18790   5.554   8.222   5.027  0.9371 -3.1411 -3.3947
  900MOL0     H18791   5.719   8.227   4.958 -0.3264  0.0989 -1.0340
  900MOL0     H18792   5.547   8.344   4.821  2.2641 -3.1333 -0.4063
  900MOL0     H18793   5.521   8.461   4.957 -0.7415 -1.5448  1.7002
  900MOL0     H18794   5.780   8.423   4.845 -1.9044 -2.2038  0.0662
  900MOL0     H18795   5.723   8.559   4.945 -2.2630 -1.9265  3.5592
  900MOL0     H18796   5.563   8.614   4.745  1.0098  0.1206  0.9808
  900MOL0     H18797   5.739   8.642   4.733  0.8568 -1.0161 -2.0141
  900MOL0     H18798   5.643   8.351   4.439 -1.6372  2.2310 -0.9801
  900MOL0     H18799   5.641   8.147   5.283  0.7039 -2.1290  3.2578
  900MOL0     H18800   5.823   8.039   5.419  1.8251 -0.7233  1.0854
  901MOL0     O18801   6.020   4.397   0.499  0.2360  0.3469 -0.4457
  901MOL0     C18802   5.961   4.333   0.411  0.0011  0.9018 -0.6234
  901MOL0     O18803   5.945   4.195   0.399 -0.5956  0.3509 -0.4934
  901MOL0     C18804   6.002   4.115   0.503 -0.4198 -0.1334  0.1391
  901MOL0     C18805   5.924   4.002   0.524  0.0130 -0.0557 -0.2570
  901MOL0     C18806   5.949   3.913   0.627 -0.1329 -0.1875 -0.7325
  901MOL0     C18807   6.071   3.922   0.702  0.0096  0.4955  0.6126
  901MOL0     O18808   6.130   3.838   0.798 -0.2744 -0.0519 -0.0209
  901MOL0     C18809   6.053   3.722   0.822 -0.2907 -0.0184 -0.9516
  901MOL0     C18810   6.111   3.659   0.954  0.2929 -0.4213  1.9529
  901MOL0     C18811   6.048   3.521   0.976 -0.1297  0.0385  1.1758
  901MOL0     C18812   5.942   3.515   1.083 -0.2179  0.0724 -0.1844
  901MOL0     C18813   5.796   3.559   1.047  0.3475 -0.4260  0.6642
  901MOL0     C18814   5.693   3.516   1.156 -0.6613 -0.3308 -0.4970
  901MOL0     C18815   5.539   3.552   1.124 -1.1038 -0.4875  0.0302
  901MOL0     C18816   5.502   3.699   1.112  0.6873 -0.0847 -0.3903
  901MOL0     N18817   5.504   3.747   0.977  0.9325 -0.2650 -0.8804
  901MOL0     C18818   5.404   3.725   0.890 -0.2845 -1.2085  0.0788
  901MOL0     C18819   5.446   3.797   0.775 -0.0015 -0.4279 -0.8333
  901MOL0     C18820   5.370   3.801   0.648 -0.7830  0.0671 -0.0516
  901MOL0     C18821   5.255   3.902   0.664  0.0234 -0.2906 -0.8033
  901MOL0     C18822   5.296   4.049   0.657  0.7818  0.3712 -0.0200
  901MOL0     C18823   5.177   4.129   0.706  0.5842  0.0064 -0.5195
  901MOL0     O18824   5.196   4.274   0.715 -0.4611  0.0891  0.9108
  901MOL0     C18825   5.088   4.348   0.759 -1.3155  1.4169 -0.0492
  901MOL0     C18826   5.100   4.482   0.747  0.1769 -0.4133 -0.4862
  901MOL0     C18827   4.998   4.566   0.789  0.0244  0.1342 -0.1370
  901MOL0     C18828   4.890   4.520   0.859  0.0486  0.7027 -0.6085
  901MOL0     C18829   4.788   4.612   0.924 -0.1982  0.0568  1.6274
  901MOL0     O18830   4.695   4.545   0.989 -0.0968 -0.8308  0.7003
  901MOL0     C18831   4.563   4.584   1.010  0.1788  0.7457 -0.3092
  901MOL0     C18832   4.505   4.705   0.961  0.0658  0.0960 -0.3495
  901MOL0     C18833   4.374   4.737   1.010  0.9346  0.5453  0.6514
  901MOL0     C18834   4.315   4.652   1.103 -0.0977  0.1314  0.1487
  901MOL0     O18835   4.200   4.682   1.155  0.4984  0.3511 -0.1218
  901MOL0     C18836   4.171   4.816   1.204  0.6912 -0.2768  0.4751
  901MOL0     C18837   4.038   4.812   1.277 -0.9986 -0.1494 -0.2009
  901MOL0     C18838   4.015   4.961   1.306 -0.0318  0.8915 -0.0452
  901MOL0     C18839   3.881   4.989   1.373 -0.5181 -0.4555  0.9824
  901MOL0     C18840   3.857   5.142   1.384 -0.1742 -0.2670 -0.0515
  901MOL0     C18841   3.742   5.176   1.466  0.2179  0.2518  0.0327
  901MOL0     C18842   3.733   5.140   1.614 -0.7870 -0.8319  0.1677
  901MOL0     C18843   3.600   5.189   1.675 -0.0567 -0.4546 -0.4391
  901MOL0    Cl18844   3.441   5.109   1.635  0.3825 -0.3152 -0.0170
  901MOL0     C18845   4.375   4.534   1.134 -0.2526  0.0690  0.9962
  901MOL0     C18846   4.497   4.499   1.089 -0.2545 -0.6557  0.6560
  901MOL0     O18847   4.780   4.734   0.899 -0.4228  0.6551  1.0486
  901MOL0     C18848   4.877   4.376   0.865 -0.5821  0.6362  0.4095
  901MOL0     C18849   4.983   4.302   0.825 -0.4403  0.6384  0.2452
  901MOL0     N18850   5.569   3.850   0.803  0.5710 -0.1009  0.7252
  901MOL0     N18851   5.600   3.833   0.924  0.4632  0.5505  0.4415
  901MOL0     C18852   6.151   4.037   0.678 -0.3369 -0.5740 -0.4823
  901MOL0     C18853   6.118   4.131   0.578  0.5473 -0.7551  0.3999
  901MOL0     C18854   5.902   4.410   0.296 -0.0497 -0.2366  0.3472
  901MOL0     C18855   5.916   4.550   0.272  0.1621  0.2848  0.0834
  901MOL0     C18856   5.853   4.618   0.165  0.3883 -0.0571  0.7965
  901MOL0     C18857   5.789   4.539   0.070 -0.2657 -0.1017  1.0955
  901MOL0     O18858   5.723   4.590  -0.045 -0.1116  0.5153  0.1997
  901MOL0     C18859   5.795   4.684  -0.131  1.1092  0.4866  0.0238
  901MOL0     C18860   5.932   4.625  -0.175  0.5453  0.2102  0.4283
  901MOL0     C18861   6.001   4.699  -0.291 -0.8579  0.5728 -0.5313
  901MOL0     C18862   6.137   4.643  -0.320  0.2259  0.4625  0.1051
  901MOL0     C18863   6.180   4.681  -0.451  0.3224 -0.4784 -0.6143
  901MOL0     C18864   6.207   4.721  -0.557 -0.5550  0.4536 -0.2198
  901MOL0     C18865   5.788   4.396   0.082  0.0546 -0.5991  0.1965
  901MOL0     C18866   5.845   4.334   0.192 -0.1075  0.2548  1.2068
  901MOL0     H18867   5.836   3.994   0.461 -0.6978  1.4523  0.4801
  901MOL0     H18868   5.884   3.827   0.638 -1.3107  0.7493 -0.0966
  901MOL0     H18869   6.069   3.651   0.740 -1.3260  0.0312 -1.2082
  901MOL0     H18870   5.945   3.736   0.835 -0.1353  3.0193 -2.1893
  901MOL0     H18871   6.070   3.725   1.031 -0.5968  2.9552 -1.1208
  901MOL0     H18872   6.219   3.668   0.938 -0.2262  3.4339 -0.8264
  901MOL0     H18873   6.123   3.452   1.014  0.2332  0.6034  1.5022
  901MOL0     H18874   6.000   3.486   0.884 -1.8097 -0.1419  2.0832
  901MOL0     H18875   5.957   3.411   1.114  2.2725 -0.3692 -2.5151
  901MOL0     H18876   5.963   3.577   1.170 -2.5724 -1.7931  1.8635
  901MOL0     H18877   5.762   3.521   0.951  1.4480 -2.3713  0.9737
  901MOL0     H18878   5.788   3.667   1.034 -2.2090 -0.6026  0.3718
  901MOL0     H18879   5.710   3.579   1.244 -4.1649 -0.5696  0.5107
  901MOL0     H18880   5.713   3.409   1.173  2.3738 -0.0069 -1.3904
  901MOL0     H18881   5.500   3.490   1.042 -1.9195  2.2045 -1.7452
  901MOL0     H18882   5.501   3.514   1.219  0.9553 -2.1557  0.2485
  901MOL0     H18883   5.572   3.755   1.175 -1.0916  1.1334  0.5840
  901MOL0     H18884   5.404   3.711   1.158  0.5600 -1.4388 -0.2673
  901MOL0     H18885   5.322   3.657   0.906 -1.6364 -0.0586 -1.5892
  901MOL0     H18886   5.311   3.710   0.633 -1.0338 -0.3080  2.5809
  901MOL0     H18887   5.425   3.819   0.556 -0.3344  0.5150  0.2998
  901MOL0     H18888   5.201   3.882   0.757  1.0754  0.0704 -0.1078
  901MOL0     H18889   5.194   3.882   0.575 -0.4790 -1.8212 -0.1450
  901MOL0     H18890   5.377   4.071   0.726  2.4881  3.1316 -2.6373
  901MOL0     H18891   5.324   4.084   0.557  0.4744 -0.1924 -0.3044
  901MOL0     H18892   5.144   4.090   0.802  0.7647 -0.5587 -0.6824
  901MOL0     H18893   5.093   4.100   0.641 -0.7276  0.6597  0.8248
  901MOL0     H18894   5.191   4.526   0.710  1.4585 -2.8521 -0.4723
  901MOL0     H18895   4.997   4.671   0.765 -2.1015  0.2883  0.4480
  901MOL0     H18896   4.560   4.776   0.900  0.5515 -1.1344 -1.4008
  901MOL0     H18897   4.332   4.828   0.970  0.7945  0.3331  0.3079
  901MOL0     H18898   4.173   4.881   1.116  0.3914  0.8841  1.3089
  901MOL0     H18899   4.250   4.850   1.271  2.8062 -0.7489 -1.6337
  901MOL0     H18900   4.050   4.745   1.363 -4.8565 -1.0136 -0.1202
  901MOL0     H18901   3.962   4.771   1.209  1.0639 -0.3647 -2.5329
  901MOL0     H18902   4.008   5.008   1.207 -2.8827  1.2025  0.2204
  901MOL0     H18903   4.096   5.005   1.364 -1.3176 -0.7479  3.2146
  901MOL0     H18904   3.795   4.941   1.326  0.3426 -1.7805  0.7004
  901MOL0     H18905   3.884   4.940   1.471 -0.4833  3.5817  3.1980
  901MOL0     H18906   3.839   5.187   1.286  4.0433  1.8619 -0.0758
  901MOL0     H18907   3.938   5.196   1.434 -0.1110 -0.5648  0.1693
  901MOL0     H18908   3.656   5.122   1.425  0.7056 -0.8519  0.4110
  901MOL0     H18909   3.721   5.283   1.467 -0.8378  0.0689 -0.8280
  901MOL0     H18910   3.730   5.032   1.627 -0.1645 -0.9268 -0.4377
  901MOL0     H18911   3.820   5.185   1.662  0.3110 -2.1839 -0.5014
  901MOL0     H18912   3.589   5.297   1.664  1.6012 -0.0665  1.1873
  901MOL0     H18913   3.624   5.161   1.778  1.9660  2.3074 -0.0407
  901MOL0     H18914   4.332   4.467   1.208  0.8153 -0.6505  0.9967
  901MOL0     H18915   4.536   4.406   1.130 -3.0088 -1.8648  0.7723
  901MOL0     H18916   4.798   4.322   0.915  0.5304 -0.6137  0.9008
  901MOL0     H18917   4.987   4.197   0.854  1.6120  0.9373  1.2183
  901MOL0     H18918   6.239   4.053   0.740 -0.7001  1.8374 -0.5302
  901MOL0     H18919   6.176   4.222   0.569 -3.2771  1.9593  0.7975
  901MOL0     H18920   5.966   4.611   0.347 -3.1227  2.9734  0.3614
  901MOL0     H18921   5.861   4.726   0.157 -1.2886  0.0134 -0.4508
  901MOL0     H18922   5.809   4.779  -0.079  0.2651  0.4299  0.3604
  901MOL0     H18923   5.731   4.702  -0.218 -0.0541 -2.2312  0.2235
  901MOL0     H18924   6.003   4.621  -0.092 -2.1284  2.4809  3.0684
  901MOL0     H18925   5.896   4.530  -0.216 -1.3195  1.1251 -0.1738
  901MOL0     H18926   6.005   4.804  -0.260 -3.3998  0.2022  1.3980
  901MOL0     H18927   5.938   4.688  -0.380 -0.1634  1.5865 -1.1702
  901MOL0     H18928   6.217   4.665  -0.249  1.0202  0.5784 -0.8225
  901MOL0     H18929   6.123   4.534  -0.314 -0.4556  0.5666  0.5454
  901MOL0     H18930   6.239   4.745  -0.656  0.7084  2.5463  0.6308
  901MOL0     H18931   5.746   4.342  -0.003 -3.0657  0.2094  1.0920
  901MOL0     H18932   5.835   4.226   0.179 -3.4521  0.7542 -1.9800
  902MOL0     O18933   4.061   8.545   7.407  0.9500 -0.7188 -0.0477
  902MOL0     C18934   3.986   8.570   7.501 -1.0410  0.9090 -0.4343
  902MOL0     O18935   3.873   8.497   7.539  0.1432  0.3093  0.3373
  902MOL0     C18936   3.839   8.380   7.470  0.5444 -0.1292 -0.7791
  902MOL0     C18937   3.934   8.291   7.417 -0.1774 -0.0625 -0.3050
  902MOL0     C18938   3.891   8.180   7.342 -0.0729 -0.2195  0.0860
  902MOL0     C18939   3.754   8.163   7.315  0.4038  0.2837  0.2491
  902MOL0     O18940   3.712   8.060   7.238  0.9754 -0.7907 -0.0226
  902MOL0     C18941   3.701   8.094   7.099  0.5205 -0.1464  0.4222
  902MOL0     C18942   3.720   7.969   7.012 -0.2091 -0.5240 -0.3250
  902MOL0     C18943   3.866   7.915   7.045  0.2519 -0.5690 -0.2184
  902MOL0     C18944   3.913   7.807   6.946 -0.4964 -0.8533 -0.6130
  902MOL0     C18945   3.835   7.680   6.944  0.4826  0.5226  0.6234
  902MOL0     C18946   3.872   7.601   6.818  0.7365  0.1028  1.0105
  902MOL0     C18947   3.813   7.466   6.822  0.2757 -0.0182  0.1823
  902MOL0     C18948   3.894   7.354   6.752 -0.5420 -0.3257  0.5837
  902MOL0     N18949   3.849   7.329   6.614  0.4298  0.1744 -0.0854
  902MOL0     C18950   3.920   7.377   6.507  0.9911 -0.5866 -0.6075
  902MOL0     C18951   3.867   7.308   6.403  0.9665 -0.5005 -0.7860
  902MOL0     C18952   3.911   7.313   6.266 -0.7018 -0.3809 -0.0203
  902MOL0     C18953   3.950   7.166   6.234 -0.5937  0.0861 -0.8862
  902MOL0     C18954   3.995   7.144   6.088 -0.0399 -0.7759 -0.6888
  902MOL0     C18955   4.039   7.001   6.048 -0.6175  0.6586 -0.1259
  902MOL0     O18956   4.157   6.970   5.970  0.3447 -0.4008  1.0957
  902MOL0     C18957   4.274   7.000   6.034 -1.1010 -0.0962 -0.3770
  902MOL0     C18958   4.377   7.063   5.960 -0.2317 -0.9412 -0.0853
  902MOL0     C18959   4.492   7.116   6.014 -0.4155  0.0925 -0.1949
  902MOL0     C18960   4.508   7.109   6.158  0.1895 -0.2200  0.7349
  902MOL0     C18961   4.621   7.174   6.226 -1.1263  0.1109 -0.2290
  902MOL0     O18962   4.702   7.251   6.150 -0.2031 -0.1303  0.0893
  902MOL0     C18963   4.754   7.359   6.217  0.3164  0.0404  0.0027
  902MOL0     C18964   4.888   7.363   6.233 -0.6084  0.7318 -0.2702
  902MOL0     C18965   4.948   7.464   6.311  0.0167 -0.5035 -0.3757
  902MOL0     C18966   4.876   7.566   6.360 -0.0602 -0.4139 -0.0168
  902MOL0     O18967   4.954   7.667   6.415 -0.1753  1.0437 -0.1395
  902MOL0     C18968   4.936   7.797   6.375  0.6149 -0.8027  0.0166
  902MOL0     C18969   4.856   7.882   6.484  0.4867  0.8424 -1.2888
  902MOL0     C18970   4.904   7.872   6.634  0.5856 -0.2625  0.0842
  902MOL0     C18971   5.050   7.914   6.657  0.5907 -0.4856  0.2402
  902MOL0     C18972   5.057   7.950   6.812 -0.8159  0.2666  0.3211
  902MOL0     C18973   5.203   7.993   6.830 -0.2992  0.1812 -1.1519
  902MOL0     C18974   5.240   7.988   6.983 -0.2608  0.1436  0.7321
  902MOL0     C18975   5.394   8.018   6.994  0.4624 -1.1765 -0.9089
  902MOL0    Cl18976   5.429   8.169   6.901  0.1747  0.2462  0.0217
  902MOL0     C18977   4.737   7.568   6.345  0.8230  0.4057 -0.1719
  902MOL0     C18978   4.677   7.466   6.269  0.4977  0.2858 -0.2824
  902MOL0     O18979   4.615   7.171   6.347  0.3006 -0.5104 -0.4684
  902MOL0     C18980   4.402   7.061   6.235  0.9511 -0.0478 -0.5409
  902MOL0     C18981   4.290   6.995   6.172  0.3515  0.2692 -1.2320
  902MOL0     N18982   3.781   7.209   6.454  1.0037 -0.6064 -1.0231
  902MOL0     N18983   3.764   7.228   6.583  0.0056 -0.4867  0.1432
  902MOL0     C18984   3.660   8.250   7.377 -0.0873  0.1387 -0.8761
  902MOL0     C18985   3.707   8.353   7.458 -0.5580  0.1161 -0.2333
  902MOL0     C18986   4.006   8.685   7.589 -0.4284 -0.5712  0.7665
  902MOL0     C18987   3.942   8.698   7.715  0.7343  0.2009 -0.9840
  902MOL0     C18988   3.973   8.806   7.795 -0.4976  0.0020  0.7738
  902MOL0     C18989   4.076   8.899   7.751  0.0962 -0.6358 -0.2750
  902MOL0     O18990   4.095   9.018   7.817  0.2476  0.2294  0.2465
  902MOL0     C18991   4.053   9.025   7.952  0.3297  0.3924  0.1398
  902MOL0     C18992   4.123   9.146   8.018 -0.2844 -0.3852  0.0939
  902MOL0     C18993   4.064   9.176   8.157 -0.4305  0.0923 -0.4313
  902MOL0     C18994   4.137   9.126   8.276  0.0221  0.6265 -0.1195
  902MOL0     C18995   4.069   9.156   8.403  0.5883 -0.3436  0.1281
  902MOL0     C18996   4.009   9.168   8.504 -0.5077 -0.6566  0.3984
  902MOL0     C18997   4.128   8.896   7.623  0.9029  0.5324  0.5808
  902MOL0     C18998   4.097   8.786   7.542 -0.4557  0.1192 -0.5456
  902MOL0     H18999   4.042   8.302   7.417  0.5420 -4.3795 -3.3419
  902MOL0     H19000   3.968   8.124   7.290 -1.3623 -1.4984 -0.5116
  902MOL0     H19001   3.773   8.164   7.056  1.7775 -2.7332 -2.0728
  902MOL0     H19002   3.600   8.135   7.085  0.8764  1.1444  1.4830
  902MOL0     H19003   3.703   7.981   6.905 -2.5564 -4.6333 -0.6479
  902MOL0     H19004   3.653   7.891   7.049  1.7255 -1.5853  1.1432
  902MOL0     H19005   3.876   7.869   7.144  3.1566 -1.5616 -0.8947
  902MOL0     H19006   3.942   7.993   7.046  1.4085 -1.6068 -2.0535
  902MOL0     H19007   3.924   7.844   6.843  0.7254 -3.1252 -1.3589
  902MOL0     H19008   4.020   7.791   6.960 -0.2325  1.0995 -0.0244
  902MOL0     H19009   3.727   7.687   6.956 -0.3504 -1.2763 -3.6480
  902MOL0     H19010   3.860   7.619   7.031 -1.8559 -1.3241  0.1111
  902MOL0     H19011   3.981   7.590   6.808  0.7556  0.3301  0.9590
  902MOL0     H19012   3.835   7.652   6.729 -1.1973 -0.7266  1.3060
  902MOL0     H19013   3.802   7.428   6.924 -3.4047 -1.1785 -0.5037
  902MOL0     H19014   3.710   7.461   6.785 -0.6518 -1.6467  2.7366
  902MOL0     H19015   3.872   7.261   6.804 -2.2515 -0.7307 -0.7740
  902MOL0     H19016   4.002   7.373   6.755 -0.3950 -0.9277 -0.3862
  902MOL0     H19017   3.989   7.460   6.496 -0.4523  0.5544 -1.5397
  902MOL0     H19018   3.994   7.382   6.253 -1.0559  0.4145  1.6484
  902MOL0     H19019   3.823   7.349   6.211 -1.6325  2.2023  2.8865
  902MOL0     H19020   3.867   7.099   6.261  1.0376 -0.2979  4.1237
  902MOL0     H19021   4.038   7.132   6.289  0.5847  2.3587 -1.2665
  902MOL0     H19022   3.910   7.180   6.029  1.0875  1.3342 -1.1507
  902MOL0     H19023   4.069   7.223   6.070 -2.3345  2.4892  2.6565
  902MOL0     H19024   3.956   6.956   5.993 -0.7473 -2.1172  2.0733
  902MOL0     H19025   4.043   6.940   6.139  1.8059  0.0534 -0.5551
  902MOL0     H19026   4.362   7.061   5.853 -2.0424 -3.9317  0.1084
  902MOL0     H19027   4.580   7.153   5.964 -0.3646  0.6284  0.2778
  902MOL0     H19028   4.945   7.286   6.182  0.2175  0.5509  0.8888
  902MOL0     H19029   5.055   7.463   6.329 -0.5124  1.7890  4.4589
  902MOL0     H19030   4.909   7.809   6.270  0.9295 -1.3201 -0.1256
  902MOL0     H19031   5.043   7.820   6.374  0.9262 -2.1420 -2.0924
  902MOL0     H19032   4.754   7.846   6.492  0.7627  0.3124  0.1051
  902MOL0     H19033   4.860   7.989   6.460 -1.4429  0.7962 -1.9544
  902MOL0     H19034   4.892   7.771   6.674 -4.5133 -0.7215 -1.8845
  902MOL0     H19035   4.845   7.935   6.701  1.4625  1.3516 -0.6280
  902MOL0     H19036   5.118   7.835   6.626  0.7965 -1.4371  2.8304
  902MOL0     H19037   5.062   8.012   6.609 -3.8958 -0.8555 -2.1278
  902MOL0     H19038   5.036   7.862   6.874 -0.0992 -1.7159 -2.0882
  902MOL0     H19039   4.995   8.038   6.828  0.9728  1.8673 -1.1384
  902MOL0     H19040   5.227   8.082   6.771 -0.8801  1.3733  0.3270
  902MOL0     H19041   5.269   7.914   6.793  0.4418  0.8511 -1.2986
  902MOL0     H19042   5.174   8.057   7.037 -0.4072  0.2869  0.3744
  902MOL0     H19043   5.232   7.900   7.047 -3.0195 -1.3533 -1.4252
  902MOL0     H19044   5.459   7.942   6.951  1.2314 -1.3561  0.5331
  902MOL0     H19045   5.414   8.021   7.101  0.0329 -1.8659 -0.8028
  902MOL0     H19046   4.689   7.659   6.377 -1.1597 -0.4212 -0.6433
  902MOL0     H19047   4.572   7.475   6.241  1.2008  3.2403 -2.4481
  902MOL0     H19048   4.403   7.062   6.344  0.4200 -0.0105 -0.5346
  902MOL0     H19049   4.230   6.940   6.244 -0.5107  1.1981 -1.2233
  902MOL0     H19050   3.552   8.250   7.365 -0.4284  4.9489  0.2715
  902MOL0     H19051   3.636   8.418   7.509 -1.2542 -1.4493  0.8824
  902MOL0     H19052   3.872   8.623   7.751  0.5649  1.3239  1.1685
  902MOL0     H19053   3.920   8.820   7.889 -0.5731 -0.2273  0.7643
  902MOL0     H19054   4.094   8.940   8.006  1.6869 -1.0076 -2.8947
  902MOL0     H19055   3.943   9.021   7.956  0.1623  0.2747 -2.6112
  902MOL0     H19056   4.232   9.138   8.023 -0.0763  2.2411  3.7960
  902MOL0     H19057   4.099   9.239   7.965 -1.5412 -0.8300 -0.1708
  902MOL0     H19058   3.957   9.160   8.168 -0.3742  0.0683  0.1287
  902MOL0     H19059   4.078   9.285   8.156 -0.0021  0.0362 -0.9186
  902MOL0     H19060   4.140   9.017   8.262  0.4820  0.6686 -0.3747
  902MOL0     H19061   4.242   9.156   8.282  0.5568 -1.3816  2.2926
  902MOL0     H19062   3.954   9.153   8.595  0.7429  0.2433  1.3491
  902MOL0     H19063   4.191   8.967   7.569  3.6853 -4.0458 -2.9104
  902MOL0     H19064   4.143   8.791   7.444 -2.1467  1.1524 -1.3190
  903MOL0     O19065   3.773  11.239   1.467  0.2820  0.2209 -0.4294
  903MOL0     C19066   3.844  11.156   1.514 -0.7493 -0.3319 -0.2738
  903MOL0     O19067   3.853  11.024   1.473 -0.3855  0.1580  0.2432
  903MOL0     C19068   3.784  10.971   1.362 -0.4817  0.3581 -0.5427
  903MOL0     C19069   3.803  11.037   1.238  0.3057 -0.5298  0.4969
  903MOL0     C19070   3.714  10.998   1.135  0.4167 -0.5791  0.2590
  903MOL0     C19071   3.632  10.894   1.145 -0.0034 -0.2135  0.5180
  903MOL0     O19072   3.561  10.868   1.031  0.2918  0.5117 -0.0054
  903MOL0     C19073   3.613  10.752   0.968 -0.0102 -0.5163 -0.5770
  903MOL0     C19074   3.569  10.768   0.815 -0.2279  0.4142 -0.7508
  903MOL0     C19075   3.611  10.896   0.746 -0.3011 -0.3203  0.5493
  903MOL0     C19076   3.652  10.869   0.605  0.1304 -0.7486 -0.2215
  903MOL0     C19077   3.656  11.002   0.531 -0.3966 -0.2366  0.0579
  903MOL0     C19078   3.773  11.086   0.576  0.1434  1.1353 -0.7591
  903MOL0     C19079   3.768  11.232   0.525 -0.6421 -0.1907  0.0200
  903MOL0     C19080   3.709  11.343   0.614 -0.0001 -0.1412 -0.6037
  903MOL0     N19081   3.763  11.340   0.749  0.2343  0.0387 -0.3086
  903MOL0     C19082   3.880  11.370   0.798  0.3336 -0.8777  0.5125
  903MOL0     C19083   3.863  11.354   0.931 -0.7619  0.0351 -0.3053
  903MOL0     C19084   3.983  11.365   1.025 -0.3345  0.1951  0.2521
  903MOL0     C19085   3.966  11.490   1.122 -0.5450  0.8374 -0.3813
  903MOL0     C19086   3.867  11.460   1.237  0.5970 -0.3567 -0.6857
  903MOL0     C19087   3.857  11.578   1.328 -0.4532 -0.3678  0.6849
  903MOL0     O19088   3.817  11.703   1.260  0.9793  0.1205 -0.3414
  903MOL0     C19089   3.880  11.824   1.288  0.4329 -0.0791  0.1006
  903MOL0     C19090   3.964  11.841   1.389 -0.8343  0.4415 -0.1489
  903MOL0     C19091   4.005  11.968   1.411  0.0743 -0.3920 -0.2027
  903MOL0     C19092   3.966  12.085   1.342  0.2890 -0.3969 -0.1468
  903MOL0     C19093   4.022  12.208   1.397  1.0211 -0.3117  0.6922
  903MOL0     O19094   4.148  12.191   1.454  0.0316 -0.1229 -0.1316
  903MOL0     C19095   4.190  12.292   1.544  0.3428 -0.2012 -0.3658
  903MOL0     C19096   4.111  12.379   1.622  0.1720  0.6074 -0.2010
  903MOL0     C19097   4.162  12.471   1.711 -0.1907  1.4283  0.1370
  903MOL0     C19098   4.298  12.480   1.728 -0.5317 -0.2856  0.1814
  903MOL0     O19099   4.367  12.571   1.799  1.1877 -0.1135  1.3057
  903MOL0     C19100   4.308  12.619   1.917  0.1106 -0.2697 -0.1390
  903MOL0     C19101   4.409  12.710   1.990 -0.4761  0.4250  0.3658
  903MOL0     C19102   4.436  12.832   1.902 -0.6578  0.3513  0.2108
  903MOL0     C19103   4.546  12.911   1.967 -0.0972 -0.4314  0.4496
  903MOL0     C19104   4.617  13.014   1.871 -0.5412  0.1136 -0.1773
  903MOL0     C19105   4.507  13.121   1.825 -0.8848  0.1142  0.3312
  903MOL0     C19106   4.465  13.083   1.685 -0.4175  0.5716  0.0848
  903MOL0     C19107   4.345  13.168   1.629 -0.7227  0.9053 -0.4769
  903MOL0    Cl19108   4.183  13.125   1.707  0.6985 -0.0663  0.3342
  903MOL0     C19109   4.382  12.389   1.661 -0.6796  0.5729  0.1029
  903MOL0     C19110   4.330  12.303   1.563  0.3958  0.2854  0.0958
  903MOL0     O19111   3.975  12.320   1.367  0.0884  0.9181 -0.0056
  903MOL0     C19112   3.871  12.079   1.237  0.1273 -0.6807 -0.8240
  903MOL0     C19113   3.836  11.937   1.207 -0.5454 -0.7613 -0.6094
  903MOL0     N19114   3.732  11.343   0.966  0.8031  0.8778 -0.9276
  903MOL0     N19115   3.676  11.323   0.856  0.1001 -0.4308  0.5618
  903MOL0     C19116   3.625  10.819   1.262 -0.2176 -0.2424 -0.0366
  903MOL0     C19117   3.701  10.861   1.375  0.6875  0.0719 -0.0693
  903MOL0     C19118   3.924  11.195   1.631 -0.0980 -0.5953  0.8023
  903MOL0     C19119   4.026  11.112   1.678 -0.4888  0.1571  0.4916
  903MOL0     C19120   4.089  11.125   1.806 -0.4005  0.1377 -0.4590
  903MOL0     C19121   4.056  11.245   1.881 -0.3063  0.4596 -0.5724
  903MOL0     O19122   4.082  11.279   2.009 -0.0613 -0.0596  0.0247
  903MOL0     C19123   4.180  11.200   2.079 -0.2394  0.3485 -0.1306
  903MOL0     C19124   4.185  11.258   2.214  0.4749  0.2385  0.0566
  903MOL0     C19125   4.222  11.408   2.211 -0.5905  0.2267 -0.0529
  903MOL0     C19126   4.356  11.443   2.154 -0.3395  0.7745  0.5716
  903MOL0     C19127   4.360  11.579   2.133  0.1007 -1.0685 -1.0538
  903MOL0     C19128   4.345  11.698   2.121 -0.0586 -0.5788 -0.8200
  903MOL0     C19129   3.965  11.335   1.824  0.0081  0.0033 -0.0570
  903MOL0     C19130   3.902  11.316   1.698  0.5354  0.8592 -1.0106
  903MOL0     H19131   3.870  11.121   1.225  0.7194 -0.5436  2.3210
  903MOL0     H19132   3.709  11.075   1.058 -2.0911  0.6967  1.5568
  903MOL0     H19133   3.577  10.666   1.026  1.9961 -0.2974  1.0912
  903MOL0     H19134   3.721  10.755   0.986 -0.0312 -0.2311 -0.4975
  903MOL0     H19135   3.460  10.769   0.808 -0.3076 -2.3652 -1.0039
  903MOL0     H19136   3.604  10.684   0.754 -2.1723 -0.2951 -0.9732
  903MOL0     H19137   3.701  10.931   0.797  2.3819 -1.9244 -2.6876
  903MOL0     H19138   3.525  10.964   0.757 -1.1244 -1.5077  1.8286
  903MOL0     H19139   3.738  10.802   0.590  4.0329  3.4694  0.9212
  903MOL0     H19140   3.564  10.817   0.566 -1.4416  1.2853  0.4213
  903MOL0     H19141   3.561  11.052   0.552  0.2583  0.3825  1.6890
  903MOL0     H19142   3.658  10.979   0.424  0.5337 -0.6687  0.1604
  903MOL0     H19143   3.866  11.035   0.549  2.0210  1.8622  3.5961
  903MOL0     H19144   3.783  11.080   0.685  1.9999 -0.5078 -0.9625
  903MOL0     H19145   3.865  11.259   0.483 -1.3327  0.9406 -0.9087
  903MOL0     H19146   3.710  11.233   0.432 -1.7097 -1.2838  0.6421
  903MOL0     H19147   3.600  11.336   0.626  0.2191 -1.7216  0.6696
  903MOL0     H19148   3.744  11.438   0.572 -0.0482 -0.0373 -0.4105
  903MOL0     H19149   3.977  11.401   0.759  0.2281 -0.8251  0.2897
  903MOL0     H19150   4.076  11.369   0.967  0.7484 -0.6652  1.8781
  903MOL0     H19151   3.986  11.270   1.077  2.2069 -0.0049 -0.1370
  903MOL0     H19152   3.942  11.581   1.066  1.1342  1.3807 -0.2770
  903MOL0     H19153   4.063  11.502   1.171  0.9863 -3.5030 -1.8073
  903MOL0     H19154   3.767  11.436   1.201  0.3678 -0.6231  0.1134
  903MOL0     H19155   3.897  11.366   1.284  1.4988  0.2669  0.0323
  903MOL0     H19156   3.951  11.575   1.383  0.3558 -2.3456 -0.6694
  903MOL0     H19157   3.783  11.569   1.408 -0.8219  0.4499  0.4440
  903MOL0     H19158   3.977  11.764   1.464 -1.9088 -0.2697 -0.6789
  903MOL0     H19159   4.064  11.989   1.499  2.1132  0.9053 -1.7897
  903MOL0     H19160   4.004  12.381   1.602  0.1003  2.4400  0.1753
  903MOL0     H19161   4.100  12.538   1.770  0.0506  0.3382  1.7017
  903MOL0     H19162   4.273  12.537   1.980  1.2328 -1.2305 -0.7123
  903MOL0     H19163   4.232  12.688   1.879  0.5946  1.8631  2.4116
  903MOL0     H19164   4.500  12.651   2.009 -0.3118  1.2382  2.3439
  903MOL0     H19165   4.373  12.740   2.088 -1.2962 -3.0035  1.2547
  903MOL0     H19166   4.355  12.906   1.893 -0.7468  0.2492  0.1698
  903MOL0     H19167   4.452  12.805   1.797  2.0046 -1.3651  0.9538
  903MOL0     H19168   4.502  12.952   2.059 -0.7515  0.6384 -0.3178
  903MOL0     H19169   4.625  12.846   2.005 -1.2365 -2.3081 -0.2622
  903MOL0     H19170   4.681  12.971   1.793 -1.8185 -0.7264 -0.7995
  903MOL0     H19171   4.687  13.073   1.930 -0.3273 -0.1136 -0.2060
  903MOL0     H19172   4.557  13.218   1.814 -2.9695  1.1184 -1.1073
  903MOL0     H19173   4.425  13.140   1.896 -2.3255 -1.0405 -0.9534
  903MOL0     H19174   4.553  13.104   1.623 -1.2749  0.3476 -1.2382
  903MOL0     H19175   4.437  12.978   1.677 -0.1677  0.4579  0.6691
  903MOL0     H19176   4.337  13.144   1.523  0.0229 -1.0924 -0.1145
  903MOL0     H19177   4.365  13.276   1.633  1.8359  0.5741 -1.9894
  903MOL0     H19178   4.489  12.398   1.676  0.4504 -5.1221 -1.8070
  903MOL0     H19179   4.383  12.230   1.502  0.2514 -0.8048  1.2276
  903MOL0     H19180   3.832  12.162   1.178  0.3618 -0.3530 -0.5263
  903MOL0     H19181   3.761  11.930   1.129 -1.5045 -2.1263  0.3968
  903MOL0     H19182   3.558  10.734   1.259  1.4242 -1.5553 -0.9252
  903MOL0     H19183   3.695  10.825   1.477 -0.7526  2.0187  0.6043
  903MOL0     H19184   4.055  11.030   1.613 -0.5234  1.0554 -0.6925
  903MOL0     H19185   4.167  11.055   1.833 -1.9868 -0.6380  2.4672
  903MOL0     H19186   4.280  11.208   2.036 -0.2937  0.7489 -0.1810
  903MOL0     H19187   4.153  11.094   2.088  3.0823 -1.0666 -3.8390
  903MOL0     H19188   4.086  11.259   2.262  0.9083 -0.4724  0.9935
  903MOL0     H19189   4.248  11.203   2.285  1.6621  1.6466  0.1378
  903MOL0     H19190   4.224  11.428   2.318 -5.0543 -2.8264  0.8938
  903MOL0     H19191   4.136  11.459   2.166 -0.0740 -0.6957 -2.2622
  903MOL0     H19192   4.422  11.406   2.233 -1.7218  0.8280  1.7951
  903MOL0     H19193   4.379  11.388   2.063  0.6758  2.9497 -0.5757
  903MOL0     H19194   4.328  11.804   2.120 -0.8052 -0.6637 -3.6748
  903MOL0     H19195   3.944  11.423   1.884  2.0501 -1.0496  2.3767
  903MOL0     H19196   3.843  11.398   1.658  2.5253  2.3535 -0.9908
  904MOL0     O19197   7.114   5.139   3.917  0.4412  0.0646 -0.9110
  904MOL0     C19198   7.143   5.255   3.931 -0.6337 -0.6998  0.3206
  904MOL0     O19199   7.273   5.308   3.930 -1.2092  0.9782 -0.3641
  904MOL0     C19200   7.375   5.226   3.980 -0.9220 -0.3793  0.0757
  904MOL0     C19201   7.371   5.137   4.098  0.0274  0.3998 -0.3948
  904MOL0     C19202   7.488   5.069   4.150  0.1322  0.4897  0.3869
  904MOL0     C19203   7.606   5.078   4.076  0.4849 -0.4685  0.4713
  904MOL0     O19204   7.722   5.019   4.112  0.3312  0.8146 -0.4658
  904MOL0     C19205   7.844   5.097   4.142 -0.6010 -0.2737  0.5438
  904MOL0     C19206   7.927   5.022   4.245 -0.8276  0.2725  0.9350
  904MOL0     C19207   7.861   5.047   4.384  0.4853  0.0462  0.2372
  904MOL0     C19208   7.949   4.995   4.500  0.1038  0.4330 -0.1157
  904MOL0     C19209   7.895   5.056   4.626 -1.1589  0.7423 -0.3243
  904MOL0     C19210   7.940   4.981   4.750 -0.4839  0.0986  0.2076
  904MOL0     C19211   7.956   5.058   4.876 -0.8342  1.0742 -0.7732
  904MOL0     C19212   7.969   4.961   4.992  0.2464 -0.1109  0.0972
  904MOL0     N19213   8.006   5.026   5.114 -0.5786  0.2117 -0.4597
  904MOL0     C19214   7.938   5.071   5.229 -0.1447 -0.0610  0.3162
  904MOL0     C19215   8.020   5.146   5.305 -0.8632  0.2188  0.2015
  904MOL0     C19216   7.979   5.236   5.422  0.7622 -0.0437 -0.1542
  904MOL0     C19217   8.069   5.196   5.545  0.7141 -0.4383  0.2048
  904MOL0     C19218   8.206   5.249   5.549 -0.4833 -0.4415 -0.8262
  904MOL0     C19219   8.273   5.214   5.680 -0.6728  0.1850  1.1694
  904MOL0     O19220   8.418   5.220   5.671 -0.3142 -0.6211 -0.3043
  904MOL0     C19221   8.486   5.335   5.684  0.0444 -0.3148  0.4408
  904MOL0     C19222   8.442   5.450   5.763  1.1716 -0.3895 -0.2204
  904MOL0     C19223   8.521   5.564   5.762 -0.3027  0.9259  0.3171
  904MOL0     C19224   8.644   5.564   5.713 -0.5886  0.4918 -0.1631
  904MOL0     C19225   8.715   5.693   5.715  0.3713 -0.8381  0.6239
  904MOL0     O19226   8.659   5.805   5.764  0.6861  0.7116 -0.0131
  904MOL0     C19227   8.726   5.923   5.749 -0.2969  0.2274 -1.9704
  904MOL0     C19228   8.765   5.993   5.864 -0.9373 -0.6472  0.5854
  904MOL0     C19229   8.838   6.112   5.856  0.3094 -0.4344 -0.7291
  904MOL0     C19230   8.867   6.168   5.730  0.2086  0.0599  0.3178
  904MOL0     O19231   8.934   6.281   5.738 -0.5731 -0.1832  0.2800
  904MOL0     C19232   9.017   6.321   5.625  0.0229  0.2995  0.4478
  904MOL0     C19233   9.135   6.393   5.673  0.8313 -0.8117 -0.1616
  904MOL0     C19234   9.225   6.337   5.781 -0.6511  0.2643 -0.3371
  904MOL0     C19235   9.351   6.418   5.805 -0.8363  1.2491 -0.0075
  904MOL0     C19236   9.479   6.335   5.780 -0.9266 -0.6002 -0.5648
  904MOL0     C19237   9.610   6.399   5.824 -0.6956  0.9779 -0.6300
  904MOL0     C19238   9.637   6.538   5.746 -0.8535  0.0543 -0.0131
  904MOL0     C19239   9.785   6.585   5.766 -0.0313  0.7568  0.9277
  904MOL0    Cl19240   9.826   6.581   5.933  0.0182 -0.5294  0.0832
  904MOL0     C19241   8.823   6.106   5.619  0.8070  1.0831  0.4741
  904MOL0     C19242   8.745   5.984   5.627  0.7170 -0.5691  1.1403
  904MOL0     O19243   8.822   5.691   5.655 -0.2350 -0.5202  0.0873
  904MOL0     C19244   8.691   5.453   5.649 -0.4795 -0.8866 -0.0987
  904MOL0     C19245   8.616   5.337   5.640  0.0912 -0.0187 -0.2693
  904MOL0     N19246   8.147   5.156   5.228 -0.2014  0.0346 -0.3771
  904MOL0     N19247   8.136   5.082   5.117 -0.1621  0.7730  0.3334
  904MOL0     C19248   7.615   5.162   3.959 -0.3473 -0.1492  0.9134
  904MOL0     C19249   7.500   5.234   3.916 -1.3964 -0.5521 -0.6237
  904MOL0     C19250   7.034   5.350   3.899 -0.4957  0.4416 -0.8166
  904MOL0     C19251   6.896   5.310   3.904  0.3222  0.4236  0.1558
  904MOL0     C19252   6.790   5.408   3.890 -0.4265 -1.3626  0.1672
  904MOL0     C19253   6.824   5.536   3.856  0.9551 -0.1756  0.4319
  904MOL0     O19254   6.732   5.639   3.851 -0.7332  0.0886  0.1422
  904MOL0     C19255   6.596   5.611   3.848 -0.0284 -0.3709 -1.2203
  904MOL0     C19256   6.507   5.735   3.801  0.5304  0.0753  0.3204
  904MOL0     C19257   6.504   5.866   3.888  0.9566  0.2840  0.2341
  904MOL0     C19258   6.457   5.997   3.807  0.6182  0.7976 -0.1475
  904MOL0     C19259   6.413   6.109   3.884  0.1777 -0.3294 -0.2771
  904MOL0     C19260   6.349   6.204   3.918  0.0009 -0.8575  0.2174
  904MOL0     C19261   6.953   5.578   3.832  0.2587 -0.0925  0.9573
  904MOL0     C19262   7.057   5.484   3.858  0.5363 -0.2991 -0.4777
  904MOL0     H19263   7.274   5.107   4.137  1.1033 -1.7712  0.7802
  904MOL0     H19264   7.481   5.014   4.244  1.3604  0.1686  0.3179
  904MOL0     H19265   7.826   5.201   4.173  1.8841  0.8371 -1.4268
  904MOL0     H19266   7.906   5.115   4.054 -2.4487  1.0845 -0.5437
  904MOL0     H19267   8.029   5.056   4.226 -0.1908 -2.4442 -0.9917
  904MOL0     H19268   7.925   4.916   4.218 -0.6319  0.0811  1.6629
  904MOL0     H19269   7.771   4.985   4.396  2.9228 -3.6475  1.1389
  904MOL0     H19270   7.850   5.155   4.389  1.8456  0.1946  0.3494
  904MOL0     H19271   7.931   4.887   4.512  2.9571 -0.0369  0.4914
  904MOL0     H19272   8.054   5.015   4.481  0.7569 -2.0595  0.4319
  904MOL0     H19273   7.786   5.057   4.622 -1.1532  0.3413 -0.7320
  904MOL0     H19274   7.937   5.157   4.638 -2.5598  1.0933  2.3881
  904MOL0     H19275   8.026   4.916   4.731  0.2684 -0.5665  4.7742
  904MOL0     H19276   7.867   4.901   4.764  0.4225 -0.5239  1.5621
  904MOL0     H19277   8.047   5.119   4.880  0.9801 -1.4484  2.4589
  904MOL0     H19278   7.871   5.125   4.882  0.0056  2.3891 -2.7269
  904MOL0     H19279   8.046   4.886   4.974  0.7994  0.0212  1.7241
  904MOL0     H19280   7.871   4.912   4.987  1.4990 -2.7959  0.2313
  904MOL0     H19281   7.834   5.056   5.257  0.1710  0.4004  1.8456
  904MOL0     H19282   7.873   5.218   5.444  0.8577  0.4163  0.7073
  904MOL0     H19283   7.986   5.341   5.392  2.8158 -0.5146 -1.4753
  904MOL0     H19284   8.080   5.087   5.550  0.8529 -0.4910 -1.0758
  904MOL0     H19285   8.015   5.230   5.634 -0.5044  1.5042 -1.1901
  904MOL0     H19286   8.260   5.210   5.461  3.6176  1.3906  0.6399
  904MOL0     H19287   8.205   5.357   5.533  1.5369 -0.2860 -0.1995
  904MOL0     H19288   8.230   5.116   5.700 -0.8890 -1.2235 -4.6580
  904MOL0     H19289   8.236   5.280   5.759 -0.1857  0.6240  1.0397
  904MOL0     H19290   8.346   5.455   5.813  2.5399 -1.8569  2.8515
  904MOL0     H19291   8.486   5.650   5.818  0.3248 -0.3131  2.7362
  904MOL0     H19292   8.735   5.949   5.958 -1.0145 -0.2121  0.7654
  904MOL0     H19293   8.868   6.171   5.942 -0.5963 -1.8739  0.6166
  904MOL0     H19294   8.966   6.393   5.560  1.6284  1.1689  0.0794
  904MOL0     H19295   9.051   6.238   5.562 -0.6348  0.0418  0.4324
  904MOL0     H19296   9.126   6.499   5.700  1.3002 -0.7377 -0.2716
  904MOL0     H19297   9.190   6.394   5.579 -2.0214 -1.8108 -1.9518
  904MOL0     H19298   9.254   6.241   5.738 -0.6862 -0.3643  1.0033
  904MOL0     H19299   9.176   6.325   5.878  0.2695  0.3089  0.1416
  904MOL0     H19300   9.347   6.508   5.743  0.7715  0.5811 -1.1557
  904MOL0     H19301   9.347   6.447   5.910  1.5165 -0.4935  0.6560
  904MOL0     H19302   9.488   6.302   5.676  0.3707  2.1410 -1.4419
  904MOL0     H19303   9.470   6.246   5.842 -2.0001 -0.7912 -0.9741
  904MOL0     H19304   9.692   6.338   5.785 -1.1039 -0.4905  0.7019
  904MOL0     H19305   9.618   6.414   5.932 -0.0013  4.0323 -1.0286
  904MOL0     H19306   9.612   6.513   5.642  0.3385  0.8624 -0.5119
  904MOL0     H19307   9.562   6.612   5.776 -1.8231 -0.8423 -0.1575
  904MOL0     H19308   9.796   6.683   5.718  0.7406  0.6549  0.8843
  904MOL0     H19309   9.851   6.517   5.711 -1.5831 -0.9947  1.1102
  904MOL0     H19310   8.854   6.152   5.526 -1.0770  0.7744 -0.3693
  904MOL0     H19311   8.700   5.935   5.541 -1.3683  2.4052  0.3820
  904MOL0     H19312   8.789   5.457   5.602 -1.1331 -3.3504 -1.9057
  904MOL0     H19313   8.652   5.246   5.593 -0.4508  0.7811 -2.3021
  904MOL0     H19314   7.705   5.162   3.899  0.2109 -2.5629  1.6424
  904MOL0     H19315   7.513   5.275   3.816  2.3804 -4.3368 -1.9853
  904MOL0     H19316   6.870   5.206   3.923  0.6763  0.4415  0.7418
  904MOL0     H19317   6.687   5.375   3.904 -1.0517 -0.4695 -1.9432
  904MOL0     H19318   6.566   5.575   3.947  1.5137  0.5956 -0.3578
  904MOL0     H19319   6.571   5.523   3.788 -1.6743  0.0120 -1.1585
  904MOL0     H19320   6.526   5.748   3.694 -0.0888 -1.9645 -0.0924
  904MOL0     H19321   6.403   5.700   3.804 -1.0988  3.5772 -4.2597
  904MOL0     H19322   6.605   5.877   3.927  0.4449 -0.9111  2.0225
  904MOL0     H19323   6.447   5.836   3.976 -1.3694 -0.9570 -1.5787
  904MOL0     H19324   6.542   6.021   3.743  0.5507 -2.2414 -1.5567
  904MOL0     H19325   6.380   5.962   3.739  2.0796 -0.7837 -1.0636
  904MOL0     H19326   6.281   6.284   3.943  1.8471  2.0376 -3.0526
  904MOL0     H19327   6.971   5.682   3.808 -0.5884 -0.0338  0.5622
  904MOL0     H19328   7.156   5.527   3.845 -0.4522  3.5343  2.5798
  905MOL0     O19329   7.418   0.529   7.774  0.7386  0.3443 -0.0367
  905MOL0     C19330   7.492   0.454   7.719  0.2030 -0.2583  0.0218
  905MOL0     O19331   7.578   0.371   7.780 -0.1287  0.6277 -0.0334
  905MOL0     C19332   7.553   0.332   7.908 -0.1442  0.1263  0.2908
  905MOL0     C19333   7.664   0.313   7.985  0.4861  0.5245  0.8848
  905MOL0     C19334   7.644   0.254   8.113 -0.9947  0.8011  0.0381
  905MOL0     C19335   7.519   0.215   8.157 -0.4190  0.1677  0.8020
  905MOL0     O19336   7.493   0.157   8.277 -0.0175 -0.5386  0.5839
  905MOL0     C19337   7.558   0.222   8.383  1.3902 -0.8715 -0.7998
  905MOL0     C19338   7.490   0.170   8.516 -0.3123 -0.6847 -0.1834
  905MOL0     C19339   7.345   0.226   8.535 -1.0146 -0.0142  0.9096
  905MOL0     C19340   7.281   0.159   8.652 -0.4654  0.0613 -0.8246
  905MOL0     C19341   7.162   0.073   8.610  0.1403  0.3083 -0.3821
  905MOL0     C19342   7.079   0.042   8.739  0.6820 -0.5186  0.2298
  905MOL0     C19343   6.946  -0.044   8.726 -1.5688  1.0078 -0.3745
  905MOL0     C19344   6.966  -0.178   8.657 -0.0965 -0.0873 -0.0450
  905MOL0     N19345   6.921  -0.303   8.727  0.2326 -0.3710 -0.0606
  905MOL0     C19346   6.854  -0.305   8.849  0.9412  0.4378 -0.2920
  905MOL0     C19347   6.826  -0.433   8.880 -0.1077  0.1372  0.6384
  905MOL0     C19348   6.749  -0.495   8.997 -0.3554 -0.6237 -0.0341
  905MOL0     C19349   6.781  -0.425   9.121 -0.5157 -0.0196 -0.9969
  905MOL0     C19350   6.725  -0.505   9.244 -0.0084 -0.5218 -0.3408
  905MOL0     C19351   6.820  -0.473   9.356  0.6185 -0.7189 -0.0972
  905MOL0     O19352   6.758  -0.512   9.476  0.1661 -0.1460 -0.7629
  905MOL0     C19353   6.813  -0.462   9.594 -0.0495 -0.5489  1.2461
  905MOL0     C19354   6.741  -0.508   9.705  0.0846  0.2738  0.2206
  905MOL0     C19355   6.768  -0.444   9.825 -0.3990 -0.2060  0.6761
  905MOL0     C19356   6.873  -0.355   9.842  0.2144  0.1942 -0.6797
  905MOL0     C19357   6.901  -0.297   9.971 -1.2818 -1.0154 -0.2816
  905MOL0     O19358   6.821  -0.333  10.069  0.2394 -0.2910  0.1891
  905MOL0     C19359   6.856  -0.328  10.207 -0.1802  0.1272  0.3669
  905MOL0     C19360   6.760  -0.323  10.311  0.6182  0.4816 -0.8732
  905MOL0     C19361   6.805  -0.300  10.448  0.5390  0.5179  0.4390
  905MOL0     C19362   6.946  -0.286  10.472  1.0509  0.6619  0.8330
  905MOL0     O19363   6.994  -0.272  10.599  0.1533  0.6001 -0.2039
  905MOL0     C19364   7.072  -0.152  10.614 -0.0688  0.5950 -0.6330
  905MOL0     C19365   7.043  -0.103  10.755  0.6165 -0.3807  0.1937
  905MOL0     C19366   7.160  -0.073  10.846 -0.3684 -0.0349 -0.0225
  905MOL0     C19367   7.212   0.071  10.851  0.2490  0.7041 -0.5715
  905MOL0     C19368   7.361   0.059  10.899 -0.1777  0.2115 -0.5134
  905MOL0     C19369   7.409   0.199  10.931  0.9561 -0.8556  1.1110
  905MOL0     C19370   7.547   0.214  10.995 -0.3421  0.3077  0.3672
  905MOL0     C19371   7.564   0.121  11.107  0.4034  0.2654 -0.3215
  905MOL0    Cl19372   7.693   0.152  11.218 -0.1587  0.8109 -0.2811
  905MOL0     C19373   7.032  -0.317  10.371  1.2784  0.9493 -0.0607
  905MOL0     C19374   6.994  -0.330  10.242  0.5238  0.4437 -0.5975
  905MOL0     O19375   6.996  -0.219   9.977  0.6430  0.2721  0.2581
  905MOL0     C19376   6.939  -0.304   9.730 -0.5085 -0.4048  0.5592
  905MOL0     C19377   6.920  -0.364   9.609  1.1083  0.6583 -0.1608
  905MOL0     N19378   6.877  -0.504   8.775  0.4634 -0.4047 -0.1714
  905MOL0     N19379   6.934  -0.430   8.685  0.4061 -0.3618 -0.2651
  905MOL0     C19380   7.410   0.221   8.070  0.3728  0.3195  0.9377
  905MOL0     C19381   7.427   0.283   7.951 -1.4077  1.0243  0.2012
  905MOL0     C19382   7.494   0.451   7.573  0.0547  0.3870  0.3365
  905MOL0     C19383   7.436   0.553   7.504 -0.0710 -1.0645 -0.0622
  905MOL0     C19384   7.441   0.562   7.358 -0.0918  0.0061  0.5927
  905MOL0     C19385   7.513   0.456   7.288  0.4577 -1.3214  0.4333
  905MOL0     O19386   7.541   0.458   7.154  0.0819  0.6958 -0.1186
  905MOL0     C19387   7.472   0.545   7.068 -0.1731 -1.0418  0.4564
  905MOL0     C19388   7.531   0.684   7.061  0.5414  0.1609  0.7007
  905MOL0     C19389   7.687   0.691   7.051  0.2958 -0.0380  0.5986
  905MOL0     C19390   7.751   0.605   6.942 -1.2262  0.2046  0.2655
  905MOL0     C19391   7.697   0.640   6.814  0.3292 -0.7781  0.0559
  905MOL0     C19392   7.636   0.675   6.708 -0.6301 -0.5795 -0.9374
  905MOL0     C19393   7.574   0.360   7.367 -0.4281  0.8828 -0.0077
  905MOL0     C19394   7.567   0.353   7.508 -0.0818 -0.4212  0.6058
  905MOL0     H19395   7.751   0.344   7.927 -0.4507 -1.1999 -1.6558
  905MOL0     H19396   7.725   0.239   8.183 -1.1940  2.0492  0.5713
  905MOL0     H19397   7.553   0.331   8.381 -0.2847 -0.9121 -0.3644
  905MOL0     H19398   7.666   0.208   8.376  1.6650  0.8240 -0.4362
  905MOL0     H19399   7.538   0.203   8.608 -0.7411  0.9899 -0.5213
  905MOL0     H19400   7.495   0.061   8.514  2.0845 -0.6227 -0.4837
  905MOL0     H19401   7.287   0.208   8.444  0.1442 -2.6913  0.5978
  905MOL0     H19402   7.356   0.334   8.548  0.0778 -0.2353  2.1115
  905MOL0     H19403   7.354   0.096   8.704 -0.8964 -1.6042 -2.1240
  905MOL0     H19404   7.250   0.232   8.727  0.4011 -1.7611  1.4435
  905MOL0     H19405   7.208  -0.021   8.579 -1.1156 -1.0319  1.5883
  905MOL0     H19406   7.099   0.116   8.531  0.8024  1.2013 -0.4353
  905MOL0     H19407   7.048   0.134   8.789 -1.1935 -0.3550 -1.1063
  905MOL0     H19408   7.151  -0.010   8.803  2.5533  0.2741 -1.1277
  905MOL0     H19409   6.899  -0.049   8.824 -0.4790  2.2217  0.2574
  905MOL0     H19410   6.893   0.021   8.656  0.4070  0.5604 -2.4149
  905MOL0     H19411   7.074  -0.181   8.639 -0.0834 -0.0215  0.0234
  905MOL0     H19412   6.918  -0.188   8.559  1.4853 -1.1412 -0.7594
  905MOL0     H19413   6.827  -0.220   8.912 -1.2884 -1.3136  1.2738
  905MOL0     H19414   6.765  -0.603   9.005 -1.3526 -1.0048 -2.3794
  905MOL0     H19415   6.641  -0.482   8.991 -0.4206 -0.5359  1.0561
  905MOL0     H19416   6.730  -0.329   9.111 -0.0555  0.5301  1.3206
  905MOL0     H19417   6.887  -0.401   9.114 -0.1746 -1.0559  0.2781
  905MOL0     H19418   6.625  -0.469   9.272 -0.1163 -1.8896  1.1819
  905MOL0     H19419   6.715  -0.614   9.234  1.3487 -0.6382 -0.5829
  905MOL0     H19420   6.838  -0.366   9.347  2.8844 -1.0385  0.2156
  905MOL0     H19421   6.914  -0.527   9.346 -0.6061 -2.7950 -1.1698
  905MOL0     H19422   6.671  -0.591   9.697  0.3218  0.2402 -2.0132
  905MOL0     H19423   6.700  -0.474   9.904  0.9028  0.9888  2.3333
  905MOL0     H19424   6.653  -0.314  10.295  1.1370  4.8400 -3.6901
  905MOL0     H19425   6.733  -0.285  10.528 -0.6140 -0.7007 -0.3301
  905MOL0     H19426   7.030  -0.072  10.553 -1.0190  1.2117  0.7783
  905MOL0     H19427   7.177  -0.167  10.589  0.6098  1.6262  1.4092
  905MOL0     H19428   6.985  -0.180  10.807  1.2176 -1.1255 -0.2132
  905MOL0     H19429   6.988  -0.008  10.752  0.6011 -0.3701  0.7172
  905MOL0     H19430   7.244  -0.138  10.821 -1.3465 -1.3510  0.0004
  905MOL0     H19431   7.135  -0.102  10.949 -1.7156  1.3240  0.0688
  905MOL0     H19432   7.213   0.117  10.751 -0.7052 -1.9966 -1.9235
  905MOL0     H19433   7.145   0.127  10.917 -0.2007  0.0229 -0.4359
  905MOL0     H19434   7.420   0.008  10.822 -0.5967 -1.8838  0.4836
  905MOL0     H19435   7.367  -0.009  10.985 -1.3926  2.4540  1.4668
  905MOL0     H19436   7.340   0.259  10.991  1.4479 -1.1782  2.0178
  905MOL0     H19437   7.424   0.248  10.834  1.6816  0.2444  1.7637
  905MOL0     H19438   7.622   0.198  10.916 -0.1720  2.1631  0.1011
  905MOL0     H19439   7.564   0.321  11.010 -0.3697  0.4367 -0.4510
  905MOL0     H19440   7.577   0.021  11.063  1.7664 -0.1097  0.8892
  905MOL0     H19441   7.471   0.108  11.163 -1.1946  1.5488 -2.5214
  905MOL0     H19442   7.136  -0.339  10.391  1.3758 -0.5536 -1.8598
  905MOL0     H19443   7.073  -0.344  10.169  1.3097  2.1680 -0.1206
  905MOL0     H19444   7.027  -0.241   9.730  2.2596 -3.8546 -1.9776
  905MOL0     H19445   6.989  -0.338   9.529  4.1476 -1.1806  1.6897
  905MOL0     H19446   7.319   0.177   8.110  0.6502 -0.6979  0.4981
  905MOL0     H19447   7.341   0.282   7.885 -0.2756  0.3618 -1.3216
  905MOL0     H19448   7.381   0.635   7.550 -0.0337  0.2576 -2.2286
  905MOL0     H19449   7.405   0.652   7.307  0.6029 -0.9273 -1.6896
  905MOL0     H19450   7.367   0.561   7.096 -0.6972  1.6837 -2.4770
  905MOL0     H19451   7.477   0.507   6.966  0.5423  2.1801 -0.8456
  905MOL0     H19452   7.483   0.717   6.968 -3.2137 -0.1179  2.3877
  905MOL0     H19453   7.502   0.742   7.148  3.6730  1.6409  0.8843
  905MOL0     H19454   7.731   0.661   7.147 -0.0510  0.9648  1.0844
  905MOL0     H19455   7.708   0.796   7.030 -1.7794  0.1731 -0.6421
  905MOL0     H19456   7.857   0.624   6.922 -1.1866 -0.1631  0.1204
  905MOL0     H19457   7.727   0.500   6.959 -2.0520 -0.1887 -2.7468
  905MOL0     H19458   7.597   0.716   6.618 -2.8013 -0.4237  0.0218
  905MOL0     H19459   7.613   0.276   7.309 -3.0291 -0.7249  0.4271
  905MOL0     H19460   7.624   0.269   7.546 -0.0632 -1.9802 -2.5489
  906MOL0     O19461   8.667   8.201   8.289 -0.3638  0.5346 -0.2936
  906MOL0     C19462   8.582   8.200   8.374  0.4174  0.1208 -0.3827
  906MOL0     O19463   8.549   8.108   8.464 -0.1723 -0.0949 -0.8667
  906MOL0     C19464   8.621   7.991   8.486  0.4655 -0.0260 -0.5369
  906MOL0     C19465   8.543   7.880   8.509 -0.0345  0.3997  0.2369
  906MOL0     C19466   8.614   7.760   8.555  0.9383  0.2053  0.0253
  906MOL0     C19467   8.752   7.760   8.566  0.0319  0.3629 -0.6050
  906MOL0     O19468   8.831   7.656   8.599 -0.2700 -0.2068 -0.4382
  906MOL0     C19469   8.775   7.540   8.657 -0.2774  0.1406  0.1864
  906MOL0     C19470   8.867   7.424   8.625  0.4960 -0.2165 -0.6185
  906MOL0     C19471   8.813   7.281   8.655 -0.5925  0.0966 -0.0602
  906MOL0     C19472   8.890   7.159   8.608 -0.2037 -0.9398 -0.6865
  906MOL0     C19473   8.898   7.131   8.461  0.4897  0.2642  0.1443
  906MOL0     C19474   8.934   6.976   8.452 -0.3823  1.0189  0.4606
  906MOL0     C19475   8.909   6.912   8.319  0.6131  0.4770 -0.8624
  906MOL0     C19476   9.040   6.933   8.237  0.3910 -0.2974 -0.2249
  906MOL0     N19477   9.130   6.807   8.218  0.7559 -0.3569 -0.1971
  906MOL0     C19478   9.152   6.711   8.316 -0.1672  0.2925  0.0225
  906MOL0     C19479   9.214   6.614   8.241 -0.4885 -0.9213 -0.3462
  906MOL0     C19480   9.268   6.485   8.299  0.0880 -0.2602  0.4436
  906MOL0     C19481   9.424   6.485   8.303  0.2989 -0.6193 -0.1671
  906MOL0     C19482   9.477   6.580   8.409  0.7047  0.1963  0.6577
  906MOL0     C19483   9.606   6.521   8.473 -0.6024  0.0769 -0.1788
  906MOL0     O19484   9.648   6.593   8.595  0.4536  0.0710 -0.4592
  906MOL0     C19485   9.705   6.718   8.591  0.0544  0.3449 -0.7148
  906MOL0     C19486   9.737   6.776   8.718  0.1347  0.6064  0.4157
  906MOL0     C19487   9.776   6.910   8.733 -0.2191 -0.1292  0.3955
  906MOL0     C19488   9.784   6.993   8.620  0.0845 -0.4046 -0.3228
  906MOL0     C19489   9.821   7.142   8.615 -0.6837 -0.1495  0.1539
  906MOL0     O19490   9.877   7.194   8.497 -0.0448  0.5418 -0.7478
  906MOL0     C19491   9.880   7.329   8.473 -0.5625 -0.0920 -0.2825
  906MOL0     C19492  10.004   7.405   8.487 -0.1154 -0.9629 -0.4044
  906MOL0     C19493  10.004   7.544   8.455 -0.2041 -0.2610 -0.6180
  906MOL0     C19494   9.880   7.603   8.442 -0.6550  0.5949 -0.1033
  906MOL0     O19495   9.862   7.738   8.441 -0.2183  0.2049 -0.5038
  906MOL0     C19496   9.969   7.824   8.455  0.2861  0.7212 -0.9145
  906MOL0     C19497  10.036   7.841   8.325 -0.2121  0.1083  0.5818
  906MOL0     C19498   9.950   7.902   8.208 -0.8900  0.3979 -0.3589
  906MOL0     C19499   9.844   7.808   8.137  0.3061  0.3589 -0.9473
  906MOL0     C19500   9.795   7.855   7.998  0.2972  0.4164 -0.5752
  906MOL0     C19501   9.719   7.757   7.920 -0.3205  0.4884 -0.1023
  906MOL0     C19502   9.793   7.622   7.885 -0.6033 -0.2575  0.0137
  906MOL0     C19503   9.695   7.521   7.829  0.3195  0.1636  0.5284
  906MOL0    Cl19504   9.631   7.582   7.670 -0.1846 -0.0724 -0.4207
  906MOL0     C19505   9.766   7.528   8.436  0.6261 -0.0954 -0.2766
  906MOL0     C19506   9.754   7.390   8.448  0.2564  0.4946 -0.0141
  906MOL0     O19507   9.806   7.210   8.716  0.2399 -0.7576  0.1249
  906MOL0     C19508   9.770   6.931   8.496  0.2739  0.8757 -0.2917
  906MOL0     C19509   9.717   6.802   8.476 -0.1928 -1.2119 -0.7117
  906MOL0     N19510   9.211   6.641   8.110 -0.2730  0.4200 -0.2195
  906MOL0     N19511   9.152   6.748   8.097  0.2203 -0.4402  0.4114
  906MOL0     C19512   8.815   7.877   8.543  0.8118  0.8559 -0.1118
  906MOL0     C19513   8.755   7.994   8.506 -0.2321 -0.4826 -0.8621
  906MOL0     C19514   8.515   8.330   8.389  0.0150  0.3866 -0.3993
  906MOL0     C19515   8.412   8.345   8.485  0.0857 -0.3375  0.2420
  906MOL0     C19516   8.358   8.475   8.503 -0.3699 -0.8305 -0.1372
  906MOL0     C19517   8.387   8.589   8.426 -0.9656  0.2691  0.1484
  906MOL0     O19518   8.333   8.704   8.477 -0.0765 -0.3786  0.5404
  906MOL0     C19519   8.334   8.820   8.390  0.3249 -0.1975 -0.4138
  906MOL0     C19520   8.256   8.816   8.261 -0.4095  0.7213 -0.2643
  906MOL0     C19521   8.104   8.801   8.289  0.7804 -0.4133  0.4057
  906MOL0     C19522   8.009   8.814   8.168 -0.0282 -1.0638  0.3790
  906MOL0     C19523   8.027   8.709   8.072 -0.2400  0.7669  0.4237
  906MOL0     C19524   8.061   8.616   7.994 -0.2315 -0.0436 -0.5618
  906MOL0     C19525   8.493   8.571   8.337 -0.1301  1.3217 -1.3029
  906MOL0     C19526   8.555   8.443   8.323 -0.2242 -0.2182  0.6955
  906MOL0     H19527   8.435   7.892   8.497  0.2937  3.0651 -0.7970
  906MOL0     H19528   8.562   7.671   8.587  0.8465 -0.4881 -1.8867
  906MOL0     H19529   8.676   7.514   8.619  0.0293 -0.5149 -0.1772
  906MOL0     H19530   8.780   7.541   8.766  0.7716 -1.5943  0.2024
  906MOL0     H19531   8.962   7.443   8.676 -0.3789  1.7039  0.3832
  906MOL0     H19532   8.884   7.421   8.516 -1.2028  1.2365 -0.9613
  906MOL0     H19533   8.723   7.263   8.595  1.2948 -2.8018 -2.3347
  906MOL0     H19534   8.775   7.270   8.757 -0.9836  0.9312 -0.1126
  906MOL0     H19535   8.993   7.189   8.629 -1.5347  1.7938  2.9877
  906MOL0     H19536   8.864   7.065   8.657  4.0217 -2.1501 -0.4158
  906MOL0     H19537   8.959   7.198   8.401 -0.0273 -1.0563 -1.9710
  906MOL0     H19538   8.800   7.148   8.416  0.3981 -1.0779 -0.2216
  906MOL0     H19539   8.877   6.910   8.517 -0.6265  0.3340 -0.4271
  906MOL0     H19540   9.039   6.957   8.479  0.7894  0.7020 -3.5935
  906MOL0     H19541   8.880   6.808   8.339 -1.3374  0.6850 -2.2705
  906MOL0     H19542   8.832   6.968   8.265 -0.2048  1.5504  1.2956
  906MOL0     H19543   9.105   7.015   8.270  3.7799 -2.5520 -0.7920
  906MOL0     H19544   9.012   6.963   8.135  0.2360 -0.1973 -0.1535
  906MOL0     H19545   9.121   6.717   8.420  2.4754 -2.2003  1.1031
  906MOL0     H19546   9.227   6.406   8.235  0.2002 -0.4707  0.6306
  906MOL0     H19547   9.230   6.456   8.398 -2.0661 -4.4933 -1.3673
  906MOL0     H19548   9.470   6.523   8.211  0.1040  2.2665  0.8199
  906MOL0     H19549   9.459   6.382   8.317  2.6578  0.3159  1.4174
  906MOL0     H19550   9.488   6.682   8.369  0.2004 -0.7700 -2.1378
  906MOL0     H19551   9.394   6.588   8.480  0.0833  1.1304 -0.1487
  906MOL0     H19552   9.682   6.513   8.395 -1.6045 -3.0352 -0.9927
  906MOL0     H19553   9.591   6.415   8.496 -1.9629  0.3993  0.5094
  906MOL0     H19554   9.738   6.712   8.806  3.1487 -1.2650 -0.7985
  906MOL0     H19555   9.804   6.966   8.823  2.8732 -1.0002  0.1104
  906MOL0     H19556  10.100   7.355   8.494  0.8439  0.7047 -0.8627
  906MOL0     H19557  10.098   7.599   8.457  0.2578 -1.0570  1.3071
  906MOL0     H19558  10.034   7.789   8.535 -0.5864  2.1452  0.4702
  906MOL0     H19559   9.925   7.920   8.485  2.6414  1.4891  0.3119
  906MOL0     H19560  10.084   7.748   8.292 -0.4284  0.0693  0.3724
  906MOL0     H19561  10.111   7.919   8.342 -1.2785  1.1016  0.8009
  906MOL0     H19562  10.022   7.921   8.128 -2.7360  4.5048 -1.3342
  906MOL0     H19563   9.906   7.999   8.236  1.3503  1.9746 -1.9724
  906MOL0     H19564   9.903   7.716   8.137  1.9850  1.3677  1.2739
  906MOL0     H19565   9.764   7.787   8.208  2.5216 -4.9916  0.4421
  906MOL0     H19566   9.890   7.875   7.948  0.0925  0.9810 -0.7517
  906MOL0     H19567   9.736   7.947   8.007  0.3911  0.3979  0.2669
  906MOL0     H19568   9.692   7.802   7.824 -0.5579  1.5135  0.4318
  906MOL0     H19569   9.630   7.720   7.971  1.7315 -0.4229  3.0805
  906MOL0     H19570   9.888   7.637   7.832  0.3496 -0.8933  1.4904
  906MOL0     H19571   9.821   7.585   7.983  2.1306  0.9457 -0.2134
  906MOL0     H19572   9.611   7.499   7.895 -2.5832 -0.7948 -3.1178
  906MOL0     H19573   9.748   7.428   7.803 -1.9262 -0.4174 -2.4411
  906MOL0     H19574   9.670   7.579   8.428  0.1259 -0.7471  1.1518
  906MOL0     H19575   9.671   7.323   8.427  0.0715  0.3093  1.2212
  906MOL0     H19576   9.796   6.989   8.409  1.5030 -3.0301 -2.7746
  906MOL0     H19577   9.697   6.773   8.374 -0.7378 -1.1800 -0.6151
  906MOL0     H19578   8.924   7.882   8.546  1.0575 -1.7947 -1.6981
  906MOL0     H19579   8.825   8.074   8.484 -0.3183 -0.1398  0.0853
  906MOL0     H19580   8.377   8.260   8.543 -0.9996  1.1786  1.9274
  906MOL0     H19581   8.275   8.485   8.573 -1.3913  0.6661 -1.4957
  906MOL0     H19582   8.439   8.841   8.370  0.2107  0.4948 -0.3016
  906MOL0     H19583   8.281   8.899   8.445  3.6054  1.2992  0.8315
  906MOL0     H19584   8.260   8.908   8.202 -1.7142  0.0114 -1.5150
  906MOL0     H19585   8.294   8.742   8.189  1.0573 -0.2178  1.3853
  906MOL0     H19586   8.073   8.872   8.366 -2.9520  0.1740 -1.4094
  906MOL0     H19587   8.086   8.699   8.324 -1.6833 -0.3449 -0.4949
  906MOL0     H19588   7.903   8.819   8.196 -0.5903 -1.5038 -1.5528
  906MOL0     H19589   8.027   8.911   8.120  2.8219 -0.8967  1.5946
  906MOL0     H19590   8.099   8.549   7.920  0.6570  0.5920 -0.7072
  906MOL0     H19591   8.525   8.661   8.287 -0.7122  1.6999 -1.0060
  906MOL0     H19592   8.637   8.438   8.252 -0.7228 -4.6649  0.1866
  907MOL0     O19593   0.508  10.202   3.397  0.3201  0.3042  0.2407
  907MOL0     C19594   0.516  10.168   3.280  0.4944  0.2184 -0.6262
  907MOL0     O19595   0.485  10.244   3.168 -0.1887  0.3920 -0.1863
  907MOL0     C19596   0.452  10.372   3.181  0.3726 -0.1079 -0.5286
  907MOL0     C19597   0.341  10.411   3.254  0.1324  0.2962  0.5295
  907MOL0     C19598   0.307  10.544   3.287 -0.8262 -0.1487 -0.8696
  907MOL0     C19599   0.402  10.645   3.247  0.8440 -0.0549  1.1078
  907MOL0     O19600   0.384  10.787   3.268  0.6640 -0.6246 -0.7772
  907MOL0     C19601   0.265  10.840   3.330 -0.0631  0.2357 -0.1529
  907MOL0     C19602   0.270  10.991   3.310 -0.5505 -0.6147 -0.0697
  907MOL0     C19603   0.254  11.033   3.159 -0.0528  0.8376 -0.5600
  907MOL0     C19604   0.363  11.115   3.107  0.5769  0.3732 -0.7474
  907MOL0     C19605   0.350  11.129   2.956  1.4023 -0.5536  0.7788
  907MOL0     C19606   0.455  11.221   2.886  0.0521 -0.1451  0.6534
  907MOL0     C19607   0.604  11.189   2.902 -0.8310  0.4775  1.0788
  907MOL0     C19608   0.644  11.046   2.901 -0.3190 -0.0836 -0.1425
  907MOL0     N19609   0.787  11.022   2.850  1.0172  0.8623  0.6418
  907MOL0     C19610   0.893  11.096   2.888  0.1421 -1.0336 -1.4683
  907MOL0     C19611   0.990  11.060   2.794 -0.0111 -0.3156  0.7720
  907MOL0     C19612   1.128  11.113   2.778  0.2741 -0.4814  0.3973
  907MOL0     C19613   1.222  11.060   2.884  0.8709  0.3484 -0.0591
  907MOL0     C19614   1.236  10.902   2.887 -0.8394 -0.6836 -0.3042
  907MOL0     C19615   1.341  10.860   2.989 -0.0311 -0.1478 -0.3418
  907MOL0     O19616   1.329  10.939   3.107 -0.5862 -0.2054 -0.0846
  907MOL0     C19617   1.449  10.974   3.171 -0.0177 -0.5308  0.0016
  907MOL0     C19618   1.550  11.070   3.121  0.7786 -0.3082  0.2548
  907MOL0     C19619   1.657  11.095   3.198 -0.3427 -1.0647 -0.3506
  907MOL0     C19620   1.679  11.027   3.326 -0.4573  0.2152 -0.9587
  907MOL0     C19621   1.807  11.045   3.404 -0.5332  0.2461 -0.0901
  907MOL0     O19622   1.876  11.150   3.374 -0.7346 -0.3421 -0.8528
  907MOL0     C19623   1.998  11.169   3.439  0.3951 -0.2398 -1.1694
  907MOL0     C19624   2.106  11.103   3.387  0.1572  0.8129 -0.2915
  907MOL0     C19625   2.238  11.131   3.436  0.2674  0.0508 -0.1137
  907MOL0     C19626   2.264  11.216   3.547  1.2016 -1.3741 -0.7970
  907MOL0     O19627   2.382  11.240   3.606 -0.1286 -0.3548  0.2407
  907MOL0     C19628   2.493  11.155   3.581 -0.2180  0.2581  0.6109
  907MOL0     C19629   2.616  11.180   3.673  0.4165 -0.7305 -0.6877
  907MOL0     C19630   2.741  11.098   3.629  0.2649  0.2722  0.4472
  907MOL0     C19631   2.854  11.117   3.721 -0.2648 -0.1324 -0.2997
  907MOL0     C19632   2.967  11.028   3.686 -0.0455 -0.3241  0.6686
  907MOL0     C19633   3.094  11.056   3.766 -0.1831  0.2119 -0.5716
  907MOL0     C19634   3.203  10.960   3.743 -0.1658  0.0619 -0.0409
  907MOL0     C19635   3.290  10.952   3.869 -0.9459  0.8679  0.0859
  907MOL0    Cl19636   3.350  11.109   3.941 -0.1840  0.2169 -0.7103
  907MOL0     C19637   2.151  11.295   3.594 -0.1149  0.3287 -0.7103
  907MOL0     C19638   2.019  11.269   3.536 -0.1630  0.3604 -0.4768
  907MOL0     O19639   1.852  10.951   3.477 -0.6135  0.2440  0.4402
  907MOL0     C19640   1.582  10.946   3.374 -0.2539 -0.1630  0.3171
  907MOL0     C19641   1.472  10.918   3.295 -0.7726 -0.0260  0.6429
  907MOL0     N19642   0.931  10.959   2.726  0.0703  0.3580  0.1171
  907MOL0     N19643   0.817  10.926   2.757  0.2553 -0.4875  0.1328
  907MOL0     C19644   0.508  10.598   3.170  0.4501 -0.4556 -0.2447
  907MOL0     C19645   0.541  10.465   3.138 -0.5542  0.2776  0.5709
  907MOL0     C19646   0.552  10.023   3.254  0.0835  0.3681  0.4952
  907MOL0     C19647   0.506   9.921   3.332  0.0296  0.3956  0.5108
  907MOL0     C19648   0.547   9.789   3.318  0.1113 -0.0431 -0.2377
  907MOL0     C19649   0.625   9.743   3.211 -0.0930  0.1577  0.0560
  907MOL0     O19650   0.671   9.614   3.186  0.1658 -0.3786 -0.0353
  907MOL0     C19651   0.709   9.525   3.289  1.0767 -1.0221 -0.4174
  907MOL0     C19652   0.591   9.430   3.309 -0.1821  0.6564  0.0043
  907MOL0     C19653   0.629   9.307   3.385 -0.2999  0.5235 -0.1968
  907MOL0     C19654   0.700   9.329   3.523  0.6846  0.1641  0.2215
  907MOL0     C19655   0.841   9.357   3.508  0.3255 -0.6518  0.5631
  907MOL0     C19656   0.958   9.386   3.512 -0.7247  0.0441 -0.2317
  907MOL0     C19657   0.649   9.843   3.113 -0.6075  0.9277 -0.6065
  907MOL0     C19658   0.619   9.980   3.133 -0.4589 -0.1414 -0.7687
  907MOL0     H19659   0.290  10.326   3.300  1.3510  0.1205  1.6102
  907MOL0     H19660   0.217  10.579   3.336 -2.1616 -1.3492 -2.3359
  907MOL0     H19661   0.257  10.811   3.435  3.2698  4.0272  1.4316
  907MOL0     H19662   0.175  10.807   3.278 -1.3154  1.0833  1.4148
  907MOL0     H19663   0.354  11.039   3.361 -1.5806 -1.9039  3.1270
  907MOL0     H19664   0.178  11.031   3.354  0.0921  0.0518  0.6915
  907MOL0     H19665   0.157  11.079   3.138  0.8747  2.0349 -2.5122
  907MOL0     H19666   0.256  10.938   3.104 -0.5169 -1.4337  2.9913
  907MOL0     H19667   0.360  11.215   3.153  1.5612  0.8517 -1.6596
  907MOL0     H19668   0.458  11.072   3.141  0.5713  1.8079  1.2957
  907MOL0     H19669   0.252  11.176   2.944  0.7972 -2.2062 -1.7400
  907MOL0     H19670   0.340  11.033   2.904 -1.6616  1.1169 -2.1156
  907MOL0     H19671   0.425  11.319   2.923  0.9723 -0.8931  3.6505
  907MOL0     H19672   0.437  11.231   2.778  2.5754 -1.9360 -0.0351
  907MOL0     H19673   0.658  11.238   2.820 -1.3569  0.7512  0.8924
  907MOL0     H19674   0.633  11.227   3.000  3.4396 -0.4457  0.3663
  907MOL0     H19675   0.585  10.985   2.832  2.5200 -1.1741 -1.7988
  907MOL0     H19676   0.644  11.000   3.000 -0.5203 -1.9795 -0.9783
  907MOL0     H19677   0.894  11.169   2.969 -1.4260 -1.0189 -1.4406
  907MOL0     H19678   1.138  11.221   2.787  3.3277 -0.8919  4.7734
  907MOL0     H19679   1.158  11.094   2.675 -0.8686 -0.7480  0.0928
  907MOL0     H19680   1.176  11.087   2.979 -2.5921  1.3609 -1.8343
  907MOL0     H19681   1.318  11.107   2.864  2.0513 -2.8129 -2.8133
  907MOL0     H19682   1.148  10.843   2.914 -0.4200 -0.7711  0.8800
  907MOL0     H19683   1.291  10.876   2.796  5.0009 -0.3132  2.6738
  907MOL0     H19684   1.439  10.879   2.945 -0.9081 -0.2411 -2.4296
  907MOL0     H19685   1.328  10.753   3.006  1.2676 -0.2950 -0.1413
  907MOL0     H19686   1.541  11.134   3.034 -0.3833 -1.2634 -0.3569
  907MOL0     H19687   1.734  11.160   3.159 -0.8585 -0.0577  0.2699
  907MOL0     H19688   2.103  11.030   3.307  2.0011  1.4973 -1.0525
  907MOL0     H19689   2.324  11.099   3.377 -0.5547  1.4451 -2.2006
  907MOL0     H19690   2.511  11.155   3.473 -1.0947  0.5984  0.4527
  907MOL0     H19691   2.461  11.056   3.615  0.2299 -0.5560 -1.2133
  907MOL0     H19692   2.588  11.162   3.778 -0.4322 -0.6537 -0.8974
  907MOL0     H19693   2.639  11.286   3.666  0.7327 -0.8809 -2.0665
  907MOL0     H19694   2.778  11.146   3.538  1.8248 -1.3282  0.1687
  907MOL0     H19695   2.718  10.991   3.624 -0.0498  0.3840 -0.6473
  907MOL0     H19696   2.892  11.219   3.724  1.1282 -0.6006 -1.1217
  907MOL0     H19697   2.828  11.091   3.824  1.1585 -1.2833 -0.1864
  907MOL0     H19698   2.989  11.042   3.580  0.5923  0.7035  0.9156
  907MOL0     H19699   2.940  10.925   3.710  2.2377 -0.6008  2.4195
  907MOL0     H19700   3.065  11.059   3.871  0.0041 -2.6286 -0.3592
  907MOL0     H19701   3.135  11.155   3.748  1.7548  0.6141  4.5569
  907MOL0     H19702   3.169  10.863   3.706  1.5432 -0.8624  0.7123
  907MOL0     H19703   3.276  10.997   3.670 -0.2509  0.9658  0.3203
  907MOL0     H19704   3.377  10.892   3.841  0.5024  4.0990 -2.9593
  907MOL0     H19705   3.224  10.889   3.931  1.0622  0.9892  2.5325
  907MOL0     H19706   2.169  11.364   3.676  0.4478 -0.9157  0.2670
  907MOL0     H19707   1.938  11.331   3.572  0.6929  0.3468  1.6160
  907MOL0     H19708   1.599  10.894   3.468 -0.7584 -0.8217  0.0551
  907MOL0     H19709   1.395  10.849   3.331 -0.9688  0.6333  1.5214
  907MOL0     H19710   0.569  10.674   3.123  0.7899 -0.0258  0.8665
  907MOL0     H19711   0.631  10.426   3.090 -1.1300 -1.8603  1.1283
  907MOL0     H19712   0.452   9.956   3.420  0.8784  2.7910  0.1595
  907MOL0     H19713   0.504   9.726   3.396  3.0590  0.3635  1.9368
  907MOL0     H19714   0.731   9.579   3.381 -1.0116  0.7684 -0.9016
  907MOL0     H19715   0.796   9.465   3.262  1.2917 -0.8854 -0.0377
  907MOL0     H19716   0.515   9.490   3.360  0.7225  1.0939  0.8878
  907MOL0     H19717   0.547   9.394   3.216 -0.7741 -1.3259  1.0058
  907MOL0     H19718   0.686   9.243   3.316 -2.9488  0.2591 -2.2747
  907MOL0     H19719   0.534   9.259   3.411  0.7932  0.2743  4.1861
  907MOL0     H19720   0.652   9.419   3.563 -2.2629 -1.4975  0.7347
  907MOL0     H19721   0.692   9.237   3.581  0.0769 -0.4947 -0.8795
  907MOL0     H19722   1.054   9.429   3.531 -2.2496  2.3148  3.1592
  907MOL0     H19723   0.702   9.840   3.019 -0.4146 -2.3241 -0.5125
  907MOL0     H19724   0.656  10.044   3.053  0.0656 -0.0390 -0.4492
  908MOL0     O19725   3.675   7.171   7.018  0.1780 -0.5463  0.3565
  908MOL0     C19726   3.576   7.135   7.085  1.0821  0.3182 -0.2895
  908MOL0     O19727   3.560   7.142   7.225 -0.1002 -0.1556  0.0765
  908MOL0     C19728   3.662   7.213   7.298 -0.6125  0.0071  0.2466
  908MOL0     C19729   3.687   7.170   7.423  0.2366  1.1509 -0.3897
  908MOL0     C19730   3.785   7.219   7.508 -0.0531 -0.3075 -0.1025
  908MOL0     C19731   3.874   7.320   7.469  0.2485  0.0429  0.3980
  908MOL0     O19732   3.964   7.387   7.544  0.6474 -0.4446  0.4941
  908MOL0     C19733   4.021   7.322   7.658 -0.0305 -0.3920 -0.6180
  908MOL0     C19734   4.117   7.422   7.733 -0.4813 -0.1039 -1.1183
  908MOL0     C19735   4.236   7.456   7.653  0.0600 -0.1743 -0.5329
  908MOL0     C19736   4.328   7.571   7.725  0.6446  0.3235  0.0961
  908MOL0     C19737   4.453   7.616   7.642 -0.0947 -0.4316 -0.4672
  908MOL0     C19738   4.498   7.761   7.673 -0.1700 -0.0139 -0.2620
  908MOL0     C19739   4.620   7.800   7.592  0.0585 -0.1429  1.2750
  908MOL0     C19740   4.677   7.932   7.621 -0.2416  0.8078 -0.3188
  908MOL0     N19741   4.761   7.926   7.751 -0.6020 -0.2335 -0.0683
  908MOL0     C19742   4.735   7.995   7.871 -0.2010  0.1935  0.7485
  908MOL0     C19743   4.860   8.005   7.928  0.2139  0.6688 -0.5045
  908MOL0     C19744   4.869   8.072   8.055 -0.3511  0.1252  0.1359
  908MOL0     C19745   4.828   7.989   8.173 -0.8272 -0.3586  0.6127
  908MOL0     C19746   4.909   7.868   8.193  1.2104 -0.0910 -0.3200
  908MOL0     C19747   4.884   7.787   8.314  0.6827  0.4910 -0.3060
  908MOL0     O19748   4.950   7.660   8.313 -0.1725 -0.4788  0.0958
  908MOL0     C19749   5.072   7.631   8.371 -0.1944  0.2533 -0.3471
  908MOL0     C19750   5.101   7.497   8.389 -1.3037 -0.4551 -0.2874
  908MOL0     C19751   5.217   7.458   8.456 -0.6426  0.6455  0.1715
  908MOL0     C19752   5.304   7.557   8.501  0.4993  1.4595  0.7485
  908MOL0     C19753   5.428   7.524   8.561 -0.2271 -0.2395 -0.1928
  908MOL0     O19754   5.449   7.388   8.574  0.4220 -0.2259 -0.1428
  908MOL0     C19755   5.554   7.343   8.636 -0.8439 -0.6770  0.8582
  908MOL0     C19756   5.638   7.248   8.575 -0.7223 -0.3785  0.9579
  908MOL0     C19757   5.727   7.172   8.660 -0.4064 -0.0131 -0.1018
  908MOL0     C19758   5.752   7.203   8.791  0.2589 -1.3311 -0.1979
  908MOL0     O19759   5.857   7.131   8.843 -0.2143  0.2712 -0.0441
  908MOL0     C19760   5.913   7.165   8.968  0.1866  0.4787 -0.4488
  908MOL0     C19761   5.841   7.087   9.071  0.2362  0.6287 -0.8129
  908MOL0     C19762   5.909   6.956   9.112  0.2496 -0.5433 -0.5849
  908MOL0     C19763   5.852   6.892   9.241  0.3434 -0.8818 -0.4096
  908MOL0     C19764   5.901   6.747   9.257  0.4491  0.4608  0.1202
  908MOL0     C19765   5.854   6.685   9.387 -0.5594 -0.5373 -0.5339
  908MOL0     C19766   5.888   6.543   9.400  0.5620  0.4908 -0.6389
  908MOL0     C19767   5.829   6.467   9.519  0.4680 -0.4644  0.5498
  908MOL0    Cl19768   5.872   6.295   9.520 -0.0030  0.2542  0.3303
  908MOL0     C19769   5.673   7.312   8.844 -0.9083  0.2126 -0.6857
  908MOL0     C19770   5.588   7.385   8.765  0.6668 -0.0372 -0.0720
  908MOL0     O19771   5.494   7.607   8.626  0.5250 -0.4296  0.4134
  908MOL0     C19772   5.278   7.687   8.469 -1.1931  0.3246 -0.5468
  908MOL0     C19773   5.156   7.732   8.418  0.0574  0.0535  0.8170
  908MOL0     N19774   4.960   7.948   7.850  0.1028  0.4508 -0.2183
  908MOL0     N19775   4.897   7.909   7.743 -0.1919 -0.2266 -1.1511
  908MOL0     C19776   3.855   7.355   7.329  0.4520 -0.2893 -0.0118
  908MOL0     C19777   3.747   7.311   7.260  0.2976 -0.8858 -0.8614
  908MOL0     C19778   3.462   7.072   7.023 -0.0191  1.3250 -0.3996
  908MOL0     C19779   3.457   7.034   6.885  0.8704 -0.1892  0.8317
  908MOL0     C19780   3.340   6.985   6.817 -0.6289 -0.3492 -0.1810
  908MOL0     C19781   3.215   6.982   6.882 -0.0929 -0.1422  0.2924
  908MOL0     O19782   3.105   6.934   6.810 -0.2866  0.4067 -0.0679
  908MOL0     C19783   2.970   6.963   6.856  0.3017  1.3505 -0.0573
  908MOL0     C19784   2.862   6.922   6.745 -0.0227 -0.2957 -0.8769
  908MOL0     C19785   2.794   6.781   6.749  0.2247 -0.8084  0.7558
  908MOL0     C19786   2.901   6.676   6.785 -0.5233  0.0774  0.7483
  908MOL0     C19787   2.842   6.543   6.805  0.1071  0.0518  0.4521
  908MOL0     C19788   2.784   6.439   6.832 -0.3394 -0.3113  0.3019
  908MOL0     C19789   3.216   7.025   7.019 -0.4809  0.1422  0.7574
  908MOL0     C19790   3.335   7.073   7.084 -0.0475  0.2222 -0.0452
  908MOL0     H19791   3.627   7.086   7.459 -0.8433  1.0744 -2.2545
  908MOL0     H19792   3.789   7.177   7.608  1.9406 -0.1859 -0.0799
  908MOL0     H19793   4.079   7.231   7.640 -4.6058 -3.9188  0.4253
  908MOL0     H19794   3.944   7.288   7.728 -1.2572  0.6417 -1.4062
  908MOL0     H19795   4.146   7.377   7.828  0.5440 -2.0973 -2.2998
  908MOL0     H19796   4.060   7.515   7.742  1.4243  1.0496 -0.2494
  908MOL0     H19797   4.195   7.497   7.561 -0.1636 -0.9780 -0.7923
  908MOL0     H19798   4.315   7.384   7.631  4.6169  4.1109 -0.1777
  908MOL0     H19799   4.265   7.658   7.745  0.3517 -0.2936  2.0826
  908MOL0     H19800   4.370   7.545   7.823 -0.6636 -0.3876  0.4948
  908MOL0     H19801   4.426   7.611   7.536  0.0130 -1.5068 -0.4548
  908MOL0     H19802   4.520   7.534   7.671 -1.2270 -1.3877 -0.5004
  908MOL0     H19803   4.518   7.772   7.780  1.1471  0.2501 -0.5182
  908MOL0     H19804   4.426   7.838   7.645 -2.6368 -1.9098  0.4879
  908MOL0     H19805   4.701   7.727   7.606 -0.8055 -1.8545 -1.7068
  908MOL0     H19806   4.606   7.798   7.484 -1.1709 -3.3031  1.3829
  908MOL0     H19807   4.595   7.999   7.647 -1.6100 -1.0822  0.4556
  908MOL0     H19808   4.738   7.968   7.538  1.7857  2.3212  1.7116
  908MOL0     H19809   4.639   8.029   7.908 -0.0054 -0.4945  1.9687
  908MOL0     H19810   4.817   8.168   8.042  1.2810  1.2218  1.3398
  908MOL0     H19811   4.973   8.102   8.067 -0.7915  1.1756  1.6442
  908MOL0     H19812   4.725   7.953   8.166  0.4140 -3.8819 -2.9577
  908MOL0     H19813   4.857   8.055   8.255  3.3910 -1.8961  0.6124
  908MOL0     H19814   4.882   7.804   8.109 -0.0103  0.6909 -0.5375
  908MOL0     H19815   5.016   7.889   8.185  0.8240  1.2338 -2.9514
  908MOL0     H19816   4.778   7.761   8.319  0.4339  1.2953 -1.1811
  908MOL0     H19817   4.907   7.847   8.403  2.0589 -1.3308  0.6434
  908MOL0     H19818   5.028   7.425   8.355 -1.8645 -0.1494  0.2605
  908MOL0     H19819   5.226   7.352   8.475 -2.1284  0.3370 -0.6298
  908MOL0     H19820   5.625   7.216   8.472 -0.4507  0.9869  0.4782
  908MOL0     H19821   5.784   7.094   8.611 -0.9517  1.7671 -3.9145
  908MOL0     H19822   5.920   7.273   8.984  0.2121  0.1253  2.7178
  908MOL0     H19823   6.020   7.146   8.980  0.2609  1.7577  1.4402
  908MOL0     H19824   5.738   7.078   9.036 -0.0136 -4.7267  0.4535
  908MOL0     H19825   5.837   7.148   9.161 -5.5930 -0.1602 -0.1676
  908MOL0     H19826   6.014   6.976   9.132 -0.7854  3.7295  1.9762
  908MOL0     H19827   5.903   6.879   9.035  0.4160  1.4144 -2.6830
  908MOL0     H19828   5.870   6.956   9.327 -3.0931  0.7686 -0.7487
  908MOL0     H19829   5.743   6.895   9.232  0.2174 -3.0067 -0.2488
  908MOL0     H19830   6.011   6.740   9.259  0.4450  0.4968  0.6434
  908MOL0     H19831   5.854   6.684   9.182  1.3533 -2.0759  1.5589
  908MOL0     H19832   5.747   6.702   9.403 -0.6203 -1.8625  0.6384
  908MOL0     H19833   5.913   6.734   9.465  0.7926 -0.5725 -1.5022
  908MOL0     H19834   5.845   6.485   9.318 -0.3767 -0.7151  0.6688
  908MOL0     H19835   5.997   6.534   9.402  0.5119 -0.0467  0.6594
  908MOL0     H19836   5.721   6.467   9.507  0.2459  0.0151  2.2795
  908MOL0     H19837   5.848   6.510   9.618  0.4965  0.5809  0.0990
  908MOL0     H19838   5.690   7.355   8.943  0.7324 -1.1012 -0.3530
  908MOL0     H19839   5.543   7.472   8.810  0.8136  2.0179 -3.5554
  908MOL0     H19840   5.341   7.769   8.502 -0.6505 -0.4968  0.4850
  908MOL0     H19841   5.132   7.838   8.418 -1.7376 -0.2648 -1.9666
  908MOL0     H19842   3.904   7.442   7.285 -2.9634  2.1442  0.5231
  908MOL0     H19843   3.730   7.364   7.167 -2.1458  0.4946  0.2547
  908MOL0     H19844   3.547   7.050   6.827 -0.2377  0.7669 -0.6936
  908MOL0     H19845   3.333   6.948   6.716 -0.2006 -4.0760  1.0246
  908MOL0     H19846   2.973   7.071   6.870  0.5603  1.4528 -0.8556
  908MOL0     H19847   2.951   6.917   6.954 -2.0511  0.6153 -0.8162
  908MOL0     H19848   2.766   6.972   6.756 -1.5349 -2.7696 -1.8740
  908MOL0     H19849   2.908   6.941   6.647 -1.6026 -2.0281 -2.0469
  908MOL0     H19850   2.750   6.753   6.653 -1.5463  1.3671  0.8502
  908MOL0     H19851   2.711   6.785   6.820 -1.5643  2.3264 -1.2481
  908MOL0     H19852   2.971   6.673   6.701 -0.7279  4.3719  0.1729
  908MOL0     H19853   2.954   6.712   6.874  0.8315 -0.8926  0.3736
  908MOL0     H19854   2.725   6.352   6.854 -1.2325  0.9062  3.2319
  908MOL0     H19855   3.125   7.043   7.075 -1.3825  2.5824 -1.2836
  908MOL0     H19856   3.314   7.123   7.178 -2.2276 -0.6709  0.0048
  909MOL0     O19857   0.893   8.793   8.632 -0.6841 -0.3623  0.1983
  909MOL0     C19858   0.954   8.688   8.599  0.0443  1.0047  0.4273
  909MOL0     O19859   1.082   8.656   8.639  0.5902 -0.2882 -0.0157
  909MOL0     C19860   1.153   8.762   8.677 -0.1269 -0.2356 -0.1106
  909MOL0     C19861   1.178   8.774   8.810 -0.4349 -0.4971  0.3900
  909MOL0     C19862   1.239   8.888   8.861 -0.8533 -0.5094 -0.7250
  909MOL0     C19863   1.300   8.978   8.781  0.8925 -0.4182  0.2741
  909MOL0     O19864   1.362   9.083   8.833 -0.3659  0.1053  0.1929
  909MOL0     C19865   1.496   9.094   8.789 -1.1621  0.0633  0.3760
  909MOL0     C19866   1.508   9.223   8.713 -0.4295  0.2440 -0.2696
  909MOL0     C19867   1.626   9.216   8.612  0.7203 -0.7040  0.2675
  909MOL0     C19868   1.659   9.347   8.541  1.2727 -0.0864  0.9875
  909MOL0     C19869   1.670   9.482   8.621  1.0502  0.1832 -0.0249
  909MOL0     C19870   1.762   9.576   8.539  0.3564  0.1285  0.3450
  909MOL0     C19871   1.795   9.701   8.624 -0.2366  0.0855 -0.2272
  909MOL0     C19872   1.856   9.815   8.542 -0.5932  0.7286 -1.0953
  909MOL0     N19873   1.937   9.918   8.616 -0.1513  0.3606  0.3005
  909MOL0     C19874   2.049   9.992   8.569  1.1829  0.0507 -0.6353
  909MOL0     C19875   2.085  10.069   8.675  0.1110  0.3798 -0.9458
  909MOL0     C19876   2.185  10.185   8.676  0.2635  0.2556  0.5287
  909MOL0     C19877   2.113  10.306   8.746  0.7567 -0.4310  0.2873
  909MOL0     C19878   1.979  10.348   8.688  0.7303  0.1429 -0.1852
  909MOL0     C19879   1.951  10.497   8.712 -0.5366 -0.1084  0.3210
  909MOL0     O19880   1.854  10.563   8.632 -0.1876  0.5049 -0.6999
  909MOL0     C19881   1.866  10.585   8.502  0.3963  0.2842  0.2337
  909MOL0     C19882   1.753  10.613   8.414 -0.1977  0.6847 -0.2542
  909MOL0     C19883   1.767  10.634   8.270  0.5005  0.1956  0.0250
  909MOL0     C19884   1.901  10.631   8.215 -0.0819 -0.0425  0.2978
  909MOL0     C19885   1.916  10.658   8.073  0.2513  0.3999 -0.4232
  909MOL0     O19886   1.810  10.610   7.990 -0.4121  1.1789  0.4587
  909MOL0     C19887   1.846  10.599   7.857 -0.3074  1.0003 -0.2403
  909MOL0     C19888   1.825  10.704   7.768 -0.9196 -0.3242 -0.3470
  909MOL0     C19889   1.845  10.692   7.626 -0.1898 -0.1336 -0.6560
  909MOL0     C19890   1.904  10.568   7.573  1.2794 -0.3478  0.1176
  909MOL0     O19891   1.928  10.567   7.437 -0.2537 -0.1042 -1.0999
  909MOL0     C19892   1.971  10.437   7.386  0.3016  0.9166 -0.2368
  909MOL0     C19893   1.962  10.434   7.225 -0.2749 -0.2979 -0.1899
  909MOL0     C19894   2.084  10.504   7.157 -0.7274 -0.8636  0.1626
  909MOL0     C19895   2.068  10.652   7.162 -0.2610  0.0948  0.3905
  909MOL0     C19896   2.119  10.747   7.051 -0.0805 -0.6425 -0.8855
  909MOL0     C19897   2.257  10.702   6.994 -0.7628  1.0375 -0.5068
  909MOL0     C19898   2.322  10.824   6.926  0.0934  1.0482 -0.1914
  909MOL0     C19899   2.457  10.787   6.877 -0.0098 -0.3638  0.4322
  909MOL0    Cl19900   2.582  10.785   7.002 -0.2704 -0.6209 -0.2077
  909MOL0     C19901   1.931  10.467   7.668  0.6201  0.4186 -0.6009
  909MOL0     C19902   1.899  10.477   7.802 -0.0097 -0.8224  0.1589
  909MOL0     O19903   2.031  10.693   8.028 -0.1479  1.1716 -0.2861
  909MOL0     C19904   2.008  10.611   8.299 -0.2843 -0.1668  0.2230
  909MOL0     C19905   1.990  10.587   8.431  0.0431  0.3271  0.1705
  909MOL0     N19906   1.998  10.041   8.782 -0.6187 -0.6571 -0.0305
  909MOL0     N19907   1.909   9.958   8.739 -0.9247 -0.3967 -0.4060
  909MOL0     C19908   1.280   8.956   8.644 -0.3436 -0.1903 -0.5914
  909MOL0     C19909   1.211   8.850   8.590  0.1082  0.0610 -0.5492
  909MOL0     C19910   0.878   8.585   8.525 -0.0945  0.0855  0.7585
  909MOL0     C19911   0.937   8.466   8.478 -0.5065 -0.6762  0.0719
  909MOL0     C19912   0.858   8.363   8.429 -0.6196 -0.0172  0.2068
  909MOL0     C19913   0.716   8.380   8.402  0.8800 -0.3675 -0.6288
  909MOL0     O19914   0.630   8.282   8.348 -0.0695  0.4296  0.5181
  909MOL0     C19915   0.649   8.140   8.374  0.7818 -1.3527 -0.1701
  909MOL0     C19916   0.602   8.111   8.517 -0.9556 -0.3731  0.6715
  909MOL0     C19917   0.458   8.119   8.539 -0.6551 -0.3831  1.3099
  909MOL0     C19918   0.400   8.264   8.554  0.1483  0.1821  0.4575
  909MOL0     C19919   0.265   8.264   8.606  0.1224  0.1155  0.2754
  909MOL0     C19920   0.155   8.230   8.644  0.1308 -0.0623  0.1683
  909MOL0     C19921   0.664   8.508   8.423 -0.0500  0.0450  0.8020
  909MOL0     C19922   0.743   8.609   8.496 -0.2539 -0.0383  0.4994
  909MOL0     H19923   1.130   8.705   8.879  1.1480  0.7982  2.9782
  909MOL0     H19924   1.226   8.925   8.962 -3.2453 -1.3211 -0.6686
  909MOL0     H19925   1.528   9.005   8.734  2.2898  0.7675  0.9776
  909MOL0     H19926   1.562   9.091   8.876 -0.2733 -4.5453 -0.2195
  909MOL0     H19927   1.524   9.306   8.782  0.4639  2.1474 -2.6002
  909MOL0     H19928   1.414   9.241   8.660 -1.3174  2.6977  1.9536
  909MOL0     H19929   1.608   9.134   8.542  0.2381  0.9744 -1.6944
  909MOL0     H19930   1.723   9.194   8.658  0.8332  1.3022  1.1198
  909MOL0     H19931   1.753   9.332   8.487  0.8386 -2.0064  0.6667
  909MOL0     H19932   1.582   9.343   8.463  1.5074 -0.3444  0.7664
  909MOL0     H19933   1.706   9.472   8.724 -2.8263  3.3936  1.8952
  909MOL0     H19934   1.573   9.529   8.633 -0.3728 -2.5783  0.1511
  909MOL0     H19935   1.721   9.609   8.444  2.9080  0.8338 -0.6016
  909MOL0     H19936   1.847   9.514   8.509 -0.2545 -0.8019  0.5059
  909MOL0     H19937   1.716   9.739   8.689  0.8264  2.1001 -0.0315
  909MOL0     H19938   1.870   9.668   8.696 -0.3941 -1.2038 -0.6253
  909MOL0     H19939   1.775   9.870   8.493  0.8259  3.3027 -0.7386
  909MOL0     H19940   1.918   9.778   8.460 -1.8081  2.0135 -2.6587
  909MOL0     H19941   2.077   9.980   8.465 -0.9789 -2.7639 -1.0306
  909MOL0     H19942   2.218  10.200   8.573  2.7504 -2.7563  0.7204
  909MOL0     H19943   2.285  10.170   8.719  1.5525  1.4720 -1.8428
  909MOL0     H19944   2.167  10.401   8.746 -0.4942  0.3254  1.6692
  909MOL0     H19945   2.091  10.274   8.849  1.7392  0.0651  0.6626
  909MOL0     H19946   1.985  10.320   8.583 -4.0868  0.1852 -0.6852
  909MOL0     H19947   1.902  10.291   8.741  1.1767 -0.8086 -0.5431
  909MOL0     H19948   2.039  10.561   8.719 -0.5668  0.1171 -1.0014
  909MOL0     H19949   1.902  10.508   8.809 -1.1083 -1.8123  0.2616
  909MOL0     H19950   1.657  10.637   8.458 -0.1440  1.4349 -0.5157
  909MOL0     H19951   1.680  10.679   8.223  0.8797  2.5769  1.4353
  909MOL0     H19952   1.785  10.792   7.818 -2.0390 -0.5253 -0.8669
  909MOL0     H19953   1.814  10.760   7.547  1.3264 -0.3493 -1.4706
  909MOL0     H19954   1.897  10.362   7.416  0.5123  1.2676  1.1982
  909MOL0     H19955   2.071  10.401   7.410  0.7579  0.9675 -1.9424
  909MOL0     H19956   1.864  10.465   7.187 -0.0398  0.5145 -0.1372
  909MOL0     H19957   1.963  10.333   7.181 -4.4518 -0.7008  0.1579
  909MOL0     H19958   2.104  10.480   7.052  0.0338  4.3034 -1.1213
  909MOL0     H19959   2.168  10.464   7.214 -1.0908  2.0355  3.0180
  909MOL0     H19960   1.964  10.683   7.173  0.6010  2.2839  4.2201
  909MOL0     H19961   2.109  10.679   7.259  1.5833  3.4099 -1.1121
  909MOL0     H19962   2.123  10.848   7.092 -0.6248 -1.5009  1.4688
  909MOL0     H19963   2.044  10.742   6.971 -1.1111  0.4817 -0.0282
  909MOL0     H19964   2.255  10.616   6.926 -1.0793  1.3372 -0.8776
  909MOL0     H19965   2.325  10.690   7.079 -0.2855  0.7514 -0.9249
  909MOL0     H19966   2.277  10.845   6.828  1.1744 -0.2913 -1.0139
  909MOL0     H19967   2.317  10.904   7.000  2.0496 -1.5111  2.9722
  909MOL0     H19968   2.496  10.857   6.803 -1.7701  3.1509  2.5621
  909MOL0     H19969   2.446  10.689   6.830  0.2585  0.1103 -0.6542
  909MOL0     H19970   1.959  10.365   7.643 -3.0656 -1.9790  3.5023
  909MOL0     H19971   1.921  10.402   7.878 -0.3754 -0.8641  0.2280
  909MOL0     H19972   2.111  10.618   8.264  0.0934 -1.6137  0.9563
  909MOL0     H19973   2.081  10.551   8.478  0.1141 -0.4174 -0.5075
  909MOL0     H19974   1.311   9.033   8.575  3.3668 -0.4060  0.5880
  909MOL0     H19975   1.206   8.836   8.483 -3.1889  0.2191 -0.5412
  909MOL0     H19976   1.044   8.454   8.492 -0.7328  0.2743  3.6594
  909MOL0     H19977   0.903   8.265   8.419  0.9000  0.4564  1.8764
  909MOL0     H19978   0.757   8.129   8.364  1.2298  1.8314  0.3294
  909MOL0     H19979   0.606   8.076   8.297 -1.0811  0.9807 -1.2111
  909MOL0     H19980   0.632   8.007   8.534 -2.3902 -0.5727  2.2960
  909MOL0     H19981   0.651   8.174   8.592 -0.4237  0.2427 -0.1707
  909MOL0     H19982   0.447   8.079   8.640 -0.9664  0.0791  1.4592
  909MOL0     H19983   0.403   8.062   8.463 -0.5660  2.0109 -0.6620
  909MOL0     H19984   0.460   8.319   8.627 -2.4845 -0.7538  3.5687
  909MOL0     H19985   0.393   8.320   8.460 -0.6426 -0.5475  0.0692
  909MOL0     H19986   0.061   8.188   8.673  0.5163 -1.0392  0.0263
  909MOL0     H19987   0.561   8.519   8.392  0.8180 -1.0624 -2.9781
  909MOL0     H19988   0.687   8.697   8.527 -1.2507 -0.2408 -0.6353
  910MOL0     O19989   8.759   5.016   5.601 -0.1717  0.3535 -0.5124
  910MOL0     C19990   8.744   4.910   5.539 -0.0592  0.0180 -0.2610
  910MOL0     O19991   8.842   4.821   5.507 -0.3924 -0.5848  0.2137
  910MOL0     C19992   8.979   4.854   5.517 -0.1953 -0.0132 -0.8086
  910MOL0     C19993   9.032   4.980   5.490  0.1663 -0.4318 -0.2798
  910MOL0     C19994   9.169   5.014   5.492 -1.1035  0.0108 -0.0243
  910MOL0     C19995   9.255   4.916   5.535 -0.1677 -0.0539 -1.2147
  910MOL0     O19996   9.395   4.942   5.551  0.3830 -0.2559  0.3268
  910MOL0     C19997   9.490   4.832   5.552  0.7236  0.2185  0.5442
  910MOL0     C19998   9.627   4.890   5.566  0.4408  0.0272  0.4613
  910MOL0     C19999   9.744   4.787   5.562  0.2416 -0.0332  0.0826
  910MOL0     C20000   9.888   4.854   5.573  0.1506 -0.3915  0.1166
  910MOL0     C20001   9.939   4.938   5.456 -0.0026 -0.8890  0.2847
  910MOL0     C20002  10.072   5.004   5.456 -0.1835 -0.1191  0.2571
  910MOL0     C20003  10.103   5.059   5.316 -0.5366  0.6613 -0.3671
  910MOL0     C20004  10.262   5.073   5.290 -0.5696  0.4990 -1.1897
  910MOL0     N20005  10.336   5.122   5.405  0.0529 -0.1611 -0.5423
  910MOL0     C20006  10.343   5.255   5.436  0.0264  0.4079 -0.6429
  910MOL0     C20007  10.414   5.254   5.556 -0.0290  0.2076  0.1357
  910MOL0     C20008  10.451   5.368   5.642  0.4361  0.0763 -0.2644
  910MOL0     C20009  10.556   5.337   5.746 -0.6089  0.1843  0.4270
  910MOL0     C20010  10.688   5.349   5.673 -0.4095 -0.4219  0.4723
  910MOL0     C20011  10.807   5.351   5.774 -0.1132 -0.7879 -0.5707
  910MOL0     O20012  10.936   5.402   5.715  0.0688  0.3879 -0.7640
  910MOL0     C20013  11.051   5.393   5.797 -0.3252  0.6142  0.2677
  910MOL0     C20014  11.041   5.358   5.929  0.3893 -0.8130  1.2108
  910MOL0     C20015  11.144   5.379   6.020 -0.1709 -0.2983  0.5757
  910MOL0     C20016  11.263   5.416   5.971  0.0493  0.0782  0.4387
  910MOL0     C20017  11.384   5.440   6.050 -0.0849 -0.0849  0.5738
  910MOL0     O20018  11.508   5.421   5.992  0.4082 -0.2417 -0.1958
  910MOL0     C20019  11.619   5.398   6.070 -0.4237 -0.2442  0.4553
  910MOL0     C20020  11.693   5.285   6.046 -0.8507  1.1846 -1.0021
  910MOL0     C20021  11.816   5.257   6.112  0.5002  0.3200 -0.4224
  910MOL0     C20022  11.872   5.350   6.201  0.3101 -0.0867 -0.2745
  910MOL0     O20023  11.991   5.311   6.257 -0.0429 -1.1220  0.0957
  910MOL0     C20024  12.101   5.403   6.280  0.0973 -0.3922  1.0074
  910MOL0     C20025  12.201   5.387   6.164 -0.2078  0.9261 -0.7056
  910MOL0     C20026  12.285   5.256   6.178 -0.1239  0.8263  0.6015
  910MOL0     C20027  12.369   5.225   6.048  0.5122 -0.0678 -0.0734
  910MOL0     C20028  12.427   5.073   6.038  0.0866  0.1857 -0.7270
  910MOL0     C20029  12.493   5.008   6.160  0.1354  0.1906 -0.3758
  910MOL0     C20030  12.579   4.886   6.124  1.2042  0.1011  0.2442
  910MOL0     C20031  12.691   4.910   6.025  0.1098  0.0826 -1.6341
  910MOL0    Cl20032  12.770   5.061   6.072  0.3887  0.1694 -0.0410
  910MOL0     C20033  11.799   5.465   6.230 -0.6109 -0.9097 -0.7833
  910MOL0     C20034  11.675   5.487   6.164  0.0154 -0.3804 -0.9809
  910MOL0     O20035  11.354   5.456   6.167 -0.1530 -0.0547 -0.6251
  910MOL0     C20036  11.280   5.441   5.837 -0.2955  0.3616  0.7708
  910MOL0     C20037  11.174   5.419   5.750 -0.3559  1.4653 -0.4609
  910MOL0     N20038  10.450   5.125   5.584  0.6126 -0.0631  0.3533
  910MOL0     N20039  10.393   5.046   5.502  0.2967 -0.4842  0.4870
  910MOL0     C20040   9.213   4.782   5.549  0.4782  0.5295  0.8275
  910MOL0     C20041   9.071   4.749   5.546  0.2556 -0.3710 -0.0141
  910MOL0     C20042   8.610   4.853   5.512 -0.2796 -0.0420 -0.2122
  910MOL0     C20043   8.594   4.721   5.476  0.2832  0.5261 -0.0449
  910MOL0     C20044   8.459   4.680   5.442  1.0184  0.2090  0.2272
  910MOL0     C20045   8.353   4.781   5.434  0.4876  0.5354  0.1032
  910MOL0     O20046   8.224   4.736   5.408  0.3019 -0.2501 -1.0454
  910MOL0     C20047   8.165   4.780   5.288 -0.7214  1.7316 -0.2477
  910MOL0     C20048   8.027   4.730   5.294 -0.0179  0.1295 -0.1243
  910MOL0     C20049   7.942   4.786   5.402 -0.0854  1.1908 -0.5625
  910MOL0     C20050   7.790   4.748   5.375 -0.4648 -0.4706 -0.1313
  910MOL0     C20051   7.776   4.600   5.381  0.0052 -0.3114  0.1215
  910MOL0     C20052   7.751   4.483   5.389  0.2612 -0.3109  0.7163
  910MOL0     C20053   8.376   4.912   5.462  0.2687 -0.3396 -0.2584
  910MOL0     C20054   8.508   4.952   5.501  0.3267 -0.5022 -0.1521
  910MOL0     H20055   8.961   5.055   5.458 -0.4597 -1.3811 -1.1890
  910MOL0     H20056   9.216   5.111   5.476 -2.7562  0.9100  0.3906
  910MOL0     H20057   9.478   4.783   5.455 -1.3864  1.4098  0.1380
  910MOL0     H20058   9.466   4.764   5.634 -0.7506  0.3176  0.2245
  910MOL0     H20059   9.631   4.941   5.663  2.2252 -0.0483  0.4662
  910MOL0     H20060   9.651   4.951   5.478 -0.1221  0.3394  0.5204
  910MOL0     H20061   9.749   4.722   5.474  1.4300 -0.6321  0.5606
  910MOL0     H20062   9.731   4.719   5.647  3.7814  1.1347  1.7462
  910MOL0     H20063   9.882   4.917   5.662  4.6831 -0.4459  0.6753
  910MOL0     H20064   9.965   4.778   5.588  0.5624  0.1746  0.9682
  910MOL0     H20065   9.874   5.026   5.453 -2.3102 -2.5323 -1.1472
  910MOL0     H20066   9.928   4.885   5.361 -2.0591  2.6762 -1.7066
  910MOL0     H20067  10.149   4.926   5.468  1.9170  2.1397  3.2092
  910MOL0     H20068  10.086   5.081   5.532  0.7756  2.5406 -2.4330
  910MOL0     H20069  10.060   4.990   5.243 -1.1584  0.1250  0.4838
  910MOL0     H20070  10.054   5.156   5.305  0.0365  1.1534  1.0940
  910MOL0     H20071  10.272   5.144   5.208 -0.5296  1.4958 -0.3444
  910MOL0     H20072  10.306   4.978   5.258  3.6835  2.4927 -1.9134
  910MOL0     H20073  10.298   5.339   5.384  1.4782  3.8500  3.0810
  910MOL0     H20074  10.359   5.395   5.695  0.2966  0.4975 -0.7107
  910MOL0     H20075  10.473   5.454   5.578  2.1292 -0.2243 -0.1407
  910MOL0     H20076  10.536   5.240   5.792 -2.5284 -0.6373 -1.9123
  910MOL0     H20077  10.578   5.405   5.829  4.8250 -1.0967  0.4130
  910MOL0     H20078  10.698   5.252   5.623  1.3331  0.3808 -0.8377
  910MOL0     H20079  10.693   5.435   5.605 -0.7718 -1.7837 -1.3458
  910MOL0     H20080  10.831   5.248   5.800 -1.2561 -0.8076  0.4906
  910MOL0     H20081  10.774   5.416   5.855  0.6171 -2.0777  0.8121
  910MOL0     H20082  10.944   5.331   5.970 -0.3744 -2.2190 -1.3493
  910MOL0     H20083  11.112   5.363   6.122 -1.6482 -0.6556  0.0869
  910MOL0     H20084  11.652   5.202   5.989  3.4185 -2.5708  0.7712
  910MOL0     H20085  11.864   5.163   6.084  1.4538  0.3993  0.8691
  910MOL0     H20086  12.154   5.376   6.372  3.2568  1.7697  0.0041
  910MOL0     H20087  12.077   5.508   6.267  0.3554 -0.5846 -1.4659
  910MOL0     H20088  12.268   5.473   6.168  1.7262 -0.5038 -1.1067
  910MOL0     H20089  12.149   5.395   6.068  0.3630 -1.8765 -1.3531
  910MOL0     H20090  12.207   5.181   6.193  1.3368 -0.4424  2.2399
  910MOL0     H20091  12.354   5.256   6.263 -2.8817  2.2650  2.9870
  910MOL0     H20092  12.307   5.242   5.959 -1.3827  2.3026  1.5807
  910MOL0     H20093  12.457   5.288   6.034  1.3408 -1.2264 -0.1906
  910MOL0     H20094  12.506   5.071   5.962  2.2908  1.8944  1.3843
  910MOL0     H20095  12.342   5.012   6.005 -1.6839  2.3772 -0.4862
  910MOL0     H20096  12.412   4.979   6.227  0.4807 -0.0189 -0.0476
  910MOL0     H20097  12.547   5.081   6.222 -0.2714 -0.0597  0.2746
  910MOL0     H20098  12.616   4.828   6.209 -1.9766 -2.2296  0.2031
  910MOL0     H20099  12.518   4.808   6.078  1.9925  0.8020 -2.1237
  910MOL0     H20100  12.660   4.918   5.920 -0.0675 -2.3278 -1.8070
  910MOL0     H20101  12.774   4.839   6.034  0.0887  0.3057  1.6632
  910MOL0     H20102  11.845   5.541   6.292 -1.4249 -0.9361 -0.1278
  910MOL0     H20103  11.607   5.566   6.195  0.2908 -0.1686 -0.9138
  910MOL0     H20104  11.371   5.469   5.786 -0.2725 -4.0242 -2.1023
  910MOL0     H20105  11.184   5.439   5.643 -2.6526  2.1519 -0.5932
  910MOL0     H20106   9.286   4.705   5.572 -1.5439 -1.5557  0.6345
  910MOL0     H20107   9.023   4.656   5.574  3.3502 -1.9946  0.4048
  910MOL0     H20108   8.674   4.649   5.465  1.0062  1.0653  1.4051
  910MOL0     H20109   8.442   4.574   5.425 -4.0738  1.0180 -1.1847
  910MOL0     H20110   8.208   4.731   5.201 -1.9198 -0.5380  0.3540
  910MOL0     H20111   8.182   4.886   5.270  4.0735  1.9439  3.5222
  910MOL0     H20112   7.995   4.772   5.198 -0.8816  5.0566  1.9998
  910MOL0     H20113   8.026   4.621   5.284  2.4693  0.0760 -0.5540
  910MOL0     H20114   7.950   4.896   5.400 -2.1889  1.3979 -0.4376
  910MOL0     H20115   7.978   4.748   5.498 -0.4338  0.9790 -0.5128
  910MOL0     H20116   7.717   4.799   5.438 -0.6839  1.5557 -1.9139
  910MOL0     H20117   7.765   4.784   5.275 -2.0973  0.6834  0.6423
  910MOL0     H20118   7.746   4.377   5.399 -0.3333 -0.6121 -2.0591
  910MOL0     H20119   8.291   4.979   5.469 -0.0009 -0.3772 -2.6283
  910MOL0     H20120   8.521   5.051   5.544 -4.0477  0.1082  0.2031
  911MOL0     O20121   7.879   0.218   7.396  0.3815 -0.7373  0.6544
  911MOL0     C20122   7.977   0.253   7.467 -0.4517  0.2492 -0.3757
  911MOL0     O20123   8.090   0.319   7.419 -0.4480 -0.4765  0.0980
  911MOL0     C20124   8.110   0.359   7.280  0.0215  0.5931 -0.7227
  911MOL0     C20125   8.239   0.373   7.239  0.1157  0.0041 -0.2513
  911MOL0     C20126   8.263   0.401   7.104  0.2704 -0.1748 -0.1245
  911MOL0     C20127   8.158   0.414   7.012 -1.6181  0.7892  0.0179
  911MOL0     O20128   8.188   0.453   6.880 -0.9602 -0.4378  1.1250
  911MOL0     C20129   8.185   0.332   6.798 -0.7579  0.6029  0.4400
  911MOL0     C20130   8.282   0.344   6.682 -0.0289  0.5839  0.3981
  911MOL0     C20131   8.429   0.380   6.709 -0.6208  0.2238 -0.7988
  911MOL0     C20132   8.501   0.431   6.592 -0.1705  0.3611  0.2599
  911MOL0     C20133   8.549   0.310   6.506  0.1951  0.1972  0.5336
  911MOL0     C20134   8.623   0.350   6.380 -0.2624 -1.2233  0.1982
  911MOL0     C20135   8.565   0.458   6.290 -0.1090 -0.5893 -0.1647
  911MOL0     C20136   8.425   0.404   6.249  0.6873 -0.2039  0.0988
  911MOL0     N20137   8.387   0.476   6.120  0.1691  0.0628 -0.4682
  911MOL0     C20138   8.451   0.476   5.999 -0.2652 -0.0232  0.3816
  911MOL0     C20139   8.382   0.565   5.925  0.4290  0.7473 -0.0200
  911MOL0     C20140   8.423   0.623   5.784 -0.9612  0.0434 -1.4518
  911MOL0     C20141   8.405   0.545   5.653 -0.4790 -0.2045 -0.9137
  911MOL0     C20142   8.256   0.496   5.626 -0.3565  0.0769  0.8403
  911MOL0     C20143   8.246   0.418   5.485 -0.0422  0.1642  0.4307
  911MOL0     O20144   8.099   0.412   5.460  0.3531  0.3621  0.4550
  911MOL0     C20145   8.070   0.313   5.361  0.9894  0.8322 -0.5913
  911MOL0     C20146   7.963   0.225   5.378  0.0441 -0.4803  0.2953
  911MOL0     C20147   7.924   0.131   5.288 -0.1708  0.8909  0.4612
  911MOL0     C20148   8.004   0.107   5.174 -0.4775 -0.3978  0.1942
  911MOL0     C20149   7.971   0.002   5.081 -0.3341  0.0534  0.6548
  911MOL0     O20150   8.050  -0.006   4.974  0.5359 -0.3027 -0.2180
  911MOL0     C20151   8.058  -0.109   4.885 -0.1597 -0.5998  0.6131
  911MOL0     C20152   8.061  -0.066   4.750  0.7357 -0.1601  0.0584
  911MOL0     C20153   8.064  -0.158   4.642  1.0314 -1.0021 -0.0538
  911MOL0     C20154   8.077  -0.289   4.663  0.2836 -0.2477  0.4152
  911MOL0     O20155   8.098  -0.372   4.552  0.8562 -0.1323  0.0802
  911MOL0     C20156   8.136  -0.514   4.569 -0.0699  0.2656  0.9830
  911MOL0     C20157   8.111  -0.577   4.434 -0.7421 -0.3153 -0.2050
  911MOL0     C20158   8.174  -0.710   4.412 -0.3915  0.5100  0.9218
  911MOL0     C20159   8.325  -0.691   4.414  0.8957 -0.9304 -0.4673
  911MOL0     C20160   8.394  -0.820   4.380  0.2731  0.3225 -0.0733
  911MOL0     C20161   8.538  -0.826   4.434  0.9260  0.3614 -0.2598
  911MOL0     C20162   8.550  -0.951   4.523 -0.1657 -0.7709  0.6069
  911MOL0     C20163   8.671  -0.977   4.606 -1.1014  0.0185  0.9832
  911MOL0    Cl20164   8.819  -0.914   4.531 -0.5189  0.1440  0.1520
  911MOL0     C20165   8.086  -0.332   4.796 -0.0005 -0.1477  0.2621
  911MOL0     C20166   8.064  -0.243   4.911  0.3894 -0.0276 -0.2407
  911MOL0     O20167   7.863  -0.048   5.092 -0.7107 -0.2848  0.1353
  911MOL0     C20168   8.104   0.196   5.154 -0.9736 -0.4510  0.4964
  911MOL0     C20169   8.150   0.291   5.246 -0.5865 -0.0274  0.6893
  911MOL0     N20170   8.272   0.608   5.993 -0.6264  0.2682  0.2338
  911MOL0     N20171   8.273   0.555   6.108  0.2553 -0.2704 -0.8261
  911MOL0     C20172   8.030   0.408   7.062 -0.4259  0.5600  0.2296
  911MOL0     C20173   8.006   0.378   7.193  0.0869 -0.2968  0.1201
  911MOL0     C20174   7.990   0.215   7.612  0.6016 -0.8257  1.1792
  911MOL0     C20175   8.103   0.237   7.680 -0.1609 -0.1716  0.2908
  911MOL0     C20176   8.106   0.190   7.821  0.2166 -0.0870  0.4445
  911MOL0     C20177   8.006   0.123   7.882  0.9031 -0.0916 -0.4960
  911MOL0     O20178   8.011   0.086   8.013 -1.3446 -0.1313  1.6248
  911MOL0     C20179   8.093   0.159   8.103  0.0936 -0.5965 -0.0801
  911MOL0     C20180   8.105   0.082   8.230 -0.1028  0.4100  0.3577
  911MOL0     C20181   8.060   0.159   8.353 -0.6687  0.2013 -0.0298
  911MOL0     C20182   8.060   0.073   8.482 -0.2275  0.0213  0.7861
  911MOL0     C20183   7.937  -0.010   8.497 -0.0843  0.5310 -0.2590
  911MOL0     C20184   7.830  -0.048   8.504 -0.2938 -0.7261 -0.5941
  911MOL0     C20185   7.887   0.115   7.816 -0.0662 -0.1192  0.4304
  911MOL0     C20186   7.886   0.154   7.675  0.3821  1.1357 -1.0401
  911MOL0     H20187   8.327   0.372   7.303 -2.6404  0.8001  4.0067
  911MOL0     H20188   8.364   0.421   7.069  0.5501 -0.9287  0.2310
  911MOL0     H20189   8.087   0.303   6.759 -0.8924  0.6438  0.7427
  911MOL0     H20190   8.220   0.241   6.848  1.3536 -0.1745 -2.2406
  911MOL0     H20191   8.239   0.414   6.610 -1.4226 -1.6997 -1.0841
  911MOL0     H20192   8.279   0.244   6.639  0.0448  0.9701 -0.5386
  911MOL0     H20193   8.468   0.282   6.738 -1.9869 -0.3274 -0.7519
  911MOL0     H20194   8.445   0.452   6.790  2.9178 -1.9827  0.7560
  911MOL0     H20195   8.457   0.511   6.531  1.9548 -0.0131 -1.9396
  911MOL0     H20196   8.589   0.488   6.623  0.1696  1.7390 -2.8303
  911MOL0     H20197   8.466   0.245   6.477 -0.0829  0.8627 -0.1944
  911MOL0     H20198   8.615   0.243   6.562 -1.9158 -3.8410 -1.3857
  911MOL0     H20199   8.636   0.268   6.309  1.2015 -0.8784  0.0256
  911MOL0     H20200   8.724   0.379   6.412 -0.3726 -0.5790 -0.0229
  911MOL0     H20201   8.549   0.548   6.351 -0.6188  0.3853 -1.6816
  911MOL0     H20202   8.631   0.484   6.207 -1.6488  0.1937 -1.1907
  911MOL0     H20203   8.356   0.414   6.333  0.8470  1.5037  0.0588
  911MOL0     H20204   8.433   0.296   6.231 -0.3154  0.1107 -2.9774
  911MOL0     H20205   8.538   0.418   5.968 -1.2954 -1.5503  0.1944
  911MOL0     H20206   8.529   0.649   5.792 -1.1209  0.1271  2.2514
  911MOL0     H20207   8.370   0.718   5.779 -2.2683 -0.2919  2.4517
  911MOL0     H20208   8.481   0.467   5.660 -0.8272 -0.8028 -3.1892
  911MOL0     H20209   8.445   0.601   5.568  1.9093  0.9474  0.8206
  911MOL0     H20210   8.218   0.435   5.709 -0.5001  0.2405  0.8961
  911MOL0     H20211   8.183   0.578   5.627 -1.4803 -0.8599  2.8086
  911MOL0     H20212   8.287   0.317   5.495 -0.8721 -0.1098  1.2094
  911MOL0     H20213   8.309   0.464   5.409 -1.4128 -2.5724 -2.5984
  911MOL0     H20214   7.901   0.214   5.467  2.1854 -1.2324  1.7934
  911MOL0     H20215   7.850   0.055   5.307 -1.0056  0.8847 -2.3481
  911MOL0     H20216   8.047   0.040   4.733 -2.0400 -0.3118  1.0457
  911MOL0     H20217   8.054  -0.109   4.545  1.0491  0.9426  0.8696
  911MOL0     H20218   8.076  -0.572   4.640  1.4529 -4.3099 -1.1595
  911MOL0     H20219   8.241  -0.514   4.599  0.3100 -2.2986 -0.1256
  911MOL0     H20220   8.148  -0.507   4.358 -1.2481 -1.7390 -1.8326
  911MOL0     H20221   8.003  -0.587   4.415 -1.0744  1.8552  0.3845
  911MOL0     H20222   8.136  -0.754   4.319  1.6360 -2.3919  1.3254
  911MOL0     H20223   8.145  -0.775   4.495  1.9848  0.9921  2.2201
  911MOL0     H20224   8.357  -0.620   4.337 -0.8208  0.3496 -0.0450
  911MOL0     H20225   8.351  -0.668   4.517 -0.1978 -5.1052  0.9108
  911MOL0     H20226   8.401  -0.824   4.271 -1.8120  2.3322 -0.3554
  911MOL0     H20227   8.331  -0.899   4.422 -0.9098  2.7909  3.2701
  911MOL0     H20228   8.548  -0.744   4.506  0.4251 -0.4323  0.7419
  911MOL0     H20229   8.621  -0.820   4.364  0.9112  1.2003 -0.2192
  911MOL0     H20230   8.461  -0.945   4.586 -1.3967  0.0262 -1.1022
  911MOL0     H20231   8.534  -1.029   4.447  0.6384  0.1826 -0.5813
  911MOL0     H20232   8.668  -1.080   4.644  2.4092 -1.0671 -1.1679
  911MOL0     H20233   8.665  -0.925   4.702  0.1300  0.0727  1.0514
  911MOL0     H20234   8.120  -0.431   4.826  4.3173  0.9336 -0.5226
  911MOL0     H20235   8.070  -0.274   5.015 -0.6449 -0.4738 -0.3003
  911MOL0     H20236   8.164   0.188   5.063  0.1716 -0.0171  1.1932
  911MOL0     H20237   8.245   0.341   5.230 -1.2475  0.7465 -1.0985
  911MOL0     H20238   7.948   0.417   6.990 -1.6790  1.5570  1.7275
  911MOL0     H20239   7.901   0.358   7.215 -0.0764 -1.9479 -1.8219
  911MOL0     H20240   8.183   0.294   7.633  0.1366  0.0980  1.1076
  911MOL0     H20241   8.205   0.195   7.864  0.2918  0.4413  0.2141
  911MOL0     H20242   8.054   0.256   8.135  0.7570  0.1474 -1.4123
  911MOL0     H20243   8.191   0.180   8.060 -1.6326  3.0238 -2.8373
  911MOL0     H20244   8.042  -0.007   8.223  5.3564 -3.9115 -1.4596
  911MOL0     H20245   8.207   0.043   8.233  1.1922  3.0546 -2.9043
  911MOL0     H20246   7.969   0.219   8.343  0.8271  2.9839  1.7443
  911MOL0     H20247   8.132   0.239   8.370 -1.7534  1.8095 -2.4661
  911MOL0     H20248   8.144   0.003   8.480 -0.3244 -0.1437  1.8293
  911MOL0     H20249   8.067   0.141   8.568  0.9518 -0.4931  1.1175
  911MOL0     H20250   7.730  -0.082   8.522 -0.9486  2.0552  1.8860
  911MOL0     H20251   7.808   0.059   7.864 -0.1403 -1.7927 -1.5005
  911MOL0     H20252   7.794   0.141   7.619 -0.1989  1.9653 -0.2856
  912MOL0     O20253   1.046   4.127   8.308  0.4924  0.0498  0.0684
  912MOL0     C20254   1.024   4.217   8.216 -0.5997  0.4757 -0.1195
  912MOL0     O20255   1.093   4.222   8.096 -0.0914 -0.6593  0.1343
  912MOL0     C20256   1.192   4.130   8.065  0.1996  0.1430 -0.5715
  912MOL0     C20257   1.327   4.170   8.051 -0.7407  0.0392  0.1978
  912MOL0     C20258   1.433   4.080   8.032 -0.6643 -0.6439 -0.1375
  912MOL0     C20259   1.407   3.940   8.019 -0.9555 -0.5704 -0.1388
  912MOL0     O20260   1.510   3.853   8.010  0.4619 -0.2744  0.2060
  912MOL0     C20261   1.585   3.863   7.889 -0.1133 -0.0968  0.4866
  912MOL0     C20262   1.700   3.757   7.894 -0.2655  0.1171  0.3063
  912MOL0     C20263   1.805   3.801   8.007 -0.1128  0.0193  0.3943
  912MOL0     C20264   1.908   3.691   8.023 -0.4376  0.0838 -0.7046
  912MOL0     C20265   2.048   3.741   8.008 -0.2838  0.5060 -0.9658
  912MOL0     C20266   2.101   3.729   7.864 -1.2963  0.7169 -0.0797
  912MOL0     C20267   2.240   3.801   7.840 -0.4057  1.2880 -0.4531
  912MOL0     C20268   2.250   3.949   7.894 -0.3356 -0.2757 -0.1822
  912MOL0     N20269   2.378   4.005   7.844  0.0904  0.2592  0.0442
  912MOL0     C20270   2.513   3.964   7.873  0.2429  0.1752 -1.8539
  912MOL0     C20271   2.590   4.070   7.846 -0.0159 -0.0860 -0.2290
  912MOL0     C20272   2.732   4.081   7.870 -0.0424 -0.1848  0.1130
  912MOL0     C20273   2.779   4.063   8.006  0.7017  0.2882 -0.1386
  912MOL0     C20274   2.925   4.056   8.033  0.4493  0.7656  0.3146
  912MOL0     C20275   2.968   4.154   8.153 -0.4290 -0.0817  0.3023
  912MOL0     O20276   2.905   4.134   8.278 -0.4311  1.0462  0.4713
  912MOL0     C20277   2.942   4.022   8.347  0.0887  0.5884  1.2824
  912MOL0     C20278   2.851   3.917   8.354 -0.2227  0.5164 -0.8704
  912MOL0     C20279   2.890   3.811   8.435  0.2323  0.7712  0.2534
  912MOL0     C20280   3.013   3.800   8.500 -0.4872 -0.0682  0.2560
  912MOL0     C20281   3.049   3.675   8.575  0.4309  0.2807  0.1405
  912MOL0     O20282   3.157   3.692   8.660 -0.0897  0.3613 -0.1988
  912MOL0     C20283   3.203   3.590   8.741 -0.1020  0.7298  0.1919
  912MOL0     C20284   3.350   3.576   8.760  0.8592  0.2667  0.4467
  912MOL0     C20285   3.401   3.478   8.845 -0.8679  0.4063  0.5425
  912MOL0     C20286   3.319   3.392   8.904 -0.3555  1.2681 -0.4132
  912MOL0     O20287   3.350   3.282   8.983 -1.0335 -0.9065 -0.4883
  912MOL0     C20288   3.486   3.225   8.986 -0.2203 -0.5214  0.2866
  912MOL0     C20289   3.584   3.290   9.089 -0.1919 -0.4639  0.5909
  912MOL0     C20290   3.709   3.205   9.120  0.3878 -0.2168  0.6377
  912MOL0     C20291   3.821   3.263   9.207 -0.4999 -0.3105  0.0332
  912MOL0     C20292   3.943   3.166   9.187  1.0436  0.0254  0.4807
  912MOL0     C20293   4.045   3.233   9.265 -1.2491  0.3645 -0.1251
  912MOL0     C20294   4.178   3.165   9.228 -0.7897  0.9769 -0.8035
  912MOL0     C20295   4.260   3.140   9.350  0.5144 -0.0409 -1.1730
  912MOL0    Cl20296   4.289   3.300   9.435 -0.5403 -0.1473  0.5302
  912MOL0     C20297   3.182   3.399   8.876 -0.2482 -0.2570 -0.7839
  912MOL0     C20298   3.124   3.491   8.798  0.1488 -0.3206  0.3334
  912MOL0     O20299   2.969   3.578   8.577  0.6279 -0.1306  0.3202
  912MOL0     C20300   3.107   3.901   8.471 -1.0369  0.6625 -0.0729
  912MOL0     C20301   3.065   4.016   8.407 -0.2197 -0.1676  0.0676
  912MOL0     N20302   2.501   4.169   7.796 -0.0613  0.0242  0.5483
  912MOL0     N20303   2.384   4.127   7.800  0.2003 -0.9445  0.8492
  912MOL0     C20304   1.280   3.895   8.044  0.6323 -0.9733 -0.2338
  912MOL0     C20305   1.175   3.994   8.070 -1.2341  0.3354  0.1326
  912MOL0     C20306   0.924   4.319   8.241 -1.0498 -0.2885  0.4883
  912MOL0     C20307   0.918   4.433   8.155  1.2950  0.1041 -1.0037
  912MOL0     C20308   0.825   4.531   8.196 -0.4128 -0.1879  0.4045
  912MOL0     C20309   0.724   4.510   8.293 -0.3587 -0.3579  0.1398
  912MOL0     O20310   0.628   4.603   8.313  0.3691  0.5084 -0.0469
  912MOL0     C20311   0.594   4.698   8.218  0.5638 -1.1451  0.6418
  912MOL0     C20312   0.506   4.812   8.275  0.5480 -0.4475  0.6641
  912MOL0     C20313   0.530   4.839   8.419  1.1699  0.3928  0.7286
  912MOL0     C20314   0.667   4.896   8.442 -0.0599 -0.4000 -0.4012
  912MOL0     C20315   0.690   4.941   8.580  0.2074  0.6060  0.6848
  912MOL0     C20316   0.721   4.997   8.683  0.2700  0.6042 -0.5737
  912MOL0     C20317   0.733   4.399   8.376  0.3201 -0.1029 -0.0423
  912MOL0     C20318   0.839   4.306   8.351  0.1061 -0.0251 -0.1056
  912MOL0     H20319   1.350   4.275   8.063  0.6992 -0.4129  1.8588
  912MOL0     H20320   1.530   4.128   8.026 -1.1607  0.4206  0.2073
  912MOL0     H20321   1.627   3.964   7.882 -1.0598  0.2328 -1.1532
  912MOL0     H20322   1.518   3.840   7.805  0.7577  0.2325 -0.3118
  912MOL0     H20323   1.767   3.765   7.808 -1.8727 -0.3744 -1.0665
  912MOL0     H20324   1.658   3.657   7.910  3.3751 -1.5754  0.1242
  912MOL0     H20325   1.751   3.818   8.100 -1.1751  0.4917 -0.2812
  912MOL0     H20326   1.848   3.898   7.978 -3.8322  1.3595 -1.2817
  912MOL0     H20327   1.902   3.628   8.112  0.8059 -0.5649 -1.0467
  912MOL0     H20328   1.876   3.621   7.945 -0.2640  0.6211 -1.2638
  912MOL0     H20329   2.112   3.693   8.082 -1.0906 -0.1526 -0.6716
  912MOL0     H20330   2.048   3.842   8.049  0.8333  0.7496 -1.5384
  912MOL0     H20331   2.027   3.769   7.794 -1.7741 -2.6529 -1.7357
  912MOL0     H20332   2.103   3.623   7.835  1.8387  0.8952 -0.8670
  912MOL0     H20333   2.318   3.736   7.883 -1.9134 -1.4655 -1.6057
  912MOL0     H20334   2.262   3.797   7.733 -2.7629 -2.3348 -0.9783
  912MOL0     H20335   2.255   3.934   8.002 -1.0724 -0.4150 -0.1619
  912MOL0     H20336   2.168   4.017   7.869  1.1043  0.8024 -2.2647
  912MOL0     H20337   2.553   3.869   7.907  1.6637  0.4442 -2.7301
  912MOL0     H20338   2.766   4.179   7.834  1.5318 -0.5842  0.4474
  912MOL0     H20339   2.792   4.009   7.813  0.5038  0.4064 -0.0759
  912MOL0     H20340   2.729   3.972   8.041  0.2226  0.0070 -1.4959
  912MOL0     H20341   2.742   4.141   8.073 -3.0994 -1.6250  0.2876
  912MOL0     H20342   2.961   3.954   8.052  2.3753  0.8962 -2.0539
  912MOL0     H20343   2.987   4.066   7.943 -0.8764 -4.2185 -1.4664
  912MOL0     H20344   2.937   4.253   8.120 -2.2598 -0.8972 -0.5567
  912MOL0     H20345   3.076   4.149   8.169 -0.3897 -1.2407 -0.2178
  912MOL0     H20346   2.760   3.902   8.297  0.9187 -4.2269 -1.8331
  912MOL0     H20347   2.818   3.730   8.434  2.5850 -1.6306 -4.2390
  912MOL0     H20348   3.421   3.653   8.732  2.3217 -0.9891  0.5790
  912MOL0     H20349   3.507   3.461   8.861 -1.2014 -1.2971  1.1111
  912MOL0     H20350   3.534   3.226   8.887  1.4407  0.3554  1.0571
  912MOL0     H20351   3.473   3.118   9.007 -4.2823 -1.4069 -4.6385
  912MOL0     H20352   3.523   3.301   9.179 -0.3882 -1.1379  0.5411
  912MOL0     H20353   3.616   3.393   9.069  0.1585  0.0190  3.2436
  912MOL0     H20354   3.760   3.183   9.026  3.0914  0.6639  1.8130
  912MOL0     H20355   3.687   3.110   9.170  2.0390  0.1795  2.2013
  912MOL0     H20356   3.845   3.363   9.170 -0.9177  0.3261  1.4278
  912MOL0     H20357   3.787   3.270   9.311 -0.2854  2.7070 -0.0225
  912MOL0     H20358   3.970   3.163   9.081  3.8698  2.3420  0.9813
  912MOL0     H20359   3.927   3.064   9.221 -0.5903  0.1919  0.3241
  912MOL0     H20360   4.014   3.235   9.370 -2.0765 -1.8788 -0.2778
  912MOL0     H20361   4.056   3.336   9.229 -0.5893  1.1528  2.1561
  912MOL0     H20362   4.161   3.065   9.187  4.2191 -0.4347 -0.1293
  912MOL0     H20363   4.238   3.221   9.155 -1.7001 -0.9969 -3.1950
  912MOL0     H20364   4.357   3.095   9.327  0.6919  0.5532 -1.6088
  912MOL0     H20365   4.213   3.072   9.422  0.8553  0.5617 -0.3681
  912MOL0     H20366   3.121   3.333   8.937  0.6075  0.1555  0.5830
  912MOL0     H20367   3.016   3.489   8.811  0.3185 -1.1509  1.9638
  912MOL0     H20368   3.209   3.896   8.510 -0.1601 -1.5337 -2.4155
  912MOL0     H20369   3.141   4.093   8.414  0.6704 -1.1611  3.3030
  912MOL0     H20370   1.255   3.791   8.028 -0.9630 -0.4221 -1.5454
  912MOL0     H20371   1.078   3.961   8.106 -1.1251 -0.4660 -0.2820
  912MOL0     H20372   0.991   4.458   8.079 -0.2868  1.3904 -2.1979
  912MOL0     H20373   0.854   4.631   8.166  0.3767 -0.5501 -0.0724
  912MOL0     H20374   0.541   4.651   8.134  1.6585  2.1700 -2.1493
  912MOL0     H20375   0.667   4.764   8.170 -1.1021  0.9226  0.7860
  912MOL0     H20376   0.518   4.897   8.208  2.5059 -1.8452 -0.8640
  912MOL0     H20377   0.406   4.768   8.266  1.1147 -1.7768  0.5649
  912MOL0     H20378   0.507   4.754   8.483  2.5541  1.3422  2.5568
  912MOL0     H20379   0.452   4.912   8.441  0.4089  0.2003 -1.1023
  912MOL0     H20380   0.749   4.825   8.430  1.6551  1.3244  0.5866
  912MOL0     H20381   0.699   4.973   8.371  2.5851 -1.9656 -1.0616
  912MOL0     H20382   0.770   5.049   8.763 -1.1924  2.6527 -0.9388
  912MOL0     H20383   0.677   4.388   8.468 -1.7271  2.4003 -0.8650
  912MOL0     H20384   0.855   4.226   8.422  3.0682  1.0497  0.5847
  913MOL0     O20385   4.882  10.224   3.415  0.1674  0.4696 -0.8352
  913MOL0     C20386   4.945  10.231   3.307  0.2653  1.4412  0.0449
  913MOL0     O20387   5.067  10.276   3.294 -0.5328 -0.9706 -0.5677
  913MOL0     C20388   5.155  10.304   3.394 -0.4412 -0.0051 -0.9261
  913MOL0     C20389   5.241  10.408   3.379  0.4377  0.0031  0.4507
  913MOL0     C20390   5.351  10.435   3.470 -0.4782 -0.0001 -0.6594
  913MOL0     C20391   5.374  10.341   3.574  0.6182 -0.7528  0.4910
  913MOL0     O20392   5.459  10.360   3.679 -0.0694 -0.1381 -0.8595
  913MOL0     C20393   5.556  10.251   3.674 -1.1355  0.4371  0.2295
  913MOL0     C20394   5.685  10.305   3.619  0.3700 -0.4050 -0.0553
  913MOL0     C20395   5.747  10.418   3.703  0.3107  0.5524 -0.3025
  913MOL0     C20396   5.860  10.482   3.631 -0.0994  0.6487 -0.3211
  913MOL0     C20397   5.895  10.636   3.664 -0.0371  0.1387  0.1093
  913MOL0     C20398   5.966  10.672   3.800  0.6314  0.2215 -0.2792
  913MOL0     C20399   6.076  10.573   3.853 -1.1790 -0.3153 -0.2290
  913MOL0     C20400   6.190  10.543   3.758  0.2389  0.2346  0.3612
  913MOL0     N20401   6.262  10.437   3.820  0.2741 -0.2228  0.0161
  913MOL0     C20402   6.236  10.304   3.792  0.5213 -1.1763  0.7705
  913MOL0     C20403   6.347  10.234   3.831  0.0732  0.3486 -0.0528
  913MOL0     C20404   6.369  10.078   3.831  1.0640  0.4762  0.6492
  913MOL0     C20405   6.255   9.985   3.887 -0.5680  0.4595 -0.2963
  913MOL0     C20406   6.175  10.039   4.008  0.3448 -0.5143 -0.7088
  913MOL0     C20407   6.255  10.034   4.138 -0.1866 -0.2952 -0.0272
  913MOL0     O20408   6.258  10.162   4.201 -0.4633 -0.5961 -1.3835
  913MOL0     C20409   6.320  10.156   4.321  0.8459  0.0593 -0.5231
  913MOL0     C20410   6.262  10.078   4.426 -0.1117 -0.5167  0.1149
  913MOL0     C20411   6.333  10.062   4.545  0.4439 -0.4382  0.2019
  913MOL0     C20412   6.451  10.133   4.580  0.6941  0.2391  0.9422
  913MOL0     C20413   6.507  10.123   4.714 -0.2778 -0.6213 -0.0212
  913MOL0     O20414   6.513   9.994   4.765  0.0330 -0.5357  0.0145
  913MOL0     C20415   6.583   9.975   4.882 -0.4856 -0.3355  0.6844
  913MOL0     C20416   6.709   9.923   4.880  0.4488  0.6188 -1.1965
  913MOL0     C20417   6.786   9.902   4.997  0.3663 -0.9457  0.5524
  913MOL0     C20418   6.729   9.930   5.118  0.1130  0.2413 -0.7621
  913MOL0     O20419   6.789   9.915   5.238  0.6390 -0.2359  0.0787
  913MOL0     C20420   6.885   9.815   5.250 -0.3773 -0.1699 -0.5336
  913MOL0     C20421   6.932   9.795   5.395 -0.0442  0.3368  0.6710
  913MOL0     C20422   7.054   9.706   5.400  0.7355 -0.7846  0.4031
  913MOL0     C20423   7.059   9.571   5.320 -0.4796 -1.2910 -0.5172
  913MOL0     C20424   7.173   9.468   5.379  0.8831 -0.2407  0.5665
  913MOL0     C20425   7.172   9.339   5.287 -1.0723  0.0536  0.5774
  913MOL0     C20426   7.243   9.230   5.374 -0.5109 -0.1308  0.9536
  913MOL0     C20427   7.293   9.116   5.294 -0.3091  0.5699  0.5050
  913MOL0    Cl20428   7.169   8.983   5.316  0.7230  0.5396 -0.4142
  913MOL0     C20429   6.595   9.974   5.126 -0.9188 -0.1255 -0.1677
  913MOL0     C20430   6.520   9.999   5.005  0.1886  0.3920  0.5242
  913MOL0     O20431   6.527  10.232   4.774 -0.9049  0.0315  0.5609
  913MOL0     C20432   6.498  10.230   4.484 -0.2340  1.0002  0.5642
  913MOL0     C20433   6.434  10.228   4.359 -0.3610 -0.1904 -0.0318
  913MOL0     N20434   6.439  10.329   3.889 -0.5241  0.3168  0.2149
  913MOL0     N20435   6.391  10.445   3.871  0.1016 -0.1460 -0.0063
  913MOL0     C20436   5.285  10.235   3.580 -0.4297  0.7617  1.1055
  913MOL0     C20437   5.179  10.207   3.496  0.6941 -0.2309 -0.1945
  913MOL0     C20438   4.874  10.203   3.182  0.1118 -0.5464  0.7322
  913MOL0     C20439   4.746  10.142   3.185 -0.6757 -0.3475 -1.0228
  913MOL0     C20440   4.692  10.099   3.066  0.1004 -0.0201  0.6228
  913MOL0     C20441   4.747  10.134   2.938  0.3073  0.1991  0.8824
  913MOL0     O20442   4.685  10.133   2.816 -0.5344  0.1251 -0.4549
  913MOL0     C20443   4.572  10.053   2.789  0.2417  0.0870 -0.2676
  913MOL0     C20444   4.484  10.114   2.695  0.2656 -0.4493  0.2385
  913MOL0     C20445   4.399  10.239   2.740 -0.5469  0.4204  0.3617
  913MOL0     C20446   4.259  10.254   2.680 -0.4088 -0.3212  0.1332
  913MOL0     C20447   4.151  10.196   2.763  0.5417 -0.6264  0.0078
  913MOL0     C20448   4.060  10.150   2.834 -0.7837  0.2248  0.2649
  913MOL0     C20449   4.866  10.197   2.936  0.1435  0.1204  0.4808
  913MOL0     C20450   4.938  10.228   3.055 -1.0965  0.0533  0.2920
  913MOL0     H20451   5.219  10.460   3.287 -0.1036 -0.6131  0.2211
  913MOL0     H20452   5.411  10.522   3.450  0.1815 -0.4258 -0.5530
  913MOL0     H20453   5.518  10.162   3.625 -1.7126 -0.1648  1.7249
  913MOL0     H20454   5.580  10.213   3.774  0.6114 -1.3834 -0.8189
  913MOL0     H20455   5.675  10.341   3.516  1.8210  1.0171  0.2663
  913MOL0     H20456   5.753  10.219   3.620 -2.1511 -2.5490 -1.3692
  913MOL0     H20457   5.773  10.377   3.801 -3.2149 -3.2596 -0.6830
  913MOL0     H20458   5.677  10.497   3.730 -1.9817 -1.8530  1.3666
  913MOL0     H20459   5.948  10.420   3.654 -0.2985  0.4581 -0.0687
  913MOL0     H20460   5.840  10.485   3.524  0.0474 -0.0771 -0.3752
  913MOL0     H20461   5.811  10.706   3.672 -0.3839 -0.4791  3.6835
  913MOL0     H20462   5.969  10.673   3.593  0.6328 -0.1272  0.6611
  913MOL0     H20463   5.882  10.671   3.870  0.6401 -1.3055 -0.2491
  913MOL0     H20464   5.992  10.778   3.793  1.2959  0.0223 -0.9485
  913MOL0     H20465   6.124  10.626   3.935 -1.1754  2.5451 -1.9383
  913MOL0     H20466   6.023  10.480   3.878 -1.8170 -0.9942 -3.5923
  913MOL0     H20467   6.257  10.624   3.728  0.8598 -0.4709 -0.1833
  913MOL0     H20468   6.154  10.501   3.663 -2.0733  1.4066  0.6457
  913MOL0     H20469   6.142  10.258   3.765 -0.5794  0.8721  0.9038
  913MOL0     H20470   6.454  10.059   3.898  0.5593 -1.6651  0.7573
  913MOL0     H20471   6.391  10.037   3.733  0.9712 -0.3283  0.9602
  913MOL0     H20472   6.281   9.879   3.889 -1.0918  0.3048 -1.2458
  913MOL0     H20473   6.189   9.994   3.800 -0.1188  1.2184 -0.5705
  913MOL0     H20474   6.155  10.145   3.988 -0.0174 -0.4013  0.1963
  913MOL0     H20475   6.081   9.984   4.018 -0.7692  0.7462 -3.3083
  913MOL0     H20476   6.359  10.011   4.112 -0.2659  0.6520 -1.2943
  913MOL0     H20477   6.232   9.951   4.206  2.7959  0.1656  1.7396
  913MOL0     H20478   6.170  10.021   4.410 -0.8960  1.2437 -2.1130
  913MOL0     H20479   6.270  10.002   4.610 -0.0797  0.8466  0.9154
  913MOL0     H20480   6.757   9.889   4.789  3.1323 -1.8191  0.9410
  913MOL0     H20481   6.877   9.844   5.008  0.8310  0.0329  2.3562
  913MOL0     H20482   6.965   9.838   5.179 -2.4700  0.5568 -2.8146
  913MOL0     H20483   6.840   9.721   5.216  0.6870 -2.0128  2.6633
  913MOL0     H20484   6.844   9.764   5.452  0.8921 -1.5146  1.1611
  913MOL0     H20485   6.956   9.896   5.430  1.9948 -0.2836  1.1898
  913MOL0     H20486   7.074   9.681   5.505 -2.5308 -3.1364  0.6288
  913MOL0     H20487   7.132   9.778   5.373  0.3946 -0.2211  0.8957
  913MOL0     H20488   6.959   9.526   5.310 -1.1072  0.1719 -1.0474
  913MOL0     H20489   7.097   9.584   5.219  1.3903 -0.4991  0.2495
  913MOL0     H20490   7.152   9.444   5.484 -1.9314  3.8152  1.1522
  913MOL0     H20491   7.272   9.515   5.378  0.9082 -0.1296  2.8546
  913MOL0     H20492   7.227   9.362   5.195 -2.2308 -0.3005 -0.2245
  913MOL0     H20493   7.072   9.299   5.269 -0.2501 -1.6452 -0.5153
  913MOL0     H20494   7.327   9.279   5.425  0.4755 -0.5917 -0.1660
  913MOL0     H20495   7.169   9.197   5.448 -2.5376  0.5039 -0.6986
  913MOL0     H20496   7.388   9.074   5.329  0.5184  1.7586 -0.2399
  913MOL0     H20497   7.276   9.129   5.187 -3.4922 -0.7533  0.7390
  913MOL0     H20498   6.559   9.980   5.229 -1.6369 -1.3469 -0.3223
  913MOL0     H20499   6.421  10.043   5.010  1.2286  2.9651  0.0777
  913MOL0     H20500   6.585  10.294   4.494  1.9933 -1.4106 -1.7390
  913MOL0     H20501   6.470  10.297   4.283  1.2854  0.2884  1.1424
  913MOL0     H20502   5.299  10.173   3.667  0.4465 -0.2069  0.3110
  913MOL0     H20503   5.113  10.123   3.515  0.8135 -0.5612 -1.1639
  913MOL0     H20504   4.685  10.127   3.274  1.3259  0.7561  0.6070
  913MOL0     H20505   4.600  10.043   3.079  0.1446 -0.1183  0.5097
  913MOL0     H20506   4.519  10.038   2.883  2.6654 -0.7994  1.0574
  913MOL0     H20507   4.607   9.954   2.759  2.3680  1.2047 -1.7621
  913MOL0     H20508   4.540  10.149   2.608 -0.9198  0.1248 -0.3155
  913MOL0     H20509   4.421  10.033   2.657 -2.4354  0.7652  1.7865
  913MOL0     H20510   4.442  10.338   2.719 -2.3009  1.2340  0.3761
  913MOL0     H20511   4.380  10.223   2.846  1.2522 -3.5615  0.2346
  913MOL0     H20512   4.235  10.359   2.666 -0.6927  0.2414  3.8389
  913MOL0     H20513   4.261  10.199   2.585 -1.9421  0.5135 -0.4109
  913MOL0     H20514   3.983  10.132   2.906 -2.7829 -1.6206 -2.1069
  913MOL0     H20515   4.912  10.219   2.840 -0.8535 -0.9373 -0.2604
  913MOL0     H20516   5.039  10.268   3.052 -0.0862 -2.3302 -0.7216
  914MOL0     O20517   3.938   7.283   9.391  0.1452 -0.1898  0.0343
  914MOL0     C20518   3.960   7.258   9.272 -0.0977 -0.2260  0.2011
  914MOL0     O20519   4.066   7.187   9.224  0.0620  0.3906 -0.1660
  914MOL0     C20520   4.145   7.117   9.319 -0.5272 -1.0038 -0.3122
  914MOL0     C20521   4.280   7.153   9.360 -0.4056 -0.0459 -0.8147
  914MOL0     C20522   4.357   7.081   9.457 -0.7446 -0.0062  0.1370
  914MOL0     C20523   4.299   6.971   9.525  0.0315 -0.2305  0.1758
  914MOL0     O20524   4.366   6.917   9.628 -0.9558 -0.0984 -0.9096
  914MOL0     C20525   4.395   7.018   9.728 -0.4130 -0.7376 -0.5079
  914MOL0     C20526   4.536   7.025   9.771 -0.5525 -0.3514 -0.6075
  914MOL0     C20527   4.590   6.884   9.787 -0.5277 -0.3723 -0.1852
  914MOL0     C20528   4.730   6.872   9.856 -0.5854  0.0687 -0.0470
  914MOL0     C20529   4.774   6.719   9.849 -0.1138  0.1909 -0.3506
  914MOL0     C20530   4.927   6.696   9.870  0.8893 -0.2240  0.3333
  914MOL0     C20531   5.005   6.723   9.748 -0.3626  0.9481  0.1192
  914MOL0     C20532   5.140   6.639   9.752  0.4459  0.4286 -0.4165
  914MOL0     N20533   5.222   6.691   9.645 -0.0896 -0.1252 -0.8173
  914MOL0     C20534   5.206   6.651   9.511 -0.4873 -0.5802  0.0732
  914MOL0     C20535   5.285   6.731   9.435  0.0777 -0.0604  0.6686
  914MOL0     C20536   5.296   6.730   9.290  0.0922 -1.4974  0.1946
  914MOL0     C20537   5.428   6.725   9.232 -0.3624  0.5988 -0.1028
  914MOL0     C20538   5.430   6.732   9.073  0.5610 -0.5446  0.1738
  914MOL0     C20539   5.551   6.805   9.017  0.6732  1.3459 -0.2640
  914MOL0     O20540   5.543   6.948   9.029 -0.4081 -0.1495  0.8715
  914MOL0     C20541   5.460   7.025   8.958  0.4229  0.3256  0.5177
  914MOL0     C20542   5.372   6.984   8.860 -0.3385  0.1308  0.5492
  914MOL0     C20543   5.287   7.073   8.798 -0.4264  1.1285  0.4464
  914MOL0     C20544   5.277   7.212   8.832 -0.1595  0.0323 -0.7290
  914MOL0     C20545   5.172   7.293   8.780 -1.6338 -0.9868  0.3451
  914MOL0     O20546   5.161   7.423   8.825 -0.0301  0.7131  0.6955
  914MOL0     C20547   5.053   7.500   8.788  0.1170 -0.3330 -0.1346
  914MOL0     C20548   4.929   7.451   8.773 -0.3459  0.0968 -0.8530
  914MOL0     C20549   4.815   7.528   8.747  0.5538 -1.2682  1.1471
  914MOL0     C20550   4.825   7.673   8.740  0.0878  0.3590 -0.1893
  914MOL0     O20551   4.728   7.763   8.708 -0.1397 -0.2883 -0.2628
  914MOL0     C20552   4.591   7.726   8.706 -0.4352 -0.2599 -0.3936
  914MOL0     C20553   4.538   7.711   8.565 -1.2910  0.3865  0.7209
  914MOL0     C20554   4.587   7.571   8.500 -0.8622 -0.9020  0.9228
  914MOL0     C20555   4.519   7.437   8.536  0.9397 -0.5594  0.5599
  914MOL0     C20556   4.600   7.305   8.489  0.5100 -1.0166  0.8324
  914MOL0     C20557   4.634   7.314   8.341 -1.1860 -0.3408 -0.0310
  914MOL0     C20558   4.683   7.177   8.302  0.1529  0.4398 -0.2375
  914MOL0     C20559   4.752   7.162   8.163 -0.0485  0.7189  0.3326
  914MOL0    Cl20560   4.767   6.987   8.140 -0.1864 -0.0579  0.3449
  914MOL0     C20561   4.962   7.722   8.745  0.5553 -0.4075  0.4578
  914MOL0     C20562   5.071   7.639   8.784 -0.5100  0.5665 -0.3147
  914MOL0     O20563   5.103   7.241   8.695  0.4061 -1.0613 -0.1584
  914MOL0     C20564   5.358   7.248   8.944 -0.9511 -0.3494  0.1038
  914MOL0     C20565   5.452   7.156   9.002  1.0665 -0.4238  0.6723
  914MOL0     N20566   5.370   6.790   9.526 -1.1179 -0.2990 -0.4868
  914MOL0     N20567   5.331   6.771   9.650  0.2582  0.1806  0.2762
  914MOL0     C20568   4.163   6.940   9.488 -0.5517 -0.0397  0.1775
  914MOL0     C20569   4.089   7.001   9.387 -1.1167 -0.6321  1.0871
  914MOL0     C20570   3.866   7.309   9.169 -0.8552  0.1422  0.2488
  914MOL0     C20571   3.892   7.295   9.030 -0.7548  0.5263  0.5947
  914MOL0     C20572   3.794   7.317   8.925  0.7031  0.0880  0.0992
  914MOL0     C20573   3.679   7.384   8.953  0.0882 -0.6071  1.3377
  914MOL0     O20574   3.581   7.411   8.865 -0.6182  0.2634  0.0811
  914MOL0     C20575   3.619   7.477   8.747 -0.4661  0.0051 -0.1376
  914MOL0     C20576   3.535   7.605   8.744  0.6034 -0.6706  0.9599
  914MOL0     C20577   3.550   7.661   8.607 -0.9231  0.8034 -0.9122
  914MOL0     C20578   3.463   7.785   8.600  0.3276 -0.2317  0.2642
  914MOL0     C20579   3.515   7.864   8.490  0.1559 -0.4538  0.1790
  914MOL0     C20580   3.556   7.946   8.404  0.4822  0.5977  0.2829
  914MOL0     C20581   3.658   7.419   9.086  0.0593  0.2757  0.9421
  914MOL0     C20582   3.752   7.375   9.187  0.1605 -0.7427 -1.1343
  914MOL0     H20583   4.323   7.238   9.307  0.5566  0.0598  0.0993
  914MOL0     H20584   4.458   7.120   9.458 -1.6148  2.4386  0.5433
  914MOL0     H20585   4.340   6.989   9.818 -1.4097  0.1798 -0.8024
  914MOL0     H20586   4.346   7.114   9.708 -1.3495 -1.2387 -0.7236
  914MOL0     H20587   4.541   7.074   9.869  1.5028 -0.8445 -0.4120
  914MOL0     H20588   4.594   7.100   9.716  0.5602 -1.6412 -1.2246
  914MOL0     H20589   4.591   6.823   9.697  1.5633  0.8118 -1.0317
  914MOL0     H20590   4.524   6.840   9.863  0.9613 -2.1426  0.1642
  914MOL0     H20591   4.806   6.928   9.801 -0.1613 -2.4415 -2.2349
  914MOL0     H20592   4.728   6.919   9.955  0.4429  0.0873 -0.0205
  914MOL0     H20593   4.750   6.672   9.753  2.0100 -0.8226 -0.4451
  914MOL0     H20594   4.732   6.667   9.936  0.1456 -0.4359 -0.5950
  914MOL0     H20595   4.940   6.591   9.898 -0.6053  0.6071  5.0259
  914MOL0     H20596   4.957   6.749   9.961 -0.1195 -0.3986  0.7809
  914MOL0     H20597   4.954   6.681   9.660  2.7569  1.5104 -2.1322
  914MOL0     H20598   5.011   6.831   9.735  1.2286  0.8174 -0.4410
  914MOL0     H20599   5.119   6.533   9.732 -0.1930  0.9102 -2.5825
  914MOL0     H20600   5.197   6.652   9.845  0.7597 -0.1932 -0.5189
  914MOL0     H20601   5.125   6.586   9.480 -0.2983 -0.1810 -1.3150
  914MOL0     H20602   5.241   6.821   9.264  2.4785 -0.4504 -1.5648
  914MOL0     H20603   5.238   6.647   9.248 -0.4226 -0.8364 -0.4087
  914MOL0     H20604   5.486   6.642   9.275 -1.6356  0.2370  0.9923
  914MOL0     H20605   5.481   6.816   9.262 -3.9605  2.3853  1.5127
  914MOL0     H20606   5.428   6.630   9.032 -0.2221 -0.1569 -0.8127
  914MOL0     H20607   5.335   6.779   9.044 -1.3290 -3.0102  1.9048
  914MOL0     H20608   5.571   6.772   8.915 -0.2574 -0.2568  0.0317
  914MOL0     H20609   5.633   6.766   9.079  0.7525  2.4940  0.3769
  914MOL0     H20610   5.371   6.880   8.828 -1.2156  0.3322 -0.1203
  914MOL0     H20611   5.216   7.020   8.735 -0.6772  1.3625  0.5286
  914MOL0     H20612   4.900   7.349   8.799  1.9930 -0.5594 -0.6394
  914MOL0     H20613   4.715   7.487   8.743 -0.2496  0.6467 -1.2155
  914MOL0     H20614   4.544   7.814   8.750  1.5650 -0.1712  1.7659
  914MOL0     H20615   4.574   7.646   8.779  0.1754 -1.0889 -1.1339
  914MOL0     H20616   4.571   7.792   8.500 -4.2450 -0.4491 -2.0470
  914MOL0     H20617   4.429   7.713   8.569 -1.3791 -1.2986 -0.1861
  914MOL0     H20618   4.696   7.567   8.515 -0.5106  1.7269 -0.2586
  914MOL0     H20619   4.566   7.596   8.396  0.1901 -1.2139  0.6235
  914MOL0     H20620   4.501   7.432   8.644 -3.0172  3.0472  0.3464
  914MOL0     H20621   4.426   7.454   8.481  1.4562  2.7024  0.5095
  914MOL0     H20622   4.533   7.219   8.496  0.6216 -1.1150  0.7108
  914MOL0     H20623   4.693   7.283   8.541  1.4833  0.7710 -0.0370
  914MOL0     H20624   4.724   7.376   8.340 -2.7582  2.1267 -2.0022
  914MOL0     H20625   4.551   7.348   8.278 -0.1032 -0.6693 -1.6893
  914MOL0     H20626   4.742   7.134   8.383  0.3338 -1.0106 -1.1020
  914MOL0     H20627   4.594   7.114   8.296  0.9763 -0.8697  0.8248
  914MOL0     H20628   4.847   7.214   8.175  1.6902 -2.5992  2.5597
  914MOL0     H20629   4.688   7.202   8.083 -1.5403  0.4851  1.3650
  914MOL0     H20630   4.983   7.829   8.742 -0.0333 -0.3097 -0.5651
  914MOL0     H20631   5.162   7.696   8.800 -0.7225  1.8983 -3.2049
  914MOL0     H20632   5.352   7.354   8.967  1.1305  0.5359 -2.8884
  914MOL0     H20633   5.511   7.188   9.087  0.9359  0.1933  0.5363
  914MOL0     H20634   4.118   6.860   9.546  0.9645  0.4099  2.1331
  914MOL0     H20635   3.990   6.963   9.362 -0.8484 -0.9193  0.4524
  914MOL0     H20636   3.982   7.240   9.005  0.6794  3.0059  0.0615
  914MOL0     H20637   3.808   7.276   8.825  1.6149 -1.1772  0.7244
  914MOL0     H20638   3.594   7.410   8.664 -1.9537  0.1691  0.1462
  914MOL0     H20639   3.727   7.493   8.743 -0.6697  1.3525 -1.0003
  914MOL0     H20640   3.428   7.587   8.761 -0.4795  1.7555 -2.2735
  914MOL0     H20641   3.557   7.675   8.824 -0.7162  0.6007  0.2625
  914MOL0     H20642   3.525   7.589   8.528  0.9720 -0.8150 -0.1106
  914MOL0     H20643   3.654   7.685   8.582 -1.7476  1.1607 -4.6437
  914MOL0     H20644   3.355   7.777   8.583 -0.2501  0.0688  3.1284
  914MOL0     H20645   3.485   7.837   8.694  1.8954 -2.6244  1.3101
  914MOL0     H20646   3.612   8.012   8.341  1.6278 -1.1686 -0.6035
  914MOL0     H20647   3.584   7.492   9.115 -0.9579 -0.3820  0.0808
  914MOL0     H20648   3.724   7.413   9.284  1.7810  3.4452 -2.0722
  915MOL0     O20649  11.340   0.611   9.283 -1.2621 -0.0369 -0.1625
  915MOL0     C20650  11.309   0.555   9.392 -0.8882 -0.3980  0.4155
  915MOL0     O20651  11.199   0.488   9.404 -0.4796  0.5513 -0.7847
  915MOL0     C20652  11.105   0.469   9.298 -0.2699  0.5061  0.0032
  915MOL0     C20653  10.974   0.503   9.322 -0.4461  0.8147  1.0833
  915MOL0     C20654  10.872   0.479   9.231  0.3122 -0.4482 -0.2016
  915MOL0     C20655  10.900   0.410   9.112  0.2872 -0.2166 -0.0473
  915MOL0     O20656  10.810   0.385   9.009 -0.2687  0.1278 -0.0931
  915MOL0     C20657  10.676   0.345   9.051  0.3518  0.4948 -0.4476
  915MOL0     C20658  10.589   0.344   8.928 -0.2043 -0.6004 -0.4698
  915MOL0     C20659  10.463   0.257   8.934  0.0584  0.3973 -0.3223
  915MOL0     C20660  10.383   0.291   8.810  0.1523 -0.6602  0.4497
  915MOL0     C20661  10.257   0.204   8.782 -0.4202 -0.1573  0.8353
  915MOL0     C20662  10.199   0.240   8.649  0.5246 -0.1857  0.4568
  915MOL0     C20663  10.066   0.159   8.624 -0.2343  0.8647  0.3469
  915MOL0     C20664   9.985   0.200   8.498 -0.4697  0.8099  0.0150
  915MOL0     N20665   9.955   0.342   8.497  0.0702  0.2830  0.1177
  915MOL0     C20666   9.855   0.399   8.589  0.2895  0.0386  0.1813
  915MOL0     C20667   9.854   0.525   8.538  0.6280  0.7593 -0.2799
  915MOL0     C20668   9.751   0.631   8.587 -0.4229  1.0692 -0.2402
  915MOL0     C20669   9.754   0.651   8.742 -0.0869  0.2447  0.5598
  915MOL0     C20670   9.876   0.734   8.784 -0.0992  0.8859  0.7410
  915MOL0     C20671   9.854   0.780   8.923 -0.2581 -0.0297 -0.4509
  915MOL0     O20672   9.973   0.775   8.999 -0.4213  0.9208  0.8684
  915MOL0     C20673  10.013   0.653   9.055  0.6161  0.0603 -0.4529
  915MOL0     C20674   9.951   0.527   9.044  0.7777 -0.5474 -0.2483
  915MOL0     C20675  10.003   0.420   9.123  0.4639 -0.3549 -0.1012
  915MOL0     C20676  10.117   0.434   9.201  0.1278  0.2439 -0.1691
  915MOL0     C20677  10.164   0.311   9.271 -0.2760  0.3937 -0.2317
  915MOL0     O20678  10.121   0.186   9.230 -0.7784 -0.1661  0.4432
  915MOL0     C20679  10.173   0.070   9.282 -1.0797 -0.2152 -0.2924
  915MOL0     C20680  10.272  -0.002   9.214  1.3657 -0.3164 -0.2657
  915MOL0     C20681  10.317  -0.127   9.272 -0.0140  0.3148 -0.1425
  915MOL0     C20682  10.259  -0.166   9.395 -0.2186  0.3528  0.5023
  915MOL0     O20683  10.278  -0.293   9.454  0.0419  0.4168 -0.1653
  915MOL0     C20684  10.169  -0.379   9.464  0.0223 -0.0911 -0.2373
  915MOL0     C20685  10.117  -0.392   9.611  0.8483 -0.4558 -0.7954
  915MOL0     C20686  10.011  -0.510   9.617  0.6204  0.1428  0.6522
  915MOL0     C20687  10.084  -0.643   9.605  0.3132  0.0863 -0.1204
  915MOL0     C20688   9.996  -0.755   9.645 -0.0026 -0.1253  0.1649
  915MOL0     C20689   9.883  -0.789   9.554 -0.2994 -0.2432  0.4670
  915MOL0     C20690   9.798  -0.894   9.621 -0.5431 -0.4506  0.0187
  915MOL0     C20691   9.683  -0.842   9.688  0.9611 -0.0667 -0.3312
  915MOL0    Cl20692   9.563  -0.774   9.577  0.4237  0.3911 -0.1633
  915MOL0     C20693  10.163  -0.090   9.463  0.3569 -0.2689 -0.2873
  915MOL0     C20694  10.130   0.038   9.412 -0.3377  1.2393 -0.1781
  915MOL0     O20695  10.246   0.324   9.359  0.4132 -0.5658  0.0179
  915MOL0     C20696  10.178   0.561   9.213 -1.1384  0.0658  0.3302
  915MOL0     C20697  10.123   0.666   9.147  0.1372  0.9275 -0.6498
  915MOL0     N20698   9.955   0.543   8.449 -0.8903 -0.4986 -0.6825
  915MOL0     N20699  10.017   0.435   8.428  0.3998  0.0835  0.2197
  915MOL0     C20700  11.036   0.385   9.083 -0.4162  0.8131 -0.7343
  915MOL0     C20701  11.136   0.410   9.175  0.3512 -0.9029  0.1524
  915MOL0     C20702  11.397   0.572   9.515 -1.2111 -0.8774  0.4704
  915MOL0     C20703  11.474   0.689   9.525  0.1930 -0.3196 -1.0535
  915MOL0     C20704  11.552   0.719   9.638 -1.0725  0.1946  1.1401
  915MOL0     C20705  11.546   0.632   9.752 -0.0303 -0.3701  0.0796
  915MOL0     O20706  11.613   0.660   9.863  0.2976  1.1324 -0.6038
  915MOL0     C20707  11.696   0.779   9.867 -0.1606 -0.2979  0.4564
  915MOL0     C20708  11.766   0.785   9.999  0.0016 -0.5569  0.8214
  915MOL0     C20709  11.888   0.679   9.987  0.6360 -0.1441  0.0108
  915MOL0     C20710  11.946   0.635  10.134 -0.1288 -0.8744 -0.2809
  915MOL0     C20711  12.035   0.526  10.109 -0.4791  0.5608  0.8389
  915MOL0     C20712  12.108   0.429  10.088  0.8212  0.3451  0.0072
  915MOL0     C20713  11.458   0.524   9.749 -0.0662 -0.3919 -0.2364
  915MOL0     C20714  11.390   0.491   9.629 -0.3744 -0.4559 -0.3777
  915MOL0     H20715  10.948   0.552   9.416 -3.7222 -1.5801  1.6034
  915MOL0     H20716  10.773   0.518   9.252  1.5708  3.3498 -0.5398
  915MOL0     H20717  10.623   0.415   9.116 -0.6676  0.6568 -1.4137
  915MOL0     H20718  10.683   0.251   9.106  0.6082 -0.2350 -1.6729
  915MOL0     H20719  10.655   0.319   8.845  2.1221 -1.6075  1.5675
  915MOL0     H20720  10.567   0.451   8.912 -3.2094 -0.6700  2.1219
  915MOL0     H20721  10.395   0.275   9.017  0.8715  2.9350 -0.0894
  915MOL0     H20722  10.480   0.150   8.945 -1.8562  0.1886  0.8814
  915MOL0     H20723  10.361   0.398   8.802 -1.5544 -0.9874  0.5287
  915MOL0     H20724  10.449   0.273   8.724 -2.1034 -1.1125 -1.2758
  915MOL0     H20725  10.187   0.219   8.864  1.3829  1.9398  2.1001
  915MOL0     H20726  10.277   0.098   8.762  2.4823  0.3393  0.6482
  915MOL0     H20727  10.265   0.217   8.565 -0.9322  1.1327 -1.1253
  915MOL0     H20728  10.181   0.348   8.646 -1.4897 -0.4421  1.4197
  915MOL0     H20729  10.091   0.052   8.630  1.1684  1.2586  3.0810
  915MOL0     H20730   9.999   0.173   8.709 -1.6366  1.5883 -0.8434
  915MOL0     H20731   9.889   0.148   8.501  0.3645 -0.7600  2.8394
  915MOL0     H20732  10.037   0.158   8.411  0.1444 -1.0494  1.2150
  915MOL0     H20733   9.795   0.356   8.668 -1.3001 -1.2745 -1.6528
  915MOL0     H20734   9.654   0.599   8.546  1.0523 -1.3380 -2.1227
  915MOL0     H20735   9.779   0.730   8.548  1.3810  1.9692  3.0011
  915MOL0     H20736   9.745   0.557   8.797  0.8734  0.7221  1.5662
  915MOL0     H20737   9.666   0.715   8.756  1.9213  3.6221 -1.0582
  915MOL0     H20738   9.965   0.671   8.782 -0.8839 -0.2815  1.8221
  915MOL0     H20739   9.891   0.818   8.714  0.1926 -2.6736 -3.9994
  915MOL0     H20740   9.762   0.737   8.963 -0.1296 -0.9241 -1.0981
  915MOL0     H20741   9.839   0.889   8.923  1.2419  0.1962 -0.0503
  915MOL0     H20742   9.867   0.519   8.976 -2.2189  1.6850  2.8498
  915MOL0     H20743   9.945   0.329   9.110 -0.4297  0.0401  0.9241
  915MOL0     H20744  10.305   0.027   9.115 -0.4852  0.2451 -0.7447
  915MOL0     H20745  10.393  -0.191   9.228  2.0986  1.0778  2.1727
  915MOL0     H20746  10.214  -0.472   9.428  4.0860  0.9164  1.6728
  915MOL0     H20747  10.089  -0.346   9.397 -1.1467 -0.7278  0.7990
  915MOL0     H20748  10.071  -0.303   9.653 -3.4344 -2.6072 -0.3960
  915MOL0     H20749  10.206  -0.408   9.673  1.4283 -2.0622 -1.9664
  915MOL0     H20750   9.936  -0.497   9.538  0.8195 -1.8921  0.0724
  915MOL0     H20751   9.957  -0.521   9.711 -0.9814  1.3255 -0.0702
  915MOL0     H20752  10.125  -0.660   9.505  2.5371  0.2310  0.7168
  915MOL0     H20753  10.160  -0.639   9.684 -1.1452  2.7972  1.3173
  915MOL0     H20754   9.952  -0.725   9.741 -1.7553  1.2221 -0.9840
  915MOL0     H20755  10.057  -0.846   9.654 -0.9307 -0.9544 -1.4014
  915MOL0     H20756   9.916  -0.828   9.457 -1.3653  0.1554 -0.0744
  915MOL0     H20757   9.821  -0.699   9.546 -0.2587 -0.0272  2.1660
  915MOL0     H20758   9.768  -0.981   9.560  0.3664  0.3721 -1.6750
  915MOL0     H20759   9.863  -0.938   9.697 -1.0636 -4.5851 -1.6025
  915MOL0     H20760   9.714  -0.759   9.752 -0.0945 -2.1273  3.1390
  915MOL0     H20761   9.632  -0.913   9.754 -0.0284 -0.5885 -1.6100
  915MOL0     H20762  10.123  -0.122   9.559  2.4691 -0.2515  0.6598
  915MOL0     H20763  10.063   0.096   9.474  0.6706  2.2458  0.0047
  915MOL0     H20764  10.271   0.580   9.265 -0.1176  2.7631 -2.1930
  915MOL0     H20765  10.160   0.766   9.167 -0.7179  1.6811 -2.5744
  915MOL0     H20766  11.058   0.325   8.995 -0.6501 -1.8414  0.9107
  915MOL0     H20767  11.231   0.365   9.146  1.5011 -1.0833  3.7187
  915MOL0     H20768  11.478   0.767   9.449 -0.8603  0.2757 -0.5228
  915MOL0     H20769  11.598   0.817   9.644  1.8741 -0.9359 -0.6681
  915MOL0     H20770  11.629   0.866   9.865 -0.4939 -0.4030  3.2524
  915MOL0     H20771  11.769   0.779   9.786  0.3064  0.4982  0.8696
  915MOL0     H20772  11.799   0.887  10.020 -2.0836  0.2936  0.2578
  915MOL0     H20773  11.702   0.747  10.079  2.7465 -2.5353  2.2572
  915MOL0     H20774  11.970   0.736   9.943 -0.8635  3.1319  1.1521
  915MOL0     H20775  11.861   0.584   9.940  0.3587  0.0248 -0.1690
  915MOL0     H20776  11.991   0.721  10.185 -2.7634  0.5053 -0.1450
  915MOL0     H20777  11.862   0.600  10.194 -1.1799 -0.3292 -1.3961
  915MOL0     H20778  12.161   0.336  10.085 -0.4489 -0.3935 -0.2285
  915MOL0     H20779  11.461   0.447   9.826 -2.2892  0.6525  0.9758
  915MOL0     H20780  11.324   0.406   9.620 -1.5340  0.0776  2.1755
  916MOL0     O20781   0.819   8.232   0.321 -0.2222  0.4017 -0.6741
  916MOL0     C20782   0.729   8.305   0.357  0.4578 -0.7825 -0.2487
  916MOL0     O20783   0.668   8.403   0.287 -0.4562  0.1764  0.2915
  916MOL0     C20784   0.715   8.448   0.170  0.2202 -0.7078  0.5235
  916MOL0     C20785   0.848   8.457   0.139  0.0064  1.1871  0.6840
  916MOL0     C20786   0.880   8.521   0.019  1.3063  1.0938 -0.0337
  916MOL0     C20787   0.788   8.570  -0.074  0.2156 -1.4507  1.0662
  916MOL0     O20788   0.823   8.621  -0.198  0.0319  0.5005 -0.2059
  916MOL0     C20789   0.740   8.709  -0.274  1.3323  0.1838  0.1190
  916MOL0     C20790   0.802   8.755  -0.404  0.5454 -0.3976  0.7954
  916MOL0     C20791   0.683   8.766  -0.502  0.9354  0.1211  0.1220
  916MOL0     C20792   0.711   8.854  -0.624 -0.2826 -1.1656  0.1438
  916MOL0     C20793   0.722   9.005  -0.598  0.1713  0.2687 -0.1826
  916MOL0     C20794   0.750   9.090  -0.728 -0.9716 -0.2323 -0.4195
  916MOL0     C20795   0.846   9.030  -0.820 -0.1222  0.2604  0.0348
  916MOL0     C20796   0.978   8.995  -0.775  0.0003  0.1696  0.9354
  916MOL0     N20797   1.047   9.113  -0.729 -0.3096 -0.0504 -0.3605
  916MOL0     C20798   1.118   9.194  -0.809  0.6422  0.1713  0.3616
  916MOL0     C20799   1.174   9.284  -0.725  0.5218  0.1139 -0.1457
  916MOL0     C20800   1.260   9.402  -0.749  0.8571  0.0432  0.5922
  916MOL0     C20801   1.336   9.406  -0.883  0.6779  0.3759  0.7909
  916MOL0     C20802   1.430   9.523  -0.896  0.3852  0.0434 -0.4519
  916MOL0     C20803   1.560   9.496  -0.979  0.4374  0.0678  0.2433
  916MOL0     O20804   1.634   9.621  -0.986 -0.5387 -0.2194 -0.1136
  916MOL0     C20805   1.708   9.667  -1.091  0.5664  1.2041 -0.1212
  916MOL0     C20806   1.722   9.597  -1.209  0.5316  0.2273  0.2784
  916MOL0     C20807   1.818   9.647  -1.298  0.6788 -0.3110  0.1435
  916MOL0     C20808   1.887   9.774  -1.277  0.0580  0.5156  0.1531
  916MOL0     C20809   1.981   9.830  -1.378 -0.5769  0.0952 -0.0457
  916MOL0     O20810   1.999   9.961  -1.374  0.3966 -0.5357  0.0760
  916MOL0     C20811   2.094  10.032  -1.447  0.2271 -0.1177  0.5063
  916MOL0     C20812   2.049  10.150  -1.506 -0.4049 -0.0704 -0.1024
  916MOL0     C20813   2.134  10.224  -1.590  0.0344  0.7277 -0.4772
  916MOL0     C20814   2.261  10.181  -1.601  1.0898 -0.7988 -0.1534
  916MOL0     O20815   2.336  10.263  -1.677  0.0691  0.3162  0.5136
  916MOL0     C20816   2.475  10.231  -1.709  0.4901  0.5231  0.1083
  916MOL0     C20817   2.516  10.362  -1.773  0.4179 -0.2372 -0.1504
  916MOL0     C20818   2.670  10.373  -1.794  0.9820 -0.4214  0.7410
  916MOL0     C20819   2.728  10.423  -1.657 -0.3912  0.4827 -0.8560
  916MOL0     C20820   2.881  10.426  -1.665  0.6672 -1.7288 -0.3588
  916MOL0     C20821   2.944  10.458  -1.526 -0.3324  0.0047 -0.3837
  916MOL0     C20822   3.068  10.563  -1.550  0.1125  1.2582 -0.4798
  916MOL0     C20823   3.178  10.558  -1.443 -0.3054 -0.4911  0.2975
  916MOL0    Cl20824   3.299  10.684  -1.479  0.0241 -0.5362 -0.0557
  916MOL0     C20825   2.309  10.060  -1.540  0.4973 -0.2797 -1.2536
  916MOL0     C20826   2.227   9.984  -1.461  0.3467 -0.3030 -0.1951
  916MOL0     O20827   2.031   9.751  -1.455 -0.2005 -0.1180 -0.1755
  916MOL0     C20828   1.863   9.839  -1.156 -1.0229  0.3514  0.1966
  916MOL0     C20829   1.770   9.791  -1.062  0.6504  0.6841  0.2631
  916MOL0     N20830   1.141   9.247  -0.597 -0.3220 -0.0369  0.7507
  916MOL0     N20831   1.065   9.145  -0.604 -0.2379 -0.0574 -0.2798
  916MOL0     C20832   0.656   8.564  -0.035  1.1694  1.1524  0.3164
  916MOL0     C20833   0.619   8.498   0.079  1.2954  0.2518 -0.4598
  916MOL0     C20834   0.695   8.302   0.499 -0.2173 -0.1214 -0.1379
  916MOL0     C20835   0.572   8.352   0.537  0.5195 -0.4229  0.0733
  916MOL0     C20836   0.514   8.320   0.658  0.3591  0.3078  0.0860
  916MOL0     C20837   0.584   8.245   0.748  0.6051 -0.0158  0.0038
  916MOL0     O20838   0.516   8.226   0.865  0.8084  0.0114  0.0347
  916MOL0     C20839   0.586   8.190   0.987  0.3504  0.3404  0.0442
  916MOL0     C20840   0.496   8.202   1.110  0.5139  0.1480  0.9236
  916MOL0     C20841   0.536   8.135   1.243  0.0811 -0.1564  0.9148
  916MOL0     C20842   0.685   8.131   1.279 -0.1779 -0.4595 -0.1218
  916MOL0     C20843   0.694   8.069   1.410 -0.0913 -0.4830 -0.6852
  916MOL0     C20844   0.697   8.021   1.519  1.6796 -0.5428 -0.1309
  916MOL0     C20845   0.698   8.196   0.716  0.2955 -1.0527 -0.1453
  916MOL0     C20846   0.759   8.215   0.592  0.1817  0.0050 -0.8290
  916MOL0     H20847   0.936   8.434   0.199 -1.9034 -1.1431  2.7761
  916MOL0     H20848   0.981   8.538  -0.015  0.9180 -1.6129 -3.0150
  916MOL0     H20849   0.704   8.795  -0.218  2.5642  1.4524 -0.9643
  916MOL0     H20850   0.655   8.643  -0.295 -1.1299  2.7820  1.2808
  916MOL0     H20851   0.871   8.687  -0.455 -1.0297 -0.9075 -0.7682
  916MOL0     H20852   0.843   8.853  -0.378  0.6475 -0.7243  1.8947
  916MOL0     H20853   0.593   8.798  -0.449  1.0522  2.4725 -0.9691
  916MOL0     H20854   0.664   8.663  -0.533  3.1083 -0.5014  0.6486
  916MOL0     H20855   0.809   8.820  -0.657 -0.1126 -0.0141 -0.5929
  916MOL0     H20856   0.644   8.844  -0.710  2.0655 -1.7119 -1.7033
  916MOL0     H20857   0.791   9.025  -0.516 -0.5421 -3.8383  1.6868
  916MOL0     H20858   0.619   9.024  -0.565 -0.2056 -0.6704 -0.7710
  916MOL0     H20859   0.787   9.187  -0.696  3.5570 -1.6546 -0.6306
  916MOL0     H20860   0.654   9.091  -0.781 -0.2682  0.6928 -1.7257
  916MOL0     H20861   0.792   8.947  -0.866 -3.7807  2.1268  0.5319
  916MOL0     H20862   0.859   9.102  -0.902  0.3915  0.2713  0.1233
  916MOL0     H20863   1.035   8.943  -0.853 -0.5648 -1.5808  1.6440
  916MOL0     H20864   0.977   8.925  -0.690 -0.0172  0.0358  0.8266
  916MOL0     H20865   1.119   9.196  -0.917 -2.4371  2.1434  0.2375
  916MOL0     H20866   1.336   9.396  -0.670  0.4528 -0.9407  0.9268
  916MOL0     H20867   1.201   9.493  -0.765  2.2444  0.8577 -0.0976
  916MOL0     H20868   1.264   9.406  -0.966  1.0385 -1.3051  0.4308
  916MOL0     H20869   1.403   9.325  -0.913 -2.4403 -1.6065 -1.3441
  916MOL0     H20870   1.396   9.617  -0.942  0.4912 -1.3960 -3.7067
  916MOL0     H20871   1.472   9.547  -0.798  1.5447 -0.3373 -0.8384
  916MOL0     H20872   1.533   9.456  -1.077  0.8779 -2.8034  1.1755
  916MOL0     H20873   1.614   9.411  -0.935 -3.6382 -2.0112  1.8447
  916MOL0     H20874   1.658   9.510  -1.219  1.7551 -0.6512 -0.0868
  916MOL0     H20875   1.825   9.590  -1.390  0.7684 -1.5487  0.8962
  916MOL0     H20876   1.943  10.173  -1.510 -0.8857 -2.1565 -0.5300
  916MOL0     H20877   2.104  10.319  -1.632  2.2069  0.0320 -3.9909
  916MOL0     H20878   2.488  10.148  -1.778 -0.9959  2.7382 -3.0783
  916MOL0     H20879   2.539  10.226  -1.620  1.6671 -1.1249 -0.7870
  916MOL0     H20880   2.484  10.450  -1.717 -0.4528 -0.7026  0.1057
  916MOL0     H20881   2.465  10.361  -1.870  1.7759 -0.2371 -0.8894
  916MOL0     H20882   2.703  10.438  -1.876  2.2508  0.1517  1.6653
  916MOL0     H20883   2.706  10.273  -1.817  2.3752  0.5287 -1.5623
  916MOL0     H20884   2.696  10.525  -1.633 -0.7206 -0.2150  1.9935
  916MOL0     H20885   2.706  10.365  -1.567  1.1523  0.4091 -0.4942
  916MOL0     H20886   2.918  10.506  -1.730  1.1494  0.2764  2.1752
  916MOL0     H20887   2.921  10.334  -1.708  1.1076  0.6239 -5.7973
  916MOL0     H20888   2.980  10.364  -1.483 -0.1922  1.3216  2.6584
  916MOL0     H20889   2.879  10.504  -1.451 -1.6656 -2.7944  0.3298
  916MOL0     H20890   3.111  10.532  -1.645 -3.3073 -1.2704 -1.4091
  916MOL0     H20891   3.031  10.666  -1.553 -1.5144  0.9281  3.0326
  916MOL0     H20892   3.221  10.458  -1.452 -1.4231 -0.8503 -1.7785
  916MOL0     H20893   3.147  10.560  -1.339 -1.2314  3.0914  0.0680
  916MOL0     H20894   2.405  10.010  -1.548  0.1858 -0.6069 -4.4435
  916MOL0     H20895   2.261   9.900  -1.401 -0.1925  1.6948  3.1933
  916MOL0     H20896   1.923   9.928  -1.145  0.7640 -0.3040 -3.0939
  916MOL0     H20897   1.743   9.839  -0.968  0.0701  1.4165 -0.2609
  916MOL0     H20898   0.576   8.614  -0.089  0.4389 -0.1476  0.1525
  916MOL0     H20899   0.516   8.478   0.108  2.1731 -5.2578  0.0355
  916MOL0     H20900   0.514   8.426   0.482 -1.5009  0.3398  2.9685
  916MOL0     H20901   0.412   8.345   0.685  1.1913  2.6668  1.3852
  916MOL0     H20902   0.679   8.247   0.988 -2.2796  5.6211 -4.4462
  916MOL0     H20903   0.626   8.088   0.988  0.4957  0.3892 -0.6560
  916MOL0     H20904   0.476   8.308   1.130 -0.8971 -0.1034  0.9764
  916MOL0     H20905   0.403   8.151   1.083  0.5640 -1.5786  3.6308
  916MOL0     H20906   0.510   8.029   1.242 -1.1070  0.1195  0.0932
  916MOL0     H20907   0.478   8.185   1.321 -2.1616 -1.6117  0.2623
  916MOL0     H20908   0.742   8.080   1.200  0.5908  1.1392 -0.6530
  916MOL0     H20909   0.729   8.229   1.300 -2.1461  0.1866  1.2753
  916MOL0     H20910   0.693   7.982   1.619  0.0486  2.5710  1.1456
  916MOL0     H20911   0.755   8.139   0.789  2.8367  1.7438  0.2422
  916MOL0     H20912   0.829   8.141   0.555 -0.2164 -0.1083 -1.3723
  917MOL0     O20913   1.028   8.272   9.896 -0.1412 -0.0071 -0.5654
  917MOL0     C20914   1.068   8.352   9.978 -0.0931 -0.2121 -0.7207
  917MOL0     O20915   1.011   8.365  10.098  0.7031  0.1072  0.7049
  917MOL0     C20916   0.880   8.393  10.104  0.9351 -0.2773 -0.1143
  917MOL0     C20917   0.811   8.466  10.010  0.2766 -0.1762  0.6919
  917MOL0     C20918   0.672   8.488  10.013  0.8325  0.3649  0.3162
  917MOL0     C20919   0.590   8.419  10.105  0.3232  0.1905  0.8228
  917MOL0     O20920   0.456   8.443  10.115  0.0038  0.5411 -0.3035
  917MOL0     C20921   0.358   8.332  10.115 -0.5364 -0.0099 -0.2702
  917MOL0     C20922   0.330   8.259   9.980  0.9321  0.3952 -0.3886
  917MOL0     C20923   0.262   8.353   9.877  0.1425  0.1768  0.6809
  917MOL0     C20924   0.110   8.349   9.910 -0.2923 -0.1041  0.4958
  917MOL0     C20925   0.030   8.410   9.802  0.1417 -0.3644  0.9409
  917MOL0     C20926  -0.119   8.413   9.821 -0.1909 -0.0698 -0.1331
  917MOL0     C20927  -0.171   8.267   9.815 -0.4389 -0.5002  0.4272
  917MOL0     C20928  -0.215   8.204   9.675 -0.1575  0.2648  0.9797
  917MOL0     N20929  -0.264   8.067   9.703 -0.0329 -0.6688  0.2564
  917MOL0     C20930  -0.201   7.962   9.764 -0.5845 -0.0308  0.1965
  917MOL0     C20931  -0.282   7.857   9.758  0.5861  0.6899  1.7378
  917MOL0     C20932  -0.245   7.724   9.814 -0.3641  0.1057 -0.7661
  917MOL0     C20933  -0.301   7.698   9.950  0.0527 -0.4725  1.3764
  917MOL0     C20934  -0.267   7.792  10.059  0.4454 -1.1961  0.3974
  917MOL0     C20935  -0.121   7.796  10.104 -0.0859  0.1149 -0.0744
  917MOL0     O20936  -0.047   7.899  10.041  0.7658  0.0889  0.4713
  917MOL0     C20937   0.086   7.891  10.067  0.3386 -1.0301 -0.2709
  917MOL0     C20938   0.139   7.962  10.175  0.1980 -0.0864  0.0309
  917MOL0     C20939   0.280   7.961  10.190 -0.4531 -0.1761  0.1187
  917MOL0     C20940   0.357   7.883  10.097 -0.4115  0.7396  0.7109
  917MOL0     C20941   0.502   7.880  10.123 -0.9990  0.0741 -0.0375
  917MOL0     O20942   0.563   7.972  10.209 -0.3044  0.3599  0.2758
  917MOL0     C20943   0.703   7.987  10.226  0.8893  0.6277 -0.4686
  917MOL0     C20944   0.784   7.993  10.118 -0.9320  0.1430  1.1702
  917MOL0     C20945   0.924   7.989  10.137  0.7112  0.0885  0.0373
  917MOL0     C20946   0.973   7.998  10.269  0.8685  0.3035 -0.9174
  917MOL0     O20947   1.106   8.007  10.290 -0.2488 -0.2944  0.4369
  917MOL0     C20948   1.153   8.111  10.373 -0.7731 -0.7596  0.1056
  917MOL0     C20949   1.286   8.154  10.314  0.2451 -0.0250 -0.5638
  917MOL0     C20950   1.399   8.105  10.398 -1.0505 -0.9324 -0.5510
  917MOL0     C20951   1.527   8.149  10.338 -0.0125  1.1199  0.5505
  917MOL0     C20952   1.645   8.094  10.420 -0.1053  0.6495  0.1001
  917MOL0     C20953   1.792   8.137  10.367  0.0261 -0.2293 -0.0172
  917MOL0     C20954   1.899   8.045  10.413  0.2821  0.2481 -0.3224
  917MOL0     C20955   1.899   8.012  10.561  0.2080 -0.7556  0.6710
  917MOL0    Cl20956   2.025   7.884  10.618 -0.1523 -0.4191  0.0818
  917MOL0     C20957   0.880   8.005  10.378 -0.5614 -1.0226 -0.1781
  917MOL0     C20958   0.747   7.997  10.362  0.7174  0.1347  0.0412
  917MOL0     O20959   0.563   7.799  10.056  0.3309  0.6348 -0.2994
  917MOL0     C20960   0.296   7.808   9.997 -1.0551  0.3512 -0.4533
  917MOL0     C20961   0.156   7.816   9.975 -0.3666  0.9900  0.3434
  917MOL0     N20962  -0.397   7.892   9.680 -0.4059 -0.2347  0.8551
  917MOL0     N20963  -0.381   8.017   9.658 -0.2620  0.5208  0.1088
  917MOL0     C20964   0.662   8.332  10.193 -0.0957 -0.4896 -1.0375
  917MOL0     C20965   0.802   8.325  10.197 -0.6184  0.2321  0.2121
  917MOL0     C20966   1.195   8.395   9.946  0.2270 -0.2073  0.2139
  917MOL0     C20967   1.299   8.296   9.951 -0.0023 -0.4353 -0.7610
  917MOL0     C20968   1.434   8.338   9.936 -0.4161  0.2517  0.1225
  917MOL0     C20969   1.464   8.477   9.912  0.2103 -0.3930 -0.0632
  917MOL0     O20970   1.595   8.509   9.913 -0.0884  0.0451  0.2838
  917MOL0     C20971   1.668   8.543   9.783  0.0281  1.1088  0.4437
  917MOL0     C20972   1.636   8.446   9.674 -0.7508  0.0515  0.2829
  917MOL0     C20973   1.726   8.461   9.548  0.6589 -0.8050 -0.2407
  917MOL0     C20974   1.657   8.446   9.406 -0.3703 -0.2708 -0.6121
  917MOL0     C20975   1.608   8.310   9.398 -0.1333 -0.5139 -0.4498
  917MOL0     C20976   1.585   8.193   9.378 -0.2036  0.6510  0.4517
  917MOL0     C20977   1.361   8.571   9.901 -0.2159  0.6864  0.5503
  917MOL0     C20978   1.236   8.524   9.924  0.8805  0.2062  0.9970
  917MOL0     H20979   0.863   8.525   9.934  0.0450 -0.5082  0.2667
  917MOL0     H20980   0.613   8.556   9.953 -2.8183  1.3656  4.4979
  917MOL0     H20981   0.272   8.394  10.143  1.3142  3.9549 -2.6465
  917MOL0     H20982   0.372   8.241  10.176 -0.9000 -2.2182 -3.2512
  917MOL0     H20983   0.276   8.164   9.992  0.3893  0.3598 -2.6261
  917MOL0     H20984   0.425   8.225   9.938  3.1802  2.4598  2.6535
  917MOL0     H20985   0.278   8.320   9.774  2.4515  1.8027  0.4339
  917MOL0     H20986   0.303   8.454   9.891 -0.9462  0.3933  2.8408
  917MOL0     H20987   0.081   8.244   9.925 -1.0139  0.0756  0.4170
  917MOL0     H20988   0.099   8.395  10.008  0.8793  1.9153 -0.2721
  917MOL0     H20989   0.052   8.353   9.711  0.1377 -2.5774  2.2462
  917MOL0     H20990   0.050   8.517   9.797 -0.9426 -0.1944 -0.6710
  917MOL0     H20991  -0.170   8.478   9.749 -1.2381 -0.6716  0.0404
  917MOL0     H20992  -0.141   8.439   9.925 -1.3236  2.0901 -0.8517
  917MOL0     H20993  -0.095   8.196   9.851 -0.5772 -0.4878  0.7443
  917MOL0     H20994  -0.260   8.272   9.879 -2.2432  2.3371 -2.0508
  917MOL0     H20995  -0.125   8.194   9.613  0.5591 -1.0072  2.1702
  917MOL0     H20996  -0.295   8.259   9.623  1.3076  2.5278  0.9792
  917MOL0     H20997  -0.099   7.964   9.802 -0.9842 -0.9217  1.4067
  917MOL0     H20998  -0.136   7.724   9.817 -0.2992 -1.9969 -1.3082
  917MOL0     H20999  -0.272   7.636   9.754 -0.9522 -0.4648  0.3116
  917MOL0     H21000  -0.279   7.595   9.979  2.3178 -0.2753  0.5622
  917MOL0     H21001  -0.409   7.708   9.936 -0.0470 -1.0223  1.7606
  917MOL0     H21002  -0.288   7.893  10.023  2.2064 -0.7602  0.5025
  917MOL0     H21003  -0.334   7.765  10.141  3.3281 -3.1124  2.3062
  917MOL0     H21004  -0.077   7.702  10.069  2.7145  0.0052  3.2078
  917MOL0     H21005  -0.105   7.802  10.212  2.3874 -0.2439 -0.3634
  917MOL0     H21006   0.088   8.025  10.247  1.0817  0.7701 -0.0707
  917MOL0     H21007   0.325   8.018  10.270 -1.5522 -1.2547  1.5674
  917MOL0     H21008   0.739   7.998  10.019  6.1526 -0.8798 -2.7754
  917MOL0     H21009   0.995   7.980  10.056 -0.3450 -1.8396 -0.7304
  917MOL0     H21010   1.164   8.060  10.470 -0.3015 -3.9156 -1.4737
  917MOL0     H21011   1.086   8.196  10.363  2.4185  1.7808 -1.8615
  917MOL0     H21012   1.283   8.264  10.314 -1.8840  0.1691  4.6330
  917MOL0     H21013   1.301   8.121  10.210  5.5203  1.4380 -0.5492
  917MOL0     H21014   1.410   7.996  10.402  2.2331 -0.7199 -1.3245
  917MOL0     H21015   1.392   8.130  10.504  2.3584  0.8323 -0.6335
  917MOL0     H21016   1.547   8.119  10.234 -1.3697  2.6919 -0.2181
  917MOL0     H21017   1.527   8.259  10.336 -0.1659  1.1433 -2.4115
  917MOL0     H21018   1.637   7.986  10.433  0.1360  0.6320  0.1053
  917MOL0     H21019   1.632   8.130  10.523 -0.3664 -0.0460  0.3139
  917MOL0     H21020   1.806   8.237  10.410  0.9818 -1.9339  4.1722
  917MOL0     H21021   1.781   8.132  10.259  2.9667 -1.5903 -0.3461
  917MOL0     H21022   1.909   7.955  10.352  2.7740  1.4131 -1.7645
  917MOL0     H21023   2.000   8.083  10.398  0.8948 -0.4674  1.7113
  917MOL0     H21024   1.797   7.984  10.588 -1.5704  1.7424 -2.6588
  917MOL0     H21025   1.908   8.099  10.628 -5.0723  0.0703  0.7737
  917MOL0     H21026   0.927   8.027  10.473 -2.3794  1.7724  0.2081
  917MOL0     H21027   0.663   7.996  10.432 -0.0777  1.4023 -0.8537
  917MOL0     H21028   0.352   7.738   9.934 -3.2111  0.0398 -2.1575
  917MOL0     H21029   0.114   7.764   9.890 -0.6186  1.9744 -0.1494
  917MOL0     H21030   0.616   8.275  10.273  0.5615 -1.3136 -1.2314
  917MOL0     H21031   0.850   8.259  10.269 -2.0330 -3.1027 -1.6532
  917MOL0     H21032   1.278   8.195   9.984 -2.1540  1.0133  2.9162
  917MOL0     H21033   1.527   8.282   9.945 -1.5741 -1.5333  1.5841
  917MOL0     H21034   1.776   8.544   9.801 -0.0863 -0.8581  1.6008
  917MOL0     H21035   1.632   8.632   9.733 -1.9597  0.5226  0.7305
  917MOL0     H21036   1.652   8.350   9.725  2.3621 -0.1302 -0.8206
  917MOL0     H21037   1.531   8.448   9.643 -1.0541 -2.4452  0.8683
  917MOL0     H21038   1.812   8.394   9.562  0.1751 -1.2302  0.7365
  917MOL0     H21039   1.755   8.567   9.552 -2.6006  0.3381 -2.5170
  917MOL0     H21040   1.571   8.514   9.414  0.4505  0.7660 -0.3681
  917MOL0     H21041   1.726   8.460   9.323 -0.9998 -1.0333 -1.2680
  917MOL0     H21042   1.561   8.094   9.346  0.3635  1.4201 -2.6776
  917MOL0     H21043   1.388   8.674   9.882 -0.6350  0.6896 -0.0412
  917MOL0     H21044   1.162   8.602   9.941  0.9610  0.3931  0.5174
  918MOL0     O21045   6.476   8.751   8.454  0.7482  0.0712  0.6466
  918MOL0     C21046   6.471   8.711   8.339 -0.2210  0.4659  0.7448
  918MOL0     O21047   6.512   8.594   8.289 -0.0008  0.6311  0.1163
  918MOL0     C21048   6.551   8.493   8.369  0.1788  0.4894  0.1298
  918MOL0     C21049   6.457   8.420   8.444  0.0209 -0.9950  0.4226
  918MOL0     C21050   6.487   8.314   8.518  0.1534  0.7614 -0.6659
  918MOL0     C21051   6.624   8.272   8.533  0.1877  0.4836  0.2718
  918MOL0     O21052   6.666   8.158   8.601  0.5292 -0.7097  1.1373
  918MOL0     C21053   6.578   8.049   8.566  0.2782 -1.0396 -0.5802
  918MOL0     C21054   6.656   7.922   8.603 -0.4180  0.0315  0.1460
  918MOL0     C21055   6.597   7.819   8.512  0.9753 -0.9412 -0.7491
  918MOL0     C21056   6.647   7.681   8.559 -0.0814  0.1034 -0.5191
  918MOL0     C21057   6.796   7.648   8.530  0.2025  0.1991 -0.2112
  918MOL0     C21058   6.842   7.495   8.552 -0.8416 -0.2893  0.2691
  918MOL0     C21059   6.872   7.467   8.703  0.7136  0.0063  1.7729
  918MOL0     C21060   6.947   7.338   8.739  0.7164  0.1955  0.5721
  918MOL0     N21061   6.858   7.225   8.767  0.6886  0.1505 -0.0927
  918MOL0     C21062   6.756   7.162   8.685 -0.6330  0.0003 -0.2329
  918MOL0     C21063   6.722   7.049   8.750  1.4739  0.1555  0.0763
  918MOL0     C21064   6.624   6.941   8.699  0.0500 -0.5062 -0.6132
  918MOL0     C21065   6.470   6.969   8.709 -0.0380 -0.2844  0.3992
  918MOL0     C21066   6.423   7.098   8.629  0.8662  0.3297 -0.0452
  918MOL0     C21067   6.285   7.129   8.670  0.7999 -0.3741  0.1200
  918MOL0     O21068   6.172   7.081   8.597 -0.5230  0.2266  0.5857
  918MOL0     C21069   6.118   7.167   8.511 -0.5783  0.1287 -0.1408
  918MOL0     C21070   6.159   7.160   8.385 -0.5649  0.0096  0.0763
  918MOL0     C21071   6.108   7.251   8.292 -0.1572  0.1193  0.4938
  918MOL0     C21072   6.021   7.347   8.332  0.1981  0.9223  0.7449
  918MOL0     C21073   5.966   7.453   8.245  0.2511  0.0748  0.1841
  918MOL0     O21074   5.958   7.578   8.298  0.0697 -0.0121 -0.0163
  918MOL0     C21075   5.925   7.676   8.214 -0.5226 -0.2812  0.8595
  918MOL0     C21076   6.015   7.783   8.206  1.0226 -0.3437  0.5447
  918MOL0     C21077   5.995   7.882   8.111  0.2583 -0.2986 -0.1192
  918MOL0     C21078   5.889   7.890   8.019  0.8417 -0.4392 -0.7081
  918MOL0     O21079   5.886   7.995   7.936  0.4220  0.3257 -0.4453
  918MOL0     C21080   5.784   8.023   7.832  0.1599  0.0874  0.0276
  918MOL0     C21081   5.684   8.126   7.874  0.0423 -0.3505  0.7033
  918MOL0     C21082   5.730   8.267   7.830  0.0609  0.3129 -0.1999
  918MOL0     C21083   5.647   8.380   7.885 -0.1061  0.7202  0.4814
  918MOL0     C21084   5.706   8.521   7.858  0.3044 -0.1975 -0.1200
  918MOL0     C21085   5.729   8.563   7.708 -0.2676  0.7001  0.0993
  918MOL0     C21086   5.851   8.662   7.691 -0.1619  0.3549 -0.4643
  918MOL0     C21087   5.984   8.593   7.735 -0.1108 -0.3151  0.3134
  918MOL0    Cl21088   6.026   8.670   7.891  0.5958 -0.3361 -0.1866
  918MOL0     C21089   5.800   7.794   8.028 -0.4249 -0.7512  0.0878
  918MOL0     C21090   5.811   7.683   8.121 -1.5263  0.4648  0.4155
  918MOL0     O21091   5.952   7.421   8.130 -0.4542 -0.4130  0.6505
  918MOL0     C21092   5.981   7.361   8.467  1.2969 -0.2474  0.5164
  918MOL0     C21093   6.041   7.272   8.555  0.4422  0.4016 -0.3624
  918MOL0     N21094   6.785   7.049   8.869  0.4934 -0.4001 -0.1301
  918MOL0     N21095   6.855   7.161   8.882  0.0581  0.9720  0.0683
  918MOL0     C21096   6.722   8.358   8.484 -0.9670 -0.4640  0.1015
  918MOL0     C21097   6.687   8.463   8.387  0.4363  0.1820  0.1253
  918MOL0     C21098   6.417   8.797   8.230  0.7783 -0.1663  0.3998
  918MOL0     C21099   6.393   8.936   8.258  0.1117  1.3076 -0.6264
  918MOL0     C21100   6.318   9.010   8.173  0.0526 -0.6649  0.9049
  918MOL0     C21101   6.265   8.957   8.049 -0.6978 -0.3314  0.0185
  918MOL0     O21102   6.201   9.052   7.977  0.2931  0.2027  0.0833
  918MOL0     C21103   6.158   9.018   7.847  0.5441  1.1098 -0.8959
  918MOL0     C21104   6.095   9.148   7.801  0.1350  0.5095  0.4043
  918MOL0     C21105   5.958   9.174   7.855 -0.6274 -1.2713 -0.5011
  918MOL0     C21106   5.921   9.325   7.838  0.5347 -0.3279  0.4236
  918MOL0     C21107   5.883   9.362   7.699  0.4195  1.2623  0.4933
  918MOL0     C21108   5.851   9.386   7.583 -0.1076 -0.2556  0.0616
  918MOL0     C21109   6.315   8.827   8.007 -0.3972 -0.3757  0.2957
  918MOL0     C21110   6.371   8.746   8.105  0.2650  1.7813 -0.2925
  918MOL0     H21111   6.355   8.452   8.431  0.4427  0.9016  1.5246
  918MOL0     H21112   6.412   8.268   8.581  0.1533  3.0845  1.1465
  918MOL0     H21113   6.551   8.055   8.460  1.3681  0.0231 -0.8101
  918MOL0     H21114   6.483   8.051   8.621  1.7582 -1.8961  2.1663
  918MOL0     H21115   6.637   7.894   8.707 -1.7481  0.8464  0.1452
  918MOL0     H21116   6.763   7.940   8.583 -1.2016  3.2168 -1.9654
  918MOL0     H21117   6.619   7.838   8.407  0.0071 -2.2413 -1.2217
  918MOL0     H21118   6.490   7.814   8.535  0.7516 -5.1752 -1.8774
  918MOL0     H21119   6.628   7.666   8.666  0.8088 -0.7504 -0.4709
  918MOL0     H21120   6.584   7.609   8.506 -4.0153  0.4674  3.1191
  918MOL0     H21121   6.855   7.720   8.589  0.3915 -1.7751  2.1548
  918MOL0     H21122   6.822   7.681   8.429 -3.2378  1.1263 -0.8956
  918MOL0     H21123   6.936   7.484   8.497  0.6566 -0.0945  2.6668
  918MOL0     H21124   6.770   7.428   8.504 -0.4277 -0.0216 -0.7517
  918MOL0     H21125   6.925   7.556   8.740  1.6468  0.0879  0.3255
  918MOL0     H21126   6.776   7.471   8.755 -1.0509  0.1970 -1.2746
  918MOL0     H21127   7.002   7.372   8.827  1.5122  1.0123 -0.2113
  918MOL0     H21128   7.019   7.319   8.658  0.6210  1.5978  0.1213
  918MOL0     H21129   6.729   7.195   8.586 -0.9509  0.8161  0.1127
  918MOL0     H21130   6.639   6.853   8.763 -1.4700 -1.5815 -1.6375
  918MOL0     H21131   6.644   6.915   8.594 -1.1447  2.1093 -1.5579
  918MOL0     H21132   6.442   6.977   8.814 -0.2676  0.4972  0.2851
  918MOL0     H21133   6.424   6.874   8.682 -2.2017 -0.0423  2.8012
  918MOL0     H21134   6.491   7.181   8.651  1.0693  0.3980 -0.9129
  918MOL0     H21135   6.416   7.076   8.522 -0.7488 -0.4278  0.1857
  918MOL0     H21136   6.284   7.238   8.662 -1.2234 -0.4168 -5.9441
  918MOL0     H21137   6.270   7.095   8.773 -1.0225 -0.2955 -0.0823
  918MOL0     H21138   6.199   7.063   8.359 -3.2249 -1.7293  1.9736
  918MOL0     H21139   6.126   7.235   8.186 -0.7243 -2.5900  0.7095
  918MOL0     H21140   6.098   7.777   8.276  1.3104  2.1585  0.5117
  918MOL0     H21141   6.063   7.966   8.102 -0.2038 -0.0344 -1.3547
  918MOL0     H21142   5.737   7.929   7.803  1.1099 -0.8117  1.2529
  918MOL0     H21143   5.833   8.047   7.738  1.0596  2.4006  1.0050
  918MOL0     H21144   5.655   8.121   7.979 -2.1349  0.6099  0.2177
  918MOL0     H21145   5.589   8.098   7.826  0.7904  2.0954 -2.5753
  918MOL0     H21146   5.736   8.280   7.722 -0.4660  1.4199 -0.1157
  918MOL0     H21147   5.835   8.271   7.863  0.1776 -4.0499  0.5141
  918MOL0     H21148   5.543   8.371   7.854 -0.2268  1.9611  0.4613
  918MOL0     H21149   5.640   8.377   7.994  1.5583  1.6284  0.6485
  918MOL0     H21150   5.804   8.516   7.906 -0.1604 -2.8421  0.7418
  918MOL0     H21151   5.647   8.595   7.911 -4.2170  1.0510 -5.8431
  918MOL0     H21152   5.643   8.621   7.674  2.0096  4.2688 -0.1455
  918MOL0     H21153   5.758   8.479   7.644  1.8222  2.1567 -0.9816
  918MOL0     H21154   5.867   8.681   7.584 -1.2721 -1.4030 -0.9845
  918MOL0     H21155   5.831   8.756   7.744 -1.2683 -0.0344 -0.1830
  918MOL0     H21156   6.057   8.616   7.657 -0.6617 -2.1866 -0.8288
  918MOL0     H21157   5.971   8.486   7.752 -1.3404 -0.1314  0.5758
  918MOL0     H21158   5.726   7.787   7.948 -1.3011 -0.1602  0.8251
  918MOL0     H21159   5.751   7.594   8.111 -0.5350 -0.1745 -0.0799
  918MOL0     H21160   5.914   7.435   8.508 -1.2034 -2.6562  1.0624
  918MOL0     H21161   6.014   7.287   8.660  0.0084  1.3351 -0.5906
  918MOL0     H21162   6.830   8.352   8.498 -0.6248 -1.5736 -2.4019
  918MOL0     H21163   6.767   8.520   8.343 -0.1258 -0.0256 -1.2194
  918MOL0     H21164   6.454   8.983   8.335  4.5163  0.9151 -3.4807
  918MOL0     H21165   6.304   9.114   8.200  2.3596 -0.3038  0.8831
  918MOL0     H21166   6.074   8.948   7.861  0.5731  1.5593  2.3831
  918MOL0     H21167   6.242   8.971   7.796  1.4146  2.0999 -0.3931
  918MOL0     H21168   6.166   9.228   7.822  2.0823 -0.7530 -1.0158
  918MOL0     H21169   6.090   9.154   7.692  2.8809 -0.6744  0.1198
  918MOL0     H21170   5.950   9.145   7.960  1.1698 -0.8689 -0.2314
  918MOL0     H21171   5.892   9.116   7.789  2.7460 -5.0566 -0.9340
  918MOL0     H21172   5.835   9.350   7.901 -0.0650  1.1908 -0.9253
  918MOL0     H21173   5.994   9.399   7.872 -0.6394  2.1198 -2.0094
  918MOL0     H21174   5.822   9.400   7.481  1.1526 -1.5128 -0.5114
  918MOL0     H21175   6.298   8.785   7.908 -1.3594  2.0049 -0.6354
  918MOL0     H21176   6.389   8.644   8.075 -2.9971  0.7294  0.8964
  919MOL0     O21177   0.316   9.366   7.196  0.6002  0.1571 -0.5940
  919MOL0     C21178   0.417   9.405   7.139  0.3980 -0.6960  0.3064
  919MOL0     O21179   0.421   9.459   7.015  0.2226 -0.4165 -0.8304
  919MOL0     C21180   0.315   9.474   6.929  0.4994  0.2207  0.5936
  919MOL0     C21181   0.214   9.571   6.946 -0.2084 -0.1947 -0.0646
  919MOL0     C21182   0.096   9.581   6.866 -0.8490  0.3349 -0.3343
  919MOL0     C21183   0.094   9.501   6.750  0.3770  0.0840 -0.1184
  919MOL0     O21184  -0.017   9.493   6.674 -0.0011  0.4334 -0.3310
  919MOL0     C21185  -0.052   9.362   6.621 -0.3989 -0.1106  0.5630
  919MOL0     C21186  -0.046   9.366   6.472  0.1247 -0.4177 -0.6678
  919MOL0     C21187  -0.177   9.388   6.402 -0.2398 -0.1458 -0.2889
  919MOL0     C21188  -0.295   9.309   6.447 -0.1109 -0.6610  0.2739
  919MOL0     C21189  -0.407   9.293   6.342 -0.0558 -0.0265  0.0264
  919MOL0     C21190  -0.463   9.418   6.277 -0.3916 -0.6546 -1.0712
  919MOL0     C21191  -0.503   9.522   6.384 -0.2920 -0.2138 -0.3202
  919MOL0     C21192  -0.621   9.620   6.345 -0.3704  0.1622  1.0248
  919MOL0     N21193  -0.596   9.676   6.210 -0.0052  0.0130  0.4719
  919MOL0     C21194  -0.484   9.757   6.175  0.3077  0.1399  0.4671
  919MOL0     C21195  -0.513   9.804   6.053  0.2173 -1.0069 -0.5629
  919MOL0     C21196  -0.450   9.916   5.974 -0.0329  0.2003  0.0080
  919MOL0     C21197  -0.529  10.042   6.000 -0.3249 -0.4477 -0.9205
  919MOL0     C21198  -0.480  10.170   5.937 -0.4431 -0.6211 -0.2496
  919MOL0     C21199  -0.554  10.291   6.003  0.4966  0.0933 -0.0459
  919MOL0     O21200  -0.671  10.329   5.922 -1.1432  0.2063  0.3204
  919MOL0     C21201  -0.725  10.450   5.953 -0.9720  0.0007  0.5649
  919MOL0     C21202  -0.828  10.484   5.862 -0.5318 -0.5114  0.6658
  919MOL0     C21203  -0.885  10.613   5.878  0.6780  0.5560  0.1842
  919MOL0     C21204  -0.838  10.709   5.968  0.3763  0.0192 -0.1347
  919MOL0     C21205  -0.903  10.833   5.981  1.1963  0.1799  0.9707
  919MOL0     O21206  -0.961  10.871   5.857  0.3063  0.0451 -0.2825
  919MOL0     C21207  -1.057  10.967   5.837 -0.7672 -0.0525 -0.2840
  919MOL0     C21208  -1.064  11.044   5.718  0.1407  0.6365  0.7548
  919MOL0     C21209  -1.171  11.137   5.695 -0.5063  0.0205  0.2175
  919MOL0     C21210  -1.258  11.170   5.796  0.3688 -0.3822 -0.3618
  919MOL0     O21211  -1.348  11.263   5.776 -0.4694  0.6881  1.1955
  919MOL0     C21212  -1.392  11.347   5.880  0.7424 -0.0075 -0.3370
  919MOL0     C21213  -1.458  11.467   5.819  0.2592 -0.3778 -0.4451
  919MOL0     C21214  -1.364  11.560   5.743 -0.4115 -0.1898  0.1739
  919MOL0     C21215  -1.434  11.693   5.700  1.2323  0.0118 -0.0421
  919MOL0     C21216  -1.332  11.790   5.637 -1.3794 -0.2323  0.5949
  919MOL0     C21217  -1.231  11.857   5.737  0.0648  1.0906  0.5229
  919MOL0     C21218  -1.139  11.973   5.667  0.4977  0.7710  0.3541
  919MOL0     C21219  -1.031  12.044   5.749 -0.0390  0.0893 -0.1888
  919MOL0    Cl21220  -0.864  12.047   5.676  0.0184 -0.1247 -0.4436
  919MOL0     C21221  -1.246  11.099   5.916 -0.0847 -0.3930 -0.8195
  919MOL0     C21222  -1.150  10.999   5.937 -0.2710  1.1502 -0.4341
  919MOL0     O21223  -0.911  10.896   6.084 -1.2243 -0.0122 -0.3171
  919MOL0     C21224  -0.734  10.661   6.062  0.3688 -0.1929 -0.2864
  919MOL0     C21225  -0.674  10.538   6.045 -0.4765  0.1075  0.5267
  919MOL0     N21226  -0.618   9.734   6.006 -1.1197  0.2610 -0.8721
  919MOL0     N21227  -0.661   9.648   6.094 -0.9490  0.8752 -0.4142
  919MOL0     C21228   0.202   9.413   6.718 -0.0843 -0.3528 -1.0061
  919MOL0     C21229   0.310   9.400   6.805 -0.4137  0.0106 -1.0414
  919MOL0     C21230   0.544   9.403   7.221 -0.0657  0.5201 -0.7820
  919MOL0     C21231   0.656   9.441   7.163 -0.2033 -0.3868  1.0480
  919MOL0     C21232   0.776   9.437   7.228 -0.3844 -0.1396  0.4102
  919MOL0     C21233   0.782   9.414   7.368  0.3947  0.1829  0.9325
  919MOL0     O21234   0.900   9.431   7.429 -0.7281  0.2126  0.3321
  919MOL0     C21235   0.937   9.389   7.559 -0.5706 -0.2320  0.1033
  919MOL0     C21236   1.085   9.357   7.575  0.2020 -0.4030 -0.1005
  919MOL0     C21237   1.107   9.294   7.712  0.9426 -0.4118 -0.0009
  919MOL0     C21238   1.258   9.266   7.743 -0.5427 -0.1987 -0.0422
  919MOL0     C21239   1.313   9.143   7.691 -0.2826 -0.9640  0.6921
  919MOL0     C21240   1.379   9.044   7.655 -0.0443  0.5760  0.1457
  919MOL0     C21241   0.665   9.378   7.437 -0.1601 -0.7193  0.4268
  919MOL0     C21242   0.553   9.364   7.356 -0.2345 -0.6899 -0.3542
  919MOL0     H21243   0.218   9.634   7.034 -3.0787  2.1432 -1.4705
  919MOL0     H21244   0.010   9.641   6.894 -0.9391 -0.3178  0.8782
  919MOL0     H21245  -0.157   9.339   6.642 -0.4608  1.4851  2.2990
  919MOL0     H21246  -0.013   9.271   6.668  0.2574 -0.1301 -0.0263
  919MOL0     H21247  -0.004   9.268   6.445  0.1031 -0.1985 -1.5420
  919MOL0     H21248   0.027   9.440   6.439  1.3313 -1.9219 -1.5203
  919MOL0     H21249  -0.150   9.380   6.296  1.1465  3.8798 -0.4035
  919MOL0     H21250  -0.202   9.490   6.432  1.1283 -0.5370  2.5232
  919MOL0     H21251  -0.259   9.213   6.483  0.0269 -1.0878 -0.9578
  919MOL0     H21252  -0.355   9.355   6.527  0.3218  0.3403  0.0447
  919MOL0     H21253  -0.491   9.233   6.380  1.0783 -1.1960  0.7657
  919MOL0     H21254  -0.361   9.223   6.272 -0.7675 -1.1224  0.6152
  919MOL0     H21255  -0.547   9.392   6.212  0.9985 -0.9940 -2.7952
  919MOL0     H21256  -0.398   9.480   6.215  0.0318  1.6969  1.5202
  919MOL0     H21257  -0.521   9.460   6.472  1.7865  0.0030  0.3309
  919MOL0     H21258  -0.419   9.578   6.427 -0.6130  0.2352 -0.2765
  919MOL0     H21259  -0.648   9.697   6.419 -3.6493 -0.3865  0.5449
  919MOL0     H21260  -0.714   9.563   6.344 -2.4406  3.2742  1.1953
  919MOL0     H21261  -0.397   9.788   6.232  1.2713 -2.6340  0.6370
  919MOL0     H21262  -0.454   9.887   5.869  3.7986 -0.3620 -0.1229
  919MOL0     H21263  -0.345   9.935   5.996 -0.1289 -0.1405  0.8239
  919MOL0     H21264  -0.523  10.060   6.108 -0.5601  0.9501 -1.1105
  919MOL0     H21265  -0.632  10.021   5.968  0.0229 -2.1535 -0.9922
  919MOL0     H21266  -0.372  10.185   5.938 -0.2936 -1.6096  1.4775
  919MOL0     H21267  -0.515  10.157   5.834  0.9089  1.9673 -1.1430
  919MOL0     H21268  -0.476  10.367   5.995 -0.9725  1.5559 -1.2710
  919MOL0     H21269  -0.579  10.282   6.109 -2.3058  2.6343 -0.3431
  919MOL0     H21270  -0.866  10.432   5.775 -0.9652 -0.5106  0.8517
  919MOL0     H21271  -0.957  10.638   5.801  0.1810 -0.2478  0.3740
  919MOL0     H21272  -0.989  11.032   5.640 -1.5843  0.3886 -0.9175
  919MOL0     H21273  -1.180  11.177   5.594 -2.1431 -4.4316 -1.6502
  919MOL0     H21274  -1.307  11.382   5.940 -0.4848  4.5635 -0.9344
  919MOL0     H21275  -1.464  11.286   5.935  2.2789 -0.4453  1.3229
  919MOL0     H21276  -1.507  11.525   5.898 -0.3715 -0.8794 -0.4604
  919MOL0     H21277  -1.530  11.433   5.745  1.0836  1.1626 -2.0391
  919MOL0     H21278  -1.318  11.514   5.655 -1.6463  0.1752 -0.6760
  919MOL0     H21279  -1.289  11.587   5.818 -0.7567 -3.0790  1.6990
  919MOL0     H21280  -1.512  11.669   5.627  0.9961  1.2207 -0.2147
  919MOL0     H21281  -1.495  11.744   5.776  1.5544  0.1530  0.1264
  919MOL0     H21282  -1.402  11.858   5.587  0.4921  1.1815 -0.1766
  919MOL0     H21283  -1.284  11.723   5.565  0.8747  0.5256  1.3151
  919MOL0     H21284  -1.178  11.778   5.791  0.1414 -2.3921 -4.0578
  919MOL0     H21285  -1.299  11.903   5.810  1.1829  1.1217  1.5734
  919MOL0     H21286  -1.105  11.930   5.573 -3.1214  0.9765 -1.2326
  919MOL0     H21287  -1.209  12.052   5.637  2.2128  1.7356 -1.3846
  919MOL0     H21288  -1.022  11.979   5.836  2.2052  1.9084  1.0506
  919MOL0     H21289  -1.060  12.141   5.791 -1.5740 -0.5057  0.1666
  919MOL0     H21290  -1.316  11.119   5.997  1.2103  0.0920  0.2138
  919MOL0     H21291  -1.153  10.957   6.037 -1.8687  1.4541 -0.3238
  919MOL0     H21292  -0.702  10.737   6.133 -1.2035  0.6141 -0.3979
  919MOL0     H21293  -0.595  10.512   6.115  0.2090  0.8309  0.0355
  919MOL0     H21294   0.191   9.347   6.633 -0.1502  1.5220 -2.5137
  919MOL0     H21295   0.384   9.324   6.783 -0.8741 -0.8904  0.3894
  919MOL0     H21296   0.667   9.472   7.059 -2.2635 -1.3528  0.5026
  919MOL0     H21297   0.874   9.459   7.186 -0.6982  0.9593  0.2362
  919MOL0     H21298   0.883   9.297   7.582 -0.9130 -0.0063  0.2182
  919MOL0     H21299   0.908   9.463   7.634  1.4711  0.0302  0.7078
  919MOL0     H21300   1.133   9.286   7.507  2.8036  1.5442 -0.4679
  919MOL0     H21301   1.153   9.442   7.563 -1.0147  0.5918 -0.0677
  919MOL0     H21302   1.050   9.201   7.718  0.8101 -0.4511 -1.5221
  919MOL0     H21303   1.078   9.376   7.778  1.6190 -0.1234 -0.0540
  919MOL0     H21304   1.322   9.349   7.711  0.9935 -2.2654 -2.7387
  919MOL0     H21305   1.259   9.261   7.853  1.8652 -2.5383 -0.0797
  919MOL0     H21306   1.443   8.969   7.613 -3.4066 -1.8408 -1.0886
  919MOL0     H21307   0.666   9.349   7.542 -1.7087 -1.8003  0.1850
  919MOL0     H21308   0.471   9.307   7.398 -1.2782  1.3880  0.5758
  920MOL0     O21309   0.161   7.389   9.949 -0.9046 -0.0727 -0.3708
  920MOL0     C21310   0.243   7.304  10.000  0.4318 -0.8296 -0.6297
  920MOL0     O21311   0.236   7.165   9.974 -0.4110 -0.1156 -0.1540
  920MOL0     C21312   0.132   7.126   9.898  0.4328  0.4542  0.7842
  920MOL0     C21313   0.037   7.061   9.957  0.7008 -0.2240  0.2504
  920MOL0     C21314  -0.084   7.046   9.886  0.4540  1.4368  0.0228
  920MOL0     C21315  -0.101   7.074   9.750 -0.0864 -0.1462  0.8094
  920MOL0     O21316  -0.223   7.065   9.693  0.0552 -0.3074  1.1179
  920MOL0     C21317  -0.232   7.056   9.543 -0.9350  0.7541  1.0871
  920MOL0     C21318  -0.374   7.027   9.507 -0.4741 -0.5356  0.0446
  920MOL0     C21319  -0.421   6.885   9.541 -0.5067  0.5585  0.3023
  920MOL0     C21320  -0.553   6.833   9.479  0.3912  0.1192  0.0624
  920MOL0     C21321  -0.671   6.831   9.578  0.1827  0.2580 -0.8193
  920MOL0     C21322  -0.720   6.972   9.634  1.1521  0.9293 -0.0469
  920MOL0     C21323  -0.847   6.941   9.715  0.5683 -0.7497  0.0086
  920MOL0     C21324  -0.916   7.057   9.770 -0.0897  0.6369 -0.3185
  920MOL0     N21325  -1.032   7.018   9.847  0.4491 -0.3251 -0.4494
  920MOL0     C21326  -1.157   6.978   9.808 -0.9300 -0.8642 -0.3610
  920MOL0     C21327  -1.231   6.983   9.922  0.0326 -1.2008  0.4245
  920MOL0     C21328  -1.382   6.979   9.925  0.0397  0.3167  0.0265
  920MOL0     C21329  -1.429   6.837   9.949  0.1958 -0.5867 -0.7477
  920MOL0     C21330  -1.553   6.809   9.873  1.5166 -0.2447  0.2160
  920MOL0     C21331  -1.600   6.664   9.894 -0.0059  0.0770 -0.5045
  920MOL0     O21332  -1.666   6.657  10.027  0.0356  0.1821  0.2332
  920MOL0     C21333  -1.690   6.529  10.080  0.6560 -0.0849 -0.2603
  920MOL0     C21334  -1.686   6.526  10.219 -0.3681 -0.4937  0.5136
  920MOL0     C21335  -1.685   6.404  10.290  0.0387  0.0937  0.3092
  920MOL0     C21336  -1.704   6.279  10.218 -0.6546  0.3998  0.2691
  920MOL0     C21337  -1.694   6.146  10.286  0.1773 -0.2955  0.1282
  920MOL0     O21338  -1.667   6.039  10.219  0.0522 -0.9534 -0.2889
  920MOL0     C21339  -1.671   5.909  10.261  0.7554 -0.4211 -0.1391
  920MOL0     C21340  -1.550   5.846  10.288  1.0446  0.4010  0.1605
  920MOL0     C21341  -1.554   5.716  10.339  0.2574  0.1213 -0.2289
  920MOL0     C21342  -1.671   5.630  10.342  0.1129 -0.4822 -0.0822
  920MOL0     O21343  -1.658   5.507  10.403 -0.6918  0.2778  0.2453
  920MOL0     C21344  -1.747   5.408  10.392  0.2014  1.1081 -0.1473
  920MOL0     C21345  -1.808   5.392  10.532  0.3527 -0.4621 -1.0025
  920MOL0     C21346  -1.895   5.271  10.544 -0.1198  0.3685 -1.0800
  920MOL0     C21347  -1.954   5.253  10.692 -0.4002 -0.3745  0.0273
  920MOL0     C21348  -2.024   5.117  10.706  0.1389  0.4124  0.1478
  920MOL0     C21349  -2.116   5.072  10.590 -0.2963  0.3860  1.2359
  920MOL0     C21350  -2.251   5.150  10.587  0.3501  0.6078  0.0602
  920MOL0     C21351  -2.347   5.079  10.487  0.8176  1.0016 -0.9585
  920MOL0    Cl21352  -2.299   5.094  10.316  0.3767 -0.0430  0.0230
  920MOL0     C21353  -1.786   5.692  10.292 -0.0181 -0.8296 -0.6238
  920MOL0     C21354  -1.783   5.822  10.248 -0.4238 -0.3465 -0.1216
  920MOL0     O21355  -1.692   6.152  10.411 -0.0412  1.0867  0.2213
  920MOL0     C21356  -1.712   6.294  10.075  0.1148 -0.6102 -0.1333
  920MOL0     C21357  -1.713   6.413  10.003 -0.9768 -0.1923  0.2169
  920MOL0     N21358  -1.150   7.025  10.024 -0.9159 -0.0804 -0.4973
  920MOL0     N21359  -1.028   7.033   9.981 -0.2814  0.2370  0.6159
  920MOL0     C21360   0.005   7.138   9.688 -0.4232  0.3921  0.0777
  920MOL0     C21361   0.126   7.159   9.764 -0.0915  0.1339  0.1725
  920MOL0     C21362   0.347   7.360  10.095 -0.2293  0.9687 -0.3464
  920MOL0     C21363   0.434   7.264  10.149  0.6465 -0.2208 -0.3216
  920MOL0     C21364   0.532   7.306  10.237  0.8501  0.3786 -0.5240
  920MOL0     C21365   0.546   7.435  10.277 -0.0646  0.3815  0.6480
  920MOL0     O21366   0.645   7.477  10.359  0.5918 -0.2793  0.0602
  920MOL0     C21367   0.721   7.591  10.309 -0.1977  1.0900 -0.4801
  920MOL0     C21368   0.836   7.613  10.407  0.3526 -0.7903  0.6710
  920MOL0     C21369   0.977   7.624  10.352  0.0247 -1.2128 -0.8723
  920MOL0     C21370   1.075   7.662  10.463 -0.2993 -0.5506  0.2061
  920MOL0     C21371   1.200   7.700  10.401  0.6074 -0.2772 -1.3021
  920MOL0     C21372   1.307   7.733  10.350  0.4307 -0.3963 -0.8254
  920MOL0     C21373   0.456   7.521  10.218  0.2946 -0.1114 -0.1059
  920MOL0     C21374   0.349   7.492  10.129  0.0541 -0.9605  0.0845
  920MOL0     H21375   0.064   7.029  10.057  2.3406  1.2918  0.3550
  920MOL0     H21376  -0.164   7.003   9.946  0.1719  1.0067 -0.6556
  920MOL0     H21377  -0.156   6.987   9.504 -1.4457 -1.1160  3.1635
  920MOL0     H21378  -0.213   7.156   9.503 -0.3251  1.1300  2.2650
  920MOL0     H21379  -0.374   7.036   9.398  0.0362 -2.6729 -0.1813
  920MOL0     H21380  -0.435   7.101   9.559 -2.3551 -2.8838  1.3599
  920MOL0     H21381  -0.423   6.884   9.650  0.7638  2.9197  0.3950
  920MOL0     H21382  -0.337   6.819   9.515 -1.8453 -1.0410 -0.1934
  920MOL0     H21383  -0.582   6.894   9.393 -2.1107  1.4255  1.7228
  920MOL0     H21384  -0.540   6.730   9.443 -0.0889  1.0054 -2.9214
  920MOL0     H21385  -0.646   6.777   9.670 -2.0430 -0.1592 -0.3915
  920MOL0     H21386  -0.757   6.777   9.537  0.7498 -1.6951  0.4271
  920MOL0     H21387  -0.730   7.041   9.550  3.0707  0.3477 -0.8224
  920MOL0     H21388  -0.642   7.013   9.700  0.4769  0.6427  0.9534
  920MOL0     H21389  -0.920   6.898   9.647  1.8822 -0.7280 -1.4920
  920MOL0     H21390  -0.814   6.868   9.789  3.8081  1.1235  0.6519
  920MOL0     H21391  -0.963   7.108   9.686  0.5846 -0.9537 -1.7142
  920MOL0     H21392  -0.849   7.128   9.820 -1.4670  1.6390  0.1509
  920MOL0     H21393  -1.193   6.964   9.707  2.6863  1.2092 -2.1441
  920MOL0     H21394  -1.422   7.027   9.835 -0.7320 -0.1488  0.1180
  920MOL0     H21395  -1.424   7.032  10.011  1.0751 -0.0954  0.8047
  920MOL0     H21396  -1.444   6.825  10.057  1.2489  0.4257 -0.4780
  920MOL0     H21397  -1.346   6.774   9.916  0.7930 -0.3809  0.3180
  920MOL0     H21398  -1.633   6.880   9.893  1.0106 -1.2187  1.8491
  920MOL0     H21399  -1.526   6.812   9.766 -0.6325 -1.8190 -0.4423
  920MOL0     H21400  -1.518   6.592   9.884  1.5002  1.9438 -2.4025
  920MOL0     H21401  -1.665   6.632   9.812  0.5300 -2.5672  0.0177
  920MOL0     H21402  -1.683   6.621  10.271 -0.1383  0.5467 -1.2996
  920MOL0     H21403  -1.681   6.407  10.399 -0.1079 -1.8852  0.4119
  920MOL0     H21404  -1.450   5.889  10.286  1.5461 -0.7456 -0.3064
  920MOL0     H21405  -1.462   5.663  10.361 -1.4323 -2.2782  1.6132
  920MOL0     H21406  -1.695   5.318  10.356 -2.9419 -0.0190 -2.3026
  920MOL0     H21407  -1.824   5.420  10.315 -0.3421 -0.7377  0.0491
  920MOL0     H21408  -1.876   5.476  10.551  0.2735 -0.4763 -1.2201
  920MOL0     H21409  -1.724   5.399  10.600 -0.6718 -0.8387  0.3443
  920MOL0     H21410  -1.826   5.190  10.519  0.7480  0.9924 -0.7671
  920MOL0     H21411  -1.970   5.282  10.465  4.0186 -1.2164 -5.8135
  920MOL0     H21412  -1.870   5.252  10.761  1.9224  3.1652 -2.4048
  920MOL0     H21413  -2.012   5.341  10.721  1.2922  0.9284 -0.4116
  920MOL0     H21414  -2.076   5.112  10.802  1.4010 -1.5577  0.7707
  920MOL0     H21415  -1.943   5.044  10.710 -0.3128 -0.0432  1.0439
  920MOL0     H21416  -2.128   4.963  10.592 -1.5867  0.3027 -2.6587
  920MOL0     H21417  -2.059   5.090  10.499 -0.1217  0.0922  1.2852
  920MOL0     H21418  -2.291   5.164  10.688  3.4606  0.3389  1.4490
  920MOL0     H21419  -2.229   5.252  10.554  1.1198  0.6031  0.5565
  920MOL0     H21420  -2.446   5.125  10.487  0.6474  0.7598 -3.6527
  920MOL0     H21421  -2.350   4.972  10.507 -0.9633  1.0745 -0.6094
  920MOL0     H21422  -1.881   5.643  10.313  0.0041 -0.9579 -0.8167
  920MOL0     H21423  -1.874   5.867  10.210 -0.8615 -0.2013  1.0397
  920MOL0     H21424  -1.712   6.210  10.005 -0.8930  0.9139 -2.0532
  920MOL0     H21425  -1.722   6.412   9.895 -1.6457  2.5717  0.1692
  920MOL0     H21426   0.007   7.178   9.587 -2.0992 -2.0168 -1.0067
  920MOL0     H21427   0.195   7.215   9.701  1.9285 -3.1973 -0.8314
  920MOL0     H21428   0.443   7.158  10.126 -1.0582 -0.7936  1.3521
  920MOL0     H21429   0.597   7.238  10.293 -1.7914 -2.0210 -0.1543
  920MOL0     H21430   0.660   7.681  10.295  1.6819  2.5675  0.3934
  920MOL0     H21431   0.774   7.570  10.215  6.2743  1.5333  2.4936
  920MOL0     H21432   0.820   7.710  10.455  2.2915  0.2247 -0.6036
  920MOL0     H21433   0.824   7.540  10.488 -1.3451 -1.9781 -0.5608
  920MOL0     H21434   0.982   7.687  10.263  2.3884  0.2691  0.2137
  920MOL0     H21435   0.992   7.521  10.320  2.4671 -2.3574  3.2122
  920MOL0     H21436   1.048   7.754  10.515  0.0954  0.5937 -1.5186
  920MOL0     H21437   1.097   7.575  10.526 -1.9509 -0.9104  0.3358
  920MOL0     H21438   1.392   7.749  10.287 -0.2990  0.2119 -1.6844
  920MOL0     H21439   0.456   7.621  10.261  2.3165  0.4696 -1.3239
  920MOL0     H21440   0.283   7.573  10.099  1.1747 -1.1032 -3.0334
  921MOL0     O21441   8.853   2.152   1.757 -0.6886  0.2905  0.6517
  921MOL0     C21442   8.744   2.208   1.767 -1.0823  0.4396  0.8594
  921MOL0     O21443   8.723   2.318   1.693  1.0823 -0.1037 -0.2681
  921MOL0     C21444   8.833   2.370   1.632 -0.0837  0.8457 -1.6614
  921MOL0     C21445   8.854   2.368   1.491 -0.6887  0.4579  0.3190
  921MOL0     C21446   8.960   2.433   1.434 -0.3023  0.2899  0.7588
  921MOL0     C21447   9.053   2.503   1.512  0.0998 -0.9395 -0.2289
  921MOL0     O21448   9.154   2.566   1.448  0.7627  0.1628  1.0435
  921MOL0     C21449   9.263   2.624   1.522 -0.0224  0.4266  0.2650
  921MOL0     C21450   9.321   2.715   1.411 -0.2552 -0.8066  0.0870
  921MOL0     C21451   9.446   2.801   1.452 -0.4792 -0.1204  0.4122
  921MOL0     C21452   9.496   2.871   1.326 -0.0853  0.2479  0.3352
  921MOL0     C21453   9.446   3.014   1.301 -1.0288  1.0026  0.6384
  921MOL0     C21454   9.552   3.088   1.210  0.6044 -1.0802 -0.0048
  921MOL0     C21455   9.485   3.216   1.148  0.1047  0.5865 -0.5048
  921MOL0     C21456   9.591   3.308   1.075 -0.1851  0.8188  0.5770
  921MOL0     N21457   9.520   3.431   1.035 -0.6136 -0.2800 -0.9186
  921MOL0     C21458   9.387   3.468   1.034 -0.0259  1.0295  0.0537
  921MOL0     C21459   9.395   3.603   1.034  0.0801 -0.6194  0.2403
  921MOL0     C21460   9.276   3.698   1.029  0.9987 -0.4406 -0.0247
  921MOL0     C21461   9.287   3.798   1.138 -0.1019 -0.0010 -0.3747
  921MOL0     C21462   9.151   3.855   1.180  0.1151 -0.6044 -0.3902
  921MOL0     C21463   9.074   3.932   1.079  0.1569  0.7569  0.4931
  921MOL0     O21464   8.999   3.850   0.974  0.1771 -0.1596 -0.1996
  921MOL0     C21465   8.886   3.898   0.915  0.9005  0.0666 -0.4957
  921MOL0     C21466   8.864   3.846   0.791  0.6304 -0.6295 -0.0131
  921MOL0     C21467   8.744   3.878   0.725  1.2397  0.2620 -0.3462
  921MOL0     C21468   8.651   3.966   0.785 -1.1589 -0.5022  1.1093
  921MOL0     C21469   8.528   4.015   0.713 -0.3076 -0.1359  0.6714
  921MOL0     O21470   8.460   4.116   0.762 -1.0171 -0.7728 -0.0278
  921MOL0     C21471   8.332   4.151   0.729  0.5519  0.2783 -0.1969
  921MOL0     C21472   8.313   4.235   0.627 -0.5348  0.4589  0.2275
  921MOL0     C21473   8.187   4.273   0.582 -0.2065 -0.8609 -0.2909
  921MOL0     C21474   8.074   4.208   0.632 -0.8778 -0.0987  1.2322
  921MOL0     O21475   7.948   4.223   0.586  0.3202  0.0012 -0.4877
  921MOL0     C21476   7.915   4.317   0.483 -0.1750 -0.6122 -0.0232
  921MOL0     C21477   7.917   4.234   0.354  0.1131 -0.2457 -0.0248
  921MOL0     C21478   7.821   4.297   0.249 -0.6062 -0.6837 -0.3139
  921MOL0     C21479   7.868   4.433   0.178  0.2964  0.3243  0.1781
  921MOL0     C21480   8.014   4.436   0.134 -1.3021  0.4381  0.0428
  921MOL0     C21481   8.037   4.562   0.050  0.1474 -0.4578 -0.4085
  921MOL0     C21482   8.002   4.538  -0.104 -0.9385 -0.3168 -0.6104
  921MOL0     C21483   8.127   4.467  -0.152 -0.6031 -0.7386 -0.3377
  921MOL0    Cl21484   8.116   4.468  -0.333  0.1118 -0.2872  0.1612
  921MOL0     C21485   8.093   4.120   0.736  0.1462 -0.0762 -0.5661
  921MOL0     C21486   8.224   4.084   0.784  0.0876 -0.0845 -0.9194
  921MOL0     O21487   8.496   3.950   0.613  0.2296  0.1947  1.2940
  921MOL0     C21488   8.676   4.005   0.914  0.0340 -0.0088  0.0457
  921MOL0     C21489   8.786   3.966   0.985  0.3785 -0.7207  0.0888
  921MOL0     N21490   9.527   3.647   1.036  0.1514 -0.1815 -0.3940
  921MOL0     N21491   9.596   3.541   1.029  0.5588  0.5212 -0.5885
  921MOL0     C21492   9.033   2.498   1.653 -0.3345 -0.8114 -0.1116
  921MOL0     C21493   8.924   2.435   1.715  0.6121 -0.1014 -0.5835
  921MOL0     C21494   8.646   2.145   1.853  0.0709 -0.1075 -1.2593
  921MOL0     C21495   8.524   2.211   1.885 -0.1969 -0.2556 -0.5347
  921MOL0     C21496   8.432   2.157   1.976  0.1391 -0.1662 -0.0218
  921MOL0     C21497   8.462   2.040   2.049  0.0644  0.2897  0.6744
  921MOL0     O21498   8.380   1.995   2.154 -0.7404 -0.2625 -0.0997
  921MOL0     C21499   8.264   2.070   2.195 -0.1489 -0.2326  1.0624
  921MOL0     C21500   8.190   1.988   2.300  0.7286  0.7847 -1.0818
  921MOL0     C21501   8.267   1.955   2.425 -0.5851 -0.6494  0.6413
  921MOL0     C21502   8.187   1.872   2.522 -0.2393 -0.4898  1.0397
  921MOL0     C21503   8.256   1.848   2.643  0.8621 -0.4634  0.7019
  921MOL0     C21504   8.321   1.831   2.745  0.4932 -0.6713  1.1248
  921MOL0     C21505   8.581   1.961   2.008  0.5423 -0.1736  0.6821
  921MOL0     C21506   8.665   2.012   1.912 -0.3472  0.4407 -0.7023
  921MOL0     H21507   8.783   2.312   1.432  1.4233 -1.2707 -0.7195
  921MOL0     H21508   8.979   2.425   1.328 -1.9570 -1.4843  0.5427
  921MOL0     H21509   9.336   2.546   1.545  0.7757  0.9476 -0.4291
  921MOL0     H21510   9.235   2.684   1.609 -0.5896  2.0253 -0.9611
  921MOL0     H21511   9.242   2.782   1.377 -1.4378 -3.4004 -2.6986
  921MOL0     H21512   9.350   2.644   1.334  4.2525 -1.9943  2.5242
  921MOL0     H21513   9.525   2.737   1.492  0.6308  1.0822  0.1871
  921MOL0     H21514   9.423   2.878   1.526  0.0829  0.1901  0.2664
  921MOL0     H21515   9.605   2.876   1.328 -0.0746  0.3341 -0.2491
  921MOL0     H21516   9.487   2.813   1.233 -4.3291  0.2149  0.5620
  921MOL0     H21517   9.439   3.074   1.393  2.3094 -0.2465  1.8559
  921MOL0     H21518   9.351   3.004   1.248 -2.3506 -2.7733  3.3102
  921MOL0     H21519   9.589   3.027   1.127  0.6870 -1.8235  0.5619
  921MOL0     H21520   9.638   3.115   1.273 -2.0575  0.8569  3.1308
  921MOL0     H21521   9.410   3.193   1.073 -0.9074 -0.1045  0.6700
  921MOL0     H21522   9.445   3.273   1.233  1.7352 -0.3820  0.9833
  921MOL0     H21523   9.640   3.272   0.984 -1.4099  1.5914 -0.4227
  921MOL0     H21524   9.662   3.330   1.155  0.1969 -1.7368  1.0164
  921MOL0     H21525   9.298   3.407   1.046  0.2238  1.2214  4.5427
  921MOL0     H21526   9.182   3.644   1.042  0.9905  0.2590  4.1886
  921MOL0     H21527   9.269   3.749   0.933 -0.4617 -0.1233  0.2268
  921MOL0     H21528   9.343   3.883   1.097 -0.4376 -0.9228 -2.9401
  921MOL0     H21529   9.338   3.762   1.228  0.4170 -0.5719 -0.8858
  921MOL0     H21530   9.088   3.778   1.224 -1.8950  0.3169 -1.5251
  921MOL0     H21531   9.175   3.926   1.261 -0.7774 -0.9304  0.1825
  921MOL0     H21532   9.131   4.006   1.022 -0.0980  0.6631  0.1148
  921MOL0     H21533   9.014   3.987   1.151 -2.5640 -1.8212  0.3927
  921MOL0     H21534   8.928   3.784   0.729  0.7592  1.1438 -1.7377
  921MOL0     H21535   8.724   3.828   0.630  0.3805 -4.3778  2.0006
  921MOL0     H21536   8.400   4.271   0.574 -1.2329 -3.0893 -3.9169
  921MOL0     H21537   8.192   4.341   0.497  3.2643  1.3886  1.4593
  921MOL0     H21538   7.980   4.403   0.471  0.2890 -0.5819  2.2928
  921MOL0     H21539   7.812   4.354   0.493 -1.0831 -1.6747 -3.8122
  921MOL0     H21540   7.879   4.135   0.380 -2.2832  0.9596  1.4155
  921MOL0     H21541   8.017   4.222   0.312 -0.3709  0.5351 -1.4587
  921MOL0     H21542   7.727   4.307   0.303 -0.8496 -0.8483 -0.7108
  921MOL0     H21543   7.814   4.219   0.173 -0.3017 -3.5488  2.3624
  921MOL0     H21544   7.805   4.438   0.088 -0.1503  0.7793  0.5105
  921MOL0     H21545   7.852   4.525   0.235  1.7581  1.4380 -1.1246
  921MOL0     H21546   8.048   4.348   0.080  0.9425  3.1563 -3.3748
  921MOL0     H21547   8.073   4.443   0.226  2.5944  0.2377 -2.2307
  921MOL0     H21548   8.141   4.590   0.068  2.0121 -4.6622 -2.9258
  921MOL0     H21549   7.974   4.646   0.078  1.2347  0.5927 -1.0261
  921MOL0     H21550   7.915   4.475  -0.126  0.6898 -2.8458 -0.2678
  921MOL0     H21551   7.989   4.631  -0.160 -0.7696 -0.3476 -0.7020
  921MOL0     H21552   8.131   4.362  -0.123  0.7712 -1.0401 -1.4797
  921MOL0     H21553   8.216   4.525  -0.126 -0.2375 -1.5586  0.2694
  921MOL0     H21554   8.006   4.071   0.778  1.1574  0.5980  2.5786
  921MOL0     H21555   8.231   4.041   0.884  1.3336  0.2448 -0.8424
  921MOL0     H21556   8.595   4.065   0.955 -4.2956 -4.5927 -0.8353
  921MOL0     H21557   8.798   4.007   1.084 -1.2265  5.3200 -1.8066
  921MOL0     H21558   9.096   2.559   1.717 -3.4631  0.3979  2.1256
  921MOL0     H21559   8.914   2.456   1.821 -1.1405 -0.0008 -0.7306
  921MOL0     H21560   8.492   2.301   1.834  0.2063  0.7846  0.9862
  921MOL0     H21561   8.347   2.216   2.007  1.8772  1.5289  1.8373
  921MOL0     H21562   8.201   2.087   2.107 -0.6747 -0.3081  1.4207
  921MOL0     H21563   8.299   2.162   2.242  1.7101  0.2680 -1.1271
  921MOL0     H21564   8.100   2.044   2.327 -0.1108 -1.0626  0.1002
  921MOL0     H21565   8.160   1.893   2.256  3.6699 -1.0321  0.5382
  921MOL0     H21566   8.304   2.045   2.475  0.6582  0.0149 -1.3660
  921MOL0     H21567   8.362   1.909   2.399  1.7870  2.5655  2.8489
  921MOL0     H21568   8.100   1.935   2.541 -0.6754 -1.0570  0.9348
  921MOL0     H21569   8.155   1.773   2.489 -4.7528  0.3619  2.2191
  921MOL0     H21570   8.391   1.813   2.824  0.0999 -1.5996  1.2834
  921MOL0     H21571   8.601   1.868   2.060 -1.6170 -0.2114  1.5494
  921MOL0     H21572   8.760   1.966   1.888 -0.0767 -0.9538  2.5720
  922MOL0     O21573  10.426   5.661  10.695  0.7659 -0.8730  0.4757
  922MOL0     C21574  10.337   5.594  10.642  0.1177  0.4323 -0.3978
  922MOL0     O21575  10.200   5.611  10.671 -0.1775  0.4486  0.1823
  922MOL0     C21576  10.156   5.718  10.739 -0.4065  0.1109 -0.7812
  922MOL0     C21577  10.177   5.739  10.872  0.5631  0.2175  0.2273
  922MOL0     C21578  10.129   5.855  10.929  0.1085  0.1689 -0.3810
  922MOL0     C21579  10.044   5.942  10.861 -0.0871 -0.1996 -0.0412
  922MOL0     O21580   9.981   6.049  10.919  0.4425 -0.0116  0.1223
  922MOL0     C21581  10.020   6.121  11.043  0.7415  0.3620  0.3585
  922MOL0     C21582  10.048   6.281  11.043 -1.3766 -0.7176 -0.5849
  922MOL0     C21583  10.201   6.305  11.062 -0.6696  0.7003 -0.6292
  922MOL0     C21584  10.263   6.445  11.031  0.1019  1.0381  0.8800
  922MOL0     C21585  10.202   6.553  11.125 -0.1605  0.1466  1.0036
  922MOL0     C21586  10.267   6.697  11.100 -0.3077 -0.3269  0.5703
  922MOL0     C21587  10.238   6.741  10.952 -0.3384 -0.6756 -0.4103
  922MOL0     C21588  10.082   6.765  10.925  0.4666  1.2307 -0.1228
  922MOL0     N21589  10.031   6.895  10.975  0.0202 -0.3180 -0.2661
  922MOL0     C21590   9.900   6.929  10.973 -0.3871  1.1345 -0.2079
  922MOL0     C21591   9.890   7.049  11.018  0.3901 -0.2631  0.0866
  922MOL0     C21592   9.750   7.100  11.053 -1.1793 -0.1451  1.1070
  922MOL0     C21593   9.726   7.254  11.065  0.7431 -0.2453  0.8204
  922MOL0     C21594   9.580   7.285  11.098 -1.0530 -0.0087  0.5276
  922MOL0     C21595   9.501   7.365  10.979  0.2278 -0.3208  0.3118
  922MOL0     O21596   9.408   7.457  11.037  0.3058 -0.5631  0.8767
  922MOL0     C21597   9.423   7.586  11.016 -0.0152  0.4807  0.0606
  922MOL0     C21598   9.424   7.625  10.883 -1.0289  0.5291  0.5899
  922MOL0     C21599   9.446   7.761  10.852  0.3578 -1.0102 -0.0888
  922MOL0     C21600   9.467   7.855  10.952 -0.2492  0.3958 -0.5360
  922MOL0     C21601   9.486   8.000  10.919  0.3405  0.2962 -0.5267
  922MOL0     O21602   9.411   8.084  10.991 -0.5125 -0.8288  0.7252
  922MOL0     C21603   9.436   8.221  10.978 -1.0031 -0.8389 -0.4373
  922MOL0     C21604   9.339   8.307  10.946 -0.8014  0.1716 -0.0199
  922MOL0     C21605   9.366   8.445  10.944  0.3000  0.5813 -1.5819
  922MOL0     C21606   9.498   8.491  10.962  1.1601 -0.0426 -0.4137
  922MOL0     O21607   9.526   8.628  10.952 -0.1606 -0.4163  0.4000
  922MOL0     C21608   9.624   8.681  11.057 -0.0184  0.2084  0.1754
  922MOL0     C21609   9.640   8.838  11.030 -0.3703  0.6897  0.6667
  922MOL0     C21610   9.675   8.878  10.888  0.4604  0.7632 -0.5244
  922MOL0     C21611   9.642   9.025  10.858 -1.7575 -0.4387  0.4712
  922MOL0     C21612   9.699   9.062  10.715  0.1715  0.2155 -0.2700
  922MOL0     C21613   9.694   9.207  10.679 -0.6172 -0.6555 -0.1847
  922MOL0     C21614   9.778   9.222  10.543 -0.3731  0.0809 -0.3506
  922MOL0     C21615   9.789   9.367  10.500 -0.5347  0.3526  0.4505
  922MOL0    Cl21616   9.927   9.387  10.375  0.1695 -0.3386 -0.6169
  922MOL0     C21617   9.599   8.399  10.991 -0.0210 -0.2277  0.0986
  922MOL0     C21618   9.566   8.270  11.012 -0.0293 -0.4642  0.4253
  922MOL0     O21619   9.551   8.023  10.822  0.1367  0.4064  0.0277
  922MOL0     C21620   9.472   7.809  11.087  0.0508 -0.0114  0.3136
  922MOL0     C21621   9.453   7.674  11.117  0.1443 -0.0809 -0.0371
  922MOL0     N21622  10.017   7.096  11.033 -0.7449 -0.9196  0.5709
  922MOL0     N21623  10.098   7.000  11.018  0.0625 -0.1984 -0.0178
  922MOL0     C21624  10.019   5.923  10.722  0.4671  0.8513  0.1342
  922MOL0     C21625  10.072   5.807  10.663  0.2356  0.0118  0.1204
  922MOL0     C21626  10.378   5.472  10.572  0.4820 -0.1826  0.0799
  922MOL0     C21627  10.285   5.396  10.502  0.9530 -0.6241  0.1291
  922MOL0     C21628  10.309   5.277  10.435 -0.3562  0.7938  0.5565
  922MOL0     C21629  10.440   5.238  10.426  0.1924 -0.1907 -0.9572
  922MOL0     O21630  10.458   5.124  10.355 -0.2636 -0.8572 -1.3453
  922MOL0     C21631  10.479   5.004  10.437  0.0789 -0.5591  0.3299
  922MOL0     C21632  10.345   4.921  10.457 -0.2134  0.1693 -1.2230
  922MOL0     C21633  10.372   4.785  10.527 -0.6987  1.1888  1.0346
  922MOL0     C21634  10.429   4.678  10.428 -0.3472  0.3992 -1.0478
  922MOL0     C21635  10.474   4.552  10.493 -0.2273  0.3308  0.0678
  922MOL0     C21636  10.534   4.450  10.528  0.0515  0.4429 -0.0887
  922MOL0     C21637  10.537   5.312  10.488 -0.8156  0.4198 -0.3655
  922MOL0     C21638  10.507   5.424  10.564 -0.6369  0.3426  0.0234
  922MOL0     H21639  10.244   5.673  10.927  1.0663 -1.0331 -1.8138
  922MOL0     H21640  10.158   5.895  11.026  0.6362  0.4607 -0.6533
  922MOL0     H21641  10.109   6.078  11.090 -0.6827 -1.9351  1.1259
  922MOL0     H21642   9.940   6.089  11.111 -0.5361  0.1914 -1.1673
  922MOL0     H21643   9.990   6.331  11.121 -0.8732  0.0606 -0.6953
  922MOL0     H21644  10.027   6.336  10.950 -1.5451  3.5517  1.6943
  922MOL0     H21645  10.246   6.228  11.000  0.0477 -0.0676  0.7921
  922MOL0     H21646  10.233   6.286  11.165 -0.1751 -1.2396 -1.1081
  922MOL0     H21647  10.372   6.433  11.028 -0.1805 -2.0866 -0.8215
  922MOL0     H21648  10.244   6.447  10.923  4.0567 -5.0682 -0.4202
  922MOL0     H21649  10.225   6.545  11.232  0.7964  1.4649  0.9219
  922MOL0     H21650  10.093   6.554  11.116 -0.9026 -6.2968  3.4746
  922MOL0     H21651  10.376   6.692  11.106  0.0941  1.7754 -2.4567
  922MOL0     H21652  10.221   6.769  11.168 -0.6860  0.1875 -0.2159
  922MOL0     H21653  10.292   6.833  10.927 -0.3456 -0.6954 -0.5005
  922MOL0     H21654  10.274   6.675  10.872  0.7013  0.3519 -0.8172
  922MOL0     H21655  10.036   6.678  10.972 -2.6594  1.5465 -2.2976
  922MOL0     H21656  10.055   6.766  10.819  0.5155  1.5730 -0.1344
  922MOL0     H21657   9.822   6.857  10.953  3.0205 -2.6011 -1.2017
  922MOL0     H21658   9.716   7.060  11.149 -2.2569  1.0762  1.2628
  922MOL0     H21659   9.694   7.088  10.960  2.5304 -0.0106 -1.3572
  922MOL0     H21660   9.754   7.312  10.977 -2.4529 -1.7480 -1.3625
  922MOL0     H21661   9.791   7.298  11.142  2.4753  0.2221 -0.8217
  922MOL0     H21662   9.525   7.192  11.115  2.5513 -2.2113  1.2223
  922MOL0     H21663   9.578   7.332  11.197 -1.2742 -1.1055  1.0594
  922MOL0     H21664   9.448   7.297  10.911 -2.2712 -1.8177  3.4813
  922MOL0     H21665   9.565   7.431  10.921  0.3505  1.5904  2.5058
  922MOL0     H21666   9.410   7.557  10.800  0.9590 -0.8132  1.2832
  922MOL0     H21667   9.437   7.794  10.749  1.6495 -0.4227 -0.0368
  922MOL0     H21668   9.244   8.265  10.915 -0.7125  1.6621 -2.6088
  922MOL0     H21669   9.283   8.508  10.913 -1.5087 -1.5003 -1.2691
  922MOL0     H21670   9.725   8.638  11.066 -1.0513 -2.2937  0.6378
  922MOL0     H21671   9.592   8.658  11.159 -2.4341  3.4129  0.3080
  922MOL0     H21672   9.719   8.875  11.097  0.6498  1.2023 -0.7869
  922MOL0     H21673   9.547   8.888  11.058  0.0264  1.1089  1.2674
  922MOL0     H21674   9.618   8.820  10.815 -0.3560  0.7718  0.0831
  922MOL0     H21675   9.778   8.849  10.866  0.0685 -2.1213  0.8705
  922MOL0     H21676   9.534   9.042  10.849 -1.5105  0.0719 -2.0605
  922MOL0     H21677   9.687   9.095  10.929  0.6930  0.1321 -1.5233
  922MOL0     H21678   9.642   9.004  10.642 -1.4796  0.2992  0.8800
  922MOL0     H21679   9.794   9.009  10.710 -0.4179 -0.9028  0.0360
  922MOL0     H21680   9.747   9.264  10.756 -0.5639 -3.0566  1.6780
  922MOL0     H21681   9.590   9.237  10.673 -0.8123 -1.3201 -0.2165
  922MOL0     H21682   9.881   9.190  10.561  0.1565 -0.1117 -3.2808
  922MOL0     H21683   9.734   9.161  10.464 -1.1183  0.7929 -0.5005
  922MOL0     H21684   9.831   9.415  10.589 -0.9465  0.7781  0.4110
  922MOL0     H21685   9.694   9.411  10.471  0.1387  0.6931 -1.3988
  922MOL0     H21686   9.703   8.431  10.989 -0.5013  1.3880 -0.3416
  922MOL0     H21687   9.651   8.205  11.031  0.0769  0.4111  3.4813
  922MOL0     H21688   9.495   7.881  11.166 -1.2976  2.0245 -1.0661
  922MOL0     H21689   9.449   7.625  11.214 -2.4896 -2.6207 -1.2569
  922MOL0     H21690   9.947   5.989  10.675 -0.1964  0.4890  0.6114
  922MOL0     H21691  10.038   5.789  10.561 -3.4394  1.7174  0.8934
  922MOL0     H21692  10.180   5.425  10.499  1.2330  0.7118  1.8250
  922MOL0     H21693  10.232   5.214  10.393 -0.7215  1.7341 -0.2100
  922MOL0     H21694  10.512   5.036  10.536 -3.1586  4.1693  0.2454
  922MOL0     H21695  10.559   4.953  10.383  1.3123  2.2405 -0.6944
  922MOL0     H21696  10.269   4.988  10.499  0.3100 -0.1467  0.2990
  922MOL0     H21697  10.295   4.883  10.368 -1.1926 -4.8641  1.0967
  922MOL0     H21698  10.284   4.735  10.567  0.6616 -1.2329  1.2234
  922MOL0     H21699  10.439   4.799  10.612 -1.3908  0.0413  1.7984
  922MOL0     H21700  10.352   4.650  10.356  0.9752  0.2492 -2.4702
  922MOL0     H21701  10.510   4.725  10.371  2.3627  1.0982  2.9403
  922MOL0     H21702  10.582   4.362  10.568 -0.1284 -0.3787 -1.5991
  922MOL0     H21703  10.635   5.269  10.505 -1.1364  0.4581  1.8903
  922MOL0     H21704  10.590   5.481  10.604 -1.5009  0.7027  1.3895
  923MOL0     O21705   4.918  11.272   9.496 -0.0035  0.6644 -0.1505
  923MOL0     C21706   4.967  11.265   9.379 -0.7245 -0.4903 -0.6216
  923MOL0     O21707   4.908  11.275   9.256  0.5827 -0.4170  0.5383
  923MOL0     C21708   4.772  11.312   9.258  0.2336  0.3872  0.7376
  923MOL0     C21709   4.687  11.204   9.226  0.9676 -0.1842 -0.5996
  923MOL0     C21710   4.546  11.221   9.233  0.3001 -0.4022 -0.2428
  923MOL0     C21711   4.492  11.351   9.261 -0.1842  0.3814 -0.6594
  923MOL0     O21712   4.355  11.366   9.272  0.0082  0.1450 -0.0122
  923MOL0     C21713   4.287  11.309   9.383 -0.5630  1.0271 -0.8615
  923MOL0     C21714   4.253  11.418   9.478 -0.4050 -0.4708  0.7891
  923MOL0     C21715   4.152  11.515   9.413  0.6481 -0.8637  0.1888
  923MOL0     C21716   4.178  11.653   9.482  0.0680  0.2681  0.4179
  923MOL0     C21717   4.072  11.763   9.473  0.0767 -0.7635  0.0701
  923MOL0     C21718   3.990  11.739   9.346 -0.2602  0.0003  0.8935
  923MOL0     C21719   3.910  11.876   9.321  0.2826  0.8678 -0.4574
  923MOL0     C21720   3.998  11.984   9.261 -0.6010 -0.3517 -0.0734
  923MOL0     N21721   3.938  12.118   9.250  0.2064 -0.2408 -0.7098
  923MOL0     C21722   3.841  12.149   9.152 -0.2051  1.4360 -0.6732
  923MOL0     C21723   3.805  12.275   9.190 -0.6449 -0.1136  0.6804
  923MOL0     C21724   3.694  12.372   9.136  0.2250 -0.0749  0.3558
  923MOL0     C21725   3.695  12.384   8.981 -0.4810 -0.0613 -1.0738
  923MOL0     C21726   3.836  12.408   8.920  1.0067 -0.2362  0.1010
  923MOL0     C21727   3.886  12.544   8.968 -0.2057  0.5003 -0.4945
  923MOL0     O21728   4.016  12.559   8.900 -0.8644 -0.3597 -0.2164
  923MOL0     C21729   4.131  12.484   8.941  0.7589  0.1764  0.7856
  923MOL0     C21730   4.126  12.396   9.048  0.2723 -0.0757 -0.0435
  923MOL0     C21731   4.232  12.309   9.069 -0.1788 -0.2288 -0.8547
  923MOL0     C21732   4.357  12.323   9.005 -0.0660  0.1300 -0.6748
  923MOL0     C21733   4.479  12.232   9.025 -0.0138 -0.8576  1.0873
  923MOL0     O21734   4.483  12.172   9.145  0.0801 -0.5551  0.6155
  923MOL0     C21735   4.588  12.087   9.176  0.1404  0.3159  0.8534
  923MOL0     C21736   4.721  12.112   9.184 -0.4653 -0.9680  0.8271
  923MOL0     C21737   4.817  12.014   9.208  0.3839 -1.0025 -0.1473
  923MOL0     C21738   4.780  11.877   9.234 -0.5331 -1.0823  0.8439
  923MOL0     O21739   4.867  11.775   9.261 -0.3633  0.0140 -0.1872
  923MOL0     C21740   4.990  11.801   9.310 -0.0428 -0.1184  0.0602
  923MOL0     C21741   5.043  11.671   9.370  0.2804 -0.2821 -0.7499
  923MOL0     C21742   5.169  11.683   9.459 -0.6937 -0.1477 -0.5764
  923MOL0     C21743   5.218  11.543   9.530  0.1959 -0.4542  1.0648
  923MOL0     C21744   5.313  11.568   9.646 -0.9985 -0.1809 -0.4950
  923MOL0     C21745   5.345  11.440   9.727 -0.4918  0.4264  0.4255
  923MOL0     C21746   5.432  11.461   9.856 -0.3419 -0.2696 -0.1915
  923MOL0     C21747   5.491  11.337   9.911 -0.4869  0.2676 -0.1411
  923MOL0    Cl21748   5.620  11.264   9.805  0.0156 -0.4101  0.3989
  923MOL0     C21749   4.646  11.846   9.228 -0.7592 -0.1733 -1.0393
  923MOL0     C21750   4.558  11.948   9.197 -0.5524 -1.0029 -0.1588
  923MOL0     O21751   4.565  12.230   8.939 -0.3632  0.3881  0.4544
  923MOL0     C21752   4.365  12.428   8.902 -0.3030  0.2272 -0.3420
  923MOL0     C21753   4.247  12.502   8.864 -0.1406  0.3331 -0.5135
  923MOL0     N21754   3.876  12.306   9.302 -0.0302 -0.6053 -0.7729
  923MOL0     N21755   3.954  12.211   9.349 -0.2736 -0.5495  0.3141
  923MOL0     C21756   4.579  11.457   9.288  0.2067  0.1411  0.3822
  923MOL0     C21757   4.718  11.438   9.294  0.0917  0.5073 -0.0765
  923MOL0     C21758   5.106  11.215   9.378 -0.0469 -0.7240 -0.3858
  923MOL0     C21759   5.163  11.170   9.504  0.3654  0.1215  1.0566
  923MOL0     C21760   5.294  11.123   9.500 -0.5922 -0.0964 -0.0651
  923MOL0     C21761   5.372  11.108   9.385 -0.8364 -0.8457 -0.4863
  923MOL0     O21762   5.503  11.053   9.387  0.4289  0.5031 -0.1915
  923MOL0     C21763   5.575  11.025   9.507  0.7636 -0.1076 -0.1119
  923MOL0     C21764   5.719  11.039   9.466  0.0373  0.1017  0.0481
  923MOL0     C21765   5.802  11.004   9.584 -0.6169  0.9498 -1.1966
  923MOL0     C21766   5.948  10.996   9.537 -0.4596  0.1304  0.1591
  923MOL0     C21767   6.048  10.981   9.644  0.5028 -0.9876 -0.7080
  923MOL0     C21768   6.117  10.971   9.742  0.0346 -0.6817  0.9849
  923MOL0     C21769   5.307  11.138   9.268 -0.4701  0.0995  0.6615
  923MOL0     C21770   5.174  11.190   9.255 -0.6408  1.0807 -0.3317
  923MOL0     H21771   4.724  11.102   9.217  1.7405 -0.0860  1.0131
  923MOL0     H21772   4.474  11.149   9.197 -1.1700  2.0396 -2.5226
  923MOL0     H21773   4.339  11.225   9.430 -3.7224  0.8711  2.8541
  923MOL0     H21774   4.191  11.268   9.348 -0.2999 -3.2181  2.5310
  923MOL0     H21775   4.341  11.474   9.511  0.3545  1.0496 -3.2768
  923MOL0     H21776   4.214  11.369   9.568 -2.4359  0.8904  0.7141
  923MOL0     H21777   4.057  11.461   9.415 -0.1994  0.5913  0.2558
  923MOL0     H21778   4.174  11.524   9.306  0.4466 -2.0825  0.0262
  923MOL0     H21779   4.209  11.635   9.585  0.6382 -1.8891 -0.0619
  923MOL0     H21780   4.275  11.694   9.449  2.8243 -1.9672  4.7532
  923MOL0     H21781   4.117  11.863   9.477 -3.0916  0.7817  1.2878
  923MOL0     H21782   4.019  11.753   9.568  3.9214 -0.7384  2.4426
  923MOL0     H21783   3.925  11.653   9.360 -2.1960  1.2676  0.0840
  923MOL0     H21784   4.070  11.731   9.271 -1.2123  1.6379 -0.3502
  923MOL0     H21785   3.825  11.843   9.259  2.2855 -0.8677 -2.4344
  923MOL0     H21786   3.855  11.913   9.408 -4.0734 -1.5307 -1.8272
  923MOL0     H21787   4.027  11.968   9.156 -0.6037  1.7241 -0.4358
  923MOL0     H21788   4.090  11.994   9.319 -0.1576  0.4869 -0.8817
  923MOL0     H21789   3.800  12.084   9.076 -1.8855  1.7593 -0.0757
  923MOL0     H21790   3.705  12.472   9.179 -0.7503  0.4608 -0.5929
  923MOL0     H21791   3.591  12.341   9.156 -0.5723  2.9991  1.5328
  923MOL0     H21792   3.624  12.456   8.937 -2.9949 -0.8715  1.3753
  923MOL0     H21793   3.667  12.286   8.941  1.0372 -0.1484 -2.0005
  923MOL0     H21794   3.898  12.327   8.959  0.4269 -1.0489 -0.6383
  923MOL0     H21795   3.830  12.397   8.811 -3.3868  0.3554  0.1319
  923MOL0     H21796   3.894  12.556   9.076  2.6136 -2.4835 -0.2067
  923MOL0     H21797   3.823  12.625   8.929 -2.3133 -0.0412  1.5850
  923MOL0     H21798   4.038  12.398   9.111 -1.1337 -1.2030 -1.8338
  923MOL0     H21799   4.222  12.224   9.135  1.7862 -1.3205 -1.8735
  923MOL0     H21800   4.752  12.214   9.164  0.8371 -1.8703 -2.3689
  923MOL0     H21801   4.922  12.039   9.200  0.9381 -3.4912 -2.0911
  923MOL0     H21802   4.978  11.877   9.388 -0.2009 -1.2934  1.2100
  923MOL0     H21803   5.056  11.826   9.227 -0.3884  1.3490  0.1818
  923MOL0     H21804   5.078  11.600   9.294  4.2946 -2.1255  2.4399
  923MOL0     H21805   4.957  11.626   9.420  0.6383  0.5493  0.6483
  923MOL0     H21806   5.152  11.757   9.538 -0.5017 -1.0175  0.2828
  923MOL0     H21807   5.250  11.711   9.391  1.3843  2.3806  2.6462
  923MOL0     H21808   5.135  11.491   9.580  1.1346 -0.3028  2.8423
  923MOL0     H21809   5.262  11.483   9.450 -0.5983 -1.0262  1.0429
  923MOL0     H21810   5.266  11.646   9.706  0.0022  0.4388 -0.5059
  923MOL0     H21811   5.410  11.599   9.609 -0.3470  1.1016  2.0858
  923MOL0     H21812   5.396  11.378   9.652 -0.9582  1.1710 -0.5266
  923MOL0     H21813   5.249  11.401   9.763 -1.3238  2.4705  0.5380
  923MOL0     H21814   5.517  11.525   9.829 -0.8969  0.7078  0.3259
  923MOL0     H21815   5.374  11.512   9.933 -1.4166  3.6564 -3.2570
  923MOL0     H21816   5.407  11.267   9.906 -1.4182  1.1242  2.0429
  923MOL0     H21817   5.519  11.349  10.016  2.6485  0.8261 -0.9553
  923MOL0     H21818   4.613  11.748   9.263 -0.9014 -0.5515 -2.2083
  923MOL0     H21819   4.458  11.908   9.182  0.3685 -3.3158 -0.6006
  923MOL0     H21820   4.447  12.456   8.837  0.6172  0.5833  0.9374
  923MOL0     H21821   4.239  12.576   8.786 -1.0787 -0.7444 -1.4724
  923MOL0     H21822   4.526  11.549   9.312 -1.6102 -0.1124 -2.2399
  923MOL0     H21823   4.777  11.525   9.322 -0.1717  0.1917  1.5632
  923MOL0     H21824   5.124  11.192   9.603  0.9275 -1.1917  1.5865
  923MOL0     H21825   5.330  11.092   9.598 -0.5548  0.6939  0.1748
  923MOL0     H21826   5.543  10.927   9.541  1.2868 -2.2426 -4.9637
  923MOL0     H21827   5.553  11.097   9.586 -1.2576 -0.9906  0.1715
  923MOL0     H21828   5.736  10.966   9.386  0.8077  0.7912 -0.4263
  923MOL0     H21829   5.736  11.140   9.429  1.3239  0.2523  0.9905
  923MOL0     H21830   5.779  10.906   9.628  1.7399  0.1340 -1.6667
  923MOL0     H21831   5.787  11.087   9.653 -0.2817  0.8312 -0.9816
  923MOL0     H21832   5.956  10.913   9.467 -1.9669  0.3916 -0.3478
  923MOL0     H21833   5.966  11.093   9.490 -1.1949 -0.9514 -2.5161
  923MOL0     H21834   6.177  10.958   9.830 -2.0600  0.4166  2.6678
  923MOL0     H21835   5.360  11.130   9.173 -3.1013  1.7862 -1.0963
  923MOL0     H21836   5.127  11.214   9.160 -0.9790 -2.1594 -1.1198
  924MOL0     O21837  11.357   2.349  10.923  0.6531 -0.1914  1.0093
  924MOL0     C21838  11.458   2.381  10.865 -0.6574  1.3840 -0.5847
  924MOL0     O21839  11.471   2.490  10.796 -0.4354  0.1884 -0.2346
  924MOL0     C21840  11.369   2.573  10.796  1.4140 -0.7603  0.0767
  924MOL0     C21841  11.347   2.657  10.905 -0.3384 -0.0636 -0.5858
  924MOL0     C21842  11.247   2.753  10.912 -0.3668  0.2248 -0.5862
  924MOL0     C21843  11.159   2.765  10.799  0.5031 -0.0632 -0.3666
  924MOL0     O21844  11.056   2.860  10.798  0.0103  0.2105  0.3124
  924MOL0     C21845  11.064   2.965  10.892 -0.8970  0.7739 -0.9182
  924MOL0     C21846  10.970   3.073  10.855 -0.7199 -0.2666  0.7087
  924MOL0     C21847  10.823   3.030  10.880  1.2261  0.0591  1.1602
  924MOL0     C21848  10.721   3.153  10.855 -0.0974  0.7357  1.1378
  924MOL0     C21849  10.598   3.149  10.951  0.4517  1.1442  0.1290
  924MOL0     C21850  10.524   3.003  10.958  0.4389  0.7728  0.6934
  924MOL0     C21851  10.389   2.997  11.032 -0.0556  1.2888  0.0580
  924MOL0     C21852  10.415   2.954  11.175  0.4252 -1.3463 -0.6628
  924MOL0     N21853  10.320   3.014  11.274 -0.6285  0.9692  0.1080
  924MOL0     C21854  10.196   2.990  11.308  0.5180  0.7841 -0.5055
  924MOL0     C21855  10.162   3.070  11.410 -0.4123 -0.0494  0.1805
  924MOL0     C21856  10.030   3.093  11.469  0.6179  0.1164 -0.0670
  924MOL0     C21857   9.981   2.976  11.560  0.1509  0.2937  0.9647
  924MOL0     C21858   9.864   3.039  11.642 -1.7475 -0.1095 -0.0235
  924MOL0     C21859   9.882   3.004  11.788  0.3865  0.5183 -0.2941
  924MOL0     O21860   9.757   2.966  11.851  0.3547  0.1449  0.1985
  924MOL0     C21861   9.748   2.830  11.880  0.8589  0.0189  0.0600
  924MOL0     C21862   9.767   2.727  11.788  0.9853  0.6791  0.0869
  924MOL0     C21863   9.742   2.594  11.824 -0.6069  0.0230 -0.7271
  924MOL0     C21864   9.697   2.560  11.951  0.1271  0.2785  0.5693
  924MOL0     C21865   9.649   2.419  11.983  0.0890  0.1370 -1.2757
  924MOL0     O21866   9.553   2.416  12.087 -0.3085  0.9190 -0.7887
  924MOL0     C21867   9.533   2.293  12.144 -0.0330 -0.6051 -0.7426
  924MOL0     C21868   9.501   2.173  12.077  0.4238 -0.0185  0.0654
  924MOL0     C21869   9.446   2.059  12.146 -0.3392 -0.6615 -0.5694
  924MOL0     C21870   9.444   2.063  12.284 -1.4121 -0.3082 -0.3475
  924MOL0     O21871   9.391   1.959  12.366  0.1713  0.4890 -0.7649
  924MOL0     C21872   9.283   1.896  12.297  0.2766  1.0708 -0.6647
  924MOL0     C21873   9.187   1.838  12.410 -1.4371  0.4714  0.9714
  924MOL0     C21874   9.068   1.788  12.347  0.1511  0.0536 -0.6355
  924MOL0     C21875   9.078   1.687  12.228  0.0493  0.7212  0.1220
  924MOL0     C21876   8.933   1.672  12.186  0.2966  0.6380 -0.0056
  924MOL0     C21877   8.916   1.573  12.076 -0.2576 -1.2858 -0.3007
  924MOL0     C21878   8.765   1.580  12.040 -0.3394 -0.9709 -0.1136
  924MOL0     C21879   8.755   1.500  11.912  0.3640  1.0634  0.0791
  924MOL0    Cl21880   8.843   1.569  11.763 -0.4040 -0.3937  0.1752
  924MOL0     C21881   9.474   2.182  12.352  0.9450  0.1936 -0.3722
  924MOL0     C21882   9.517   2.292  12.280  0.7315 -0.5261 -0.1431
  924MOL0     O21883   9.707   2.328  11.932  0.6457 -1.1524  0.4325
  924MOL0     C21884   9.690   2.665  12.041 -0.9053 -0.2349  0.3654
  924MOL0     C21885   9.713   2.800  12.007 -0.5668  0.0568  0.0119
  924MOL0     N21886  10.273   3.144  11.444  0.3115  0.6848 -0.2869
  924MOL0     N21887  10.366   3.119  11.351  0.8197  0.6440 -1.2408
  924MOL0     C21888  11.182   2.689  10.687 -0.1756 -0.1162  0.6529
  924MOL0     C21889  11.287   2.597  10.686  0.2571 -0.6795  0.6794
  924MOL0     C21890  11.583   2.296  10.883 -0.5089 -0.2840 -0.6793
  924MOL0     C21891  11.705   2.315  10.812 -0.5493  0.3221 -0.0462
  924MOL0     C21892  11.808   2.218  10.821 -0.1241  0.7261  0.1714
  924MOL0     C21893  11.809   2.132  10.932 -0.3891  0.0140  0.0239
  924MOL0     O21894  11.912   2.052  10.986 -0.1673  0.0589  1.0923
  924MOL0     C21895  12.033   2.039  10.908  0.1557 -0.2921 -0.8379
  924MOL0     C21896  12.116   1.910  10.941 -0.4938  0.1532  1.0275
  924MOL0     C21897  12.262   1.904  10.876  0.4229 -0.5822 -0.8789
  924MOL0     C21898  12.356   2.015  10.922 -0.1484  0.0558 -0.0011
  924MOL0     C21899  12.369   2.030  11.065  0.1152  0.1338  1.0141
  924MOL0     C21900  12.388   2.031  11.187  0.0829 -0.2408  0.0547
  924MOL0     C21901  11.697   2.127  11.013  0.2485  0.8711 -0.1655
  924MOL0     C21902  11.579   2.200  10.979  0.1497 -0.3864  0.3462
  924MOL0     H21903  11.410   2.633  10.990  0.1951  2.5321 -0.1891
  924MOL0     H21904  11.243   2.815  11.000  0.5598  1.7898 -1.5976
  924MOL0     H21905  11.167   3.000  10.886 -1.1235  1.1343 -5.0525
  924MOL0     H21906  11.048   2.930  10.995 -0.5978  0.7546 -0.8780
  924MOL0     H21907  10.981   3.090  10.747  0.6134 -1.9134  0.5411
  924MOL0     H21908  10.982   3.171  10.900 -1.6543  0.6076 -0.8372
  924MOL0     H21909  10.821   2.996  10.984  1.0023 -3.7631  0.0745
  924MOL0     H21910  10.800   2.944  10.817 -1.1948  2.2173 -1.1558
  924MOL0     H21911  10.774   3.248  10.870  2.0109 -0.2566  0.3811
  924MOL0     H21912  10.685   3.142  10.752  0.3446 -1.3160  1.1612
  924MOL0     H21913  10.527   3.226  10.921  0.0077 -0.2177 -2.6357
  924MOL0     H21914  10.639   3.172  11.050  3.3091 -1.1148 -0.3857
  924MOL0     H21915  10.601   2.930  10.986  0.0289 -0.5334 -1.3839
  924MOL0     H21916  10.485   2.995  10.856 -0.9385  1.4642  1.1267
  924MOL0     H21917  10.347   3.098  11.030  0.2608  1.4223  0.1239
  924MOL0     H21918  10.320   2.919  10.998 -0.6262  0.9816  1.8109
  924MOL0     H21919  10.510   2.999  11.205 -1.8242  4.2138 -0.6943
  924MOL0     H21920  10.408   2.845  11.188 -1.3156 -0.9788  2.3658
  924MOL0     H21921  10.131   2.918  11.260  0.2317 -0.7445  1.9820
  924MOL0     H21922   9.949   3.103  11.396  0.2523 -1.5096  0.0552
  924MOL0     H21923  10.024   3.181  11.533 -3.8665 -0.2915  0.4426
  924MOL0     H21924  10.069   2.943  11.615 -0.1741 -0.5351  1.0102
  924MOL0     H21925   9.941   2.888  11.508 -1.2996  0.6141  1.4784
  924MOL0     H21926   9.861   3.148  11.635 -3.7675  0.6139  6.0870
  924MOL0     H21927   9.769   2.993  11.614 -1.5618 -0.4603 -0.0912
  924MOL0     H21928   9.939   3.083  11.838  0.2033  1.7155 -1.9283
  924MOL0     H21929   9.947   2.917  11.803  0.6961  0.7395 -0.3467
  924MOL0     H21930   9.792   2.735  11.683 -0.6423 -2.1098 -0.6026
  924MOL0     H21931   9.751   2.514  11.751  0.3154 -1.3642  0.8195
  924MOL0     H21932   9.506   2.183  11.969 -0.4722  4.9705  0.2164
  924MOL0     H21933   9.420   1.967  12.094  0.0806 -2.1283  1.6560
  924MOL0     H21934   9.333   1.816  12.241 -2.5633 -1.3842  0.0452
  924MOL0     H21935   9.219   1.959  12.234 -1.1579  0.0723 -0.2564
  924MOL0     H21936   9.154   1.923  12.472 -1.9181  1.5193 -0.6573
  924MOL0     H21937   9.230   1.750  12.459 -0.0443 -3.5380 -6.0813
  924MOL0     H21938   9.009   1.877  12.322 -2.3323 -1.0729  0.7918
  924MOL0     H21939   9.001   1.750  12.425  2.4367 -1.7218  0.5673
  924MOL0     H21940   9.138   1.712  12.141  0.9248  1.4989  0.9258
  924MOL0     H21941   9.117   1.593  12.268 -2.6314 -0.2963  0.5644
  924MOL0     H21942   8.894   1.771  12.161  0.9040  1.7157  2.8963
  924MOL0     H21943   8.880   1.636  12.274  1.1337  2.6468  1.4001
  924MOL0     H21944   8.935   1.472  12.113  0.5534 -0.5470  1.4472
  924MOL0     H21945   8.990   1.596  11.999  1.5466 -3.9853  0.5011
  924MOL0     H21946   8.708   1.520  12.112  1.2875 -2.1764  0.2294
  924MOL0     H21947   8.729   1.681  12.019  0.5909 -0.9618 -1.9073
  924MOL0     H21948   8.649   1.487  11.890  0.9409 -0.8530 -1.9566
  924MOL0     H21949   8.785   1.396  11.926  2.6527  1.7124  0.3149
  924MOL0     H21950   9.448   2.196  12.457  0.0103  3.3734 -0.9258
  924MOL0     H21951   9.531   2.381  12.340 -0.8174 -1.0209  1.0393
  924MOL0     H21952   9.654   2.656  12.143  0.1263  3.6791  1.2398
  924MOL0     H21953   9.689   2.883  12.072 -2.6513  0.7626 -1.5255
  924MOL0     H21954  11.116   2.681  10.601  2.2572 -1.9271 -1.1979
  924MOL0     H21955  11.306   2.543  10.594  0.1793  0.5839 -0.1042
  924MOL0     H21956  11.721   2.393  10.738 -2.7561  2.5055  1.6337
  924MOL0     H21957  11.878   2.224  10.738  0.2017 -0.9616  0.2763
  924MOL0     H21958  12.105   2.121  10.918  1.1461 -0.5122 -4.6424
  924MOL0     H21959  12.009   2.031  10.801  1.1786  3.5754 -1.5029
  924MOL0     H21960  12.121   1.899  11.050  1.5208 -2.2710  0.7793
  924MOL0     H21961  12.064   1.818  10.913  1.1294 -0.2331 -0.9378
  924MOL0     H21962  12.263   1.908  10.767 -0.6333 -1.1108 -0.9221
  924MOL0     H21963  12.310   1.813  10.911  3.9510  3.0339  5.5340
  924MOL0     H21964  12.448   1.982  10.873 -1.4864 -1.8424 -1.3827
  924MOL0     H21965  12.330   2.115  10.886 -1.9277 -0.9349 -1.6676
  924MOL0     H21966  12.408   2.017  11.292  0.5616  0.4300  0.0566
  924MOL0     H21967  11.683   2.063  11.099 -0.1838  0.2808 -0.6695
  924MOL0     H21968  11.493   2.170  11.039 -0.8887  1.9453  0.1413
  925MOL0     O21969   2.500   6.129   4.664 -0.6360 -0.1907  1.1468
  925MOL0     C21970   2.484   6.029   4.591 -0.4997 -0.1904  0.3987
  925MOL0     O21971   2.470   5.906   4.633 -0.2809  0.2942 -0.2529
  925MOL0     C21972   2.505   5.854   4.754  0.6206  0.0398 -0.5034
  925MOL0     C21973   2.589   5.917   4.842 -0.0203  0.1710 -1.1099
  925MOL0     C21974   2.633   5.844   4.944 -0.3210  0.4088 -0.1526
  925MOL0     C21975   2.587   5.717   4.969  0.0581  0.2600 -0.0284
  925MOL0     O21976   2.627   5.643   5.079  0.4068  0.0366 -0.6390
  925MOL0     C21977   2.538   5.645   5.192 -0.3113  0.3779  0.1863
  925MOL0     C21978   2.527   5.508   5.261 -0.6206 -0.0167  0.2344
  925MOL0     C21979   2.653   5.471   5.335 -0.2760  0.3945  0.5681
  925MOL0     C21980   2.667   5.325   5.380  0.7691  0.2399  0.0341
  925MOL0     C21981   2.785   5.328   5.469 -1.0197 -1.1017  0.6626
  925MOL0     C21982   2.813   5.191   5.524  0.5018  0.5175 -0.0731
  925MOL0     C21983   2.920   5.190   5.631 -0.2690  0.1786 -0.1090
  925MOL0     C21984   3.059   5.205   5.555 -0.2191  0.4895  0.4374
  925MOL0     N21985   3.098   5.085   5.492 -0.3387 -0.4788  0.7698
  925MOL0     C21986   3.073   5.046   5.360  0.3467 -0.2409 -0.2417
  925MOL0     C21987   3.145   4.936   5.346 -0.2418  0.5077  0.7479
  925MOL0     C21988   3.160   4.876   5.205  0.5126  0.5602 -0.1753
  925MOL0     C21989   3.074   4.752   5.188 -0.6715 -0.6287 -1.0637
  925MOL0     C21990   2.930   4.793   5.189  1.0177  0.7671  0.4588
  925MOL0     C21991   2.835   4.672   5.149  0.5227  0.0087 -0.2380
  925MOL0     O21992   2.714   4.738   5.123  0.4449  0.1358 -0.8768
  925MOL0     C21993   2.617   4.677   5.058  0.0769  0.4531  1.1636
  925MOL0     C21994   2.618   4.536   5.040  0.0249  0.2903 -0.6731
  925MOL0     C21995   2.513   4.467   4.980 -0.5101  0.3230 -0.9027
  925MOL0     C21996   2.413   4.537   4.920 -0.4451 -0.1654  0.4821
  925MOL0     C21997   2.303   4.475   4.847  0.1476 -0.9233  0.0226
  925MOL0     O21998   2.193   4.555   4.817 -0.3899  0.1612  0.3955
  925MOL0     C21999   2.081   4.486   4.767  0.9916 -0.1786  0.0610
  925MOL0     C22000   1.956   4.531   4.824 -0.0359 -0.0195  0.4447
  925MOL0     C22001   1.833   4.465   4.788 -0.9093  0.6863 -0.4704
  925MOL0     C22002   1.839   4.349   4.722  0.1081  0.6480  0.3771
  925MOL0     O22003   1.740   4.250   4.716 -0.2932 -0.3858 -0.0579
  925MOL0     C22004   1.650   4.237   4.833 -0.8016 -0.0946 -0.0658
  925MOL0     C22005   1.727   4.226   4.971 -0.9197 -0.4257  0.7084
  925MOL0     C22006   1.812   4.097   4.972 -0.1357 -1.7049 -0.6944
  925MOL0     C22007   1.920   4.080   5.083  0.0646 -0.7975 -1.1805
  925MOL0     C22008   2.032   4.004   5.015 -0.5341  0.5413 -0.1555
  925MOL0     C22009   2.162   4.046   5.107 -0.5178 -0.7952 -1.2771
  925MOL0     C22010   2.302   4.008   5.040  0.4124 -0.2047 -0.4507
  925MOL0     C22011   2.419   4.052   5.128  0.3192 -0.6848  0.0474
  925MOL0    Cl22012   2.564   3.976   5.063  0.3984  0.4040 -0.1249
  925MOL0     C22013   1.956   4.312   4.661  0.1641 -0.5083 -0.6334
  925MOL0     C22014   2.080   4.382   4.672  0.8741  0.5707  0.7247
  925MOL0     O22015   2.313   4.354   4.822 -0.2229 -0.0336  0.2541
  925MOL0     C22016   2.420   4.678   4.919 -0.5176  0.3843 -0.0923
  925MOL0     C22017   2.520   4.754   4.991  0.3397  0.6837 -0.7104
  925MOL0     N22018   3.218   4.913   5.467  0.8196 -0.2170  0.2830
  925MOL0     N22019   3.189   5.006   5.552 -0.4365  0.1617  0.0735
  925MOL0     C22020   2.492   5.666   4.890 -0.3662  0.6656 -0.2253
  925MOL0     C22021   2.452   5.726   4.773  0.2663 -0.3634 -0.2480
  925MOL0     C22022   2.496   6.060   4.452 -0.9517 -0.1750  0.2669
  925MOL0     C22023   2.472   5.966   4.355 -0.7346 -0.3759 -0.9583
  925MOL0     C22024   2.493   5.978   4.214  1.0751 -0.7885 -0.1730
  925MOL0     C22025   2.537   6.106   4.168  0.1637 -0.6178 -0.1763
  925MOL0     O22026   2.561   6.132   4.038 -0.2786 -0.5933 -0.0777
  925MOL0     C22027   2.435   6.148   3.960  0.0186 -0.2293  0.0724
  925MOL0     C22028   2.465   6.152   3.807 -0.6253 -0.8763 -0.1168
  925MOL0     C22029   2.592   6.220   3.760  0.2516  0.3475 -0.0886
  925MOL0     C22030   2.614   6.360   3.801 -1.3282 -1.0401  0.2645
  925MOL0     C22031   2.719   6.418   3.711 -0.2229 -0.0896 -0.5774
  925MOL0     C22032   2.792   6.461   3.633  0.5280  0.2355  0.4203
  925MOL0     C22033   2.552   6.211   4.265 -0.8672 -1.0341 -0.4516
  925MOL0     C22034   2.546   6.183   4.400 -0.3868  0.6391 -0.0601
  925MOL0     H22035   2.622   6.019   4.828  1.2659 -0.0752  0.0295
  925MOL0     H22036   2.709   5.881   5.012 -0.5242  0.8133 -0.1423
  925MOL0     H22037   2.437   5.668   5.156 -0.6320 -0.1114  0.7555
  925MOL0     H22038   2.553   5.721   5.269  0.6733 -1.3983  1.8402
  925MOL0     H22039   2.512   5.441   5.176 -1.0777  1.5750 -0.9680
  925MOL0     H22040   2.443   5.501   5.331 -3.1537 -0.9664 -2.6740
  925MOL0     H22041   2.641   5.539   5.419 -0.2837  1.5906 -0.3748
  925MOL0     H22042   2.736   5.497   5.270 -0.7493 -1.2176 -0.7724
  925MOL0     H22043   2.581   5.296   5.440  1.2461  0.7956  1.0158
  925MOL0     H22044   2.675   5.271   5.285 -2.7359  0.4321 -0.4911
  925MOL0     H22045   2.771   5.396   5.554 -0.9262 -1.1720  0.7350
  925MOL0     H22046   2.863   5.388   5.423 -0.9243 -0.4381  1.6583
  925MOL0     H22047   2.836   5.124   5.441  1.8730  2.6585 -1.5080
  925MOL0     H22048   2.724   5.146   5.571  0.3309  0.8243 -0.1025
  925MOL0     H22049   2.898   5.270   5.703 -2.0376 -0.4727  0.1399
  925MOL0     H22050   2.918   5.093   5.681  3.6584  0.8522  1.7511
  925MOL0     H22051   3.141   5.239   5.621  0.7180 -0.6401 -0.1092
  925MOL0     H22052   3.048   5.284   5.480  3.3693  1.1431  0.4109
  925MOL0     H22053   3.007   5.103   5.296 -2.0927 -1.0259  1.4461
  925MOL0     H22054   3.266   4.852   5.191  0.6013  1.5183 -1.2731
  925MOL0     H22055   3.136   4.943   5.122  1.8241 -2.1063 -2.9191
  925MOL0     H22056   3.107   4.696   5.276 -0.2260  3.8302  1.9296
  925MOL0     H22057   3.104   4.707   5.093  2.9142 -0.5200 -0.1241
  925MOL0     H22058   2.902   4.816   5.292  1.8126 -0.6266  1.0239
  925MOL0     H22059   2.914   4.881   5.125 -2.1261  1.9243  2.5870
  925MOL0     H22060   2.830   4.614   5.242 -0.1111  2.0984  1.0904
  925MOL0     H22061   2.884   4.626   5.062  3.2042  0.2015  1.0451
  925MOL0     H22062   2.698   4.478   5.084 -0.9453 -1.4803 -1.1376
  925MOL0     H22063   2.521   4.359   4.981  3.2862  0.3872  2.4292
  925MOL0     H22064   1.955   4.619   4.888  4.0861 -0.4907  1.4419
  925MOL0     H22065   1.735   4.505   4.815 -0.5962  1.0345  0.1812
  925MOL0     H22066   1.595   4.143   4.822  2.6223 -2.5353  1.9703
  925MOL0     H22067   1.581   4.322   4.834  1.1428  1.6644 -2.3276
  925MOL0     H22068   1.650   4.229   5.048 -0.3443 -1.4537  1.3467
  925MOL0     H22069   1.800   4.306   4.988 -1.2283  0.3121 -1.1825
  925MOL0     H22070   1.855   4.088   4.872  2.5285 -0.6338  0.2353
  925MOL0     H22071   1.739   4.017   4.986  1.1853 -2.7440  0.6211
  925MOL0     H22072   1.947   4.180   5.120  0.9632 -2.0534  1.8978
  925MOL0     H22073   1.870   4.045   5.174 -1.8385 -2.1909 -2.6933
  925MOL0     H22074   2.045   4.040   4.912  1.9423 -3.3383 -1.4283
  925MOL0     H22075   2.037   3.895   5.012  4.7968  0.5474 -1.6723
  925MOL0     H22076   2.153   4.010   5.210  2.8680  0.4740 -0.4144
  925MOL0     H22077   2.145   4.152   5.128 -1.1921 -0.9758 -0.8827
  925MOL0     H22078   2.309   3.899   5.034 -0.4083 -0.2973  0.1477
  925MOL0     H22079   2.301   4.057   4.942  1.4374  0.3940 -0.1670
  925MOL0     H22080   2.389   4.019   5.228 -0.3107 -0.9186 -0.2135
  925MOL0     H22081   2.414   4.161   5.119 -3.8304 -0.6134  1.1005
  925MOL0     H22082   1.952   4.213   4.617 -0.0553 -0.5652 -0.4869
  925MOL0     H22083   2.177   4.360   4.629 -0.6019 -2.1981 -1.4893
  925MOL0     H22084   2.338   4.730   4.870 -0.1596  1.8560  0.8109
  925MOL0     H22085   2.523   4.862   4.990 -5.6482  1.2755  2.2833
  925MOL0     H22086   2.444   5.571   4.910 -3.5295  2.3875  1.3197
  925MOL0     H22087   2.390   5.684   4.695  0.9022 -0.9087 -0.4742
  925MOL0     H22088   2.436   5.873   4.396  3.3597 -1.1097  1.4850
  925MOL0     H22089   2.484   5.891   4.149 -1.0155 -1.8156  1.3855
  925MOL0     H22090   2.397   6.248   3.985 -1.1594 -0.0086 -2.3303
  925MOL0     H22091   2.350   6.082   3.979  1.2866 -2.2903 -1.1026
  925MOL0     H22092   2.471   6.055   3.758  1.4770  0.7947 -3.5441
  925MOL0     H22093   2.380   6.207   3.767 -0.4023 -0.4388  0.0009
  925MOL0     H22094   2.592   6.221   3.650  3.4078 -2.0628 -0.2847
  925MOL0     H22095   2.664   6.148   3.800  0.1241  1.3238  2.0427
  925MOL0     H22096   2.517   6.405   3.781 -0.4074  0.6930 -0.4886
  925MOL0     H22097   2.633   6.363   3.908 -5.5780 -1.7996  1.2278
  925MOL0     H22098   2.862   6.492   3.559 -1.6478 -1.2915 -2.4866
  925MOL0     H22099   2.578   6.312   4.237 -2.6365  0.1235  1.7528
  925MOL0     H22100   2.576   6.258   4.472 -0.3531  0.7311 -0.1699
  926MOL0     O22101   1.146   6.282   0.342  0.0927 -0.6901 -0.5932
  926MOL0     C22102   1.189   6.276   0.224  0.4560 -0.7467  0.0581
  926MOL0     O22103   1.147   6.189   0.129  0.1733 -0.3946 -0.5999
  926MOL0     C22104   1.040   6.101   0.154  0.8124 -0.5343  0.1249
  926MOL0     C22105   1.055   5.964   0.124  0.3985 -0.1397  0.3857
  926MOL0     C22106   0.960   5.864   0.163 -0.5971  0.1676 -0.9666
  926MOL0     C22107   0.852   5.907   0.242 -0.1112 -0.5074 -0.7381
  926MOL0     O22108   0.768   5.838   0.322 -0.0996  1.0685 -0.0880
  926MOL0     C22109   0.809   5.703   0.352 -0.8813 -0.0491 -0.9519
  926MOL0     C22110   0.938   5.689   0.436  1.2520 -0.5524 -0.6118
  926MOL0     C22111   0.910   5.643   0.576 -0.1925  0.3109  0.0327
  926MOL0     C22112   1.033   5.635   0.685  0.4037  0.7007 -0.0465
  926MOL0     C22113   0.996   5.561   0.806 -0.0663 -0.8062  0.3452
  926MOL0     C22114   0.880   5.619   0.894  0.1161 -0.1959  0.7791
  926MOL0     C22115   0.857   5.531   1.019  0.8886  0.2633  0.8366
  926MOL0     C22116   0.830   5.384   0.984  0.3593 -0.5201 -0.2478
  926MOL0     N22117   0.842   5.306   1.107  0.3090  0.1712 -0.8189
  926MOL0     C22118   0.955   5.234   1.152 -0.3342 -0.3434 -0.4260
  926MOL0     C22119   0.915   5.150   1.238 -0.2980  0.7082  0.1716
  926MOL0     C22120   0.981   5.049   1.326 -0.4396 -0.7820 -0.3466
  926MOL0     C22121   1.133   5.040   1.312 -0.0358  0.5625 -0.3632
  926MOL0     C22122   1.180   4.929   1.410  0.0480 -0.1952  1.0686
  926MOL0     C22123   1.334   4.905   1.425 -0.0410  0.4461  0.3382
  926MOL0     O22124   1.347   4.851   1.562 -0.8523  0.4405  0.2557
  926MOL0     C22125   1.414   4.731   1.579 -0.7550  0.6148  0.3209
  926MOL0     C22126   1.352   4.640   1.661 -0.2350  0.6476  0.1906
  926MOL0     C22127   1.422   4.526   1.704  0.0159  0.3457 -0.5039
  926MOL0     C22128   1.552   4.494   1.666 -0.1348  0.5874  0.8477
  926MOL0     C22129   1.609   4.366   1.703  0.4850  0.3215  0.3554
  926MOL0     O22130   1.724   4.321   1.646  0.1059  0.1159  0.0336
  926MOL0     C22131   1.763   4.195   1.678 -0.8396  1.5880  0.1993
  926MOL0     C22132   1.737   4.082   1.596  0.1545 -0.4341 -0.1137
  926MOL0     C22133   1.788   3.949   1.630 -0.2185 -0.1820  0.0223
  926MOL0     C22134   1.864   3.925   1.736 -0.4409  0.2045  1.1193
  926MOL0     O22135   1.917   3.798   1.775 -0.3721  0.5399  1.3408
  926MOL0     C22136   1.832   3.685   1.769 -0.0803  0.2031 -0.5540
  926MOL0     C22137   1.809   3.627   1.904  0.1311 -1.1401  0.0169
  926MOL0     C22138   1.692   3.697   1.970 -0.9939 -0.6582  0.0043
  926MOL0     C22139   1.618   3.608   2.071  1.1633  0.3237  0.1130
  926MOL0     C22140   1.498   3.544   2.008  0.5000 -0.7375 -0.4764
  926MOL0     C22141   1.430   3.461   2.116 -0.0209  0.4773  0.3886
  926MOL0     C22142   1.328   3.548   2.200  0.3750  0.1640 -0.0947
  926MOL0     C22143   1.194   3.477   2.210  0.6631  0.2802 -1.1637
  926MOL0    Cl22144   1.088   3.498   2.052  0.2591 -0.1898 -0.1022
  926MOL0     C22145   1.902   4.040   1.815 -0.4441 -0.0303  0.3447
  926MOL0     C22146   1.851   4.166   1.784 -1.4542 -0.2220 -0.4855
  926MOL0     O22147   1.548   4.311   1.801  0.6810 -0.6270  0.2085
  926MOL0     C22148   1.613   4.582   1.576  0.0633 -0.0993 -0.2960
  926MOL0     C22149   1.549   4.706   1.538  0.4364  0.1662  0.0053
  926MOL0     N22150   0.780   5.158   1.249  0.7466  0.4125 -0.2805
  926MOL0     N22151   0.738   5.255   1.182  1.1813 -0.8499  0.4965
  926MOL0     C22152   0.822   6.043   0.263 -0.6518  0.3613  0.2848
  926MOL0     C22153   0.918   6.141   0.225  0.4499  0.0976  0.1078
  926MOL0     C22154   1.303   6.361   0.194 -0.3241  0.3030  0.5103
  926MOL0     C22155   1.372   6.435   0.291  0.2918  0.5060  0.0932
  926MOL0     C22156   1.492   6.496   0.243 -1.4727  0.5181  0.5789
  926MOL0     C22157   1.533   6.502   0.111  0.6044  0.8381 -0.5005
  926MOL0     O22158   1.650   6.565   0.081  0.4625  0.3262  0.3808
  926MOL0     C22159   1.743   6.523  -0.019 -0.7153 -0.5775  0.1079
  926MOL0     C22160   1.854   6.625   0.017 -0.2833  0.5259 -1.0750
  926MOL0     C22161   1.981   6.617  -0.073 -0.0469  1.0371 -0.8877
  926MOL0     C22162   2.100   6.695  -0.016 -0.3936  0.0323  0.5882
  926MOL0     C22163   2.228   6.684  -0.088 -0.5273 -0.7143 -0.3848
  926MOL0     C22164   2.341   6.688  -0.125 -0.3773 -1.5280 -0.1097
  926MOL0     C22165   1.456   6.433   0.014 -0.0892 -0.6617 -0.2403
  926MOL0     C22166   1.340   6.370   0.057 -1.4324 -0.6870 -0.2564
  926MOL0     H22167   1.141   5.928   0.067  0.5334  1.3750 -0.4202
  926MOL0     H22168   0.979   5.758   0.146 -1.5824  0.0127 -1.1123
  926MOL0     H22169   0.809   5.640   0.262 -3.3050 -2.4012  0.5675
  926MOL0     H22170   0.723   5.665   0.407 -0.1941 -2.6952 -1.5839
  926MOL0     H22171   0.985   5.787   0.444  2.2794 -1.0901  0.1909
  926MOL0     H22172   1.019   5.634   0.387  2.7888 -0.8605  2.1245
  926MOL0     H22173   0.846   5.554   0.569  1.3056 -0.6375 -3.8446
  926MOL0     H22174   0.834   5.711   0.618  1.3816  0.0389  3.6751
  926MOL0     H22175   1.115   5.578   0.640  1.3875  2.1925 -0.2332
  926MOL0     H22176   1.068   5.736   0.709 -1.7654  1.3146  0.6978
  926MOL0     H22177   1.084   5.559   0.870  2.9243  0.4737 -3.3775
  926MOL0     H22178   0.975   5.460   0.769 -0.9124 -0.3341 -0.5015
  926MOL0     H22179   0.785   5.625   0.840  0.7621 -0.4467 -0.4284
  926MOL0     H22180   0.896   5.722   0.927  0.4860 -0.7809  2.5060
  926MOL0     H22181   0.934   5.531   1.098  1.3870 -2.7218  0.4704
  926MOL0     H22182   0.770   5.576   1.067  0.3600 -1.1288  1.2057
  926MOL0     H22183   0.901   5.342   0.912  0.3459 -2.3645  0.7629
  926MOL0     H22184   0.732   5.392   0.937 -0.1275  1.2621  0.9366
  926MOL0     H22185   1.057   5.248   1.115 -0.0274 -1.9815 -0.2944
  926MOL0     H22186   0.940   4.948   1.323  0.1861 -1.0449 -0.1752
  926MOL0     H22187   0.957   5.092   1.423 -0.5362 -2.9583  0.6519
  926MOL0     H22188   1.169   5.135   1.353 -0.7346  0.4693  0.4912
  926MOL0     H22189   1.153   5.024   1.206  1.7465  2.5380 -0.3815
  926MOL0     H22190   1.139   4.953   1.508 -3.9585 -0.4353 -0.3908
  926MOL0     H22191   1.142   4.831   1.382 -0.1801  0.1110  0.2659
  926MOL0     H22192   1.395   4.994   1.408 -0.6435  0.4764 -1.8927
  926MOL0     H22193   1.359   4.839   1.342 -3.7114  0.0456 -0.6433
  926MOL0     H22194   1.253   4.655   1.703 -0.2928  0.2233  0.2037
  926MOL0     H22195   1.368   4.449   1.758  0.7619 -1.4572 -2.2036
  926MOL0     H22196   1.677   4.087   1.505  0.6433 -2.3838 -0.5860
  926MOL0     H22197   1.769   3.859   1.572  0.6573 -0.5166  0.2359
  926MOL0     H22198   1.890   3.608   1.717  1.2917  0.9438 -0.1671
  926MOL0     H22199   1.743   3.693   1.706  0.0199 -2.9835 -1.2585
  926MOL0     H22200   1.899   3.657   1.957 -0.1619 -2.7288  1.5317
  926MOL0     H22201   1.806   3.518   1.888  0.5903 -0.8770 -2.0878
  926MOL0     H22202   1.616   3.745   1.908 -3.1568  0.6007  3.3296
  926MOL0     H22203   1.737   3.784   2.020  2.7407 -1.7964 -1.0200
  926MOL0     H22204   1.680   3.530   2.115  0.4660 -0.2660  0.0787
  926MOL0     H22205   1.574   3.673   2.147  1.7861 -0.2457  0.9777
  926MOL0     H22206   1.533   3.484   1.924  1.4125  1.3179 -1.6214
  926MOL0     H22207   1.429   3.617   1.965 -1.2865  0.4293  3.7885
  926MOL0     H22208   1.502   3.416   2.185  1.3077  0.0708 -1.2039
  926MOL0     H22209   1.376   3.381   2.064 -0.6213 -0.6637  2.6400
  926MOL0     H22210   1.374   3.550   2.299 -0.4261 -0.7689  0.2991
  926MOL0     H22211   1.316   3.642   2.144 -4.0682 -0.2048 -0.1069
  926MOL0     H22212   1.141   3.517   2.298  4.4841  1.4112  0.8937
  926MOL0     H22213   1.205   3.369   2.224 -2.3311 -0.1198 -1.2980
  926MOL0     H22214   1.958   4.019   1.905  1.3509 -1.9992 -1.1053
  926MOL0     H22215   1.875   4.245   1.854 -3.0626  0.3117 -0.4813
  926MOL0     H22216   1.715   4.571   1.542 -0.3289  1.6320 -2.2301
  926MOL0     H22217   1.602   4.771   1.469  0.0671 -2.2088 -2.6975
  926MOL0     H22218   0.741   6.057   0.334 -1.0513 -1.1518  0.1782
  926MOL0     H22219   0.908   6.248   0.239  3.4250  1.6505 -6.0568
  926MOL0     H22220   1.347   6.446   0.396  3.4461 -0.3935  1.0424
  926MOL0     H22221   1.552   6.563   0.304  0.5801  1.1227 -1.9412
  926MOL0     H22222   1.714   6.542  -0.123  0.0645 -1.6956 -0.3334
  926MOL0     H22223   1.770   6.420   0.006  1.4844  0.1664  1.0662
  926MOL0     H22224   1.809   6.723   0.005  1.0191  1.4749  1.2461
  926MOL0     H22225   1.869   6.616   0.125 -0.9066 -0.2037 -1.0437
  926MOL0     H22226   1.959   6.651  -0.175  0.8479  0.0951 -1.4125
  926MOL0     H22227   2.019   6.517  -0.097 -0.3592  1.0388 -1.4106
  926MOL0     H22228   2.069   6.800  -0.019 -1.2921 -0.1655  2.0128
  926MOL0     H22229   2.116   6.687   0.092 -1.0556  0.7422  0.7463
  926MOL0     H22230   2.443   6.691  -0.159 -0.6359  0.2975 -0.8405
  926MOL0     H22231   1.503   6.427  -0.083  0.6904  1.2466 -0.0275
  926MOL0     H22232   1.279   6.326  -0.021  0.2848 -3.0517 -0.3981
  927MOL0     O22233   6.923   5.239   9.565  0.1137  0.5561  0.5295
  927MOL0     C22234   6.995   5.255   9.667  0.1248  0.2636 -0.0312
  927MOL0     O22235   7.134   5.274   9.663  0.6350 -0.1200  0.3696
  927MOL0     C22236   7.191   5.242   9.539  0.0788 -0.2122  0.4718
  927MOL0     C22237   7.189   5.119   9.471 -1.1103  0.3157 -0.0597
  927MOL0     C22238   7.242   5.106   9.338  0.8274  0.2750 -0.6232
  927MOL0     C22239   7.289   5.225   9.278 -0.6253  1.1817  0.9536
  927MOL0     O22240   7.344   5.216   9.153 -0.2602  0.5259  0.1299
  927MOL0     C22241   7.300   5.301   9.046  0.3039  0.2616 -0.5186
  927MOL0     C22242   7.340   5.209   8.921  0.7931  0.1780  0.0733
  927MOL0     C22243   7.253   5.087   8.913  0.8422  0.2922  0.6858
  927MOL0     C22244   7.263   5.012   8.773  0.6624  0.1263 -0.3324
  927MOL0     C22245   7.131   4.940   8.736  0.3839  0.4848 -0.4706
  927MOL0     C22246   7.086   4.838   8.837 -0.0761  0.1733  0.4186
  927MOL0     C22247   7.015   4.730   8.768  0.3949 -0.2201 -0.8693
  927MOL0     C22248   6.875   4.755   8.718  1.1390  0.0916  0.3755
  927MOL0     N22249   6.771   4.810   8.814 -0.3208  0.9764  0.0783
  927MOL0     C22250   6.730   4.941   8.837  0.7088  0.5102 -0.7452
  927MOL0     C22251   6.651   4.925   8.948  0.6527  0.2652 -1.2410
  927MOL0     C22252   6.541   5.018   9.020 -0.7512  1.3059  0.4443
  927MOL0     C22253   6.563   5.037   9.170  1.7835 -0.4331  0.0217
  927MOL0     C22254   6.585   4.911   9.259  0.2757 -0.4736 -0.3583
  927MOL0     C22255   6.578   4.957   9.402  0.0029 -0.0634 -0.0330
  927MOL0     O22256   6.699   4.965   9.462 -0.3613 -0.3240 -0.0329
  927MOL0     C22257   6.706   4.944   9.589 -0.4750  0.3770  0.4324
  927MOL0     C22258   6.603   4.957   9.684 -0.0745  0.2774  0.3027
  927MOL0     C22259   6.628   4.940   9.818  0.0344  0.7029 -0.0247
  927MOL0     C22260   6.755   4.899   9.866  0.5774  0.4202  0.3094
  927MOL0     C22261   6.790   4.900  10.010 -0.3097 -0.3953  0.5634
  927MOL0     O22262   6.922   4.889  10.035  0.8151 -0.3946 -0.7138
  927MOL0     C22263   6.952   4.888  10.172  1.1304 -0.0848  0.5755
  927MOL0     C22264   7.027   4.990  10.235  1.0722 -0.8865 -0.1101
  927MOL0     C22265   7.070   4.971  10.361  0.3286  0.1909  0.6870
  927MOL0     C22266   7.035   4.858  10.435  0.1921  0.0607  0.7706
  927MOL0     O22267   7.063   4.830  10.565 -0.2264  0.3440 -0.6376
  927MOL0     C22268   7.095   4.937  10.663 -0.1052 -0.2520  0.1968
  927MOL0     C22269   7.063   4.895  10.800  0.6293  0.0198 -0.0455
  927MOL0     C22270   6.916   4.880  10.842  0.9077  0.3516 -0.4901
  927MOL0     C22271   6.835   4.772  10.756  0.0815 -0.5020 -0.6378
  927MOL0     C22272   6.688   4.770  10.802  0.4196  0.1974 -1.2210
  927MOL0     C22273   6.660   4.746  10.957 -0.5577 -0.4856  0.0754
  927MOL0     C22274   6.704   4.600  11.012 -0.0797 -0.9084 -0.3498
  927MOL0     C22275   6.680   4.590  11.164 -0.3781 -0.7799 -0.2781
  927MOL0    Cl22276   6.510   4.593  11.193 -0.0825  0.5701  0.3739
  927MOL0     C22277   6.951   4.758  10.376 -0.8175  0.5014 -0.4076
  927MOL0     C22278   6.912   4.777  10.245 -0.1658  0.5160 -0.0622
  927MOL0     O22279   6.705   4.903  10.095 -0.3209  0.3888  0.2758
  927MOL0     C22280   6.857   4.882   9.770  0.0308 -0.4218 -1.3438
  927MOL0     C22281   6.832   4.903   9.638  1.2151 -0.0216  0.6954
  927MOL0     N22282   6.642   4.795   8.989 -0.2626  0.1723  0.2794
  927MOL0     N22283   6.724   4.729   8.917 -0.0453 -0.2683  0.1482
  927MOL0     C22284   7.291   5.345   9.344 -0.2388  0.2756 -1.1447
  927MOL0     C22285   7.240   5.355   9.474 -0.6906  0.0300 -1.0283
  927MOL0     C22286   6.931   5.281   9.802 -0.2457  0.6064  1.5968
  927MOL0     C22287   6.800   5.252   9.825  1.1819 -0.4100 -0.4365
  927MOL0     C22288   6.750   5.261   9.961  0.4058 -0.5105  0.2081
  927MOL0     C22289   6.836   5.296  10.065 -0.1723 -0.9017  0.5212
  927MOL0     O22290   6.800   5.284  10.199 -0.7320 -0.3185  0.0061
  927MOL0     C22291   6.676   5.228  10.241 -0.2204  0.1398  0.1826
  927MOL0     C22292   6.668   5.215  10.398  0.1376  1.0185  0.8190
  927MOL0     C22293   6.545   5.138  10.457 -1.0166 -0.4590  0.0798
  927MOL0     C22294   6.525   5.005  10.386 -0.3046  0.0703 -0.0865
  927MOL0     C22295   6.476   4.898  10.475  0.2131  0.6520 -0.4880
  927MOL0     C22296   6.432   4.816  10.550  0.1001 -0.7094 -0.4576
  927MOL0     C22297   6.966   5.344  10.033  0.0639 -0.3291 -0.3422
  927MOL0     C22298   7.010   5.338   9.903  0.1451 -0.1511 -0.8387
  927MOL0     H22299   7.144   5.034   9.521 -1.3856  0.9415  0.7781
  927MOL0     H22300   7.234   5.013   9.284 -0.0634  0.9114 -1.6193
  927MOL0     H22301   7.367   5.387   9.046  0.4013  0.2149 -1.7435
  927MOL0     H22302   7.194   5.323   9.056  0.1615 -0.4564 -0.3931
  927MOL0     H22303   7.447   5.189   8.937  1.1896  2.5516  0.8011
  927MOL0     H22304   7.336   5.264   8.826 -2.3949 -0.6053 -0.3500
  927MOL0     H22305   7.149   5.114   8.931  1.1823  1.4625  1.0287
  927MOL0     H22306   7.283   5.013   8.988  1.6639 -1.0003 -0.8497
  927MOL0     H22307   7.287   5.089   8.699  0.1507  0.8299  0.2248
  927MOL0     H22308   7.346   4.940   8.778 -1.5932 -2.5503  0.7381
  927MOL0     H22309   7.133   4.900   8.635 -1.6794  0.2272 -0.4349
  927MOL0     H22310   7.059   5.022   8.731 -0.3105 -0.1885 -2.0052
  927MOL0     H22311   7.025   4.892   8.910 -2.2638 -0.1154 -1.0928
  927MOL0     H22312   7.177   4.804   8.889 -1.3118  0.1079  2.6599
  927MOL0     H22313   7.063   4.692   8.677  1.1065 -1.5697  0.0226
  927MOL0     H22314   7.020   4.651   8.844 -0.1322  1.0565  0.5250
  927MOL0     H22315   6.835   4.662   8.677  0.9228  1.5858 -3.2666
  927MOL0     H22316   6.875   4.815   8.626 -1.8769 -1.1595 -0.5499
  927MOL0     H22317   6.738   5.037   8.786  1.3712  0.6978 -0.2933
  927MOL0     H22318   6.448   4.969   8.989 -0.6906  1.3534  0.1828
  927MOL0     H22319   6.551   5.115   8.971 -0.1072 -0.0178 -2.2240
  927MOL0     H22320   6.490   5.098   9.223  0.8982 -2.8318  1.7183
  927MOL0     H22321   6.657   5.092   9.182  3.1795 -3.1015  2.6442
  927MOL0     H22322   6.505   4.839   9.236  0.2105 -0.0013 -1.6722
  927MOL0     H22323   6.683   4.868   9.236  0.6138  0.6705 -1.0855
  927MOL0     H22324   6.531   4.875   9.457  2.6141 -0.1008  2.3402
  927MOL0     H22325   6.521   5.048   9.424 -0.4593 -0.6495  1.2867
  927MOL0     H22326   6.501   4.979   9.653  1.2337  2.2358 -3.1497
  927MOL0     H22327   6.557   4.960   9.897 -1.0276  0.0342 -0.7830
  927MOL0     H22328   7.055   5.077  10.177 -2.6836  1.8379  1.6802
  927MOL0     H22329   7.141   5.036  10.411  2.1907 -0.4469 -0.9942
  927MOL0     H22330   7.034   5.026  10.645  0.3250 -0.1457 -0.8112
  927MOL0     H22331   7.203   4.947  10.661 -0.2321  1.6341  0.9666
  927MOL0     H22332   7.096   4.977  10.864 -2.0881 -2.0091  4.4627
  927MOL0     H22333   7.123   4.809  10.834 -0.0773  0.1438  1.5699
  927MOL0     H22334   6.882   4.980  10.813  1.3990 -0.1389 -2.9682
  927MOL0     H22335   6.902   4.871  10.950 -3.8519  2.4129 -0.6679
  927MOL0     H22336   6.828   4.791  10.648 -1.1996 -0.0390 -0.4883
  927MOL0     H22337   6.865   4.672  10.786 -1.6573 -0.5935  0.9743
  927MOL0     H22338   6.629   4.701  10.741 -0.1905 -0.4501  0.0505
  927MOL0     H22339   6.636   4.863  10.778 -0.0706  1.0611  2.4816
  927MOL0     H22340   6.554   4.770  10.974 -0.2632  1.2415 -0.3011
  927MOL0     H22341   6.708   4.823  11.019 -2.6339  0.7481  0.2585
  927MOL0     H22342   6.644   4.525  10.959 -0.7610 -1.1812  0.7461
  927MOL0     H22343   6.811   4.591  10.995  0.1516  1.7950 -0.6884
  927MOL0     H22344   6.715   4.683  11.210 -1.5406  0.2177 -1.3528
  927MOL0     H22345   6.733   4.507  11.213  3.1312  1.5669  0.2812
  927MOL0     H22346   6.939   4.655  10.407  1.3676  0.1354 -0.6147
  927MOL0     H22347   6.868   4.685  10.207  1.5922 -2.0974  3.5831
  927MOL0     H22348   6.954   4.840   9.791 -0.3834 -1.6138 -1.7334
  927MOL0     H22349   6.901   4.882   9.557  1.8682 -1.3257  1.5454
  927MOL0     H22350   7.330   5.430   9.291  3.8810 -1.6703 -1.6225
  927MOL0     H22351   7.228   5.458   9.507  1.7320  0.2304 -0.6138
  927MOL0     H22352   6.730   5.225   9.745  2.7978  1.4820 -2.6273
  927MOL0     H22353   6.651   5.222   9.985  1.5038 -2.9069  1.1572
  927MOL0     H22354   6.676   5.131  10.189  2.4365  0.9717 -1.6260
  927MOL0     H22355   6.592   5.292  10.215 -2.3592 -2.1547  0.9833
  927MOL0     H22356   6.759   5.164  10.431  1.0090  2.4686  0.7382
  927MOL0     H22357   6.676   5.312  10.448 -0.9459  3.3223 -3.0739
  927MOL0     H22358   6.455   5.199  10.441  0.1820  0.8992 -1.9196
  927MOL0     H22359   6.572   5.125  10.562 -1.2105  1.9818  0.4720
  927MOL0     H22360   6.474   5.013  10.290  1.2228 -0.1720 -0.9649
  927MOL0     H22361   6.624   4.961  10.367  0.2140  0.7303  0.9837
  927MOL0     H22362   6.389   4.760  10.631 -0.5649  1.4497  0.7669
  927MOL0     H22363   7.028   5.380  10.114 -2.8399  1.6958  1.1610
  927MOL0     H22364   7.114   5.367   9.888  1.2319 -1.0276  3.5864
  928MOL0     O22365   7.822  10.426  11.133 -0.1633  0.1078  0.0636
  928MOL0     C22366   7.746  10.506  11.189 -0.1337  0.6045 -1.0083
  928MOL0     O22367   7.628  10.566  11.133  0.0282 -0.1347  0.3400
  928MOL0     C22368   7.577  10.517  11.015 -0.0536  0.8978  0.3784
  928MOL0     C22369   7.551  10.601  10.909  0.3704 -0.7401 -0.7274
  928MOL0     C22370   7.507  10.564  10.784 -0.2449  0.6428 -0.5091
  928MOL0     C22371   7.476  10.425  10.772 -0.7972  0.2427  0.1062
  928MOL0     O22372   7.409  10.389  10.656 -0.4614 -0.3528  0.0974
  928MOL0     C22373   7.504  10.381  10.537 -0.5388 -1.1696 -0.1912
  928MOL0     C22374   7.442  10.362  10.402  0.1446  0.0344  0.1995
  928MOL0     C22375   7.548  10.394  10.284 -0.5767 -0.6161  0.2823
  928MOL0     C22376   7.468  10.455  10.163  0.3544 -0.4907 -0.1843
  928MOL0     C22377   7.544  10.517  10.050 -0.2634  0.0928  0.1538
  928MOL0     C22378   7.640  10.425   9.972 -0.4773  0.7346  0.1420
  928MOL0     C22379   7.602  10.368   9.838 -0.7114  0.1452  0.1708
  928MOL0     C22380   7.455  10.326   9.829 -0.5399  0.5155  0.3353
  928MOL0     N22381   7.414  10.219   9.734 -0.8228  0.8880 -0.6587
  928MOL0     C22382   7.436  10.080   9.756 -0.7845 -0.3720  0.8167
  928MOL0     C22383   7.361  10.023   9.661  0.1629 -0.5630 -0.7586
  928MOL0     C22384   7.360   9.873   9.620 -0.8416  0.0561  0.6558
  928MOL0     C22385   7.371   9.827   9.475 -1.7479  0.1665  0.8896
  928MOL0     C22386   7.272   9.897   9.375  0.2745  0.1917  0.5151
  928MOL0     C22387   7.123   9.897   9.422  0.4180  0.9343  0.2046
  928MOL0     O22388   7.064   9.771   9.394 -0.0865  1.2188  0.3872
  928MOL0     C22389   6.937   9.750   9.434 -0.2167  0.3316  0.6633
  928MOL0     C22390   6.830   9.825   9.389 -0.1221 -0.9907  0.2265
  928MOL0     C22391   6.701   9.796   9.423 -0.0430 -0.3455  0.7579
  928MOL0     C22392   6.674   9.689   9.503  0.0349  0.3687  0.8804
  928MOL0     C22393   6.531   9.665   9.549 -1.1260 -0.3916  0.3856
  928MOL0     O22394   6.430   9.722   9.486  0.0493  0.1411  0.0381
  928MOL0     C22395   6.294   9.689   9.530  0.3847  0.4592 -0.5799
  928MOL0     C22396   6.240   9.699   9.660 -0.5082 -0.0235  0.0207
  928MOL0     C22397   6.119   9.644   9.696  0.7024  0.3280 -0.2130
  928MOL0     C22398   6.039   9.569   9.607  0.0582 -0.6392  0.1772
  928MOL0     O22399   5.924   9.522   9.653 -0.3174 -0.2523 -0.3265
  928MOL0     C22400   5.821   9.462   9.563  0.0481  0.6593 -0.2088
  928MOL0     C22401   5.733   9.384   9.661 -0.2510 -0.4305 -0.7980
  928MOL0     C22402   5.617   9.314   9.575 -0.2862 -0.4736 -0.3852
  928MOL0     C22403   5.512   9.240   9.666 -0.9493 -0.7120 -0.2922
  928MOL0     C22404   5.394   9.177   9.597 -0.9142  0.5465  0.1295
  928MOL0     C22405   5.303   9.269   9.525  0.4112  0.7168  0.3847
  928MOL0     C22406   5.215   9.174   9.433  1.1871 -0.0344  0.8236
  928MOL0     C22407   5.093   9.251   9.376  0.4609 -0.5151  0.0703
  928MOL0    Cl22408   5.149   9.368   9.261  0.2737  0.3473 -0.0153
  928MOL0     C22409   6.093   9.542   9.484 -0.7173  0.6071  0.4238
  928MOL0     C22410   6.217   9.611   9.445  0.1260  0.1077  1.2770
  928MOL0     O22411   6.523   9.590   9.648 -0.1031 -0.1675 -1.0075
  928MOL0     C22412   6.778   9.612   9.566  0.9133  0.2275  0.2365
  928MOL0     C22413   6.904   9.635   9.518 -0.2586  0.1892  0.3318
  928MOL0     N22414   7.299  10.124   9.590  0.1723 -0.0646  0.4716
  928MOL0     N22415   7.319  10.236   9.648  0.4205 -0.4024  0.3230
  928MOL0     C22416   7.503  10.337  10.871 -0.6013 -1.3425 -0.2489
  928MOL0     C22417   7.549  10.386  10.994  1.7517 -0.0116  0.5783
  928MOL0     C22418   7.781  10.522  11.326  0.3171 -0.2278 -0.7253
  928MOL0     C22419   7.689  10.607  11.405 -0.0566  0.3195  0.4061
  928MOL0     C22420   7.722  10.639  11.533 -0.2466 -0.4191  0.2082
  928MOL0     C22421   7.837  10.590  11.592  0.8662 -0.2999 -0.1181
  928MOL0     O22422   7.883  10.632  11.712  0.2934  0.1141  0.3239
  928MOL0     C22423   7.793  10.655  11.825 -0.3087  0.1106  0.2308
  928MOL0     C22424   7.743  10.527  11.871 -0.0628  0.9557 -0.5090
  928MOL0     C22425   7.656  10.542  12.006  0.5393 -0.1582 -0.5951
  928MOL0     C22426   7.531  10.443  12.017 -0.5432 -1.3399 -0.0645
  928MOL0     C22427   7.446  10.476  12.136  0.4640 -1.2200  0.3845
  928MOL0     C22428   7.372  10.496  12.230  0.1201 -0.6762  0.2849
  928MOL0     C22429   7.920  10.508  11.517 -0.1102  0.5148  0.1697
  928MOL0     C22430   7.898  10.474  11.391 -0.3230 -0.8072 -0.7261
  928MOL0     H22431   7.587  10.703  10.920  2.1110 -1.3816  0.0173
  928MOL0     H22432   7.490  10.632  10.701 -1.3217 -0.5920 -1.3509
  928MOL0     H22433   7.583  10.308  10.556  1.8989  1.2450 -0.4640
  928MOL0     H22434   7.555  10.478  10.535 -2.1553 -0.1229  2.9865
  928MOL0     H22435   7.354  10.425  10.394  0.0582  0.1064  1.4871
  928MOL0     H22436   7.411  10.258  10.391  0.3108 -0.0816  0.8010
  928MOL0     H22437   7.608  10.305  10.264  1.3132  1.0435 -1.9743
  928MOL0     H22438   7.630  10.458  10.318  1.7091 -3.0805 -0.2598
  928MOL0     H22439   7.393  10.384  10.129 -2.7659  2.3520  0.2989
  928MOL0     H22440   7.416  10.538  10.211  2.5571  2.9481 -3.1678
  928MOL0     H22441   7.600  10.598  10.099 -0.2432 -0.3611  0.8987
  928MOL0     H22442   7.474  10.553   9.975  1.1185 -0.7963 -1.6416
  928MOL0     H22443   7.659  10.342  10.041 -0.6896  0.1515 -0.4940
  928MOL0     H22444   7.740  10.468   9.955  0.6240 -2.8191 -4.2030
  928MOL0     H22445   7.620  10.446   9.764 -1.5511  1.4939  1.3478
  928MOL0     H22446   7.660  10.276   9.825  0.0369  0.5990  0.2215
  928MOL0     H22447   7.390  10.413   9.823 -2.0132 -0.6375 -1.9890
  928MOL0     H22448   7.428  10.284   9.926 -1.5913 -2.4096 -1.0804
  928MOL0     H22449   7.494  10.023   9.828 -0.4592 -2.1495 -0.7872
  928MOL0     H22450   7.274   9.812   9.649  1.5142 -5.2660 -2.1499
  928MOL0     H22451   7.449   9.836   9.671 -1.9627  0.0397  2.7358
  928MOL0     H22452   7.342   9.722   9.467 -1.0341 -0.0564  1.1927
  928MOL0     H22453   7.470   9.846   9.432 -2.2736  1.1855  0.1067
  928MOL0     H22454   7.309   9.996   9.348  1.0450 -0.6430 -1.6809
  928MOL0     H22455   7.282   9.835   9.286  2.1985 -1.5427  1.8490
  928MOL0     H22456   7.066   9.965   9.359 -1.2022 -0.1472  0.4349
  928MOL0     H22457   7.116   9.919   9.529 -0.3130  0.0194  0.3565
  928MOL0     H22458   6.847   9.906   9.319  0.8868 -2.9453 -1.9163
  928MOL0     H22459   6.631   9.862   9.371 -1.0840 -0.4031  2.0418
  928MOL0     H22460   6.300   9.766   9.720  2.6671 -0.7844 -2.0071
  928MOL0     H22461   6.087   9.666   9.798  1.2153 -0.1554  0.0561
  928MOL0     H22462   5.864   9.384   9.500 -0.8687  0.6664 -0.8744
  928MOL0     H22463   5.774   9.544   9.507  1.6994  1.2577 -0.7695
  928MOL0     H22464   5.687   9.453   9.733  1.4695 -0.4357  0.3598
  928MOL0     H22465   5.792   9.315   9.721  1.3806 -0.4022 -2.3163
  928MOL0     H22466   5.674   9.239   9.519 -2.0323 -0.5102 -2.2361
  928MOL0     H22467   5.563   9.378   9.505 -3.6633 -1.9289  0.6819
  928MOL0     H22468   5.566   9.166   9.726  1.1548 -0.3992 -1.7055
  928MOL0     H22469   5.475   9.306   9.746  0.5650 -1.6082  1.2187
  928MOL0     H22470   5.338   9.116   9.669  2.1188 -3.2443 -0.3853
  928MOL0     H22471   5.435   9.107   9.524 -3.6561 -0.8711 -0.1844
  928MOL0     H22472   5.360   9.331   9.455 -3.2873  1.7826 -1.9329
  928MOL0     H22473   5.246   9.337   9.588 -0.4343  1.8100 -1.4741
  928MOL0     H22474   5.279   9.154   9.346  1.5481  0.5941  0.9418
  928MOL0     H22475   5.190   9.072   9.466  2.6092 -0.4604  0.6553
  928MOL0     H22476   5.024   9.293   9.449 -0.4720  2.3226 -2.2548
  928MOL0     H22477   5.021   9.188   9.323 -0.7406  0.1807  0.8188
  928MOL0     H22478   6.045   9.481   9.408  1.1948 -0.3492 -0.0580
  928MOL0     H22479   6.257   9.604   9.344  1.1789  2.2585  1.5003
  928MOL0     H22480   6.774   9.525   9.631 -0.4943  0.5175  0.5858
  928MOL0     H22481   6.984   9.572   9.554 -1.1495 -2.9603 -2.6370
  928MOL0     H22482   7.480  10.232  10.857  0.5853 -1.6925  0.2369
  928MOL0     H22483   7.542  10.305  11.066  0.1564  0.3461  0.8610
  928MOL0     H22484   7.609  10.652  11.347  1.4227  0.9122 -1.2783
  928MOL0     H22485   7.657  10.708  11.587  3.8477  5.7600 -1.6278
  928MOL0     H22486   7.716  10.722  11.786 -1.3898 -2.1967 -1.9111
  928MOL0     H22487   7.850  10.699  11.907  2.7050 -3.8983  0.5889
  928MOL0     H22488   7.680  10.481  11.795 -1.3921  2.1338 -0.1561
  928MOL0     H22489   7.830  10.463  11.892 -1.5953 -0.5559  1.5499
  928MOL0     H22490   7.611  10.641  12.004  0.2714 -0.2145  1.0485
  928MOL0     H22491   7.719  10.545  12.096  0.1133  1.6282 -0.3330
  928MOL0     H22492   7.468  10.468  11.931  2.9177  2.8000 -1.7576
  928MOL0     H22493   7.553  10.336  12.008 -1.0563 -1.3896 -0.7780
  928MOL0     H22494   7.314  10.525  12.315 -1.0397  1.3852 -1.0978
  928MOL0     H22495   8.015  10.476  11.558  0.1727 -1.8369 -2.0430
  928MOL0     H22496   7.962  10.412  11.328 -1.1822  0.3044 -2.7990
  929MOL0     O22497   5.813   9.133   9.206 -0.1724  0.4594  0.0101
  929MOL0     C22498   5.929   9.116   9.193 -0.7195  0.1928 -0.1662
  929MOL0     O22499   6.005   9.052   9.294  0.3654 -0.4301  0.4766
  929MOL0     C22500   5.942   8.992   9.404  0.4409  0.0359 -0.8397
  929MOL0     C22501   6.010   9.023   9.517 -0.5875  0.4205  0.6126
  929MOL0     C22502   5.951   8.979   9.643 -0.4811  0.1865  0.0279
  929MOL0     C22503   5.837   8.899   9.641  1.1956  0.3471  0.1814
  929MOL0     O22504   5.799   8.853   9.767  0.1079 -0.2284  0.1461
  929MOL0     C22505   5.658   8.798   9.781 -0.1626 -0.6615 -0.1281
  929MOL0     C22506   5.654   8.699   9.895 -0.4767 -0.1317  1.3698
  929MOL0     C22507   5.508   8.667   9.940 -0.6185  0.7983 -0.6489
  929MOL0     C22508   5.512   8.558  10.049  0.2842 -0.3660 -0.2624
  929MOL0     C22509   5.371   8.513  10.096  0.0374 -1.6244  0.3069
  929MOL0     C22510   5.368   8.477  10.247  0.0759 -0.1433 -0.6044
  929MOL0     C22511   5.227   8.481  10.297 -0.2643  0.7774 -0.2188
  929MOL0     C22512   5.160   8.335  10.310 -0.0885  0.2349  0.2927
  929MOL0     N22513   5.013   8.334  10.305  0.6173  0.3444  1.5176
  929MOL0     C22514   4.930   8.373  10.213 -0.2974 -0.4113  0.1040
  929MOL0     C22515   4.808   8.324  10.251  0.3475 -0.6170  0.6978
  929MOL0     C22516   4.682   8.345  10.171 -1.0183  1.9738 -0.4534
  929MOL0     C22517   4.545   8.315  10.238 -0.5018  0.0171 -0.3407
  929MOL0     C22518   4.435   8.350  10.141 -0.3964 -0.2268  1.1249
  929MOL0     C22519   4.401   8.224  10.044  0.7672 -1.4874 -0.3918
  929MOL0     O22520   4.368   8.105  10.118 -0.8884  0.0040 -0.1651
  929MOL0     C22521   4.266   8.102  10.204  0.7539 -0.1589 -0.5232
  929MOL0     C22522   4.146   8.187  10.216 -0.8374  0.2016 -0.9526
  929MOL0     C22523   4.036   8.170  10.301 -0.1589 -0.6457 -0.8527
  929MOL0     C22524   4.038   8.051  10.372  1.4208  0.5576 -0.2863
  929MOL0     C22525   3.938   8.028  10.481 -0.7809  0.5551 -0.1130
  929MOL0     O22526   3.946   7.912  10.548 -0.0141 -0.2427  0.3817
  929MOL0     C22527   3.835   7.875  10.631 -1.0670  0.0222 -0.4864
  929MOL0     C22528   3.866   7.808  10.759  0.3562  0.5123  0.1959
  929MOL0     C22529   3.756   7.777  10.850 -0.4966  0.3070  0.4869
  929MOL0     C22530   3.628   7.812  10.815  0.1346 -0.1166  0.5586
  929MOL0     O22531   3.520   7.755  10.892  0.4574  0.1830 -0.4264
  929MOL0     C22532   3.403   7.843  10.917 -1.1514  0.0262  0.2761
  929MOL0     C22533   3.300   7.782  11.008 -0.0073 -0.4065 -0.8275
  929MOL0     C22534   3.182   7.877  11.039  0.8597  0.6523 -0.2629
  929MOL0     C22535   3.059   7.813  11.100  0.7530 -0.3503 -0.0866
  929MOL0     C22536   2.971   7.733  11.007 -0.0136 -0.1657 -0.3218
  929MOL0     C22537   2.830   7.714  11.056  0.5895 -0.9008 -0.8828
  929MOL0     C22538   2.750   7.626  10.963 -0.2716  0.8007 -0.1153
  929MOL0     C22539   2.616   7.587  11.037 -0.4155 -0.8046  0.9736
  929MOL0    Cl22540   2.665   7.474  11.173  0.7440  0.1718 -0.2762
  929MOL0     C22541   3.602   7.869  10.693  0.0433  0.1528 -0.0325
  929MOL0     C22542   3.695   7.902  10.604 -0.1089 -0.8246  0.3792
  929MOL0     O22543   3.864   8.122  10.512 -0.7663 -0.1327 -0.1165
  929MOL0     C22544   4.148   7.966  10.365 -1.2534  0.6256  0.2069
  929MOL0     C22545   4.262   7.995  10.292 -0.4789 -0.0554 -0.3072
  929MOL0     N22546   4.822   8.250  10.366  0.4004 -0.1010 -0.4352
  929MOL0     N22547   4.940   8.264  10.398 -0.1508  0.8940  1.0556
  929MOL0     C22548   5.790   8.863   9.517  0.3628 -0.6264 -0.4472
  929MOL0     C22549   5.827   8.916   9.399 -0.3338 -0.2976 -0.0826
  929MOL0     C22550   5.990   9.120   9.051 -0.6017 -0.3228 -0.5826
  929MOL0     C22551   6.120   9.080   9.024  0.2758  0.2761 -0.2022
  929MOL0     C22552   6.161   9.066   8.884  0.0530  0.8250 -0.2584
  929MOL0     C22553   6.080   9.111   8.780  0.5788 -0.8696 -0.2207
  929MOL0     O22554   6.128   9.092   8.660  0.0099 -0.4621  0.0486
  929MOL0     C22555   6.133   8.958   8.626  0.4100 -0.5485  0.3315
  929MOL0     C22556   6.004   8.917   8.543  0.3820  0.2190  0.4916
  929MOL0     C22557   5.965   9.017   8.429  0.7769  0.2638 -0.7299
  929MOL0     C22558   5.816   9.031   8.404  0.8235 -0.0139 -0.4042
  929MOL0     C22559   5.731   9.052   8.519  0.0986  0.4956 -0.3666
  929MOL0     C22560   5.666   9.071   8.617  0.1837 -0.4267 -0.3413
  929MOL0     C22561   5.963   9.168   8.818  0.3200 -0.1331  0.1448
  929MOL0     C22562   5.927   9.187   8.950  0.4134  0.5027  0.8428
  929MOL0     H22563   6.104   9.076   9.509 -1.3032  1.7739  0.7928
  929MOL0     H22564   6.008   9.011   9.730  1.4406  2.7508 -1.9902
  929MOL0     H22565   5.630   8.745   9.690 -1.0524 -1.3547  0.5330
  929MOL0     H22566   5.588   8.878   9.803  0.8086  0.8721 -2.3065
  929MOL0     H22567   5.711   8.749   9.974  4.8007 -2.0786 -0.6801
  929MOL0     H22568   5.714   8.608   9.879  1.5666  1.1399  1.4238
  929MOL0     H22569   5.454   8.626   9.854  2.8433 -1.9860 -1.7176
  929MOL0     H22570   5.449   8.752   9.976 -2.9989 -0.6000 -1.0461
  929MOL0     H22571   5.576   8.469  10.037 -0.0976 -0.7210  0.2537
  929MOL0     H22572   5.559   8.604  10.136  0.9204  0.7240 -1.1601
  929MOL0     H22573   5.329   8.427  10.042 -0.7487  0.7253 -3.1696
  929MOL0     H22574   5.308   8.602  10.091  1.4837 -0.5312  0.9376
  929MOL0     H22575   5.417   8.555  10.306  0.6024 -0.1789 -0.9877
  929MOL0     H22576   5.423   8.383  10.259 -0.3024 -0.8143 -3.2840
  929MOL0     H22577   5.224   8.510  10.402 -2.9768 -0.7246  0.1926
  929MOL0     H22578   5.169   8.553  10.238 -0.9839  1.7298  1.5791
  929MOL0     H22579   5.196   8.302  10.408 -3.6901  0.3052  1.7864
  929MOL0     H22580   5.190   8.253  10.244 -4.8902 -0.7119 -1.0831
  929MOL0     H22581   4.957   8.427  10.123  2.4068  0.3339  1.2775
  929MOL0     H22582   4.695   8.281  10.084 -1.4628  1.8272 -0.4155
  929MOL0     H22583   4.685   8.450  10.141  1.3617  2.4090  1.0615
  929MOL0     H22584   4.531   8.387  10.319 -1.0131 -0.3953 -0.0576
  929MOL0     H22585   4.534   8.214  10.279 -1.6158  1.0339  2.0495
  929MOL0     H22586   4.345   8.369  10.200 -0.3984  1.4551  0.6038
  929MOL0     H22587   4.453   8.443  10.088 -0.3318 -0.8861 -0.0387
  929MOL0     H22588   4.480   8.200   9.972 -1.8061 -4.3043 -2.5061
  929MOL0     H22589   4.308   8.257   9.997  0.8330 -1.4176 -0.4723
  929MOL0     H22590   4.154   8.275  10.153 -0.1030  0.2916 -0.7335
  929MOL0     H22591   3.961   8.248  10.309  1.2563  0.7283 -0.5998
  929MOL0     H22592   3.965   7.773  10.788  0.0336 -0.3662  0.2795
  929MOL0     H22593   3.769   7.706  10.931  1.1917 -0.2652 -0.2472
  929MOL0     H22594   3.366   7.860  10.816  0.5929 -0.0119 -0.4042
  929MOL0     H22595   3.440   7.935  10.964 -1.6116  0.9266 -1.0517
  929MOL0     H22596   3.342   7.732  11.096 -4.5437  1.2186  2.6740
  929MOL0     H22597   3.252   7.700  10.954 -1.4133  0.2959 -0.6922
  929MOL0     H22598   3.148   7.916  10.942 -3.2543  0.1589  0.7989
  929MOL0     H22599   3.200   7.972  11.091 -1.3408  1.0424 -0.1173
  929MOL0     H22600   3.106   7.753  11.179  1.7049 -0.5452 -0.7773
  929MOL0     H22601   3.005   7.897  11.145  0.8205 -1.1077  1.4786
  929MOL0     H22602   3.008   7.632  10.985 -1.3809 -1.1496  1.6385
  929MOL0     H22603   2.951   7.791  10.916 -3.1731 -3.1276 -1.7173
  929MOL0     H22604   2.783   7.813  11.062  0.5487 -0.9945  0.8256
  929MOL0     H22605   2.832   7.667  11.155 -2.2485 -0.7156 -0.6372
  929MOL0     H22606   2.729   7.689  10.877  2.5118  1.5695 -0.3254
  929MOL0     H22607   2.804   7.542  10.919 -1.6224  1.1941 -2.6884
  929MOL0     H22608   2.557   7.535  10.961 -0.9760 -2.0234  2.2144
  929MOL0     H22609   2.569   7.672  11.088  1.6941  0.9600  0.1494
  929MOL0     H22610   3.497   7.894  10.675  0.3880  1.6449 -0.1414
  929MOL0     H22611   3.663   7.960  10.518  2.8180 -0.1479 -0.3603
  929MOL0     H22612   4.165   7.872  10.416 -2.1229 -0.4893 -1.4357
  929MOL0     H22613   4.333   7.914  10.305 -1.3217 -0.7432  0.0444
  929MOL0     H22614   5.711   8.790   9.501  2.0918 -2.0923 -3.0605
  929MOL0     H22615   5.780   8.885   9.306 -0.6150 -0.8481  0.2438
  929MOL0     H22616   6.187   9.042   9.100  0.5880  2.5862  0.7399
  929MOL0     H22617   6.264   9.034   8.870  0.3590  0.4528  2.3196
  929MOL0     H22618   6.159   8.899   8.714 -0.8864 -0.7525  0.5976
  929MOL0     H22619   6.219   8.942   8.560  0.0243 -0.3626 -0.2228
  929MOL0     H22620   6.025   8.822   8.492 -3.4156  0.2343 -1.4162
  929MOL0     H22621   5.924   8.903   8.617  0.5711 -0.4819  0.5705
  929MOL0     H22622   6.016   8.989   8.336  0.8795  0.0788 -0.6178
  929MOL0     H22623   6.003   9.117   8.452  1.4438 -0.0843 -0.2713
  929MOL0     H22624   5.801   9.109   8.328  3.6079 -2.5535 -3.9220
  929MOL0     H22625   5.777   8.945   8.349  0.0344  0.1661 -0.1482
  929MOL0     H22626   5.601   9.093   8.699 -1.4558  0.2899 -1.7539
  929MOL0     H22627   5.898   9.208   8.741 -0.8767 -0.5143  0.9218
  929MOL0     H22628   5.832   9.237   8.962  0.4912  1.2757 -1.2607
  930MOL0     O22629   8.405   0.066   7.750  0.4334 -0.5990 -0.3518
  930MOL0     C22630   8.447  -0.016   7.670  1.2324  1.2915  0.1772
  930MOL0     O22631   8.430  -0.149   7.682  0.2331 -0.1917  0.2516
  930MOL0     C22632   8.333  -0.202   7.753  0.3599 -0.4518  0.0846
  930MOL0     C22633   8.205  -0.153   7.742  0.3412 -0.7439 -0.6452
  930MOL0     C22634   8.112  -0.192   7.830  0.2089  0.2595 -0.2279
  930MOL0     C22635   8.140  -0.286   7.933 -0.1313  0.6044  0.3706
  930MOL0     O22636   8.037  -0.336   8.003  0.4984 -0.1416  0.0456
  930MOL0     C22637   7.941  -0.407   7.926  0.2903 -0.2051 -0.6687
  930MOL0     C22638   7.808  -0.415   7.998  0.6383  0.4637 -0.5862
  930MOL0     C22639   7.749  -0.279   8.024 -0.8537  0.0229  0.1769
  930MOL0     C22640   7.598  -0.267   8.059  0.1557  0.1239 -0.1512
  930MOL0     C22641   7.497  -0.318   7.953 -0.2607 -0.8683  0.1314
  930MOL0     C22642   7.466  -0.229   7.835  0.6030  0.2324  0.1954
  930MOL0     C22643   7.422  -0.090   7.871 -0.2160  0.1673 -0.3834
  930MOL0     C22644   7.285  -0.092   7.935  0.7186  0.9331  0.1529
  930MOL0     N22645   7.202   0.023   7.900 -0.2922 -0.1431  0.0408
  930MOL0     C22646   7.172   0.069   7.775  0.3594  0.7974  0.6448
  930MOL0     C22647   7.076   0.163   7.793  0.5307  0.9947  0.6995
  930MOL0     C22648   7.014   0.246   7.688  0.4531  0.1571 -0.3796
  930MOL0     C22649   7.103   0.360   7.645  0.3679 -0.0031  0.8506
  930MOL0     C22650   7.052   0.443   7.519 -0.3377  0.4293 -0.2617
  930MOL0     C22651   7.017   0.351   7.397  0.0528  0.1340  0.0251
  930MOL0     O22652   7.026   0.441   7.292 -0.1847 -0.1378 -0.5111
  930MOL0     C22653   7.080   0.386   7.177  0.1820  0.2682 -0.4107
  930MOL0     C22654   7.002   0.383   7.067  0.0042  0.1769  1.3960
  930MOL0     C22655   7.054   0.335   6.943 -0.5125  0.1936 -0.7829
  930MOL0     C22656   7.190   0.278   6.944 -0.1716 -0.4051 -0.2393
  930MOL0     C22657   7.253   0.228   6.823 -0.0408  0.5047 -0.1859
  930MOL0     O22658   7.357   0.150   6.842 -0.5926 -0.0357  0.5843
  930MOL0     C22659   7.451   0.128   6.734 -0.2999  0.6883 -0.0111
  930MOL0     C22660   7.517   0.002   6.740 -0.4931 -0.2795 -0.0926
  930MOL0     C22661   7.607  -0.033   6.640  0.2494 -0.2677  1.1192
  930MOL0     C22662   7.645   0.059   6.544  0.4863 -0.1080  0.2084
  930MOL0     O22663   7.739   0.018   6.445 -0.5322  0.2662 -0.5792
  930MOL0     C22664   7.745   0.096   6.326  1.1375 -0.8506 -0.4473
  930MOL0     C22665   7.804   0.013   6.212 -1.4072  0.4058 -1.0077
  930MOL0     C22666   7.956  -0.018   6.236 -1.1295  0.8301  0.0080
  930MOL0     C22667   8.055   0.104   6.244  0.0621 -0.1283  1.2094
  930MOL0     C22668   8.199   0.057   6.274  0.5283 -0.8539  0.5568
  930MOL0     C22669   8.280   0.051   6.140  0.4588  0.1107 -0.6342
  930MOL0     C22670   8.419  -0.002   6.173 -0.0798 -0.0470  0.3435
  930MOL0     C22671   8.516  -0.006   6.054 -0.0230 -0.4201 -0.4633
  930MOL0    Cl22672   8.587   0.138   5.994 -0.5965  0.1789 -0.3644
  930MOL0     C22673   7.579   0.187   6.540 -0.4585  0.1453 -0.1485
  930MOL0     C22674   7.480   0.216   6.635  0.0874 -0.6758  0.6463
  930MOL0     O22675   7.195   0.263   6.713 -0.8340  0.8942  0.3318
  930MOL0     C22676   7.258   0.264   7.060  0.7707 -0.1703  0.8720
  930MOL0     C22677   7.201   0.324   7.173 -1.5047 -0.1847 -0.1576
  930MOL0     N22678   7.061   0.189   7.933  0.1218  0.8205 -0.1873
  930MOL0     N22679   7.137   0.101   7.988  0.7769  0.5475 -0.5387
  930MOL0     C22680   8.260  -0.350   7.933 -0.0370  0.3162 -0.0184
  930MOL0     C22681   8.359  -0.304   7.849  0.4470 -0.1098 -1.1441
  930MOL0     C22682   8.525   0.018   7.549 -0.3191  0.2730  0.4030
  930MOL0     C22683   8.515   0.152   7.498  0.0368 -0.2195 -0.2618
  930MOL0     C22684   8.597   0.192   7.388 -0.7164 -0.2070 -0.2627
  930MOL0     C22685   8.686   0.095   7.326  0.8193  0.5857 -0.6252
  930MOL0     O22686   8.743   0.129   7.212  0.4350  0.5070 -0.5464
  930MOL0     C22687   8.726   0.017   7.119 -0.6878  0.1789 -0.1159
  930MOL0     C22688   8.585  -0.039   7.088 -0.6484 -0.0733  0.1280
  930MOL0     C22689   8.571  -0.036   6.932 -0.3172  0.7237 -0.2508
  930MOL0     C22690   8.431  -0.058   6.877 -0.0428 -0.0942  0.4234
  930MOL0     C22691   8.369  -0.184   6.914 -0.2799  0.1975 -1.1036
  930MOL0     C22692   8.317  -0.291   6.935  0.2897 -0.3582 -0.6653
  930MOL0     C22693   8.698  -0.026   7.392 -0.0715  0.4762  0.2926
  930MOL0     C22694   8.616  -0.075   7.490  0.3835 -0.0956  0.5494
  930MOL0     H22695   8.187  -0.077   7.667 -0.5444 -0.8153 -0.5248
  930MOL0     H22696   8.014  -0.145   7.829 -1.3397 -2.7453 -0.5933
  930MOL0     H22697   7.977  -0.505   7.893 -0.4773 -0.6945 -0.0685
  930MOL0     H22698   7.914  -0.355   7.833 -1.0327  2.3256  1.0285
  930MOL0     H22699   7.829  -0.459   8.096 -0.2053  2.2840  0.4754
  930MOL0     H22700   7.742  -0.488   7.951 -0.5830  0.5571  0.8894
  930MOL0     H22701   7.778  -0.209   7.945 -2.3343  0.2569 -0.1914
  930MOL0     H22702   7.798  -0.235   8.112  0.4165  2.9143 -1.8134
  930MOL0     H22703   7.571  -0.329   8.145 -4.0180  1.7355 -0.0557
  930MOL0     H22704   7.584  -0.165   8.098  0.9597 -0.4548  1.7492
  930MOL0     H22705   7.403  -0.318   8.008 -0.8942  3.0425 -0.6433
  930MOL0     H22706   7.520  -0.423   7.930  2.4098 -1.1553  3.3865
  930MOL0     H22707   7.393  -0.274   7.768  0.1075 -2.4665  2.3759
  930MOL0     H22708   7.551  -0.217   7.766  1.2274 -2.1434  0.4402
  930MOL0     H22709   7.496  -0.042   7.936  0.0517  3.6050 -2.9290
  930MOL0     H22710   7.431  -0.017   7.790  2.4323  0.0504 -0.2905
  930MOL0     H22711   7.289  -0.115   8.042  0.2905  2.2034  0.4567
  930MOL0     H22712   7.230  -0.179   7.898  1.7550 -0.6127  2.0229
  930MOL0     H22713   7.216   0.041   7.680  1.3489 -1.1258  1.6050
  930MOL0     H22714   6.919   0.280   7.729 -0.0046 -2.2611  0.7057
  930MOL0     H22715   6.999   0.172   7.608 -1.6139 -0.8511  0.8802
  930MOL0     H22716   7.203   0.325   7.619  0.4728 -0.1046  1.3741
  930MOL0     H22717   7.116   0.430   7.728  0.5941  2.0068 -0.8052
  930MOL0     H22718   6.959   0.489   7.553 -0.7950  1.1647 -2.3766
  930MOL0     H22719   7.121   0.522   7.491  0.1132  1.9204  4.2628
  930MOL0     H22720   6.913   0.321   7.412 -1.1060  2.9722 -1.5814
  930MOL0     H22721   7.087   0.269   7.384  0.4210  0.2672  1.0427
  930MOL0     H22722   6.906   0.434   7.073  0.6946  1.6085  0.8184
  930MOL0     H22723   6.994   0.345   6.853 -2.3176 -0.8038  0.2445
  930MOL0     H22724   7.488  -0.061   6.823 -2.4825  2.5691  1.5594
  930MOL0     H22725   7.643  -0.136   6.642  1.3167 -0.0598 -1.9429
  930MOL0     H22726   7.795   0.191   6.341 -1.0228  0.7959 -2.7173
  930MOL0     H22727   7.641   0.117   6.297  1.6183 -0.1894 -1.7700
  930MOL0     H22728   7.785   0.066   6.118 -0.6841  1.2835 -0.6743
  930MOL0     H22729   7.759  -0.086   6.203 -0.5668 -0.1219  0.3126
  930MOL0     H22730   7.980  -0.087   6.155  0.5769 -2.1596  2.8202
  930MOL0     H22731   7.974  -0.079   6.325  4.1802  0.1441 -1.2043
  930MOL0     H22732   8.048   0.158   6.149  0.2309  0.2699  1.4194
  930MOL0     H22733   8.023   0.177   6.319  0.6149  0.5521  0.7985
  930MOL0     H22734   8.205  -0.046   6.312  1.3794 -0.7477  0.7369
  930MOL0     H22735   8.257   0.114   6.347  4.0581 -0.0293 -2.5656
  930MOL0     H22736   8.300   0.145   6.088  2.5984 -0.7850 -1.5858
  930MOL0     H22737   8.228  -0.021   6.075 -1.6509  1.3946 -0.4514
  930MOL0     H22738   8.467   0.054   6.254  1.7436  2.8708 -2.5355
  930MOL0     H22739   8.399  -0.101   6.216 -1.9068  1.7545  4.1385
  930MOL0     H22740   8.466  -0.055   5.970  2.2032 -1.3508 -1.3253
  930MOL0     H22741   8.594  -0.075   6.088  0.2930 -0.0940 -0.5237
  930MOL0     H22742   7.593   0.258   6.459 -4.2474  0.4154 -0.7386
  930MOL0     H22743   7.430   0.313   6.634  3.2345  1.0873  0.8560
  930MOL0     H22744   7.361   0.231   7.056  0.4992 -1.0227 -2.8105
  930MOL0     H22745   7.262   0.311   7.262  1.3681  1.4447 -1.7608
  930MOL0     H22746   8.289  -0.424   8.007  4.4896  0.4808 -1.2866
  930MOL0     H22747   8.456  -0.352   7.847  1.0596  0.9251  0.9090
  930MOL0     H22748   8.465   0.223   7.564  0.1967  0.5584 -0.9541
  930MOL0     H22749   8.582   0.297   7.362 -0.1337  0.2018  0.9228
  930MOL0     H22750   8.787  -0.072   7.141 -0.4921 -0.6900 -3.6630
  930MOL0     H22751   8.759   0.063   7.026 -4.9519  0.5225 -1.6690
  930MOL0     H22752   8.585  -0.145   7.116 -1.9451  0.4602  2.2905
  930MOL0     H22753   8.514   0.011   7.153  0.6627 -2.5960  3.8338
  930MOL0     H22754   8.638  -0.113   6.895  1.0494  2.1371 -0.8011
  930MOL0     H22755   8.620   0.051   6.888  1.8643  0.5453  1.6421
  930MOL0     H22756   8.380   0.031   6.914 -0.0324 -0.0964  0.4448
  930MOL0     H22757   8.435  -0.053   6.768 -0.8557  0.8442  0.4305
  930MOL0     H22758   8.267  -0.384   6.952 -1.2204  0.3504 -1.0080
  930MOL0     H22759   8.777  -0.091   7.355 -0.0373  1.1951 -0.9519
  930MOL0     H22760   8.620  -0.180   7.517 -2.1661 -0.7412 -1.2508
  931MOL0     O22761   4.460  11.114   1.868  0.8160 -0.1040 -0.4617
  931MOL0     C22762   4.571  11.071   1.840 -0.5125  0.6136 -0.8903
  931MOL0     O22763   4.687  11.090   1.916 -0.7313 -0.1861  0.7513
  931MOL0     C22764   4.696  11.105   2.049 -0.2257 -0.2662  0.1833
  931MOL0     C22765   4.671  11.001   2.130 -0.3811 -0.9240 -0.4342
  931MOL0     C22766   4.695  11.015   2.269 -0.2381 -0.3683  0.5257
  931MOL0     C22767   4.750  11.134   2.327  0.0925 -0.3317  0.3511
  931MOL0     O22768   4.775  11.168   2.456  0.9440 -0.3200 -1.4050
  931MOL0     C22769   4.804  11.056   2.547 -0.4456 -0.4836  1.3334
  931MOL0     C22770   4.919  11.117   2.635 -0.2932 -0.5067  0.5435
  931MOL0     C22771   5.044  11.128   2.535 -0.2149 -0.2451  0.4652
  931MOL0     C22772   5.175  11.127   2.606 -0.4105 -0.7944 -0.0304
  931MOL0     C22773   5.211  11.008   2.696  0.2604 -0.8999  0.2473
  931MOL0     C22774   5.369  10.993   2.705 -0.0796  0.1970  0.9602
  931MOL0     C22775   5.441  11.082   2.809 -0.9300 -0.7193 -0.3310
  931MOL0     C22776   5.575  11.030   2.857  0.4890  0.4431  0.2919
  931MOL0     N22777   5.665  11.113   2.949  0.3016 -1.3190  0.4765
  931MOL0     C22778   5.800  11.112   2.968 -0.8995 -0.0729 -1.5983
  931MOL0     C22779   5.830  11.225   3.037  0.6331  0.6605 -0.1888
  931MOL0     C22780   5.967  11.261   3.084  0.7861  1.0601 -0.3213
  931MOL0     C22781   6.013  11.391   3.015 -0.3105 -1.1046 -0.2441
  931MOL0     C22782   6.095  11.385   2.890 -0.4603 -0.5195 -1.0794
  931MOL0     C22783   6.250  11.365   2.918 -0.3277  0.1655 -0.1279
  931MOL0     O22784   6.315  11.468   2.992 -0.2081 -0.3277 -0.4239
  931MOL0     C22785   6.448  11.455   3.030  0.2860 -0.1917 -0.1489
  931MOL0     C22786   6.511  11.575   3.055 -0.4971  0.7937 -0.2801
  931MOL0     C22787   6.649  11.571   3.076 -0.2731  0.3626  0.0941
  931MOL0     C22788   6.714  11.444   3.106 -0.9842  0.3180 -0.0045
  931MOL0     C22789   6.858  11.455   3.136  0.1368 -0.8444  0.1246
  931MOL0     O22790   6.918  11.571   3.146  0.5265  0.1676 -0.3441
  931MOL0     C22791   7.040  11.566   3.198  0.7304  0.1069 -0.1131
  931MOL0     C22792   7.154  11.562   3.107  0.3567  0.4736 -0.3647
  931MOL0     C22793   7.280  11.561   3.164 -0.1221  0.5919  0.3271
  931MOL0     C22794   7.298  11.556   3.301 -0.2591  0.7075 -0.3119
  931MOL0     O22795   7.431  11.533   3.344 -0.1879  0.4517 -0.8722
  931MOL0     C22796   7.454  11.398   3.385 -0.1574  0.9344  0.1613
  931MOL0     C22797   7.586  11.367   3.447  0.0162  1.1983  0.5638
  931MOL0     C22798   7.601  11.209   3.482 -0.4467 -0.2056 -0.7070
  931MOL0     C22799   7.752  11.169   3.519 -0.4308 -0.4559 -1.1827
  931MOL0     C22800   7.804  11.215   3.651  0.1215 -0.9090 -0.0966
  931MOL0     C22801   7.950  11.235   3.657 -0.6275  0.1063  0.6839
  931MOL0     C22802   8.033  11.106   3.636 -0.6972  0.8406 -0.9086
  931MOL0     C22803   8.182  11.132   3.602  0.1444  0.7038  0.8673
  931MOL0    Cl22804   8.262  10.976   3.619  0.0785 -0.0615 -0.1913
  931MOL0     C22805   7.192  11.557   3.388 -0.4504  0.1863 -0.9312
  931MOL0     C22806   7.064  11.565   3.338 -0.0023  0.5259 -0.1083
  931MOL0     O22807   6.910  11.344   3.153 -0.4565 -0.5091 -0.2818
  931MOL0     C22808   6.641  11.327   3.098 -0.2954 -0.5729  0.2799
  931MOL0     C22809   6.514  11.330   3.052 -0.4797 -0.4511 -0.5341
  931MOL0     N22810   5.711  11.284   3.080  0.2972  0.0524  0.2487
  931MOL0     N22811   5.616  11.216   3.016  0.2198  0.5200  0.8394
  931MOL0     C22812   4.784  11.237   2.238  0.0203 -0.1001 -0.2680
  931MOL0     C22813   4.761  11.218   2.097 -0.9235 -0.5839 -0.0338
  931MOL0     C22814   4.586  10.994   1.714 -0.3780 -1.0323 -0.3482
  931MOL0     C22815   4.507  11.002   1.605 -0.1674  0.8656  0.0931
  931MOL0     C22816   4.524  10.904   1.500  0.6536 -0.4671 -0.0088
  931MOL0     C22817   4.634  10.826   1.490 -0.4135  0.0813 -0.6459
  931MOL0     O22818   4.642  10.757   1.377  0.2619  0.1247  0.2249
  931MOL0     C22819   4.701  10.628   1.391 -0.1860  0.0309 -0.4152
  931MOL0     C22820   4.643  10.534   1.288 -0.6498 -0.4656 -0.6928
  931MOL0     C22821   4.547  10.601   1.197  0.0260  0.1592  0.5752
  931MOL0     C22822   4.481  10.505   1.091 -1.7659  0.1953 -0.3464
  931MOL0     C22823   4.573  10.411   1.022 -0.5615 -0.1620 -0.1907
  931MOL0     C22824   4.637  10.325   0.960 -0.2335  0.6855  0.2288
  931MOL0     C22825   4.730  10.829   1.589 -0.1427 -0.1930  0.9859
  931MOL0     C22826   4.709  10.921   1.699  1.0454 -0.5819 -0.3094
  931MOL0     H22827   4.623  10.908   2.100 -1.3600 -0.8585  0.7943
  931MOL0     H22828   4.677  10.925   2.327  3.3592 -2.5316 -1.3724
  931MOL0     H22829   4.843  10.972   2.490  4.1151  1.3261  1.3517
  931MOL0     H22830   4.715  11.018   2.597 -1.2581 -1.7440 -0.9294
  931MOL0     H22831   4.947  11.060   2.724  2.7554  0.7664  0.5058
  931MOL0     H22832   4.902  11.213   2.684  4.6619  0.2806  1.2436
  931MOL0     H22833   5.033  11.215   2.470 -0.4211 -2.0921 -2.1145
  931MOL0     H22834   5.035  11.047   2.462  0.9408 -0.5011  0.5853
  931MOL0     H22835   5.246  11.144   2.524  1.4548  4.3315  2.2247
  931MOL0     H22836   5.199  11.220   2.659  4.6352 -0.4272 -2.4158
  931MOL0     H22837   5.170  10.911   2.666  1.8961 -2.5806  2.9794
  931MOL0     H22838   5.162  11.027   2.793  1.5957 -0.3393  0.8369
  931MOL0     H22839   5.425  10.992   2.611  0.9809 -2.8108  1.5228
  931MOL0     H22840   5.380  10.889   2.738 -2.8556 -0.6074 -0.2934
  931MOL0     H22841   5.441  11.187   2.780 -1.1835 -0.8774 -0.9256
  931MOL0     H22842   5.371  11.081   2.893  0.4170 -0.4264  0.8319
  931MOL0     H22843   5.632  10.998   2.769 -0.8066 -3.6721  0.7103
  931MOL0     H22844   5.567  10.929   2.897  1.2597 -0.7705 -2.3809
  931MOL0     H22845   5.873  11.043   2.928  0.8485  1.5684 -1.3867
  931MOL0     H22846   6.043  11.184   3.073  0.2936  0.7463 -1.8001
  931MOL0     H22847   5.960  11.277   3.192 -1.2698  1.4557 -0.4621
  931MOL0     H22848   6.060  11.460   3.086  2.1604 -3.9659  1.1373
  931MOL0     H22849   5.915  11.427   2.983  0.7304 -0.6563 -3.2694
  931MOL0     H22850   6.055  11.300   2.834 -2.2224 -0.8581  0.5906
  931MOL0     H22851   6.086  11.482   2.839 -0.8959 -0.9998 -1.9387
  931MOL0     H22852   6.304  11.359   2.823  0.0932  3.4563 -0.1942
  931MOL0     H22853   6.253  11.282   2.989 -0.4440  1.5027  1.4949
  931MOL0     H22854   6.456  11.668   3.058 -1.1886  0.4031  3.0185
  931MOL0     H22855   6.701  11.664   3.094 -2.2738  1.3439  1.1130
  931MOL0     H22856   7.128  11.557   3.002  0.0059 -1.2267 -0.2235
  931MOL0     H22857   7.360  11.542   3.093  0.1303  1.1839  0.4444
  931MOL0     H22858   7.436  11.326   3.305 -1.3554 -1.6863  2.6156
  931MOL0     H22859   7.364  11.375   3.443  0.7224 -2.5445  0.3509
  931MOL0     H22860   7.600  11.409   3.548 -2.7319  1.6906  0.8245
  931MOL0     H22861   7.673  11.393   3.386  0.1216  1.2346  0.7276
  931MOL0     H22862   7.569  11.153   3.394  1.5454 -0.6384 -1.2182
  931MOL0     H22863   7.526  11.187   3.558  3.4940 -0.5216  3.5968
  931MOL0     H22864   7.766  11.061   3.511  2.5422 -0.4433  1.5515
  931MOL0     H22865   7.817  11.207   3.440  3.3398 -3.3164  0.2479
  931MOL0     H22866   7.765  11.140   3.721  0.1879 -1.4194 -0.6037
  931MOL0     H22867   7.771  11.315   3.679  4.2546  0.5626  0.1434
  931MOL0     H22868   7.982  11.274   3.754  2.5700 -3.3860  1.3088
  931MOL0     H22869   7.984  11.307   3.582 -1.1846  1.8439  2.0510
  931MOL0     H22870   8.044  11.061   3.736 -0.9459  0.3006 -1.1209
  931MOL0     H22871   7.991  11.032   3.567 -0.1004  1.7438 -2.2816
  931MOL0     H22872   8.227  11.207   3.667  3.7400  0.0343 -0.6076
  931MOL0     H22873   8.193  11.168   3.499 -0.9197 -1.3575 -0.0346
  931MOL0     H22874   7.208  11.552   3.496 -0.3702  1.0641 -0.8942
  931MOL0     H22875   6.982  11.573   3.409  1.5102 -1.5364  2.0319
  931MOL0     H22876   6.673  11.231   3.138  0.8273  0.3353  1.6878
  931MOL0     H22877   6.455  11.240   3.043  3.2667 -2.9379 -3.2593
  931MOL0     H22878   4.817  11.334   2.275  1.8884 -0.9346  0.3490
  931MOL0     H22879   4.786  11.293   2.023 -1.2927 -0.4835 -0.0593
  931MOL0     H22880   4.411  11.052   1.607 -1.4709 -1.4899 -0.2018
  931MOL0     H22881   4.457  10.906   1.415  1.1026  0.8904 -0.3463
  931MOL0     H22882   4.695  10.575   1.486 -0.8671  0.4727 -0.2022
  931MOL0     H22883   4.808  10.647   1.375 -0.5704  2.4781 -0.5499
  931MOL0     H22884   4.722  10.494   1.225 -0.4204 -0.3403 -0.4853
  931MOL0     H22885   4.593  10.457   1.348 -4.2944  1.1022 -1.4567
  931MOL0     H22886   4.589  10.682   1.137 -2.5073  2.2689  1.4883
  931MOL0     H22887   4.468  10.653   1.252  1.9833  2.8757  1.0136
  931MOL0     H22888   4.396  10.462   1.146 -4.1808  4.9103  0.0992
  931MOL0     H22889   4.445  10.567   1.009  0.4307  3.2262  0.8271
  931MOL0     H22890   4.683  10.246   0.904 -1.2912 -0.8050  1.3969
  931MOL0     H22891   4.825  10.776   1.586 -0.5151 -0.8285  0.2121
  931MOL0     H22892   4.783  10.913   1.778 -0.3734 -2.2281  0.9662
  932MOL0     O22893   9.232   9.052   8.537 -0.5669  0.7670  0.2190
  932MOL0     C22894   9.280   9.072   8.428  0.2673 -2.0925 -0.0472
  932MOL0     O22895   9.266   8.990   8.315  0.6041 -0.1603 -0.0283
  932MOL0     C22896   9.186   8.878   8.324 -0.2044 -0.5266 -0.0196
  932MOL0     C22897   9.227   8.771   8.254 -0.4306  0.0487 -2.0203
  932MOL0     C22898   9.147   8.657   8.238  0.0671  0.0727 -0.4333
  932MOL0     C22899   9.015   8.649   8.298 -0.3143 -0.6861  0.5272
  932MOL0     O22900   8.929   8.541   8.304 -0.0462  0.0892  1.1113
  932MOL0     C22901   8.943   8.424   8.209  0.3763  0.2047 -0.2215
  932MOL0     C22902   9.055   8.328   8.269  0.4491  0.2183  0.2745
  932MOL0     C22903   9.116   8.260   8.156  0.2555  0.4334  0.2804
  932MOL0     C22904   9.230   8.171   8.205 -1.0233 -0.4427  0.9708
  932MOL0     C22905   9.222   8.017   8.161  0.0582 -0.2021  0.3800
  932MOL0     C22906   9.173   7.985   8.023  0.1652  0.3496  0.5105
  932MOL0     C22907   9.185   7.833   8.007 -0.1375 -0.7981 -0.0914
  932MOL0     C22908   9.143   7.770   7.885 -0.4570 -0.1612  0.4621
  932MOL0     N22909   9.146   7.624   7.885  0.1445  0.0653 -0.2705
  932MOL0     C22910   9.034   7.555   7.906 -0.1089  0.8644 -0.0980
  932MOL0     C22911   9.081   7.426   7.918 -0.1814 -0.6209  0.3010
  932MOL0     C22912   9.009   7.291   7.954 -0.2087 -0.3259  0.2168
  932MOL0     C22913   8.994   7.182   7.847 -0.4515  0.1584  0.0738
  932MOL0     C22914   9.126   7.140   7.790 -0.1015 -0.2432 -0.1068
  932MOL0     C22915   9.219   7.073   7.896 -0.0601  1.3443 -0.1958
  932MOL0     O22916   9.339   7.065   7.825  0.0035 -0.5798 -0.1059
  932MOL0     C22917   9.370   6.969   7.739 -0.2650  1.2731  0.0081
  932MOL0     C22918   9.326   6.838   7.728 -0.1489  0.1040  0.4848
  932MOL0     C22919   9.376   6.743   7.641  0.6325 -0.8937  0.4282
  932MOL0     C22920   9.481   6.777   7.562  1.1074  0.1055 -0.1307
  932MOL0     C22921   9.529   6.679   7.468 -0.7063 -0.3483  0.2961
  932MOL0     O22922   9.548   6.548   7.521 -1.6572 -1.5807 -0.0041
  932MOL0     C22923   9.562   6.437   7.441 -0.1303 -0.1131 -0.3816
  932MOL0     C22924   9.635   6.436   7.317 -0.6288  0.2679 -0.4735
  932MOL0     C22925   9.664   6.312   7.258 -0.0501 -0.3266  0.0214
  932MOL0     C22926   9.606   6.191   7.303  0.4575 -0.8517  0.1753
  932MOL0     O22927   9.612   6.064   7.249 -0.0797 -0.3402  0.3421
  932MOL0     C22928   9.713   6.042   7.152  0.6833  1.0036  1.3528
  932MOL0     C22929   9.701   5.894   7.110  0.2905  0.5122 -0.2674
  932MOL0     C22930   9.809   5.849   7.008  0.6590  0.2481  0.2177
  932MOL0     C22931   9.793   5.695   6.990 -0.3479  0.2770  0.7817
  932MOL0     C22932   9.902   5.636   6.894  0.4449 -0.2622 -0.0036
  932MOL0     C22933   9.890   5.485   6.896  0.6991  0.6843 -0.6872
  932MOL0     C22934   9.958   5.408   7.011  0.3862 -0.0717 -0.2500
  932MOL0     C22935   9.938   5.252   6.987 -0.1798 -0.5699  0.2465
  932MOL0    Cl22936   9.772   5.205   7.028 -0.0985  0.2362  0.0479
  932MOL0     C22937   9.549   6.197   7.431  0.7219 -0.6055 -0.4054
  932MOL0     C22938   9.532   6.314   7.501 -1.0295  0.4810 -0.3128
  932MOL0     O22939   9.531   6.710   7.351  0.8564 -0.5651  0.3747
  932MOL0     C22940   9.539   6.902   7.573  0.2920 -1.1040  0.6059
  932MOL0     C22941   9.475   6.995   7.651  0.1517 -1.3907  0.2671
  932MOL0     N22942   9.220   7.425   7.928 -0.4533 -0.5024  0.5550
  932MOL0     N22943   9.256   7.548   7.915  0.1185  0.0419 -0.5625
  932MOL0     C22944   8.964   8.774   8.357  0.5224  0.4084  0.2910
  932MOL0     C22945   9.054   8.878   8.377  0.6901 -0.8859  0.2420
  932MOL0     C22946   9.343   9.196   8.394  0.5313  0.4512  0.4033
  932MOL0     C22947   9.383   9.223   8.262 -0.4136 -0.6509  0.5025
  932MOL0     C22948   9.447   9.342   8.231  0.0164 -1.7877  0.2448
  932MOL0     C22949   9.470   9.444   8.322 -0.1794 -0.2358 -0.9418
  932MOL0     O22950   9.520   9.566   8.281  0.0521 -0.1347  0.2753
  932MOL0     C22951   9.597   9.592   8.155 -1.0951 -0.2754 -0.7184
  932MOL0     C22952   9.646   9.741   8.140  0.3381  0.1878  0.4500
  932MOL0     C22953   9.793   9.771   8.098 -0.6667  0.4856  0.4885
  932MOL0     C22954   9.802   9.904   8.014  0.5989  0.6588  0.1135
  932MOL0     C22955   9.828  10.027   8.091  1.1523  0.3246 -0.1438
  932MOL0     C22956   9.845  10.129   8.156 -0.3164  0.4196  0.1148
  932MOL0     C22957   9.446   9.410   8.450 -0.9937 -0.3305  0.7793
  932MOL0     C22958   9.384   9.296   8.485  0.3225 -0.1988 -0.2887
  932MOL0     H22959   9.324   8.774   8.205  0.4808  4.4411 -0.4270
  932MOL0     H22960   9.180   8.562   8.196  0.6352  0.7254 -1.4891
  932MOL0     H22961   8.986   8.464   8.117  0.1402 -1.3801 -1.0434
  932MOL0     H22962   8.850   8.368   8.201  1.6893 -2.0287 -0.5777
  932MOL0     H22963   9.008   8.267   8.347  0.1731  0.3644  0.2205
  932MOL0     H22964   9.132   8.382   8.325 -0.8536  0.2744  2.1079
  932MOL0     H22965   9.159   8.338   8.092 -2.4662  1.9643  0.1697
  932MOL0     H22966   9.039   8.203   8.104  2.1432 -0.8786 -1.2019
  932MOL0     H22967   9.316   8.213   8.153 -1.3014 -1.0556 -0.0197
  932MOL0     H22968   9.247   8.179   8.312 -1.6301  0.3311  1.0205
  932MOL0     H22969   9.156   7.973   8.237 -0.0716  1.4860  1.2836
  932MOL0     H22970   9.324   7.977   8.161  1.0291  1.8909 -2.6437
  932MOL0     H22971   9.234   8.031   7.945 -2.4812 -0.6772 -2.4077
  932MOL0     H22972   9.068   8.008   8.003 -0.4440 -0.2375  2.7814
  932MOL0     H22973   9.288   7.801   8.025 -0.4546 -0.3938  3.1820
  932MOL0     H22974   9.125   7.788   8.087 -2.5408  1.6844 -0.3508
  932MOL0     H22975   9.217   7.807   7.813 -0.7235  2.6063  1.4705
  932MOL0     H22976   9.041   7.805   7.862 -0.1292  2.6430  2.6104
  932MOL0     H22977   8.932   7.589   7.923 -0.2440  1.7649 -2.3653
  932MOL0     H22978   8.913   7.318   8.000  0.3889  0.5107  1.0075
  932MOL0     H22979   9.070   7.244   8.032  0.3972  0.8617  0.4713
  932MOL0     H22980   8.936   7.225   7.765 -0.8873  0.2985  0.4505
  932MOL0     H22981   8.945   7.098   7.896  1.8470 -0.5186  1.3365
  932MOL0     H22982   9.104   7.067   7.711  0.6920  2.6379 -3.1890
  932MOL0     H22983   9.179   7.227   7.751 -2.5072  0.6720 -1.5865
  932MOL0     H22984   9.175   6.976   7.918 -1.2921  2.4221  2.4765
  932MOL0     H22985   9.243   7.144   7.975  0.0576  2.5291 -1.2523
  932MOL0     H22986   9.237   6.813   7.785 -0.1537  0.3385  0.5803
  932MOL0     H22987   9.328   6.648   7.626  1.0211 -0.6427 -3.2661
  932MOL0     H22988   9.674   6.525   7.270  0.2937  0.4055  0.5258
  932MOL0     H22989   9.722   6.313   7.166  2.5526 -1.3855  1.5438
  932MOL0     H22990   9.812   6.061   7.194  0.4311 -0.4096  2.6709
  932MOL0     H22991   9.678   6.094   7.062 -1.1013 -2.1886  0.0395
  932MOL0     H22992   9.602   5.863   7.077  1.3761 -0.0886 -3.2964
  932MOL0     H22993   9.709   5.841   7.206  1.8505  3.8135  1.6407
  932MOL0     H22994   9.906   5.860   7.056  0.9755 -0.6597 -0.2004
  932MOL0     H22995   9.813   5.897   6.910 -0.8855 -0.1935 -0.0863
  932MOL0     H22996   9.794   5.634   7.081  0.8513 -3.1178 -1.3133
  932MOL0     H22997   9.697   5.690   6.937 -0.7058  2.2827  1.1432
  932MOL0     H22998   9.999   5.666   6.935 -0.9621  0.4898  3.0439
  932MOL0     H22999   9.891   5.674   6.792  0.8471  2.0368  0.7599
  932MOL0     H23000   9.928   5.446   6.801  0.0480  1.2151 -1.1706
  932MOL0     H23001   9.783   5.466   6.907  0.6695  2.0881  2.8006
  932MOL0     H23002  10.062   5.440   7.015 -0.1814  1.7873  0.5930
  932MOL0     H23003   9.906   5.444   7.100 -0.5838  1.6166 -1.4495
  932MOL0     H23004  10.008   5.200   7.053  0.1126 -1.4780 -0.7678
  932MOL0     H23005   9.965   5.228   6.884 -0.3678  2.6038 -0.6430
  932MOL0     H23006   9.498   6.112   7.475 -0.3041 -0.7189 -1.7499
  932MOL0     H23007   9.498   6.324   7.603  1.6277  0.4412  0.6442
  932MOL0     H23008   9.626   6.919   7.511 -0.3314 -1.5241 -0.4226
  932MOL0     H23009   9.514   7.097   7.647 -3.4141  0.1050 -2.8930
  932MOL0     H23010   8.867   8.790   8.404  0.8154 -1.0444  1.4841
  932MOL0     H23011   9.008   8.965   8.423 -0.9317 -2.3370  1.4584
  932MOL0     H23012   9.352   9.162   8.178 -1.9005  0.5549  0.1270
  932MOL0     H23013   9.461   9.358   8.124 -0.8059 -0.6016  0.2925
  932MOL0     H23014   9.528   9.576   8.072 -2.1903  2.2595 -0.3561
  932MOL0     H23015   9.677   9.517   8.148 -1.2776 -0.4478 -0.9547
  932MOL0     H23016   9.570   9.789   8.078 -0.2717  0.1959  1.1894
  932MOL0     H23017   9.631   9.798   8.233 -0.1323  0.5992  0.1258
  932MOL0     H23018   9.821   9.688   8.032 -1.6411 -0.9472  1.7958
  932MOL0     H23019   9.858   9.770   8.186  0.8022 -0.5486 -0.5542
  932MOL0     H23020   9.866   9.900   7.926 -2.0279  3.8121 -2.2397
  932MOL0     H23021   9.701   9.913   7.973  0.1673 -0.4959  0.8523
  932MOL0     H23022   9.863  10.214   8.218  0.0259  1.9120 -1.9390
  932MOL0     H23023   9.462   9.496   8.515 -2.0080  1.3253 -1.0643
  932MOL0     H23024   9.365   9.277   8.591  0.8987 -1.7658 -0.4450
  933MOL0     O23025   9.577   3.240   9.670  0.0539  0.1572  0.8799
  933MOL0     C23026   9.585   3.354   9.729  0.2082 -0.1466  0.1497
  933MOL0     O23027   9.475   3.427   9.775  0.2660  0.0552 -0.2316
  933MOL0     C23028   9.350   3.411   9.724  0.1448 -1.2026 -0.0161
  933MOL0     C23029   9.277   3.537   9.716 -0.1165  0.3961 -0.2723
  933MOL0     C23030   9.138   3.541   9.670  0.2786  0.1716  0.3183
  933MOL0     C23031   9.077   3.418   9.642  0.2191 -0.8191  0.6107
  933MOL0     O23032   8.951   3.413   9.588 -1.3967 -0.4871 -0.0889
  933MOL0     C23033   8.923   3.495   9.483  0.0912 -0.1677  0.1589
  933MOL0     C23034   8.786   3.467   9.416 -0.1937  0.3606  0.1293
  933MOL0     C23035   8.781   3.542   9.275 -0.2573  0.0546  0.9326
  933MOL0     C23036   8.633   3.558   9.238 -0.7995 -0.8849 -0.0251
  933MOL0     C23037   8.571   3.682   9.305  0.1501  0.2594 -0.3606
  933MOL0     C23038   8.444   3.639   9.383 -0.1077 -0.0697 -0.1502
  933MOL0     C23039   8.388   3.771   9.442  0.3954  0.0564 -0.0239
  933MOL0     C23040   8.255   3.749   9.522  0.1277  0.0903  0.2951
  933MOL0     N23041   8.290   3.697   9.648 -0.7874 -0.0738 -0.2938
  933MOL0     C23042   8.300   3.559   9.669 -0.1418  0.9464 -0.1798
  933MOL0     C23043   8.338   3.546   9.800 -0.0022 -0.5654  0.4849
  933MOL0     C23044   8.396   3.411   9.853  0.0317  0.1845 -0.3275
  933MOL0     C23045   8.506   3.334   9.779 -0.1751  0.4194  0.1967
  933MOL0     C23046   8.651   3.382   9.823  0.7380  1.2481 -0.2031
  933MOL0     C23047   8.769   3.282   9.797  0.5333  0.1678 -0.3170
  933MOL0     O23048   8.747   3.150   9.855  0.0308 -0.3493 -0.2007
  933MOL0     C23049   8.856   3.075   9.888 -0.0500  0.0266 -0.3864
  933MOL0     C23050   8.985   3.125   9.928 -0.1448  0.5088  0.2483
  933MOL0     C23051   9.082   3.035   9.954 -0.0179  0.2529  0.0021
  933MOL0     C23052   9.058   2.894   9.928  0.7255 -0.4300  0.2482
  933MOL0     C23053   9.166   2.793   9.946 -0.6651 -0.1541 -0.5016
  933MOL0     O23054   9.285   2.834   9.985  0.2575  0.1198  0.3768
  933MOL0     C23055   9.378   2.734  10.005 -0.3431  0.0915  0.0329
  933MOL0     C23056   9.390   2.672  10.135  0.6171  0.0418  0.0871
  933MOL0     C23057   9.497   2.586  10.158 -0.2519 -0.4554 -0.2458
  933MOL0     C23058   9.593   2.550  10.053  0.5040 -0.9019  0.3989
  933MOL0     O23059   9.693   2.461  10.065  0.3157  0.3811 -1.0778
  933MOL0     C23060   9.743   2.416  10.190 -0.5301  0.4772 -0.2685
  933MOL0     C23061   9.887   2.371  10.198  0.2292 -0.0157  1.1184
  933MOL0     C23062   9.926   2.247  10.119  0.1979 -0.3235  0.1783
  933MOL0     C23063  10.078   2.209  10.144  0.4410 -0.0745 -0.4910
  933MOL0     C23064  10.103   2.055  10.110 -0.5573 -0.5431 -0.4230
  933MOL0     C23065  10.107   2.029   9.961  0.3321  0.6715 -0.0322
  933MOL0     C23066  10.172   1.889   9.932  0.2092 -0.5355 -0.1533
  933MOL0     C23067  10.196   1.875   9.781  0.6826  0.1136  0.2629
  933MOL0    Cl23068  10.310   2.002   9.735  0.2187  0.1174  0.3103
  933MOL0     C23069   9.580   2.614   9.929 -0.0177  0.7352 -0.4506
  933MOL0     C23070   9.471   2.694   9.902 -0.5798 -0.5007  0.3126
  933MOL0     O23071   9.134   2.675   9.927  0.3795 -0.1174 -0.4305
  933MOL0     C23072   8.933   2.848   9.883  0.2795 -0.0528  0.2713
  933MOL0     C23073   8.831   2.939   9.879  0.4936 -0.4745  0.9437
  933MOL0     N23074   8.349   3.675   9.845 -0.0433 -0.4089  0.5982
  933MOL0     N23075   8.317   3.762   9.762 -0.1962  0.8249  0.2355
  933MOL0     C23076   9.145   3.296   9.651  0.4285 -0.2145 -0.2906
  933MOL0     C23077   9.280   3.293   9.694 -0.1757 -0.5585 -0.3626
  933MOL0     C23078   9.712   3.403   9.784 -0.5825  0.1039 -0.3733
  933MOL0     C23079   9.725   3.529   9.852  0.0712  1.2524 -0.0395
  933MOL0     C23080   9.843   3.565   9.911 -1.1833  0.4579  0.4538
  933MOL0     C23081   9.963   3.494   9.883 -0.4701  0.2179 -0.5787
  933MOL0     O23082  10.084   3.548   9.925 -0.9018  0.1566  0.4272
  933MOL0     C23083  10.207   3.470   9.940 -0.0531 -0.3519 -0.6409
  933MOL0     C23084  10.187   3.377  10.067 -0.5244  0.3117 -0.1651
  933MOL0     C23085  10.280   3.252  10.051  0.6509  0.6960 -0.3702
  933MOL0     C23086  10.421   3.285  10.045  0.1513 -0.0936  0.4643
  933MOL0     C23087  10.500   3.172  10.100  1.0198  0.8846 -0.3706
  933MOL0     C23088  10.546   3.071  10.148  0.7792  0.3368  0.2880
  933MOL0     C23089   9.958   3.376   9.825  0.4047  0.2558  0.3489
  933MOL0     C23090   9.834   3.327   9.771 -0.2594  0.5012  0.4258
  933MOL0     H23091   9.317   3.625   9.766  0.5445  0.6055 -1.1580
  933MOL0     H23092   9.078   3.631   9.671  2.1716  1.5153  2.2827
  933MOL0     H23093   9.001   3.508   9.408 -1.2809 -1.8946 -1.6408
  933MOL0     H23094   8.903   3.594   9.527 -1.1675  0.1760 -1.0961
  933MOL0     H23095   8.701   3.496   9.478 -1.7063 -2.8202 -0.2339
  933MOL0     H23096   8.761   3.363   9.392 -1.0336  0.6581 -0.3593
  933MOL0     H23097   8.839   3.479   9.208  2.2031  1.8590  1.2020
  933MOL0     H23098   8.832   3.639   9.287 -4.1697  2.4639  0.0316
  933MOL0     H23099   8.642   3.577   9.131  2.4882  2.1773  0.5853
  933MOL0     H23100   8.569   3.474   9.266 -0.4949 -0.8050  0.9459
  933MOL0     H23101   8.542   3.755   9.229 -0.3604  0.3973 -0.0383
  933MOL0     H23102   8.640   3.727   9.378 -0.9759  1.9699 -0.3045
  933MOL0     H23103   8.468   3.575   9.468  3.2514 -1.5548 -2.0441
  933MOL0     H23104   8.376   3.587   9.315 -0.1413 -1.4358  0.9015
  933MOL0     H23105   8.464   3.820   9.504 -0.6164 -0.2156  1.4856
  933MOL0     H23106   8.371   3.838   9.357  0.1532  0.5586  0.4170
  933MOL0     H23107   8.183   3.684   9.472  1.9650  0.5696 -3.3263
  933MOL0     H23108   8.214   3.850   9.520  2.0555  0.9271 -1.8174
  933MOL0     H23109   8.290   3.479   9.597  0.3380 -1.3336  2.1317
  933MOL0     H23110   8.314   3.344   9.824  0.8604 -0.1930 -1.9384
  933MOL0     H23111   8.415   3.416   9.961  1.4151  0.5926 -0.5619
  933MOL0     H23112   8.499   3.351   9.672  1.7160  0.2577  0.0089
  933MOL0     H23113   8.490   3.227   9.796 -2.1634  0.8228  1.2163
  933MOL0     H23114   8.682   3.479   9.782  2.7492 -0.4924 -3.0984
  933MOL0     H23115   8.649   3.379   9.933  0.5798  0.7701 -0.2207
  933MOL0     H23116   8.857   3.327   9.843  2.1935 -2.1534 -1.0504
  933MOL0     H23117   8.777   3.275   9.688 -3.8367 -0.8540 -0.7877
  933MOL0     H23118   8.997   3.231   9.947 -0.5431  0.2628  2.0053
  933MOL0     H23119   9.177   3.082   9.978 -1.1767  3.0088 -0.3232
  933MOL0     H23120   9.321   2.689  10.217  0.5938  1.8907 -0.2735
  933MOL0     H23121   9.494   2.533  10.252 -2.8731  0.7026  0.4101
  933MOL0     H23122   9.691   2.330  10.234  1.2531 -0.6008 -0.1923
  933MOL0     H23123   9.742   2.497  10.264  0.3121 -1.2829  1.8031
  933MOL0     H23124   9.918   2.356  10.301  5.1427 -2.3726 -0.3921
  933MOL0     H23125   9.940   2.455  10.153 -1.8455  1.3831  1.1350
  933MOL0     H23126   9.918   2.262  10.011  2.5454  1.5857  0.1862
  933MOL0     H23127   9.862   2.162  10.142  0.0711  0.0578  1.2884
  933MOL0     H23128  10.142   2.291  10.109 -1.8405  4.1783  4.0334
  933MOL0     H23129  10.084   2.224  10.252  2.2245 -2.5677 -0.1482
  933MOL0     H23130  10.007   2.009  10.134 -1.4212  0.9871 -0.8420
  933MOL0     H23131  10.185   2.023  10.176 -0.9182  0.3383  0.4806
  933MOL0     H23132  10.158   2.108   9.905  1.3505 -2.1026 -3.3821
  933MOL0     H23133  10.002   2.025   9.932  0.5600 -1.8407 -0.7337
  933MOL0     H23134  10.256   1.873  10.000  2.5595  1.7754 -2.3252
  933MOL0     H23135  10.095   1.816   9.961  0.4821  0.1448  2.5226
  933MOL0     H23136  10.099   1.885   9.734  1.0774 -0.2664 -0.6470
  933MOL0     H23137  10.228   1.779   9.742  0.0728 -0.3116  0.7902
  933MOL0     H23138   9.652   2.577   9.856 -0.9130 -1.0835 -0.4795
  933MOL0     H23139   9.466   2.723   9.797  2.5016 -2.8417 -0.6266
  933MOL0     H23140   8.921   2.745   9.853  0.4804  0.2288 -0.8083
  933MOL0     H23141   8.739   2.894   9.841  1.9681 -0.7594 -2.6946
  933MOL0     H23142   9.103   3.207   9.605 -0.6056 -1.8589  3.4660
  933MOL0     H23143   9.329   3.196   9.700  2.3031  0.5318 -1.6967
  933MOL0     H23144   9.636   3.589   9.862  1.2033  3.0061 -0.1687
  933MOL0     H23145   9.844   3.660   9.964  0.1284  0.7926 -0.1447
  933MOL0     H23146  10.278   3.551   9.955  0.9533 -0.9224 -2.0999
  933MOL0     H23147  10.224   3.404   9.854 -2.6738 -0.9067 -0.8200
  933MOL0     H23148  10.200   3.443  10.153 -1.2787  1.4333 -0.8727
  933MOL0     H23149  10.083   3.346  10.078 -0.3474 -0.5286 -0.7261
  933MOL0     H23150  10.237   3.191   9.970 -1.6888 -0.4392  1.5880
  933MOL0     H23151  10.257   3.208  10.149  2.0266  3.0156  1.0890
  933MOL0     H23152  10.451   3.301   9.941  1.0590 -2.3624  0.3167
  933MOL0     H23153  10.444   3.378  10.097  1.2542 -0.6999  1.0931
  933MOL0     H23154  10.588   2.978  10.181  0.3154 -0.0217 -0.1019
  933MOL0     H23155  10.047   3.316   9.809 -0.6186 -0.4726 -3.5448
  933MOL0     H23156   9.835   3.237   9.710 -1.1861  2.1104 -2.1702
  934MOL0     O23157  10.809   1.459   0.192 -0.2450  0.8508  0.0841
  934MOL0     C23158  10.876   1.444   0.086 -0.4439  0.2192 -0.7550
  934MOL0     O23159  10.862   1.516  -0.037 -0.4711 -0.0356 -0.3243
  934MOL0     C23160  10.774   1.625  -0.033 -0.2552 -0.1593  0.4039
  934MOL0     C23161  10.777   1.721   0.078  0.6369 -0.0684 -0.1291
  934MOL0     C23162  10.700   1.830   0.065  0.2988  0.2927  0.9362
  934MOL0     C23163  10.605   1.845  -0.039  0.3763 -1.2266 -0.5462
  934MOL0     O23164  10.530   1.961  -0.038  0.4716 -0.0520  0.0064
  934MOL0     C23165  10.452   2.004  -0.155 -0.1442  0.4541  0.0761
  934MOL0     C23166  10.526   2.060  -0.274 -0.0486  0.1770  0.2977
  934MOL0     C23167  10.598   2.196  -0.248 -1.4698 -0.2765 -0.1728
  934MOL0     C23168  10.680   2.219  -0.380  1.1335 -0.4960 -0.0857
  934MOL0     C23169  10.784   2.325  -0.387  0.3208 -0.7611  0.5092
  934MOL0     C23170  10.774   2.405  -0.518  0.0895 -0.1784 -0.0806
  934MOL0     C23171  10.886   2.512  -0.525  0.9570  1.1486 -0.1108
  934MOL0     C23172  10.826   2.647  -0.509 -0.2201  0.0250  0.4245
  934MOL0     N23173  10.732   2.683  -0.610  0.6916  0.1111 -0.1458
  934MOL0     C23174  10.773   2.705  -0.738  0.2132 -0.6955 -0.1204
  934MOL0     C23175  10.662   2.740  -0.809  0.1500  1.0189  1.1869
  934MOL0     C23176  10.645   2.803  -0.941  0.2368  0.3817 -0.2454
  934MOL0     C23177  10.757   2.757  -1.043  0.9520 -0.4348  1.0002
  934MOL0     C23178  10.891   2.830  -1.033 -0.2103 -1.2021 -0.3394
  934MOL0     C23179  10.958   2.854  -1.172 -0.6983  0.0464 -0.3645
  934MOL0     O23180  10.877   2.938  -1.255 -0.7079  0.0161 -0.2263
  934MOL0     C23181  10.950   3.021  -1.347  0.3432 -1.4507  0.3035
  934MOL0     C23182  10.895   3.142  -1.402 -1.1520  0.0306  0.3516
  934MOL0     C23183  10.973   3.230  -1.478 -0.5459  0.8632 -0.7390
  934MOL0     C23184  11.111   3.192  -1.508  0.1927 -0.0429 -0.2290
  934MOL0     C23185  11.197   3.289  -1.581 -0.0628 -0.0571 -0.5566
  934MOL0     O23186  11.152   3.413  -1.596 -0.1037  0.3398  0.1758
  934MOL0     C23187  11.231   3.514  -1.636 -0.2754  0.0227 -0.4696
  934MOL0     C23188  11.252   3.620  -1.555  0.2431 -0.4583 -0.7898
  934MOL0     C23189  11.341   3.717  -1.597  0.2026  0.0680 -0.3805
  934MOL0     C23190  11.404   3.711  -1.721  0.4104 -0.1283  0.0136
  934MOL0     O23191  11.499   3.809  -1.745 -0.1120  0.4351 -0.9727
  934MOL0     C23192  11.523   3.862  -1.869 -0.0760  0.0802  0.6416
  934MOL0     C23193  11.661   3.926  -1.879  0.4408  0.7223 -0.1426
  934MOL0     C23194  11.769   3.816  -1.898  0.6285 -0.2549  0.3166
  934MOL0     C23195  11.914   3.850  -1.869  0.6952 -1.0185  0.6210
  934MOL0     C23196  11.952   3.965  -1.952  0.3631 -0.9776  0.6039
  934MOL0     C23197  12.096   4.021  -1.932 -0.8626  0.4307  0.6124
  934MOL0     C23198  12.107   4.109  -1.812  0.2359 -0.2913 -0.4155
  934MOL0     C23199  12.243   4.096  -1.743  0.4900  0.0344  0.7521
  934MOL0    Cl23200  12.222   4.099  -1.577  0.6824 -0.5164 -0.0892
  934MOL0     C23201  11.376   3.606  -1.803 -0.0818 -0.3968 -0.9937
  934MOL0     C23202  11.278   3.508  -1.766 -0.1968  0.3046 -0.8341
  934MOL0     O23203  11.298   3.240  -1.630 -0.2841 -0.1460  0.7240
  934MOL0     C23204  11.153   3.057  -1.481 -0.1033  0.6028 -0.4760
  934MOL0     C23205  11.071   2.979  -1.397  1.5042 -0.5947 -0.0303
  934MOL0     N23206  10.562   2.737  -0.725  0.2539 -0.5819 -0.6898
  934MOL0     N23207  10.597   2.696  -0.610 -0.0651 -0.9452  0.4052
  934MOL0     C23208  10.590   1.749  -0.138 -0.1021 -0.0831  0.2802
  934MOL0     C23209  10.674   1.640  -0.134 -0.1266  1.0361  0.1210
  934MOL0     C23210  10.960   1.312   0.083 -0.2540  0.2669 -0.5075
  934MOL0     C23211  11.024   1.274  -0.039 -0.7174 -0.3931 -0.1944
  934MOL0     C23212  11.119   1.180  -0.046  0.3876  0.1387 -0.1819
  934MOL0     C23213  11.157   1.112   0.065 -0.8720  0.3441 -0.0981
  934MOL0     O23214  11.259   1.012   0.049  0.0433 -0.0386 -0.4704
  934MOL0     C23215  11.297   0.924   0.150  0.3805  0.2762 -0.5861
  934MOL0     C23216  11.403   0.823   0.101 -0.1264 -0.5285 -0.0360
  934MOL0     C23217  11.523   0.892   0.043  0.0917 -0.5901  0.0251
  934MOL0     C23218  11.660   0.844   0.089  0.2174 -0.1234 -0.0818
  934MOL0     C23219  11.691   0.700   0.068  0.4475 -0.4585 -0.6316
  934MOL0     C23220  11.708   0.587   0.029 -0.4116 -0.2059  0.2544
  934MOL0     C23221  11.094   1.126   0.186  0.0838 -0.0421  1.0565
  934MOL0     C23222  10.997   1.234   0.198 -0.1907  0.0695  1.3846
  934MOL0     H23223  10.850   1.736   0.158  2.1666  2.4392 -1.8381
  934MOL0     H23224  10.711   1.913   0.134  0.1260  1.4917 -0.4350
  934MOL0     H23225  10.385   2.084  -0.124  1.6707  4.1909 -4.4796
  934MOL0     H23226  10.382   1.926  -0.184  1.3914 -1.7676  1.9652
  934MOL0     H23227  10.460   2.071  -0.360  0.3099 -3.8920 -0.7296
  934MOL0     H23228  10.599   1.986  -0.311 -0.5763 -0.4256  0.4437
  934MOL0     H23229  10.658   2.183  -0.157 -0.2345 -1.5262 -1.1120
  934MOL0     H23230  10.529   2.279  -0.232  1.2069  1.7569  2.0994
  934MOL0     H23231  10.725   2.124  -0.409  1.4615 -0.2002 -0.5543
  934MOL0     H23232  10.596   2.240  -0.448  1.9153  2.6177 -0.2320
  934MOL0     H23233  10.881   2.281  -0.363 -0.1727 -0.6059  3.0778
  934MOL0     H23234  10.763   2.394  -0.304  0.5139 -1.1321  0.8706
  934MOL0     H23235  10.677   2.444  -0.550 -0.6018 -1.1796  0.7355
  934MOL0     H23236  10.790   2.346  -0.608 -0.5138  2.6736 -2.1874
  934MOL0     H23237  10.957   2.490  -0.446 -0.7189 -1.6815  0.7523
  934MOL0     H23238  10.933   2.497  -0.623 -0.3576 -1.0449 -0.4839
  934MOL0     H23239  10.907   2.718  -0.490 -0.1301  0.8429 -2.5927
  934MOL0     H23240  10.764   2.649  -0.418 -2.6016 -0.4086 -1.0953
  934MOL0     H23241  10.873   2.696  -0.779  0.9109  1.1617  1.0309
  934MOL0     H23242  10.651   2.910  -0.921  1.8621 -0.0829  2.1336
  934MOL0     H23243  10.548   2.785  -0.989 -0.6412  1.6351  0.9836
  934MOL0     H23244  10.722   2.771  -1.145 -2.4743  0.4718  2.1810
  934MOL0     H23245  10.775   2.650  -1.025  2.6245 -0.0546  1.8764
  934MOL0     H23246  10.871   2.932  -0.998 -0.9990 -1.7321  0.7594
  934MOL0     H23247  10.966   2.782  -0.970  0.7042  1.6657  0.9357
  934MOL0     H23248  10.971   2.758  -1.223  0.7982  1.0577 -2.0066
  934MOL0     H23249  11.061   2.889  -1.159 -1.2908  0.6630  4.5687
  934MOL0     H23250  10.798   3.187  -1.382  0.1933  2.0792  2.9099
  934MOL0     H23251  10.930   3.324  -1.510 -3.4313  0.0189  0.2967
  934MOL0     H23252  11.209   3.620  -1.456 -2.6858 -3.4162 -1.8658
  934MOL0     H23253  11.357   3.812  -1.547 -0.8054  0.7081 -1.2317
  934MOL0     H23254  11.437   3.924  -1.898 -1.3104 -0.7172  2.4018
  934MOL0     H23255  11.522   3.782  -1.944 -0.9928 -0.5917  1.3513
  934MOL0     H23256  11.681   3.973  -1.783 -2.2734  0.8325  0.4589
  934MOL0     H23257  11.655   3.998  -1.961 -1.9709  0.5769 -0.1678
  934MOL0     H23258  11.746   3.799  -2.004  0.7060 -0.7266  0.3719
  934MOL0     H23259  11.735   3.726  -1.847  1.1900 -1.3805 -1.2215
  934MOL0     H23260  11.935   3.863  -1.763 -0.0179  0.1596  0.6305
  934MOL0     H23261  11.969   3.761  -1.903 -0.0764 -1.3161  0.1238
  934MOL0     H23262  11.889   4.054  -1.938  2.5995  0.8444 -0.3435
  934MOL0     H23263  11.931   3.930  -2.053 -4.5009 -0.4949  1.1722
  934MOL0     H23264  12.129   4.077  -2.019  0.0882 -1.2451 -0.1698
  934MOL0     H23265  12.162   3.935  -1.913  1.3378  1.5863 -1.2412
  934MOL0     H23266  12.089   4.214  -1.838  3.3472  0.0743 -1.5625
  934MOL0     H23267  12.035   4.081  -1.735  1.2264 -0.0433  0.6276
  934MOL0     H23268  12.302   4.185  -1.766  0.8468  0.0969  1.8904
  934MOL0     H23269  12.301   4.007  -1.770  2.5188 -0.1574  4.9970
  934MOL0     H23270  11.426   3.599  -1.899  0.7623  0.8085 -0.6602
  934MOL0     H23271  11.259   3.433  -1.842 -0.6553  1.3170 -1.7444
  934MOL0     H23272  11.243   3.006  -1.515  0.8462  0.9788  1.3203
  934MOL0     H23273  11.119   2.887  -1.367 -0.3343 -1.5023  0.2875
  934MOL0     H23274  10.517   1.746  -0.218  0.1051 -0.4255  0.1016
  934MOL0     H23275  10.681   1.557  -0.203 -0.1839  1.2231 -0.1113
  934MOL0     H23276  11.006   1.304  -0.141 -0.6599 -2.6163 -0.9065
  934MOL0     H23277  11.158   1.172  -0.147  1.4084  0.3831  0.1833
  934MOL0     H23278  11.213   0.863   0.184  0.7939 -0.6496 -1.1805
  934MOL0     H23279  11.351   0.973   0.231  2.3088  0.3061 -1.8296
  934MOL0     H23280  11.428   0.754   0.182 -2.5344 -0.9052  0.4714
  934MOL0     H23281  11.349   0.765   0.025 -0.7727  0.7238 -0.5648
  934MOL0     H23282  11.526   0.998   0.069  0.0751 -0.9219  1.4883
  934MOL0     H23283  11.510   0.873  -0.064 -0.5083 -4.0612  0.5880
  934MOL0     H23284  11.747   0.888   0.039  1.4098  1.6803  3.2402
  934MOL0     H23285  11.676   0.872   0.194  0.6721  4.2678 -1.1184
  934MOL0     H23286  11.738   0.490  -0.002  1.9662 -0.2726  2.4231
  934MOL0     H23287  11.130   1.070   0.271  0.2252  0.2439  1.1850
  934MOL0     H23288  10.945   1.266   0.287 -2.3090  1.1465 -0.1440
  935MOL0     O23289   1.267   4.668   3.063  0.2204 -0.3370  0.7264
  935MOL0     C23290   1.260   4.648   3.180 -0.6739 -0.4511 -0.1661
  935MOL0     O23291   1.371   4.636   3.260 -0.3493 -0.2173  0.4250
  935MOL0     C23292   1.494   4.636   3.198 -0.2033  0.2304  0.6151
  935MOL0     C23293   1.601   4.705   3.263  0.4001  0.1188 -0.3539
  935MOL0     C23294   1.723   4.709   3.201 -1.1972  0.5080  0.2855
  935MOL0     C23295   1.748   4.639   3.075  0.9535 -0.0020 -1.1097
  935MOL0     O23296   1.866   4.617   3.007 -0.5702 -0.2646 -0.4709
  935MOL0     C23297   1.982   4.668   3.076  0.4496  0.2663  0.6594
  935MOL0     C23298   2.093   4.685   2.976  0.2350  0.1388 -0.2169
  935MOL0     C23299   2.227   4.730   3.046 -0.4099 -0.2718 -1.4969
  935MOL0     C23300   2.347   4.761   2.953  0.9694 -0.2456 -0.1790
  935MOL0     C23301   2.335   4.888   2.877 -0.0494 -0.4458  0.0625
  935MOL0     C23302   2.432   4.896   2.752  1.2085  0.6344 -0.2149
  935MOL0     C23303   2.409   5.017   2.667  0.1422 -0.7169  0.2139
  935MOL0     C23304   2.469   5.010   2.529 -0.7018  0.4033  0.3754
  935MOL0     N23305   2.443   5.116   2.437  0.3147  0.1466 -0.8669
  935MOL0     C23306   2.524   5.227   2.442  0.6910  0.2289  0.5265
  935MOL0     C23307   2.503   5.288   2.322 -0.2051  0.1988  0.2610
  935MOL0     C23308   2.566   5.418   2.280 -0.0053 -0.2872 -0.7797
  935MOL0     C23309   2.571   5.430   2.133 -0.5835 -0.0515 -0.1123
  935MOL0     C23310   2.686   5.351   2.080 -0.4821  0.7048 -0.2941
  935MOL0     C23311   2.693   5.358   1.931 -0.3332 -0.8472 -0.3070
  935MOL0     O23312   2.756   5.481   1.889  0.3496 -0.2083  0.5850
  935MOL0     C23313   2.897   5.488   1.897 -0.2020  0.0486  0.3690
  935MOL0     C23314   2.983   5.381   1.863  0.1999 -0.6846 -0.0301
  935MOL0     C23315   3.122   5.391   1.865  0.1021 -1.0499  0.6393
  935MOL0     C23316   3.180   5.512   1.895 -0.6498 -0.2049 -1.0179
  935MOL0     C23317   3.332   5.538   1.868 -0.1519 -0.4066 -1.0480
  935MOL0     O23318   3.390   5.661   1.886 -0.0184 -0.4834  0.0391
  935MOL0     C23319   3.522   5.687   1.866 -1.2294 -0.0602 -0.3375
  935MOL0     C23320   3.623   5.586   1.868 -0.4624  0.7646  0.1060
  935MOL0     C23321   3.761   5.611   1.853  0.2517 -0.1837 -0.0852
  935MOL0     C23322   3.803   5.746   1.842 -0.7044 -0.1604  0.2949
  935MOL0     O23323   3.939   5.769   1.820  0.2955 -0.1571  0.9859
  935MOL0     C23324   3.990   5.903   1.796 -0.1631 -0.3349  0.4983
  935MOL0     C23325   4.043   5.967   1.928  0.2761  0.0180 -0.4133
  935MOL0     C23326   3.951   5.950   2.048 -0.7075 -0.3920 -0.1918
  935MOL0     C23327   4.017   5.996   2.169 -0.1901 -0.4392 -1.0974
  935MOL0     C23328   3.948   5.947   2.300  0.8967 -0.6152 -0.4233
  935MOL0     C23329   3.802   6.006   2.335  0.7549 -0.5113  0.7517
  935MOL0     C23330   3.762   5.996   2.478  0.3934  0.1471 -0.3584
  935MOL0     C23331   3.648   6.076   2.519  0.4475  0.8798  0.4504
  935MOL0    Cl23332   3.697   6.248   2.545 -0.6053  0.1339  0.1733
  935MOL0     C23333   3.703   5.851   1.845 -0.4849  0.5610  0.0484
  935MOL0     C23334   3.567   5.819   1.845  0.6383  0.6070  0.0459
  935MOL0     O23335   3.380   5.445   1.801 -0.2625  0.2991  0.7016
  935MOL0     C23336   3.096   5.615   1.933  0.3410  0.3314  0.2811
  935MOL0     C23337   2.958   5.608   1.928 -1.2797  1.2134 -0.5476
  935MOL0     N23338   2.405   5.216   2.254 -0.2349 -0.3665  0.2810
  935MOL0     N23339   2.374   5.108   2.326 -0.3855  0.1452  0.1303
  935MOL0     C23340   1.647   4.561   3.025  0.7671  0.5826  0.1008
  935MOL0     C23341   1.524   4.558   3.083  0.4349  0.0871  1.0125
  935MOL0     C23342   1.127   4.603   3.234 -0.1271  0.3905 -1.0901
  935MOL0     C23343   1.136   4.531   3.352 -0.1548 -0.2365  0.7938
  935MOL0     C23344   1.016   4.470   3.397 -0.5746  0.0665 -0.3327
  935MOL0     C23345   0.897   4.492   3.345 -0.2530 -0.5831  0.1599
  935MOL0     O23346   0.782   4.439   3.399  0.4450 -0.3904 -0.0949
  935MOL0     C23347   0.779   4.383   3.533 -0.6664 -0.5447 -0.2664
  935MOL0     C23348   0.630   4.371   3.570  0.6983 -1.4351 -0.2884
  935MOL0     C23349   0.558   4.270   3.485  0.3316  0.2749  0.5078
  935MOL0     C23350   0.589   4.121   3.518 -0.4826 -0.2844  0.1667
  935MOL0     C23351   0.555   4.033   3.409  0.1271  0.0408  0.3530
  935MOL0     C23352   0.529   3.933   3.347  0.2421  0.3952 -1.1508
  935MOL0     C23353   0.888   4.555   3.219  0.2637 -0.3396 -0.0131
  935MOL0     C23354   1.005   4.603   3.166  0.5016 -0.0442  0.3075
  935MOL0     H23355   1.593   4.755   3.359 -0.0335  0.1121 -0.3848
  935MOL0     H23356   1.805   4.764   3.246 -0.8614  1.9697 -1.9649
  935MOL0     H23357   2.013   4.607   3.161 -0.2579 -0.8876  0.1143
  935MOL0     H23358   1.970   4.772   3.108 -1.9000  0.1054  0.4452
  935MOL0     H23359   2.063   4.755   2.896 -0.8315 -0.9754 -0.8225
  935MOL0     H23360   2.109   4.589   2.926 -1.0740  1.5717 -3.7413
  935MOL0     H23361   2.262   4.641   3.099 -0.6344  1.2519  1.4059
  935MOL0     H23362   2.198   4.807   3.118  1.4253  0.0964 -1.1211
  935MOL0     H23363   2.438   4.778   3.012  1.2907  0.0209 -0.7493
  935MOL0     H23364   2.367   4.678   2.885 -1.8507 -1.4160  0.2891
  935MOL0     H23365   2.354   4.972   2.945 -1.3029 -1.3284  1.5603
  935MOL0     H23366   2.234   4.888   2.834 -0.1972 -3.3237  0.2429
  935MOL0     H23367   2.425   4.808   2.687  3.3369  1.1631 -1.2372
  935MOL0     H23368   2.535   4.907   2.785  1.2017 -0.4807  0.2198
  935MOL0     H23369   2.306   5.051   2.658  0.8285  1.7086  0.6101
  935MOL0     H23370   2.447   5.104   2.722 -0.2382  1.1417 -2.2828
  935MOL0     H23371   2.453   4.920   2.469 -0.3055 -1.7562  3.2828
  935MOL0     H23372   2.577   5.016   2.545 -0.6497  0.6759 -0.0575
  935MOL0     H23373   2.602   5.243   2.515 -0.4408  0.6693  1.6689
  935MOL0     H23374   2.670   5.428   2.314 -0.2841 -2.7956  1.1015
  935MOL0     H23375   2.516   5.505   2.324 -0.4478  0.9306 -3.4845
  935MOL0     H23376   2.583   5.537   2.113 -2.1369  0.5702  1.9199
  935MOL0     H23377   2.487   5.394   2.071  0.1816  0.9438 -1.8050
  935MOL0     H23378   2.784   5.379   2.121 -0.8524  0.7029  0.6172
  935MOL0     H23379   2.670   5.246   2.103 -0.2289  0.7772  0.2287
  935MOL0     H23380   2.596   5.346   1.881 -0.1661 -0.2225 -0.7952
  935MOL0     H23381   2.759   5.279   1.894  1.9562  1.9139 -2.5288
  935MOL0     H23382   2.949   5.286   1.824 -0.4154  0.4288 -2.3979
  935MOL0     H23383   3.176   5.305   1.825 -1.7486 -0.5181 -3.5461
  935MOL0     H23384   3.590   5.485   1.889  0.0201  1.0340  2.3935
  935MOL0     H23385   3.828   5.526   1.861 -2.0948 -2.0013  2.7945
  935MOL0     H23386   3.908   5.968   1.763  0.5086  0.5705  0.5595
  935MOL0     H23387   4.063   5.894   1.715 -1.2720  0.8479 -0.6907
  935MOL0     H23388   4.063   6.072   1.904  2.8653 -0.4274 -0.5243
  935MOL0     H23389   4.146   5.938   1.952  0.1186  0.7504  1.3200
  935MOL0     H23390   3.932   5.844   2.064  0.6222 -0.5200  0.6833
  935MOL0     H23391   3.867   6.015   2.021  0.9851  1.0142 -2.4684
  935MOL0     H23392   4.118   5.954   2.179 -0.9225 -1.8889  0.9664
  935MOL0     H23393   4.021   6.104   2.185 -2.7214 -0.4030 -0.3117
  935MOL0     H23394   4.020   5.964   2.381  2.2015  0.5243 -1.7549
  935MOL0     H23395   3.936   5.838   2.308 -1.4695 -0.6501 -2.9786
  935MOL0     H23396   3.728   5.950   2.276  1.3694  2.3922 -3.1993
  935MOL0     H23397   3.788   6.108   2.298  0.0462 -1.4474 -1.8022
  935MOL0     H23398   3.738   5.889   2.487 -0.2551  0.2461 -0.7998
  935MOL0     H23399   3.839   6.022   2.551 -0.1569 -0.1221  0.3281
  935MOL0     H23400   3.591   6.044   2.606 -1.2493 -1.6394 -1.4244
  935MOL0     H23401   3.574   6.068   2.439  0.2666 -2.0388  0.8226
  935MOL0     H23402   3.723   5.957   1.832 -2.3902  0.7185 -2.4840
  935MOL0     H23403   3.494   5.898   1.831 -1.7527 -0.7536  3.3120
  935MOL0     H23404   3.157   5.705   1.942  1.0055 -0.2926  2.7477
  935MOL0     H23405   2.892   5.692   1.946 -1.7325  0.5687  1.0579
  935MOL0     H23406   1.666   4.492   2.943  1.8834 -0.7386  1.4056
  935MOL0     H23407   1.456   4.482   3.046  1.1499 -0.6698  1.2414
  935MOL0     H23408   1.228   4.527   3.411  0.5739  0.7026 -0.2334
  935MOL0     H23409   1.032   4.403   3.481  2.6318  0.0589 -0.8262
  935MOL0     H23410   0.832   4.443   3.607 -1.8212  2.2946 -1.6179
  935MOL0     H23411   0.828   4.285   3.538 -2.4624 -1.5114 -0.7669
  935MOL0     H23412   0.624   4.329   3.671 -1.2064 -0.4127  0.0800
  935MOL0     H23413   0.573   4.465   3.570 -0.2367 -1.9766 -1.6503
  935MOL0     H23414   0.586   4.289   3.381 -0.5733 -0.1719  0.1679
  935MOL0     H23415   0.449   4.273   3.496  0.1373  1.4837 -1.3135
  935MOL0     H23416   0.694   4.096   3.536 -0.5527 -2.0198 -1.4882
  935MOL0     H23417   0.540   4.095   3.612 -0.7095 -2.9912 -0.6353
  935MOL0     H23418   0.506   3.840   3.301  0.4515 -0.4173  0.3368
  935MOL0     H23419   0.797   4.579   3.165 -0.6193 -2.5141  0.4186
  935MOL0     H23420   0.999   4.652   3.069 -1.0182 -1.1701 -0.2085
  936MOL0     O23421   0.120   8.060   4.493 -0.2364 -0.8239  0.3116
  936MOL0     C23422   0.097   7.988   4.395 -0.6028 -0.0759 -0.1936
  936MOL0     O23423   0.161   7.867   4.366  0.3029  0.0960  0.0407
  936MOL0     C23424   0.239   7.811   4.467 -0.0811 -0.3213 -0.3772
  936MOL0     C23425   0.196   7.786   4.598  0.2024  0.0836  0.3407
  936MOL0     C23426   0.290   7.749   4.697  0.6265 -1.0537  0.2197
  936MOL0     C23427   0.426   7.746   4.665  0.0190 -1.3721  0.0291
  936MOL0     O23428   0.507   7.711   4.766  0.4822  0.0455  0.1207
  936MOL0     C23429   0.586   7.592   4.747  0.8686  0.3368  0.0401
  936MOL0     C23430   0.651   7.542   4.877 -0.5943 -0.1693 -1.1603
  936MOL0     C23431   0.764   7.630   4.931  0.2302 -1.5533  0.4681
  936MOL0     C23432   0.831   7.564   5.049 -0.1251 -0.2257 -1.1035
  936MOL0     C23433   0.922   7.684   5.105  1.0881 -0.3098  0.3789
  936MOL0     C23434   1.031   7.642   5.200 -0.4056 -0.0121  0.4478
  936MOL0     C23435   1.095   7.755   5.276  0.2415  0.0767 -0.9133
  936MOL0     C23436   1.213   7.811   5.192  0.2848 -0.0421  0.9009
  936MOL0     N23437   1.171   7.870   5.067  0.6853  0.4549  0.0360
  936MOL0     C23438   1.099   7.989   5.060  0.7766 -0.4400  1.0642
  936MOL0     C23439   1.097   8.017   4.924  0.1520 -0.1269 -0.2957
  936MOL0     C23440   1.033   8.129   4.849  0.5310  0.9967 -0.2518
  936MOL0     C23441   0.902   8.094   4.774 -0.5167 -1.3528  0.2366
  936MOL0     C23442   0.792   8.031   4.860  0.5788  0.1873  0.1757
  936MOL0     C23443   0.655   8.056   4.789 -0.2932  0.3069 -0.1271
  936MOL0     O23444   0.586   8.141   4.878  0.6000 -0.0988 -0.3782
  936MOL0     C23445   0.497   8.228   4.826 -0.0407 -0.5770 -0.2223
  936MOL0     C23446   0.414   8.190   4.711  0.1618 -0.6286  0.1127
  936MOL0     C23447   0.314   8.277   4.661 -1.1810 -1.1533 -0.2032
  936MOL0     C23448   0.296   8.403   4.730  0.4222  0.5077  0.3861
  936MOL0     C23449   0.184   8.485   4.677  0.1134  0.2924 -1.2330
  936MOL0     O23450   0.197   8.624   4.699 -0.3060  0.3536 -0.2372
  936MOL0     C23451   0.094   8.701   4.671  0.3253  0.0682  0.1667
  936MOL0     C23452   0.028   8.701   4.546  0.7050  0.7732 -0.1654
  936MOL0     C23453  -0.078   8.786   4.523 -0.8496  0.6342  0.5567
  936MOL0     C23454  -0.139   8.857   4.622  1.0946 -0.4851  0.3134
  936MOL0     O23455  -0.257   8.916   4.582  0.0910  0.2240  0.0529
  936MOL0     C23456  -0.303   9.042   4.635  0.1589  0.1636  0.3997
  936MOL0     C23457  -0.193   9.141   4.632  1.0965  0.2564 -0.4961
  936MOL0     C23458  -0.251   9.288   4.617 -0.7139 -0.3598 -0.2639
  936MOL0     C23459  -0.380   9.321   4.716  0.8911  0.1595  0.3033
  936MOL0     C23460  -0.381   9.462   4.777 -0.1405 -0.6936 -0.8057
  936MOL0     C23461  -0.298   9.454   4.907  0.2468  0.3772  0.3239
  936MOL0     C23462  -0.217   9.585   4.936  1.0728  0.3933  0.1049
  936MOL0     C23463  -0.175   9.594   5.086 -0.2632 -0.1862  1.3930
  936MOL0    Cl23464  -0.029   9.499   5.126  0.0653  0.1847 -0.3440
  936MOL0     C23465  -0.080   8.854   4.746  0.0969  1.1349 -0.5897
  936MOL0     C23466   0.041   8.782   4.770 -0.0690  0.2283  1.3664
  936MOL0     O23467   0.100   8.423   4.616  0.0009 -0.5293 -0.2977
  936MOL0     C23468   0.374   8.433   4.841 -1.0160  0.2749  0.5623
  936MOL0     C23469   0.476   8.353   4.892 -0.1932  0.0663  0.3727
  936MOL0     N23470   1.151   7.908   4.858  0.4653 -0.3906 -1.1130
  936MOL0     N23471   1.200   7.825   4.942 -0.4030  0.4037  0.6326
  936MOL0     C23472   0.467   7.761   4.531 -0.6586  0.2836 -0.3914
  936MOL0     C23473   0.375   7.788   4.433  0.9346 -0.3438  0.8309
  936MOL0     C23474  -0.010   8.025   4.299 -0.4729  0.1962 -0.6356
  936MOL0     C23475  -0.117   8.105   4.354 -0.2660 -0.5424  0.9038
  936MOL0     C23476  -0.226   8.138   4.261 -0.1357 -0.9347 -0.0054
  936MOL0     C23477  -0.232   8.116   4.123  0.6058  0.9344 -0.3321
  936MOL0     O23478  -0.333   8.176   4.047 -0.0090 -0.7406  0.1630
  936MOL0     C23479  -0.351   8.133   3.913  0.3234 -0.1094 -0.3645
  936MOL0     C23480  -0.456   8.219   3.847  0.4494 -0.4668  0.5794
  936MOL0     C23481  -0.407   8.358   3.847 -0.6639 -1.2845 -0.0391
  936MOL0     C23482  -0.491   8.463   3.783 -0.8246 -0.5138 -0.6384
  936MOL0     C23483  -0.411   8.592   3.766  0.7137 -0.6559  0.2106
  936MOL0     C23484  -0.343   8.689   3.755  1.0416 -0.1967 -0.2937
  936MOL0     C23485  -0.120   8.042   4.077 -0.1460 -1.0067  0.4040
  936MOL0     C23486  -0.015   7.993   4.166 -0.0845  0.1245 -0.1560
  936MOL0     H23487   0.094   7.799   4.634  0.0447  2.0487 -0.6583
  936MOL0     H23488   0.262   7.745   4.802  0.7882 -0.2741  0.3003
  936MOL0     H23489   0.658   7.607   4.666  3.0073 -1.0636  1.5789
  936MOL0     H23490   0.514   7.515   4.718 -1.0811  1.5500  1.4089
  936MOL0     H23491   0.687   7.439   4.877  2.8642  0.9274 -1.5430
  936MOL0     H23492   0.573   7.547   4.954  1.9741  0.3825  1.5639
  936MOL0     H23493   0.728   7.727   4.966  1.3629 -0.6007 -0.9138
  936MOL0     H23494   0.827   7.651   4.845  0.9715 -2.2028  0.8414
  936MOL0     H23495   0.780   7.521   5.135  1.5770  3.7467  2.1701
  936MOL0     H23496   0.893   7.484   5.007  2.0164  0.9251 -0.2364
  936MOL0     H23497   0.858   7.749   5.164 -0.2096 -2.5652  1.5952
  936MOL0     H23498   0.959   7.749   5.025 -1.9062  0.4294 -0.5403
  936MOL0     H23499   1.105   7.573   5.158 -0.4501  1.4545 -2.2678
  936MOL0     H23500   0.985   7.574   5.273 -0.7838  1.7288  1.9076
  936MOL0     H23501   1.022   7.834   5.296  0.1616 -0.2571  0.1445
  936MOL0     H23502   1.131   7.720   5.373  0.5062  2.3884 -0.1200
  936MOL0     H23503   1.272   7.720   5.177 -1.1912 -1.5506  3.4569
  936MOL0     H23504   1.277   7.875   5.254 -1.3946  0.7568  1.9058
  936MOL0     H23505   1.073   8.046   5.148  2.1939 -1.8641  2.5017
  936MOL0     H23506   1.095   8.168   4.768 -0.5162  1.4429 -0.8639
  936MOL0     H23507   1.010   8.208   4.921 -0.7588  1.0003 -0.6409
  936MOL0     H23508   0.924   8.046   4.678 -0.4544  0.7528 -0.8673
  936MOL0     H23509   0.859   8.189   4.739 -0.1863 -1.0473  0.6467
  936MOL0     H23510   0.807   7.923   4.860 -2.1974 -0.3777 -3.0079
  936MOL0     H23511   0.787   8.060   4.965  2.5218  1.6953 -0.1023
  936MOL0     H23512   0.612   7.959   4.765  1.0585 -0.4600  0.4299
  936MOL0     H23513   0.669   8.103   4.692 -3.3852 -0.4937 -1.0772
  936MOL0     H23514   0.420   8.096   4.657 -0.9275  0.4181 -1.9991
  936MOL0     H23515   0.246   8.236   4.587 -2.2439 -1.1247  0.7284
  936MOL0     H23516   0.056   8.624   4.475 -0.6489 -1.7886  1.8621
  936MOL0     H23517  -0.126   8.801   4.427 -4.4547 -1.0469  1.8978
  936MOL0     H23518  -0.331   9.022   4.739 -2.1970 -0.3543 -0.2924
  936MOL0     H23519  -0.395   9.073   4.585  1.5755  0.3644 -2.2566
  936MOL0     H23520  -0.119   9.118   4.555  1.7667 -0.2557  0.2707
  936MOL0     H23521  -0.142   9.132   4.729 -0.2035  0.0475  0.1896
  936MOL0     H23522  -0.288   9.306   4.515  0.3616  0.7493 -0.4706
  936MOL0     H23523  -0.173   9.364   4.625 -2.7805  2.2819 -2.9435
  936MOL0     H23524  -0.467   9.318   4.649  1.4794  1.4204 -0.5645
  936MOL0     H23525  -0.395   9.237   4.784 -1.2824 -0.1676 -0.4820
  936MOL0     H23526  -0.478   9.511   4.790  2.0427  3.5741  1.4400
  936MOL0     H23527  -0.343   9.525   4.696  0.0769 -1.1501 -1.0623
  936MOL0     H23528  -0.214   9.385   4.898  0.7201  0.8835  0.7460
  936MOL0     H23529  -0.357   9.417   4.991  0.0316 -1.9157 -0.7878
  936MOL0     H23530  -0.122   9.584   4.881  0.8856 -3.2002 -0.3872
  936MOL0     H23531  -0.285   9.665   4.905 -1.5290 -1.8358 -0.2876
  936MOL0     H23532  -0.262   9.554   5.139 -0.3826 -1.2228  0.4746
  936MOL0     H23533  -0.162   9.699   5.111 -0.0983 -0.4279  2.3624
  936MOL0     H23534  -0.134   8.913   4.820  0.5923  0.7706  0.0765
  936MOL0     H23535   0.087   8.798   4.867  0.9406  1.1455  0.7600
  936MOL0     H23536   0.359   8.533   4.881 -0.6348  0.6416 -0.2016
  936MOL0     H23537   0.549   8.386   4.965  0.8325  2.4662 -1.5899
  936MOL0     H23538   0.574   7.762   4.514 -0.6452  1.2319 -0.3008
  936MOL0     H23539   0.417   7.820   4.339 -0.6535  0.6888  0.4292
  936MOL0     H23540  -0.143   8.120   4.459 -2.4901 -2.5237  0.7161
  936MOL0     H23541  -0.311   8.191   4.302 -0.8846 -2.8798  1.0913
  936MOL0     H23542  -0.374   8.027   3.927  1.6058 -0.3538  0.0440
  936MOL0     H23543  -0.254   8.138   3.863  0.3944 -0.2489 -0.2426
  936MOL0     H23544  -0.469   8.191   3.742 -2.1081 -0.8401  0.9316
  936MOL0     H23545  -0.553   8.218   3.898  0.6000  1.3414  0.9674
  936MOL0     H23546  -0.308   8.356   3.800 -0.6059  0.3675 -0.0473
  936MOL0     H23547  -0.391   8.393   3.949 -1.9269  5.3652 -1.6480
  936MOL0     H23548  -0.517   8.421   3.686  1.8550 -1.9675 -0.8139
  936MOL0     H23549  -0.576   8.487   3.848 -0.7562  0.4637 -0.8902
  936MOL0     H23550  -0.273   8.770   3.752  2.1473 -0.8011  3.7435
  936MOL0     H23551  -0.118   8.014   3.972 -2.5690  0.1704 -0.0279
  936MOL0     H23552   0.050   7.916   4.125 -0.0650 -1.4240  2.5319
  937MOL0     O23553   8.268   2.644   6.419 -0.2314  0.4690 -0.3189
  937MOL0     C23554   8.215   2.673   6.529  0.1986  0.0117 -0.3004
  937MOL0     O23555   8.208   2.794   6.571 -0.4418 -0.5609 -0.6788
  937MOL0     C23556   8.274   2.889   6.500  0.4518  0.4417 -0.4431
  937MOL0     C23557   8.409   2.923   6.523 -0.8153 -0.0841  0.6665
  937MOL0     C23558   8.466   3.029   6.450  0.2409  0.4421 -0.1567
  937MOL0     C23559   8.400   3.083   6.340 -0.1359  0.0241 -0.0022
  937MOL0     O23560   8.467   3.177   6.259 -0.1967 -0.0037 -0.0955
  937MOL0     C23561   8.412   3.221   6.138 -0.3046 -0.4598 -1.1986
  937MOL0     C23562   8.495   3.306   6.043 -0.0830  0.2385 -0.3602
  937MOL0     C23563   8.583   3.411   6.113 -0.1595 -0.6988 -0.0245
  937MOL0     C23564   8.659   3.498   6.019  0.7081  0.7115 -0.0829
  937MOL0     C23565   8.671   3.641   6.069  0.9284 -0.1953 -0.4790
  937MOL0     C23566   8.650   3.747   5.960 -0.3867  0.3257 -0.0185
  937MOL0     C23567   8.745   3.776   5.847 -0.5778 -1.0145 -0.3951
  937MOL0     C23568   8.888   3.800   5.899  0.5411 -0.9520 -0.2747
  937MOL0     N23569   8.894   3.937   5.950  0.2411  0.0881  0.3177
  937MOL0     C23570   8.991   3.975   6.036 -0.8311  0.3961  0.5201
  937MOL0     C23571   8.978   4.113   6.058  0.1812 -0.1756  0.5095
  937MOL0     C23572   9.070   4.206   6.125 -1.0335 -0.4055 -0.0181
  937MOL0     C23573   9.154   4.291   6.018  0.2690  0.5131 -0.2337
  937MOL0     C23574   9.233   4.202   5.924 -0.2954 -0.9706  0.1337
  937MOL0     C23575   9.330   4.264   5.828 -0.5568  0.7696  0.2589
  937MOL0     O23576   9.368   4.186   5.713  0.7285 -0.3485  0.0484
  937MOL0     C23577   9.412   4.054   5.734  0.6483  0.6028  0.7452
  937MOL0     C23578   9.537   4.031   5.755  0.0978 -0.6596 -0.1741
  937MOL0     C23579   9.577   3.900   5.782 -0.1078 -0.1028 -1.8124
  937MOL0     C23580   9.489   3.790   5.783 -0.1499  0.7359 -0.9712
  937MOL0     C23581   9.545   3.651   5.792 -0.6670  0.1198 -0.6558
  937MOL0     O23582   9.683   3.636   5.771 -0.9964 -0.9077  0.5471
  937MOL0     C23583   9.706   3.518   5.706 -0.7784 -0.3803  0.7728
  937MOL0     C23584   9.706   3.498   5.568 -0.0132 -0.6751  0.1207
  937MOL0     C23585   9.726   3.371   5.514 -0.5950 -0.2621  0.7137
  937MOL0     C23586   9.762   3.259   5.592  0.8454  0.0026 -0.0790
  937MOL0     O23587   9.802   3.148   5.530 -0.3560  0.4932 -0.0539
  937MOL0     C23588   9.685   3.075   5.476 -0.1097  0.5986  1.5487
  937MOL0     C23589   9.725   3.007   5.342 -0.2787 -0.2063 -0.8281
  937MOL0     C23590   9.739   3.098   5.228  1.4960 -0.7219 -0.5559
  937MOL0     C23591   9.732   3.028   5.082 -0.7223  0.9399 -0.9097
  937MOL0     C23592   9.838   2.921   5.049  0.3636  0.1442  0.0904
  937MOL0     C23593   9.861   2.902   4.900 -0.1436  1.3035 -0.2591
  937MOL0     C23594   9.949   2.781   4.863  0.3462  0.0793 -0.0912
  937MOL0     C23595  10.093   2.812   4.887 -0.3196 -1.0438 -0.2249
  937MOL0    Cl23596  10.192   2.661   4.876 -0.0620 -0.2886 -0.1120
  937MOL0     C23597   9.779   3.286   5.728 -0.3990  0.2675  0.3453
  937MOL0     C23598   9.758   3.420   5.781 -0.0907  0.1861 -0.2841
  937MOL0     O23599   9.463   3.561   5.775  1.4194  0.8461 -0.4929
  937MOL0     C23600   9.354   3.811   5.758  0.1888 -0.7457 -0.4972
  937MOL0     C23601   9.326   3.955   5.735  1.2506  0.3177  0.1202
  937MOL0     N23602   8.886   4.151   5.966 -0.1996  0.4276  0.0196
  937MOL0     N23603   8.840   4.048   5.898  0.0600  0.0511 -0.5311
  937MOL0     C23604   8.274   3.039   6.313  0.3336 -0.0195 -0.4220
  937MOL0     C23605   8.204   2.945   6.393  0.7533 -0.2762 -0.8045
  937MOL0     C23606   8.153   2.567   6.617  0.0963 -0.1952 -0.0124
  937MOL0     C23607   8.110   2.610   6.741  0.4189  0.0656  0.3418
  937MOL0     C23608   8.063   2.521   6.835 -0.3905  0.8071 -0.1693
  937MOL0     C23609   8.045   2.383   6.802  0.6697 -0.9139 -0.2071
  937MOL0     O23610   7.976   2.294   6.877  0.0641 -0.0040 -0.7058
  937MOL0     C23611   7.921   2.323   7.002  0.6142 -0.4544 -0.2379
  937MOL0     C23612   7.768   2.342   6.992  0.2923 -1.3896  0.0838
  937MOL0     C23613   7.705   2.344   7.138 -1.0840 -0.1538  0.1594
  937MOL0     C23614   7.667   2.480   7.212  0.2055  0.6850  0.8434
  937MOL0     C23615   7.795   2.526   7.260  0.0595  0.0909  0.2518
  937MOL0     C23616   7.900   2.539   7.320  0.5650  0.1119 -0.4410
  937MOL0     C23617   8.113   2.346   6.688 -0.5602  0.8396 -0.7716
  937MOL0     C23618   8.159   2.437   6.593  1.2090 -0.1541  0.1265
  937MOL0     H23619   8.478   2.877   6.593 -2.8756 -2.6132  1.2017
  937MOL0     H23620   8.568   3.061   6.470 -0.1090  0.5259  1.6344
  937MOL0     H23621   8.323   3.277   6.168  1.3549  1.8998 -0.3573
  937MOL0     H23622   8.382   3.130   6.086  0.3984 -0.7671 -1.0671
  937MOL0     H23623   8.424   3.344   5.969 -1.1235  0.8784  0.9231
  937MOL0     H23624   8.561   3.238   5.988 -1.7631 -2.2397  0.4683
  937MOL0     H23625   8.659   3.365   6.176  0.5271  1.9756  1.2463
  937MOL0     H23626   8.525   3.471   6.184 -0.5151  0.3544 -1.1785
  937MOL0     H23627   8.754   3.451   5.995 -0.2414 -1.6740  0.5824
  937MOL0     H23628   8.597   3.507   5.930  0.2294  0.0235  0.1725
  937MOL0     H23629   8.765   3.653   6.124 -1.0221 -0.2588  3.2484
  937MOL0     H23630   8.604   3.656   6.155  2.2208  0.1384  0.5059
  937MOL0     H23631   8.642   3.841   6.016  2.0364 -0.7245  2.3241
  937MOL0     H23632   8.551   3.745   5.913 -2.7545  4.1136  4.0540
  937MOL0     H23633   8.749   3.685   5.786 -0.1185 -2.2338  1.3804
  937MOL0     H23634   8.707   3.852   5.779  0.6080  1.8328  1.9057
  937MOL0     H23635   8.962   3.782   5.821 -0.1875 -1.9699 -0.7498
  937MOL0     H23636   8.911   3.728   5.978 -1.0277 -1.7091 -0.4673
  937MOL0     H23637   9.051   3.913   6.102 -1.3879  0.0150  0.6784
  937MOL0     H23638   9.140   4.146   6.185 -2.7079 -0.6404  1.8007
  937MOL0     H23639   9.025   4.272   6.200 -0.6399 -1.5721  1.3091
  937MOL0     H23640   9.218   4.365   6.067  0.8076  0.4686 -0.8520
  937MOL0     H23641   9.083   4.339   5.950  0.2364  0.4576 -0.2395
  937MOL0     H23642   9.292   4.149   5.999 -0.1885  0.9296  1.4667
  937MOL0     H23643   9.159   4.137   5.876 -1.3914 -0.8896  1.6246
  937MOL0     H23644   9.428   4.275   5.876  1.1865 -1.3429 -2.4562
  937MOL0     H23645   9.292   4.356   5.782 -0.9596 -0.3859 -1.8336
  937MOL0     H23646   9.607   4.114   5.758  0.7392 -1.1737 -0.6190
  937MOL0     H23647   9.678   3.869   5.805 -1.0472 -2.2233 -0.1757
  937MOL0     H23648   9.692   3.588   5.508  1.1219  0.1704  1.0812
  937MOL0     H23649   9.695   3.368   5.411 -0.0093 -1.5632  0.5539
  937MOL0     H23650   9.599   3.141   5.459  1.0854  2.1730  1.3641
  937MOL0     H23651   9.646   3.005   5.551  0.0944  1.8333  2.8617
  937MOL0     H23652   9.651   2.930   5.318 -0.0338 -0.7630  0.1576
  937MOL0     H23653   9.818   2.949   5.347 -1.0080 -1.3506 -0.0424
  937MOL0     H23654   9.839   3.142   5.240 -0.0876  3.1185 -0.2449
  937MOL0     H23655   9.665   3.176   5.246  2.9254  0.1174  2.2453
  937MOL0     H23656   9.637   2.973   5.079  0.9464 -2.2063 -0.1546
  937MOL0     H23657   9.728   3.106   5.005 -0.8790  2.0453  0.2053
  937MOL0     H23658   9.805   2.830   5.100  1.2843  0.0222  0.4907
  937MOL0     H23659   9.927   2.953   5.104  1.0101 -1.3198 -0.0382
  937MOL0     H23660   9.912   2.993   4.868  1.7328  1.3290  2.4837
  937MOL0     H23661   9.771   2.910   4.838  1.5045  3.7640 -2.5497
  937MOL0     H23662   9.911   2.699   4.924  2.6658 -0.9700  0.0418
  937MOL0     H23663   9.933   2.745   4.761 -1.8215 -2.2600  0.9660
  937MOL0     H23664  10.119   2.857   4.983  0.0090  1.4642 -1.4059
  937MOL0     H23665  10.124   2.894   4.821 -1.3730  1.4896  2.1913
  937MOL0     H23666   9.833   3.207   5.779 -1.3958 -1.0232 -0.5095
  937MOL0     H23667   9.775   3.446   5.885 -0.9782 -0.3967  0.0182
  937MOL0     H23668   9.278   3.735   5.768 -0.8127  0.4516  2.1311
  937MOL0     H23669   9.225   3.987   5.715  0.8309 -0.6172  0.6848
  937MOL0     H23670   8.218   3.078   6.229 -0.6451 -2.2465 -0.8668
  937MOL0     H23671   8.101   2.917   6.379  0.3446  0.6278  0.1928
  937MOL0     H23672   8.108   2.717   6.757 -1.0396  0.3899 -1.6309
  937MOL0     H23673   8.035   2.567   6.930 -2.5090 -2.0600  0.7486
  937MOL0     H23674   7.961   2.411   7.054 -2.0662  0.7821 -0.0763
  937MOL0     H23675   7.939   2.231   7.058 -0.3405 -0.3957  0.1848
  937MOL0     H23676   7.749   2.442   6.950 -2.8924 -1.4506  1.1520
  937MOL0     H23677   7.736   2.269   6.917  0.5756  0.1526 -1.6329
  937MOL0     H23678   7.769   2.284   7.203  0.6941  0.9518 -0.5193
  937MOL0     H23679   7.602   2.306   7.128 -1.7068  1.7639 -1.2683
  937MOL0     H23680   7.620   2.546   7.139 -0.8873 -3.5614 -2.6986
  937MOL0     H23681   7.606   2.459   7.300 -1.1458 -1.4613 -0.5333
  937MOL0     H23682   7.997   2.562   7.357  0.1888  0.9076  0.0743
  937MOL0     H23683   8.106   2.240   6.667 -3.2024  0.9009 -0.4652
  937MOL0     H23684   8.209   2.397   6.505  4.4370 -1.5530  2.3724
  938MOL0     O23685   4.094   5.959   7.856  0.4539  0.3511 -0.2924
  938MOL0     C23686   4.181   5.896   7.796 -0.0683 -0.2176  0.0622
  938MOL0     O23687   4.154   5.809   7.696  0.1571 -0.3897  0.1752
  938MOL0     C23688   4.027   5.809   7.656  1.1373 -0.7560 -1.5404
  938MOL0     C23689   3.993   5.865   7.534  0.4865 -0.7941  1.0323
  938MOL0     C23690   3.863   5.857   7.488 -0.6032  0.6866 -0.6533
  938MOL0     C23691   3.757   5.827   7.580 -0.3923  1.0242 -0.0656
  938MOL0     O23692   3.619   5.821   7.547  0.2257  0.2586 -0.3428
  938MOL0     C23693   3.578   5.859   7.420  0.5135  0.0343 -0.4528
  938MOL0     C23694   3.423   5.862   7.427 -0.1083 -0.3234 -0.1427
  938MOL0     C23695   3.363   5.917   7.295 -0.7347  0.2186 -0.1602
  938MOL0     C23696   3.373   6.071   7.283  0.2109  0.2996  0.0828
  938MOL0     C23697   3.292   6.124   7.164  0.2259 -0.2745 -0.8505
  938MOL0     C23698   3.358   6.112   7.024 -0.2994  0.1493 -0.0078
  938MOL0     C23699   3.466   6.222   7.012 -0.6043  0.9671  0.6218
  938MOL0     C23700   3.561   6.203   6.894 -0.0095  0.7873  0.0604
  938MOL0     N23701   3.479   6.217   6.773 -0.2136 -0.4089  0.1393
  938MOL0     C23702   3.370   6.293   6.743  0.6621 -0.2911  0.5446
  938MOL0     C23703   3.320   6.254   6.622 -0.0163 -0.3266  0.0450
  938MOL0     C23704   3.210   6.285   6.522  1.0012  0.4349  0.2675
  938MOL0     C23705   3.228   6.426   6.465  0.9270 -0.1154 -0.2360
  938MOL0     C23706   3.202   6.531   6.572 -0.2233 -0.8645 -0.0264
  938MOL0     C23707   3.322   6.632   6.581 -0.5056 -0.1764  0.6258
  938MOL0     O23708   3.426   6.574   6.652 -0.4868  0.4227 -0.5716
  938MOL0     C23709   3.537   6.661   6.656  0.3529  0.6832 -0.0140
  938MOL0     C23710   3.624   6.627   6.767 -0.1185 -0.2635 -0.5295
  938MOL0     C23711   3.748   6.684   6.782 -0.7614 -0.8419  0.1180
  938MOL0     C23712   3.794   6.783   6.692 -0.3064 -0.6546 -0.3388
  938MOL0     C23713   3.933   6.835   6.701  0.7384 -0.5612 -1.3429
  938MOL0     O23714   3.962   6.947   6.635  0.3938  0.1012 -0.1086
  938MOL0     C23715   4.063   7.034   6.677  0.6211 -0.0505 -0.5549
  938MOL0     C23716   4.071   7.087   6.809 -0.0275  0.5968  0.4441
  938MOL0     C23717   4.163   7.186   6.842 -0.0973 -0.1659  0.7214
  938MOL0     C23718   4.249   7.226   6.736 -0.0609  0.7145 -0.2460
  938MOL0     O23719   4.349   7.314   6.761 -0.5270  0.2471  0.3381
  938MOL0     C23720   4.474   7.247   6.770  0.7623 -0.1930 -0.0488
  938MOL0     C23721   4.577   7.328   6.842 -0.6043  0.5003  0.4277
  938MOL0     C23722   4.665   7.412   6.746  0.8274 -0.1946 -0.7988
  938MOL0     C23723   4.757   7.504   6.805  0.2119 -1.0219 -1.5828
  938MOL0     C23724   4.685   7.625   6.864  0.7854  0.1753 -0.2829
  938MOL0     C23725   4.774   7.711   6.966 -0.3005  0.5177  0.5587
  938MOL0     C23726   4.748   7.672   7.120 -0.1719 -0.1632 -0.9438
  938MOL0     C23727   4.807   7.791   7.208 -0.3614  0.5605 -0.2331
  938MOL0    Cl23728   4.980   7.805   7.175  0.2714  0.2692  0.1988
  938MOL0     C23729   4.233   7.190   6.609 -0.6014  0.3989  0.1509
  938MOL0     C23730   4.145   7.089   6.577  1.1776 -0.8912 -0.7039
  938MOL0     O23731   4.021   6.777   6.762 -0.6991  0.0789  0.4874
  938MOL0     C23732   3.709   6.826   6.587 -0.6638  1.7081  0.5434
  938MOL0     C23733   3.585   6.762   6.576 -0.2431 -0.2839  0.1313
  938MOL0     N23734   3.406   6.153   6.574  0.0840 -0.7367 -0.0898
  938MOL0     N23735   3.496   6.136   6.664 -0.6217  0.4847 -0.4505
  938MOL0     C23736   3.791   5.784   7.712  0.3405 -0.1735 -0.0527
  938MOL0     C23737   3.926   5.765   7.744 -0.3918 -0.6016 -0.7986
  938MOL0     C23738   4.319   5.943   7.833 -0.6974  0.6060  0.1425
  938MOL0     C23739   4.438   5.915   7.764  0.0190  0.7436 -1.1030
  938MOL0     C23740   4.568   5.934   7.808 -0.4529 -0.3005 -1.4860
  938MOL0     C23741   4.582   5.991   7.937 -0.2966  0.0295 -0.7094
  938MOL0     O23742   4.702   6.014   8.004  0.8548  0.2128 -0.1723
  938MOL0     C23743   4.817   5.939   7.956  0.1313  0.0929  0.7970
  938MOL0     C23744   4.899   6.005   7.845 -0.3444 -0.0848 -0.0989
  938MOL0     C23745   4.975   6.135   7.890  0.2823 -0.5259 -0.4498
  938MOL0     C23746   5.051   6.215   7.783 -0.4888 -0.2672  0.0421
  938MOL0     C23747   5.162   6.310   7.820 -0.5849 -0.9082 -0.9177
  938MOL0     C23748   5.245   6.394   7.838 -1.4620  0.1899 -0.1889
  938MOL0     C23749   4.461   6.018   8.016  0.3000  0.2738 -0.2895
  938MOL0     C23750   4.340   5.992   7.966  0.1272 -0.4935 -0.6461
  938MOL0     H23751   4.075   5.900   7.471  0.4634 -0.4362  1.1960
  938MOL0     H23752   3.860   5.856   7.379  2.3872 -1.2405 -0.8340
  938MOL0     H23753   3.625   5.782   7.359  0.8556  1.0223 -1.4629
  938MOL0     H23754   3.614   5.960   7.400  0.4854  1.2909  4.4363
  938MOL0     H23755   3.390   5.926   7.510 -1.5053  0.7577 -1.4657
  938MOL0     H23756   3.383   5.766   7.461  2.4886 -0.5137  2.8885
  938MOL0     H23757   3.257   5.888   7.289 -1.3798  2.6754 -2.0546
  938MOL0     H23758   3.412   5.873   7.208  0.0864 -0.9226  0.8391
  938MOL0     H23759   3.332   6.114   7.375 -0.8700  1.3584 -0.8731
  938MOL0     H23760   3.475   6.111   7.282 -0.7249  3.0257  1.7353
  938MOL0     H23761   3.268   6.231   7.170  0.5642 -0.2685  2.9788
  938MOL0     H23762   3.199   6.066   7.155 -1.4075  2.0548 -0.0988
  938MOL0     H23763   3.285   6.120   6.943 -0.5307 -0.1286  0.1683
  938MOL0     H23764   3.395   6.009   7.017 -1.1250 -0.2337  0.8574
  938MOL0     H23765   3.434   6.326   7.027 -0.1389  1.0897  0.7742
  938MOL0     H23766   3.528   6.207   7.101  2.3903  0.2842 -1.4423
  938MOL0     H23767   3.603   6.105   6.917  1.7541  2.1148  3.1272
  938MOL0     H23768   3.645   6.273   6.900  1.3245 -0.3189 -3.1178
  938MOL0     H23769   3.332   6.371   6.808 -0.1545 -1.2668  1.2613
  938MOL0     H23770   3.110   6.286   6.567  1.5157  1.4442  1.4184
  938MOL0     H23771   3.210   6.210   6.442  1.9316 -0.1417  0.7896
  938MOL0     H23772   3.163   6.452   6.381 -1.5649  2.1042  2.1507
  938MOL0     H23773   3.333   6.435   6.435  1.5540 -2.8679  0.8350
  938MOL0     H23774   3.106   6.581   6.559  0.2069 -0.6065 -2.8634
  938MOL0     H23775   3.194   6.484   6.670  0.7741  0.9798  0.9851
  938MOL0     H23776   3.296   6.731   6.620  1.6934  1.5491 -1.9719
  938MOL0     H23777   3.339   6.663   6.477  0.0970 -0.3940  0.6599
  938MOL0     H23778   3.603   6.544   6.834  1.4714  1.2503  2.0289
  938MOL0     H23779   3.808   6.649   6.865  2.6826 -2.6860 -2.8605
  938MOL0     H23780   4.012   7.035   6.883 -2.4255  0.5009 -1.3992
  938MOL0     H23781   4.192   7.219   6.941  2.0759  1.0241 -0.2338
  938MOL0     H23782   4.502   7.212   6.671 -0.1981  1.4460 -0.9379
  938MOL0     H23783   4.468   7.153   6.827  2.9761 -0.0195  0.5623
  938MOL0     H23784   4.640   7.268   6.909  2.1554  1.5434 -1.0801
  938MOL0     H23785   4.526   7.394   6.913 -0.1741  1.3462 -0.0427
  938MOL0     H23786   4.606   7.464   6.669 -1.3552  2.5940  2.4365
  938MOL0     H23787   4.727   7.343   6.689  0.4131  2.3204 -4.7198
  938MOL0     H23788   4.821   7.454   6.878  0.7248  1.5905 -0.1179
  938MOL0     H23789   4.825   7.551   6.733  0.0368  1.4615 -0.2413
  938MOL0     H23790   4.582   7.601   6.893  0.0261  3.5946  0.2967
  938MOL0     H23791   4.669   7.706   6.793  1.3049  1.6654  1.2364
  938MOL0     H23792   4.736   7.812   6.949  1.2135  0.9179 -0.6132
  938MOL0     H23793   4.881   7.708   6.941 -0.9791 -0.5737 -2.6205
  938MOL0     H23794   4.644   7.645   7.138 -0.0762  0.9646  1.7391
  938MOL0     H23795   4.798   7.580   7.151 -0.1641  0.9881  3.0723
  938MOL0     H23796   4.788   7.772   7.314 -0.5955  0.6750 -0.2537
  938MOL0     H23797   4.760   7.888   7.189  0.7250  1.3815  1.1447
  938MOL0     H23798   4.304   7.227   6.535 -1.7124  2.0663 -0.1532
  938MOL0     H23799   4.125   7.046   6.479  0.0912 -2.4250  0.1437
  938MOL0     H23800   3.739   6.894   6.508 -1.2870  1.9941  0.5482
  938MOL0     H23801   3.527   6.789   6.489 -1.8674  2.0698  1.8004
  938MOL0     H23802   3.714   5.773   7.788  1.7788  0.9695  1.6559
  938MOL0     H23803   3.966   5.720   7.835  0.4573  1.0301 -0.3346
  938MOL0     H23804   4.416   5.867   7.669  0.2902  0.0442 -0.8133
  938MOL0     H23805   4.651   5.909   7.744 -0.7855 -0.7783 -1.7331
  938MOL0     H23806   4.778   5.846   7.913  1.4305  0.6398 -1.7822
  938MOL0     H23807   4.880   5.919   8.043  1.4177  0.6256  0.0200
  938MOL0     H23808   4.972   5.930   7.812 -0.1574  0.5970 -1.2889
  938MOL0     H23809   4.855   6.025   7.746 -0.4570  0.9411  0.1478
  938MOL0     H23810   5.056   6.107   7.958 -0.8115 -0.0947  1.0804
  938MOL0     H23811   4.909   6.209   7.935 -2.4423 -1.6187 -2.3629
  938MOL0     H23812   5.106   6.149   7.715 -1.1983 -2.3623  1.4047
  938MOL0     H23813   4.992   6.281   7.720 -0.2716  1.9470  2.0113
  938MOL0     H23814   5.325   6.465   7.832 -1.3527 -0.0126 -1.3671
  938MOL0     H23815   4.466   6.065   8.114 -2.4886 -3.3059  1.8217
  938MOL0     H23816   4.256   6.014   8.031  0.9450 -1.5693  0.8381
  939MOL0     O23817   7.282   8.506   9.632  0.0580  0.2588  0.4348
  939MOL0     C23818   7.223   8.573   9.552  0.0272  0.3138  0.9130
  939MOL0     O23819   7.225   8.702   9.540  0.2643  0.5072 -0.0505
  939MOL0     C23820   7.323   8.766   9.600  0.6972  0.6969  0.2057
  939MOL0     C23821   7.458   8.746   9.586 -0.5639  0.0448 -0.0491
  939MOL0     C23822   7.551   8.821   9.656 -0.1016  0.6005 -0.1149
  939MOL0     C23823   7.513   8.924   9.745  0.3058  0.4526  1.0593
  939MOL0     O23824   7.614   9.000   9.793 -0.2331 -0.5913 -0.0939
  939MOL0     C23825   7.620   9.015   9.932  0.9690  1.2792  0.2899
  939MOL0     C23826   7.756   9.062   9.959  0.2547  0.4471  1.4436
  939MOL0     C23827   7.858   8.956   9.914  0.4177 -0.5285 -0.1914
  939MOL0     C23828   8.001   8.987   9.981  0.1071  1.1506  0.2605
  939MOL0     C23829   8.101   8.878   9.928  0.3221  0.1624  0.2008
  939MOL0     C23830   8.240   8.919   9.962  0.9383  0.9003  0.0755
  939MOL0     C23831   8.340   8.800   9.917  0.4346  0.2297  0.6847
  939MOL0     C23832   8.323   8.718   9.777 -0.0353 -0.5319  0.0424
  939MOL0     N23833   8.416   8.609   9.763  0.2641 -0.3162  0.1268
  939MOL0     C23834   8.541   8.617   9.714 -0.2475 -0.2926  0.9975
  939MOL0     C23835   8.579   8.486   9.708  0.1167 -0.7755  0.4183
  939MOL0     C23836   8.703   8.417   9.652 -0.3504 -0.9341  0.2995
  939MOL0     C23837   8.783   8.356   9.760  0.1366 -0.6061  0.5271
  939MOL0     C23838   8.895   8.265   9.700 -0.2656 -0.1618 -0.2305
  939MOL0     C23839   9.009   8.237   9.806 -1.5392  0.1495 -0.0601
  939MOL0     O23840   9.126   8.167   9.753  0.1278  0.5753  0.0711
  939MOL0     C23841   9.105   8.029   9.725  0.5921 -0.7197  0.0467
  939MOL0     C23842   9.195   7.971   9.641 -0.4523 -0.4132 -0.1158
  939MOL0     C23843   9.184   7.836   9.595 -0.5433 -0.5431  0.2316
  939MOL0     C23844   9.085   7.762   9.648  0.5600  0.3524 -0.4846
  939MOL0     C23845   9.079   7.611   9.626  1.1264  0.0741 -0.1314
  939MOL0     O23846   8.959   7.541   9.663 -0.0121  0.5752  0.0175
  939MOL0     C23847   8.952   7.403   9.662 -0.3390  0.8727 -0.3394
  939MOL0     C23848   8.930   7.326   9.784 -1.3003 -0.5376 -0.1259
  939MOL0     C23849   8.927   7.188   9.779 -0.6275  0.6423 -0.6335
  939MOL0     C23850   8.934   7.115   9.659  0.1188 -0.3250 -0.4592
  939MOL0     O23851   8.929   6.981   9.643 -0.3671  0.0100 -0.1779
  939MOL0     C23852   8.937   6.904   9.770 -1.2693  0.3608  0.8158
  939MOL0     C23853   8.945   6.756   9.713 -0.3378 -0.0816 -0.4365
  939MOL0     C23854   8.965   6.662   9.823 -0.3982  0.2728 -0.9203
  939MOL0     C23855   8.953   6.510   9.791 -1.0481 -0.0874 -0.6719
  939MOL0     C23856   8.951   6.424   9.911 -0.1581 -0.3972  0.1427
  939MOL0     C23857   8.939   6.279   9.857  0.2493  0.5923 -0.2698
  939MOL0     C23858   8.959   6.170   9.965  0.9820  0.2433 -0.9707
  939MOL0     C23859   9.106   6.147   9.996 -0.8615  0.4591  0.6898
  939MOL0    Cl23860   9.215   6.090   9.857  0.1080  0.1762 -0.3255
  939MOL0     C23861   8.947   7.183   9.547 -0.0032  0.2859  0.0920
  939MOL0     C23862   8.958   7.325   9.542 -0.2505 -0.2259  0.1936
  939MOL0     O23863   9.167   7.561   9.567  0.3187 -0.4445  0.4416
  939MOL0     C23864   8.993   7.817   9.733  1.1955 -0.2850 -0.6318
  939MOL0     C23865   8.996   7.948   9.769  0.3169  0.1049 -0.7268
  939MOL0     N23866   8.472   8.406   9.728  0.0325 -0.1976 -0.0867
  939MOL0     N23867   8.381   8.482   9.784 -0.1067 -0.8119  0.4161
  939MOL0     C23868   7.376   8.940   9.768  0.2836  0.5132  0.6800
  939MOL0     C23869   7.278   8.853   9.698  0.3049 -0.2535 -0.5539
  939MOL0     C23870   7.108   8.507   9.486  0.7847 -0.1127  0.3918
  939MOL0     C23871   7.012   8.592   9.420  0.8319  0.0574 -0.9264
  939MOL0     C23872   6.890   8.531   9.371  0.2433 -0.2250  0.5817
  939MOL0     C23873   6.863   8.401   9.391  0.0848 -0.4789  0.2692
  939MOL0     O23874   6.752   8.344   9.334 -0.5288  0.5431  0.0488
  939MOL0     C23875   6.628   8.391   9.380 -0.2794  0.1486 -0.1310
  939MOL0     C23876   6.521   8.282   9.363 -0.0344  0.6620 -0.1159
  939MOL0     C23877   6.467   8.241   9.501 -0.3144  0.3157 -0.2324
  939MOL0     C23878   6.395   8.115   9.490  0.3298  1.1249  0.3239
  939MOL0     C23879   6.321   8.076   9.602 -0.1058 -0.4345 -0.6383
  939MOL0     C23880   6.270   8.050   9.711  0.1523 -0.0154 -0.1305
  939MOL0     C23881   6.964   8.315   9.436  0.2011 -0.9259 -0.6724
  939MOL0     C23882   7.088   8.374   9.488 -0.7215 -0.1812  0.7136
  939MOL0     H23883   7.504   8.669   9.525  2.5791  2.2129 -0.6388
  939MOL0     H23884   7.654   8.789   9.645  0.0958  0.5606  1.6216
  939MOL0     H23885   7.600   8.921   9.984  0.4332  1.8173  1.0964
  939MOL0     H23886   7.558   9.100   9.964  2.0325  2.3566 -0.4307
  939MOL0     H23887   7.774   9.082  10.066  0.1260 -1.4941  1.8627
  939MOL0     H23888   7.774   9.154   9.903  1.8054 -0.1861  0.8396
  939MOL0     H23889   7.865   8.962   9.805 -4.3782  1.7504 -0.6477
  939MOL0     H23890   7.817   8.859   9.944  0.8827 -0.6068  0.1913
  939MOL0     H23891   8.030   9.089   9.953  1.0381  2.0413  3.9455
  939MOL0     H23892   7.991   8.987  10.090  0.8545  1.2409  0.3359
  939MOL0     H23893   8.092   8.874   9.819 -1.1642  1.6800  0.2266
  939MOL0     H23894   8.080   8.776   9.962  1.6017  0.1379  1.0101
  939MOL0     H23895   8.242   8.918  10.072  0.8289 -4.0003  0.2343
  939MOL0     H23896   8.255   9.020   9.921  1.0394  0.7107 -0.3614
  939MOL0     H23897   8.442   8.838   9.928 -0.3171  1.9873  2.2555
  939MOL0     H23898   8.332   8.719   9.991  2.9855 -0.5475  0.2143
  939MOL0     H23899   8.320   8.787   9.692 -0.3337  0.1713  0.6109
  939MOL0     H23900   8.230   8.661   9.782  0.1049 -0.6447  2.4290
  939MOL0     H23901   8.599   8.705   9.691 -2.3354  1.5595  2.3787
  939MOL0     H23902   8.779   8.482   9.608 -1.4306  2.4764  3.0510
  939MOL0     H23903   8.673   8.344   9.576  0.1385  1.5729 -2.4765
  939MOL0     H23904   8.719   8.314   9.838 -1.3877  3.3088  1.6242
  939MOL0     H23905   8.836   8.433   9.818 -0.7532  0.0504  0.4769
  939MOL0     H23906   8.837   8.179   9.667 -1.0997 -0.0359  0.8186
  939MOL0     H23907   8.928   8.319   9.612 -0.0265  1.9127  1.0580
  939MOL0     H23908   8.966   8.196   9.898 -3.3559  0.9029 -0.5243
  939MOL0     H23909   9.051   8.334   9.834  0.5312 -0.3260 -1.2911
  939MOL0     H23910   9.259   8.048   9.597 -2.4907  0.2876 -2.0669
  939MOL0     H23911   9.244   7.791   9.518  0.2429 -0.2320  0.6559
  939MOL0     H23912   8.919   7.398   9.865  0.2538  5.4463 -4.5552
  939MOL0     H23913   8.914   7.143   9.877 -2.5070  0.2500 -1.0267
  939MOL0     H23914   8.845   6.920   9.828 -2.2454 -0.0500 -0.5501
  939MOL0     H23915   9.026   6.917   9.832 -0.0083 -1.5018 -0.4942
  939MOL0     H23916   9.021   6.746   9.635 -0.9302  2.1042 -1.3773
  939MOL0     H23917   8.849   6.729   9.667  0.8951 -0.2401 -3.0721
  939MOL0     H23918   8.905   6.677   9.913  0.8523 -2.1271  0.4201
  939MOL0     H23919   9.067   6.676   9.861 -0.4576  1.5668 -1.1971
  939MOL0     H23920   8.860   6.486   9.739 -1.4733 -3.0468  1.2478
  939MOL0     H23921   9.041   6.478   9.734 -1.5678 -3.0911  0.0311
  939MOL0     H23922   8.863   6.439   9.974 -0.0434 -2.5530  0.8784
  939MOL0     H23923   9.039   6.445   9.973  0.4347  0.4426 -0.9555
  939MOL0     H23924   9.016   6.248   9.786  0.3043 -0.7373  0.3353
  939MOL0     H23925   8.837   6.256   9.823  0.2339  1.5147 -0.8674
  939MOL0     H23926   8.907   6.210  10.053 -0.1006 -3.8406  0.4512
  939MOL0     H23927   8.914   6.077   9.929  0.8778  0.4620 -1.4142
  939MOL0     H23928   9.104   6.072  10.075  0.5812 -0.7603 -0.3831
  939MOL0     H23929   9.140   6.237  10.048 -4.2363  0.8983  2.4455
  939MOL0     H23930   8.946   7.124   9.456 -1.9879  0.9999 -0.4063
  939MOL0     H23931   8.954   7.384   9.451 -0.8704 -1.0393 -0.3237
  939MOL0     H23932   8.912   7.751   9.764  0.6035  0.8131  0.2021
  939MOL0     H23933   8.921   7.991   9.835  1.9090 -1.7615  2.5614
  939MOL0     H23934   7.344   9.024   9.830 -1.2672 -0.6919  1.6121
  939MOL0     H23935   7.173   8.866   9.724  0.3040 -0.1060 -0.6315
  939MOL0     H23936   7.029   8.698   9.434  1.6545 -0.1541 -0.2322
  939MOL0     H23937   6.811   8.588   9.323 -1.9900 -0.8260  3.2861
  939MOL0     H23938   6.604   8.485   9.329 -1.1475  0.4181  0.7430
  939MOL0     H23939   6.635   8.422   9.485  3.0284 -1.9333  0.4286
  939MOL0     H23940   6.439   8.329   9.308  1.0209  3.3723  0.4917
  939MOL0     H23941   6.554   8.204   9.294  1.6320  1.5398 -0.3649
  939MOL0     H23942   6.400   8.319   9.537 -1.9799 -1.2665  0.2533
  939MOL0     H23943   6.552   8.228   9.570 -0.2471 -0.2006 -0.4083
  939MOL0     H23944   6.331   8.120   9.402 -0.4718 -0.0905  0.8129
  939MOL0     H23945   6.479   8.046   9.475  1.9543  3.3990 -1.7041
  939MOL0     H23946   6.221   8.031   9.804 -1.1732 -3.0230 -1.3244
  939MOL0     H23947   6.937   8.211   9.450 -0.5133 -0.8802 -1.5701
  939MOL0     H23948   7.168   8.316   9.532 -1.5657 -1.7842  0.2277
  940MOL0     O23949   5.518   4.928  11.401 -0.1326 -0.1183  0.0633
  940MOL0     C23950   5.515   4.912  11.278  0.3507 -0.4987 -1.0549
  940MOL0     O23951   5.414   4.847  11.216 -0.1205  0.1808  0.1629
  940MOL0     C23952   5.303   4.818  11.290  1.0714  0.2134 -0.2037
  940MOL0     C23953   5.188   4.880  11.260  0.4093 -0.1580  0.2263
  940MOL0     C23954   5.067   4.845  11.322  0.3737 -0.5190 -0.1971
  940MOL0     C23955   5.064   4.737  11.415 -0.3425 -0.3481  0.3352
  940MOL0     O23956   4.946   4.673  11.453  0.6200 -0.0855  0.2219
  940MOL0     C23957   4.819   4.738  11.431  0.5387  0.6727 -0.7709
  940MOL0     C23958   4.707   4.661  11.506  0.3306  0.4498  0.2820
  940MOL0     C23959   4.576   4.727  11.489 -0.7276 -0.3999 -0.3958
  940MOL0     C23960   4.481   4.716  11.610  1.5086  0.3907  1.7693
  940MOL0     C23961   4.342   4.774  11.567 -0.1130  0.5137 -0.1823
  940MOL0     C23962   4.230   4.771  11.668  0.6490  0.7516  0.2916
  940MOL0     C23963   4.150   4.638  11.634  0.1035 -0.2234  0.6363
  940MOL0     C23964   4.014   4.645  11.682 -0.8002 -1.2778 -0.1524
  940MOL0     N23965   3.938   4.520  11.675  0.1655 -0.0081  0.2873
  940MOL0     C23966   3.916   4.453  11.560 -0.4296 -0.0679 -0.6162
  940MOL0     C23967   3.880   4.330  11.594 -1.2315  0.3700  0.4348
  940MOL0     C23968   3.828   4.226  11.494 -0.3277 -0.9968  0.1053
  940MOL0     C23969   3.689   4.259  11.457 -0.9864  0.4702  0.5098
  940MOL0     C23970   3.587   4.205  11.552 -0.1447 -0.1069 -0.4623
  940MOL0     C23971   3.452   4.237  11.498 -1.4625  0.1315 -0.7475
  940MOL0     O23972   3.366   4.138  11.556  0.2912  0.5198  0.6694
  940MOL0     C23973   3.235   4.130  11.514  0.2243  0.6866 -1.0957
  940MOL0     C23974   3.181   4.008  11.548 -0.9601  0.6712 -0.2370
  940MOL0     C23975   3.043   3.989  11.535  0.8374  0.3720 -0.2825
  940MOL0     C23976   2.954   4.089  11.472 -0.3230 -0.5995 -0.0302
  940MOL0     C23977   2.806   4.071  11.450  0.0841  0.5812 -0.4469
  940MOL0     O23978   2.754   3.948  11.471  0.3862  0.1158 -0.1141
  940MOL0     C23979   2.622   3.917  11.437  0.3386  1.2950  0.0321
  940MOL0     C23980   2.610   3.793  11.381  0.3952 -0.3868 -1.2873
  940MOL0     C23981   2.490   3.742  11.331 -0.1731 -0.4613 -0.9646
  940MOL0     C23982   2.373   3.823  11.337  0.3681  0.0211 -1.0125
  940MOL0     O23983   2.241   3.793  11.294 -0.3536  0.5170  0.2356
  940MOL0     C23984   2.208   3.675  11.238 -0.0501  0.3155 -0.0794
  940MOL0     C23985   2.079   3.615  11.294 -0.3769  0.7029  0.1098
  940MOL0     C23986   2.050   3.488  11.207  1.0322  0.4376  0.9126
  940MOL0     C23987   1.934   3.419  11.283  0.2613 -0.0831  0.0191
  940MOL0     C23988   1.913   3.278  11.230  0.3130  0.1523 -0.3163
  940MOL0     C23989   1.792   3.212  11.301 -0.1854 -1.5244 -0.6906
  940MOL0     C23990   1.734   3.092  11.218 -0.0398  0.2798  0.3954
  940MOL0     C23991   1.605   3.034  11.288  0.6722 -0.1909  0.6187
  940MOL0    Cl23992   1.559   2.880  11.199  0.1644 -0.3440  0.1145
  940MOL0     C23993   2.383   3.952  11.393 -0.2411  0.5752 -0.2402
  940MOL0     C23994   2.508   3.995  11.449  0.4397 -0.3655 -0.2307
  940MOL0     O23995   2.746   4.169  11.412  0.9886 -0.3064  0.1588
  940MOL0     C23996   3.031   4.201  11.420 -0.3446 -1.2033 -0.8490
  940MOL0     C23997   3.164   4.218  11.437 -0.8361 -0.0644 -1.3437
  940MOL0     N23998   3.881   4.329  11.732  0.4007 -0.2768  0.0441
  940MOL0     N23999   3.917   4.442  11.781 -0.6170  0.3199 -0.1580
  940MOL0     C24000   5.185   4.682  11.444 -0.9548 -0.3338 -0.4747
  940MOL0     C24001   5.303   4.715  11.373  0.1306 -0.2280 -0.1874
  940MOL0     C24002   5.622   4.954  11.195  0.1148 -0.2160 -0.2795
  940MOL0     C24003   5.639   4.898  11.068  0.0784 -0.3664  0.5055
  940MOL0     C24004   5.745   4.934  10.980  0.3353 -0.0887  0.3869
  940MOL0     C24005   5.839   5.029  11.026  0.1504  0.4098  0.5143
  940MOL0     O24006   5.938   5.094  10.947 -0.4807 -0.6920  0.3583
  940MOL0     C24007   5.968   5.032  10.815 -0.1169  0.1009  0.2710
  940MOL0     C24008   6.087   5.093  10.744 -0.3796 -0.0780 -0.6956
  940MOL0     C24009   6.114   5.022  10.603  0.0324 -0.0287  0.2277
  940MOL0     C24010   6.031   5.079  10.474 -0.3779  0.1841 -0.6843
  940MOL0     C24011   6.056   4.986  10.363 -0.8357  0.0952  0.0806
  940MOL0     C24012   6.094   4.902  10.280 -0.0573  0.0462 -0.7022
  940MOL0     C24013   5.820   5.087  11.152 -0.3338 -0.8354  0.0361
  940MOL0     C24014   5.707   5.061  11.228 -0.9114  0.1429 -0.2019
  940MOL0     H24015   5.191   4.958  11.185  0.9747 -0.0203  0.3824
  940MOL0     H24016   4.973   4.896  11.304 -0.4310 -1.8066  0.2738
  940MOL0     H24017   4.812   4.747  11.322  0.4330  3.1232 -0.6178
  940MOL0     H24018   4.818   4.833  11.485 -0.5305 -0.7671  1.9156
  940MOL0     H24019   4.739   4.637  11.608  0.2173  1.8043  0.6488
  940MOL0     H24020   4.690   4.560  11.467  0.8974 -1.6561  4.8171
  940MOL0     H24021   4.526   4.697  11.396  1.4102  0.3047 -1.8470
  940MOL0     H24022   4.600   4.833  11.494  0.1100 -0.5907 -0.2696
  940MOL0     H24023   4.469   4.609  11.629 -4.7555  0.4896  0.5833
  940MOL0     H24024   4.513   4.765  11.702 -0.1176  3.1994  0.9457
  940MOL0     H24025   4.307   4.717  11.481  1.8635 -0.5199 -0.3418
  940MOL0     H24026   4.348   4.878  11.535 -0.0825  0.4614 -0.3477
  940MOL0     H24027   4.160   4.854  11.655  1.4957  1.7183  1.6200
  940MOL0     H24028   4.271   4.778  11.769  1.4345  1.2202 -0.0444
  940MOL0     H24029   4.135   4.607  11.530  0.4995 -0.7026  0.7183
  940MOL0     H24030   4.201   4.556  11.685  2.6953  0.0134 -1.3413
  940MOL0     H24031   3.964   4.720  11.620 -0.0727  0.0709  0.8275
  940MOL0     H24032   4.026   4.662  11.789  0.0519 -1.8624 -0.1474
  940MOL0     H24033   3.926   4.491  11.459 -0.1348 -1.0033 -0.9452
  940MOL0     H24034   3.825   4.122  11.527 -0.3460 -1.8696 -2.3886
  940MOL0     H24035   3.893   4.224  11.406 -5.4608 -4.3500 -4.2995
  940MOL0     H24036   3.675   4.229  11.353  3.9324  2.3730 -0.9915
  940MOL0     H24037   3.677   4.368  11.453 -0.6397  0.5554  1.6193
  940MOL0     H24038   3.613   4.102  11.579  2.6056 -0.1306 -2.7605
  940MOL0     H24039   3.601   4.264  11.643 -1.4166  2.1176 -1.6351
  940MOL0     H24040   3.460   4.222  11.390  1.7447 -0.0859 -0.5954
  940MOL0     H24041   3.419   4.339  11.521 -0.1396  0.5168 -0.4668
  940MOL0     H24042   3.245   3.924  11.575 -1.7931 -1.0501 -3.1651
  940MOL0     H24043   3.003   3.896  11.572  3.0258 -0.6852 -0.3670
  940MOL0     H24044   2.693   3.723  11.389  2.4920  1.9580 -1.0944
  940MOL0     H24045   2.484   3.648  11.276  0.7063  0.0695 -2.0104
  940MOL0     H24046   2.291   3.604  11.246  0.1914 -0.7168 -6.4551
  940MOL0     H24047   2.207   3.690  11.130  1.3267  4.1433  0.2984
  940MOL0     H24048   2.001   3.689  11.277  2.4822  3.6578 -1.3851
  940MOL0     H24049   2.078   3.597  11.402 -3.4994  0.4341  0.1267
  940MOL0     H24050   2.137   3.422  11.206 -0.5273 -1.9548 -3.4141
  940MOL0     H24051   2.017   3.520  11.107  1.0742  0.1837  0.8177
  940MOL0     H24052   1.959   3.408  11.389 -0.1499  1.0551  0.2539
  940MOL0     H24053   1.845   3.483  11.279  1.9651  3.0051  3.6920
  940MOL0     H24054   1.996   3.208  11.246 -0.8620 -1.4186 -0.8149
  940MOL0     H24055   1.897   3.292  11.123  0.0098  1.1542 -0.1486
  940MOL0     H24056   1.716   3.290  11.309  1.6997  0.2312  1.4381
  940MOL0     H24057   1.823   3.178  11.400 -1.5267  1.3679  0.8457
  940MOL0     H24058   1.702   3.106  11.115  1.0429  0.0908  0.0215
  940MOL0     H24059   1.808   3.013  11.218 -0.5247 -0.1964 -0.8566
  940MOL0     H24060   1.517   3.099  11.289  1.2559  0.6259  0.1718
  940MOL0     H24061   1.616   3.011  11.395  1.8158  0.0231  0.5550
  940MOL0     H24062   2.305   4.028  11.400  1.1191  1.9172  1.4654
  940MOL0     H24063   2.514   4.094  11.493 -2.5254 -0.4553  0.5367
  940MOL0     H24064   2.973   4.276  11.367  0.7006 -0.9996 -1.7549
  940MOL0     H24065   3.211   4.313  11.415 -0.3509  0.8212  2.6553
  940MOL0     H24066   5.201   4.597  11.511  1.2935 -1.3044 -2.1068
  940MOL0     H24067   5.402   4.673  11.390  1.4721  3.4188  2.4517
  940MOL0     H24068   5.568   4.822  11.037 -0.0335  0.4351 -1.3303
  940MOL0     H24069   5.756   4.908  10.875  3.1635 -0.3855  0.6851
  940MOL0     H24070   5.877   5.045  10.756 -0.3139  1.4054  0.8317
  940MOL0     H24071   6.005   4.930  10.828  2.1968  0.9696  1.1740
  940MOL0     H24072   6.075   5.200  10.729 -0.8761 -0.0663 -0.2206
  940MOL0     H24073   6.177   5.081  10.806  0.6760  0.1012 -2.1403
  940MOL0     H24074   6.092   4.916  10.615 -0.6636 -0.0385 -0.9869
  940MOL0     H24075   6.222   5.035  10.586  0.0648  0.4101  0.7249
  940MOL0     H24076   5.923   5.081  10.490 -0.6245 -1.3136 -1.9113
  940MOL0     H24077   6.065   5.182  10.468  0.2672  0.0447  0.3853
  940MOL0     H24078   6.135   4.847  10.198  2.9370 -0.3288  0.9326
  940MOL0     H24079   5.891   5.157  11.197 -3.1171  1.3185  1.4105
  940MOL0     H24080   5.689   5.115  11.320  1.1206  1.2500 -0.4079
  941MOL0     O24081   8.802  10.336   1.259  0.9397 -0.0610 -0.4847
  941MOL0     C24082   8.700  10.291   1.314 -0.0453  0.2439 -0.3562
  941MOL0     O24083   8.688  10.249   1.442 -0.7994 -0.5876  0.2795
  941MOL0     C24084   8.806  10.245   1.513 -0.0014  0.6080  0.7337
  941MOL0     C24085   8.828  10.352   1.600 -0.4841  0.3954  0.1664
  941MOL0     C24086   8.947  10.361   1.673  0.2154  1.0691  0.9323
  941MOL0     C24087   9.018  10.240   1.685 -0.2307 -0.6666  0.2622
  941MOL0     O24088   9.137  10.254   1.754 -0.8544  0.0354  0.4285
  941MOL0     C24089   9.213  10.142   1.796 -1.4630  0.6623 -0.4705
  941MOL0     C24090   9.356  10.187   1.851  0.1145  0.0709  1.5357
  941MOL0     C24091   9.443  10.272   1.766  0.0300  0.3586  0.5202
  941MOL0     C24092   9.574  10.301   1.851  0.8028  1.2396  0.6396
  941MOL0     C24093   9.680  10.376   1.760  0.0236  0.3697 -0.3729
  941MOL0     C24094   9.812  10.421   1.828  0.4095 -0.4566 -1.0785
  941MOL0     C24095   9.895  10.311   1.895 -0.4530 -0.4367 -0.2095
  941MOL0     C24096  10.035  10.344   1.945  0.0056  0.6140  0.1521
  941MOL0     N24097  10.142  10.296   1.859  0.3903  0.3346  0.0290
  941MOL0     C24098  10.161  10.331   1.723  0.2178 -0.4424 -0.4796
  941MOL0     C24099  10.296  10.304   1.694  0.3660  0.6328  0.4533
  941MOL0     C24100  10.351  10.304   1.551 -0.0609 -0.0713 -0.0827
  941MOL0     C24101  10.298  10.180   1.481 -0.7850  0.4053  0.9734
  941MOL0     C24102  10.328  10.178   1.334 -0.8325  0.1617  0.5905
  941MOL0     C24103  10.250  10.283   1.244 -0.0572  0.4941 -0.8276
  941MOL0     O24104  10.115  10.248   1.224  0.5852 -0.4911  0.1249
  941MOL0     C24105  10.064  10.306   1.111  0.9640 -0.0589  0.0193
  941MOL0     C24106  10.044  10.231   0.991 -0.1718  0.4307  0.3771
  941MOL0     C24107   9.997  10.297   0.872 -0.3074 -0.2516 -1.1677
  941MOL0     C24108   9.961  10.435   0.879 -0.6820 -0.2953  0.0468
  941MOL0     C24109   9.910  10.507   0.764 -0.5332 -0.1158 -0.2991
  941MOL0     O24110   9.908  10.645   0.763  0.0609  0.5835 -0.2048
  941MOL0     C24111   9.839  10.712   0.670 -1.0545  0.7979  0.3403
  941MOL0     C24112   9.907  10.803   0.584  0.0823  0.6480  0.7990
  941MOL0     C24113   9.824  10.884   0.496  0.0894 -0.1575  0.0428
  941MOL0     C24114   9.683  10.880   0.505  0.1324 -0.1087 -0.4444
  941MOL0     O24115   9.617  10.969   0.428  0.2033 -0.5876  0.0544
  941MOL0     C24116   9.575  11.072   0.516  0.2606 -0.4163  1.5287
  941MOL0     C24117   9.634  11.202   0.462 -0.0203  0.2407  0.0991
  941MOL0     C24118   9.597  11.327   0.553 -0.4462 -0.6779  0.2640
  941MOL0     C24119   9.458  11.373   0.530  0.9835 -0.6740  0.0204
  941MOL0     C24120   9.428  11.511   0.587  0.0842  0.4711 -0.1640
  941MOL0     C24121   9.469  11.525   0.734  0.2487  0.9178 -0.1142
  941MOL0     C24122   9.457  11.668   0.783 -0.2945 -1.1109  0.0008
  941MOL0     C24123   9.311  11.722   0.775  0.7605  1.8568  0.4927
  941MOL0    Cl24124   9.285  11.888   0.838  0.2043 -0.2513  0.1829
  941MOL0     C24125   9.622  10.793   0.599  0.8530 -0.7831 -0.0013
  941MOL0     C24126   9.700  10.708   0.678 -0.2774  0.9858  0.0742
  941MOL0     O24127   9.878  10.437   0.667 -0.4062  0.3623 -0.4544
  941MOL0     C24128   9.966  10.498   1.009 -0.5908 -0.0586 -0.0561
  941MOL0     C24129  10.024  10.442   1.120  0.4683  0.1600 -0.2154
  941MOL0     N24130  10.353  10.245   1.809  0.4900  0.2743  0.0666
  941MOL0     N24131  10.263  10.252   1.909  0.4612 -0.2781 -0.1138
  941MOL0     C24132   8.996  10.129   1.600  0.1646 -0.7727  0.6110
  941MOL0     C24133   8.890  10.129   1.512  0.1472  0.5657  0.1870
  941MOL0     C24134   8.575  10.310   1.240  0.5107 -0.3346  0.2616
  941MOL0     C24135   8.446  10.309   1.297 -0.1871  0.7599 -0.8242
  941MOL0     C24136   8.332  10.343   1.230 -0.0359 -0.0017  1.0879
  941MOL0     C24137   8.332  10.381   1.094 -1.1464  0.2867 -1.7460
  941MOL0     O24138   8.209  10.404   1.041  0.1495  0.0078 -0.0242
  941MOL0     C24139   8.192  10.396   0.899  1.0338  0.2127 -0.2918
  941MOL0     C24140   8.066  10.305   0.877 -0.0647 -0.3806  0.5133
  941MOL0     C24141   7.927  10.380   0.869  0.7161  0.5983 -0.7890
  941MOL0     C24142   7.860  10.400   1.013 -0.1449  0.2032 -1.0228
  941MOL0     C24143   7.729  10.465   0.990  0.3427  0.4083  0.2468
  941MOL0     C24144   7.628  10.515   0.971  0.9507 -0.0371 -0.2517
  941MOL0     C24145   8.456  10.371   1.026 -0.4122 -0.4226 -0.2907
  941MOL0     C24146   8.580  10.339   1.099  0.6231  1.1219  0.2763
  941MOL0     H24147   8.756  10.433   1.604  2.3651  3.0873  1.7709
  941MOL0     H24148   8.976  10.447   1.733  6.1100  1.1731 -1.2939
  941MOL0     H24149   9.244  10.086   1.707 -0.3206  3.5678 -2.0550
  941MOL0     H24150   9.158  10.076   1.863 -2.3217 -0.5635 -2.3218
  941MOL0     H24151   9.410  10.103   1.895  1.2745 -0.0266  0.0043
  941MOL0     H24152   9.334  10.248   1.939  1.4517  2.6554  0.1735
  941MOL0     H24153   9.395  10.368   1.741  0.6103  0.5836  0.2599
  941MOL0     H24154   9.480  10.226   1.674 -1.2362 -1.9646  1.0829
  941MOL0     H24155   9.554  10.357   1.943 -2.0067 -0.4828  1.2024
  941MOL0     H24156   9.615  10.204   1.882 -1.3195 -0.6070 -1.9068
  941MOL0     H24157   9.615  10.457   1.726 -2.3404 -0.7793  1.0823
  941MOL0     H24158   9.705  10.315   1.673 -3.3969 -4.4647  1.5792
  941MOL0     H24159   9.777  10.484   1.910  1.4372 -2.2375  0.8318
  941MOL0     H24160   9.868  10.484   1.759 -0.2347 -1.1782 -2.3075
  941MOL0     H24161   9.833  10.274   1.977 -0.2966 -3.1579 -1.1968
  941MOL0     H24162   9.894  10.226   1.826 -3.0561 -1.8967  1.4363
  941MOL0     H24163  10.057  10.295   2.039 -2.2842 -3.7385 -1.3104
  941MOL0     H24164  10.036  10.453   1.958  0.7782  0.6513 -0.1760
  941MOL0     H24165  10.087  10.381   1.662  0.5639  2.6506  1.4213
  941MOL0     H24166  10.459  10.320   1.551 -0.2658  1.7823 -2.3730
  941MOL0     H24167  10.309  10.384   1.490  0.5656 -0.4956 -1.0985
  941MOL0     H24168  10.188  10.182   1.487 -0.8496 -2.0243  1.9947
  941MOL0     H24169  10.344  10.094   1.530 -0.0706 -0.4022 -0.9761
  941MOL0     H24170  10.436  10.183   1.313 -0.8645 -0.4065  0.2664
  941MOL0     H24171  10.304  10.080   1.290 -1.9659  1.1207 -1.0295
  941MOL0     H24172  10.305  10.272   1.150 -2.5932 -1.3820 -2.2046
  941MOL0     H24173  10.265  10.384   1.283  0.3899 -0.4385  1.6049
  941MOL0     H24174  10.069  10.126   0.982  1.4746  0.9136 -1.1967
  941MOL0     H24175   9.976  10.251   0.776 -2.9994 -2.5099  0.3932
  941MOL0     H24176  10.015  10.806   0.591  0.1999  1.4062 -0.9792
  941MOL0     H24177   9.882  10.939   0.422  1.7983 -0.5294  1.0531
  941MOL0     H24178   9.596  11.067   0.623  0.2696 -2.2881  1.4695
  941MOL0     H24179   9.466  11.073   0.505  0.2928 -0.7986  1.1760
  941MOL0     H24180   9.594  11.232   0.365  0.2382  0.3033  0.0099
  941MOL0     H24181   9.742  11.187   0.457 -0.1734 -0.7137 -0.6500
  941MOL0     H24182   9.657  11.412   0.521  2.0310 -2.1962  0.5964
  941MOL0     H24183   9.620  11.305   0.658  1.2201  2.6302  0.7192
  941MOL0     H24184   9.435  11.374   0.423 -0.5345 -2.3823  0.2930
  941MOL0     H24185   9.383  11.310   0.579  0.0782  1.0520  0.9805
  941MOL0     H24186   9.325  11.545   0.575  0.3115  2.4868  2.5290
  941MOL0     H24187   9.494  11.583   0.537  2.6164 -1.3414  0.3534
  941MOL0     H24188   9.572  11.498   0.759 -0.0684 -1.8395 -1.4179
  941MOL0     H24189   9.403  11.459   0.791 -0.1046  1.2838 -0.0941
  941MOL0     H24190   9.482  11.675   0.890  0.0400  3.9723 -0.1478
  941MOL0     H24191   9.516  11.735   0.720 -4.2229  0.5099 -2.3382
  941MOL0     H24192   9.238  11.648   0.809  0.0753  0.6673 -3.1554
  941MOL0     H24193   9.295  11.753   0.671  0.8222  1.6130  0.4104
  941MOL0     H24194   9.514  10.792   0.609  0.9952  0.7918  2.4513
  941MOL0     H24195   9.659  10.658   0.766  3.9819  0.1185  1.8004
  941MOL0     H24196   9.919  10.595   1.003 -2.9608 -1.1000  0.5503
  941MOL0     H24197  10.028  10.494   1.215  2.2498  0.2318 -0.2780
  941MOL0     H24198   9.063  10.044   1.600  0.4606 -0.5423  1.1828
  941MOL0     H24199   8.881  10.045   1.443  0.1168  0.9538 -0.2923
  941MOL0     H24200   8.454  10.289   1.403 -0.8489  3.1489 -0.2580
  941MOL0     H24201   8.236  10.345   1.281  0.2767  1.3212  1.6631
  941MOL0     H24202   8.282  10.349   0.858  0.3019 -0.2881 -1.4052
  941MOL0     H24203   8.179  10.486   0.838 -0.9930  0.6730  0.7181
  941MOL0     H24204   8.080  10.266   0.776  0.0176 -3.3821  1.6012
  941MOL0     H24205   8.072  10.220   0.945  1.1103 -1.8590 -1.3551
  941MOL0     H24206   7.871  10.311   0.805  4.0789 -2.2645 -0.9579
  941MOL0     H24207   7.932  10.468   0.805  0.1028  0.9957 -0.3069
  941MOL0     H24208   7.838  10.306   1.064 -2.1310  0.2799 -1.6485
  941MOL0     H24209   7.928  10.460   1.074 -1.2045 -0.1145  0.5427
  941MOL0     H24210   7.534  10.566   0.979  2.0915  2.4593 -1.5695
  941MOL0     H24211   8.457  10.406   0.923  2.8457 -0.9091 -0.5262
  941MOL0     H24212   8.681  10.346   1.062  1.3003  0.7372  1.9679
  942MOL0     O24213  10.787   9.631   3.891  0.8266  1.0024 -0.1276
  942MOL0     C24214  10.875   9.675   3.965  0.5390 -0.8442 -0.3940
  942MOL0     O24215  10.854   9.728   4.090  0.1887  0.2349 -0.0704
  942MOL0     C24216  10.723   9.761   4.121  0.9657 -0.1618  0.4216
  942MOL0     C24217  10.612   9.676   4.145 -0.3465  0.8877 -0.2161
  942MOL0     C24218  10.486   9.729   4.176  0.0026 -0.1143 -1.3922
  942MOL0     C24219  10.468   9.868   4.167  0.0079 -0.0343 -0.0447
  942MOL0     O24220  10.353   9.931   4.205  0.0691  0.4017  0.3908
  942MOL0     C24221  10.240   9.841   4.246  0.3352  0.3922  0.3078
  942MOL0     C24222  10.113   9.923   4.227  0.0143 -0.3630  1.2513
  942MOL0     C24223   9.979   9.864   4.289  0.4358  0.7024  0.3604
  942MOL0     C24224   9.858   9.955   4.263  0.1485 -0.7613  0.2514
  942MOL0     C24225   9.739   9.884   4.321 -0.0382  0.3006  0.1165
  942MOL0     C24226   9.606   9.958   4.276 -0.2990  0.2319 -0.6888
  942MOL0     C24227   9.478   9.901   4.355 -0.4690  0.0238  0.4807
  942MOL0     C24228   9.459   9.748   4.341 -0.2443 -0.2210 -0.7551
  942MOL0     N24229   9.370   9.685   4.439  0.5237 -0.0757  0.3876
  942MOL0     C24230   9.238   9.705   4.423  0.6279  1.0953 -0.2423
  942MOL0     C24231   9.188   9.665   4.543 -0.6022  0.4939  0.2112
  942MOL0     C24232   9.038   9.660   4.555  0.1727  0.6250  0.8389
  942MOL0     C24233   8.988   9.618   4.700 -1.0866 -0.2226 -0.3171
  942MOL0     C24234   8.852   9.681   4.730 -0.0284 -0.8220 -0.2965
  942MOL0     C24235   8.806   9.661   4.867  0.3803 -0.2591  0.2846
  942MOL0     O24236   8.683   9.736   4.880  0.9583 -0.5017 -0.0786
  942MOL0     C24237   8.583   9.693   4.966  0.5453  0.4588 -0.5337
  942MOL0     C24238   8.450   9.750   4.951 -1.3174  0.1769  0.7475
  942MOL0     C24239   8.348   9.720   5.040  0.4797  0.0644  0.3713
  942MOL0     C24240   8.370   9.655   5.158  0.4190  0.3099 -0.6300
  942MOL0     C24241   8.257   9.642   5.251  0.1387  0.3688 -0.5010
  942MOL0     O24242   8.283   9.569   5.364 -0.4184 -0.6365  0.1355
  942MOL0     C24243   8.173   9.537   5.442  0.9471 -0.4897 -0.0674
  942MOL0     C24244   8.102   9.419   5.415  0.2675  0.7334  0.5792
  942MOL0     C24245   7.985   9.377   5.489  0.1310 -0.0169 -0.4097
  942MOL0     C24246   7.951   9.457   5.598 -0.8781  1.2380  1.2674
  942MOL0     O24247   7.838   9.433   5.670 -0.4698  0.1720 -0.2868
  942MOL0     C24248   7.722   9.396   5.592 -0.6339 -0.0801 -0.4227
  942MOL0     C24249   7.633   9.269   5.639 -0.0455 -0.1765  1.3373
  942MOL0     C24250   7.549   9.318   5.774  1.1186 -0.0852 -0.0961
  942MOL0     C24251   7.408   9.391   5.747  0.1121 -0.2308  0.0683
  942MOL0     C24252   7.333   9.441   5.871  0.9721  0.0101 -0.1855
  942MOL0     C24253   7.190   9.505   5.846 -0.8180  0.4009  0.9255
  942MOL0     C24254   7.110   9.550   5.967  0.2856 -0.4554  0.1113
  942MOL0     C24255   7.016   9.665   5.934 -0.6716 -0.9400  0.2131
  942MOL0    Cl24256   6.926   9.692   6.081  0.3047  0.1354 -0.2189
  942MOL0     C24257   8.019   9.578   5.620 -0.1763 -0.1842  0.1004
  942MOL0     C24258   8.134   9.613   5.547 -0.5384 -0.0785 -0.1024
  942MOL0     O24259   8.151   9.701   5.227  0.4538 -0.1889 -0.1904
  942MOL0     C24260   8.493   9.596   5.176 -0.1727  0.3770  0.0063
  942MOL0     C24261   8.602   9.611   5.085  0.3388  0.2364  0.0595
  942MOL0     N24262   9.291   9.610   4.618 -0.3091 -0.0041  0.4238
  942MOL0     N24263   9.398   9.632   4.553 -0.4184 -0.7798 -0.1926
  942MOL0     C24264  10.569   9.953   4.132  0.1448 -0.6483 -0.8877
  942MOL0     C24265  10.692   9.895   4.109  0.4568 -0.1126 -0.2482
  942MOL0     C24266  11.015   9.670   3.918 -0.2777  0.0522  0.5414
  942MOL0     C24267  11.055   9.600   3.803 -0.0752 -0.8288  0.3709
  942MOL0     C24268  11.196   9.595   3.766  0.4547 -0.2087 -0.3860
  942MOL0     C24269  11.286   9.664   3.838  0.1193 -1.3030  0.6889
  942MOL0     O24270  11.424   9.652   3.822  0.3472 -0.1872 -1.2428
  942MOL0     C24271  11.475   9.584   3.698  0.4126 -0.0759 -0.2531
  942MOL0     C24272  11.464   9.428   3.712  0.4427  0.2967  0.5309
  942MOL0     C24273  11.578   9.373   3.789 -0.3938  0.8100  0.1500
  942MOL0     C24274  11.711   9.332   3.699  0.0273 -0.8047  0.0953
  942MOL0     C24275  11.818   9.262   3.761 -0.9097 -0.5581 -0.5418
  942MOL0     C24276  11.901   9.204   3.833 -0.3477 -0.3700 -0.3520
  942MOL0     C24277  11.239   9.750   3.935 -0.2746  0.3634  0.9693
  942MOL0     C24278  11.114   9.753   3.973 -0.0030 -0.0186  0.0912
  942MOL0     H24279  10.648   9.574   4.133  3.3324  2.1546 -1.5038
  942MOL0     H24280  10.414   9.654   4.205  1.1591 -0.5931  0.4094
  942MOL0     H24281  10.248   9.820   4.354  1.8475  1.0445  0.3485
  942MOL0     H24282  10.231   9.750   4.187 -0.7557 -0.7137  2.0797
  942MOL0     H24283  10.101   9.954   4.122 -2.2367  1.0810  1.8675
  942MOL0     H24284  10.137  10.018   4.276 -0.4625  0.2638  0.3018
  942MOL0     H24285  10.019   9.853   4.390  1.8247 -1.4113 -0.3565
  942MOL0     H24286   9.956   9.767   4.244  2.9355 -0.1750  0.8239
  942MOL0     H24287   9.854  10.048   4.319  1.5359 -0.6584  0.2105
  942MOL0     H24288   9.840   9.974   4.157 -2.4965  1.0404  0.9379
  942MOL0     H24289   9.739   9.875   4.430 -1.7898 -0.3460  0.0927
  942MOL0     H24290   9.743   9.779   4.290  0.5292  1.2345 -3.5429
  942MOL0     H24291   9.586   9.930   4.172 -2.4689  0.8840 -0.4936
  942MOL0     H24292   9.598  10.067   4.279 -3.0847  0.1527 -2.0295
  942MOL0     H24293   9.492   9.927   4.461 -1.7365 -0.5045  0.7879
  942MOL0     H24294   9.382   9.941   4.321 -0.6000 -0.4556  0.2887
  942MOL0     H24295   9.559   9.708   4.361  1.2338  3.9697  1.4360
  942MOL0     H24296   9.425   9.731   4.239  0.4006 -1.2401 -0.8198
  942MOL0     H24297   9.180   9.751   4.343 -1.5317 -2.0463 -0.6444
  942MOL0     H24298   8.996   9.587   4.486 -1.6265  0.1644  2.3210
  942MOL0     H24299   8.996   9.758   4.531 -2.0350 -0.4352  0.0330
  942MOL0     H24300   9.063   9.648   4.775 -1.5719  0.2098  0.0084
  942MOL0     H24301   8.988   9.510   4.716  2.0146 -0.5300 -1.7153
  942MOL0     H24302   8.859   9.787   4.702 -0.7581 -1.1590 -1.9005
  942MOL0     H24303   8.776   9.640   4.663 -2.6577  2.5115  0.3981
  942MOL0     H24304   8.865   9.708   4.946 -3.4003  0.4183  2.9540
  942MOL0     H24305   8.782   9.557   4.894  0.0510  0.4025  2.8322
  942MOL0     H24306   8.435   9.825   4.875 -1.2392 -1.3615 -0.8426
  942MOL0     H24307   8.250   9.758   5.012 -1.3206 -4.7443 -0.9152
  942MOL0     H24308   8.141   9.334   5.360 -3.7899  0.8695 -3.0411
  942MOL0     H24309   7.947   9.276   5.488  4.5010 -1.9367  1.7840
  942MOL0     H24310   7.740   9.376   5.486  0.7813  0.2239 -0.2568
  942MOL0     H24311   7.660   9.483   5.618  1.3325  0.0646  4.8376
  942MOL0     H24312   7.700   9.185   5.656  1.6188  0.4694 -1.4355
  942MOL0     H24313   7.569   9.256   5.551  0.8228  2.1943  0.2564
  942MOL0     H24314   7.611   9.384   5.835  2.8468 -0.0925 -1.7688
  942MOL0     H24315   7.530   9.228   5.834  0.3058 -1.7787 -2.7100
  942MOL0     H24316   7.430   9.484   5.695 -0.4656 -0.2480 -0.2185
  942MOL0     H24317   7.348   9.332   5.677  0.5901 -0.5739 -0.0574
  942MOL0     H24318   7.398   9.515   5.918  2.0329 -0.1327 -1.3884
  942MOL0     H24319   7.321   9.355   5.938 -0.4988  0.6965  0.4739
  942MOL0     H24320   7.122   9.443   5.786  1.6513 -1.2726 -0.3281
  942MOL0     H24321   7.210   9.589   5.779 -1.0789 -0.0874  0.2192
  942MOL0     H24322   7.053   9.472   6.019 -0.4826  0.7657  1.1425
  942MOL0     H24323   7.183   9.590   6.039  0.6725  0.6751 -0.8903
  942MOL0     H24324   6.945   9.657   5.851 -0.9230  0.7576  0.2304
  942MOL0     H24325   7.085   9.749   5.922  4.3844 -4.2126  2.7110
  942MOL0     H24326   7.986   9.633   5.707 -1.2362  0.3469 -0.6199
  942MOL0     H24327   8.200   9.697   5.568  2.1060 -1.5255 -2.0508
  942MOL0     H24328   8.512   9.533   5.262 -1.9183  3.6578  3.0416
  942MOL0     H24329   8.694   9.559   5.109 -1.0331 -1.6560  1.5588
  942MOL0     H24330  10.549  10.059   4.119 -1.3541 -0.9338 -1.1607
  942MOL0     H24331  10.779   9.958   4.098  0.2088  0.5481  1.3125
  942MOL0     H24332  10.991   9.528   3.753 -2.1554 -0.0182  1.7293
  942MOL0     H24333  11.224   9.515   3.698  0.3782 -2.4942  2.0899
  942MOL0     H24334  11.580   9.614   3.697  0.3740  0.0571 -0.6039
  942MOL0     H24335  11.430   9.632   3.610  2.6059  2.1037 -0.3125
  942MOL0     H24336  11.372   9.395   3.760 -0.5918  1.4779 -0.5837
  942MOL0     H24337  11.469   9.390   3.610  0.7147  0.6050  0.4280
  942MOL0     H24338  11.543   9.285   3.843 -0.6399  1.0107  0.3189
  942MOL0     H24339  11.617   9.445   3.862 -0.3187  1.4605 -0.5181
  942MOL0     H24340  11.689   9.265   3.616  2.1141 -1.3905 -0.0225
  942MOL0     H24341  11.748   9.426   3.657 -2.5097  0.5687  0.6575
  942MOL0     H24342  11.968   9.162   3.905  0.6344 -0.9731 -1.5819
  942MOL0     H24343  11.307   9.818   3.986  0.0841 -0.7701  2.0449
  942MOL0     H24344  11.088   9.827   4.048 -3.0744 -0.0707 -0.7535
  943MOL0     O24345   3.390   0.042   2.294  0.7781 -0.5946 -0.5496
  943MOL0     C24346   3.365  -0.060   2.234  0.1327 -0.0250 -0.5799
  943MOL0     O24347   3.368  -0.189   2.286 -0.2861  0.4552 -0.6340
  943MOL0     C24348   3.400  -0.216   2.416  0.3452 -0.7584 -0.2861
  943MOL0     C24349   3.424  -0.351   2.450 -0.5687  0.0888  0.3980
  943MOL0     C24350   3.458  -0.391   2.583  0.5928  0.0596  0.2706
  943MOL0     C24351   3.460  -0.303   2.687 -0.5104 -0.5678  0.0108
  943MOL0     O24352   3.479  -0.338   2.819  0.2132  0.1130 -0.4018
  943MOL0     C24353   3.561  -0.450   2.850  0.0589  0.6497  0.7375
  943MOL0     C24354   3.660  -0.410   2.959  0.0270 -0.3971  0.4713
  943MOL0     C24355   3.731  -0.272   2.932 -0.1308  0.2971 -0.0408
  943MOL0     C24356   3.856  -0.244   3.019 -0.0521  0.1268 -0.7187
  943MOL0     C24357   3.943  -0.129   2.962  0.1050 -0.5141 -1.0885
  943MOL0     C24358   3.886   0.014   2.984  1.0060  0.3633  0.2427
  943MOL0     C24359   3.971   0.140   2.958 -0.6130  0.5036 -0.1350
  943MOL0     C24360   4.034   0.153   2.813 -0.4854 -1.6316 -0.0184
  943MOL0     N24361   4.182   0.145   2.805 -0.4181  0.4738 -0.7022
  943MOL0     C24362   4.257   0.236   2.736  0.1126 -0.7435 -1.3211
  943MOL0     C24363   4.379   0.197   2.759  0.4721  1.0101  0.2346
  943MOL0     C24364   4.495   0.283   2.710  0.6797  0.4078  0.2637
  943MOL0     C24365   4.567   0.210   2.592 -0.5111  0.3999 -1.5012
  943MOL0     C24366   4.500   0.235   2.450  0.2646 -0.0178 -0.1083
  943MOL0     C24367   4.523   0.379   2.394  0.4980 -0.4961  0.7891
  943MOL0     O24368   4.663   0.391   2.390 -0.8680  0.2972 -0.4826
  943MOL0     C24369   4.723   0.509   2.376 -0.3461 -0.4654 -0.0256
  943MOL0     C24370   4.686   0.614   2.463  0.7364  0.5991 -0.3715
  943MOL0     C24371   4.734   0.743   2.448  0.1901 -0.0992  0.0815
  943MOL0     C24372   4.832   0.768   2.345 -0.4308  0.7037 -1.6330
  943MOL0     C24373   4.897   0.897   2.337  0.0226 -0.3703  0.1993
  943MOL0     O24374   4.960   0.921   2.216  0.0280 -1.1137  0.5052
  943MOL0     C24375   5.022   1.048   2.195  0.4932 -0.4003  0.8397
  943MOL0     C24376   5.159   1.066   2.206  1.0099  0.0511 -0.1189
  943MOL0     C24377   5.219   1.183   2.150 -0.1549  0.0334  0.0816
  943MOL0     C24378   5.149   1.280   2.076 -0.0613 -0.4294  0.6069
  943MOL0     O24379   5.220   1.391   2.022  0.2829  0.1769  0.6227
  943MOL0     C24380   5.163   1.461   1.904 -0.2168  0.6864 -0.3904
  943MOL0     C24381   5.238   1.593   1.886 -1.3396  1.2165 -0.2485
  943MOL0     C24382   5.212   1.653   1.749 -0.5431  0.2971 -1.0982
  943MOL0     C24383   5.274   1.789   1.745 -0.3625  0.6405 -0.1240
  943MOL0     C24384   5.297   1.854   1.600 -0.5434 -0.5834  0.3958
  943MOL0     C24385   5.199   1.829   1.496  0.0765  0.5886  0.5730
  943MOL0     C24386   5.052   1.882   1.520 -0.6056  0.6503  0.6809
  943MOL0     C24387   4.980   1.884   1.393  0.3484 -0.3413 -0.2787
  943MOL0    Cl24388   4.989   1.724   1.299 -0.4176 -0.0024 -0.1254
  943MOL0     C24389   5.008   1.262   2.070 -0.6400  0.0062 -1.0497
  943MOL0     C24390   4.950   1.146   2.116 -0.7798  0.5473  0.1026
  943MOL0     O24391   4.884   0.983   2.423 -0.1436  0.5584 -0.1131
  943MOL0     C24392   4.878   0.658   2.275 -0.3683 -0.4684 -0.0925
  943MOL0     C24393   4.819   0.536   2.287  0.5451 -0.6811  0.1992
  943MOL0     N24394   4.389   0.086   2.839  0.1535 -0.0640 -0.9022
  943MOL0     N24395   4.266   0.061   2.874 -0.0235  0.5564 -0.2315
  943MOL0     C24396   3.434  -0.170   2.655  0.0857  1.0576 -0.2498
  943MOL0     C24397   3.402  -0.125   2.522 -0.9477  0.2283 -1.0631
  943MOL0     C24398   3.337  -0.058   2.090  0.6131  0.5079  0.3994
  943MOL0     C24399   3.381   0.047   2.006  1.1186  0.1788 -1.1392
  943MOL0     C24400   3.323   0.066   1.882 -0.3812 -0.8230  0.8075
  943MOL0     C24401   3.244  -0.036   1.824  0.1746 -0.8929 -0.2158
  943MOL0     O24402   3.188  -0.038   1.710  0.3268 -0.3950  0.2102
  943MOL0     C24403   3.184   0.083   1.633 -1.1406 -0.7332  0.2548
  943MOL0     C24404   3.084   0.072   1.522  0.1037  0.3094  0.4236
  943MOL0     C24405   2.946   0.120   1.560  0.1065  1.6189 -0.0828
  943MOL0     C24406   2.874   0.022   1.655 -0.0924  0.3656 -0.0903
  943MOL0     C24407   2.725   0.013   1.656  0.0041 -0.4074 -0.6183
  943MOL0     C24408   2.619  -0.031   1.689  0.2724  0.2306  0.7976
  943MOL0     C24409   3.216  -0.148   1.904 -0.0028  0.3793  0.4149
  943MOL0     C24410   3.264  -0.160   2.035  0.0347 -0.1212 -0.4726
  943MOL0     H24411   3.438  -0.428   2.375 -2.0335  0.9403 -0.7855
  943MOL0     H24412   3.489  -0.490   2.616  3.1756  1.9063  4.1567
  943MOL0     H24413   3.639  -0.481   2.779  3.1822  1.5495  3.5358
  943MOL0     H24414   3.507  -0.544   2.866 -0.4876  1.1088  1.5913
  943MOL0     H24415   3.734  -0.488   2.980  2.1007  1.6194  0.9738
  943MOL0     H24416   3.600  -0.396   3.049  0.3158 -1.3103  0.8105
  943MOL0     H24417   3.664  -0.186   2.942  3.7076  3.5875 -0.1565
  943MOL0     H24418   3.757  -0.271   2.826  1.1323 -0.6669  0.2383
  943MOL0     H24419   3.824  -0.229   3.123 -1.1732 -0.2890 -0.9892
  943MOL0     H24420   3.916  -0.335   3.026  0.2201  0.4159  3.2183
  943MOL0     H24421   3.961  -0.139   2.855  3.0729  1.3231 -0.8688
  943MOL0     H24422   4.041  -0.138   3.009  0.8661  3.0058 -1.7349
  943MOL0     H24423   3.849   0.011   3.086 -0.0542  0.3712 -0.1320
  943MOL0     H24424   3.795   0.011   2.923  0.2865 -0.9445  1.3412
  943MOL0     H24425   3.917   0.233   2.979 -1.7315 -0.3060  0.7039
  943MOL0     H24426   4.054   0.133   3.028 -0.6920 -1.6711 -0.2032
  943MOL0     H24427   4.015   0.260   2.799  0.5695 -0.6535  4.4948
  943MOL0     H24428   3.999   0.091   2.730 -2.7156 -2.8115  1.7030
  943MOL0     H24429   4.229   0.330   2.690  0.7997 -0.8301 -1.9476
  943MOL0     H24430   4.563   0.295   2.795  1.5652 -0.7189 -0.2542
  943MOL0     H24431   4.459   0.382   2.680 -0.2018  1.1758  3.5135
  943MOL0     H24432   4.572   0.101   2.602  1.8180  0.5022 -1.0268
  943MOL0     H24433   4.669   0.246   2.605 -1.5773  2.9701  0.5686
  943MOL0     H24434   4.547   0.180   2.369  2.6355 -0.2443  1.3158
  943MOL0     H24435   4.391   0.224   2.454 -0.0727  2.8616  1.9473
  943MOL0     H24436   4.480   0.449   2.466  0.5389  1.3449 -0.9220
  943MOL0     H24437   4.475   0.394   2.297 -0.2854  2.9735  1.5695
  943MOL0     H24438   4.616   0.591   2.543 -0.2717  2.0052 -0.8165
  943MOL0     H24439   4.714   0.818   2.524  0.3653 -1.0745  1.1171
  943MOL0     H24440   5.228   0.991   2.244  0.6776  0.8557  2.2218
  943MOL0     H24441   5.326   1.187   2.168 -0.0556 -2.6096  0.4832
  943MOL0     H24442   5.065   1.501   1.933  0.0620  0.8157  0.3920
  943MOL0     H24443   5.179   1.392   1.821 -0.4364  0.6463 -0.4011
  943MOL0     H24444   5.345   1.580   1.905 -1.4853 -0.2172 -0.2915
  943MOL0     H24445   5.194   1.671   1.949 -0.0196  0.9928  1.0181
  943MOL0     H24446   5.104   1.661   1.731 -0.9440 -2.0446 -0.1852
  943MOL0     H24447   5.257   1.582   1.679  0.5672 -1.5204  1.2941
  943MOL0     H24448   5.215   1.854   1.811 -4.0671 -2.0001 -0.5215
  943MOL0     H24449   5.375   1.797   1.786  0.3874 -1.1624 -1.4675
  943MOL0     H24450   5.392   1.814   1.564  0.6402  1.9975  0.3752
  943MOL0     H24451   5.309   1.963   1.610  0.7898 -0.7639  1.0388
  943MOL0     H24452   5.191   1.721   1.484 -1.2605  0.4723  2.1425
  943MOL0     H24453   5.245   1.870   1.405  0.4738 -2.1077 -0.5586
  943MOL0     H24454   5.000   1.814   1.589 -2.1805 -1.2261 -2.1656
  943MOL0     H24455   5.053   1.980   1.569  3.0432 -0.4413  3.1830
  943MOL0     H24456   5.030   1.961   1.333  0.5436 -3.7185 -5.1124
  943MOL0     H24457   4.879   1.925   1.399  1.7855  3.4571  0.7939
  943MOL0     H24458   4.935   1.336   2.039 -2.3543  0.8124  3.9413
  943MOL0     H24459   4.846   1.120   2.104 -0.4517  0.2447 -2.7071
  943MOL0     H24460   4.960   0.678   2.207 -3.3314  4.5275 -2.7870
  943MOL0     H24461   4.851   0.455   2.222 -1.1678  0.8807 -2.8044
  943MOL0     H24462   3.442  -0.101   2.738  0.6972  2.9320 -1.7923
  943MOL0     H24463   3.378  -0.019   2.527  0.0163  0.4286 -0.2660
  943MOL0     H24464   3.438   0.136   2.031 -3.5023  2.8498  1.1873
  943MOL0     H24465   3.341   0.161   1.833 -1.6577 -1.9621 -2.0577
  943MOL0     H24466   3.280   0.104   1.584 -1.6041 -2.8198 -1.7009
  943MOL0     H24467   3.159   0.170   1.694  1.9211 -1.7881  3.3358
  943MOL0     H24468   3.122   0.127   1.436  0.2184 -1.4143 -0.6586
  943MOL0     H24469   3.083  -0.030   1.482  1.2575 -0.7295  2.8375
  943MOL0     H24470   2.879   0.122   1.473 -3.0252 -2.9788  1.8395
  943MOL0     H24471   2.939   0.216   1.612 -3.4582  0.8521  1.1718
  943MOL0     H24472   2.916  -0.077   1.637 -2.7221 -0.5575 -1.7429
  943MOL0     H24473   2.906   0.048   1.756 -1.1958 -0.3691  0.4623
  943MOL0     H24474   2.521  -0.073   1.683  0.0799  0.8733 -1.1254
  943MOL0     H24475   3.154  -0.228   1.866 -1.4596  1.1137  1.1627
  943MOL0     H24476   3.251  -0.248   2.098 -1.3989 -1.9184 -3.0958
  944MOL0     O24477   5.068   5.576   5.427  0.0894  0.5024  0.6521
  944MOL0     C24478   5.115   5.494   5.501  0.7427  0.6018 -0.4477
  944MOL0     O24479   5.250   5.470   5.514 -0.2489 -0.2795 -0.3566
  944MOL0     C24480   5.322   5.505   5.400 -0.2914 -0.4688  0.2403
  944MOL0     C24481   5.282   5.460   5.273  0.1480 -0.1166 -0.0180
  944MOL0     C24482   5.343   5.502   5.160 -0.3550  0.0544  0.4364
  944MOL0     C24483   5.444   5.594   5.165 -0.7119 -0.5848 -0.8205
  944MOL0     O24484   5.497   5.647   5.052 -0.0550 -1.1457 -0.0483
  944MOL0     C24485   5.637   5.656   5.033  0.3261 -0.4112  0.6572
  944MOL0     C24486   5.653   5.671   4.887  0.4643 -0.3743  0.2755
  944MOL0     C24487   5.802   5.678   4.859  0.4333  0.4515  0.3228
  944MOL0     C24488   5.837   5.731   4.716  0.1540 -0.5750  0.1637
  944MOL0     C24489   5.980   5.763   4.719 -0.7741 -0.3010 -0.1706
  944MOL0     C24490   6.034   5.845   4.595  0.3054  0.4647 -0.9068
  944MOL0     C24491   6.020   5.995   4.630  0.9446  0.3672 -0.3983
  944MOL0     C24492   6.012   6.085   4.500 -0.0507  0.3167  0.4636
  944MOL0     N24493   6.140   6.104   4.424  0.7059  0.5106 -0.3178
  944MOL0     C24494   6.211   6.007   4.369 -0.9342  0.4411 -0.7461
  944MOL0     C24495   6.340   6.050   4.348  0.0161  0.8197  0.1433
  944MOL0     C24496   6.460   5.980   4.301 -0.0116 -0.1234  0.3826
  944MOL0     C24497   6.457   5.831   4.354 -0.3564 -0.7265 -0.0097
  944MOL0     C24498   6.598   5.763   4.345  0.3457 -0.3139 -0.3781
  944MOL0     C24499   6.621   5.715   4.202 -0.5534  0.6098  0.7665
  944MOL0     O24500   6.746   5.643   4.172 -0.5943  0.0586  0.6673
  944MOL0     C24501   6.775   5.523   4.227  0.5684 -0.1929 -0.0846
  944MOL0     C24502   6.902   5.473   4.198  0.0445 -0.0747 -1.0888
  944MOL0     C24503   6.951   5.352   4.240 -1.4260  0.0494  1.0010
  944MOL0     C24504   6.877   5.274   4.319  0.7837  0.5387  0.4281
  944MOL0     C24505   6.924   5.153   4.390  0.8844  0.5615  0.6928
  944MOL0     O24506   6.846   5.090   4.478 -0.1663 -0.5375 -0.2956
  944MOL0     C24507   6.887   4.966   4.529 -0.2297 -0.2974  0.1719
  944MOL0     C24508   6.829   4.856   4.464  0.2485 -0.6655 -1.1724
  944MOL0     C24509   6.878   4.726   4.487  0.1297 -0.7982  0.0062
  944MOL0     C24510   6.972   4.715   4.585  0.1507  0.3814  0.8090
  944MOL0     O24511   7.027   4.595   4.617 -0.1104 -0.7003  0.3256
  944MOL0     C24512   6.936   4.484   4.634 -0.9676  0.2368  0.5116
  944MOL0     C24513   6.991   4.371   4.720 -0.9823  0.0247  0.8923
  944MOL0     C24514   7.037   4.429   4.851  0.1650  1.0604 -0.2091
  944MOL0     C24515   7.037   4.312   4.964 -0.1700  0.1751  0.4976
  944MOL0     C24516   7.084   4.359   5.101  0.0036 -0.4125  0.8316
  944MOL0     C24517   7.234   4.392   5.129  0.0705 -0.0511 -0.7780
  944MOL0     C24518   7.268   4.448   5.268  0.2473  0.1300 -0.6158
  944MOL0     C24519   7.426   4.443   5.281 -0.1933  0.8601 -0.8487
  944MOL0    Cl24520   7.487   4.272   5.290 -0.8238 -0.1821 -0.1064
  944MOL0     C24521   7.041   4.828   4.629 -0.4560  0.1081  0.5393
  944MOL0     C24522   6.987   4.955   4.614  0.4731  0.4265 -0.1833
  944MOL0     O24523   7.031   5.117   4.352 -0.6253  0.9113  0.3742
  944MOL0     C24524   6.744   5.320   4.345 -0.8956  0.1666  0.4781
  944MOL0     C24525   6.692   5.445   4.299 -0.0971 -0.2572  0.3825
  944MOL0     N24526   6.330   6.182   4.375 -0.2231  0.5854  0.3490
  944MOL0     N24527   6.215   6.214   4.424  0.3913  0.6194 -0.1740
  944MOL0     C24528   5.501   5.633   5.295  0.0907 -0.4338  0.4232
  944MOL0     C24529   5.442   5.575   5.405 -0.3127  0.5014 -0.5701
  944MOL0     C24530   5.030   5.383   5.565 -0.0286 -0.4487 -0.5953
  944MOL0     C24531   4.890   5.395   5.580  0.9625 -0.7238 -0.1357
  944MOL0     C24532   4.817   5.298   5.645  0.0321  0.1204 -0.6416
  944MOL0     C24533   4.867   5.175   5.684 -0.3004 -0.0862  0.1893
  944MOL0     O24534   4.787   5.075   5.736  0.1520 -0.4062  0.0225
  944MOL0     C24535   4.697   5.096   5.857 -0.2251  0.0103  0.2420
  944MOL0     C24536   4.720   4.983   5.963 -0.2503 -0.8334  0.6966
  944MOL0     C24537   4.704   4.845   5.894  0.9496  0.1557  0.0577
  944MOL0     C24538   4.558   4.789   5.924  0.2545  0.1582 -0.3098
  944MOL0     C24539   4.469   4.844   5.827  0.3966 -0.1305 -1.0618
  944MOL0     C24540   4.401   4.897   5.741 -0.2625  1.0591  0.6428
  944MOL0     C24541   5.004   5.153   5.665  0.1942 -0.3490  0.5564
  944MOL0     C24542   5.089   5.255   5.607  0.1610 -0.1368  0.8540
  944MOL0     H24543   5.208   5.381   5.264  1.3378 -1.3061  0.2262
  944MOL0     H24544   5.304   5.464   5.065 -1.3201  0.3803  0.6903
  944MOL0     H24545   5.686   5.564   5.067 -1.0942 -1.1362  0.8217
  944MOL0     H24546   5.685   5.739   5.087  1.3995 -0.5448 -0.0609
  944MOL0     H24547   5.609   5.769   4.864  1.6722  0.3531  0.9474
  944MOL0     H24548   5.603   5.593   4.829  0.1721  0.5057 -0.7046
  944MOL0     H24549   5.851   5.581   4.872 -1.3654 -0.6244 -0.6410
  944MOL0     H24550   5.841   5.751   4.930 -2.4984 -0.6338  3.3135
  944MOL0     H24551   5.814   5.668   4.629  0.3870 -0.4142 -0.0169
  944MOL0     H24552   5.787   5.823   4.686  2.9424  0.6109 -1.1939
  944MOL0     H24553   6.039   5.672   4.730  1.1366  0.9373  0.3471
  944MOL0     H24554   6.002   5.814   4.814  0.8845  0.4055 -0.8987
  944MOL0     H24555   5.979   5.830   4.502 -1.6548  2.0905 -0.0857
  944MOL0     H24556   6.138   5.813   4.580 -0.5526 -1.9225 -2.1614
  944MOL0     H24557   5.943   6.019   4.704 -1.6925 -1.0798 -2.5207
  944MOL0     H24558   6.113   6.018   4.683 -0.0608  0.9519  1.2001
  944MOL0     H24559   5.976   6.185   4.526  0.0187  0.2150  0.9624
  944MOL0     H24560   5.935   6.044   4.434  0.6757 -1.4661  0.6564
  944MOL0     H24561   6.176   5.906   4.350 -0.7184 -0.5277  3.0766
  944MOL0     H24562   6.547   6.037   4.337  0.7399 -2.0849  1.8241
  944MOL0     H24563   6.462   5.977   4.191  2.8747  2.0084  0.2238
  944MOL0     H24564   6.387   5.774   4.291 -0.1479 -1.2071  0.1855
  944MOL0     H24565   6.427   5.829   4.459  0.3888  1.1398  0.2611
  944MOL0     H24566   6.675   5.836   4.373  0.9024 -1.1124  0.2190
  944MOL0     H24567   6.594   5.682   4.418 -0.6370 -0.4969 -0.6246
  944MOL0     H24568   6.602   5.807   4.146  0.2747  2.1334  2.8791
  944MOL0     H24569   6.541   5.649   4.166  0.1081 -0.0781  0.5299
  944MOL0     H24570   6.967   5.528   4.131  1.0927  0.9334  0.6845
  944MOL0     H24571   7.052   5.325   4.212 -0.6605  4.5492 -1.4795
  944MOL0     H24572   6.738   4.862   4.406 -2.0629 -0.9450  2.1295
  944MOL0     H24573   6.843   4.636   4.438  2.0238 -1.0872 -0.9015
  944MOL0     H24574   6.903   4.438   4.540 -2.1206 -3.6573  2.6223
  944MOL0     H24575   6.844   4.524   4.676 -0.1934  0.3960  2.1160
  944MOL0     H24576   7.077   4.328   4.668 -1.8382  0.7717 -1.2753
  944MOL0     H24577   6.908   4.300   4.727  0.3480 -1.5646  1.1410
  944MOL0     H24578   6.964   4.508   4.874 -2.0728 -0.9615  0.0938
  944MOL0     H24579   7.141   4.460   4.846  0.2138  1.1145  0.7984
  944MOL0     H24580   6.933   4.280   4.957 -0.5561  1.7191 -1.9571
  944MOL0     H24581   7.108   4.234   4.933 -0.4038  0.8363 -1.8895
  944MOL0     H24582   7.079   4.280   5.176  0.7692  0.3248  1.6776
  944MOL0     H24583   7.016   4.442   5.124  0.2617 -0.5536  2.1979
  944MOL0     H24584   7.264   4.462   5.051 -2.5310 -0.3567 -2.1666
  944MOL0     H24585   7.285   4.296   5.117 -0.9201 -0.5757 -0.9201
  944MOL0     H24586   7.228   4.549   5.280 -0.2042 -0.2671  1.8817
  944MOL0     H24587   7.230   4.380   5.345 -0.5534 -0.1928 -1.2911
  944MOL0     H24588   7.450   4.488   5.378 -1.7291 -0.0490  0.0029
  944MOL0     H24589   7.471   4.492   5.195 -1.3593  4.1263  0.2132
  944MOL0     H24590   7.139   4.825   4.674  0.4290 -0.5172 -1.3208
  944MOL0     H24591   7.031   5.049   4.646  2.6383 -0.0102 -1.6950
  944MOL0     H24592   6.678   5.260   4.407 -3.3257  0.5233 -1.5483
  944MOL0     H24593   6.593   5.469   4.336 -0.1753 -0.5840  0.3874
  944MOL0     H24594   5.576   5.709   5.310 -2.4398  2.2911  0.2350
  944MOL0     H24595   5.483   5.592   5.504  0.5039 -1.5994 -0.5053
  944MOL0     H24596   4.839   5.488   5.558  1.5299 -0.2518  0.5298
  944MOL0     H24597   4.717   5.326   5.675  0.3623 -0.3546  0.9837
  944MOL0     H24598   4.592   5.099   5.827 -0.5154  0.2970  1.2665
  944MOL0     H24599   4.732   5.188   5.904  1.8148 -0.0098 -1.0881
  944MOL0     H24600   4.826   4.987   5.989  0.2769 -0.8533 -1.2582
  944MOL0     H24601   4.657   5.006   6.049 -1.3324 -1.0930 -0.0026
  944MOL0     H24602   4.779   4.775   5.931 -1.0020 -1.6025  0.8697
  944MOL0     H24603   4.723   4.857   5.786 -1.5117  1.0129 -0.3631
  944MOL0     H24604   4.560   4.680   5.919 -1.4461  0.0321  0.8469
  944MOL0     H24605   4.536   4.811   6.029  1.5462 -1.5364  0.3526
  944MOL0     H24606   4.339   4.938   5.664 -2.2177 -1.1355  0.9354
  944MOL0     H24607   5.049   5.059   5.697 -0.0175 -0.4914  0.4350
  944MOL0     H24608   5.194   5.229   5.597  0.1455 -0.2269  0.9208
  945MOL0     O24609   6.355   8.939   3.585 -0.3148  1.0199 -0.5457
  945MOL0     C24610   6.335   9.059   3.577  0.0044 -0.4660  0.8884
  945MOL0     O24611   6.421   9.149   3.509 -0.6415  0.4645 -0.4187
  945MOL0     C24612   6.514   9.109   3.413 -0.3939 -0.5873 -0.5861
  945MOL0     C24613   6.617   9.211   3.392 -0.4115  0.2581 -0.5498
  945MOL0     C24614   6.736   9.176   3.332 -0.7003 -0.9619  0.7756
  945MOL0     C24615   6.756   9.053   3.260 -0.2578  1.0448 -0.0754
  945MOL0     O24616   6.868   9.023   3.188 -0.1508 -0.3753  0.0285
  945MOL0     C24617   6.996   9.017   3.251 -0.5533  0.1773  0.0320
  945MOL0     C24618   7.097   9.021   3.134 -0.6107 -0.6387  0.6210
  945MOL0     C24619   7.110   8.914   3.024  0.5813  0.3623  0.4951
  945MOL0     C24620   7.228   8.933   2.921 -0.8804 -0.0357  0.1505
  945MOL0     C24621   7.208   8.851   2.787 -0.2998  1.0535  0.1715
  945MOL0     C24622   7.093   8.908   2.704 -0.3245  0.3833 -0.2886
  945MOL0     C24623   7.045   8.818   2.587  0.1005  0.1552  1.3528
  945MOL0     C24624   7.156   8.789   2.481  0.0112  0.0423  0.1987
  945MOL0     N24625   7.218   8.906   2.426  0.4469 -0.5877 -0.4099
  945MOL0     C24626   7.328   8.974   2.473 -0.3730 -0.3388  0.7261
  945MOL0     C24627   7.332   9.091   2.395 -0.5348  0.3418 -0.6015
  945MOL0     C24628   7.436   9.206   2.408 -0.5098 -0.9369 -0.0786
  945MOL0     C24629   7.368   9.343   2.388  0.0791  0.7126  0.2771
  945MOL0     C24630   7.463   9.461   2.410  0.2839 -0.3648 -0.4557
  945MOL0     C24631   7.583   9.462   2.311 -0.1269 -0.9076 -0.1178
  945MOL0     O24632   7.694   9.370   2.323  0.6944 -0.4547  0.3831
  945MOL0     C24633   7.762   9.375   2.437  0.1688 -0.0218 -0.2247
  945MOL0     C24634   7.832   9.488   2.478 -1.2858 -0.5596  1.0051
  945MOL0     C24635   7.924   9.485   2.579 -0.5604 -0.0351 -0.3810
  945MOL0     C24636   7.953   9.367   2.652  0.0478 -0.4937  0.2886
  945MOL0     C24637   8.043   9.352   2.771 -0.1425 -0.7397 -0.5616
  945MOL0     O24638   8.070   9.471   2.847  0.1872 -0.0640 -0.0182
  945MOL0     C24639   8.120   9.457   2.972 -0.0460 -0.0498  0.0229
  945MOL0     C24640   8.047   9.520   3.079 -0.2638  0.5504  0.2050
  945MOL0     C24641   8.102   9.520   3.213  0.3344 -0.5279  0.0838
  945MOL0     C24642   8.213   9.445   3.239  0.2927  0.1879  0.2205
  945MOL0     O24643   8.280   9.443   3.356 -0.4633  0.3861 -0.3306
  945MOL0     C24644   8.196   9.404   3.465  0.5419  0.3011 -0.2205
  945MOL0     C24645   8.161   9.525   3.550  0.1401 -0.9021 -0.2925
  945MOL0     C24646   8.007   9.523   3.580 -1.0994 -0.1237 -0.3436
  945MOL0     C24647   7.956   9.650   3.638  0.6180  0.9431 -1.2276
  945MOL0     C24648   7.828   9.618   3.722  0.2387  0.2063  0.0406
  945MOL0     C24649   7.792   9.731   3.815  1.1413  0.4039  0.5616
  945MOL0     C24650   7.686   9.676   3.918 -1.0909  0.2606  0.2053
  945MOL0     C24651   7.638   9.785   4.025  1.0011 -0.2069  0.1737
  945MOL0    Cl24652   7.535   9.910   3.932 -0.3698 -0.2965  0.4338
  945MOL0     C24653   8.274   9.370   3.134  0.1530  0.5079  0.5312
  945MOL0     C24654   8.232   9.386   3.001  1.0063  0.1067 -0.2037
  945MOL0     O24655   8.070   9.240   2.796  0.4343  0.9722  0.1304
  945MOL0     C24656   7.881   9.247   2.610 -0.4937 -0.1744  0.0946
  945MOL0     C24657   7.784   9.255   2.502  0.2821  0.3395 -0.5076
  945MOL0     N24658   7.228   9.087   2.302  0.9874 -0.5785  0.4568
  945MOL0     N24659   7.158   8.980   2.331  0.0892 -0.2996  0.3142
  945MOL0     C24660   6.652   8.967   3.274  0.3610  0.5853  0.3955
  945MOL0     C24661   6.533   8.979   3.353  0.3247 -0.4914 -0.1329
  945MOL0     C24662   6.213   9.125   3.641  0.3325 -0.3651  0.2680
  945MOL0     C24663   6.105   9.056   3.701  0.2069 -0.7925 -0.2228
  945MOL0     C24664   5.993   9.118   3.752 -0.6691  0.3003  0.5958
  945MOL0     C24665   5.989   9.255   3.747 -0.2937  0.6332  0.5788
  945MOL0     O24666   5.871   9.304   3.798  0.2281 -0.4753 -0.6144
  945MOL0     C24667   5.859   9.392   3.915  0.0062  0.5307  0.2588
  945MOL0     C24668   5.748   9.502   3.889  0.8544 -1.1223 -0.0614
  945MOL0     C24669   5.606   9.461   3.901 -0.9622 -0.4466 -0.2717
  945MOL0     C24670   5.531   9.512   4.023  1.1331 -0.3280  0.1833
  945MOL0     C24671   5.390   9.466   4.026 -0.8008 -0.2232 -0.6524
  945MOL0     C24672   5.272   9.446   4.027  0.3671 -0.2760  0.7379
  945MOL0     C24673   6.095   9.328   3.700 -0.8992 -0.5102  0.2467
  945MOL0     C24674   6.206   9.269   3.643 -0.9112  1.1799  0.1601
  945MOL0     H24675   6.599   9.311   3.432 -0.4437  0.4353 -0.9923
  945MOL0     H24676   6.810   9.255   3.320 -0.7705 -1.1394 -1.0860
  945MOL0     H24677   7.004   8.927   3.313  1.7485  1.3186  1.5503
  945MOL0     H24678   7.016   9.099   3.320  2.0595  0.4442 -0.9279
  945MOL0     H24679   7.203   9.037   3.155 -0.4913 -0.8739  0.1988
  945MOL0     H24680   7.073   9.120   3.094 -1.6111  0.3684  3.4247
  945MOL0     H24681   7.019   8.904   2.963 -0.8972  1.1835  2.4587
  945MOL0     H24682   7.132   8.817   3.070  2.0954  0.9020  0.9433
  945MOL0     H24683   7.225   9.035   2.882 -1.9425 -1.5092 -4.1878
  945MOL0     H24684   7.320   8.919   2.978  0.8667  1.3588 -2.1000
  945MOL0     H24685   7.185   8.748   2.818 -1.8928  1.7954  1.6327
  945MOL0     H24686   7.301   8.856   2.729  0.6168  1.8444  1.6608
  945MOL0     H24687   7.124   9.006   2.668  2.3810  0.0220  0.8331
  945MOL0     H24688   6.999   8.918   2.759 -1.5562 -0.5473 -2.1273
  945MOL0     H24689   6.996   8.729   2.628 -0.1916  1.1120  3.1496
  945MOL0     H24690   6.974   8.873   2.524  3.3551  3.3361  0.1033
  945MOL0     H24691   7.124   8.717   2.405  0.3329 -1.4293  1.4232
  945MOL0     H24692   7.243   8.741   2.527 -0.1725 -0.2921  0.2025
  945MOL0     H24693   7.397   8.948   2.552  1.6530 -0.5592 -1.0082
  945MOL0     H24694   7.521   9.177   2.344  1.2732 -2.0950  2.6322
  945MOL0     H24695   7.463   9.208   2.514 -0.5320  6.0077  0.2387
  945MOL0     H24696   7.278   9.358   2.448  0.2469 -1.6660  1.2159
  945MOL0     H24697   7.321   9.333   2.289  1.1287 -0.2073 -0.1468
  945MOL0     H24698   7.407   9.554   2.410  0.3317 -0.3335 -0.9173
  945MOL0     H24699   7.508   9.451   2.509 -0.2147  1.2155 -0.0467
  945MOL0     H24700   7.620   9.564   2.320  0.0425 -0.7758 -1.8475
  945MOL0     H24701   7.547   9.463   2.208 -0.5415  1.5360 -0.0025
  945MOL0     H24702   7.812   9.582   2.427 -4.8604 -0.3344  2.5665
  945MOL0     H24703   7.978   9.577   2.597 -1.7733  0.5935  0.1961
  945MOL0     H24704   7.956   9.568   3.046 -1.3091 -1.4722  0.0018
  945MOL0     H24705   8.060   9.566   3.303 -0.7316 -0.8293 -0.2471
  945MOL0     H24706   8.243   9.321   3.520 -2.2888  0.6044  3.0114
  945MOL0     H24707   8.107   9.356   3.425  1.0059 -1.1870  0.4450
  945MOL0     H24708   8.173   9.615   3.489 -2.1732  1.4411  2.3920
  945MOL0     H24709   8.222   9.548   3.637  0.4766  2.6015 -1.3078
  945MOL0     H24710   7.988   9.438   3.646  0.5725 -0.6433 -0.4972
  945MOL0     H24711   7.955   9.502   3.486  0.5252 -2.8597 -0.7443
  945MOL0     H24712   8.033   9.692   3.702  0.9988 -3.0705  1.3269
  945MOL0     H24713   7.944   9.724   3.558 -1.0693  1.8337 -0.2056
  945MOL0     H24714   7.833   9.534   3.792 -3.3244  1.9124  2.6809
  945MOL0     H24715   7.743   9.596   3.656  0.7302  2.2521 -1.3980
  945MOL0     H24716   7.745   9.797   3.742  1.0550 -1.1500 -0.8429
  945MOL0     H24717   7.876   9.775   3.870 -0.5703  3.6297  0.8391
  945MOL0     H24718   7.608   9.627   3.860  3.1592 -4.2282 -2.6053
  945MOL0     H24719   7.728   9.593   3.977  2.1847 -0.0134 -2.1923
  945MOL0     H24720   7.726   9.824   4.077  1.0456 -2.0360  1.5700
  945MOL0     H24721   7.586   9.748   4.114  1.8594  2.0031  1.6907
  945MOL0     H24722   8.362   9.314   3.164  0.6672  1.7684  1.4416
  945MOL0     H24723   8.293   9.353   2.917 -0.6051  0.6744 -1.6723
  945MOL0     H24724   7.914   9.159   2.664  0.5293 -1.0128 -1.7749
  945MOL0     H24725   7.733   9.164   2.472  4.1290 -1.3193 -2.6554
  945MOL0     H24726   6.667   8.874   3.220  0.0883  0.0530  1.2140
  945MOL0     H24727   6.473   8.891   3.373 -0.8004  0.1561 -0.5555
  945MOL0     H24728   6.123   8.949   3.703  0.3250 -0.8261  3.3083
  945MOL0     H24729   5.918   9.045   3.778 -3.3093  2.3971 -0.6444
  945MOL0     H24730   5.958   9.431   3.939  1.3398 -2.2518 -0.3258
  945MOL0     H24731   5.828   9.331   4.000 -1.6566  1.2949  0.2416
  945MOL0     H24732   5.774   9.584   3.956 -0.3110  1.4211 -2.5481
  945MOL0     H24733   5.759   9.533   3.785 -3.4533 -0.9072 -0.6170
  945MOL0     H24734   5.599   9.352   3.899 -0.8303 -0.4480 -1.3805
  945MOL0     H24735   5.556   9.487   3.807  0.0493 -1.5031 -1.1284
  945MOL0     H24736   5.562   9.470   4.119  0.0139  0.0428  0.7165
  945MOL0     H24737   5.539   9.621   4.033  0.8684 -0.5214  3.8826
  945MOL0     H24738   5.168   9.423   4.028  0.0225  1.1266 -0.0233
  945MOL0     H24739   6.109   9.435   3.704  0.7585 -0.3166 -4.5203
  945MOL0     H24740   6.284   9.327   3.595  1.4989 -1.5348  0.5094
  946MOL0     O24741   5.540  11.365   1.047 -0.2298  0.0372  1.5483
  946MOL0     C24742   5.454  11.418   1.109 -0.1478 -0.3056 -0.4286
  946MOL0     O24743   5.333  11.362   1.135 -0.4743 -0.6134  0.1648
  946MOL0     C24744   5.306  11.272   1.042  1.2926 -0.2067 -0.3041
  946MOL0     C24745   5.304  11.140   1.077  0.0893  0.3451  0.1182
  946MOL0     C24746   5.264  11.042   0.981  1.3805  0.2109  0.7763
  946MOL0     C24747   5.213  11.075   0.849  0.6757 -1.6866  0.5929
  946MOL0     O24748   5.182  10.974   0.762  0.1329  0.6846 -0.1271
  946MOL0     C24749   5.109  11.003   0.640  0.7420  0.4494 -0.5692
  946MOL0     C24750   5.069  10.869   0.570  0.3808  0.0176  0.2918
  946MOL0     C24751   4.965  10.877   0.462 -0.2475 -0.3653  0.6536
  946MOL0     C24752   5.005  10.962   0.341 -0.3858 -0.7520  0.7428
  946MOL0     C24753   5.089  10.882   0.243 -0.1578 -0.6619 -0.3939
  946MOL0     C24754   5.128  10.954   0.107 -0.4422  0.5737 -0.4094
  946MOL0     C24755   5.225  11.077   0.136  0.2281 -0.2165  0.5785
  946MOL0     C24756   5.147  11.200   0.171 -0.1208  0.4784 -0.7074
  946MOL0     N24757   5.190  11.310   0.085 -0.0093 -0.3608 -0.7350
  946MOL0     C24758   5.264  11.422   0.118 -0.2461  0.3781  0.6776
  946MOL0     C24759   5.281  11.489  -0.003 -0.1739 -0.6627  0.3388
  946MOL0     C24760   5.368  11.604  -0.018  0.2710 -0.0997  1.3281
  946MOL0     C24761   5.512  11.566  -0.052  0.0496 -0.9417 -0.2875
  946MOL0     C24762   5.545  11.555  -0.198 -0.5820  0.1170 -1.1447
  946MOL0     C24763   5.677  11.487  -0.232 -0.1134 -0.0873  0.8021
  946MOL0     O24764   5.777  11.579  -0.265 -0.4315 -0.0396  0.4327
  946MOL0     C24765   5.793  11.641  -0.384  0.0931 -0.7999 -0.3198
  946MOL0     C24766   5.699  11.660  -0.481  0.3912 -0.4598  0.0122
  946MOL0     C24767   5.734  11.726  -0.602  0.4510 -0.1486  0.5038
  946MOL0     C24768   5.865  11.755  -0.629  0.6690  0.6789  1.3019
  946MOL0     C24769   5.902  11.803  -0.771 -0.6192 -0.5947 -0.5263
  946MOL0     O24770   5.808  11.883  -0.829  0.4575  0.5844 -0.0629
  946MOL0     C24771   5.800  11.905  -0.959 -0.0929 -0.8533 -0.8192
  946MOL0     C24772   5.835  11.815  -1.060  2.1563  0.7005 -0.6496
  946MOL0     C24773   5.806  11.839  -1.198 -0.3491 -0.2001 -0.0741
  946MOL0     C24774   5.745  11.960  -1.239 -0.7539 -0.3714  1.1243
  946MOL0     O24775   5.722  11.989  -1.372 -1.7157 -0.2473  0.2434
  946MOL0     C24776   5.795  11.908  -1.474 -0.2366  0.2820  0.1789
  946MOL0     C24777   5.775  11.985  -1.602 -0.3328  0.7008 -0.0020
  946MOL0     C24778   5.846  12.118  -1.597 -0.3202 -0.2924 -0.1522
  946MOL0     C24779   5.844  12.187  -1.731  0.5895  0.2258  0.5201
  946MOL0     C24780   5.906  12.330  -1.722  0.4803  0.1159  0.3051
  946MOL0     C24781   6.001  12.353  -1.842  0.0572 -0.0931  0.3188
  946MOL0     C24782   5.929  12.379  -1.975 -0.2889  0.2996 -0.3664
  946MOL0     C24783   6.027  12.367  -2.095 -0.1881  0.1164 -0.3255
  946MOL0    Cl24784   5.944  12.377  -2.251  0.1932 -0.3097  0.3523
  946MOL0     C24785   5.699  12.047  -1.137 -0.0425 -0.3059 -0.9121
  946MOL0     C24786   5.740  12.028  -0.997 -0.1086 -0.1147 -0.5119
  946MOL0     O24787   6.007  11.777  -0.825  0.3502 -0.1567 -0.0187
  946MOL0     C24788   5.956  11.735  -0.530  0.3602  0.3029  0.0805
  946MOL0     C24789   5.926  11.683  -0.408 -0.4652  0.1098 -0.2950
  946MOL0     N24790   5.205  11.425  -0.100  0.1246 -0.6644  0.9863
  946MOL0     N24791   5.147  11.328  -0.043 -0.2433 -0.5939  0.0696
  946MOL0     C24792   5.200  11.212   0.828 -0.4916 -0.8670 -0.0663
  946MOL0     C24793   5.258  11.306   0.919 -0.1995 -0.0267  0.3415
  946MOL0     C24794   5.496  11.550   1.163 -0.1217  0.5951 -0.4193
  946MOL0     C24795   5.399  11.618   1.232 -0.1049 -0.5071  0.8505
  946MOL0     C24796   5.422  11.746   1.285 -0.0393  0.2711  1.1686
  946MOL0     C24797   5.550  11.800   1.288  0.0985 -0.1512 -0.1383
  946MOL0     O24798   5.573  11.921   1.357 -0.4542 -0.1732  0.2531
  946MOL0     C24799   5.706  11.954   1.402  0.1942  0.7156 -0.4190
  946MOL0     C24800   5.781  12.052   1.305 -0.2463  0.4969  0.0956
  946MOL0     C24801   5.888  12.134   1.378 -0.3070  0.6605 -0.3568
  946MOL0     C24802   6.019  12.064   1.379  0.3289 -0.2549  0.2127
  946MOL0     C24803   6.108  12.130   1.480  0.0831 -1.2134  0.1839
  946MOL0     C24804   6.184  12.200   1.543  1.3340  0.3010  0.2542
  946MOL0     C24805   5.649  11.729   1.219 -0.0116 -0.1207  0.3992
  946MOL0     C24806   5.617  11.606   1.156 -0.0673  0.1503 -0.3857
  946MOL0     H24807   5.328  11.112   1.179  0.1157  1.1199  0.3296
  946MOL0     H24808   5.264  10.938   1.012 -1.4439 -0.0521  0.2211
  946MOL0     H24809   5.185  11.054   0.580  2.4646  0.9220  1.8452
  946MOL0     H24810   5.016  11.060   0.643  0.3252 -0.2285  2.1713
  946MOL0     H24811   5.019  10.810   0.648  1.1656 -5.1859 -2.6242
  946MOL0     H24812   5.159  10.814   0.541 -0.2979 -0.3919 -1.1405
  946MOL0     H24813   4.873  10.921   0.501 -1.3843 -0.7192 -1.4895
  946MOL0     H24814   4.937  10.773   0.441 -0.5870 -1.2675  4.7821
  946MOL0     H24815   4.913  10.984   0.286  0.8179  1.2777 -0.6182
  946MOL0     H24816   5.060  11.048   0.379  2.5882 -1.6830 -1.0938
  946MOL0     H24817   5.034  10.793   0.213 -1.8312  0.7733 -1.8412
  946MOL0     H24818   5.182  10.852   0.293 -0.6531 -1.4185  0.0865
  946MOL0     H24819   5.035  10.975   0.053 -0.8412  1.3728  0.5506
  946MOL0     H24820   5.179  10.874   0.051  0.2307 -0.1081  1.1201
  946MOL0     H24821   5.292  11.055   0.220 -1.0764  2.9797  2.6396
  946MOL0     H24822   5.264  11.101   0.036 -2.4657  0.7883 -0.3214
  946MOL0     H24823   5.176  11.221   0.274  0.5961 -1.7054 -0.4173
  946MOL0     H24824   5.041  11.172   0.163  0.3642 -2.1458  0.9871
  946MOL0     H24825   5.296  11.438   0.220 -1.5515  0.9708  1.0162
  946MOL0     H24826   5.369  11.657   0.078 -2.0692 -2.0194  2.5158
  946MOL0     H24827   5.329  11.676  -0.091  0.1146  0.1610  1.6646
  946MOL0     H24828   5.532  11.471  -0.002  1.8534  0.9343  2.9522
  946MOL0     H24829   5.585  11.635  -0.009  0.8394 -1.3513 -0.9450
  946MOL0     H24830   5.459  11.520  -0.255 -1.6977  2.8444 -1.2566
  946MOL0     H24831   5.547  11.662  -0.220  1.2366  0.0778 -1.3518
  946MOL0     H24832   5.665  11.409  -0.309  2.3640 -1.7360  1.9394
  946MOL0     H24833   5.707  11.427  -0.145 -0.5333 -2.8686 -0.8316
  946MOL0     H24834   5.609  11.603  -0.463  1.1187 -1.4282  0.6584
  946MOL0     H24835   5.665  11.744  -0.684  0.3523  1.7657  0.9455
  946MOL0     H24836   5.865  11.714  -1.038  3.2662  0.3154 -3.4933
  946MOL0     H24837   5.848  11.770  -1.270  2.8035 -0.7252  2.0628
  946MOL0     H24838   5.735  11.820  -1.499 -0.4556 -0.9631  4.3225
  946MOL0     H24839   5.901  11.884  -1.460 -0.2810  0.0506  0.1307
  946MOL0     H24840   5.670  12.005  -1.625 -0.4669 -0.6695 -0.6771
  946MOL0     H24841   5.824  11.928  -1.682 -1.7607  1.2940 -1.3442
  946MOL0     H24842   5.948  12.111  -1.558 -1.4453  0.5861  3.3471
  946MOL0     H24843   5.789  12.186  -1.532 -0.2860 -1.6046  1.3264
  946MOL0     H24844   5.885  12.117  -1.804 -0.8597 -0.2021  0.0892
  946MOL0     H24845   5.746  12.213  -1.770  0.4217 -2.3663 -1.0454
  946MOL0     H24846   5.966  12.345  -1.631  1.2821  1.4712 -0.3998
  946MOL0     H24847   5.832  12.409  -1.737  1.4411  0.4162 -4.3210
  946MOL0     H24848   6.062  12.262  -1.837  1.6870  1.0363  2.8813
  946MOL0     H24849   6.075  12.434  -1.835  0.0726 -0.0982  0.2270
  946MOL0     H24850   5.865  12.290  -1.976  1.8961 -1.4295  1.4900
  946MOL0     H24851   5.872  12.472  -1.976  2.0656  1.9055  2.1699
  946MOL0     H24852   6.086  12.275  -2.083  0.7746  1.0389  3.1065
  946MOL0     H24853   6.100  12.448  -2.086  2.1609 -1.9530  0.3315
  946MOL0     H24854   5.654  12.144  -1.152  0.2631 -0.0057  0.0115
  946MOL0     H24855   5.726  12.104  -0.921 -3.3659  0.3832 -1.4397
  946MOL0     H24856   6.059  11.754  -0.559  1.0555  0.0982  2.2654
  946MOL0     H24857   6.003  11.665  -0.334 -1.5806  1.1120  1.1668
  946MOL0     H24858   5.153  11.246   0.736 -0.6360 -1.0398 -0.0568
  946MOL0     H24859   5.277  11.407   0.884 -1.9695  0.1357 -0.2476
  946MOL0     H24860   5.304  11.565   1.240  1.0582 -2.5665  2.0390
  946MOL0     H24861   5.344  11.793   1.345 -1.7964 -0.5711 -0.3432
  946MOL0     H24862   5.783  11.877   1.405  1.8175  2.1436 -2.5864
  946MOL0     H24863   5.680  11.994   1.500 -3.0695  0.4695 -1.0931
  946MOL0     H24864   5.824  11.984   1.232 -1.2716 -4.4212  3.5604
  946MOL0     H24865   5.702  12.122   1.277 -1.7339 -2.0646 -2.6107
  946MOL0     H24866   5.847  12.158   1.477 -2.6169  0.9173 -1.3142
  946MOL0     H24867   5.894  12.236   1.338 -3.0784  0.9802 -0.1491
  946MOL0     H24868   6.008  11.959   1.408  0.8532  0.1522  2.0173
  946MOL0     H24869   6.076  12.063   1.286  3.1793 -1.1150  1.8457
  946MOL0     H24870   6.245  12.277   1.587 -1.3697  0.5063  4.1398
  946MOL0     H24871   5.744  11.778   1.200  0.0770  0.2318  1.7041
  946MOL0     H24872   5.691  11.556   1.095 -2.5019 -0.4081 -3.0760
  947MOL0     O24873   3.710   5.544   0.945 -0.3027 -0.8386  0.3722
  947MOL0     C24874   3.606   5.597   0.931  0.7046 -0.9923  0.2506
  947MOL0     O24875   3.586   5.727   0.914  0.7567  0.3252  0.0908
  947MOL0     C24876   3.701   5.806   0.927 -0.9014  0.4192  0.4411
  947MOL0     C24877   3.748   5.861   0.809 -0.2989 -0.4013 -0.3369
  947MOL0     C24878   3.849   5.965   0.811 -0.3285 -1.1986 -0.1965
  947MOL0     C24879   3.924   5.994   0.928  1.1139  0.7456 -0.5585
  947MOL0     O24880   4.027   6.089   0.947 -0.5282  0.4448 -0.0905
  947MOL0     C24881   4.091   6.137   0.828  0.3243  0.5008 -0.7962
  947MOL0     C24882   4.193   6.228   0.895 -0.1793 -0.0031  0.5073
  947MOL0     C24883   4.293   6.294   0.794 -0.0422  0.0573 -0.3131
  947MOL0     C24884   4.210   6.412   0.724  0.3463 -0.5303  0.3163
  947MOL0     C24885   4.268   6.460   0.584  0.9353  0.7264  0.0092
  947MOL0     C24886   4.177   6.561   0.517 -0.3350 -0.0531 -0.3527
  947MOL0     C24887   4.252   6.636   0.408  0.2430  0.4473  0.0957
  947MOL0     C24888   4.275   6.544   0.286 -0.7399  0.7159  0.6329
  947MOL0     N24889   4.151   6.506   0.215  0.0367  0.4865 -0.1389
  947MOL0     C24890   4.052   6.593   0.186  0.2435 -0.7875  1.2805
  947MOL0     C24891   3.944   6.513   0.155 -0.0432 -0.1650 -0.2790
  947MOL0     C24892   3.823   6.562   0.078  0.5751  0.4483 -0.4377
  947MOL0     C24893   3.687   6.477   0.088  0.2062  0.3423  0.4758
  947MOL0     C24894   3.569   6.563   0.046  0.0324  0.0831  0.0582
  947MOL0     C24895   3.433   6.497   0.033 -0.9581  0.5542  0.2691
  947MOL0     O24896   3.445   6.365  -0.018 -0.2750  0.4024 -0.8745
  947MOL0     C24897   3.364   6.271   0.038  0.0670  0.6929 -0.3550
  947MOL0     C24898   3.420   6.160   0.095  0.0437  0.1491  0.0980
  947MOL0     C24899   3.336   6.088   0.183 -0.7362  0.1706 -0.1604
  947MOL0     C24900   3.197   6.112   0.183 -0.6850 -0.3240  0.2999
  947MOL0     C24901   3.103   6.022   0.263 -0.3829  0.2725  0.0933
  947MOL0     O24902   2.976   6.058   0.255 -0.6512 -0.9033  0.0118
  947MOL0     C24903   2.907   6.034   0.368  0.5143 -0.4938 -0.4794
  947MOL0     C24904   2.768   5.994   0.352  0.4897 -0.1337 -0.2761
  947MOL0     C24905   2.683   5.962   0.451  0.4420 -0.6502  0.1878
  947MOL0     C24906   2.741   5.976   0.580  0.3263 -0.2705 -0.5094
  947MOL0     O24907   2.673   5.939   0.697  0.1673  0.7313  0.7340
  947MOL0     C24908   2.614   6.047   0.765 -0.4675  1.0935  0.0099
  947MOL0     C24909   2.463   6.023   0.797  0.6142 -1.4446 -0.0948
  947MOL0     C24910   2.398   6.150   0.825  0.7065  0.0313  0.0877
  947MOL0     C24911   2.363   6.244   0.702  0.1774 -0.6477 -0.1531
  947MOL0     C24912   2.257   6.346   0.744  0.5787  0.3556  0.2638
  947MOL0     C24913   2.299   6.445   0.854  0.5067  0.0707 -0.3891
  947MOL0     C24914   2.403   6.547   0.795  0.0996  0.6352 -0.1292
  947MOL0     C24915   2.520   6.586   0.904 -0.1069  0.0895 -0.6695
  947MOL0    Cl24916   2.633   6.453   0.930 -0.1121  0.0921  0.2923
  947MOL0     C24917   2.872   6.018   0.599  0.0366  0.1852  0.0077
  947MOL0     C24918   2.951   6.043   0.496  0.7712 -0.1933  0.8235
  947MOL0     O24919   3.147   5.921   0.322  0.5545  0.3202 -0.5158
  947MOL0     C24920   3.144   6.212   0.104  0.3475 -0.5842 -1.3747
  947MOL0     C24921   3.223   6.305   0.035  0.5781 -0.1787 -0.0626
  947MOL0     N24922   3.974   6.381   0.182 -0.0701 -0.0028 -0.3104
  947MOL0     N24923   4.101   6.383   0.220 -0.1200  0.1639 -0.1049
  947MOL0     C24924   3.864   5.936   1.047 -1.0285 -0.0403  0.0514
  947MOL0     C24925   3.753   5.849   1.054 -0.6745 -0.7837 -0.4266
  947MOL0     C24926   3.480   5.518   0.954 -1.0770  0.2644  0.8482
  947MOL0     C24927   3.477   5.382   0.952 -0.3759  0.3583  0.2457
  947MOL0     C24928   3.366   5.309   1.001  0.6172  0.0620  1.5603
  947MOL0     C24929   3.258   5.382   1.062  0.0835 -0.3499  0.1226
  947MOL0     O24930   3.156   5.330   1.126 -0.7119 -0.0054  0.5699
  947MOL0     C24931   3.156   5.186   1.111  0.1759 -0.5418 -1.1066
  947MOL0     C24932   3.046   5.142   1.220  0.9194 -0.9661 -0.0722
  947MOL0     C24933   3.098   5.159   1.372 -0.4877 -0.5214  0.5169
  947MOL0     C24934   3.042   5.286   1.447  0.4259  0.7201 -1.0400
  947MOL0     C24935   2.908   5.249   1.508  0.4956 -0.1988 -0.3500
  947MOL0     C24936   2.803   5.207   1.560  0.6100 -1.2185 -0.8521
  947MOL0     C24937   3.253   5.517   1.052 -0.8780  0.2610  0.2680
  947MOL0     C24938   3.368   5.589   0.998  1.0501  0.0422  0.3833
  947MOL0     H24939   3.699   5.840   0.715  0.0675  2.2307 -1.2090
  947MOL0     H24940   3.867   6.016   0.717 -1.4710 -1.4585 -0.5860
  947MOL0     H24941   4.013   6.192   0.775  0.4118  1.2995 -0.1273
  947MOL0     H24942   4.151   6.070   0.766  2.6261  2.3467 -0.6965
  947MOL0     H24943   4.240   6.167   0.972 -2.0826 -1.0074  0.9529
  947MOL0     H24944   4.142   6.312   0.944 -0.1070 -0.5653  1.5616
  947MOL0     H24945   4.315   6.202   0.741 -2.2105 -2.9543  3.4774
  947MOL0     H24946   4.379   6.344   0.840  1.4354 -2.7231  0.1337
  947MOL0     H24947   4.113   6.364   0.707 -2.6577  3.2939  4.4460
  947MOL0     H24948   4.195   6.504   0.782 -0.4692  0.3639 -1.2366
  947MOL0     H24949   4.291   6.376   0.516  1.5780 -0.1062  1.2232
  947MOL0     H24950   4.366   6.509   0.594  1.8018  0.0972 -3.7495
  947MOL0     H24951   4.143   6.641   0.584 -0.6227  1.7955 -2.6008
  947MOL0     H24952   4.093   6.505   0.474  1.5806 -2.4954 -1.1156
  947MOL0     H24953   4.188   6.719   0.376  2.2065  2.4497  0.9898
  947MOL0     H24954   4.338   6.688   0.450 -0.2063  1.0907  0.2344
  947MOL0     H24955   4.314   6.450   0.325 -1.1680 -1.4019 -3.4775
  947MOL0     H24956   4.354   6.563   0.212 -3.7353 -1.2851 -3.5253
  947MOL0     H24957   4.062   6.701   0.180 -0.3897 -0.7440  0.8525
  947MOL0     H24958   3.833   6.586  -0.028  0.7099  0.4759 -0.4181
  947MOL0     H24959   3.791   6.655   0.126  0.8560  1.0950 -1.4752
  947MOL0     H24960   3.671   6.427   0.184  1.6012 -0.7969  0.1467
  947MOL0     H24961   3.700   6.396   0.015  0.1504  0.4518  0.3415
  947MOL0     H24962   3.548   6.638   0.124 -0.6870  1.9840 -1.8636
  947MOL0     H24963   3.591   6.629  -0.038 -0.4649 -0.0538 -0.1850
  947MOL0     H24964   3.358   6.553  -0.024 -0.7884  0.2141 -0.3066
  947MOL0     H24965   3.390   6.497   0.133 -1.6696 -2.9576  0.0946
  947MOL0     H24966   3.526   6.147   0.077  0.0432  1.8008 -1.3468
  947MOL0     H24967   3.375   6.008   0.245 -1.1988  1.8861  2.5101
  947MOL0     H24968   2.751   5.968   0.248  0.6858  1.0489 -0.6092
  947MOL0     H24969   2.581   5.924   0.449 -0.0968  0.3275  3.4100
  947MOL0     H24970   2.626   6.137   0.704  1.0542  2.3730  2.0628
  947MOL0     H24971   2.666   6.058   0.861 -1.6115 -0.1856  0.8308
  947MOL0     H24972   2.458   5.958   0.885 -0.4485 -1.8154 -0.4139
  947MOL0     H24973   2.413   5.962   0.722 -0.7123 -1.1811  0.5402
  947MOL0     H24974   2.461   6.206   0.895  2.9465 -1.3742 -0.7191
  947MOL0     H24975   2.306   6.134   0.881  0.3835 -0.6390 -0.6247
  947MOL0     H24976   2.450   6.301   0.671 -1.2354  1.0722 -1.1221
  947MOL0     H24977   2.327   6.177   0.623  0.4070 -2.3575  1.1302
  947MOL0     H24978   2.166   6.290   0.770  1.5194 -1.7316 -0.7176
  947MOL0     H24979   2.219   6.396   0.653  1.3462 -1.6230 -1.2179
  947MOL0     H24980   2.330   6.388   0.942 -1.3266 -1.7911 -0.8767
  947MOL0     H24981   2.213   6.495   0.900  0.9267 -0.6682  1.2556
  947MOL0     H24982   2.449   6.525   0.698 -0.2877  0.5815 -0.3013
  947MOL0     H24983   2.358   6.646   0.782 -0.2774  0.2903 -1.6392
  947MOL0     H24984   2.479   6.619   1.000  1.5100  0.6234 -0.1272
  947MOL0     H24985   2.580   6.673   0.876  3.0841 -1.2999  1.2635
  947MOL0     H24986   2.910   6.030   0.700  1.6620 -0.1861 -0.5408
  947MOL0     H24987   3.046   6.082   0.529  1.5050 -2.3843  1.3966
  947MOL0     H24988   3.044   6.252   0.116  2.1505  4.4287 -0.2250
  947MOL0     H24989   3.196   6.401  -0.007 -1.4123 -1.1051 -1.0320
  947MOL0     H24990   3.899   5.973   1.143 -1.4779  2.2360 -0.5959
  947MOL0     H24991   3.723   5.809   1.150 -2.0450 -0.9661 -0.9207
  947MOL0     H24992   3.563   5.321   0.926  0.6526  2.1739 -0.8088
  947MOL0     H24993   3.353   5.204   0.976 -0.6965  0.4568  0.4691
  947MOL0     H24994   3.251   5.142   1.143  0.4895  2.4300  2.8145
  947MOL0     H24995   3.121   5.149   1.015 -0.8538 -2.7046  0.0318
  947MOL0     H24996   2.955   5.202   1.209  0.9476 -0.9010  0.0488
  947MOL0     H24997   3.023   5.037   1.199  3.0733 -1.1918 -1.5170
  947MOL0     H24998   3.208   5.157   1.370 -0.3890  1.7891 -1.9157
  947MOL0     H24999   3.073   5.067   1.427 -1.4655 -1.4955 -1.4540
  947MOL0     H25000   3.112   5.326   1.520 -2.3766 -0.7440  2.7559
  947MOL0     H25001   3.040   5.361   1.367 -2.1865  1.2261 -0.5997
  947MOL0     H25002   2.710   5.182   1.607  0.5827 -2.3180 -1.4569
  947MOL0     H25003   3.173   5.568   1.104 -0.1636 -1.6471  3.4649
  947MOL0     H25004   3.370   5.698   0.999 -1.0562  0.1194 -0.3172
  948MOL0     O25005   4.712   5.082   8.878  0.2837 -0.0240  0.0798
  948MOL0     C25006   4.668   4.988   8.943 -0.7210  0.3331  0.5463
  948MOL0     O25007   4.547   4.964   8.974  1.0579  0.5172 -0.1570
  948MOL0     C25008   4.432   5.025   8.924 -0.3054  0.0190  0.2409
  948MOL0     C25009   4.428   5.144   8.840 -0.3849  0.3280  0.4355
  948MOL0     C25010   4.314   5.201   8.794 -0.0545  0.4760 -1.0095
  948MOL0     C25011   4.191   5.148   8.839 -0.0485  0.7130 -0.1187
  948MOL0     O25012   4.067   5.199   8.805 -0.0077  0.8358 -0.9471
  948MOL0     C25013   4.036   5.331   8.838 -0.1571 -0.4207  0.6018
  948MOL0     C25014   3.886   5.338   8.847  0.1960  0.5060 -0.9477
  948MOL0     C25015   3.838   5.246   8.966  0.2976  0.2966 -1.0659
  948MOL0     C25016   3.685   5.267   8.988 -0.5473  1.2680  0.1877
  948MOL0     C25017   3.646   5.407   9.023 -0.5505 -0.9031 -0.4193
  948MOL0     C25018   3.509   5.415   9.087 -0.5521  0.8093 -0.2881
  948MOL0     C25019   3.396   5.324   9.036 -0.5474 -0.5414  0.5606
  948MOL0     C25020   3.268   5.345   9.120  1.3896  0.9606 -0.3717
  948MOL0     N25021   3.279   5.296   9.263 -0.0812 -0.5538  0.0999
  948MOL0     C25022   3.286   5.167   9.297 -0.7729  0.4861 -0.0834
  948MOL0     C25023   3.320   5.155   9.424 -0.2651  0.2389 -0.2320
  948MOL0     C25024   3.376   5.039   9.489  0.6036 -0.3116 -0.3195
  948MOL0     C25025   3.490   4.973   9.421 -0.3074 -0.1620  0.4843
  948MOL0     C25026   3.601   5.072   9.374  0.3621 -0.1231 -0.9635
  948MOL0     C25027   3.697   4.992   9.308 -0.8691 -0.9499 -0.4583
  948MOL0     O25028   3.825   5.045   9.287 -0.5005 -1.1736 -0.0310
  948MOL0     C25029   3.925   4.958   9.282  0.5625 -0.0645  0.4427
  948MOL0     C25030   3.930   4.864   9.176 -0.0548 -0.2267 -1.5652
  948MOL0     C25031   4.034   4.771   9.164  0.0338 -0.0811 -0.2309
  948MOL0     C25032   4.126   4.774   9.264  0.4372  0.6547 -0.6956
  948MOL0     C25033   4.235   4.667   9.263  0.0784 -0.1683 -0.3929
  948MOL0     O25034   4.221   4.562   9.177  0.1302 -0.3659  0.6287
  948MOL0     C25035   4.328   4.476   9.169  0.4266 -0.2404  0.4977
  948MOL0     C25036   4.396   4.413   9.275  0.2253 -0.6305  0.1919
  948MOL0     C25037   4.522   4.353   9.263 -0.4155 -0.4356 -0.5885
  948MOL0     C25038   4.579   4.345   9.136  0.2489  0.1551  0.1368
  948MOL0     O25039   4.705   4.305   9.109 -0.1621 -0.1717  0.1789
  948MOL0     C25040   4.799   4.285   9.217 -0.8167  0.0180  0.5240
  948MOL0     C25041   4.931   4.238   9.161 -0.4494 -0.5553  0.8993
  948MOL0     C25042   5.049   4.238   9.256 -0.3209  0.3319  1.2372
  948MOL0     C25043   5.181   4.208   9.174  0.3698 -0.3935 -0.1795
  948MOL0     C25044   5.301   4.193   9.265  0.1460  0.6740  0.6079
  948MOL0     C25045   5.422   4.158   9.186 -1.0691  0.9750 -0.2372
  948MOL0     C25046   5.566   4.120   9.245 -0.7481  1.3448 -0.1788
  948MOL0     C25047   5.579   3.987   9.313 -0.5911 -0.2585 -0.0671
  948MOL0    Cl25048   5.514   3.992   9.484 -0.5183  0.1566  0.0145
  948MOL0     C25049   4.506   4.387   9.028  0.7426  0.2716  0.5725
  948MOL0     C25050   4.388   4.455   9.041 -0.0863  0.3502 -0.0016
  948MOL0     O25051   4.335   4.692   9.332 -0.1822  0.5793 -0.6547
  948MOL0     C25052   4.117   4.861   9.371 -0.4188  0.2003  0.7189
  948MOL0     C25053   4.018   4.957   9.381 -0.1225 -0.1016 -0.3328
  948MOL0     N25054   3.330   5.288   9.464 -0.4460 -0.0279  1.1180
  948MOL0     N25055   3.297   5.369   9.373 -0.0815  0.0920 -0.5626
  948MOL0     C25056   4.191   5.032   8.916  0.1995  0.1273  0.8092
  948MOL0     C25057   4.309   4.966   8.957  0.3719 -0.1092  0.1184
  948MOL0     C25058   4.775   4.897   8.988  0.1729  0.0400  0.6338
  948MOL0     C25059   4.740   4.775   9.049  0.5670 -0.1438 -0.4163
  948MOL0     C25060   4.835   4.686   9.098  0.4108 -0.1925  0.4796
  948MOL0     C25061   4.974   4.717   9.090  0.1307  0.4261 -0.8591
  948MOL0     O25062   5.068   4.627   9.129  0.5216  0.0617 -0.0074
  948MOL0     C25063   5.207   4.675   9.161  0.4144 -0.2794 -0.8208
  948MOL0     C25064   5.292   4.557   9.213  0.0194 -0.3268  0.5526
  948MOL0     C25065   5.433   4.611   9.254 -0.0992  0.1443  0.5575
  948MOL0     C25066   5.498   4.541   9.375  0.8091 -0.5906  0.5609
  948MOL0     C25067   5.644   4.540   9.379  0.7337 -0.0698 -0.4038
  948MOL0     C25068   5.757   4.546   9.389  0.1285  0.5190  0.2251
  948MOL0     C25069   5.006   4.839   9.021 -0.2413 -0.3447 -0.0830
  948MOL0     C25070   4.910   4.925   8.978 -0.5604 -0.5133  0.5758
  948MOL0     H25071   4.520   5.195   8.813  1.8454 -1.1728  4.3892
  948MOL0     H25072   4.327   5.297   8.746  2.2358  0.2990 -0.8236
  948MOL0     H25073   4.072   5.401   8.763  1.8255  0.9569  2.7354
  948MOL0     H25074   4.086   5.353   8.932  2.4834 -0.5490 -0.6757
  948MOL0     H25075   3.842   5.307   8.751  0.6439 -0.1448 -0.9483
  948MOL0     H25076   3.867   5.445   8.860 -1.1946  0.8027 -4.3068
  948MOL0     H25077   3.888   5.263   9.062 -0.4447  0.5127 -0.7024
  948MOL0     H25078   3.863   5.141   8.953  4.0762  1.1155 -1.6437
  948MOL0     H25079   3.640   5.230   8.895  2.3340 -1.8752 -0.1521
  948MOL0     H25080   3.651   5.197   9.066  1.1666  0.2241  0.0309
  948MOL0     H25081   3.632   5.457   8.927  1.9272 -2.2816 -1.6028
  948MOL0     H25082   3.716   5.456   9.092 -0.0973 -0.1682 -1.3747
  948MOL0     H25083   3.478   5.519   9.084 -0.8096  0.7167 -1.8327
  948MOL0     H25084   3.519   5.404   9.195 -2.8942  1.1118  0.0024
  948MOL0     H25085   3.372   5.336   8.930 -0.8254 -2.3706  0.3761
  948MOL0     H25086   3.421   5.217   9.045  1.0128 -0.2532 -0.1300
  948MOL0     H25087   3.192   5.282   9.074  2.4494 -0.2970 -0.4796
  948MOL0     H25088   3.225   5.445   9.123 -2.4492 -0.4404 -2.5074
  948MOL0     H25089   3.290   5.075   9.240 -0.8469 -2.5574  4.3318
  948MOL0     H25090   3.298   4.966   9.513  2.7943 -2.7825 -0.2471
  948MOL0     H25091   3.410   5.077   9.586  0.2888  1.4500 -0.8676
  948MOL0     H25092   3.450   4.920   9.334 -0.4090  1.3341 -0.4251
  948MOL0     H25093   3.535   4.893   9.480  0.4390 -1.7571 -2.1005
  948MOL0     H25094   3.572   5.141   9.294 -2.4332 -0.4018 -0.3146
  948MOL0     H25095   3.644   5.126   9.459  0.4159 -0.0262 -1.0524
  948MOL0     H25096   3.668   4.949   9.212  1.7086  1.8992 -2.6843
  948MOL0     H25097   3.714   4.909   9.378 -0.1841 -1.3069 -1.0352
  948MOL0     H25098   3.866   4.883   9.091 -1.1122  2.0215 -0.3565
  948MOL0     H25099   4.032   4.716   9.071  0.5030 -0.6849  0.1153
  948MOL0     H25100   4.355   4.427   9.375  0.8622  3.3328  0.0577
  948MOL0     H25101   4.572   4.330   9.356  1.2212  0.6359 -1.1548
  948MOL0     H25102   4.786   4.198   9.281  2.5707 -1.3327 -0.4001
  948MOL0     H25103   4.799   4.373   9.282 -1.1309  0.5573 -0.1913
  948MOL0     H25104   4.952   4.297   9.071  2.0271 -3.2418 -0.4776
  948MOL0     H25105   4.933   4.137   9.118 -0.5410 -1.6531  3.3578
  948MOL0     H25106   5.033   4.151   9.320 -2.0225 -2.1385 -2.2691
  948MOL0     H25107   5.065   4.324   9.322  2.7567  0.1113  0.9355
  948MOL0     H25108   5.170   4.124   9.105 -6.0292  0.7007 -1.1144
  948MOL0     H25109   5.190   4.293   9.106  0.4340  0.4941  0.9041
  948MOL0     H25110   5.285   4.120   9.346 -3.6819 -2.0648 -2.2513
  948MOL0     H25111   5.309   4.284   9.325 -0.5861  1.0552  0.1302
  948MOL0     H25112   5.448   4.247   9.127  0.5677  2.3216  2.3477
  948MOL0     H25113   5.391   4.072   9.126 -1.5893  0.5133  0.6803
  948MOL0     H25114   5.638   4.115   9.162  0.6213  0.9932  0.9737
  948MOL0     H25115   5.613   4.190   9.315  1.8543 -3.2487  3.3330
  948MOL0     H25116   5.684   3.959   9.317 -0.2446  1.0979  0.9770
  948MOL0     H25117   5.523   3.906   9.265 -1.9886  0.8948 -0.4552
  948MOL0     H25118   4.555   4.380   8.932  0.3329 -0.2024  0.3954
  948MOL0     H25119   4.355   4.509   8.953 -3.4095 -0.5308  0.5641
  948MOL0     H25120   4.185   4.839   9.453 -0.8291  1.9067  1.5488
  948MOL0     H25121   4.022   5.038   9.453 -1.1408 -0.1229 -0.2272
  948MOL0     H25122   4.093   4.987   8.931 -0.2357  0.1023 -1.6616
  948MOL0     H25123   4.298   4.878   9.019 -0.8661 -1.1229 -1.4595
  948MOL0     H25124   4.635   4.754   9.069  0.5849  1.5510  1.8126
  948MOL0     H25125   4.805   4.595   9.149 -0.6371  1.3751  2.8135
  948MOL0     H25126   5.209   4.763   9.226 -0.1756  1.4851 -3.0514
  948MOL0     H25127   5.256   4.699   9.066  2.7504 -3.4069 -0.5776
  948MOL0     H25128   5.234   4.518   9.297 -2.6805  1.0835 -0.5384
  948MOL0     H25129   5.305   4.477   9.139 -1.1938 -1.7637  1.8277
  948MOL0     H25130   5.423   4.716   9.283  1.0065  0.1845  0.8433
  948MOL0     H25131   5.497   4.606   9.166 -1.8312  1.4289 -0.8498
  948MOL0     H25132   5.459   4.600   9.459 -0.5218 -1.8039  0.8354
  948MOL0     H25133   5.457   4.440   9.386 -2.6378  0.0083 -3.7490
  948MOL0     H25134   5.859   4.549   9.421  0.4331 -2.4534 -0.1958
  948MOL0     H25135   5.107   4.879   9.022 -1.3815  2.8277 -0.0305
  948MOL0     H25136   4.943   5.017   8.931 -1.1612 -1.4284 -1.7968
  949MOL0     O25137   7.096   8.448   2.533  0.1057  0.2964 -0.2823
  949MOL0     C25138   7.047   8.358   2.458  0.3581  0.7443 -0.2064
  949MOL0     O25139   6.943   8.368   2.372 -0.3470 -0.8703 -0.4775
  949MOL0     C25140   6.863   8.477   2.380  1.3947  0.1616 -0.3837
  949MOL0     C25141   6.820   8.537   2.501 -0.3860  0.1847  0.3945
  949MOL0     C25142   6.755   8.659   2.484 -0.6041  0.5983 -0.0918
  949MOL0     C25143   6.699   8.711   2.372 -0.3491  0.2951  1.1508
  949MOL0     O25144   6.614   8.814   2.361  0.5143  0.2798  0.1912
  949MOL0     C25145   6.660   8.948   2.383 -0.7351  1.5445 -0.2896
  949MOL0     C25146   6.762   9.004   2.283  0.1973 -0.6906 -0.8370
  949MOL0     C25147   6.797   9.157   2.320 -0.1347 -0.5403  0.1224
  949MOL0     C25148   6.877   9.193   2.444 -0.6910 -0.4093 -0.5292
  949MOL0     C25149   6.901   9.351   2.469  0.0049 -0.2764 -0.4265
  949MOL0     C25150   6.941   9.391   2.608 -0.0545  0.0593 -0.5609
  949MOL0     C25151   7.092   9.374   2.641 -0.6317 -1.3351 -0.0513
  949MOL0     C25152   7.114   9.425   2.780  0.0321 -0.3188  0.8540
  949MOL0     N25153   7.239   9.360   2.836  0.0567 -0.3566 -0.6603
  949MOL0     C25154   7.367   9.352   2.774  0.3177  0.2609 -0.0210
  949MOL0     C25155   7.432   9.262   2.851  0.8059 -0.6778 -0.1987
  949MOL0     C25156   7.560   9.185   2.823 -0.9323 -0.5560  0.7441
  949MOL0     C25157   7.675   9.261   2.877  0.8849  1.0047  0.4809
  949MOL0     C25158   7.683   9.293   3.026  0.1147 -0.3509 -0.6345
  949MOL0     C25159   7.676   9.173   3.121 -0.2349 -0.4223  0.3809
  949MOL0     O25160   7.728   9.206   3.252 -0.5303 -0.0123  0.3276
  949MOL0     C25161   7.864   9.162   3.269  0.8654  0.7300 -0.1445
  949MOL0     C25162   7.957   9.160   3.171 -0.9028 -0.6391  0.6717
  949MOL0     C25163   8.092   9.122   3.194  0.2662 -0.0272  0.0011
  949MOL0     C25164   8.132   9.067   3.323 -0.2907 -0.5337  0.7308
  949MOL0     C25165   8.270   9.026   3.345 -0.6390  0.8354  1.6035
  949MOL0     O25166   8.352   9.065   3.245 -0.1004  0.0069 -0.2322
  949MOL0     C25167   8.484   9.042   3.254 -0.1492 -1.0271 -0.1459
  949MOL0     C25168   8.581   9.139   3.306  0.9638 -1.6845  0.2452
  949MOL0     C25169   8.717   9.114   3.302  0.7009 -0.7766  0.7607
  949MOL0     C25170   8.755   8.990   3.270 -1.2529 -0.1416 -0.0852
  949MOL0     O25171   8.885   8.958   3.304 -0.0895 -0.1509 -0.9562
  949MOL0     C25172   8.952   8.900   3.195  0.3504 -0.9561 -0.3898
  949MOL0     C25173   8.964   8.989   3.073  0.1395 -0.5285  0.5191
  949MOL0     C25174   8.989   9.138   3.098  0.4948 -0.4351  0.4037
  949MOL0     C25175   9.126   9.160   3.168 -0.1381 -0.0613 -0.0546
  949MOL0     C25176   9.163   9.299   3.211 -0.8406  0.1982 -0.4006
  949MOL0     C25177   9.188   9.400   3.096  0.0808  0.4371 -0.1391
  949MOL0     C25178   9.212   9.536   3.173 -0.0823 -0.1131 -0.2752
  949MOL0     C25179   9.214   9.654   3.079  0.6369 -0.0558 -0.8934
  949MOL0    Cl25180   9.305   9.635   2.931  0.2380 -0.0900 -0.4291
  949MOL0     C25181   8.663   8.889   3.227  0.0463 -1.0799 -0.3267
  949MOL0     C25182   8.528   8.920   3.216 -0.1171 -0.0672 -0.2443
  949MOL0     O25183   8.303   8.963   3.445 -0.3682 -0.4200  0.1459
  949MOL0     C25184   8.035   9.066   3.421  0.0819 -0.2815  0.7042
  949MOL0     C25185   7.899   9.117   3.395  0.1816  0.9861 -0.7185
  949MOL0     N25186   7.364   9.242   2.964  0.7555 -0.5341 -0.0060
  949MOL0     N25187   7.243   9.291   2.953  0.4086 -0.0541  0.7383
  949MOL0     C25188   6.720   8.630   2.260 -0.5938  0.1819  0.8004
  949MOL0     C25189   6.813   8.521   2.253 -0.0588 -0.7857 -0.1121
  949MOL0     C25190   7.101   8.221   2.477 -0.3527 -0.1000 -1.6117
  949MOL0     C25191   7.226   8.208   2.531  0.1977 -0.2131  0.0086
  949MOL0     C25192   7.271   8.082   2.560 -0.0484 -0.0606 -0.8566
  949MOL0     C25193   7.204   7.969   2.523 -0.9538 -0.0198  0.2666
  949MOL0     O25194   7.238   7.838   2.552  0.3260 -0.5305  0.5345
  949MOL0     C25195   7.283   7.773   2.426  0.6700  0.8074 -0.3014
  949MOL0     C25196   7.296   7.629   2.458 -0.7298  0.0776 -0.6819
  949MOL0     C25197   7.375   7.551   2.352  0.4791 -1.0883 -0.4457
  949MOL0     C25198   7.409   7.410   2.394  0.3860  0.5998 -0.4964
  949MOL0     C25199   7.539   7.420   2.463  1.2370  0.2012 -0.0363
  949MOL0     C25200   7.642   7.441   2.525 -0.2850  0.3707 -0.5248
  949MOL0     C25201   7.072   7.971   2.463 -0.6936 -0.1879  0.0256
  949MOL0     C25202   7.023   8.102   2.443  0.5814 -0.4607 -0.6954
  949MOL0     H25203   6.850   8.511   2.602  0.7036  1.3538  0.3971
  949MOL0     H25204   6.756   8.732   2.565 -0.1789  1.2018 -0.6424
  949MOL0     H25205   6.692   8.943   2.487 -1.0671 -5.0614 -0.0949
  949MOL0     H25206   6.578   9.018   2.368 -2.8469 -0.5817  0.7363
  949MOL0     H25207   6.716   8.996   2.184 -2.3006  4.0715 -0.4063
  949MOL0     H25208   6.856   8.952   2.266  2.2925  1.9085  1.7723
  949MOL0     H25209   6.697   9.198   2.334  0.2436  0.0387  1.2249
  949MOL0     H25210   6.840   9.197   2.228 -0.5150 -1.5356 -0.5118
  949MOL0     H25211   6.838   9.151   2.537  0.5914 -3.0496 -1.0884
  949MOL0     H25212   6.976   9.147   2.447  0.0989  1.2179  0.4646
  949MOL0     H25213   6.802   9.393   2.447 -0.0212  0.2368  0.6257
  949MOL0     H25214   6.974   9.396   2.401  0.7072 -1.8624 -0.7569
  949MOL0     H25215   6.885   9.326   2.676  2.5071 -1.3460  0.3401
  949MOL0     H25216   6.910   9.494   2.624  0.2391  0.9188 -4.5515
  949MOL0     H25217   7.118   9.269   2.624 -0.7969 -1.3218 -0.3745
  949MOL0     H25218   7.145   9.440   2.573 -1.1319 -0.6568  0.2015
  949MOL0     H25219   7.030   9.415   2.849 -0.1049  2.1829  1.1378
  949MOL0     H25220   7.136   9.532   2.772 -1.8373 -0.0315 -2.8164
  949MOL0     H25221   7.384   9.395   2.675 -0.5093 -0.2404 -0.3919
  949MOL0     H25222   7.572   9.168   2.715 -0.3640  0.2379  0.6745
  949MOL0     H25223   7.543   9.085   2.863 -0.7662 -0.5224  0.8966
  949MOL0     H25224   7.694   9.356   2.825 -0.0047  2.2502  2.3619
  949MOL0     H25225   7.765   9.201   2.856  0.8999  1.1020  0.2518
  949MOL0     H25226   7.782   9.338   3.038  0.6642 -1.7900  0.5602
  949MOL0     H25227   7.603   9.360   3.058 -0.7017 -2.9420  3.5346
  949MOL0     H25228   7.733   9.092   3.076  0.2446  0.1640 -0.0785
  949MOL0     H25229   7.571   9.143   3.135  0.1208 -0.6757  2.9077
  949MOL0     H25230   7.926   9.187   3.070  1.5174  1.2171  0.3172
  949MOL0     H25231   8.151   9.117   3.103 -0.8187  0.3614 -0.7471
  949MOL0     H25232   8.551   9.242   3.323  1.4255 -1.6321  0.7581
  949MOL0     H25233   8.785   9.185   3.348 -1.4041  1.3990  0.7064
  949MOL0     H25234   8.914   8.802   3.164  2.0086 -0.7319 -3.5441
  949MOL0     H25235   9.051   8.863   3.222 -0.2659 -1.2541  1.6262
  949MOL0     H25236   8.881   8.979   3.003 -0.7372  0.0451  1.4515
  949MOL0     H25237   9.043   8.952   3.007 -1.9204 -2.3186 -1.0879
  949MOL0     H25238   8.908   9.190   3.149  2.1133 -0.1389  2.8584
  949MOL0     H25239   8.991   9.193   3.003 -1.2712  1.9305  1.6258
  949MOL0     H25240   9.126   9.102   3.261 -1.3641  2.2292  1.5136
  949MOL0     H25241   9.201   9.129   3.096  0.2102 -1.3447  0.8266
  949MOL0     H25242   9.256   9.277   3.266 -1.2686 -3.9461 -1.0069
  949MOL0     H25243   9.106   9.329   3.299 -1.6401  0.8897 -1.1401
  949MOL0     H25244   9.101   9.408   3.030  0.1569 -0.8255 -0.4258
  949MOL0     H25245   9.272   9.382   3.029  0.0956  3.7963 -1.2184
  949MOL0     H25246   9.130   9.547   3.244 -1.3277 -3.5799 -0.9998
  949MOL0     H25247   9.309   9.521   3.221  0.0451 -0.0781 -0.5197
  949MOL0     H25248   9.244   9.747   3.128 -1.9336  0.7570 -0.7313
  949MOL0     H25249   9.112   9.678   3.049  0.7548  0.3114 -1.0040
  949MOL0     H25250   8.686   8.784   3.214 -1.0764 -1.0908 -2.9671
  949MOL0     H25251   8.461   8.840   3.188 -0.4755  0.9650 -2.5269
  949MOL0     H25252   8.078   9.027   3.513  2.2290  1.8410  0.7193
  949MOL0     H25253   7.834   9.138   3.480 -0.1042 -0.8040 -0.4577
  949MOL0     H25254   6.677   8.670   2.169  1.7748  2.8971  0.7408
  949MOL0     H25255   6.848   8.465   2.168  0.6806 -0.2101 -0.1985
  949MOL0     H25256   7.281   8.301   2.546  2.0951 -1.4163  0.7626
  949MOL0     H25257   7.368   8.068   2.606 -0.7159 -1.2162  0.2479
  949MOL0     H25258   7.373   7.819   2.384  0.9539  3.2992  2.7135
  949MOL0     H25259   7.209   7.778   2.346 -2.0378  0.0718  1.9640
  949MOL0     H25260   7.359   7.626   2.548 -1.1585 -2.1907 -0.3970
  949MOL0     H25261   7.201   7.584   2.487 -1.0632  1.4181  0.3894
  949MOL0     H25262   7.468   7.595   2.316  1.2485 -1.9586  0.4431
  949MOL0     H25263   7.300   7.553   2.271 -0.0062 -2.9720 -0.0863
  949MOL0     H25264   7.335   7.367   2.461  1.0997  0.3943  0.1706
  949MOL0     H25265   7.413   7.342   2.309 -2.0921 -0.8744  0.4653
  949MOL0     H25266   7.735   7.450   2.576 -0.7051  2.3006 -0.0290
  949MOL0     H25267   7.012   7.882   2.449  1.0132 -1.4933  0.6945
  949MOL0     H25268   6.936   8.115   2.380  1.3951 -1.5333 -2.1122
  950MOL0     O25269  10.402   3.310   5.583 -0.3236 -0.7933  0.7586
  950MOL0     C25270  10.294   3.360   5.627 -0.3259 -0.0791 -0.0475
  950MOL0     O25271  10.172   3.292   5.638 -0.2515 -0.7516 -0.4557
  950MOL0     C25272  10.191   3.161   5.594  0.7321  0.8230 -0.8598
  950MOL0     C25273  10.279   3.069   5.656  0.0427  0.3235  0.7204
  950MOL0     C25274  10.297   2.940   5.600 -0.2134 -0.0877 -0.3535
  950MOL0     C25275  10.214   2.892   5.504 -0.1508 -0.0494  1.3198
  950MOL0     O25276  10.229   2.758   5.462  0.4674 -0.8345  0.1157
  950MOL0     C25277  10.226   2.737   5.316  0.2124  0.6277 -0.5618
  950MOL0     C25278  10.078   2.685   5.265 -0.1279 -0.8838 -0.6826
  950MOL0     C25279  10.084   2.539   5.208  0.2092  0.6050 -0.2664
  950MOL0     C25280   9.950   2.463   5.190  0.8208 -0.3773 -0.0898
  950MOL0     C25281   9.939   2.366   5.068 -0.2283 -0.5539  0.7217
  950MOL0     C25282   9.916   2.422   4.931  1.0191  0.2975  0.8095
  950MOL0     C25283   9.895   2.319   4.817 -0.3469 -0.4989  0.6672
  950MOL0     C25284   9.869   2.376   4.684  0.2838  0.4271  0.1389
  950MOL0     N25285   9.988   2.416   4.604  0.6629  0.4222 -0.2515
  950MOL0     C25286  10.011   2.540   4.555 -0.6055 -0.4168 -0.2778
  950MOL0     C25287  10.124   2.530   4.469  0.9223  0.4449 -0.5734
  950MOL0     C25288  10.159   2.643   4.382  0.4468  0.2098 -0.1195
  950MOL0     C25289  10.166   2.775   4.451 -0.8537 -0.3448 -0.1677
  950MOL0     C25290  10.179   2.883   4.334  0.7595  0.3496  0.3943
  950MOL0     C25291  10.037   2.915   4.279  0.0384 -0.0601 -0.8026
  950MOL0     O25292   9.946   2.968   4.379 -0.0124 -0.6974  0.2002
  950MOL0     C25293   9.813   2.989   4.342  0.3592  0.3506 -0.6252
  950MOL0     C25294   9.734   3.010   4.457  1.0591  0.6114  0.3311
  950MOL0     C25295   9.586   3.010   4.442 -0.2070  0.3595 -0.6391
  950MOL0     C25296   9.531   3.019   4.313 -0.2000  0.1588  0.1889
  950MOL0     C25297   9.390   3.030   4.280 -0.3522 -0.2357 -0.6991
  950MOL0     O25298   9.350   3.057   4.146 -0.1763  0.6325 -0.2122
  950MOL0     C25299   9.212   3.058   4.126  0.5746  0.5757  0.1343
  950MOL0     C25300   9.154   3.180   4.084 -0.1036 -0.3203 -0.0887
  950MOL0     C25301   9.020   3.185   4.040  0.1149 -0.6239  0.1528
  950MOL0     C25302   8.941   3.071   4.042 -0.3395  0.1307 -0.0317
  950MOL0     O25303   8.834   3.068   3.959  0.5337 -0.4113 -0.2195
  950MOL0     C25304   8.721   2.999   4.013 -0.2811  0.1223  0.4871
  950MOL0     C25305   8.599   3.074   3.940  0.5015 -0.1079 -0.1900
  950MOL0     C25306   8.576   3.061   3.785 -0.4337 -0.8368 -0.7415
  950MOL0     C25307   8.688   3.145   3.710  0.2975  0.1281 -0.3210
  950MOL0     C25308   8.633   3.177   3.571  1.2410 -0.8961  0.5602
  950MOL0     C25309   8.623   3.058   3.472 -0.8218 -0.0574 -0.4773
  950MOL0     C25310   8.552   3.097   3.344 -0.6972 -0.2488 -0.0989
  950MOL0     C25311   8.511   2.980   3.265 -0.1334 -1.1824  0.2674
  950MOL0    Cl25312   8.398   3.044   3.140 -0.0793 -0.1494 -0.3723
  950MOL0     C25313   8.992   2.950   4.099 -0.1029 -0.3356 -0.9662
  950MOL0     C25314   9.128   2.940   4.138 -0.5040 -0.1951 -0.4569
  950MOL0     O25315   9.316   3.031   4.382  0.2314  0.2326  0.6826
  950MOL0     C25316   9.623   2.997   4.202  0.1221  0.4776  0.6801
  950MOL0     C25317   9.754   2.980   4.219  0.4227 -1.0958 -0.2536
  950MOL0     N25318  10.159   2.396   4.476 -0.0349 -0.4098  0.4717
  950MOL0     N25319  10.079   2.325   4.554 -0.5752 -0.1622 -0.1541
  950MOL0     C25320  10.121   2.978   5.444 -0.0618  0.6103 -0.3226
  950MOL0     C25321  10.112   3.116   5.484 -0.2820 -0.0703 -0.2599
  950MOL0     C25322  10.287   3.493   5.691  0.2154  0.4341  0.1571
  950MOL0     C25323  10.383   3.593   5.665 -0.1177 -0.1222 -0.3825
  950MOL0     C25324  10.381   3.716   5.733  0.5883 -0.4734  0.2777
  950MOL0     C25325  10.288   3.741   5.839  0.3354 -0.3060 -0.0729
  950MOL0     O25326  10.306   3.861   5.915 -0.0675  0.7732  0.0378
  950MOL0     C25327  10.234   3.884   6.033  0.9549 -0.9493 -0.0226
  950MOL0     C25328  10.261   3.804   6.160 -0.2641 -0.1878 -0.1058
  950MOL0     C25329  10.402   3.842   6.219 -0.4950 -0.2169  0.3453
  950MOL0     C25330  10.476   3.747   6.313  0.6301  0.1469  0.0954
  950MOL0     C25331  10.384   3.730   6.427  0.5424 -0.3487 -0.8891
  950MOL0     C25332  10.307   3.724   6.522 -0.1068  0.7624  0.0886
  950MOL0     C25333  10.187   3.640   5.857 -0.5256 -1.0597 -0.4011
  950MOL0     C25334  10.181   3.520   5.787  0.2587 -0.3400  1.1774
  950MOL0     H25335  10.345   3.099   5.738  2.4868 -1.9258 -0.2634
  950MOL0     H25336  10.370   2.878   5.651 -1.4688 -1.9159 -0.6698
  950MOL0     H25337  10.299   2.659   5.291 -0.2406  0.3172 -0.9427
  950MOL0     H25338  10.250   2.825   5.256  0.4701  0.8493 -0.1324
  950MOL0     H25339  10.055   2.746   5.177  1.6070  1.5103  0.4342
  950MOL0     H25340  10.004   2.690   5.345  1.8639  2.0611  1.1667
  950MOL0     H25341  10.144   2.477   5.275  2.1889 -1.6639 -3.8006
  950MOL0     H25342  10.154   2.539   5.124  2.2622 -0.4156  1.3291
  950MOL0     H25343   9.928   2.400   5.277 -4.4190 -1.4685 -1.7849
  950MOL0     H25344   9.868   2.535   5.197 -0.3047 -1.7175  1.0875
  950MOL0     H25345   9.861   2.292   5.089 -1.0454  0.5144  1.5921
  950MOL0     H25346  10.027   2.302   5.075 -1.1529 -1.7011  3.1335
  950MOL0     H25347   9.996   2.493   4.907  0.9609 -0.4937 -2.0116
  950MOL0     H25348   9.832   2.492   4.939 -0.3866 -1.3816  1.3185
  950MOL0     H25349   9.976   2.246   4.829 -0.3132 -0.9526 -1.8388
  950MOL0     H25350   9.805   2.266   4.849 -1.2410  0.7001  0.2099
  950MOL0     H25351   9.813   2.466   4.711  2.9472  1.7225  1.8715
  950MOL0     H25352   9.818   2.295   4.632 -1.4737  0.9541  0.9644
  950MOL0     H25353   9.955   2.629   4.581  0.9776 -0.3037  3.2577
  950MOL0     H25354  10.082   2.637   4.305 -0.4726  0.3861  0.7569
  950MOL0     H25355  10.260   2.628   4.345  1.2073  3.5980  0.2465
  950MOL0     H25356  10.256   2.785   4.512  0.9156 -2.1388 -2.3186
  950MOL0     H25357  10.079   2.795   4.515 -0.3689  0.5457  0.2356
  950MOL0     H25358  10.230   2.977   4.359  0.1547  0.1648  2.5820
  950MOL0     H25359  10.238   2.824   4.263  2.1855 -1.4263  2.8722
  950MOL0     H25360   9.995   2.822   4.240  1.9476 -1.1791 -0.3329
  950MOL0     H25361  10.050   2.992   4.203  1.3233  1.9339  1.3131
  950MOL0     H25362   9.778   3.010   4.556  1.2427  3.4229  0.3250
  950MOL0     H25363   9.531   3.008   4.535 -2.1427  1.8582 -1.6869
  950MOL0     H25364   9.216   3.267   4.067  3.0320 -2.6416 -1.3801
  950MOL0     H25365   8.993   3.272   3.982 -0.5749  0.4051  1.9135
  950MOL0     H25366   8.699   3.008   4.120  1.7567  3.2134  0.7642
  950MOL0     H25367   8.720   2.894   3.984  0.2492  0.2916 -0.1844
  950MOL0     H25368   8.619   3.181   3.947  1.0441 -0.2685  1.0156
  950MOL0     H25369   8.505   3.042   3.987  0.5104  1.8425  1.2608
  950MOL0     H25370   8.476   3.099   3.763 -0.4950 -1.7529 -2.1855
  950MOL0     H25371   8.580   2.955   3.758 -0.5806 -0.9139 -0.4650
  950MOL0     H25372   8.700   3.239   3.764 -0.9845 -0.2053  0.5837
  950MOL0     H25373   8.785   3.097   3.697 -0.5481 -1.2754 -1.7044
  950MOL0     H25374   8.696   3.250   3.519 -0.5054  0.9865  0.9631
  950MOL0     H25375   8.541   3.236   3.575  2.1598  0.7270 -0.7294
  950MOL0     H25376   8.562   2.979   3.517 -0.5311 -0.5747 -0.9665
  950MOL0     H25377   8.715   3.004   3.447 -1.2795 -0.9033 -0.3802
  950MOL0     H25378   8.461   3.148   3.377 -1.7545 -2.5298  0.6870
  950MOL0     H25379   8.626   3.155   3.287  2.6055 -3.6916  0.2611
  950MOL0     H25380   8.473   2.895   3.322 -2.4358 -0.8656 -0.6747
  950MOL0     H25381   8.600   2.939   3.215 -1.0318 -1.8326 -0.8443
  950MOL0     H25382   8.925   2.865   4.108  1.6954 -1.6774  0.3789
  950MOL0     H25383   9.172   2.852   4.183 -1.4408 -1.1056 -1.2810
  950MOL0     H25384   9.603   2.984   4.097  4.3437  0.7106 -0.3222
  950MOL0     H25385   9.819   2.987   4.132  4.1726  4.4419  2.4033
  950MOL0     H25386  10.058   2.964   5.357 -1.7176  1.8771  0.6160
  950MOL0     H25387  10.058   3.195   5.432 -0.8964  0.7422  1.5361
  950MOL0     H25388  10.467   3.551   5.611  0.5560 -0.3315  0.7880
  950MOL0     H25389  10.453   3.795   5.713 -0.4211 -0.1492 -2.4864
  950MOL0     H25390  10.127   3.884   6.013 -0.0413 -2.3809  4.3083
  950MOL0     H25391  10.248   3.988   6.064 -1.3371 -0.3127 -0.9557
  950MOL0     H25392  10.183   3.807   6.236 -1.5039 -0.3638 -1.3274
  950MOL0     H25393  10.248   3.700   6.130 -2.1923 -0.3448  1.1147
  950MOL0     H25394  10.387   3.933   6.278 -1.4716 -0.6681  0.8150
  950MOL0     H25395  10.473   3.869   6.141 -1.1310  1.4903  0.3089
  950MOL0     H25396  10.506   3.653   6.265 -0.8009 -1.5389  2.2883
  950MOL0     H25397  10.558   3.805   6.356  1.5501 -2.8026  2.6876
  950MOL0     H25398  10.236   3.733   6.602 -4.0454 -2.3827 -2.6230
  950MOL0     H25399  10.121   3.672   5.937  1.1134  1.3110  0.1067
  950MOL0     H25400  10.106   3.452   5.825 -1.6968  1.0902  0.0944
  951MOL0     O25401   4.895   0.425   6.396  0.3120  0.8432  0.0226
  951MOL0     C25402   4.776   0.406   6.435  0.7358  0.3135 -0.6663
  951MOL0     O25403   4.662   0.470   6.386  0.0126  0.5816  0.4116
  951MOL0     C25404   4.673   0.519   6.257 -0.0474  0.7073 -0.1215
  951MOL0     C25405   4.627   0.647   6.241  0.9953 -0.5934  1.0332
  951MOL0     C25406   4.645   0.718   6.118 -1.2359 -0.0446  0.0320
  951MOL0     C25407   4.691   0.643   6.003 -0.4921  0.2357 -0.9459
  951MOL0     O25408   4.705   0.715   5.887  0.0503 -0.2851 -0.2712
  951MOL0     C25409   4.684   0.627   5.766 -0.3361 -0.4866 -0.2189
  951MOL0     C25410   4.641   0.703   5.638  0.1849  1.5339 -0.1356
  951MOL0     C25411   4.725   0.830   5.634 -0.4884  0.3712  0.7535
  951MOL0     C25412   4.709   0.921   5.503 -0.7211  0.0108 -1.0223
  951MOL0     C25413   4.819   1.025   5.503  0.2229 -0.9017  0.3648
  951MOL0     C25414   4.962   0.995   5.471  0.1546 -0.2866  0.5476
  951MOL0     C25415   5.056   1.123   5.481 -0.9333  0.0082  0.2217
  951MOL0     C25416   5.196   1.098   5.420 -0.1723  0.0660 -0.1741
  951MOL0     N25417   5.272   1.220   5.417 -0.5977 -0.1474 -1.2405
  951MOL0     C25418   5.404   1.239   5.451  0.3158 -0.5186  0.2266
  951MOL0     C25419   5.423   1.369   5.430 -0.2084 -0.2237  0.0946
  951MOL0     C25420   5.550   1.445   5.426 -0.1526 -0.0198 -0.4064
  951MOL0     C25421   5.574   1.497   5.288  0.0666  0.3625  0.3748
  951MOL0     C25422   5.695   1.597   5.289  0.4984  0.0122  0.0078
  951MOL0     C25423   5.728   1.649   5.143  0.1626  1.1122  0.7142
  951MOL0     O25424   5.803   1.781   5.139 -0.6891 -0.0689 -0.1656
  951MOL0     C25425   5.921   1.804   5.191  0.5418  0.1939 -0.1432
  951MOL0     C25426   5.953   1.943   5.201 -0.5936  1.3404 -0.8249
  951MOL0     C25427   6.076   1.990   5.249 -0.9848  0.2659  0.4172
  951MOL0     C25428   6.167   1.897   5.306 -0.4093 -0.5306  0.5434
  951MOL0     C25429   6.293   1.942   5.364 -0.5635 -0.2766  0.0207
  951MOL0     O25430   6.306   2.084   5.381  0.5495  0.1921  0.0433
  951MOL0     C25431   6.422   2.138   5.418 -0.1561 -0.2997 -0.6875
  951MOL0     C25432   6.465   2.151   5.550  0.3841  0.4899  0.2157
  951MOL0     C25433   6.599   2.184   5.588 -0.7165  0.0255 -0.7564
  951MOL0     C25434   6.681   2.237   5.486 -0.5744  0.5759  0.8547
  951MOL0     O25435   6.799   2.308   5.531  0.4842 -0.3058  0.3403
  951MOL0     C25436   6.845   2.417   5.449  1.0834 -0.5262 -0.8676
  951MOL0     C25437   6.804   2.552   5.524 -0.1263 -1.3408  1.0739
  951MOL0     C25438   6.656   2.573   5.548  0.9639  0.8356 -0.1525
  951MOL0     C25439   6.585   2.599   5.409 -0.2755  0.6284 -0.0173
  951MOL0     C25440   6.436   2.605   5.419 -0.5004 -0.5045  0.0981
  951MOL0     C25441   6.373   2.605   5.285 -0.2276  0.2884 -0.0755
  951MOL0     C25442   6.225   2.573   5.288  0.2410 -0.4315  0.3986
  951MOL0     C25443   6.176   2.531   5.149 -1.0494 -0.0429  0.0728
  951MOL0    Cl25444   6.228   2.652   5.035 -0.3154  0.0224  0.1177
  951MOL0     C25445   6.638   2.222   5.350 -0.0932  0.4502 -1.0457
  951MOL0     C25446   6.505   2.180   5.321 -0.3043 -0.7161 -0.4896
  951MOL0     O25447   6.386   1.859   5.372  0.6386  0.0914 -0.8473
  951MOL0     C25448   6.135   1.758   5.298  1.2292 -0.2212  0.2055
  951MOL0     C25449   6.008   1.709   5.239 -0.3504  0.0022  0.2614
  951MOL0     N25450   5.303   1.425   5.383 -0.7456  0.2042 -0.4352
  951MOL0     N25451   5.225   1.334   5.361  0.4708  0.0327 -0.2860
  951MOL0     C25452   4.727   0.516   6.020 -0.6641  0.8938 -0.1110
  951MOL0     C25453   4.731   0.455   6.150  0.0518 -0.1703  0.8690
  951MOL0     C25454   4.754   0.320   6.540  0.2301 -0.5588 -0.5921
  951MOL0     C25455   4.842   0.319   6.652 -0.0512 -1.1633  0.1708
  951MOL0     C25456   4.816   0.241   6.755 -0.6032 -0.5105  0.2336
  951MOL0     C25457   4.712   0.153   6.762 -0.3145  1.1683 -0.0177
  951MOL0     O25458   4.682   0.069   6.869 -0.6727  0.4564  0.0324
  951MOL0     C25459   4.637   0.143   6.978 -0.3786 -0.4540 -0.3856
  951MOL0     C25460   4.665   0.063   7.108  0.6453 -0.0438  0.3042
  951MOL0     C25461   4.805   0.009   7.135  0.3602  0.0868  0.1582
  951MOL0     C25462   4.930   0.112   7.140 -0.2483 -0.5667  0.1156
  951MOL0     C25463   5.060   0.042   7.143 -0.0259  0.9545  0.0003
  951MOL0     C25464   5.177   0.004   7.131  0.3048 -0.5120 -0.4238
  951MOL0     C25465   4.631   0.139   6.649  0.0332 -0.0798  0.3011
  951MOL0     C25466   4.644   0.231   6.548 -0.3027 -1.0721  0.9412
  951MOL0     H25467   4.591   0.711   6.322  2.3435 -1.5667  2.4699
  951MOL0     H25468   4.624   0.823   6.099  0.2426 -0.0729 -2.0516
  951MOL0     H25469   4.606   0.553   5.786  0.7506 -1.3603  0.9569
  951MOL0     H25470   4.776   0.571   5.744  2.1265  2.2569  2.2682
  951MOL0     H25471   4.533   0.718   5.644 -0.0044  0.1257  0.4970
  951MOL0     H25472   4.655   0.646   5.545  0.2333  1.5222 -0.1208
  951MOL0     H25473   4.825   0.793   5.610  0.5268  4.0686 -1.4793
  951MOL0     H25474   4.725   0.896   5.722  1.2628  3.7881 -1.5737
  951MOL0     H25475   4.716   0.861   5.412 -2.0029 -1.3678 -0.2573
  951MOL0     H25476   4.613   0.970   5.522 -0.9751 -1.9183  5.5280
  951MOL0     H25477   4.817   1.063   5.605 -1.7593  1.3276 -0.4246
  951MOL0     H25478   4.800   1.109   5.436  1.5650  0.0522  1.1283
  951MOL0     H25479   4.968   0.963   5.366  0.9971  1.9803 -0.1529
  951MOL0     H25480   5.005   0.914   5.530  0.4948  0.4509  1.3198
  951MOL0     H25481   5.003   1.207   5.437 -1.0255  0.3302  0.9265
  951MOL0     H25482   5.064   1.143   5.589  0.8217 -1.7528  0.4844
  951MOL0     H25483   5.192   1.058   5.318 -0.2059  1.5778 -0.8034
  951MOL0     H25484   5.242   1.020   5.481  0.1640  1.8310  1.9546
  951MOL0     H25485   5.475   1.161   5.475  0.0657 -0.8130  0.0026
  951MOL0     H25486   5.638   1.386   5.453  0.9418  1.7645  0.1655
  951MOL0     H25487   5.547   1.524   5.502 -1.3480  0.3516 -0.8236
  951MOL0     H25488   5.484   1.551   5.256 -0.6063 -0.4517  0.8556
  951MOL0     H25489   5.590   1.408   5.226 -2.4174 -0.2418  0.5101
  951MOL0     H25490   5.664   1.681   5.351  1.9901  0.9243 -0.4325
  951MOL0     H25491   5.782   1.543   5.328 -0.5216 -0.2605  1.9974
  951MOL0     H25492   5.634   1.660   5.089  1.0191 -1.4613 -1.5344
  951MOL0     H25493   5.779   1.564   5.097  0.0662  0.9442  0.9193
  951MOL0     H25494   5.890   2.011   5.144  0.3513  0.2775 -3.2837
  951MOL0     H25495   6.101   2.095   5.244  0.4211  0.2319  3.8408
  951MOL0     H25496   6.393   2.135   5.629  1.0194  1.1693  0.9554
  951MOL0     H25497   6.645   2.184   5.686 -1.3673  0.6935 -0.4459
  951MOL0     H25498   6.806   2.421   5.347 -1.7191  0.7880  0.1424
  951MOL0     H25499   6.954   2.415   5.451  1.0996  0.3062  1.2844
  951MOL0     H25500   6.837   2.632   5.457 -0.3719 -2.4175 -0.3702
  951MOL0     H25501   6.858   2.562   5.619  0.1293  0.0447  0.8082
  951MOL0     H25502   6.633   2.667   5.599 -1.1090  1.3830 -1.9449
  951MOL0     H25503   6.618   2.487   5.603  1.0137  2.0588  1.9034
  951MOL0     H25504   6.632   2.689   5.368  1.0193  1.0717  2.2415
  951MOL0     H25505   6.605   2.519   5.338 -0.0462  2.2639 -1.8907
  951MOL0     H25506   6.402   2.697   5.468 -2.1319 -0.5125 -0.9205
  951MOL0     H25507   6.411   2.518   5.480  3.7317 -1.7701  0.3530
  951MOL0     H25508   6.438   2.538   5.228  2.3898  1.9515  0.8083
  951MOL0     H25509   6.386   2.699   5.230 -0.6589 -1.1182 -2.7869
  951MOL0     H25510   6.200   2.491   5.356 -0.7153 -2.2247 -2.0020
  951MOL0     H25511   6.168   2.659   5.324  0.7805  0.0332  0.1710
  951MOL0     H25512   6.067   2.526   5.151 -1.3450  2.4575  4.6412
  951MOL0     H25513   6.218   2.435   5.118 -3.5450 -0.6747 -1.6982
  951MOL0     H25514   6.712   2.245   5.274  1.8234 -0.6019  0.4083
  951MOL0     H25515   6.476   2.176   5.217 -0.4796 -0.6983 -0.4414
  951MOL0     H25516   6.189   1.673   5.337 -0.8780 -0.8093  2.0162
  951MOL0     H25517   5.990   1.602   5.234  0.2893 -0.3178  3.0302
  951MOL0     H25518   4.768   0.455   5.939 -3.0500 -2.1215  0.7904
  951MOL0     H25519   4.763   0.352   6.160 -1.3879 -0.4501  3.4058
  951MOL0     H25520   4.921   0.392   6.660  2.2995 -3.7764  3.7382
  951MOL0     H25521   4.884   0.254   6.839  0.7961 -0.2665 -0.8866
  951MOL0     H25522   4.532   0.173   6.975  0.1635  1.7789  0.8028
  951MOL0     H25523   4.693   0.236   6.983  2.7921 -2.2937  1.9823
  951MOL0     H25524   4.632   0.119   7.195 -0.5564 -3.2470  2.0705
  951MOL0     H25525   4.603  -0.027   7.108  1.4231 -0.6126 -0.8990
  951MOL0     H25526   4.816  -0.062   7.053 -2.1983 -2.5231  1.8926
  951MOL0     H25527   4.799  -0.033   7.236  0.4344  1.4780  0.7673
  951MOL0     H25528   4.922   0.176   7.052 -1.6171  2.7031  2.4068
  951MOL0     H25529   4.918   0.179   7.226 -2.3235  0.0587 -0.6101
  951MOL0     H25530   5.282  -0.018   7.122 -0.0791 -1.8916 -2.1601
  951MOL0     H25531   4.557   0.060   6.653 -1.9755  1.7028 -0.0224
  951MOL0     H25532   4.574   0.249   6.467  0.2884 -0.6393  0.5178
  952MOL0     O25533   3.514   5.152  10.875  0.4755 -0.2354 -0.0022
  952MOL0     C25534   3.541   5.157  10.996 -0.2064  0.4769 -0.8292
  952MOL0     O25535   3.541   5.046  11.081  0.3720  0.4130 -0.4263
  952MOL0     C25536   3.538   4.911  11.033 -0.8945 -0.0026 -0.4015
  952MOL0     C25537   3.652   4.845  10.983 -1.4136  0.6073  0.0848
  952MOL0     C25538   3.651   4.710  10.933 -0.4172  0.2676  0.0997
  952MOL0     C25539   3.526   4.646  10.940 -0.0607  0.3890 -0.3619
  952MOL0     O25540   3.527   4.517  10.898 -0.4001  0.4531 -0.8251
  952MOL0     C25541   3.405   4.447  10.855  1.1018 -0.1827  0.1330
  952MOL0     C25542   3.459   4.326  10.786  1.2061 -0.0156 -0.0172
  952MOL0     C25543   3.349   4.256  10.706 -0.3401  0.2866  0.5304
  952MOL0     C25544   3.288   4.136  10.773  0.1134 -0.0353  0.2660
  952MOL0     C25545   3.215   4.159  10.905  0.0200 -0.7151  0.1541
  952MOL0     C25546   3.104   4.274  10.914 -0.2244  0.5397 -0.6129
  952MOL0     C25547   3.048   4.298  11.057 -0.7000  0.3665 -0.1379
  952MOL0     C25548   3.003   4.438  11.074 -0.5433  0.0357 -0.4133
  952MOL0     N25549   2.908   4.472  10.966 -0.7463 -0.0617  0.7003
  952MOL0     C25550   2.778   4.432  10.947 -0.3332  0.1400 -0.4291
  952MOL0     C25551   2.726   4.495  10.836 -0.9294  0.4439  0.4627
  952MOL0     C25552   2.593   4.487  10.780 -1.3735 -0.2428  0.4435
  952MOL0     C25553   2.597   4.407  10.651 -1.1024 -0.0891  0.3029
  952MOL0     C25554   2.623   4.255  10.696 -0.4563  0.7804  0.0362
  952MOL0     C25555   2.605   4.163  10.569 -0.2111 -0.1996 -0.1077
  952MOL0     O25556   2.466   4.151  10.557 -0.3242  0.0647  0.8558
  952MOL0     C25557   2.413   4.096  10.442 -0.5506  0.8465  0.4765
  952MOL0     C25558   2.480   4.069  10.317 -0.4999 -0.4043 -0.9057
  952MOL0     C25559   2.415   4.000  10.213  0.1981  0.0102  0.0161
  952MOL0     C25560   2.286   3.942  10.235 -0.3019 -0.6044  0.0002
  952MOL0     C25561   2.212   3.855  10.146 -0.3707  0.1573  0.0285
  952MOL0     O25562   2.076   3.854  10.140 -0.3358 -0.3737  0.1392
  952MOL0     C25563   2.015   3.807  10.029  1.0404 -0.0690 -0.3529
  952MOL0     C25564   1.893   3.755  10.057 -0.2914 -1.4882 -0.6363
  952MOL0     C25565   1.832   3.670   9.964  0.0459  0.5199  0.0240
  952MOL0     C25566   1.882   3.656   9.838 -0.2022  0.5931 -0.4468
  952MOL0     O25567   1.796   3.594   9.744 -0.2798  0.3408 -0.2320
  952MOL0     C25568   1.854   3.528   9.629 -1.0131  0.0963 -1.2474
  952MOL0     C25569   1.780   3.444   9.529 -0.3995 -0.7814 -0.0462
  952MOL0     C25570   1.686   3.501   9.422 -0.3226  0.0865  0.7674
  952MOL0     C25571   1.634   3.388   9.331 -0.3858 -0.3873  0.1318
  952MOL0     C25572   1.493   3.415   9.275 -1.3301 -0.3119 -0.0470
  952MOL0     C25573   1.437   3.273   9.276  0.6784  0.0203 -0.4396
  952MOL0     C25574   1.310   3.272   9.201 -0.2029 -0.3980 -0.4064
  952MOL0     C25575   1.262   3.125   9.192  0.4170 -0.2865  1.0778
  952MOL0    Cl25576   1.319   3.044   9.047 -0.2837 -0.6144 -0.7767
  952MOL0     C25577   2.007   3.713   9.803  0.4760  0.0711 -0.7864
  952MOL0     C25578   2.079   3.785   9.906  0.4271 -0.3058  1.0113
  952MOL0     O25579   2.279   3.776  10.087 -0.3635  0.0983  0.4756
  952MOL0     C25580   2.221   3.965  10.353  0.0502 -0.4658 -0.0162
  952MOL0     C25581   2.285   4.036  10.457 -0.5780 -1.5005 -0.2307
  952MOL0     N25582   2.845   4.547  10.777  0.0787  0.3738 -0.2839
  952MOL0     N25583   2.950   4.539  10.861  1.0549 -0.7910 -0.0602
  952MOL0     C25584   3.412   4.709  10.981  0.0440  0.4218 -0.3859
  952MOL0     C25585   3.421   4.836  11.042 -0.7264  0.6634 -0.5279
  952MOL0     C25586   3.565   5.280  11.065 -0.3026 -1.0263 -0.3208
  952MOL0     C25587   3.529   5.394  11.002  0.5390  0.2195  0.7870
  952MOL0     C25588   3.544   5.517  11.064 -0.1767 -0.5552 -0.0807
  952MOL0     C25589   3.602   5.523  11.190  0.3930  0.2426 -0.4042
  952MOL0     O25590   3.605   5.635  11.267  0.0971  0.7409 -0.4783
  952MOL0     C25591   3.680   5.754  11.220 -0.0553  0.0509  0.6455
  952MOL0     C25592   3.829   5.745  11.239 -0.3627 -0.4268 -0.5018
  952MOL0     C25593   3.896   5.614  11.195  0.8990 -0.1384  0.3080
  952MOL0     C25594   3.881   5.592  11.035  0.3503  0.1932 -0.3868
  952MOL0     C25595   3.941   5.471  10.984  0.0962 -0.1514 -1.2948
  952MOL0     C25596   3.974   5.359  10.945  0.3823 -0.2051  0.2680
  952MOL0     C25597   3.649   5.410  11.253 -0.2392  0.1336  0.1705
  952MOL0     C25598   3.633   5.282  11.185 -0.0815  0.1750  0.1699
  952MOL0     H25599   3.740   4.905  10.961 -1.2443  0.0228 -0.9057
  952MOL0     H25600   3.738   4.648  10.915 -0.7076 -0.2341  0.3775
  952MOL0     H25601   3.343   4.510  10.791  0.5189 -1.6942 -0.8329
  952MOL0     H25602   3.342   4.426  10.942  1.1659 -0.4319  0.1197
  952MOL0     H25603   3.501   4.251  10.853 -0.1488 -1.4857 -0.7379
  952MOL0     H25604   3.538   4.357  10.717  0.9070  1.3765  0.2179
  952MOL0     H25605   3.388   4.223  10.609 -0.7251 -0.4071  0.6004
  952MOL0     H25606   3.269   4.326  10.683  1.0017  1.4814 -0.6898
  952MOL0     H25607   3.206   4.105  10.707 -0.9475  0.2544  1.4250
  952MOL0     H25608   3.364   4.059  10.786  1.3520  0.7487 -1.7739
  952MOL0     H25609   3.288   4.202  10.975  0.1042 -0.6973  0.0545
  952MOL0     H25610   3.167   4.074  10.953 -1.9307  2.0562  3.5955
  952MOL0     H25611   3.015   4.250  10.855 -1.3513  1.2719  0.7286
  952MOL0     H25612   3.139   4.363  10.861  0.3006  0.9499  0.3982
  952MOL0     H25613   2.966   4.229  11.076  0.3125 -0.7986  0.1476
  952MOL0     H25614   3.123   4.278  11.134 -0.9198 -0.2751 -0.0824
  952MOL0     H25615   3.083   4.511  11.059 -2.4897  1.5922 -4.9534
  952MOL0     H25616   2.946   4.446  11.167  1.1433  0.5513  0.6113
  952MOL0     H25617   2.719   4.372  11.014 -0.8958 -0.6703 -1.6211
  952MOL0     H25618   2.553   4.584  10.750 -4.1990 -1.0826  1.1970
  952MOL0     H25619   2.515   4.444  10.845  0.0865 -0.8305  1.8903
  952MOL0     H25620   2.676   4.449  10.588 -1.0355 -2.9005 -1.6809
  952MOL0     H25621   2.500   4.410  10.601 -0.0165 -1.1033 -1.9995
  952MOL0     H25622   2.727   4.259  10.729  1.1845 -1.3527 -4.1756
  952MOL0     H25623   2.557   4.212  10.772 -1.1556 -2.0580 -2.0329
  952MOL0     H25624   2.645   4.065  10.595  0.7660  0.4572  1.0018
  952MOL0     H25625   2.649   4.197  10.476 -1.5683 -0.8048 -1.0025
  952MOL0     H25626   2.582   4.105  10.311 -0.5104  0.6251  2.5739
  952MOL0     H25627   2.447   3.976  10.112  2.1582 -3.3910  1.2469
  952MOL0     H25628   1.834   3.767  10.148 -3.3818  0.8031 -2.7148
  952MOL0     H25629   1.728   3.644   9.983 -0.3743  2.7632  1.1325
  952MOL0     H25630   1.939   3.470   9.666 -2.6428 -0.9914  1.0904
  952MOL0     H25631   1.893   3.614   9.574 -0.2377  0.6599  0.1155
  952MOL0     H25632   1.734   3.359   9.579  1.0160 -1.2637  0.4855
  952MOL0     H25633   1.862   3.406   9.467 -1.4786 -1.4260 -1.1257
  952MOL0     H25634   1.731   3.583   9.366 -1.3979  1.5570  1.9762
  952MOL0     H25635   1.601   3.548   9.474 -1.4327 -0.0727 -0.8357
  952MOL0     H25636   1.713   3.363   9.260 -0.6214 -3.0998  0.7259
  952MOL0     H25637   1.630   3.305   9.402 -0.1338 -0.3409  0.2009
  952MOL0     H25638   1.500   3.459   9.175  1.5715 -2.2743 -0.8550
  952MOL0     H25639   1.447   3.477   9.351 -0.8562 -0.5590  0.4488
  952MOL0     H25640   1.420   3.242   9.379 -1.4978  0.1270 -0.7023
  952MOL0     H25641   1.501   3.195   9.236  0.6238 -2.5083  3.8405
  952MOL0     H25642   1.234   3.325   9.259  0.8510  1.1098 -0.3290
  952MOL0     H25643   1.312   3.296   9.094  1.2310 -1.0207 -0.5485
  952MOL0     H25644   1.154   3.132   9.178  0.0046  2.9286  4.4160
  952MOL0     H25645   1.271   3.081   9.291  1.6982  0.5283  1.3504
  952MOL0     H25646   2.050   3.705   9.704  1.4059  5.0366 -1.0289
  952MOL0     H25647   2.177   3.823   9.877  0.7359 -0.6786  1.5507
  952MOL0     H25648   2.124   3.919  10.366  0.2557 -0.3181  2.6559
  952MOL0     H25649   2.227   4.063  10.545  0.5966  2.0128 -0.3987
  952MOL0     H25650   3.313   4.664  10.981 -0.0730  0.6128  1.4197
  952MOL0     H25651   3.333   4.893  11.070 -0.7596 -0.5361  2.1156
  952MOL0     H25652   3.492   5.377  10.901  2.0553 -3.8160  0.7293
  952MOL0     H25653   3.516   5.610  11.014  2.1436 -0.2919 -1.0069
  952MOL0     H25654   3.644   5.843  11.273  2.3466 -0.5340  3.5406
  952MOL0     H25655   3.674   5.773  11.113 -2.3797  0.3377  0.7829
  952MOL0     H25656   3.884   5.828  11.193 -1.4483 -0.1778 -1.3987
  952MOL0     H25657   3.850   5.752  11.346  0.3912  3.2790 -0.7579
  952MOL0     H25658   3.872   5.537  11.269  0.7314  0.3776  0.7955
  952MOL0     H25659   4.002   5.642  11.200  0.8017  0.3907 -0.3279
  952MOL0     H25660   3.775   5.591  11.008  0.1617 -1.7181  0.2862
  952MOL0     H25661   3.917   5.681  10.982  3.1328  0.7214  2.0869
  952MOL0     H25662   4.005   5.258  10.930 -0.1612 -0.4072  0.4583
  952MOL0     H25663   3.694   5.421  11.351 -0.4973  2.1435  0.1153
  952MOL0     H25664   3.660   5.191  11.238 -1.1013  1.2087  2.5976
  953MOL0     O25665  10.554   8.933   6.747  0.8565 -0.3570  1.0304
  953MOL0     C25666  10.489   9.015   6.683 -0.1242 -0.0540  0.2335
  953MOL0     O25667  10.514   9.142   6.669 -0.7671 -0.5804 -0.6983
  953MOL0     C25668  10.630   9.205   6.703 -0.0514  0.2275  0.4409
  953MOL0     C25669  10.607   9.345   6.707 -0.5205  0.5762  0.3109
  953MOL0     C25670  10.723   9.435   6.736  1.3110  0.4064 -0.0235
  953MOL0     C25671  10.846   9.377   6.777 -0.2397 -0.4843 -0.3810
  953MOL0     O25672  10.952   9.458   6.805  0.7282 -0.4766 -0.6724
  953MOL0     C25673  11.009   9.462   6.940  0.3843  0.6956  0.2773
  953MOL0     C25674  11.154   9.519   6.929  1.0335  0.1550  0.2070
  953MOL0     C25675  11.234   9.448   7.042  0.6271 -0.2105 -0.3469
  953MOL0     C25676  11.288   9.302   7.002 -0.3658  0.5182  0.9714
  953MOL0     C25677  11.297   9.205   7.121  0.3119 -0.2295 -0.2871
  953MOL0     C25678  11.397   9.262   7.221  0.0999 -0.5112 -0.4003
  953MOL0     C25679  11.426   9.166   7.340  0.4281 -0.8213 -0.1519
  953MOL0     C25680  11.547   9.214   7.422  0.0738 -0.4523 -1.1397
  953MOL0     N25681  11.614   9.095   7.467  0.5794  0.1698  0.3001
  953MOL0     C25682  11.713   9.036   7.393  0.9624 -0.3442 -0.2655
  953MOL0     C25683  11.764   8.937   7.483  0.2759  1.2616 -0.1144
  953MOL0     C25684  11.863   8.829   7.444 -0.1802 -0.5134  0.2959
  953MOL0     C25685  11.799   8.693   7.417 -1.1072 -0.1996 -0.1750
  953MOL0     C25686  11.696   8.706   7.301  0.8790 -0.0557 -0.6765
  953MOL0     C25687  11.615   8.576   7.285  0.5939  0.5060 -0.7566
  953MOL0     O25688  11.517   8.575   7.186  0.3979  0.1404  0.0386
  953MOL0     C25689  11.413   8.660   7.199 -0.5480  0.0541 -0.3297
  953MOL0     C25690  11.365   8.713   7.322 -0.7309 -0.9730  0.1053
  953MOL0     C25691  11.254   8.809   7.321 -0.5443 -0.6473 -0.3296
  953MOL0     C25692  11.192   8.854   7.211  0.7571  0.0504  0.4197
  953MOL0     C25693  11.069   8.925   7.211 -0.1344 -1.3821 -0.2083
  953MOL0     O25694  11.029   8.953   7.086  0.5146  0.3436 -0.7509
  953MOL0     C25695  10.902   9.002   7.085  0.0701 -0.0512  0.4007
  953MOL0     C25696  10.790   8.932   7.040 -0.2987  0.4841  0.8135
  953MOL0     C25697  10.666   8.993   7.056  0.3527  0.0986  0.3497
  953MOL0     C25698  10.650   9.132   7.082 -0.0521 -0.6374  1.0601
  953MOL0     O25699  10.520   9.192   7.085 -0.2506  0.6352 -0.3916
  953MOL0     C25700  10.509   9.330   7.048 -0.3888 -0.6613  0.1504
  953MOL0     C25701  10.472   9.419   7.172 -0.7690 -0.1802 -0.6986
  953MOL0     C25702  10.521   9.569   7.162  0.5684  0.7408 -0.6272
  953MOL0     C25703  10.673   9.585   7.146  0.5659 -0.3011 -0.5719
  953MOL0     C25704  10.715   9.715   7.071  0.6303 -0.7722 -0.0632
  953MOL0     C25705  10.677   9.829   7.151 -0.2641 -0.4535 -0.6390
  953MOL0     C25706  10.737   9.945   7.074  0.9832  0.4100 -0.8998
  953MOL0     C25707  10.718  10.075   7.161  0.9733  0.6720  0.9022
  953MOL0    Cl25708  10.554  10.150   7.127 -0.2974 -0.2506 -0.7597
  953MOL0     C25709  10.771   9.201   7.123  0.2329 -0.2111 -0.4174
  953MOL0     C25710  10.894   9.136   7.128 -0.0571  0.4792  0.2945
  953MOL0     O25711  11.013   8.950   7.319  0.0042 -0.8117 -0.0067
  953MOL0     C25712  11.240   8.800   7.088  0.6015 -0.0341  0.2649
  953MOL0     C25713  11.341   8.710   7.086  0.3540 -0.0307  0.5864
  953MOL0     N25714  11.692   8.938   7.601  1.0334  0.4613  0.8863
  953MOL0     N25715  11.608   9.045   7.592  0.6467  0.4601 -1.3636
  953MOL0     C25716  10.861   9.249   6.776 -0.1431 -0.5398  0.3728
  953MOL0     C25717  10.753   9.157   6.744 -0.6033 -0.5828 -0.4536
  953MOL0     C25718  10.369   8.959   6.619 -0.0502  0.7044  0.8505
  953MOL0     C25719  10.284   9.041   6.549  0.4025  0.0857  0.1409
  953MOL0     C25720  10.182   8.990   6.470 -0.4686 -0.4490  0.1105
  953MOL0     C25721  10.149   8.856   6.468  0.5851  0.5408  0.4020
  953MOL0     O25722  10.044   8.796   6.406 -0.4804 -0.3699 -0.4355
  953MOL0     C25723  10.015   8.826   6.269 -0.3729 -1.2552 -0.3271
  953MOL0     C25724   9.920   8.718   6.205 -0.4571  0.3908  0.3859
  953MOL0     C25725   9.990   8.585   6.170  0.2127 -0.3294  1.1344
  953MOL0     C25726  10.114   8.607   6.083 -0.1449  0.3259 -0.9796
  953MOL0     C25727  10.173   8.472   6.052 -0.2810  0.0182  0.1899
  953MOL0     C25728  10.231   8.386   5.987 -0.5546 -0.2880 -1.2036
  953MOL0     C25729  10.230   8.769   6.547 -0.0778 -0.4767  0.0210
  953MOL0     C25730  10.343   8.816   6.616  0.1341  0.3381  1.1133
  953MOL0     H25731  10.512   9.387   6.673 -1.2654 -0.9993  0.3552
  953MOL0     H25732  10.714   9.543   6.741  2.6281  0.6242 -1.5843
  953MOL0     H25733  10.991   9.368   6.993 -2.1074  1.1141  0.2897
  953MOL0     H25734  10.947   9.531   6.999 -1.5743 -0.2389 -0.6051
  953MOL0     H25735  11.168   9.627   6.934  0.6726  0.1862  0.6773
  953MOL0     H25736  11.192   9.489   6.831 -0.1412  1.0586 -0.5636
  953MOL0     H25737  11.164   9.436   7.126  0.0337  1.4292 -0.5706
  953MOL0     H25738  11.319   9.512   7.066  0.0515 -0.3125  2.2918
  953MOL0     H25739  11.228   9.253   6.925  1.9839 -2.1376  0.6770
  953MOL0     H25740  11.384   9.326   6.955 -0.9196  0.9658  0.0387
  953MOL0     H25741  11.337   9.111   7.084  1.0685 -0.1048  0.2102
  953MOL0     H25742  11.198   9.207   7.169  1.0729  1.2674  1.3178
  953MOL0     H25743  11.346   9.348   7.264 -0.1347 -0.9015  0.1152
  953MOL0     H25744  11.488   9.281   7.164 -0.8103  0.9478 -1.4534
  953MOL0     H25745  11.338   9.157   7.405  1.8162 -0.1780  1.9046
  953MOL0     H25746  11.441   9.065   7.299 -1.6117 -2.3856  2.6030
  953MOL0     H25747  11.510   9.273   7.507  1.4553 -3.9342  2.1357
  953MOL0     H25748  11.621   9.266   7.361 -1.0010  0.0396 -2.0641
  953MOL0     H25749  11.746   9.040   7.290 -1.2920 -1.9456 -1.1278
  953MOL0     H25750  11.930   8.809   7.529 -2.1770 -0.7254  1.8888
  953MOL0     H25751  11.919   8.868   7.358  0.7034  5.8134  3.2109
  953MOL0     H25752  11.765   8.658   7.515 -0.2858  3.0551  1.4071
  953MOL0     H25753  11.879   8.624   7.389  0.4014  0.2136  2.7159
  953MOL0     H25754  11.615   8.776   7.326  0.4449 -0.8696  0.2740
  953MOL0     H25755  11.747   8.717   7.205 -0.6937  0.4390 -1.5095
  953MOL0     H25756  11.567   8.545   7.378  2.7214  0.5076  0.3963
  953MOL0     H25757  11.692   8.506   7.252  1.4986  1.5531 -0.9058
  953MOL0     H25758  11.394   8.677   7.421 -2.5356  2.0050  1.8700
  953MOL0     H25759  11.222   8.840   7.420 -1.1190 -0.0060 -0.7052
  953MOL0     H25760  10.796   8.825   7.025 -0.9565  0.5331  0.1512
  953MOL0     H25761  10.576   8.937   7.036  0.2759  1.0486 -2.3402
  953MOL0     H25762  10.423   9.331   6.980 -0.6103  2.0451  0.3652
  953MOL0     H25763  10.604   9.356   6.999 -0.5301  0.6817  0.5338
  953MOL0     H25764  10.535   9.375   7.250 -2.3241 -1.5934 -0.1979
  953MOL0     H25765  10.368   9.409   7.205 -0.4449 -2.6827 -0.2704
  953MOL0     H25766  10.492   9.626   7.251 -1.4001  0.6688 -1.1741
  953MOL0     H25767  10.466   9.607   7.076 -0.0520 -1.0152 -1.0302
  953MOL0     H25768  10.724   9.584   7.243  0.4227 -3.5834 -0.4130
  953MOL0     H25769  10.716   9.498   7.095  2.2209 -0.0662  0.3587
  953MOL0     H25770  10.663   9.726   6.976  0.6878 -1.0007 -0.1203
  953MOL0     H25771  10.820   9.707   7.040  0.5581  3.4305 -2.1701
  953MOL0     H25772  10.729   9.826   7.248 -0.0303  1.6943 -0.6531
  953MOL0     H25773  10.569   9.836   7.165  0.0162  0.0658  1.7574
  953MOL0     H25774  10.837   9.932   7.032  1.0736 -0.5233 -0.4125
  953MOL0     H25775  10.673   9.959   6.986 -1.6479  4.3547  1.3616
  953MOL0     H25776  10.787  10.148   7.117  0.6507  0.4940  0.0930
  953MOL0     H25777  10.741  10.053   7.266 -0.6225 -0.6652  1.0102
  953MOL0     H25778  10.770   9.295   7.178  1.9211 -0.8084  0.7022
  953MOL0     H25779  10.975   9.205   7.152 -0.9958  0.8930  2.4481
  953MOL0     H25780  11.225   8.840   6.989  2.8712  2.1014  0.6914
  953MOL0     H25781  11.372   8.684   6.985  0.6205  3.9959 -0.5440
  953MOL0     H25782  10.954   9.198   6.801 -0.1199 -1.0055 -0.6165
  953MOL0     H25783  10.779   9.052   6.751  1.0919 -0.0856  1.8817
  953MOL0     H25784  10.289   9.149   6.566  4.2111  0.2040 -0.8174
  953MOL0     H25785  10.118   9.061   6.418 -1.8531 -0.6220  1.5174
  953MOL0     H25786  10.111   8.834   6.217  1.4429 -0.5315  2.8622
  953MOL0     H25787   9.983   8.929   6.249 -1.8335 -1.3552  1.2967
  953MOL0     H25788   9.828   8.690   6.258 -0.4178 -1.9025 -0.6307
  953MOL0     H25789   9.889   8.757   6.107 -0.5029 -0.6314 -0.0197
  953MOL0     H25790   9.921   8.546   6.095  0.3986 -0.4206  1.0097
  953MOL0     H25791  10.007   8.514   6.251  2.2938 -1.3967 -0.1561
  953MOL0     H25792  10.084   8.662   5.993  3.2217  0.9973 -1.8368
  953MOL0     H25793  10.196   8.657   6.135  0.4331 -1.0025 -0.5621
  953MOL0     H25794  10.284   8.317   5.923  0.3962 -0.3107 -0.4108
  953MOL0     H25795  10.187   8.669   6.547 -3.6793  0.9122 -1.0748
  953MOL0     H25796  10.413   8.739   6.646  1.2378  0.3707 -1.1994
  954MOL0     O25797  10.839   1.395   6.064 -0.0509 -0.2806  0.4912
  954MOL0     C25798  10.865   1.377   6.181 -0.3172 -0.6583 -0.3747
  954MOL0     O25799  10.773   1.371   6.284 -0.0760 -0.1969  0.5068
  954MOL0     C25800  10.639   1.377   6.264 -0.0879  1.0164 -0.4487
  954MOL0     C25801  10.573   1.444   6.162  0.4763 -0.2963  0.0617
  954MOL0     C25802  10.437   1.458   6.153  0.0055 -0.3162 -0.9942
  954MOL0     C25803  10.362   1.392   6.252 -0.1803 -0.0326 -0.1112
  954MOL0     O25804  10.233   1.389   6.235  0.1153 -0.6709  0.0591
  954MOL0     C25805  10.145   1.291   6.300 -0.1894  0.2151  0.1218
  954MOL0     C25806  10.004   1.298   6.231  0.0163 -1.0904 -0.6082
  954MOL0     C25807  10.029   1.251   6.091  1.1855  0.3828  0.0728
  954MOL0     C25808   9.893   1.245   6.011 -0.1138  0.1777  0.3574
  954MOL0     C25809   9.915   1.230   5.864  0.1381 -0.2835  0.4787
  954MOL0     C25810   9.826   1.309   5.773  0.5584  0.5380 -0.9346
  954MOL0     C25811   9.879   1.312   5.632  0.2082  0.6600  0.4440
  954MOL0     C25812   9.767   1.357   5.536 -0.5477  0.3263 -0.2034
  954MOL0     N25813   9.798   1.299   5.406  0.6267 -0.0435  0.1876
  954MOL0     C25814   9.897   1.322   5.312  0.5637  0.6717  0.0454
  954MOL0     C25815   9.858   1.246   5.211  0.2432  0.5702  0.1673
  954MOL0     C25816   9.927   1.225   5.071 -0.4249  0.3812 -0.9009
  954MOL0     C25817   9.960   1.361   5.007  0.5954  0.1195  0.0643
  954MOL0     C25818  10.063   1.344   4.895  0.3372 -0.7309 -0.0094
  954MOL0     C25819  10.201   1.356   4.930 -0.5000 -0.4246  0.6510
  954MOL0     O25820  10.248   1.483   4.977  0.5019 -0.3484  0.0162
  954MOL0     C25821  10.384   1.507   4.996  0.3501  0.7640 -0.3991
  954MOL0     C25822  10.479   1.420   4.951 -0.8405  0.1322 -0.0054
  954MOL0     C25823  10.617   1.443   4.980 -0.6169 -0.1841 -0.4290
  954MOL0     C25824  10.658   1.545   5.072 -0.3166 -0.7873  0.5603
  954MOL0     C25825  10.797   1.551   5.125  0.2763  0.1617 -0.1971
  954MOL0     O25826  10.893   1.455   5.087  0.7576  0.2755  0.5264
  954MOL0     C25827  11.021   1.460   5.125 -0.6054  0.3240  0.5404
  954MOL0     C25828  11.094   1.335   5.130  0.4236 -0.4114 -0.0941
  954MOL0     C25829  11.231   1.335   5.169  0.0765 -0.2848  0.2628
  954MOL0     C25830  11.302   1.458   5.176  0.1098  0.2171  0.4354
  954MOL0     O25831  11.442   1.475   5.175  1.2863  0.4380 -0.4663
  954MOL0     C25832  11.525   1.370   5.132 -0.1100  0.9754 -0.2405
  954MOL0     C25833  11.630   1.423   5.045  0.3377 -0.3110 -0.3534
  954MOL0     C25834  11.760   1.340   5.014  1.4157  0.0478 -0.6885
  954MOL0     C25835  11.871   1.445   4.980  0.2116  0.7211  0.3144
  954MOL0     C25836  11.995   1.378   4.918 -0.8652  0.2137  0.1699
  954MOL0     C25837  11.979   1.295   4.792 -0.2497 -0.4640 -0.8135
  954MOL0     C25838  11.946   1.382   4.662 -0.4222  0.1040  0.0339
  954MOL0     C25839  11.818   1.356   4.596 -0.4041  0.3629  0.6895
  954MOL0    Cl25840  11.818   1.180   4.550  0.7786 -0.1855  0.4224
  954MOL0     C25841  11.234   1.579   5.170 -0.3728 -0.1053  0.3427
  954MOL0     C25842  11.098   1.581   5.143  0.2300 -0.3900  0.4889
  954MOL0     O25843  10.822   1.643   5.202  0.1772  0.2655 -0.1974
  954MOL0     C25844  10.557   1.634   5.125  0.2706  0.4611  0.6565
  954MOL0     C25845  10.419   1.601   5.090  0.7050 -0.4349 -0.0860
  954MOL0     N25846   9.747   1.172   5.242  0.1780  0.2847  0.3598
  954MOL0     N25847   9.713   1.214   5.352  0.1817 -0.8016  0.0399
  954MOL0     C25848  10.424   1.333   6.368  1.1596 -0.6339  0.3734
  954MOL0     C25849  10.561   1.339   6.376  0.5132  0.1144 -0.0297
  954MOL0     C25850  11.004   1.346   6.215 -0.6086  0.1960  0.0510
  954MOL0     C25851  11.037   1.282   6.334  0.1564  1.4897 -0.0038
  954MOL0     C25852  11.167   1.241   6.357  0.6996  0.1157 -0.1180
  954MOL0     C25853  11.264   1.265   6.271 -0.6668 -0.2123  0.2856
  954MOL0     O25854  11.390   1.217   6.284  0.1276 -0.4498 -0.4680
  954MOL0     C25855  11.484   1.284   6.378  0.6114  1.3683  0.5921
  954MOL0     C25856  11.554   1.404   6.305  0.1418  0.4964  0.1214
  954MOL0     C25857  11.628   1.357   6.171  0.7434  0.8412  0.0573
  954MOL0     C25858  11.751   1.269   6.208  0.8557 -0.0187 -1.1052
  954MOL0     C25859  11.827   1.248   6.092  0.0844  0.7948 -0.4577
  954MOL0     C25860  11.886   1.196   6.007  0.7446 -0.6995 -0.2673
  954MOL0     C25861  11.244   1.335   6.158  0.0651  0.4956 -0.3907
  954MOL0     C25862  11.115   1.385   6.136 -0.0647 -0.9776  0.2050
  954MOL0     H25863  10.637   1.470   6.078  0.5381 -0.3535  0.0916
  954MOL0     H25864  10.397   1.497   6.060  0.0772  4.0038  0.5773
  954MOL0     H25865  10.137   1.307   6.407 -4.2760 -0.3794  0.0588
  954MOL0     H25866  10.182   1.189   6.305 -2.7961 -0.7343  1.9526
  954MOL0     H25867   9.966   1.399   6.245 -1.2365 -1.9471  3.8548
  954MOL0     H25868   9.940   1.229   6.286 -2.0112 -0.3685 -1.9695
  954MOL0     H25869  10.076   1.153   6.100  3.0394  1.2738  0.8085
  954MOL0     H25870  10.107   1.316   6.048  0.4842  1.5018  0.4391
  954MOL0     H25871   9.836   1.169   6.065 -1.9288  1.7607  0.8265
  954MOL0     H25872   9.829   1.334   6.016 -1.9353 -0.5876 -4.4208
  954MOL0     H25873   9.914   1.127   5.828  0.5235  0.3250 -1.3760
  954MOL0     H25874  10.014   1.271   5.841  0.9145 -2.3711 -0.2290
  954MOL0     H25875   9.813   1.410   5.813  2.1191  0.8555 -1.1574
  954MOL0     H25876   9.729   1.259   5.775 -0.1583  1.8484 -1.6505
  954MOL0     H25877   9.961   1.385   5.621  1.0167 -0.0231  1.7752
  954MOL0     H25878   9.913   1.214   5.599 -1.9023  1.2317 -4.2315
  954MOL0     H25879   9.762   1.466   5.536 -2.2663  0.2821 -0.8804
  954MOL0     H25880   9.671   1.316   5.568 -1.2540 -0.3605 -2.9745
  954MOL0     H25881   9.985   1.383   5.330  0.1013  0.4821  3.8375
  954MOL0     H25882   9.866   1.155   5.013 -2.8169  0.5516  1.2194
  954MOL0     H25883  10.023   1.174   5.081 -0.6495  0.2101  0.6164
  954MOL0     H25884  10.002   1.423   5.087 -0.7946  0.2765  0.6879
  954MOL0     H25885   9.870   1.399   4.958  1.7337  1.8334 -0.7891
  954MOL0     H25886  10.044   1.249   4.844 -0.6791 -0.9396  0.7254
  954MOL0     H25887  10.042   1.417   4.816  1.2778 -0.8028 -0.3355
  954MOL0     H25888  10.262   1.323   4.845 -2.3384  0.2417 -0.9881
  954MOL0     H25889  10.225   1.293   5.017  0.2397  0.5079  1.1432
  954MOL0     H25890  10.457   1.331   4.894  0.6290  0.2727 -0.8145
  954MOL0     H25891  10.681   1.372   4.929  2.4157  0.7209  1.8060
  954MOL0     H25892  11.043   1.243   5.104 -0.1661 -0.3148  0.6811
  954MOL0     H25893  11.287   1.242   5.169  0.0830 -0.3019  1.8208
  954MOL0     H25894  11.475   1.280   5.094 -0.9512  0.1026  2.6788
  954MOL0     H25895  11.563   1.332   5.227  2.1775 -0.2927 -1.5748
  954MOL0     H25896  11.665   1.511   5.100  2.7088 -0.0360 -2.1487
  954MOL0     H25897  11.597   1.452   4.945 -1.1204 -2.1651 -0.4602
  954MOL0     H25898  11.731   1.281   4.927 -1.4575  2.4740 -1.5766
  954MOL0     H25899  11.779   1.282   5.105  0.7009  0.6349 -0.1574
  954MOL0     H25900  11.836   1.527   4.916  2.8884  0.6798 -1.3509
  954MOL0     H25901  11.896   1.488   5.078  2.0739 -0.2064  0.3050
  954MOL0     H25902  12.047   1.316   4.992  0.9559 -0.1782 -1.3269
  954MOL0     H25903  12.063   1.459   4.888 -2.7672  1.5394 -0.7304
  954MOL0     H25904  11.898   1.223   4.811  0.9139 -1.9112 -1.0982
  954MOL0     H25905  12.075   1.244   4.781 -0.3377 -0.5696 -1.1326
  954MOL0     H25906  11.947   1.491   4.675 -1.9940  0.3327 -1.3041
  954MOL0     H25907  12.029   1.377   4.592  1.9092  3.3494  2.2759
  954MOL0     H25908  11.797   1.423   4.512  1.4633  2.5219  1.7950
  954MOL0     H25909  11.743   1.368   4.674  1.5459  3.1077  2.3446
  954MOL0     H25910  11.278   1.677   5.189 -0.5239 -0.1236  0.7827
  954MOL0     H25911  11.052   1.679   5.142  0.1875 -0.2359  4.0927
  954MOL0     H25912  10.593   1.709   5.194 -0.0446 -1.5788  3.2206
  954MOL0     H25913  10.348   1.660   5.147  1.1878 -0.9053  1.0335
  954MOL0     H25914  10.361   1.316   6.455 -0.3396  2.1146 -0.0336
  954MOL0     H25915  10.616   1.293   6.457 -0.9327 -2.7995 -0.5395
  954MOL0     H25916  10.954   1.260   6.401  1.0193 -1.1005  0.3587
  954MOL0     H25917  11.187   1.194   6.453  2.9050  1.5172  0.2078
  954MOL0     H25918  11.558   1.210   6.408  0.2777  1.4941  1.8132
  954MOL0     H25919  11.437   1.312   6.473  3.1337  0.1392  2.2893
  954MOL0     H25920  11.481   1.482   6.284 -0.2203 -0.1480 -1.1472
  954MOL0     H25921  11.636   1.443   6.367  0.6414  1.3757 -1.0468
  954MOL0     H25922  11.652   1.447   6.113 -1.1376  2.5351  1.7666
  954MOL0     H25923  11.558   1.296   6.112  0.7193 -0.8989  1.7779
  954MOL0     H25924  11.801   1.319   6.291 -1.4459 -1.3423  1.2433
  954MOL0     H25925  11.705   1.180   6.252 -3.0487  2.3736  0.2265
  954MOL0     H25926  11.945   1.138   5.939  4.0870 -0.6126  2.2559
  954MOL0     H25927  11.319   1.372   6.088  1.5946  1.2137  1.5461
  954MOL0     H25928  11.111   1.448   6.048 -0.8855  3.0592  2.8771
  955MOL0     O25929   6.268   5.368   3.867  0.3448  1.0199 -0.3520
  955MOL0     C25930   6.199   5.310   3.950 -0.5012 -1.4461 -0.2343
  955MOL0     O25931   6.228   5.192   4.009 -0.6688 -0.4759 -0.3132
  955MOL0     C25932   6.354   5.142   4.004 -0.4123 -0.4579  0.6821
  955MOL0     C25933   6.375   5.008   3.952  0.2572 -0.6435  0.0871
  955MOL0     C25934   6.502   4.948   3.941  0.1044 -0.1001 -0.7221
  955MOL0     C25935   6.611   5.016   3.993  0.2224 -0.4483 -0.2890
  955MOL0     O25936   6.739   4.964   3.972  0.1512 -0.6582 -0.6108
  955MOL0     C25937   6.802   4.929   4.093 -0.4906 -0.0388 -0.8446
  955MOL0     C25938   6.946   4.873   4.067  0.4079  0.2365 -0.5480
  955MOL0     C25939   7.002   4.799   4.186 -0.3076  0.2140  0.3935
  955MOL0     C25940   7.136   4.725   4.156 -0.4509 -0.8069 -0.3813
  955MOL0     C25941   7.190   4.653   4.274  0.1523  0.8535  0.5801
  955MOL0     C25942   7.257   4.746   4.375 -0.7633  0.3385 -0.2768
  955MOL0     C25943   7.327   4.670   4.485 -0.5254  0.1380  1.1717
  955MOL0     C25944   7.394   4.771   4.569 -0.1116 -0.2865 -0.2417
  955MOL0     N25945   7.454   4.727   4.695 -0.2124  0.6702  0.2558
  955MOL0     C25946   7.430   4.607   4.746 -0.1253  0.0286 -0.4918
  955MOL0     C25947   7.521   4.596   4.854 -0.2397 -0.2226  0.1974
  955MOL0     C25948   7.547   4.472   4.928  0.3352  1.3082  0.4877
  955MOL0     C25949   7.589   4.358   4.831  0.2697 -0.5395 -0.8260
  955MOL0     C25950   7.573   4.221   4.894 -0.6675 -0.3598 -1.9575
  955MOL0     C25951   7.558   4.116   4.786 -0.2116  0.0047 -0.1428
  955MOL0     O25952   7.441   4.139   4.711 -0.0474 -0.4336 -0.0527
  955MOL0     C25953   7.332   4.058   4.733 -0.7014 -1.2261 -0.1228
  955MOL0     C25954   7.241   4.044   4.628 -0.6265  0.1615  0.2123
  955MOL0     C25955   7.118   3.967   4.641 -0.2335  0.0352  0.7462
  955MOL0     C25956   7.093   3.905   4.758  0.3257  1.0166 -0.3182
  955MOL0     C25957   6.951   3.865   4.792  0.3612 -0.9604 -0.7219
  955MOL0     O25958   6.852   3.933   4.723  0.3329 -0.0777 -0.4366
  955MOL0     C25959   6.725   3.923   4.762 -0.7972  0.1993  0.2892
  955MOL0     C25960   6.622   3.942   4.675  0.4264 -0.2380 -0.3828
  955MOL0     C25961   6.485   3.946   4.717 -0.9679  0.0484 -0.7866
  955MOL0     C25962   6.449   3.940   4.857 -0.1512  0.8166  0.0792
  955MOL0     O25963   6.322   3.960   4.906  0.7661 -0.3695  0.7003
  955MOL0     C25964   6.218   3.955   4.816  0.1477  1.1404  0.7360
  955MOL0     C25965   6.092   3.921   4.892  0.3121 -0.4107 -0.7766
  955MOL0     C25966   6.048   4.027   4.989 -0.3823  0.2779 -0.0228
  955MOL0     C25967   6.065   4.175   4.944 -0.5541  0.3300  0.1302
  955MOL0     C25968   6.056   4.271   5.056  0.0862 -0.2772 -0.4462
  955MOL0     C25969   6.199   4.290   5.111 -0.2523 -0.0196  0.8675
  955MOL0     C25970   6.187   4.393   5.228 -1.6987 -0.1581 -0.4642
  955MOL0     C25971   6.158   4.540   5.197 -0.1826  0.2350  0.7098
  955MOL0    Cl25972   6.296   4.624   5.127  0.3226  0.0808 -0.1601
  955MOL0     C25973   6.552   3.924   4.948  0.1165 -1.5705 -0.3333
  955MOL0     C25974   6.691   3.915   4.901 -0.0388 -0.2118 -0.7633
  955MOL0     O25975   6.935   3.770   4.868  0.0431  0.6450  0.3296
  955MOL0     C25976   7.189   3.906   4.866 -0.4322  0.4394 -0.4982
  955MOL0     C25977   7.301   3.993   4.858 -0.3437  0.4727  0.1837
  955MOL0     N25978   7.577   4.717   4.876  0.2199  0.1865 -0.3766
  955MOL0     N25979   7.540   4.801   4.774  0.0783  0.0364 -0.3622
  955MOL0     C25980   6.594   5.150   4.055  0.3881  0.0344  0.1483
  955MOL0     C25981   6.465   5.210   4.055  0.2233  0.1020  0.6664
  955MOL0     C25982   6.069   5.371   3.991 -0.0757  0.4359 -0.6052
  955MOL0     C25983   6.008   5.472   3.922 -0.4406  0.2920 -0.5707
  955MOL0     C25984   5.885   5.523   3.955  0.9315  0.9583 -0.2188
  955MOL0     C25985   5.811   5.465   4.063 -0.6441  0.4831 -0.6030
  955MOL0     O25986   5.693   5.512   4.113  0.0535 -0.2683 -1.0307
  955MOL0     C25987   5.636   5.632   4.058  0.4645  0.6367  0.2752
  955MOL0     C25988   5.507   5.668   4.125  0.2535 -0.8423 -0.4241
  955MOL0     C25989   5.381   5.597   4.067  1.1711  0.1940  0.1034
  955MOL0     C25990   5.244   5.622   4.143 -1.3152 -0.3074 -0.3504
  955MOL0     C25991   5.144   5.563   4.058  0.0957  0.0911  0.9474
  955MOL0     C25992   5.056   5.528   3.982 -0.1506 -0.3937  0.2166
  955MOL0     C25993   5.871   5.361   4.136 -0.3946 -0.2676  0.4371
  955MOL0     C25994   5.994   5.318   4.102 -1.4504  0.6748  0.1037
  955MOL0     H25995   6.294   4.950   3.910  1.0977 -1.1063 -0.9521
  955MOL0     H25996   6.526   4.854   3.893  0.5125  0.4965 -1.7419
  955MOL0     H25997   6.737   4.857   4.145 -0.5559  0.7813  0.2358
  955MOL0     H25998   6.815   5.021   4.150 -1.1555 -0.0285 -0.6983
  955MOL0     H25999   7.009   4.951   4.024  0.7891 -0.7283 -1.7967
  955MOL0     H26000   6.939   4.794   3.992 -0.2793  0.5232 -0.7938
  955MOL0     H26001   6.934   4.722   4.222  0.0095  0.2444  1.0735
  955MOL0     H26002   7.013   4.868   4.271 -0.7226 -2.4858  2.7788
  955MOL0     H26003   7.112   4.656   4.074 -2.5169  1.2602 -1.6515
  955MOL0     H26004   7.204   4.803   4.119 -0.4135  0.3408  1.9677
  955MOL0     H26005   7.257   4.579   4.229  2.1557  3.2865 -0.7234
  955MOL0     H26006   7.116   4.599   4.334 -1.4654 -0.3483 -2.3038
  955MOL0     H26007   7.183   4.817   4.413 -0.1530  0.8404 -0.0112
  955MOL0     H26008   7.330   4.803   4.315  0.0868 -1.1343 -0.7013
  955MOL0     H26009   7.248   4.606   4.524 -0.1545 -1.2062 -0.1961
  955MOL0     H26010   7.401   4.600   4.446 -0.2092  2.1334 -2.1229
  955MOL0     H26011   7.329   4.855   4.595  2.0923  0.8476  1.9776
  955MOL0     H26012   7.467   4.830   4.513 -0.6017  0.0598 -0.5163
  955MOL0     H26013   7.354   4.536   4.715 -3.1820  0.6545  4.5212
  955MOL0     H26014   7.455   4.452   4.984  1.7011 -2.5911  1.6678
  955MOL0     H26015   7.631   4.490   4.995  1.1794 -0.9242  0.1135
  955MOL0     H26016   7.695   4.369   4.807 -0.1478  2.5622 -1.6331
  955MOL0     H26017   7.530   4.366   4.739 -0.5749  2.0813 -0.1423
  955MOL0     H26018   7.659   4.185   4.951 -1.5525 -0.1657 -0.4490
  955MOL0     H26019   7.494   4.215   4.968 -0.7146 -1.2683 -2.0657
  955MOL0     H26020   7.577   4.018   4.830  1.0202  0.4334  0.3291
  955MOL0     H26021   7.650   4.133   4.729 -0.1323 -0.0926 -0.0465
  955MOL0     H26022   7.240   4.105   4.538 -0.8571 -2.7342 -1.9253
  955MOL0     H26023   7.052   3.987   4.557 -1.5529 -2.1301  1.1816
  955MOL0     H26024   6.645   3.970   4.573 -0.5000 -0.8887 -0.7868
  955MOL0     H26025   6.417   3.956   4.633 -1.4795  1.2298 -0.2689
  955MOL0     H26026   6.245   3.879   4.741  4.5262  3.2996 -0.2256
  955MOL0     H26027   6.205   4.047   4.759  0.5233  2.0296  2.0732
  955MOL0     H26028   6.116   3.828   4.945  2.1038  0.8697  0.7857
  955MOL0     H26029   6.016   3.896   4.817  0.6829  0.4647 -1.4629
  955MOL0     H26030   6.107   4.009   5.079  1.9293 -1.9403 -1.8094
  955MOL0     H26031   5.940   4.015   4.998 -0.3633 -3.2946 -2.4806
  955MOL0     H26032   6.159   4.198   4.893 -0.3529 -1.2137 -0.2299
  955MOL0     H26033   5.994   4.191   4.863 -1.8029  2.1127  1.5162
  955MOL0     H26034   5.976   4.258   5.129  2.4681 -3.1200  1.9286
  955MOL0     H26035   6.035   4.359   4.995  1.0768  0.7020  0.5724
  955MOL0     H26036   6.268   4.326   5.035 -0.9596 -2.2071 -0.9245
  955MOL0     H26037   6.236   4.194   5.147 -0.3354  0.1809  1.5038
  955MOL0     H26038   6.108   4.354   5.293 -0.9306 -1.7943 -0.4551
  955MOL0     H26039   6.287   4.386   5.272 -1.8276  1.8609  0.2456
  955MOL0     H26040   6.145   4.603   5.286  1.4616  2.7858 -0.7324
  955MOL0     H26041   6.081   4.567   5.125  1.0370 -2.6028 -1.8711
  955MOL0     H26042   6.535   3.930   5.055  1.5625 -1.2247 -0.1004
  955MOL0     H26043   6.767   3.903   4.977  0.9131  2.2983 -1.2060
  955MOL0     H26044   7.166   3.846   4.953 -1.7522 -0.3871 -1.3807
  955MOL0     H26045   7.365   3.994   4.946  0.6254 -2.9856 -0.3358
  955MOL0     H26046   6.689   5.198   4.076  2.1568 -2.0011 -2.5664
  955MOL0     H26047   6.445   5.313   4.082  0.5642 -0.5960  4.0754
  955MOL0     H26048   6.076   5.524   3.856  2.1959  1.6996  2.9765
  955MOL0     H26049   5.858   5.617   3.907  2.6511  1.5848 -0.0167
  955MOL0     H26050   5.632   5.619   3.949  0.9213 -1.9040  0.4939
  955MOL0     H26051   5.707   5.714   4.066  2.0611 -0.8025  1.4084
  955MOL0     H26052   5.515   5.642   4.231 -2.3334  0.7941  0.2695
  955MOL0     H26053   5.489   5.775   4.112  1.5711 -0.7136 -1.3429
  955MOL0     H26054   5.400   5.492   4.046 -1.9484 -0.1743 -1.4574
  955MOL0     H26055   5.372   5.635   3.965 -0.0341  4.1202  1.4745
  955MOL0     H26056   5.238   5.567   4.238 -1.4039 -3.5756 -2.0956
  955MOL0     H26057   5.222   5.726   4.167  0.3299 -0.4691  2.3051
  955MOL0     H26058   4.981   5.493   3.914  2.1528  0.7670 -3.1776
  955MOL0     H26059   5.804   5.321   4.211  0.2456 -0.7139  0.7747
  955MOL0     H26060   6.030   5.231   4.156 -3.0073 -0.0413  0.0628
  956MOL0     O26061   7.668   8.180   0.444  0.3404 -0.4536 -0.9022
  956MOL0     C26062   7.573   8.184   0.520 -0.2253 -1.4043 -0.4685
  956MOL0     O26063   7.532   8.083   0.597 -0.2594 -0.4909 -0.6928
  956MOL0     C26064   7.609   7.973   0.619 -0.3292  0.4744  0.7042
  956MOL0     C26065   7.674   7.912   0.505  0.9722  0.0981  0.1162
  956MOL0     C26066   7.759   7.798   0.526 -0.9157 -0.5826  0.1840
  956MOL0     C26067   7.750   7.732   0.643  0.4633 -0.2452 -0.4529
  956MOL0     O26068   7.821   7.617   0.665  0.1713 -0.2526 -0.5527
  956MOL0     C26069   7.872   7.576   0.792  0.3836 -0.2187 -0.7790
  956MOL0     C26070   7.984   7.469   0.775 -0.5243  0.1862  0.6702
  956MOL0     C26071   8.012   7.403   0.903 -0.3168  1.0602 -0.1401
  956MOL0     C26072   8.103   7.271   0.903  0.3413 -0.2913  0.8351
  956MOL0     C26073   8.247   7.293   0.866 -0.6508 -0.1827  0.4313
  956MOL0     C26074   8.316   7.377   0.978  0.4666  0.0266 -0.1030
  956MOL0     C26075   8.469   7.395   0.972 -0.4202  0.5667  0.5777
  956MOL0     C26076   8.503   7.504   0.865  0.5033  0.7855  0.3582
  956MOL0     N26077   8.647   7.525   0.847 -0.6966 -0.4687  0.2444
  956MOL0     C26078   8.760   7.499   0.930 -0.7808  0.0134 -0.5671
  956MOL0     C26079   8.859   7.581   0.894 -0.2554 -0.0872 -0.1695
  956MOL0     C26080   8.991   7.593   0.950  1.0805  0.3977 -0.0045
  956MOL0     C26081   9.061   7.465   0.930  1.0764  0.0475 -0.8897
  956MOL0     C26082   9.100   7.428   0.783 -0.0907 -0.3855  0.8360
  956MOL0     C26083   9.194   7.314   0.789 -0.1034 -0.3597 -0.8259
  956MOL0     O26084   9.131   7.186   0.819 -0.5082 -0.7923 -1.1762
  956MOL0     C26085   9.075   7.119   0.716  0.1440 -0.3330 -0.1903
  956MOL0     C26086   9.058   7.162   0.584  0.0453  0.2735  0.3744
  956MOL0     C26087   8.980   7.079   0.498 -0.1105  0.1592 -0.4309
  956MOL0     C26088   8.921   6.954   0.544  0.5362 -0.6841  0.7391
  956MOL0     C26089   8.851   6.867   0.448 -0.3352 -0.4672  0.0151
  956MOL0     O26090   8.799   6.747   0.494 -0.6652 -0.5630  0.4683
  956MOL0     C26091   8.748   6.657   0.410 -0.6793  0.6216  0.2434
  956MOL0     C26092   8.716   6.536   0.477 -0.5468 -0.2371 -0.1612
  956MOL0     C26093   8.702   6.412   0.413 -1.5269  0.1275 -1.1782
  956MOL0     C26094   8.696   6.411   0.272  0.1091 -0.0074 -0.4403
  956MOL0     O26095   8.691   6.282   0.219 -0.8225 -0.3629  0.5693
  956MOL0     C26096   8.714   6.282   0.072 -0.5820  0.1431 -0.0836
  956MOL0     C26097   8.753   6.136   0.026 -0.3473 -0.4372 -0.0049
  956MOL0     C26098   8.633   6.045   0.025 -1.0771 -0.0017 -0.6437
  956MOL0     C26099   8.678   5.901   0.042  0.2665  0.7340 -0.3008
  956MOL0     C26100   8.718   5.880   0.202  0.4360 -0.8793  0.6404
  956MOL0     C26101   8.604   5.894   0.306 -0.4217  0.0499  1.4929
  956MOL0     C26102   8.620   5.800   0.423  0.3115  0.2885 -0.6306
  956MOL0     C26103   8.740   5.855   0.510  0.3917 -0.6750 -0.4093
  956MOL0    Cl26104   8.915   5.805   0.457 -0.8709  0.0489  0.1236
  956MOL0     C26105   8.682   6.534   0.205  0.7613  0.1888 -0.1728
  956MOL0     C26106   8.715   6.655   0.269 -0.1982 -0.4436 -0.3949
  956MOL0     O26107   8.863   6.902   0.327  0.4743 -0.3171  0.0303
  956MOL0     C26108   8.942   6.923   0.675  0.6681 -0.2598 -0.1243
  956MOL0     C26109   9.018   7.004   0.757 -0.0924  0.8830 -0.2373
  956MOL0     N26110   8.807   7.650   0.786  0.0253 -0.6692  0.9125
  956MOL0     N26111   8.689   7.614   0.751  0.1792  0.2067 -0.5000
  956MOL0     C26112   7.682   7.794   0.752  0.0691  1.2439  0.1080
  956MOL0     C26113   7.621   7.920   0.736 -0.8190  0.9229 -0.2170
  956MOL0     C26114   7.500   8.311   0.523 -0.6213  0.5665 -0.1666
  956MOL0     C26115   7.381   8.328   0.592  0.7287  0.6296  1.1155
  956MOL0     C26116   7.315   8.446   0.583  0.2710 -0.0386  0.3398
  956MOL0     C26117   7.369   8.553   0.524  0.8328  0.6879  0.6923
  956MOL0     O26118   7.302   8.668   0.531  0.5192  0.2515 -0.1222
  956MOL0     C26119   7.192   8.686   0.434  0.7340 -0.0755 -0.0405
  956MOL0     C26120   7.215   8.821   0.361  0.4170 -0.3975  0.0798
  956MOL0     C26121   7.126   8.866   0.248 -0.3449  0.4860  0.8095
  956MOL0     C26122   6.977   8.886   0.280  0.1666  0.0661  0.3397
  956MOL0     C26123   6.959   8.999   0.369 -0.4941  0.3507 -0.5612
  956MOL0     C26124   6.961   9.086   0.449  1.4450 -0.2003 -0.2325
  956MOL0     C26125   7.492   8.548   0.468 -0.7206 -0.1347  0.2690
  956MOL0     C26126   7.554   8.427   0.467 -0.7362 -0.3090 -0.1664
  956MOL0     H26127   7.650   7.952   0.407 -0.6022  1.9982  1.2023
  956MOL0     H26128   7.801   7.756   0.435 -2.4195 -0.6909 -0.4990
  956MOL0     H26129   7.790   7.527   0.845  0.0223 -1.9227 -2.7612
  956MOL0     H26130   7.898   7.666   0.848 -1.6799  0.2901 -0.5605
  956MOL0     H26131   8.075   7.506   0.728  0.7026 -1.5874  1.5460
  956MOL0     H26132   7.949   7.386   0.713 -0.2490  2.7208 -3.2043
  956MOL0     H26133   7.915   7.361   0.932 -0.2051  0.0261 -1.1912
  956MOL0     H26134   8.061   7.464   0.980  0.6538  1.4843 -1.0667
  956MOL0     H26135   8.105   7.225   1.002 -3.1695 -2.4509  0.0950
  956MOL0     H26136   8.072   7.205   0.821 -3.8225  1.0603  1.0779
  956MOL0     H26137   8.249   7.352   0.775 -4.3450  0.4914  0.6294
  956MOL0     H26138   8.300   7.198   0.853 -2.0720 -0.8893 -0.4724
  956MOL0     H26139   8.292   7.330   1.073  1.3257  2.0546  1.1900
  956MOL0     H26140   8.277   7.479   0.982  2.3770  0.7640  3.0503
  956MOL0     H26141   8.508   7.421   1.071 -0.5148  0.3669  0.6669
  956MOL0     H26142   8.521   7.302   0.945 -0.6546 -0.0271  2.0808
  956MOL0     H26143   8.458   7.598   0.897  4.7496  3.2545 -0.2443
  956MOL0     H26144   8.461   7.465   0.772  2.5361  1.7489 -1.0220
  956MOL0     H26145   8.757   7.424   1.009  0.8269  0.2103 -0.2863
  956MOL0     H26146   8.974   7.610   1.057  3.5297 -1.2917  0.7402
  956MOL0     H26147   9.055   7.677   0.923  0.9295  0.6396  0.3894
  956MOL0     H26148   8.996   7.384   0.965  0.8200  1.7223  2.9257
  956MOL0     H26149   9.153   7.467   0.989 -0.9822 -0.3803  2.5798
  956MOL0     H26150   9.011   7.398   0.727  0.9539  0.8423 -1.6271
  956MOL0     H26151   9.146   7.520   0.746 -0.4738  1.1086  3.8084
  956MOL0     H26152   9.271   7.327   0.866  0.1676  2.5318 -1.4440
  956MOL0     H26153   9.246   7.288   0.697  2.8317 -2.0636  1.1370
  956MOL0     H26154   9.084   7.259   0.543 -1.6574 -0.7020 -3.5292
  956MOL0     H26155   8.959   7.105   0.395 -0.8170  0.9218 -0.1062
  956MOL0     H26156   8.704   6.538   0.585  0.1058 -0.1880 -0.0827
  956MOL0     H26157   8.697   6.324   0.476 -3.1603 -0.1923 -1.6869
  956MOL0     H26158   8.794   6.351   0.041  0.6804 -1.3998 -0.4101
  956MOL0     H26159   8.622   6.307   0.019 -0.5145  0.7218  0.0620
  956MOL0     H26160   8.832   6.111   0.097 -0.6918  1.8826  1.3021
  956MOL0     H26161   8.804   6.131  -0.071  1.3514 -1.3548  0.8908
  956MOL0     H26162   8.582   6.067  -0.069 -2.9352  3.7144  1.0468
  956MOL0     H26163   8.567   6.073   0.107 -1.6510 -2.0224 -0.3561
  956MOL0     H26164   8.590   5.839   0.024 -1.9371  3.4823  0.3335
  956MOL0     H26165   8.765   5.883  -0.021  0.1214  0.1511 -0.3411
  956MOL0     H26166   8.780   5.966   0.229 -1.4104 -0.1290  2.8429
  956MOL0     H26167   8.773   5.787   0.221  1.0644 -0.8576 -0.9863
  956MOL0     H26168   8.513   5.873   0.250 -0.0928  1.5234  0.3574
  956MOL0     H26169   8.580   5.997   0.333 -1.6919 -0.2185  1.4364
  956MOL0     H26170   8.534   5.812   0.489  0.5275  0.0275 -0.2967
  956MOL0     H26171   8.643   5.696   0.397  2.5130  0.1871  1.3180
  956MOL0     H26172   8.739   5.804   0.606  2.3966  0.9765  0.5690
  956MOL0     H26173   8.729   5.962   0.530 -1.9817 -0.8461 -0.4990
  956MOL0     H26174   8.651   6.544   0.101 -3.2192 -0.8050  0.7914
  956MOL0     H26175   8.735   6.733   0.196  1.9546 -2.0520 -1.6176
  956MOL0     H26176   8.903   6.834   0.722  2.6442 -1.9938 -1.5354
  956MOL0     H26177   9.030   6.979   0.862 -5.5174 -2.1964  0.0125
  956MOL0     H26178   7.676   7.757   0.853 -5.4277 -1.9253 -1.0061
  956MOL0     H26179   7.577   7.964   0.825 -2.2937 -1.8420  0.5611
  956MOL0     H26180   7.324   8.252   0.645  1.0209 -1.5313 -1.4277
  956MOL0     H26181   7.216   8.460   0.626  0.7813  1.6096  1.0585
  956MOL0     H26182   7.091   8.675   0.474 -1.1131  1.8053 -3.6915
  956MOL0     H26183   7.201   8.604   0.361 -2.4679 -2.3912  1.9124
  956MOL0     H26184   7.211   8.896   0.441 -3.2003  2.1928 -2.2503
  956MOL0     H26185   7.309   8.812   0.306 -1.6342 -1.4958 -3.5131
  956MOL0     H26186   7.122   8.796   0.165 -0.2883  1.2292  0.1694
  956MOL0     H26187   7.162   8.961   0.208 -4.0942  2.0198  0.6324
  956MOL0     H26188   6.905   8.876   0.199 -0.5690 -0.9994  1.0973
  956MOL0     H26189   6.934   8.809   0.345  0.9027  2.0542  3.4004
  956MOL0     H26190   6.942   9.161   0.523 -1.6591 -0.2497 -0.8627
  956MOL0     H26191   7.536   8.642   0.437  1.8301 -0.3249  2.8443
  956MOL0     H26192   7.654   8.427   0.425 -1.6954  1.3671 -2.6100
  957MOL0     O26193   7.157   4.350   8.280 -0.2918  0.5229  0.2222
  957MOL0     C26194   7.278   4.386   8.292  0.1586  0.8502  1.2484
  957MOL0     O26195   7.352   4.394   8.401  0.0967 -0.9495 -0.8264
  957MOL0     C26196   7.292   4.373   8.523 -0.2192  0.1615  0.7713
  957MOL0     C26197   7.165   4.422   8.563 -0.5731 -0.5888 -0.2766
  957MOL0     C26198   7.129   4.425   8.694 -0.3797  0.5167  0.1343
  957MOL0     C26199   7.206   4.360   8.794 -0.2221  0.7375  1.1005
  957MOL0     O26200   7.163   4.369   8.929  0.7976  0.9976  0.9800
  957MOL0     C26201   7.060   4.273   8.960  1.1782 -0.0655  0.2696
  957MOL0     C26202   7.028   4.286   9.111 -0.2643 -0.0856 -0.6413
  957MOL0     C26203   7.149   4.263   9.200  0.2441  0.7007  0.5571
  957MOL0     C26204   7.099   4.245   9.346 -0.0727 -0.1546 -0.0967
  957MOL0     C26205   7.210   4.217   9.447 -0.1611  0.4345  0.3042
  957MOL0     C26206   7.170   4.187   9.596 -0.4947  0.6856 -0.7891
  957MOL0     C26207   7.279   4.152   9.698  0.0395  0.0737  0.5274
  957MOL0     C26208   7.364   4.022   9.665  0.2383 -0.5324  0.7581
  957MOL0     N26209   7.272   3.904   9.646 -0.0452 -0.5165  0.3860
  957MOL0     C26210   7.314   3.798   9.569  0.3709  0.4607  0.9163
  957MOL0     C26211   7.209   3.718   9.568  0.5641 -0.2164 -0.1650
  957MOL0     C26212   7.215   3.581   9.501  0.5596  0.5308 -0.2250
  957MOL0     C26213   7.219   3.466   9.610  0.2995 -1.2961 -0.1946
  957MOL0     C26214   7.210   3.330   9.545  0.1182 -0.3056 -0.1430
  957MOL0     C26215   7.210   3.238   9.662 -0.1758  0.3698 -0.3786
  957MOL0     O26216   7.169   3.116   9.608 -0.2435  0.3630  0.2407
  957MOL0     C26217   7.189   3.000   9.679 -0.6912  0.6708 -0.8663
  957MOL0     C26218   7.254   2.979   9.798  0.0202  0.8200  0.2557
  957MOL0     C26219   7.267   2.855   9.864  0.4313 -0.1735 -0.5414
  957MOL0     C26220   7.188   2.750   9.805  1.0870 -0.3666  0.8718
  957MOL0     C26221   7.178   2.617   9.871  0.0944 -0.3751 -0.3546
  957MOL0     O26222   7.146   2.508   9.806 -0.0820  0.1135 -0.0961
  957MOL0     C26223   7.156   2.394   9.878 -0.0066  0.0219  0.4657
  957MOL0     C26224   7.253   2.292   9.831  0.4879 -0.4825  0.7216
  957MOL0     C26225   7.267   2.182   9.916  0.1865 -0.1492 -0.1817
  957MOL0     C26226   7.189   2.161  10.036 -0.4682  0.0184  0.0869
  957MOL0     O26227   7.193   2.051  10.113  0.1361  0.5938 -0.3035
  957MOL0     C26228   7.325   2.013  10.164 -0.4942 -1.1860  1.0383
  957MOL0     C26229   7.371   2.106  10.282 -0.5027  0.0529  0.1147
  957MOL0     C26230   7.446   2.014  10.384 -0.3206 -0.2789 -0.4319
  957MOL0     C26231   7.593   1.996  10.333 -0.0108 -0.3488  0.0405
  957MOL0     C26232   7.670   2.130  10.320 -1.0395  0.0440 -0.1615
  957MOL0     C26233   7.821   2.091  10.299  0.4221  0.2459  0.6035
  957MOL0     C26234   7.907   2.216  10.296  0.1845  0.0938  0.2806
  957MOL0     C26235   8.046   2.171  10.259 -0.2682 -0.4503 -0.5189
  957MOL0    Cl26236   8.111   2.063  10.385 -0.3875  0.0050  0.1459
  957MOL0     C26237   7.108   2.258  10.078  1.2422 -0.8693  0.1877
  957MOL0     C26238   7.090   2.367   9.996  0.5481 -0.5404 -0.9011
  957MOL0     O26239   7.214   2.628   9.993 -0.3369 -0.6525  0.5874
  957MOL0     C26240   7.124   2.774   9.694  0.6282  0.0455  1.2051
  957MOL0     C26241   7.117   2.897   9.625  0.6608  0.6324 -0.0189
  957MOL0     N26242   7.105   3.762   9.644 -0.2599 -0.5669 -0.7123
  957MOL0     N26243   7.150   3.878   9.692  1.2952 -0.0705  0.3005
  957MOL0     C26244   7.320   4.291   8.754 -0.6693  0.1447 -0.2099
  957MOL0     C26245   7.369   4.297   8.619  0.3262 -0.9122 -0.0062
  957MOL0     C26246   7.350   4.411   8.154  1.3265 -0.4590 -0.9394
  957MOL0     C26247   7.286   4.354   8.035 -0.0560  0.1799 -1.8115
  957MOL0     C26248   7.367   4.351   7.921 -0.0659 -0.6281  0.5314
  957MOL0     C26249   7.493   4.403   7.909 -0.1869 -0.0488 -0.7332
  957MOL0     O26250   7.568   4.407   7.795  0.2539  0.4317  0.4959
  957MOL0     C26251   7.514   4.352   7.673  0.0150  0.9379  0.2160
  957MOL0     C26252   7.625   4.360   7.578  0.4391  0.2263 -0.1281
  957MOL0     C26253   7.718   4.237   7.582 -0.4077  0.5822 -0.4963
  957MOL0     C26254   7.851   4.256   7.508 -0.3695  0.4054  0.3647
  957MOL0     C26255   7.846   4.244   7.359 -0.9496  0.9113  0.5101
  957MOL0     C26256   7.860   4.239   7.235 -0.4570 -0.0354  0.0520
  957MOL0     C26257   7.549   4.462   8.027  0.5138  0.0570 -0.7433
  957MOL0     C26258   7.476   4.464   8.145 -0.0375  0.0589 -0.3033
  957MOL0     H26259   7.102   4.486   8.502  0.3607 -1.4437 -2.2211
  957MOL0     H26260   7.034   4.469   8.723 -0.0657  1.2580  0.0702
  957MOL0     H26261   7.091   4.177   8.919  2.3858  1.1698 -1.8904
  957MOL0     H26262   6.973   4.303   8.901 -1.0178 -1.3697  2.6332
  957MOL0     H26263   6.964   4.202   9.143 -0.6115  1.3676  2.9434
  957MOL0     H26264   6.977   4.382   9.127 -1.4196 -0.8792  0.6847
  957MOL0     H26265   7.228   4.338   9.191 -0.8862  2.5535  4.1392
  957MOL0     H26266   7.187   4.163   9.177 -2.2692 -0.7708  2.2646
  957MOL0     H26267   7.046   4.338   9.369  0.9081 -0.1018  2.2405
  957MOL0     H26268   7.026   4.164   9.357  1.3287 -2.2990 -4.2880
  957MOL0     H26269   7.284   4.296   9.436 -1.1692  1.1458 -2.0366
  957MOL0     H26270   7.252   4.122   9.412  0.0137  0.1382  1.2854
  957MOL0     H26271   7.099   4.105   9.599  1.7107 -1.2771  1.0061
  957MOL0     H26272   7.120   4.280   9.626 -1.8305  0.1429 -1.2584
  957MOL0     H26273   7.352   4.231   9.718  0.1245 -0.5824  3.3057
  957MOL0     H26274   7.230   4.143   9.796  0.9085  0.1810  0.9794
  957MOL0     H26275   7.442   4.009   9.741 -1.6007 -0.6051  2.7131
  957MOL0     H26276   7.416   4.040   9.570  0.9354  3.2056  1.7061
  957MOL0     H26277   7.407   3.779   9.516 -1.0958  1.1216 -2.1102
  957MOL0     H26278   7.301   3.565   9.436 -0.9429 -2.6944 -1.6725
  957MOL0     H26279   7.119   3.568   9.449 -0.5321  3.1517  0.9979
  957MOL0     H26280   7.135   3.475   9.679 -0.9341 -0.0418 -1.7671
  957MOL0     H26281   7.317   3.484   9.655  0.3699  1.8723 -1.3670
  957MOL0     H26282   7.114   3.340   9.493 -0.1586  2.1675  0.7531
  957MOL0     H26283   7.291   3.307   9.475 -0.3497 -2.1084 -0.1398
  957MOL0     H26284   7.153   3.275   9.747  4.9822 -0.9775  4.2795
  957MOL0     H26285   7.311   3.233   9.704 -0.3499  2.8102  0.4975
  957MOL0     H26286   7.316   3.058   9.839 -0.3252  3.4841 -3.7951
  957MOL0     H26287   7.336   2.827   9.943 -0.3508 -3.0190 -0.7766
  957MOL0     H26288   7.306   2.294   9.736  2.3089 -2.6152  1.6054
  957MOL0     H26289   7.355   2.119   9.905  0.1408 -0.5328  1.5009
  957MOL0     H26290   7.399   2.005  10.084  0.3175 -0.2853  1.6724
  957MOL0     H26291   7.318   1.917  10.215  1.5984 -0.9848  1.8019
  957MOL0     H26292   7.281   2.155  10.322  0.1633  2.1339 -0.8037
  957MOL0     H26293   7.427   2.190  10.240  1.7513 -1.3081  0.2630
  957MOL0     H26294   7.395   1.919  10.401  0.6731 -0.7283  0.1554
  957MOL0     H26295   7.450   2.068  10.479  0.0011  1.1284 -1.2183
  957MOL0     H26296   7.629   1.928  10.411 -0.0078 -1.0280 -0.5474
  957MOL0     H26297   7.599   1.936  10.242 -2.5655  0.7442 -0.9382
  957MOL0     H26298   7.661   2.178  10.418  0.5164  0.2959 -0.1305
  957MOL0     H26299   7.632   2.203  10.248  2.6825  2.0668 -0.2858
  957MOL0     H26300   7.835   2.037  10.205  2.2917 -1.0735  1.5907
  957MOL0     H26301   7.852   2.022  10.377 -0.7616 -2.3129 -1.0517
  957MOL0     H26302   7.865   2.284  10.222  2.0836 -0.8539 -1.8071
  957MOL0     H26303   7.911   2.240  10.403  2.9275 -2.0485  0.7776
  957MOL0     H26304   8.106   2.262  10.262 -1.1622  0.1312  2.7121
  957MOL0     H26305   8.058   2.135  10.156 -0.7957 -1.2301 -0.3236
  957MOL0     H26306   7.052   2.252  10.171 -1.5319  1.1721 -1.1941
  957MOL0     H26307   7.023   2.437  10.046  0.1125 -0.7107 -1.2364
  957MOL0     H26308   7.060   2.708   9.636 -0.9851  3.4638 -1.2362
  957MOL0     H26309   7.067   2.903   9.528 -1.8713 -1.9682  0.9807
  957MOL0     H26310   7.384   4.238   8.824 -0.6053  1.4856  0.7835
  957MOL0     H26311   7.462   4.252   8.586  3.3410  3.9790  0.8434
  957MOL0     H26312   7.189   4.306   8.033 -1.2016  2.2999 -0.9400
  957MOL0     H26313   7.327   4.306   7.831  2.5526  1.1943 -1.6907
  957MOL0     H26314   7.440   4.424   7.637 -0.1990 -0.1376 -1.6179
  957MOL0     H26315   7.470   4.253   7.689 -0.5147  1.0178 -0.6648
  957MOL0     H26316   7.576   4.363   7.480 -0.2176  0.7538  0.2062
  957MOL0     H26317   7.675   4.453   7.605  0.0737  0.9134 -1.7366
  957MOL0     H26318   7.686   4.140   7.544  2.2545 -1.0459  1.0366
  957MOL0     H26319   7.740   4.210   7.686  0.9992 -0.0243 -0.9138
  957MOL0     H26320   7.896   4.352   7.533 -3.4797  2.5651 -1.5586
  957MOL0     H26321   7.921   4.182   7.548  1.7826  2.6805  1.0722
  957MOL0     H26322   7.876   4.231   7.129  2.1648  1.7750  0.2134
  957MOL0     H26323   7.643   4.512   8.046  1.2683 -1.6034  0.1481
  957MOL0     H26324   7.510   4.528   8.226 -0.5329  0.7524 -0.6271
  958MOL0     O26325   5.442   7.045   6.447  0.0367 -0.6536 -1.2328
  958MOL0     C26326   5.524   7.021   6.542 -0.5563 -0.4279  1.1379
  958MOL0     O26327   5.527   6.911   6.621  0.1863 -0.4393 -0.4257
  958MOL0     C26328   5.423   6.839   6.591  0.7148  0.4905  0.5908
  958MOL0     C26329   5.449   6.723   6.509  0.3691  0.5453 -1.4901
  958MOL0     C26330   5.345   6.639   6.472 -0.2990  0.8084  0.0083
  958MOL0     C26331   5.208   6.686   6.498  0.8777  0.2014  1.5957
  958MOL0     O26332   5.118   6.603   6.440 -0.5120 -0.1290 -0.1483
  958MOL0     C26333   4.977   6.643   6.454 -0.1889  0.3247 -0.5956
  958MOL0     C26334   4.931   6.760   6.365 -0.7103 -0.2851 -0.2192
  958MOL0     C26335   4.929   6.729   6.213 -0.4863 -0.3614 -0.0347
  958MOL0     C26336   4.847   6.834   6.138  0.4486  0.4659 -0.1207
  958MOL0     C26337   4.865   6.798   5.990  0.3334 -1.1387  0.2333
  958MOL0     C26338   4.745   6.863   5.914 -0.1273  0.7266  0.1023
  958MOL0     C26339   4.751   6.824   5.765 -0.8779  0.1192 -0.2885
  958MOL0     C26340   4.622   6.819   5.694 -0.3061 -0.7371  0.0281
  958MOL0     N26341   4.631   6.887   5.563 -0.0643  0.2049 -0.0246
  958MOL0     C26342   4.605   7.023   5.537 -0.6155 -0.1540  0.2922
  958MOL0     C26343   4.643   7.045   5.403  1.1787 -1.0200  0.1866
  958MOL0     C26344   4.673   7.169   5.320  0.3347  0.0385  0.5238
  958MOL0     C26345   4.544   7.224   5.260 -0.2164  0.8989 -0.5972
  958MOL0     C26346   4.546   7.382   5.244 -0.5784 -0.0087  0.2289
  958MOL0     C26347   4.427   7.445   5.174  0.4286 -0.7318  0.2020
  958MOL0     O26348   4.311   7.447   5.258  0.0741 -0.6231 -0.2052
  958MOL0     C26349   4.245   7.560   5.267 -0.7702 -0.5652  0.1990
  958MOL0     C26350   4.252   7.672   5.173  0.5026  0.6541  0.0586
  958MOL0     C26351   4.191   7.792   5.203 -0.0509 -0.0991 -0.1601
  958MOL0     C26352   4.118   7.809   5.324  0.0492  0.1455  1.4840
  958MOL0     C26353   4.064   7.938   5.357  0.0262  0.0179 -0.1274
  958MOL0     O26354   4.039   8.025   5.251  0.1948 -0.5095 -0.1339
  958MOL0     C26355   3.949   8.124   5.280  0.1037  0.9342  0.2781
  958MOL0     C26356   3.838   8.133   5.196 -0.4832  0.6552 -1.0339
  958MOL0     C26357   3.748   8.230   5.216 -0.4207 -0.8604 -0.5250
  958MOL0     C26358   3.780   8.337   5.298  0.0825 -0.0065 -0.3780
  958MOL0     O26359   3.708   8.452   5.316 -1.2825  0.1804  0.6399
  958MOL0     C26360   3.593   8.433   5.400  0.2367 -0.2227 -0.1104
  958MOL0     C26361   3.546   8.573   5.455  0.3658  0.2441 -0.6103
  958MOL0     C26362   3.657   8.648   5.538 -0.1552  0.7562  0.7961
  958MOL0     C26363   3.598   8.778   5.598 -0.1143 -0.7256  0.4684
  958MOL0     C26364   3.698   8.835   5.690  0.6551 -0.3698  0.7814
  958MOL0     C26365   3.661   8.971   5.754  0.2697  0.7611  0.5984
  958MOL0     C26366   3.760   9.029   5.853  0.8777  0.6827 -0.4422
  958MOL0     C26367   3.716   9.162   5.915 -0.0747  0.2637 -0.5438
  958MOL0    Cl26368   3.849   9.254   6.005 -0.0563  0.2285  0.2660
  958MOL0     C26369   3.895   8.330   5.379 -0.1151  0.3000 -0.2004
  958MOL0     C26370   3.978   8.220   5.371  0.8040 -0.2830  0.1009
  958MOL0     O26371   4.046   7.961   5.475 -0.1693 -0.4049  0.3020
  958MOL0     C26372   4.109   7.698   5.405 -0.1885 -0.2254 -0.3376
  958MOL0     C26373   4.169   7.575   5.380  0.0942  0.1762 -0.7829
  958MOL0     N26374   4.681   6.917   5.355  0.2048  0.1368  0.6843
  958MOL0     N26375   4.665   6.823   5.444  0.3764 -0.1957 -0.2355
  958MOL0     C26376   5.183   6.802   6.577  0.1613  0.1580  0.2730
  958MOL0     C26377   5.290   6.872   6.636 -0.6571 -0.8138 -0.5562
  958MOL0     C26378   5.656   7.091   6.551 -0.1620 -0.8767 -0.2168
  958MOL0     C26379   5.779   7.023   6.570 -0.0336 -0.5505  0.3493
  958MOL0     C26380   5.892   7.090   6.588 -0.5177 -0.6461 -1.1688
  958MOL0     C26381   5.893   7.236   6.569 -0.6537  0.5777 -0.0077
  958MOL0     O26382   6.009   7.306   6.601  1.4532 -0.4552 -0.1650
  958MOL0     C26383   6.137   7.257   6.599 -0.0778 -0.1558  0.5713
  958MOL0     C26384   6.188   7.249   6.451 -0.2839  0.1770  1.0875
  958MOL0     C26385   6.332   7.198   6.462 -0.5615  0.6494  0.0843
  958MOL0     C26386   6.411   7.177   6.338  0.6534 -0.3761 -0.0457
  958MOL0     C26387   6.339   7.081   6.248  0.0552  0.3511  0.5738
  958MOL0     C26388   6.327   6.990   6.166 -0.9125  0.1771 -0.3530
  958MOL0     C26389   5.782   7.313   6.548 -0.4560 -1.3941 -0.5964
  958MOL0     C26390   5.667   7.237   6.536  0.5575 -0.4827 -0.0859
  958MOL0     H26391   5.551   6.696   6.484  1.2356 -0.3548  2.3283
  958MOL0     H26392   5.368   6.540   6.435 -3.1714 -1.8677  4.4846
  958MOL0     H26393   4.961   6.670   6.559 -1.0044 -3.4080  0.4133
  958MOL0     H26394   4.920   6.551   6.436 -0.6650  0.9003 -2.1810
  958MOL0     H26395   4.989   6.848   6.395  0.3449 -0.9022 -0.3708
  958MOL0     H26396   4.828   6.778   6.397  0.0951  0.1096  2.4475
  958MOL0     H26397   4.875   6.638   6.185  2.0529 -1.1052 -3.1994
  958MOL0     H26398   5.030   6.707   6.176  0.8130 -0.6312  3.3141
  958MOL0     H26399   4.741   6.825   6.162  0.1590 -3.5162 -2.0113
  958MOL0     H26400   4.887   6.928   6.177 -1.1182  1.8543 -1.6827
  958MOL0     H26401   4.873   6.690   5.976 -0.4438 -1.1573 -0.1144
  958MOL0     H26402   4.954   6.845   5.947  0.6425 -0.6992  1.3383
  958MOL0     H26403   4.747   6.971   5.931  1.3032  0.7353 -0.0353
  958MOL0     H26404   4.646   6.836   5.951 -0.2095  0.7022 -0.1302
  958MOL0     H26405   4.821   6.875   5.700  1.3320 -0.1944  1.7135
  958MOL0     H26406   4.788   6.721   5.764 -0.6223  0.1973  0.3535
  958MOL0     H26407   4.539   6.864   5.750  0.6011  1.2584 -0.1342
  958MOL0     H26408   4.591   6.715   5.676 -0.5092 -0.3882 -1.7848
  958MOL0     H26409   4.584   7.100   5.611  0.0001  0.2899  0.0170
  958MOL0     H26410   4.754   7.153   5.247 -0.9184  0.1212 -0.9374
  958MOL0     H26411   4.696   7.252   5.388 -1.7621 -0.8683  2.4783
  958MOL0     H26412   4.458   7.195   5.322  1.1289 -3.7383 -0.5223
  958MOL0     H26413   4.528   7.176   5.163  0.4795 -0.0269 -0.2690
  958MOL0     H26414   4.536   7.416   5.347 -2.2185  3.9533 -1.0457
  958MOL0     H26415   4.647   7.406   5.208 -0.2584 -1.3744  0.1687
  958MOL0     H26416   4.395   7.397   5.081 -1.2838 -0.0936  0.4187
  958MOL0     H26417   4.465   7.546   5.158 -3.5509  1.0905  0.8711
  958MOL0     H26418   4.301   7.653   5.078  1.9258 -1.0454  1.0562
  958MOL0     H26419   4.212   7.875   5.135  2.9719 -0.6090  0.0117
  958MOL0     H26420   3.824   8.067   5.110 -0.9209  0.4875 -0.8344
  958MOL0     H26421   3.655   8.224   5.161 -1.4831 -0.5179  1.1794
  958MOL0     H26422   3.607   8.366   5.486 -0.6523  0.7790  0.8522
  958MOL0     H26423   3.518   8.379   5.342  1.8693 -0.7614 -1.8195
  958MOL0     H26424   3.460   8.557   5.521  0.0341  0.2211 -1.0453
  958MOL0     H26425   3.519   8.631   5.367  0.3257  1.8743  0.4370
  958MOL0     H26426   3.735   8.674   5.466 -1.1236  0.9972 -0.1983
  958MOL0     H26427   3.691   8.585   5.620 -1.7117  0.9210  1.5964
  958MOL0     H26428   3.564   8.837   5.513  2.1620  0.5588  0.3769
  958MOL0     H26429   3.515   8.748   5.663 -1.5725  0.9492 -0.5380
  958MOL0     H26430   3.794   8.836   5.637  0.9658 -0.9596  1.3096
  958MOL0     H26431   3.715   8.767   5.774  0.9025 -1.4086 -0.0941
  958MOL0     H26432   3.562   8.959   5.797  0.4387 -0.1016  0.7635
  958MOL0     H26433   3.656   9.049   5.677 -0.2355 -1.5949 -1.9260
  958MOL0     H26434   3.782   8.954   5.929  1.2113  1.2021 -0.0128
  958MOL0     H26435   3.858   9.048   5.808  1.8980 -1.3501  0.7690
  958MOL0     H26436   3.648   9.144   5.998  2.3683 -1.2761  1.2877
  958MOL0     H26437   3.676   9.214   5.827 -0.4296 -1.5417 -1.5102
  958MOL0     H26438   3.930   8.413   5.440 -0.1385 -1.2009  2.0121
  958MOL0     H26439   4.066   8.217   5.434  0.1419 -0.4686  1.0483
  958MOL0     H26440   4.058   7.710   5.501  0.9303  1.1886  0.1181
  958MOL0     H26441   4.172   7.497   5.455 -1.0541  1.9717  1.2170
  958MOL0     H26442   5.080   6.825   6.603 -0.7140 -2.2802 -0.7129
  958MOL0     H26443   5.277   6.964   6.692 -3.7278 -1.6941  0.3262
  958MOL0     H26444   5.772   6.915   6.570 -0.2573 -0.5706 -1.3001
  958MOL0     H26445   5.975   7.031   6.627  2.4324  3.2783 -0.8579
  958MOL0     H26446   6.150   7.166   6.658  1.5617  1.1118  2.2743
  958MOL0     H26447   6.197   7.333   6.650 -0.1205  1.7852 -2.0471
  958MOL0     H26448   6.126   7.177   6.397 -1.3886  0.7344  1.5899
  958MOL0     H26449   6.190   7.348   6.404  0.1788  0.6900  2.1668
  958MOL0     H26450   6.340   7.101   6.512  0.6381  1.9054  2.5100
  958MOL0     H26451   6.388   7.263   6.530  1.5015 -1.4393  0.5200
  958MOL0     H26452   6.421   7.270   6.282 -0.5369  0.0867  0.4928
  958MOL0     H26453   6.514   7.140   6.346  1.6135  2.2287  0.7064
  958MOL0     H26454   6.321   6.920   6.085 -0.4670 -0.4574  0.1509
  958MOL0     H26455   5.777   7.420   6.537  0.9353 -1.6048 -5.2196
  958MOL0     H26456   5.581   7.301   6.517  0.2977  0.0392  2.5523
  959MOL0     O26457   1.271   8.572   0.514  1.3576  0.9630  0.2758
  959MOL0     C26458   1.311   8.523   0.412 -0.9019 -0.2927  0.3383
  959MOL0     O26459   1.355   8.403   0.389  0.5530  1.1471 -0.3767
  959MOL0     C26460   1.327   8.306   0.484  1.3071  1.4576  1.2072
  959MOL0     C26461   1.414   8.197   0.469 -0.0276  0.8780 -0.2430
  959MOL0     C26462   1.399   8.074   0.545 -0.3500  0.1074 -0.4079
  959MOL0     C26463   1.290   8.054   0.627 -0.5875 -0.3148  0.2938
  959MOL0     O26464   1.260   7.945   0.699 -0.1971 -0.3013 -0.0909
  959MOL0     C26465   1.298   7.811   0.660 -0.0288  0.7489  0.1898
  959MOL0     C26466   1.220   7.706   0.749  1.0984 -0.8661 -0.3982
  959MOL0     C26467   1.241   7.556   0.701 -0.2911  0.0804  0.5776
  959MOL0     C26468   1.146   7.463   0.767 -0.7175  0.0726  0.5129
  959MOL0     C26469   1.140   7.329   0.698 -0.3347 -0.1831 -0.5312
  959MOL0     C26470   1.251   7.233   0.730 -0.7008 -0.1175  0.3137
  959MOL0     C26471   1.211   7.089   0.691 -1.0785  0.9139 -0.8080
  959MOL0     C26472   1.336   6.994   0.674  0.2743  0.0722  0.4045
  959MOL0     N26473   1.310   6.865   0.606  0.3510 -0.0975 -0.7925
  959MOL0     C26474   1.203   6.842   0.522  0.3185  0.0956 -0.9412
  959MOL0     C26475   1.212   6.717   0.469  0.2761 -0.1919  0.1690
  959MOL0     C26476   1.106   6.629   0.390 -0.7928 -0.3771  0.9127
  959MOL0     C26477   1.102   6.668   0.236 -0.4573 -1.0194  0.9126
  959MOL0     C26478   0.997   6.589   0.167  0.4470  0.3169  0.4046
  959MOL0     C26479   0.974   6.624   0.023  0.2402  0.5023  0.9955
  959MOL0     O26480   1.074   6.571  -0.059 -0.2098  0.6491 -0.3059
  959MOL0     C26481   1.025   6.562  -0.190 -0.5240  0.5949 -0.6329
  959MOL0     C26482   1.047   6.665  -0.275  0.0452 -0.3144  0.1629
  959MOL0     C26483   1.011   6.656  -0.410  0.8383 -0.0899 -0.0589
  959MOL0     C26484   0.936   6.546  -0.464  1.0717 -0.1267 -1.0284
  959MOL0     C26485   0.890   6.539  -0.602 -0.3414 -1.4439  0.0593
  959MOL0     O26486   0.824   6.430  -0.650  0.0300 -0.2464  0.1987
  959MOL0     C26487   0.787   6.422  -0.781 -0.5997  0.2080  0.4826
  959MOL0     C26488   0.796   6.303  -0.853  1.7385 -0.1128 -0.6765
  959MOL0     C26489   0.753   6.293  -0.983  0.1008  0.8760 -0.5981
  959MOL0     C26490   0.707   6.407  -1.052 -0.4524 -0.5216 -0.5714
  959MOL0     O26491   0.679   6.419  -1.187  0.2901  0.6211 -0.1920
  959MOL0     C26492   0.738   6.337  -1.291  0.8859  0.5531 -0.3217
  959MOL0     C26493   0.701   6.399  -1.423  0.4425 -0.2131  0.1574
  959MOL0     C26494   0.772   6.343  -1.546  0.1965  0.2033  0.9046
  959MOL0     C26495   0.710   6.409  -1.672 -1.4838  0.0435  0.2919
  959MOL0     C26496   0.584   6.331  -1.711  0.0564 -0.4370  0.1719
  959MOL0     C26497   0.559   6.336  -1.866  0.8621 -0.0842 -0.4313
  959MOL0     C26498   0.466   6.218  -1.901 -0.5951 -0.4921 -0.1080
  959MOL0     C26499   0.406   6.237  -2.039 -0.0407 -0.3625  0.1296
  959MOL0    Cl26500   0.263   6.343  -2.035  0.4971  0.0022 -0.2670
  959MOL0     C26501   0.700   6.521  -0.972 -0.8479  0.7707  0.7142
  959MOL0     C26502   0.739   6.532  -0.846  0.7192 -0.4523  0.2451
  959MOL0     O26503   0.926   6.634  -0.669  0.2286  0.0747  0.0407
  959MOL0     C26504   0.920   6.440  -0.379  0.7542 -0.0368 -0.4398
  959MOL0     C26505   0.965   6.443  -0.242 -0.4143 -0.0702  0.2022
  959MOL0     N26506   1.337   6.672   0.499  0.2072 -0.2514 -0.2541
  959MOL0     N26507   1.384   6.753   0.592  0.4762 -0.6241  0.1659
  959MOL0     C26508   1.205   8.163   0.643  0.7027  0.2631 -0.7635
  959MOL0     C26509   1.219   8.280   0.573 -0.0704  0.8939 -0.1108
  959MOL0     C26510   1.313   8.611   0.291 -0.7044 -0.4305 -0.7703
  959MOL0     C26511   1.355   8.561   0.167  0.2927  0.4442  0.3040
  959MOL0     C26512   1.349   8.636   0.047  0.7699 -0.0723 -0.0335
  959MOL0     C26513   1.291   8.759   0.047  0.2409 -0.6813  0.3223
  959MOL0     O26514   1.273   8.830  -0.073  0.3328  0.3236  0.2243
  959MOL0     C26515   1.266   8.972  -0.078  0.0282  0.4661  0.4468
  959MOL0     C26516   1.269   9.027  -0.226  0.1204  0.9529 -0.0271
  959MOL0     C26517   1.410   9.062  -0.264  0.9795 -0.3790  0.0837
  959MOL0     C26518   1.414   9.125  -0.394  0.9824  0.5136  0.4776
  959MOL0     C26519   1.551   9.160  -0.439 -0.5939 -0.3691 -0.4802
  959MOL0     C26520   1.659   9.200  -0.474 -0.3066  0.8450 -0.4832
  959MOL0     C26521   1.256   8.818   0.171 -0.6555  0.0246  0.4942
  959MOL0     C26522   1.272   8.748   0.292  0.0380  0.1901 -0.3700
  959MOL0     H26523   1.503   8.210   0.407  0.4540  0.8837  0.4403
  959MOL0     H26524   1.461   7.986   0.535 -1.7284 -1.0657  0.8379
  959MOL0     H26525   1.402   7.788   0.686  1.5880  4.9765 -1.5394
  959MOL0     H26526   1.273   7.788   0.556  4.2332 -1.2568 -0.6351
  959MOL0     H26527   1.114   7.720   0.728  0.4583 -0.5467  2.5589
  959MOL0     H26528   1.236   7.732   0.854 -3.2695  0.7210  0.0868
  959MOL0     H26529   1.348   7.545   0.720 -0.0311  0.0521 -0.7609
  959MOL0     H26530   1.215   7.539   0.596  1.6602 -2.2065  0.3772
  959MOL0     H26531   1.170   7.455   0.874 -4.4954 -0.5897  1.4538
  959MOL0     H26532   1.049   7.514   0.761 -0.9611 -0.3047  1.1273
  959MOL0     H26533   1.134   7.342   0.589  2.7501  0.4906 -0.7328
  959MOL0     H26534   1.049   7.278   0.727 -1.4563  3.1930  2.6166
  959MOL0     H26535   1.285   7.232   0.833  0.5229 -0.0125 -0.0735
  959MOL0     H26536   1.342   7.260   0.675 -1.1536 -0.1995 -0.4911
  959MOL0     H26537   1.151   7.065   0.780  1.6395  3.5936  1.9761
  959MOL0     H26538   1.152   7.087   0.599 -2.0655  0.5173 -0.1850
  959MOL0     H26539   1.392   6.982   0.767  0.7431 -0.2815  0.0788
  959MOL0     H26540   1.403   7.045   0.604 -2.1513  2.1133 -0.5962
  959MOL0     H26541   1.119   6.909   0.516  1.6208  1.8925  0.0433
  959MOL0     H26542   1.012   6.630   0.447 -1.0312 -2.3487  0.6224
  959MOL0     H26543   1.131   6.523   0.394 -0.2341 -0.2420  1.1259
  959MOL0     H26544   1.195   6.670   0.178 -0.1897 -1.2728  1.3288
  959MOL0     H26545   1.060   6.769   0.242 -2.7369 -1.8298 -0.1940
  959MOL0     H26546   1.017   6.484   0.190 -1.0687  0.3318  2.0348
  959MOL0     H26547   0.901   6.612   0.213  0.2637 -0.6596  0.5400
  959MOL0     H26548   0.967   6.733   0.019  2.0824  0.6473  0.5315
  959MOL0     H26549   0.879   6.587  -0.016  1.1551  0.6518 -1.5594
  959MOL0     H26550   1.116   6.743  -0.246  0.3079 -0.5744  0.2449
  959MOL0     H26551   1.035   6.732  -0.484 -0.9855 -1.2806 -1.9958
  959MOL0     H26552   0.832   6.219  -0.794 -0.2769  0.1327  1.0191
  959MOL0     H26553   0.761   6.201  -1.041  0.0626  1.6784 -1.9059
  959MOL0     H26554   0.715   6.231  -1.277  1.1386  0.8104  2.5145
  959MOL0     H26555   0.845   6.354  -1.279  0.5962  1.7826  0.8045
  959MOL0     H26556   0.704   6.508  -1.414 -3.2604  0.1768 -1.5040
  959MOL0     H26557   0.597   6.375  -1.446  1.0740 -1.3496 -1.7054
  959MOL0     H26558   0.744   6.237  -1.553 -1.3699  0.5479  1.4894
  959MOL0     H26559   0.879   6.362  -1.551  0.1625  0.2384  0.2389
  959MOL0     H26560   0.691   6.514  -1.648  2.3958  0.3964  2.6411
  959MOL0     H26561   0.791   6.393  -1.743  0.4720  0.7324  2.2757
  959MOL0     H26562   0.496   6.370  -1.660  0.8497 -0.9588  2.0083
  959MOL0     H26563   0.581   6.226  -1.679 -1.0996 -0.2249  0.8176
  959MOL0     H26564   0.653   6.345  -1.921  0.3907  2.8954 -0.8884
  959MOL0     H26565   0.513   6.434  -1.881 -0.6684 -0.0451  3.2622
  959MOL0     H26566   0.516   6.122  -1.908  1.5793  0.6843 -1.9007
  959MOL0     H26567   0.386   6.223  -1.826  0.6258 -1.5869  1.3152
  959MOL0     H26568   0.386   6.140  -2.085  0.9662 -1.1855  1.3860
  959MOL0     H26569   0.477   6.292  -2.102  0.2931  0.0552  0.8561
  959MOL0     H26570   0.653   6.605  -1.023  5.7716  4.5045 -0.4055
  959MOL0     H26571   0.733   6.630  -0.801 -1.1436  0.3035 -1.5128
  959MOL0     H26572   0.869   6.344  -0.385  0.2891 -0.2710  3.9173
  959MOL0     H26573   0.952   6.355  -0.180 -1.5947 -0.8649 -1.0838
  959MOL0     H26574   1.129   8.162   0.720  1.6204  1.6801  0.2094
  959MOL0     H26575   1.141   8.350   0.602  0.5598  2.1981 -1.4784
  959MOL0     H26576   1.410   8.467   0.176 -1.1737 -0.2872  2.5176
  959MOL0     H26577   1.375   8.593  -0.049 -0.3133  1.5515 -1.0902
  959MOL0     H26578   1.354   9.019  -0.033  0.9201  0.7326 -1.4832
  959MOL0     H26579   1.172   9.000  -0.030  0.3367 -0.5305  1.6917
  959MOL0     H26580   1.217   8.955  -0.290  0.1594  0.1124  0.8476
  959MOL0     H26581   1.213   9.121  -0.232  2.2018  2.3199  0.8939
  959MOL0     H26582   1.467   8.969  -0.261 -0.6764 -1.3914  1.4666
  959MOL0     H26583   1.446   9.128  -0.185 -0.1008 -0.9730  1.0913
  959MOL0     H26584   1.368   9.066  -0.473 -0.3514  1.0296  0.8495
  959MOL0     H26585   1.353   9.216  -0.390 -2.8437 -1.8532  5.0013
  959MOL0     H26586   1.754   9.229  -0.514  0.1814  1.4584  1.0392
  959MOL0     H26587   1.198   8.910   0.170  0.6658  0.8701 -0.8510
  959MOL0     H26588   1.239   8.781   0.390 -0.7292 -0.4332 -0.4154
  960MOL0     O26589   6.872   2.793   0.396  0.0908 -1.0052 -0.2759
  960MOL0     C26590   6.977   2.748   0.445 -0.5347 -0.0187 -0.3865
  960MOL0     O26591   7.057   2.808   0.539  0.3863  0.1151  0.2108
  960MOL0     C26592   7.060   2.945   0.570 -0.0042  0.2539 -0.5578
  960MOL0     C26593   7.147   2.981   0.685  0.2198 -1.5910  1.0958
  960MOL0     C26594   7.151   3.113   0.728 -0.1464  0.4015  0.5662
  960MOL0     C26595   7.064   3.207   0.692 -0.0955 -0.9360 -0.6246
  960MOL0     O26596   7.080   3.338   0.734 -0.4395 -0.0618  0.0939
  960MOL0     C26597   7.068   3.446   0.639  0.1587  0.1645  0.3520
  960MOL0     C26598   7.080   3.592   0.692  0.4639 -0.5143  0.7296
  960MOL0     C26599   7.061   3.699   0.574 -0.2969  0.3907  0.2060
  960MOL0     C26600   7.186   3.700   0.469 -0.3285  0.9484 -0.1163
  960MOL0     C26601   7.174   3.814   0.376  0.2872  0.2085  0.0644
  960MOL0     C26602   7.068   3.793   0.270 -0.8773  0.8628 -0.0645
  960MOL0     C26603   7.053   3.895   0.158 -0.0432  0.2243 -0.1988
  960MOL0     C26604   6.918   3.889   0.093  0.3252 -0.5313  0.6931
  960MOL0     N26605   6.909   3.973  -0.028  0.1048  0.2300 -0.3524
  960MOL0     C26606   6.800   4.054  -0.067  0.3266 -0.0453  0.5869
  960MOL0     C26607   6.833   4.104  -0.187 -0.6076 -0.3047  0.3127
  960MOL0     C26608   6.749   4.200  -0.259  0.4935  0.3495  0.9958
  960MOL0     C26609   6.758   4.151  -0.406  0.2110  0.5053  0.0909
  960MOL0     C26610   6.686   4.250  -0.495 -1.0697 -0.1325 -1.2302
  960MOL0     C26611   6.667   4.192  -0.631  0.3573  1.8663 -0.7492
  960MOL0     O26612   6.599   4.285  -0.710  0.4221 -0.9057 -0.4009
  960MOL0     C26613   6.613   4.273  -0.843 -0.1623 -0.7723 -0.2394
  960MOL0     C26614   6.640   4.397  -0.906 -0.0707  0.5241 -0.3105
  960MOL0     C26615   6.663   4.398  -1.043  0.2209  0.0212 -0.1668
  960MOL0     C26616   6.644   4.283  -1.116 -0.4831  0.0665 -0.1069
  960MOL0     C26617   6.643   4.281  -1.260  0.4757  0.1472  0.1663
  960MOL0     O26618   6.660   4.408  -1.327 -0.6883  0.0278  0.4074
  960MOL0     C26619   6.675   4.416  -1.466  0.2836 -0.2264  0.3610
  960MOL0     C26620   6.625   4.525  -1.534 -0.0112 -0.2541 -0.1570
  960MOL0     C26621   6.648   4.548  -1.669 -0.3038  0.6097 -0.6852
  960MOL0     C26622   6.696   4.446  -1.757 -0.1969 -0.2265 -0.1956
  960MOL0     O26623   6.717   4.447  -1.892 -0.1343 -0.3057  0.4917
  960MOL0     C26624   6.741   4.578  -1.952 -0.2329  0.2080 -0.5158
  960MOL0     C26625   6.764   4.559  -2.101 -0.2148  0.0962  0.5065
  960MOL0     C26626   6.658   4.467  -2.164  0.5803 -0.0499 -0.5406
  960MOL0     C26627   6.646   4.483  -2.318 -0.4783  0.2366 -0.5450
  960MOL0     C26628   6.548   4.374  -2.367 -0.1665 -0.4479 -0.6862
  960MOL0     C26629   6.546   4.359  -2.515 -0.3377  0.2455 -0.4787
  960MOL0     C26630   6.450   4.453  -2.598 -1.3461  1.7942  0.1029
  960MOL0     C26631   6.459   4.412  -2.746 -0.9068  0.5922 -0.1408
  960MOL0    Cl26632   6.622   4.420  -2.817  0.1317 -0.3642 -0.0765
  960MOL0     C26633   6.745   4.330  -1.686 -0.8094  0.1763 -0.7953
  960MOL0     C26634   6.749   4.325  -1.543  0.3830 -0.2006 -0.2966
  960MOL0     O26635   6.625   4.169  -1.311  0.9400 -0.2942 -0.4536
  960MOL0     C26636   6.607   4.160  -1.051 -0.0554  0.0082  0.1398
  960MOL0     C26637   6.594   4.158  -0.910  0.7097  0.1677  0.9666
  960MOL0     N26638   6.963   4.076  -0.219 -0.7729 -0.5545 -1.5334
  960MOL0     N26639   7.004   3.999  -0.124  1.3110  0.2326  1.4392
  960MOL0     C26640   6.972   3.171   0.593  0.8717 -0.5329 -0.3721
  960MOL0     C26641   6.961   3.042   0.533 -1.0040 -0.0641 -1.1088
  960MOL0     C26642   7.006   2.610   0.389 -0.4027 -0.1475 -0.2954
  960MOL0     C26643   7.143   2.577   0.366  0.0321  1.2167 -0.5698
  960MOL0     C26644   7.170   2.450   0.318 -0.5397 -0.2630  0.5299
  960MOL0     C26645   7.077   2.367   0.272  0.4958  0.7853  0.5980
  960MOL0     O26646   7.136   2.250   0.224  0.2226  0.3397  0.5881
  960MOL0     C26647   7.047   2.162   0.148 -0.6168 -0.4299  0.3992
  960MOL0     C26648   7.127   2.044   0.103  0.1034  0.1565  0.2944
  960MOL0     C26649   7.033   1.949   0.035 -1.0665  0.4947  0.4242
  960MOL0     C26650   7.096   1.815   0.001 -0.1634 -0.5666 -0.1351
  960MOL0     C26651   7.224   1.832  -0.089  0.7623 -0.6633  0.0306
  960MOL0     C26652   7.308   1.840  -0.174 -0.4523  0.1084 -0.3823
  960MOL0     C26653   6.939   2.400   0.288 -0.4759  0.7787 -0.0924
  960MOL0     C26654   6.902   2.522   0.347 -0.5725  0.2689 -0.1152
  960MOL0     H26655   7.220   2.911   0.724  1.0928 -2.1756 -1.4164
  960MOL0     H26656   7.224   3.148   0.800 -0.0255  1.5424 -0.0843
  960MOL0     H26657   6.976   3.439   0.580  1.1802 -4.0648 -1.0921
  960MOL0     H26658   7.155   3.435   0.574 -1.8491 -1.3915 -2.2757
  960MOL0     H26659   7.175   3.607   0.744 -0.5975  0.3030  2.5092
  960MOL0     H26660   6.995   3.610   0.759 -1.1083  3.0446 -1.9451
  960MOL0     H26661   7.048   3.802   0.608  0.7788  0.3811  0.6742
  960MOL0     H26662   6.964   3.671   0.530  0.0815  0.4754 -0.7002
  960MOL0     H26663   7.277   3.720   0.526 -1.6248  1.9588  1.7019
  960MOL0     H26664   7.201   3.600   0.427  1.6022  1.1280  0.0417
  960MOL0     H26665   7.273   3.814   0.328  0.0447 -0.9196 -0.4867
  960MOL0     H26666   7.156   3.912   0.420 -1.6705  0.6539 -1.5456
  960MOL0     H26667   6.972   3.787   0.322  0.0228  1.1499  1.6987
  960MOL0     H26668   7.081   3.695   0.223 -0.2807  0.6033  0.6317
  960MOL0     H26669   7.071   3.995   0.200 -0.8466  0.4259 -0.3111
  960MOL0     H26670   7.131   3.873   0.085 -0.4304 -1.6705 -0.0941
  960MOL0     H26671   6.839   3.911   0.165 -2.2830 -3.4069 -1.0436
  960MOL0     H26672   6.920   3.783   0.066  2.1428 -1.0692  2.6890
  960MOL0     H26673   6.706   4.063  -0.012 -0.1163  0.2169 -0.1919
  960MOL0     H26674   6.780   4.304  -0.253 -1.1123  0.9353 -0.4498
  960MOL0     H26675   6.645   4.191  -0.228  0.6760  0.0447  1.5580
  960MOL0     H26676   6.708   4.054  -0.414 -2.6346  1.9186 -0.9567
  960MOL0     H26677   6.857   4.127  -0.443  0.1979 -0.0921  0.4362
  960MOL0     H26678   6.593   4.277  -0.445  0.0637  0.4189  0.7364
  960MOL0     H26679   6.753   4.337  -0.498  0.9499 -1.6029 -1.2437
  960MOL0     H26680   6.611   4.098  -0.629  1.2373  1.3320  1.2986
  960MOL0     H26681   6.769   4.168  -0.663  0.8384 -2.3649  3.0415
  960MOL0     H26682   6.649   4.489  -0.848  1.2884 -0.1069  0.5263
  960MOL0     H26683   6.688   4.489  -1.096  2.6418 -0.9359 -0.8193
  960MOL0     H26684   6.600   4.616  -1.479  1.0112  0.7574 -1.3093
  960MOL0     H26685   6.620   4.646  -1.707  2.4626  0.6662 -2.8805
  960MOL0     H26686   6.824   4.631  -1.905 -0.8299 -2.4748  4.2158
  960MOL0     H26687   6.652   4.637  -1.928  0.9559  1.5853  0.6591
  960MOL0     H26688   6.869   4.547  -2.129  0.6485  4.9107  0.9352
  960MOL0     H26689   6.752   4.660  -2.141  0.3257  0.5156  1.3951
  960MOL0     H26690   6.555   4.474  -2.128  0.4602 -0.3286 -0.8197
  960MOL0     H26691   6.697   4.367  -2.142  1.7515  0.0279 -2.0824
  960MOL0     H26692   6.606   4.581  -2.345 -0.6179  0.2005 -0.4696
  960MOL0     H26693   6.746   4.467  -2.359 -0.1795 -2.5680  1.0253
  960MOL0     H26694   6.453   4.360  -2.315  0.0669 -3.1098 -0.8130
  960MOL0     H26695   6.587   4.279  -2.328 -0.4078 -0.1379  0.3337
  960MOL0     H26696   6.512   4.256  -2.526  1.1528 -0.3690  0.2973
  960MOL0     H26697   6.648   4.370  -2.553 -1.5580  3.6168 -3.3265
  960MOL0     H26698   6.350   4.442  -2.554  0.0840  0.9945  3.4837
  960MOL0     H26699   6.484   4.554  -2.572 -1.5478  1.1011  3.5417
  960MOL0     H26700   6.391   4.478  -2.801 -1.8530  1.7073  2.2091
  960MOL0     H26701   6.421   4.310  -2.753 -1.2416  0.4308  2.7489
  960MOL0     H26702   6.797   4.256  -1.746  0.2437 -1.1910  1.6573
  960MOL0     H26703   6.802   4.239  -1.504 -2.0498 -3.0385 -2.6813
  960MOL0     H26704   6.603   4.062  -1.097  0.6676 -0.5311  1.1741
  960MOL0     H26705   6.586   4.062  -0.859 -0.9086 -1.1443 -1.5140
  960MOL0     H26706   6.907   3.247   0.552  0.7608  0.6548  1.8069
  960MOL0     H26707   6.890   3.025   0.452 -0.7442  0.4135 -1.4428
  960MOL0     H26708   7.217   2.649   0.397 -1.3846  2.6874 -0.4330
  960MOL0     H26709   7.265   2.428   0.271 -2.0868  1.5355 -3.9901
  960MOL0     H26710   7.004   2.205   0.057 -0.9203 -0.3274  0.5888
  960MOL0     H26711   6.960   2.139   0.211 -2.2255 -1.1231 -1.9272
  960MOL0     H26712   7.205   2.072   0.032  0.9524 -2.9700 -0.1429
  960MOL0     H26713   7.174   2.007   0.194  0.0019 -0.7263 -0.0057
  960MOL0     H26714   6.987   1.992  -0.055 -1.1762 -1.2148 -0.3759
  960MOL0     H26715   6.957   1.933   0.112  1.5125  1.3914  3.3219
  960MOL0     H26716   7.116   1.782   0.103 -0.3181 -2.9506 -0.8160
  960MOL0     H26717   7.028   1.746  -0.051 -4.4614  3.3861 -0.4515
  960MOL0     H26718   7.383   1.849  -0.250 -2.2979  0.2429 -2.2790
  960MOL0     H26719   6.855   2.336   0.260 -1.8924  0.8128  3.5186
  960MOL0     H26720   6.794   2.534   0.349 -0.6246 -0.0320 -0.8126
  961MOL0     O26721  10.674  10.717   2.706  0.5841 -0.4256  0.7901
  961MOL0     C26722  10.623  10.666   2.810 -0.2567 -0.5820  0.2005
  961MOL0     O26723  10.533  10.731   2.890  0.7253 -0.4316 -0.1408
  961MOL0     C26724  10.497  10.866   2.889 -0.2729  1.0199  0.0826
  961MOL0     C26725  10.584  10.961   2.839 -0.1738 -0.8352 -0.4497
  961MOL0     C26726  10.543  11.089   2.832 -1.0778 -0.3187 -0.2308
  961MOL0     C26727  10.415  11.129   2.879  0.2378 -0.3241 -0.7550
  961MOL0     O26728  10.374  11.262   2.892  0.2232  0.7111 -0.1363
  961MOL0     C26729  10.425  11.357   2.802 -0.0086 -0.6145  0.0435
  961MOL0     C26730  10.317  11.437   2.737 -0.4182  0.1188 -0.3615
  961MOL0     C26731  10.366  11.522   2.622 -0.0114 -0.4413 -0.2973
  961MOL0     C26732  10.246  11.583   2.561 -0.3545  0.4610  0.4371
  961MOL0     C26733  10.271  11.627   2.416  0.3252 -0.1166  0.6637
  961MOL0     C26734  10.307  11.523   2.317  0.0023  0.0137 -1.1426
  961MOL0     C26735  10.377  11.576   2.189  0.4697  0.7179  0.1904
  961MOL0     C26736  10.520  11.625   2.210  0.4502  0.6435 -0.9654
  961MOL0     N26737  10.596  11.663   2.095  0.1598  0.5866  0.3130
  961MOL0     C26738  10.607  11.597   1.978 -0.8189  0.7681 -0.6484
  961MOL0     C26739  10.692  11.669   1.903 -0.1183  0.0199  0.5505
  961MOL0     C26740  10.721  11.646   1.755 -0.6634  0.7779  0.7274
  961MOL0     C26741  10.592  11.584   1.682 -0.6514  0.0163 -0.6502
  961MOL0     C26742  10.625  11.560   1.531  1.0948  0.7566  0.6868
  961MOL0     C26743  10.666  11.691   1.447 -0.4817  0.2242  0.0715
  961MOL0     O26744  10.558  11.780   1.466 -0.5981  0.5457 -0.0108
  961MOL0     C26745  10.601  11.904   1.504  0.1272  0.6644  1.1782
  961MOL0     C26746  10.523  11.961   1.610 -0.5513  1.3482  0.7141
  961MOL0     C26747  10.550  12.088   1.655 -0.3345 -0.1781  0.1848
  961MOL0     C26748  10.659  12.158   1.598  0.3204 -0.0985  0.5819
  961MOL0     C26749  10.696  12.290   1.632 -0.6877  0.5910 -0.2172
  961MOL0     O26750  10.827  12.314   1.655  0.3760  0.5985  0.2591
  961MOL0     C26751  10.882  12.426   1.701 -0.6478  0.4599  0.4821
  961MOL0     C26752  10.826  12.549   1.677  0.0379 -0.4129  0.5575
  961MOL0     C26753  10.881  12.672   1.711 -0.6945 -0.3393 -0.0124
  961MOL0     C26754  10.996  12.673   1.797 -0.8766  0.0417  0.1262
  961MOL0     O26755  11.048  12.789   1.842  0.4588 -0.1618 -0.0463
  961MOL0     C26756  11.014  12.806   1.985 -0.2197 -0.4075  0.4282
  961MOL0     C26757  11.057  12.939   2.038  0.3344 -0.7138 -1.0869
  961MOL0     C26758  11.037  12.967   2.186  0.8445 -1.0476 -0.8055
  961MOL0     C26759  10.895  13.017   2.227 -0.5261  0.3978 -0.1532
  961MOL0     C26760  10.887  13.069   2.364 -0.4859 -0.0465  0.1729
  961MOL0     C26761  10.738  13.093   2.396  0.5299 -0.5856  0.5094
  961MOL0     C26762  10.708  13.196   2.501 -1.0515  0.1146  0.0242
  961MOL0     C26763  10.740  13.150   2.641  0.7843 -0.7843 -0.2958
  961MOL0    Cl26764  10.746  12.969   2.660 -0.3784 -0.0165  0.0273
  961MOL0     C26765  11.061  12.556   1.837  0.6530 -0.0098 -0.0033
  961MOL0     C26766  11.006  12.434   1.783  0.4422  0.8100  0.3464
  961MOL0     O26767  10.604  12.366   1.675  0.3510 -0.1509 -0.0849
  961MOL0     C26768  10.732  12.105   1.491 -0.5815  0.0913 -0.0566
  961MOL0     C26769  10.703  11.977   1.447 -0.1824 -0.6966  0.1830
  961MOL0     N26770  10.740  11.777   1.976 -0.4731 -0.5064  0.4504
  961MOL0     N26771  10.672  11.772   2.093 -0.0536 -0.3515 -0.0656
  961MOL0     C26772  10.325  11.037   2.934 -0.9761  0.8208  1.0271
  961MOL0     C26773  10.376  10.902   2.949 -0.4315 -0.5561 -0.5633
  961MOL0     C26774  10.681  10.540   2.858  0.4064  0.2565 -0.8095
  961MOL0     C26775  10.793  10.471   2.795  1.0748 -0.7354  0.2485
  961MOL0     C26776  10.847  10.350   2.853 -0.3879  0.0126  0.4342
  961MOL0     C26777  10.791  10.303   2.972  0.3313 -0.8407 -0.5828
  961MOL0     O26778  10.850  10.187   3.024  0.8267  0.3681 -0.9388
  961MOL0     C26779  10.765  10.084   3.087 -0.5219  0.6509 -0.5601
  961MOL0     C26780  10.646  10.021   3.015 -0.3498  0.1330  0.3167
  961MOL0     C26781  10.678   9.957   2.889 -0.5031  0.6774  0.4006
  961MOL0     C26782  10.760   9.829   2.904  0.4719 -0.2035  0.9102
  961MOL0     C26783  10.691   9.733   2.981  0.4523  0.6144  0.2837
  961MOL0     C26784  10.610   9.660   3.032  0.4153  0.5269 -0.7709
  961MOL0     C26785  10.680  10.362   3.029  0.7191 -0.2327 -0.7168
  961MOL0     C26786  10.626  10.489   2.977 -0.3961  0.0820  0.3141
  961MOL0     H26787  10.677  10.936   2.788 -1.3270 -1.6385 -2.2756
  961MOL0     H26788  10.616  11.162   2.799 -1.9929  0.7543  0.0142
  961MOL0     H26789  10.478  11.307   2.721 -0.7298 -0.5610 -0.4761
  961MOL0     H26790  10.488  11.426   2.858 -0.9033 -1.3907  2.1210
  961MOL0     H26791  10.273  11.504   2.811 -0.6875  1.5863 -1.7902
  961MOL0     H26792  10.241  11.365   2.703  0.9958 -2.3449  1.3619
  961MOL0     H26793  10.419  11.455   2.554  0.5721  1.8360 -2.2297
  961MOL0     H26794  10.433  11.603   2.653 -2.5189  1.9359 -0.6060
  961MOL0     H26795  10.165  11.511   2.574  3.1207 -3.7389  1.2343
  961MOL0     H26796  10.204  11.671   2.611 -2.7960 -0.3245 -0.0833
  961MOL0     H26797  10.349  11.703   2.422 -0.6698  1.1807 -1.4452
  961MOL0     H26798  10.178  11.673   2.379 -0.2679 -0.1195  2.0836
  961MOL0     H26799  10.217  11.461   2.305 -1.3916  1.1675  1.9867
  961MOL0     H26800  10.378  11.446   2.346  2.1318  1.2948 -2.7005
  961MOL0     H26801  10.365  11.495   2.117 -0.4730 -0.9481  2.1161
  961MOL0     H26802  10.318  11.662   2.155  1.7167  1.0332 -1.2509
  961MOL0     H26803  10.569  11.546   2.267  2.7959  2.3306 -0.5053
  961MOL0     H26804  10.512  11.706   2.284  0.9207 -1.6923  1.8538
  961MOL0     H26805  10.549  11.511   1.947  1.0200 -0.5672 -0.5292
  961MOL0     H26806  10.813  11.587   1.757 -1.9789 -1.5548 -1.7787
  961MOL0     H26807  10.746  11.745   1.715  3.9719 -0.1828  0.6743
  961MOL0     H26808  10.511  11.656   1.696  1.2336  1.7450  2.4382
  961MOL0     H26809  10.565  11.487   1.725  0.2099 -1.2889 -2.8977
  961MOL0     H26810  10.696  11.478   1.524  1.7330  1.1267  2.4694
  961MOL0     H26811  10.535  11.523   1.480  2.3716 -1.8082  0.1590
  961MOL0     H26812  10.688  11.682   1.340 -0.0352 -0.6414  0.2251
  961MOL0     H26813  10.765  11.729   1.473  2.8560 -4.1851 -4.2963
  961MOL0     H26814  10.448  11.897   1.655  0.1087 -1.4414 -1.7600
  961MOL0     H26815  10.488  12.128   1.735  0.3691  1.3154  0.0264
  961MOL0     H26816  10.735  12.565   1.619  1.0092  1.5868 -0.5186
  961MOL0     H26817  10.831  12.767   1.697  0.3760 -0.0697 -2.6212
  961MOL0     H26818  11.061  12.727   2.044  1.7150 -1.4669 -2.3282
  961MOL0     H26819  10.905  12.802   1.990 -0.3367  2.2293  3.1365
  961MOL0     H26820  11.003  13.022   1.991 -0.7425 -0.2123  0.9132
  961MOL0     H26821  11.158  12.966   2.003 -0.8094  2.0802 -2.5802
  961MOL0     H26822  11.096  13.054   2.216 -1.7460  0.2470  0.9190
  961MOL0     H26823  11.066  12.883   2.248  0.2821 -2.3691 -2.2520
  961MOL0     H26824  10.839  13.089   2.166  0.0277  1.8446  0.9710
  961MOL0     H26825  10.842  12.923   2.212  0.2582 -0.1022  0.1278
  961MOL0     H26826  10.949  13.158   2.369 -2.5192  1.4832 -0.5240
  961MOL0     H26827  10.930  12.998   2.435  2.6746  0.7490 -0.7772
  961MOL0     H26828  10.678  13.005   2.421 -1.5425  0.8441  0.8142
  961MOL0     H26829  10.695  13.145   2.309  1.0177  1.9048  1.6818
  961MOL0     H26830  10.764  13.286   2.476 -0.6382  0.6302  2.4822
  961MOL0     H26831  10.602  13.223   2.499 -0.7814  1.1302 -1.5076
  961MOL0     H26832  10.670  13.191   2.714  2.5568 -0.1182  1.1136
  961MOL0     H26833  10.834  13.194   2.674  1.4023 -0.1551 -2.6917
  961MOL0     H26834  11.155  12.553   1.892  1.9674  4.2804 -1.5981
  961MOL0     H26835  11.053  12.342   1.816  3.0305  2.0950  0.5471
  961MOL0     H26836  10.812  12.144   1.430 -2.1572 -0.1825 -2.4680
  961MOL0     H26837  10.767  11.931   1.372 -0.6327 -1.7456  0.4294
  961MOL0     H26838  10.222  11.063   2.960 -0.8268  1.7878  0.6916
  961MOL0     H26839  10.319  10.835   3.012  1.3849 -0.2072  1.5885
  961MOL0     H26840  10.830  10.511   2.700 -1.6774  1.3502 -0.0763
  961MOL0     H26841  10.919  10.304   2.786 -1.4191  0.2800 -0.9086
  961MOL0     H26842  10.730  10.127   3.181  0.0808  0.7082 -0.3566
  961MOL0     H26843  10.838  10.015   3.131 -1.7607  0.2826  0.9933
  961MOL0     H26844  10.601   9.946   3.081  0.7691 -1.3273 -0.5222
  961MOL0     H26845  10.579  10.106   2.999  2.6221  2.1232 -3.0829
  961MOL0     H26846  10.724  10.021   2.813 -2.2092 -1.0257 -2.2305
  961MOL0     H26847  10.580   9.931   2.849 -0.1500  0.9672 -0.6840
  961MOL0     H26848  10.760   9.792   2.801 -0.1614 -1.4644  1.3458
  961MOL0     H26849  10.859   9.839   2.948  0.7273 -0.4272  0.3975
  961MOL0     H26850  10.537   9.602   3.084  2.4208 -1.9536 -0.4789
  961MOL0     H26851  10.627  10.305   3.105 -0.3507 -0.7366 -1.8079
  961MOL0     H26852  10.555  10.543   3.038  0.0471  2.8724 -1.4864
  962MOL0     O26853   8.963  10.775   9.414  0.3976 -0.0615 -0.2126
  962MOL0     C26854   9.050  10.851   9.426  0.0615  0.3409 -0.4662
  962MOL0     O26855   9.157  10.869   9.341 -0.5917  0.9487 -0.4027
  962MOL0     C26856   9.187  10.756   9.259  0.5511 -0.1867 -0.2133
  962MOL0     C26857   9.205  10.776   9.119  0.2324  0.1417  1.0548
  962MOL0     C26858   9.255  10.679   9.028  0.3117  1.1059 -0.0186
  962MOL0     C26859   9.280  10.554   9.085 -1.1413 -1.3670  0.3687
  962MOL0     O26860   9.343  10.466   9.004  0.8935 -0.0020  0.8995
  962MOL0     C26861   9.276  10.334   9.000 -0.1094 -0.4360  0.1016
  962MOL0     C26862   9.348  10.275   8.878  0.6154 -0.0055  0.4366
  962MOL0     C26863   9.509  10.271   8.878 -0.4570  0.0856  0.3430
  962MOL0     C26864   9.567  10.190   8.997  1.1688 -0.1087  0.2385
  962MOL0     C26865   9.534  10.033   8.987 -0.5285 -0.2358  0.4595
  962MOL0     C26866   9.648   9.968   8.907 -0.8618 -0.4921  0.0185
  962MOL0     C26867   9.644   9.818   8.916 -0.2404 -0.0356 -0.2596
  962MOL0     C26868   9.774   9.746   8.902 -0.4358  0.0176  0.1286
  962MOL0     N26869   9.754   9.600   8.885  0.8440  0.4593  0.5157
  962MOL0     C26870   9.635   9.534   8.833  0.4071 -0.0664 -0.3520
  962MOL0     C26871   9.664   9.397   8.843 -1.4981  0.5772 -0.8170
  962MOL0     C26872   9.590   9.287   8.767  0.4212  0.1134  0.9490
  962MOL0     C26873   9.611   9.140   8.821  0.4589  0.0074 -0.6681
  962MOL0     C26874   9.515   9.045   8.751 -0.1791 -0.2685 -0.9308
  962MOL0     C26875   9.538   8.908   8.796 -0.2960  0.6245  0.2626
  962MOL0     O26876   9.431   8.840   8.722  0.0067 -0.4458  0.5809
  962MOL0     C26877   9.418   8.703   8.717  0.3476  0.8785 -0.2041
  962MOL0     C26878   9.336   8.642   8.624 -0.4042  0.8054  0.7795
  962MOL0     C26879   9.310   8.501   8.619  0.0983 -0.1166  0.0368
  962MOL0     C26880   9.367   8.412   8.719 -0.7299 -0.2329  0.2612
  962MOL0     C26881   9.317   8.273   8.735 -0.6504  0.6969  0.2546
  962MOL0     O26882   9.386   8.197   8.829  0.4384 -0.1522 -0.2222
  962MOL0     C26883   9.329   8.073   8.859  0.2659 -0.5907  0.3954
  962MOL0     C26884   9.425   7.976   8.858 -0.1528  0.1906 -0.4526
  962MOL0     C26885   9.388   7.849   8.909 -0.6127 -0.0933  0.2862
  962MOL0     C26886   9.257   7.816   8.938 -1.4655  0.5837  0.5709
  962MOL0     O26887   9.224   7.689   8.989 -0.3243  0.1232  0.1867
  962MOL0     C26888   9.099   7.663   9.046 -0.1435 -0.5537 -0.0315
  962MOL0     C26889   9.093   7.507   9.058  0.2954 -1.1103 -0.0845
  962MOL0     C26890   9.193   7.468   9.168  0.1048 -0.3160 -0.0930
  962MOL0     C26891   9.176   7.322   9.194 -0.3116  0.3027  0.3632
  962MOL0     C26892   9.258   7.285   9.313 -0.0595  0.8903 -0.1111
  962MOL0     C26893   9.296   7.137   9.327  0.1861  0.0131 -0.0886
  962MOL0     C26894   9.394   7.112   9.447  0.4473  0.4268  0.3747
  962MOL0     C26895   9.388   6.968   9.499  0.0787 -0.2538 -0.4731
  962MOL0    Cl26896   9.223   6.928   9.560  0.8828 -0.1374 -0.0255
  962MOL0     C26897   9.167   7.911   8.916 -0.4721  0.7434 -0.0660
  962MOL0     C26898   9.198   8.040   8.884 -1.0890  0.6122  0.0198
  962MOL0     O26899   9.228   8.238   8.663 -0.2707  0.1050 -0.5738
  962MOL0     C26900   9.442   8.475   8.816  0.0478 -0.4031 -0.0940
  962MOL0     C26901   9.465   8.613   8.820  0.2744 -0.6773  0.6113
  962MOL0     N26902   9.785   9.396   8.920 -0.0271  0.0937  0.5227
  962MOL0     N26903   9.842   9.511   8.949  0.1786  0.2211 -0.0748
  962MOL0     C26904   9.259  10.530   9.223  0.2450  0.5625 -0.9316
  962MOL0     C26905   9.208  10.627   9.308  0.0611  0.1207  0.9763
  962MOL0     C26906   9.045  10.944   9.538  0.1433 -0.6732 -0.4790
  962MOL0     C26907   9.170  11.005   9.597  0.0157  0.3841  0.6577
  962MOL0     C26908   9.161  11.122   9.676  0.1887  0.7621 -0.0673
  962MOL0     C26909   9.038  11.172   9.715  0.1000 -0.5079 -0.3310
  962MOL0     O26910   9.026  11.295   9.782 -0.9533 -0.7289  0.1731
  962MOL0     C26911   8.908  11.343   9.830 -0.0255 -0.1126 -0.1183
  962MOL0     C26912   8.875  11.273   9.956  0.8123 -0.4468 -0.4474
  962MOL0     C26913   8.995  11.278  10.059 -0.2722 -0.3895  0.5872
  962MOL0     C26914   8.955  11.211  10.189 -0.4348  0.9430  1.3315
  962MOL0     C26915   8.971  11.060  10.176 -0.5035  0.1316  0.4566
  962MOL0     C26916   8.976  10.940  10.144 -0.2181  0.3696  0.6448
  962MOL0     C26917   8.925  11.108   9.675 -0.4920  1.0799 -0.0643
  962MOL0     C26918   8.926  10.997   9.585 -0.3792 -0.2843  0.3010
  962MOL0     H26919   9.174  10.877   9.092 -2.0903  0.0954  3.1566
  962MOL0     H26920   9.282  10.697   8.925  2.4248 -3.5910 -0.5313
  962MOL0     H26921   9.168  10.343   8.991 -0.1089  3.7680  2.1008
  962MOL0     H26922   9.289  10.265   9.084  1.7711 -1.2336 -0.7731
  962MOL0     H26923   9.324  10.333   8.789 -1.2796 -0.9948  0.2318
  962MOL0     H26924   9.316  10.172   8.858  2.1338 -0.7825  1.7797
  962MOL0     H26925   9.545  10.374   8.879 -2.2086  0.8574 -2.5326
  962MOL0     H26926   9.533  10.223   8.783  1.1720 -2.3841  1.9023
  962MOL0     H26927   9.674  10.212   9.003  1.2750 -0.7172  0.7247
  962MOL0     H26928   9.514  10.215   9.089  0.5207  1.6025 -0.5578
  962MOL0     H26929   9.442  10.016   8.930 -2.0655  1.5939  2.2278
  962MOL0     H26930   9.511   9.989   9.085 -3.4325  0.3002  0.1054
  962MOL0     H26931   9.745  10.004   8.944 -1.1442  1.2291 -0.7928
  962MOL0     H26932   9.639   9.992   8.801 -0.4890  1.7416  0.4230
  962MOL0     H26933   9.590   9.780   9.003  0.1051  0.2073  0.0600
  962MOL0     H26934   9.583   9.780   8.833  1.7598 -3.9728 -0.1186
  962MOL0     H26935   9.837   9.772   8.988 -1.6025  2.2304  0.3826
  962MOL0     H26936   9.826   9.796   8.820  2.8391 -0.1137  1.9533
  962MOL0     H26937   9.560   9.578   8.768  0.0004  1.3184  0.9685
  962MOL0     H26938   9.623   9.291   8.663 -0.1375  2.9856  0.7997
  962MOL0     H26939   9.482   9.305   8.770  0.4688  0.7077 -0.2820
  962MOL0     H26940   9.590   9.137   8.928 -2.4108 -2.8458 -1.1656
  962MOL0     H26941   9.715   9.113   8.801  1.4261  2.5661  0.4671
  962MOL0     H26942   9.415   9.087   8.767 -0.7539 -1.1015 -2.1934
  962MOL0     H26943   9.542   9.041   8.645 -2.0961 -2.2520 -1.4107
  962MOL0     H26944   9.515   8.899   8.902 -1.4897 -0.6257 -0.0701
  962MOL0     H26945   9.641   8.877   8.775 -0.1575  0.2900  1.3881
  962MOL0     H26946   9.280   8.706   8.556 -1.6846  2.1842  3.0053
  962MOL0     H26947   9.253   8.450   8.541 -2.1080 -1.9236  2.6356
  962MOL0     H26948   9.532   7.993   8.847  0.0977 -1.6649 -1.2458
  962MOL0     H26949   9.468   7.780   8.932 -1.3722 -0.2578  2.6170
  962MOL0     H26950   9.017   7.685   8.977 -0.3738 -1.2190  0.0177
  962MOL0     H26951   9.086   7.709   9.144 -0.8181  0.6559 -0.6676
  962MOL0     H26952   9.104   7.459   8.960  0.5592  1.9953 -1.7054
  962MOL0     H26953   8.993   7.486   9.097  0.4419  1.1929  1.7540
  962MOL0     H26954   9.164   7.520   9.260 -2.0892 -1.5267 -0.0227
  962MOL0     H26955   9.299   7.482   9.146  0.9690 -3.6570  1.2350
  962MOL0     H26956   9.071   7.296   9.212 -0.2054 -0.8071 -0.5093
  962MOL0     H26957   9.204   7.266   9.104 -1.5667  2.3572 -1.3992
  962MOL0     H26958   9.208   7.322   9.403 -0.5527  0.5716 -0.2538
  962MOL0     H26959   9.346   7.349   9.305 -1.3596  2.6793 -0.7312
  962MOL0     H26960   9.341   7.107   9.232  0.3657  1.2086 -0.3975
  962MOL0     H26961   9.213   7.068   9.345 -1.3123  2.0100  1.1026
  962MOL0     H26962   9.497   7.131   9.415 -0.2116  1.9429 -0.9789
  962MOL0     H26963   9.377   7.185   9.528  2.1778  2.0304 -0.6174
  962MOL0     H26964   9.451   6.988   9.586 -0.4306  0.7194 -0.3206
  962MOL0     H26965   9.423   6.906   9.416 -2.0017 -0.2406 -1.4317
  962MOL0     H26966   9.064   7.893   8.946  0.3507 -4.2451  0.7267
  962MOL0     H26967   9.120   8.115   8.885  1.9657  4.0996  2.4905
  962MOL0     H26968   9.471   8.416   8.903 -0.3878 -0.6911 -0.1423
  962MOL0     H26969   9.508   8.660   8.907 -0.1011 -0.9122  0.9270
  962MOL0     H26970   9.291  10.432   9.256 -0.4117 -0.1045 -2.2057
  962MOL0     H26971   9.192  10.607   9.414 -0.0330  1.0187  1.1351
  962MOL0     H26972   9.266  10.961   9.571 -0.4279  0.8442 -2.1085
  962MOL0     H26973   9.255  11.161   9.714  1.9913 -4.3524  1.6089
  962MOL0     H26974   8.816  11.340   9.772 -1.5959 -0.6722  2.2933
  962MOL0     H26975   8.930  11.446   9.859 -0.6739 -1.1322  4.8595
  962MOL0     H26976   8.798  11.333  10.005  0.8307 -0.7654 -0.0164
  962MOL0     H26977   8.829  11.176   9.931 -2.5044  1.0703 -0.7172
  962MOL0     H26978   9.027  11.382  10.071 -0.6822 -0.1078 -0.6720
  962MOL0     H26979   9.084  11.227  10.023  1.0352  0.4482  2.4663
  962MOL0     H26980   9.034  11.245  10.256  2.1677 -0.5218 -0.7765
  962MOL0     H26981   8.859  11.240  10.232 -1.4161 -0.3818  0.1427
  962MOL0     H26982   8.989  10.841  10.105  1.7280  1.5136 -1.8479
  962MOL0     H26983   8.822  11.137   9.693 -1.6145 -1.6617 -1.4900
  962MOL0     H26984   8.829  10.966   9.549 -0.6191  1.7860 -1.0121
  963MOL0     O26985   1.092   5.183   0.863  0.6091 -0.8985 -0.4763
  963MOL0     C26986   1.143   5.087   0.808  0.2714 -0.3879 -0.7445
  963MOL0     O26987   1.099   5.015   0.688  0.2725 -0.8112  0.0031
  963MOL0     C26988   1.006   5.065   0.603  0.2124 -0.1163  0.1219
  963MOL0     C26989   0.915   4.977   0.542 -0.4705 -1.2176  0.2924
  963MOL0     C26990   0.823   5.031   0.443  0.0834 -0.3824  0.1040
  963MOL0     C26991   0.811   5.165   0.415 -0.0080  0.4344 -1.1657
  963MOL0     O26992   0.738   5.221   0.310 -0.3877  0.6783 -0.1505
  963MOL0     C26993   0.758   5.165   0.175 -0.0473  0.7224 -0.3322
  963MOL0     C26994   0.818   5.277   0.071 -0.4467  0.4347 -0.0106
  963MOL0     C26995   0.963   5.312   0.114 -0.1997  0.2103  0.1011
  963MOL0     C26996   1.012   5.403   0.006  0.1072 -0.4402 -0.1172
  963MOL0     C26997   1.149   5.482   0.051 -0.5204  0.4584 -0.4339
  963MOL0     C26998   1.263   5.392   0.103 -0.0561 -0.0753 -0.1126
  963MOL0     C26999   1.322   5.312  -0.013  0.9989 -0.1722  0.3720
  963MOL0     C27000   1.463   5.257   0.001  0.4675 -0.3561 -0.0917
  963MOL0     N27001   1.503   5.163   0.110 -0.1256 -0.7952 -0.2384
  963MOL0     C27002   1.559   5.032   0.095 -0.3653 -0.7808  0.8447
  963MOL0     C27003   1.599   4.990   0.217  0.0713  0.7758 -0.2096
  963MOL0     C27004   1.689   4.863   0.227  0.2109  0.0072  0.2780
  963MOL0     C27005   1.697   4.805   0.368 -0.9577  0.6795 -0.0872
  963MOL0     C27006   1.588   4.696   0.403  0.7633 -0.1695  0.4955
  963MOL0     C27007   1.611   4.603   0.514  0.4604  0.1237 -0.4357
  963MOL0     O27008   1.522   4.489   0.507  0.1252  0.6867  0.3586
  963MOL0     C27009   1.516   4.400   0.614 -0.2930 -1.1117  0.0060
  963MOL0     C27010   1.408   4.312   0.607  0.1879  0.4672  0.1991
  963MOL0     C27011   1.401   4.212   0.711  0.1979  0.0794  0.0210
  963MOL0     C27012   1.501   4.196   0.809 -0.2116  0.8980  1.0565
  963MOL0     C27013   1.495   4.080   0.894 -0.3793  0.0664  0.0663
  963MOL0     O27014   1.593   4.070   0.986 -1.1230 -0.2679  0.3422
  963MOL0     C27015   1.641   3.958   1.051  0.1265 -0.2069  0.3897
  963MOL0     C27016   1.762   3.975   1.120 -0.6767  0.3780  0.0879
  963MOL0     C27017   1.831   3.872   1.179  0.4458  0.1197  0.1409
  963MOL0     C27018   1.784   3.740   1.179  0.4885 -0.6813  0.4097
  963MOL0     O27019   1.844   3.634   1.240  0.0744 -0.1084  0.2199
  963MOL0     C27020   1.961   3.644   1.317 -1.1077  0.0241 -0.9870
  963MOL0     C27021   2.090   3.625   1.228 -1.0387 -0.3190 -0.2299
  963MOL0     C27022   2.139   3.488   1.196  0.2423 -0.7386 -0.9279
  963MOL0     C27023   2.058   3.406   1.094 -0.2340 -0.2618 -1.0765
  963MOL0     C27024   2.124   3.269   1.061 -1.0881 -0.1129  0.4498
  963MOL0     C27025   2.042   3.197   0.944 -0.0993 -0.1082  0.0625
  963MOL0     C27026   2.108   3.065   0.898  0.0421  0.8914  0.5317
  963MOL0     C27027   2.081   3.059   0.753  0.3017  0.2877 -0.4826
  963MOL0    Cl27028   2.144   2.904   0.698  0.0937 -0.3342  0.2076
  963MOL0     C27029   1.676   3.716   1.086  0.5807  0.1753  0.7846
  963MOL0     C27030   1.607   3.817   1.026 -0.7747 -0.6894  0.1054
  963MOL0     O27031   1.411   3.991   0.867  0.5865 -0.2780 -0.1702
  963MOL0     C27032   1.614   4.281   0.801 -0.4260 -0.8077 -0.2800
  963MOL0     C27033   1.619   4.384   0.709 -0.3614 -0.1131  0.5675
  963MOL0     N27034   1.547   5.085   0.300  0.8319  0.4554 -1.3594
  963MOL0     N27035   1.483   5.178   0.244 -0.2260 -0.4531 -0.5806
  963MOL0     C27036   0.891   5.251   0.478 -0.1484 -0.8150  0.1309
  963MOL0     C27037   0.994   5.203   0.573 -0.2356  0.0393  0.4479
  963MOL0     C27038   1.247   5.024   0.882  0.1283  0.9557 -0.6576
  963MOL0     C27039   1.288   5.056   1.018  0.5742 -0.2793 -0.8360
  963MOL0     C27040   1.402   4.996   1.068  0.2175 -0.0169 -0.2963
  963MOL0     C27041   1.486   4.906   0.996 -0.5673  1.2217  0.6572
  963MOL0     O27042   1.607   4.854   1.033 -0.4276 -0.0671 -0.2885
  963MOL0     C27043   1.633   4.713   1.028  0.0273  0.2094  0.5549
  963MOL0     C27044   1.601   4.629   1.144  0.0148  0.6586 -0.7681
  963MOL0     C27045   1.592   4.472   1.105  0.8964  0.4927 -0.3944
  963MOL0     C27046   1.623   4.393   1.240 -0.5232 -0.0018  0.0469
  963MOL0     C27047   1.768   4.370   1.267 -0.7260 -1.0300  0.4058
  963MOL0     C27048   1.877   4.329   1.290 -0.0699  0.1634  0.4148
  963MOL0     C27049   1.433   4.862   0.873 -0.3637  0.1769  0.2405
  963MOL0     C27050   1.318   4.922   0.816 -0.3112  0.3082  0.4664
  963MOL0     H27051   0.914   4.868   0.549  2.9206 -1.2647  1.9743
  963MOL0     H27052   0.761   4.960   0.389  0.3242 -0.6255  0.1515
  963MOL0     H27053   0.665   5.123   0.137  0.0573 -0.2506  0.4784
  963MOL0     H27054   0.837   5.089   0.167  0.3760  1.1152  0.0068
  963MOL0     H27055   0.766   5.372   0.085  2.7265  1.8403  4.5307
  963MOL0     H27056   0.823   5.237  -0.031  1.2783  0.9171 -0.1333
  963MOL0     H27057   1.029   5.226   0.124  0.5456  0.4235 -2.4179
  963MOL0     H27058   0.955   5.373   0.205 -1.0119  0.6599 -0.2603
  963MOL0     H27059   1.017   5.343  -0.085 -2.2029 -2.0923  0.7498
  963MOL0     H27060   0.940   5.485  -0.008 -2.5637 -1.5894  4.5885
  963MOL0     H27061   1.119   5.552   0.130  0.5260  0.0275  0.3681
  963MOL0     H27062   1.183   5.536  -0.038 -0.7304 -1.5320 -1.7768
  963MOL0     H27063   1.226   5.327   0.183 -0.2581  0.0987 -0.0613
  963MOL0     H27064   1.335   5.456   0.155 -4.2228  4.4993  0.8149
  963MOL0     H27065   1.255   5.231  -0.045  3.2639 -2.2527  0.6521
  963MOL0     H27066   1.327   5.375  -0.102 -0.3670  0.7075  0.8768
  963MOL0     H27067   1.525   5.346   0.018  3.1766 -1.4520 -3.2000
  963MOL0     H27068   1.495   5.222  -0.097 -0.2095 -0.1234 -0.4042
  963MOL0     H27069   1.585   4.991  -0.002  2.4034 -2.3529  2.1164
  963MOL0     H27070   1.792   4.884   0.199  0.1533  0.1697  0.1888
  963MOL0     H27071   1.656   4.784   0.158  0.8204  1.4224 -1.7027
  963MOL0     H27072   1.685   4.889   0.438 -0.7740  1.3576 -0.8550
  963MOL0     H27073   1.796   4.760   0.381 -0.7407  1.4131  0.9337
  963MOL0     H27074   1.488   4.738   0.415 -0.6769 -1.0318 -5.4682
  963MOL0     H27075   1.585   4.630   0.316 -0.0613 -0.4730  0.7457
  963MOL0     H27076   1.591   4.658   0.607 -0.0452 -3.2491  1.6067
  963MOL0     H27077   1.712   4.562   0.510 -0.2694 -1.8474  0.3301
  963MOL0     H27078   1.335   4.339   0.531  2.2303  0.3472 -1.9157
  963MOL0     H27079   1.307   4.159   0.709 -0.0496  0.5378 -0.9737
  963MOL0     H27080   1.791   4.078   1.133 -2.1969  1.0022 -1.1612
  963MOL0     H27081   1.930   3.904   1.211 -0.0590  2.3773 -0.3310
  963MOL0     H27082   1.966   3.559   1.386 -1.7985  1.0553  0.3947
  963MOL0     H27083   1.974   3.727   1.388 -1.8654 -3.1661  3.2358
  963MOL0     H27084   2.172   3.681   1.274 -0.5119 -3.8440  3.7189
  963MOL0     H27085   2.071   3.675   1.133  0.9067  1.0531  0.0337
  963MOL0     H27086   2.156   3.428   1.286 -0.6469 -1.2731 -1.1097
  963MOL0     H27087   2.239   3.507   1.156  0.2271  0.6845 -0.3608
  963MOL0     H27088   1.956   3.394   1.131  0.1541 -1.1457 -0.2328
  963MOL0     H27089   2.037   3.457   1.000 -4.9282 -2.0609 -1.2582
  963MOL0     H27090   2.115   3.211   1.153 -3.9664  0.5027  0.6396
  963MOL0     H27091   2.231   3.262   1.038 -1.3359 -0.3899 -0.6377
  963MOL0     H27092   2.036   3.267   0.861  1.6683  0.5607  0.4551
  963MOL0     H27093   1.938   3.171   0.966 -0.5163  1.6880  0.4125
  963MOL0     H27094   2.217   3.067   0.914  0.4552 -1.0254 -1.5402
  963MOL0     H27095   2.064   2.982   0.954 -0.2490  1.0862  0.5925
  963MOL0     H27096   2.134   3.138   0.698  0.7602 -0.8968 -1.8009
  963MOL0     H27097   1.974   3.053   0.731  0.1668 -0.6736  0.3812
  963MOL0     H27098   1.642   3.613   1.082  1.8089 -0.2972  1.6623
  963MOL0     H27099   1.516   3.805   0.968 -2.0767  0.8148  1.7504
  963MOL0     H27100   1.692   4.280   0.876 -0.6737  2.5032  0.1633
  963MOL0     H27101   1.710   4.443   0.698  2.6175 -4.2912  0.4247
  963MOL0     H27102   0.892   5.348   0.431 -0.6083 -2.0065 -2.5195
  963MOL0     H27103   1.061   5.272   0.622 -0.9892  1.0612  0.0620
  963MOL0     H27104   1.238   5.139   1.068  0.1786 -0.7707 -0.3976
  963MOL0     H27105   1.438   5.031   1.164 -5.0907 -1.1646  2.4754
  963MOL0     H27106   1.740   4.703   1.012 -0.0482  0.5355 -0.1720
  963MOL0     H27107   1.581   4.666   0.944  0.7190 -2.2320  1.3938
  963MOL0     H27108   1.677   4.649   1.221  1.4699  2.6181 -2.5818
  963MOL0     H27109   1.502   4.657   1.181 -1.1711 -2.5435 -1.1822
  963MOL0     H27110   1.661   4.458   1.021 -1.1209 -0.0269 -2.0417
  963MOL0     H27111   1.492   4.436   1.081 -0.6300  1.5865  3.4694
  963MOL0     H27112   1.565   4.440   1.321 -1.4469  0.8565 -1.0656
  963MOL0     H27113   1.583   4.292   1.229  2.3591 -1.0132 -2.1000
  963MOL0     H27114   1.978   4.302   1.314 -0.1432  0.0436  0.5911
  963MOL0     H27115   1.486   4.793   0.808  0.3443  0.9291  0.0075
  963MOL0     H27116   1.309   4.906   0.709  1.5157 -1.7870  0.5472
  964MOL0     O27117   5.307  10.322   7.456 -0.3803 -0.6484  0.4057
  964MOL0     C27118   5.305  10.443   7.485  0.5235  0.0547 -0.4932
  964MOL0     O27119   5.206  10.507   7.558 -0.7092  0.5129 -0.4207
  964MOL0     C27120   5.087  10.456   7.596 -1.6597  0.5925  0.2514
  964MOL0     C27121   5.079  10.320   7.640 -0.5780 -0.3194 -0.7529
  964MOL0     C27122   4.955  10.276   7.689  0.3723  0.0972 -0.0630
  964MOL0     C27123   4.840  10.362   7.683  0.4880 -1.2186  0.1602
  964MOL0     O27124   4.718  10.307   7.731  0.3564  0.2863 -0.3883
  964MOL0     C27125   4.594  10.369   7.706 -0.3175 -0.2250 -0.6591
  964MOL0     C27126   4.476  10.275   7.740 -1.5246 -0.2226  0.0655
  964MOL0     C27127   4.337  10.321   7.718 -1.1902 -0.2064  0.0829
  964MOL0     C27128   4.299  10.364   7.571  0.3148  1.3701 -0.4154
  964MOL0     C27129   4.177  10.452   7.556 -0.9817 -0.5873 -0.2798
  964MOL0     C27130   4.040  10.384   7.611 -0.6337  0.2456  0.7054
  964MOL0     C27131   3.910  10.455   7.587  0.7096 -0.0028 -0.2201
  964MOL0     C27132   3.891  10.579   7.675 -0.6364 -1.0896  0.4874
  964MOL0     N27133   3.886  10.566   7.818 -0.2305 -0.2222 -0.4567
  964MOL0     C27134   3.983  10.523   7.903  0.3859 -0.0779 -0.4297
  964MOL0     C27135   3.920  10.515   8.027 -0.3304  0.0042  0.3519
  964MOL0     C27136   3.989  10.496   8.160 -0.0018  0.3517 -0.8490
  964MOL0     C27137   4.116  10.580   8.185  0.2115  0.3443  0.4735
  964MOL0     C27138   4.245  10.504   8.224  0.6978 -0.4636 -0.1896
  964MOL0     C27139   4.329  10.476   8.100 -0.8131  0.7078  0.3532
  964MOL0     O27140   4.429  10.380   8.130 -0.2083 -0.4834 -0.6841
  964MOL0     C27141   4.560  10.427   8.148 -0.2448 -0.3179 -1.6729
  964MOL0     C27142   4.667  10.380   8.068 -0.7001  0.6954 -0.0919
  964MOL0     C27143   4.797  10.412   8.094  0.1348  0.8299 -0.2671
  964MOL0     C27144   4.830  10.503   8.193 -0.1423  0.5694  0.0038
  964MOL0     C27145   4.972  10.538   8.214  0.5379 -0.3477 -0.7500
  964MOL0     O27146   5.064  10.462   8.153  0.7231  0.4669  0.6063
  964MOL0     C27147   5.192  10.523   8.117 -0.0958 -0.4105  0.5456
  964MOL0     C27148   5.289  10.567   8.215 -0.3954 -0.4671  0.3787
  964MOL0     C27149   5.417  10.606   8.164  0.2093 -0.4270 -0.0949
  964MOL0     C27150   5.443  10.602   8.032  0.6373 -1.1087  0.5766
  964MOL0     O27151   5.562  10.647   7.992  0.6625  0.1226 -0.2648
  964MOL0     C27152   5.648  10.535   7.993  0.1065  0.2233 -0.4492
  964MOL0     C27153   5.784  10.560   7.940 -0.3815  1.3986  0.1910
  964MOL0     C27154   5.775  10.598   7.793 -0.3241  0.6054 -0.1066
  964MOL0     C27155   5.923  10.604   7.736 -0.6077  0.2138  0.4733
  964MOL0     C27156   6.009  10.732   7.784  0.4048  0.1266 -1.1767
  964MOL0     C27157   5.940  10.866   7.756 -0.5752 -0.8014 -0.7075
  964MOL0     C27158   5.911  10.897   7.609  0.3041  0.7005 -0.2128
  964MOL0     C27159   5.855  11.044   7.582  0.1347 -0.0144  0.4474
  964MOL0    Cl27160   5.715  11.077   7.693  0.4557  0.0588  0.1329
  964MOL0     C27161   5.351  10.549   7.942 -0.7782 -0.4777  0.5092
  964MOL0     C27162   5.230  10.509   7.989  0.9998 -0.8349 -0.1447
  964MOL0     O27163   4.994  10.643   8.270  0.4789  0.6948 -0.0109
  964MOL0     C27164   4.725  10.568   8.256  0.0659  0.7360 -0.0344
  964MOL0     C27165   4.596  10.533   8.234 -0.0046  0.9473 -0.2890
  964MOL0     N27166   3.786  10.538   8.010  0.9953  0.3536  0.0933
  964MOL0     N27167   3.774  10.578   7.888 -0.4129  0.3807  0.1180
  964MOL0     C27168   4.846  10.476   7.602  0.4884 -0.4701 -0.4081
  964MOL0     C27169   4.976  10.523   7.572  0.2559 -0.8574  1.2232
  964MOL0     C27170   5.427  10.521   7.448  1.0523  0.5607  0.2599
  964MOL0     C27171   5.434  10.648   7.495 -1.2598  1.0148  0.4749
  964MOL0     C27172   5.550  10.723   7.456  0.1616  0.3353 -0.4812
  964MOL0     C27173   5.654  10.679   7.379  1.4492 -0.3139  0.0661
  964MOL0     O27174   5.746  10.773   7.341  0.0290 -0.0855 -0.1062
  964MOL0     C27175   5.843  10.732   7.240  0.0123  0.0434 -0.5610
  964MOL0     C27176   5.801  10.755   7.096  0.4355 -1.2600  0.6060
  964MOL0     C27177   5.720  10.889   7.062 -0.1224  0.0291  0.6986
  964MOL0     C27178   5.805  11.020   7.066 -0.5370 -0.3304 -0.4210
  964MOL0     C27179   5.741  11.140   7.013  1.2850  0.0565 -0.3146
  964MOL0     C27180   5.685  11.241   6.962 -1.3017  0.2232 -0.6016
  964MOL0     C27181   5.643  10.547   7.334  0.7104  0.1234 -0.2220
  964MOL0     C27182   5.530  10.470   7.374 -1.1206 -0.7592 -0.3229
  964MOL0     H27183   5.172  10.269   7.659  0.0477  1.6518  2.3968
  964MOL0     H27184   4.937  10.185   7.747  2.5148 -0.7826 -0.7128
  964MOL0     H27185   4.562  10.400   7.606 -0.9274 -0.7701 -0.6441
  964MOL0     H27186   4.590  10.456   7.772  0.4810  0.2012 -1.1528
  964MOL0     H27187   4.488  10.236   7.842 -0.2370  0.1686  0.0806
  964MOL0     H27188   4.482  10.189   7.672 -2.1313 -0.6741  0.5759
  964MOL0     H27189   4.332  10.408   7.785 -2.0377 -0.2210  0.0574
  964MOL0     H27190   4.264  10.249   7.757 -2.0352  1.4128  1.6406
  964MOL0     H27191   4.374  10.416   7.511 -0.7359  2.2707 -0.9790
  964MOL0     H27192   4.280  10.269   7.521 -0.4783 -0.1213  2.4909
  964MOL0     H27193   4.159  10.481   7.452 -0.2128  0.2112 -0.2097
  964MOL0     H27194   4.195  10.543   7.614 -0.0818 -0.0263 -1.4034
  964MOL0     H27195   4.070  10.361   7.714  2.9015  2.2833  0.2645
  964MOL0     H27196   4.033  10.282   7.571 -1.8186  1.0300 -1.2178
  964MOL0     H27197   3.918  10.481   7.481  1.8842 -1.4143 -0.5068
  964MOL0     H27198   3.820  10.398   7.610  0.5423  0.4470  0.2574
  964MOL0     H27199   3.809  10.643   7.643  1.7014  1.9208  0.0732
  964MOL0     H27200   3.974  10.648   7.660 -0.6837 -0.7943  1.4944
  964MOL0     H27201   4.089  10.516   7.881  0.8620  2.6100  0.6394
  964MOL0     H27202   4.016  10.390   8.164  3.2465  1.0866 -0.7427
  964MOL0     H27203   3.919  10.518   8.241 -0.2423 -0.0371 -0.9508
  964MOL0     H27204   4.102  10.660   8.259  1.6803  1.6020 -0.5584
  964MOL0     H27205   4.134  10.636   8.093  2.0106 -2.9005 -1.3173
  964MOL0     H27206   4.295  10.583   8.281  0.4795  1.1852 -2.1725
  964MOL0     H27207   4.218  10.416   8.283 -2.7738  0.9409  0.5013
  964MOL0     H27208   4.376  10.567   8.062  0.8740 -0.3857 -0.2964
  964MOL0     H27209   4.268  10.438   8.017 -1.6532 -0.9971  1.6661
  964MOL0     H27210   4.642  10.306   7.992 -0.9972 -0.5327  1.1505
  964MOL0     H27211   4.872  10.357   8.037 -2.1669 -3.3784  0.2802
  964MOL0     H27212   5.275  10.571   8.322  0.8571  1.2333  0.5146
  964MOL0     H27213   5.493  10.640   8.234 -2.8915  3.7826  1.6328
  964MOL0     H27214   5.597  10.455   7.938 -0.6695  0.6187 -0.3101
  964MOL0     H27215   5.659  10.492   8.092 -1.5285 -1.2229 -0.8432
  964MOL0     H27216   5.842  10.467   7.951 -0.2357  1.4090 -0.4390
  964MOL0     H27217   5.841  10.628   8.004 -1.1030  1.5303  0.7034
  964MOL0     H27218   5.719  10.691   7.779 -2.9714 -0.9338 -0.3587
  964MOL0     H27219   5.711  10.523   7.745  1.1473 -1.4930  1.0195
  964MOL0     H27220   5.980  10.516   7.768 -0.0222  0.9847  1.6073
  964MOL0     H27221   5.911  10.596   7.627 -5.6501  0.6760  0.7465
  964MOL0     H27222   6.102  10.720   7.728 -0.0039 -0.7850 -1.6857
  964MOL0     H27223   6.017  10.721   7.892  0.1425  1.5902 -0.9807
  964MOL0     H27224   6.010  10.936   7.801 -2.9664  0.3037  1.5469
  964MOL0     H27225   5.854  10.884   7.821  1.8807 -0.1424  2.5990
  964MOL0     H27226   6.002  10.891   7.549 -1.4250  1.8138 -3.2008
  964MOL0     H27227   5.839  10.827   7.567 -0.1121  1.1412 -0.2513
  964MOL0     H27228   5.826  11.046   7.477  1.7207 -0.0796 -0.0184
  964MOL0     H27229   5.933  11.120   7.580 -0.9003  1.0552 -0.0170
  964MOL0     H27230   5.371  10.547   7.836 -0.0376 -0.4026  0.6391
  964MOL0     H27231   5.178  10.449   7.916 -1.3131  0.5120  0.3132
  964MOL0     H27232   4.752  10.646   8.327 -3.5421  1.2454  0.9430
  964MOL0     H27233   4.516  10.581   8.290  1.1671  1.1350  1.3044
  964MOL0     H27234   4.755  10.526   7.570  1.0184  1.0583  0.4060
  964MOL0     H27235   4.980  10.618   7.519 -2.3743 -0.8880  0.7980
  964MOL0     H27236   5.361  10.692   7.563 -1.3442 -0.8803  1.7016
  964MOL0     H27237   5.541  10.828   7.482  2.9757  0.6221 -0.3076
  964MOL0     H27238   5.885  10.633   7.258 -0.0837  0.1136  0.0614
  964MOL0     H27239   5.928  10.801   7.251  2.5470 -2.8335 -0.6568
  964MOL0     H27240   5.892  10.747   7.035  0.3449  3.2167 -0.4411
  964MOL0     H27241   5.737  10.669   7.072 -0.3505 -0.8397  1.1810
  964MOL0     H27242   5.637  10.890   7.134 -0.3834  0.8320  0.3983
  964MOL0     H27243   5.672  10.882   6.964  2.3704  0.9456 -0.6493
  964MOL0     H27244   5.833  11.035   7.171  0.3435 -1.4845 -0.4665
  964MOL0     H27245   5.902  11.008   7.018 -0.5297  0.4227 -0.6075
  964MOL0     H27246   5.651  11.337   6.930 -1.6791  0.3008  0.0098
  964MOL0     H27247   5.716  10.503   7.267 -0.5723 -0.7540 -1.0847
  964MOL0     H27248   5.514  10.370   7.334  1.8422 -2.2454  1.7736
  965MOL0     O27249   4.144   5.305   9.580  0.8344  0.2691 -0.7285
  965MOL0     C27250   4.179   5.270   9.474 -0.3835  0.7308  0.2689
  965MOL0     O27251   4.135   5.316   9.354  0.2212 -1.0137 -0.4918
  965MOL0     C27252   4.046   5.413   9.360 -0.2134  0.2540 -0.8033
  965MOL0     C27253   3.912   5.378   9.343 -0.6472  0.2720 -0.4603
  965MOL0     C27254   3.816   5.485   9.349  0.6905 -0.0877 -0.7606
  965MOL0     C27255   3.847   5.616   9.381 -0.4717  0.1326  0.1108
  965MOL0     O27256   3.745   5.703   9.404  0.2026 -0.2263 -0.3091
  965MOL0     C27257   3.786   5.816   9.479 -0.4339 -0.5980  0.5382
  965MOL0     C27258   3.671   5.898   9.538  0.8875  0.5534  0.6087
  965MOL0     C27259   3.706   6.038   9.578 -0.8094 -0.4789  0.0236
  965MOL0     C27260   3.579   6.095   9.642  0.0808  0.1141 -0.6955
  965MOL0     C27261   3.599   6.236   9.709 -0.4695 -0.5077 -0.1438
  965MOL0     C27262   3.474   6.322   9.710 -0.2192 -0.0764  0.6399
  965MOL0     C27263   3.464   6.416   9.827  0.3765  0.1536  0.4587
  965MOL0     C27264   3.529   6.554   9.818  0.7914  0.2819 -0.2802
  965MOL0     N27265   3.525   6.607   9.952  0.5618 -0.6413 -0.6348
  965MOL0     C27266   3.577   6.551  10.062 -0.4095  0.1268  0.6632
  965MOL0     C27267   3.545   6.628  10.169 -0.1496 -0.4496  0.4488
  965MOL0     C27268   3.617   6.614  10.307  0.1500  0.0032 -0.6567
  965MOL0     C27269   3.568   6.491  10.379  1.4192 -0.3356  0.4513
  965MOL0     C27270   3.623   6.483  10.521  0.2738 -0.2373  0.8677
  965MOL0     C27271   3.768   6.514  10.551  0.7569 -0.5284 -0.5494
  965MOL0     O27272   3.870   6.434  10.493 -0.1788 -0.6540 -1.1505
  965MOL0     C27273   3.921   6.340  10.577 -0.2358  1.1761  0.4746
  965MOL0     C27274   3.859   6.208  10.569 -0.8454 -0.9985 -0.6806
  965MOL0     C27275   3.886   6.116  10.666  0.4987 -0.6891 -0.0216
  965MOL0     C27276   3.982   6.148  10.765  0.8831 -1.4114 -0.1449
  965MOL0     C27277   4.012   6.057  10.878  0.6163  0.5185  0.8569
  965MOL0     O27278   4.098   6.090  10.981 -0.3317 -0.4657 -1.3072
  965MOL0     C27279   4.137   5.993  11.082 -0.3444 -0.6015  0.6474
  965MOL0     C27280   4.147   6.039  11.217  0.1110 -0.4067  0.5087
  965MOL0     C27281   4.203   5.950  11.307 -0.1057  0.6705 -0.6138
  965MOL0     C27282   4.248   5.819  11.270  0.1597 -0.5073  0.2340
  965MOL0     O27283   4.328   5.747  11.351 -1.0193 -0.0617  0.0158
  965MOL0     C27284   4.252   5.626  11.398 -0.0615  0.2854 -0.1368
  965MOL0     C27285   4.137   5.665  11.498 -0.0724 -0.8401 -0.0523
  965MOL0     C27286   4.127   5.574  11.622 -0.2468  0.3206 -0.2291
  965MOL0     C27287   4.031   5.450  11.605  0.5371 -0.8230 -0.0611
  965MOL0     C27288   3.886   5.493  11.606  1.2128  0.4299  0.3867
  965MOL0     C27289   3.796   5.367  11.647  0.6368 -0.4258 -0.2867
  965MOL0     C27290   3.651   5.411  11.678  0.6603  0.0645  1.3356
  965MOL0     C27291   3.562   5.296  11.700  0.2624 -0.6285  0.5549
  965MOL0    Cl27292   3.579   5.187  11.568  0.2013 -0.3425 -0.1743
  965MOL0     C27293   4.228   5.772  11.137 -0.0366  0.4611 -0.2083
  965MOL0     C27294   4.182   5.867  11.045 -0.4581  0.9082  0.5468
  965MOL0     O27295   3.939   5.954  10.882 -0.0537  0.0274  0.0407
  965MOL0     C27296   4.049   6.271  10.775 -0.4927  0.0451  0.3189
  965MOL0     C27297   4.009   6.371  10.672  0.2520  0.4562 -0.8135
  965MOL0     N27298   3.467   6.729  10.123 -0.8306  0.4363  0.0001
  965MOL0     N27299   3.454   6.717   9.996  0.4598  0.1288  0.0528
  965MOL0     C27300   3.990   5.652   9.382  0.9202  0.1105 -0.1152
  965MOL0     C27301   4.086   5.550   9.372 -0.4801 -0.1709 -0.7402
  965MOL0     C27302   4.284   5.168   9.473  0.7971 -0.8129  0.4320
  965MOL0     C27303   4.361   5.145   9.587  1.1044  1.1525  0.0798
  965MOL0     C27304   4.493   5.075   9.576 -0.3472  0.2717 -0.0731
  965MOL0     C27305   4.527   5.018   9.447  1.0851 -0.7233 -0.1690
  965MOL0     O27306   4.629   4.934   9.465 -0.3136 -0.5231  0.3329
  965MOL0     C27307   4.725   4.915   9.363 -1.1093  0.2921  0.1815
  965MOL0     C27308   4.861   4.856   9.424  0.2090 -0.3644 -0.1634
  965MOL0     C27309   4.913   4.931   9.543 -0.1789 -0.0393 -0.0996
  965MOL0     C27310   5.017   4.842   9.617 -0.3741  0.2278 -1.1062
  965MOL0     C27311   5.137   4.827   9.547 -0.6586  0.1823  0.1489
  965MOL0     C27312   5.240   4.820   9.480  0.5887  0.3470 -0.3245
  965MOL0     C27313   4.438   5.033   9.338 -0.1477 -1.0027  0.2971
  965MOL0     C27314   4.324   5.110   9.348  0.3995  0.7837  0.0733
  965MOL0     H27315   3.879   5.275   9.337 -1.0360  0.1417  2.5047
  965MOL0     H27316   3.715   5.447   9.338  0.7376  0.0246 -1.6357
  965MOL0     H27317   3.859   5.877   9.424 -1.6025  0.8898  0.5597
  965MOL0     H27318   3.848   5.792   9.565 -3.3769  3.9701  4.5028
  965MOL0     H27319   3.638   5.828   9.616  1.7951 -1.0298 -0.3652
  965MOL0     H27320   3.605   5.914   9.453  1.0398 -0.8112  0.2058
  965MOL0     H27321   3.732   6.102   9.494 -1.0647 -0.5626 -0.1217
  965MOL0     H27322   3.785   6.039   9.653 -3.5926  0.8685  3.2429
  965MOL0     H27323   3.499   6.090   9.568 -0.4844 -0.3806 -0.0678
  965MOL0     H27324   3.553   6.019   9.717 -1.3787  0.4025 -0.8775
  965MOL0     H27325   3.678   6.295   9.660 -0.6872  1.8125  2.0858
  965MOL0     H27326   3.649   6.223   9.806 -2.7309 -3.0610  0.7797
  965MOL0     H27327   3.382   6.263   9.710  0.3971 -1.2687 -2.8528
  965MOL0     H27328   3.468   6.388   9.623 -2.0313  2.3759  2.4745
  965MOL0     H27329   3.359   6.442   9.841 -0.1088 -0.0873 -2.2063
  965MOL0     H27330   3.505   6.348   9.902 -0.9661 -3.4544 -1.8312
  965MOL0     H27331   3.471   6.621   9.753  1.3289  2.4380  1.3287
  965MOL0     H27332   3.631   6.548   9.779  0.2549 -0.1744 -1.6742
  965MOL0     H27333   3.655   6.476  10.057  0.4896  1.0452  0.6177
  965MOL0     H27334   3.600   6.699  10.374  1.1307 -1.5844  1.7502
  965MOL0     H27335   3.726   6.622  10.304  0.1917  0.6165  1.0700
  965MOL0     H27336   3.595   6.402  10.322 -1.5261 -0.4072 -1.0267
  965MOL0     H27337   3.459   6.484  10.384  1.2905 -0.0481 -1.3184
  965MOL0     H27338   3.567   6.549  10.588  2.2018  2.0236  0.3838
  965MOL0     H27339   3.598   6.383  10.557 -0.5778  0.4393  2.2539
  965MOL0     H27340   3.788   6.527  10.657 -1.6366 -0.6695 -0.0271
  965MOL0     H27341   3.792   6.616  10.521  3.8184 -0.6699  1.0763
  965MOL0     H27342   3.775   6.189  10.503 -1.9572  2.6184 -0.5657
  965MOL0     H27343   3.828   6.025  10.661 -0.6515  0.1082 -1.9041
  965MOL0     H27344   4.107   6.137  11.241 -2.2702 -1.1806 -0.0689
  965MOL0     H27345   4.213   5.987  11.408 -1.5827  0.2801 -0.2968
  965MOL0     H27346   4.323   5.565  11.454 -1.2233 -0.8017  0.2188
  965MOL0     H27347   4.218   5.561  11.317 -1.0051 -0.4921  0.8477
  965MOL0     H27348   4.041   5.673  11.446  1.6975  1.9635 -3.2903
  965MOL0     H27349   4.167   5.762  11.539  2.0186 -1.5433  0.2061
  965MOL0     H27350   4.099   5.645  11.701  3.3256 -0.1485  1.6187
  965MOL0     H27351   4.224   5.530  11.647 -0.2446 -0.2577 -1.2029
  965MOL0     H27352   4.059   5.386  11.521  3.5238  0.4805 -0.1960
  965MOL0     H27353   4.063   5.391  11.691  2.9346  0.3771 -0.0378
  965MOL0     H27354   3.846   5.538  11.514  3.0387  1.8529  0.2438
  965MOL0     H27355   3.862   5.566  11.683  0.3205  1.8491 -1.1694
  965MOL0     H27356   3.825   5.298  11.727 -3.6622 -4.2366 -1.5369
  965MOL0     H27357   3.796   5.313  11.552 -2.0610  0.1900 -0.7137
  965MOL0     H27358   3.644   5.480  11.763 -2.7270  1.5127  0.0498
  965MOL0     H27359   3.635   5.462  11.583  4.6568  2.1882  1.6004
  965MOL0     H27360   3.459   5.331  11.711  0.5633  0.3434  0.4122
  965MOL0     H27361   3.592   5.254  11.797  0.1537  0.9938  1.3346
  965MOL0     H27362   4.266   5.679  11.098 -1.4769  1.2837 -4.0133
  965MOL0     H27363   4.190   5.848  10.939 -0.1096 -1.3411  0.9265
  965MOL0     H27364   4.128   6.292  10.846 -1.5500  2.8278  0.7753
  965MOL0     H27365   4.024   6.476  10.694 -0.6224  0.2172  1.1260
  965MOL0     H27366   4.032   5.750   9.401  2.3699 -0.4230 -0.4723
  965MOL0     H27367   4.185   5.584   9.400 -1.6278  0.8191  2.4483
  965MOL0     H27368   4.326   5.190   9.680  0.2419  2.5789 -0.8989
  965MOL0     H27369   4.563   5.051   9.655  0.7394 -1.2206 -1.4261
  965MOL0     H27370   4.754   4.994   9.294  2.9405 -2.3044 -1.4736
  965MOL0     H27371   4.689   4.839   9.293  0.4887 -1.0532  0.7491
  965MOL0     H27372   4.837   4.755   9.458 -2.2572  0.1388 -0.2195
  965MOL0     H27373   4.934   4.850   9.343  0.7212 -1.2525  0.3492
  965MOL0     H27374   4.835   4.954   9.616 -0.0650  1.1862 -0.3394
  965MOL0     H27375   4.957   5.024   9.504 -0.5279 -1.3993 -4.3063
  965MOL0     H27376   5.048   4.891   9.709 -1.0594 -2.8059  0.8738
  965MOL0     H27377   4.990   4.744   9.656  0.0275  1.0794  1.5005
  965MOL0     H27378   5.342   4.807   9.448  0.0467  1.6461 -2.8809
  965MOL0     H27379   4.459   4.989   9.241  1.0210 -1.2627  0.6617
  965MOL0     H27380   4.264   5.128   9.259  0.5393  0.2394 -0.1354
  966MOL0     O27381   7.176   7.656   6.039 -0.1096  0.3857 -0.6441
  966MOL0     C27382   7.129   7.541   6.060 -0.4194 -0.6687 -0.1132
  966MOL0     O27383   7.151   7.455   6.167 -0.5862  0.6219 -0.3136
  966MOL0     C27384   7.221   7.477   6.286  0.8084 -0.2157  0.0508
  966MOL0     C27385   7.272   7.609   6.319 -0.0821  0.5584  0.4881
  966MOL0     C27386   7.335   7.643   6.437 -0.3893  0.0488 -0.8980
  966MOL0     C27387   7.366   7.537   6.530  0.8286 -0.1051 -0.1699
  966MOL0     O27388   7.402   7.546   6.663 -0.0917  0.8802  1.2461
  966MOL0     C27389   7.351   7.653   6.739 -0.1941  0.8991  0.2353
  966MOL0     C27390   7.363   7.613   6.895  0.2136 -0.1200 -0.2661
  966MOL0     C27391   7.268   7.496   6.946  0.3273 -0.0894  1.1176
  966MOL0     C27392   7.242   7.503   7.097 -0.3786  0.4592 -0.5420
  966MOL0     C27393   7.108   7.439   7.134 -0.0505  0.4247 -0.2963
  966MOL0     C27394   7.078   7.420   7.279  0.2221 -0.4353 -0.5824
  966MOL0     C27395   6.950   7.333   7.299 -0.2003 -1.0276 -0.3031
  966MOL0     C27396   6.944   7.251   7.429 -0.0606 -0.1074  0.6994
  966MOL0     N27397   6.809   7.199   7.448  0.4129 -0.2895  0.0769
  966MOL0     C27398   6.697   7.214   7.375  0.4418 -0.4829 -0.9771
  966MOL0     C27399   6.598   7.170   7.441 -0.0721  0.9642  1.2273
  966MOL0     C27400   6.460   7.163   7.391  0.8360  0.8822 -0.1107
  966MOL0     C27401   6.437   7.031   7.310  1.3847  0.4718  0.1795
  966MOL0     C27402   6.457   6.908   7.407  0.0047 -0.0785 -0.6290
  966MOL0     C27403   6.370   6.778   7.385  0.2074 -0.4313 -0.5852
  966MOL0     O27404   6.250   6.807   7.454 -0.6575 -0.2465  0.0339
  966MOL0     C27405   6.167   6.700   7.482 -0.7596  0.1192  0.2109
  966MOL0     C27406   6.079   6.720   7.591  0.1415 -1.0169 -0.7297
  966MOL0     C27407   5.975   6.627   7.609  0.1318  0.5873 -0.5587
  966MOL0     C27408   5.967   6.507   7.531 -0.0478 -0.1213  0.8116
  966MOL0     C27409   5.870   6.401   7.564 -0.3161 -0.8604 -0.3857
  966MOL0     O27410   5.753   6.433   7.636  0.3387 -0.4066  0.1545
  966MOL0     C27411   5.671   6.343   7.689  0.1368 -0.2103 -0.7086
  966MOL0     C27412   5.719   6.257   7.790  0.4468  1.2197 -0.8671
  966MOL0     C27413   5.633   6.153   7.845  0.3648 -1.5610  0.4762
  966MOL0     C27414   5.508   6.136   7.796 -0.1917 -0.1079  0.5862
  966MOL0     O27415   5.433   6.038   7.839  0.1437  0.5758 -0.2659
  966MOL0     C27416   5.404   6.039   7.982  0.0615  0.0319  0.3400
  966MOL0     C27417   5.317   5.919   8.020 -0.0831 -0.3523 -0.8429
  966MOL0     C27418   5.375   5.783   7.977 -0.3836  0.9514 -0.6098
  966MOL0     C27419   5.519   5.764   8.038 -0.4121 -0.4225  0.0627
  966MOL0     C27420   5.564   5.615   8.044 -0.5914  0.1505  0.4789
  966MOL0     C27421   5.703   5.590   8.103 -0.0394  0.3637 -0.6772
  966MOL0     C27422   5.730   5.436   8.106  0.4145  0.9152  0.0284
  966MOL0     C27423   5.872   5.399   8.160 -0.7866  0.4227 -0.0193
  966MOL0    Cl27424   5.925   5.252   8.074  0.0262 -0.0646 -0.0985
  966MOL0     C27425   5.473   6.221   7.689 -0.7446 -0.1488 -0.7156
  966MOL0     C27426   5.547   6.328   7.645 -0.3778  0.5358  0.2703
  966MOL0     O27427   5.908   6.289   7.543  0.4410 -0.0528 -0.0413
  966MOL0     C27428   6.061   6.485   7.430 -0.3971  1.0305 -0.5410
  966MOL0     C27429   6.157   6.585   7.404 -0.3482  0.4816  0.5611
  966MOL0     N27430   6.635   7.142   7.561  0.3386 -0.1321 -0.4554
  966MOL0     N27431   6.764   7.145   7.564  0.1333  0.0702  0.0566
  966MOL0     C27432   7.317   7.411   6.500 -0.1974  0.1073  0.8703
  966MOL0     C27433   7.244   7.376   6.385  0.6011 -0.2249 -1.4891
  966MOL0     C27434   7.016   7.511   5.969  0.2413  0.1611 -0.5920
  966MOL0     C27435   6.948   7.392   5.993 -0.0172 -0.4969  0.1234
  966MOL0     C27436   6.840   7.358   5.913 -1.0947 -0.1160  0.1360
  966MOL0     C27437   6.774   7.447   5.826  0.3429 -0.0136 -0.5135
  966MOL0     O27438   6.663   7.406   5.745 -0.9956  0.2818  0.5801
  966MOL0     C27439   6.539   7.477   5.768 -0.6377  0.2436  0.6112
  966MOL0     C27440   6.487   7.424   5.900  0.8592 -0.8517 -0.3838
  966MOL0     C27441   6.334   7.446   5.908  0.0613 -0.6532  0.3705
  966MOL0     C27442   6.289   7.568   5.982 -0.4253 -0.1293 -0.3995
  966MOL0     C27443   6.299   7.553   6.128  0.6863 -1.1739  0.4206
  966MOL0     C27444   6.307   7.562   6.252  0.4436  1.1994 -0.1118
  966MOL0     C27445   6.833   7.575   5.811 -0.4401 -0.5114  0.5292
  966MOL0     C27446   6.947   7.606   5.887 -0.3080 -0.5514 -0.4091
  966MOL0     H27447   7.269   7.696   6.254 -1.2081  2.5204  3.0032
  966MOL0     H27448   7.364   7.747   6.447 -0.6608  0.0938 -0.5621
  966MOL0     H27449   7.243   7.663   6.721 -0.4079 -1.0278  0.2072
  966MOL0     H27450   7.405   7.743   6.709 -0.5019  0.5852 -1.3331
  966MOL0     H27451   7.329   7.700   6.950  2.9711  0.3348  0.8730
  966MOL0     H27452   7.468   7.601   6.922  0.4885 -0.6588 -1.4937
  966MOL0     H27453   7.310   7.400   6.915 -2.2108 -0.1077 -3.0783
  966MOL0     H27454   7.172   7.500   6.893 -0.0824  2.0692  1.9443
  966MOL0     H27455   7.317   7.451   7.158 -2.6753 -2.6873 -0.1241
  966MOL0     H27456   7.251   7.606   7.131  4.1965 -0.5433  2.1847
  966MOL0     H27457   7.107   7.346   7.078 -0.9528 -0.7019  1.4759
  966MOL0     H27458   7.027   7.506   7.101 -2.9100 -0.3222  4.2274
  966MOL0     H27459   7.074   7.525   7.307  0.2330 -0.7105  0.4713
  966MOL0     H27460   7.160   7.376   7.336 -1.1019 -1.6329  0.4697
  966MOL0     H27461   6.863   7.398   7.293  1.8923  2.1777  0.9617
  966MOL0     H27462   6.941   7.260   7.219  0.2673  0.0714 -1.3996
  966MOL0     H27463   6.974   7.302   7.521  2.0673  0.1072 -0.0619
  966MOL0     H27464   7.013   7.166   7.427  0.2297  0.0529  2.4941
  966MOL0     H27465   6.696   7.254   7.275 -2.1083  1.1938 -0.3531
  966MOL0     H27466   6.442   7.241   7.316  1.1831 -0.0564 -1.2076
  966MOL0     H27467   6.386   7.174   7.470 -2.5806 -2.2447 -2.5134
  966MOL0     H27468   6.509   7.050   7.229  1.4235 -1.0959 -0.1906
  966MOL0     H27469   6.334   7.041   7.276  0.1279  0.6840  3.7269
  966MOL0     H27470   6.563   6.895   7.383  0.7247  1.6636  1.2637
  966MOL0     H27471   6.451   6.933   7.513  1.2118  1.4146 -0.8655
  966MOL0     H27472   6.410   6.688   7.432 -1.0777 -1.5065 -1.4829
  966MOL0     H27473   6.339   6.760   7.282  2.0290  0.2712 -1.2938
  966MOL0     H27474   6.079   6.804   7.661 -1.4460 -1.2699 -0.3873
  966MOL0     H27475   5.911   6.655   7.691 -1.0443  2.6368 -2.1142
  966MOL0     H27476   5.816   6.280   7.832  0.1621  3.6513 -1.3855
  966MOL0     H27477   5.664   6.101   7.935  2.1512 -0.0531  0.7984
  966MOL0     H27478   5.355   6.134   8.007 -1.9937 -0.8118 -0.3376
  966MOL0     H27479   5.497   6.026   8.039  1.1365 -1.4475 -1.6148
  966MOL0     H27480   5.214   5.935   7.986 -0.4757  0.9803  0.8036
  966MOL0     H27481   5.301   5.919   8.129 -0.5718 -0.7804 -0.9124
  966MOL0     H27482   5.376   5.781   7.868  4.3723 -0.0338 -0.7451
  966MOL0     H27483   5.305   5.709   8.018  0.0925 -1.4503 -3.7044
  966MOL0     H27484   5.586   5.808   7.963  1.7619 -1.9079  1.0299
  966MOL0     H27485   5.536   5.816   8.133 -4.1124  0.2511  0.4946
  966MOL0     H27486   5.558   5.588   7.938 -0.2929 -1.4897  0.8471
  966MOL0     H27487   5.482   5.566   8.098  0.0715  2.2655  3.6461
  966MOL0     H27488   5.706   5.634   8.203  4.2158  3.0168 -1.6875
  966MOL0     H27489   5.776   5.654   8.052  2.2066  0.7630  2.6723
  966MOL0     H27490   5.653   5.387   8.168 -0.6409 -4.2320 -4.5378
  966MOL0     H27491   5.718   5.387   8.009  1.5364  1.0609 -0.2010
  966MOL0     H27492   5.886   5.387   8.268 -1.3125  1.1687  0.1430
  966MOL0     H27493   5.942   5.482   8.148 -1.8299  1.3057 -0.1066
  966MOL0     H27494   5.378   6.185   7.650 -1.1562 -0.0981  0.2033
  966MOL0     H27495   5.522   6.384   7.555  2.5577  1.2034 -0.2346
  966MOL0     H27496   6.062   6.389   7.378 -4.0892  0.6106 -0.0731
  966MOL0     H27497   6.229   6.573   7.323  0.4066  2.6208  0.8449
  966MOL0     H27498   7.310   7.326   6.568 -3.4235 -0.4109  0.0539
  966MOL0     H27499   7.204   7.278   6.360  1.4856 -1.0282  0.0560
  966MOL0     H27500   6.975   7.314   6.064 -2.3225 -3.8166 -2.2983
  966MOL0     H27501   6.802   7.256   5.910  3.9182 -2.2465 -1.9983
  966MOL0     H27502   6.473   7.456   5.684 -2.1102 -2.3246  2.2330
  966MOL0     H27503   6.573   7.580   5.779  0.9055 -0.2226  0.5531
  966MOL0     H27504   6.505   7.317   5.886 -0.9103 -1.2824  0.3151
  966MOL0     H27505   6.530   7.449   5.997  0.3235 -1.6675  0.0825
  966MOL0     H27506   6.298   7.355   5.956  2.7139 -2.3883 -0.7085
  966MOL0     H27507   6.291   7.455   5.807  0.2740  1.1173  0.4075
  966MOL0     H27508   6.346   7.649   5.937  3.5350 -1.6305  1.4389
  966MOL0     H27509   6.184   7.592   5.964 -0.4123  2.0699  2.0043
  966MOL0     H27510   6.318   7.554   6.359 -4.0119 -0.5666  0.4294
  966MOL0     H27511   6.800   7.648   5.737  2.1535 -0.7061 -0.9287
  966MOL0     H27512   6.967   7.713   5.888 -2.5971  0.1140  4.6718
  967MOL0     O27513   6.652   1.207   0.869  0.1476  0.2669 -0.2969
  967MOL0     C27514   6.611   1.088   0.861 -0.6744  0.0288 -0.4165
  967MOL0     O27515   6.659   0.994   0.930  1.1143 -0.0262  0.0864
  967MOL0     C27516   6.727   1.015   1.047 -1.7313 -0.1625  0.3838
  967MOL0     C27517   6.796   0.903   1.099 -0.8855  0.4307  0.5415
  967MOL0     C27518   6.881   0.919   1.207 -0.7281  1.2914 -1.3519
  967MOL0     C27519   6.896   1.044   1.271 -0.5037 -0.7145  0.7666
  967MOL0     O27520   6.975   1.070   1.377 -0.5041 -0.2739  0.8531
  967MOL0     C27521   7.030   0.952   1.436 -0.5390 -0.5106 -0.9997
  967MOL0     C27522   7.102   0.987   1.566 -0.9136  0.2982 -1.1296
  967MOL0     C27523   7.018   1.076   1.652 -0.4360 -0.3427  0.2489
  967MOL0     C27524   7.091   1.108   1.793 -0.6140 -0.1099 -0.1598
  967MOL0     C27525   7.003   1.211   1.886 -1.1084 -0.7701  0.1588
  967MOL0     C27526   7.050   1.199   2.035  0.1552  0.2751  0.6519
  967MOL0     C27527   6.997   1.313   2.119  0.1769 -0.3356  0.0856
  967MOL0     C27528   6.847   1.324   2.172 -0.7736 -0.1085  0.7949
  967MOL0     N27529   6.747   1.381   2.085 -0.6929 -0.4522  0.1385
  967MOL0     C27530   6.679   1.317   1.984  0.3984 -0.0880  0.6320
  967MOL0     C27531   6.596   1.412   1.940  0.0491  0.1080 -0.8708
  967MOL0     C27532   6.505   1.389   1.826 -0.0357 -0.7239  0.2074
  967MOL0     C27533   6.565   1.373   1.686 -0.2220  0.7723 -1.0836
  967MOL0     C27534   6.628   1.502   1.641 -0.3709  0.1766  0.7374
  967MOL0     C27535   6.547   1.626   1.605  0.8935  0.5432 -0.4454
  967MOL0     O27536   6.517   1.685   1.733  0.4390 -0.4690 -0.2347
  967MOL0     C27537   6.424   1.780   1.732 -0.2680 -0.5505 -0.4632
  967MOL0     C27538   6.368   1.809   1.859 -0.0657 -0.3312  0.5220
  967MOL0     C27539   6.274   1.915   1.865  0.0407 -0.9416  1.5246
  967MOL0     C27540   6.212   1.972   1.751  0.4297  0.7036 -0.3941
  967MOL0     C27541   6.104   2.068   1.747  0.0813  0.8098 -0.0448
  967MOL0     O27542   6.061   2.097   1.866  0.2154  0.3854 -0.6187
  967MOL0     C27543   5.953   2.186   1.878  0.5523  0.5384 -0.2118
  967MOL0     C27544   5.837   2.138   1.936 -0.0994  0.3928 -0.4369
  967MOL0     C27545   5.713   2.208   1.964  0.4704 -0.0468  0.3083
  967MOL0     C27546   5.711   2.341   1.922 -0.0777  0.4197  0.0672
  967MOL0     O27547   5.588   2.398   1.921  0.4926 -0.2825  0.1176
  967MOL0     C27548   5.580   2.534   1.974 -0.2706  0.4581  0.7593
  967MOL0     C27549   5.445   2.586   1.966  0.3399 -0.8687  0.0029
  967MOL0     C27550   5.392   2.574   1.815  0.5529  0.3845  0.1207
  967MOL0     C27551   5.264   2.639   1.784 -0.3014 -0.5977  0.2444
  967MOL0     C27552   5.163   2.610   1.897  0.0637  0.6890 -0.6597
  967MOL0     C27553   5.035   2.685   1.895  0.7171  0.4657  0.2327
  967MOL0     C27554   4.960   2.682   2.025  0.6288  1.5987 -0.2094
  967MOL0     C27555   4.925   2.818   2.092 -0.1227  0.2240  0.3627
  967MOL0    Cl27556   5.065   2.922   2.073 -0.1123  0.0517  0.2148
  967MOL0     C27557   5.823   2.399   1.857  0.3540  0.0642  0.3374
  967MOL0     C27558   5.946   2.324   1.842  0.1244 -0.2039 -0.2080
  967MOL0     O27559   6.055   2.115   1.642 -0.1916 -0.5807 -0.6791
  967MOL0     C27560   6.255   1.922   1.626 -0.1440 -0.0397  0.5549
  967MOL0     C27561   6.363   1.832   1.618  0.4724 -0.5941  0.6082
  967MOL0     N27562   6.610   1.523   2.015 -0.0686 -0.5805  0.7830
  967MOL0     N27563   6.702   1.512   2.099 -0.9033  0.2008 -0.4344
  967MOL0     C27564   6.820   1.147   1.229 -1.2025  0.4798 -0.2608
  967MOL0     C27565   6.736   1.137   1.118 -0.4777 -0.0305 -0.3474
  967MOL0     C27566   6.507   1.054   0.766  0.1335 -0.4451  0.5257
  967MOL0     C27567   6.473   1.143   0.657 -0.5570  0.2723  0.5645
  967MOL0     C27568   6.396   1.106   0.552  0.7274 -0.9140 -0.4923
  967MOL0     C27569   6.320   0.981   0.566  0.6981 -0.0764 -0.0923
  967MOL0     O27570   6.244   0.931   0.472 -0.6201  0.3354  0.3311
  967MOL0     C27571   6.316   0.835   0.390 -0.3353 -0.6082  0.7866
  967MOL0     C27572   6.244   0.857   0.260  0.1245 -0.2486  0.5146
  967MOL0     C27573   6.263   0.997   0.184 -0.5300 -0.8231 -0.3690
  967MOL0     C27574   6.202   0.998   0.041  1.2450  0.4902  0.2046
  967MOL0     C27575   6.069   0.948   0.053 -0.2600 -0.2884  0.5465
  967MOL0     C27576   5.954   0.917   0.058 -0.1297  0.6968 -0.1992
  967MOL0     C27577   6.337   0.904   0.686  0.1795 -1.0915 -0.1956
  967MOL0     C27578   6.436   0.929   0.779 -0.6136 -0.1639  0.4193
  967MOL0     H27579   6.773   0.808   1.052 -2.0587  0.5605  0.8264
  967MOL0     H27580   6.936   0.829   1.233 -3.1604 -0.6745 -2.5740
  967MOL0     H27581   7.116   0.923   1.375  0.9062  0.6484  0.3771
  967MOL0     H27582   6.961   0.870   1.458  0.9169 -1.0469  2.0917
  967MOL0     H27583   7.186   1.053   1.545 -2.1590  2.3773  0.1060
  967MOL0     H27584   7.135   0.901   1.626 -2.2869  1.5365  1.5550
  967MOL0     H27585   6.928   1.021   1.679  0.2905 -2.4485 -1.2885
  967MOL0     H27586   6.985   1.163   1.594  0.8354  0.1518  0.2365
  967MOL0     H27587   7.107   1.027   1.865  0.4706  3.1188  3.6377
  967MOL0     H27588   7.181   1.163   1.766 -0.6206  1.1061  2.0197
  967MOL0     H27589   6.895   1.203   1.874 -0.9829 -0.6971 -1.2267
  967MOL0     H27590   7.020   1.315   1.855 -2.4559 -0.8479 -0.9540
  967MOL0     H27591   7.158   1.197   2.048  0.0877 -0.2717  1.1641
  967MOL0     H27592   6.999   1.113   2.078 -2.2635  1.9667  1.3809
  967MOL0     H27593   7.048   1.316   2.216 -1.1508 -0.2379  0.8112
  967MOL0     H27594   7.031   1.409   2.079  3.2159 -1.4609 -0.2722
  967MOL0     H27595   6.845   1.385   2.263  0.6313 -0.5406  1.1388
  967MOL0     H27596   6.810   1.230   2.214  0.1005  0.0182  1.9151
  967MOL0     H27597   6.694   1.217   1.946  2.9110 -0.3114  1.9559
  967MOL0     H27598   6.434   1.473   1.822 -1.1538 -1.5296  1.9427
  967MOL0     H27599   6.450   1.295   1.838  0.6119 -1.3257 -1.2091
  967MOL0     H27600   6.479   1.340   1.627 -2.1094  0.2844  1.7431
  967MOL0     H27601   6.641   1.296   1.699 -0.7938 -0.0103 -2.2641
  967MOL0     H27602   6.707   1.530   1.712  1.6125 -2.1063 -0.4157
  967MOL0     H27603   6.685   1.476   1.551  0.6435 -2.3375  2.0133
  967MOL0     H27604   6.455   1.596   1.553 -0.5690  0.6514  1.9456
  967MOL0     H27605   6.605   1.696   1.544 -0.9043  1.0669 -1.6579
  967MOL0     H27606   6.411   1.774   1.952  1.7606 -0.1036 -0.2068
  967MOL0     H27607   6.244   1.966   1.957  2.9891  4.1226  0.0805
  967MOL0     H27608   5.828   2.033   1.964 -4.8577  1.4355  3.2258
  967MOL0     H27609   5.619   2.171   2.003 -1.0845  0.3101 -2.7763
  967MOL0     H27610   5.653   2.597   1.922  0.8034 -2.1300 -1.0364
  967MOL0     H27611   5.624   2.526   2.074  0.6302 -0.6129  0.3059
  967MOL0     H27612   5.446   2.692   1.991 -0.3277  0.1566 -3.7017
  967MOL0     H27613   5.377   2.532   2.033 -1.0899  0.2731 -0.4905
  967MOL0     H27614   5.384   2.468   1.791  0.4715 -0.0426  1.9010
  967MOL0     H27615   5.466   2.621   1.750  1.9386  1.0325  2.0636
  967MOL0     H27616   5.284   2.747   1.781 -2.2027 -0.2236 -0.2927
  967MOL0     H27617   5.215   2.596   1.696  1.3999  1.4250 -1.8311
  967MOL0     H27618   5.208   2.649   1.989 -0.8283  2.1799 -0.8046
  967MOL0     H27619   5.141   2.504   1.910  1.3820  0.2936 -1.4999
  967MOL0     H27620   4.981   2.627   1.820  0.0471 -0.0185  1.0646
  967MOL0     H27621   5.038   2.787   1.857  0.5813  0.7679  1.0209
  967MOL0     H27622   4.870   2.621   2.015  0.5572  1.6712 -0.0162
  967MOL0     H27623   5.023   2.632   2.100  0.1893  1.7630  0.2737
  967MOL0     H27624   4.898   2.803   2.197  2.1980 -0.8167  0.8723
  967MOL0     H27625   4.840   2.865   2.042  2.1052  1.7783 -2.2268
  967MOL0     H27626   5.840   2.497   1.814 -0.6678  0.6149  1.1361
  967MOL0     H27627   6.034   2.374   1.803  0.6448 -0.7727  0.2079
  967MOL0     H27628   6.207   1.955   1.534  1.1266 -3.5335 -1.5369
  967MOL0     H27629   6.394   1.805   1.517 -2.4780 -0.7146 -0.3418
  967MOL0     H27630   6.828   1.234   1.293 -3.1214  0.6244 -0.1734
  967MOL0     H27631   6.690   1.231   1.090  2.0849  1.7621  1.0220
  967MOL0     H27632   6.542   1.226   0.662  2.1137 -1.8107  0.5664
  967MOL0     H27633   6.391   1.170   0.464  1.6587  1.3236  0.9994
  967MOL0     H27634   6.324   0.737   0.437 -1.3708 -0.3408  1.5535
  967MOL0     H27635   6.419   0.869   0.376 -1.4309  2.8838  0.2448
  967MOL0     H27636   6.278   0.771   0.201  3.4528  0.4411  1.1923
  967MOL0     H27637   6.137   0.843   0.274  0.2556 -0.2297  1.6488
  967MOL0     H27638   6.372   0.999   0.170 -0.2339 -0.9055  1.6687
  967MOL0     H27639   6.233   1.083   0.244  0.9187  2.2066 -3.5952
  967MOL0     H27640   6.211   1.102   0.008 -1.0283  1.2870  1.8361
  967MOL0     H27641   6.249   0.937  -0.037  2.7891  1.9994 -0.1095
  967MOL0     H27642   5.848   0.908   0.060 -0.3631  2.5995  2.7485
  967MOL0     H27643   6.279   0.812   0.692 -1.0537 -0.4694 -1.7652
  967MOL0     H27644   6.444   0.853   0.856 -1.8119  0.4886  1.2284
  968MOL0     O27645   2.676   5.960   9.380 -0.6039 -0.3283  0.7642
  968MOL0     C27646   2.663   5.860   9.310  0.3501 -0.2503  0.0665
  968MOL0     O27647   2.618   5.733   9.359  0.4280  0.0613 -0.5766
  968MOL0     C27648   2.552   5.729   9.476 -0.6648  0.2407 -0.2193
  968MOL0     C27649   2.415   5.715   9.478  1.1171  0.0340  0.2777
  968MOL0     C27650   2.355   5.709   9.607  0.5045  0.3604  1.0035
  968MOL0     C27651   2.425   5.712   9.725 -0.4771 -0.9446  1.0114
  968MOL0     O27652   2.374   5.685   9.844 -0.0880  0.6872 -0.2445
  968MOL0     C27653   2.365   5.789   9.941 -0.0817 -0.6342 -0.3210
  968MOL0     C27654   2.268   5.900   9.887  0.3991  0.2620  0.3565
  968MOL0     C27655   2.345   6.023   9.844 -0.5703 -0.0669  0.0801
  968MOL0     C27656   2.401   6.108   9.949 -0.1288  0.4987 -0.2839
  968MOL0     C27657   2.278   6.180  10.015 -0.3172  0.9632 -0.0080
  968MOL0     C27658   2.247   6.320   9.979  0.3257 -0.2179  0.5640
  968MOL0     C27659   2.343   6.421  10.028 -0.9724 -0.1499  0.2045
  968MOL0     C27660   2.302   6.547   9.947 -0.3836 -0.4063 -1.5921
  968MOL0     N27661   2.360   6.667   9.998 -0.0105  0.0553 -0.7394
  968MOL0     C27662   2.493   6.705   9.975  0.2712  0.3172  0.0450
  968MOL0     C27663   2.503   6.833  10.020  0.1596 -0.6308 -0.3491
  968MOL0     C27664   2.623   6.927  10.027  0.8348 -0.9513 -0.0930
  968MOL0     C27665   2.641   6.991   9.887 -1.1586  0.2568 -0.1236
  968MOL0     C27666   2.759   7.086   9.862 -0.2060  0.6017 -0.4225
  968MOL0     C27667   2.784   7.149   9.723 -0.6301  0.4906  1.2302
  968MOL0     O27668   2.679   7.242   9.707  0.4010  0.5278  0.3172
  968MOL0     C27669   2.661   7.310   9.589 -0.4616  0.8509  0.2873
  968MOL0     C27670   2.741   7.280   9.480 -0.3455 -0.0102  0.0846
  968MOL0     C27671   2.728   7.343   9.355  0.2677 -0.5186  0.8459
  968MOL0     C27672   2.620   7.428   9.337 -0.7061  0.6371  0.2974
  968MOL0     C27673   2.592   7.479   9.197  0.8562 -0.8517  0.0047
  968MOL0     O27674   2.483   7.567   9.189  0.2256 -0.2709  0.2183
  968MOL0     C27675   2.441   7.633   9.079 -0.5499  0.6397 -0.1556
  968MOL0     C27676   2.513   7.663   8.957  0.4022 -0.0930  1.3902
  968MOL0     C27677   2.449   7.725   8.854 -0.0111 -0.2557  0.0940
  968MOL0     C27678   2.318   7.769   8.869  0.5939  0.3449  0.7818
  968MOL0     O27679   2.261   7.839   8.758 -0.0554  0.4975  0.3619
  968MOL0     C27680   2.124   7.889   8.761 -0.2561 -0.9096 -0.0355
  968MOL0     C27681   2.016   7.772   8.744 -0.2777 -1.0933  0.1981
  968MOL0     C27682   1.869   7.816   8.760 -0.7789 -0.1494 -0.1851
  968MOL0     C27683   1.767   7.715   8.726  1.0691 -0.1518 -0.5234
  968MOL0     C27684   1.624   7.764   8.685  0.3838  0.3665  1.2150
  968MOL0     C27685   1.522   7.798   8.801 -0.5189  0.0265  0.1599
  968MOL0     C27686   1.377   7.747   8.792 -1.2622  0.0571 -0.4055
  968MOL0     C27687   1.294   7.775   8.914  0.0557  0.2744  1.1473
  968MOL0    Cl27688   1.263   7.948   8.928 -0.9064  0.7408  0.2497
  968MOL0     C27689   2.250   7.753   8.993 -1.1584 -0.2918  0.1373
  968MOL0     C27690   2.309   7.682   9.099  0.2058  0.1184 -0.8031
  968MOL0     O27691   2.662   7.445   9.104 -0.4236 -0.0259 -0.2441
  968MOL0     C27692   2.540   7.466   9.444  0.5697 -0.2120 -0.5274
  968MOL0     C27693   2.569   7.412   9.572 -0.5694  0.3641  0.2369
  968MOL0     N27694   2.387   6.874  10.063  0.2108  0.3949  0.4816
  968MOL0     N27695   2.297   6.780  10.045 -0.5590 -0.3787  0.5835
  968MOL0     C27696   2.565   5.724   9.714  0.3349  0.0161 -0.0714
  968MOL0     C27697   2.628   5.735   9.589 -0.2577  0.7994  0.1991
  968MOL0     C27698   2.689   5.876   9.172  0.0819 -0.9647  0.3794
  968MOL0     C27699   2.657   5.770   9.086 -0.2706 -0.3040  0.3455
  968MOL0     C27700   2.687   5.783   8.946  0.4791  0.6763 -0.6697
  968MOL0     C27701   2.747   5.895   8.898 -0.9710  0.8866  0.2398
  968MOL0     O27702   2.775   5.910   8.768  0.5590 -0.4245 -0.3423
  968MOL0     C27703   2.874   6.004   8.732  0.6404  1.0762  0.1248
  968MOL0     C27704   3.006   5.937   8.771 -0.9430  0.0416 -0.3959
  968MOL0     C27705   3.117   6.035   8.736  0.5467 -0.6493 -0.0668
  968MOL0     C27706   3.109   6.096   8.600  0.3414 -0.4298 -0.0651
  968MOL0     C27707   3.234   6.172   8.585  0.7522 -0.8167 -0.2709
  968MOL0     C27708   3.349   6.217   8.587 -0.3559 -0.3590 -0.2893
  968MOL0     C27709   2.785   5.995   8.993 -0.1115  0.1422  0.1393
  968MOL0     C27710   2.751   5.992   9.123  0.5411  0.1907 -0.7056
  968MOL0     H27711   2.365   5.712   9.381 -1.0610 -0.4682  1.3436
  968MOL0     H27712   2.248   5.693   9.619 -0.0715  1.5757 -1.6726
  968MOL0     H27713   2.467   5.810   9.975  1.3549 -4.5294 -1.7007
  968MOL0     H27714   2.323   5.731  10.024  3.3214 -0.8253  1.4361
  968MOL0     H27715   2.201   5.924   9.970  0.6145  0.4820  0.4691
  968MOL0     H27716   2.211   5.864   9.801  0.5201  2.5126 -0.7605
  968MOL0     H27717   2.285   6.081   9.772  3.8016 -0.9498 -4.8978
  968MOL0     H27718   2.427   5.994   9.777  0.8971  2.2189  0.7519
  968MOL0     H27719   2.461   6.044  10.014  0.1802 -4.5604 -4.8470
  968MOL0     H27720   2.461   6.191   9.910  0.1036 -0.0405 -1.1227
  968MOL0     H27721   2.319   6.180  10.117  2.5142  3.6863 -0.9774
  968MOL0     H27722   2.186   6.122  10.009 -0.1490  0.7677 -0.8696
  968MOL0     H27723   2.152   6.344  10.026 -1.4777 -3.8579 -0.8493
  968MOL0     H27724   2.240   6.326   9.870  0.8182  2.0409  0.6087
  968MOL0     H27725   2.350   6.435  10.136  3.4906 -1.3326  0.2606
  968MOL0     H27726   2.446   6.397   9.999 -1.2016 -0.3138 -0.5076
  968MOL0     H27727   2.193   6.553   9.953 -0.2646  2.4419 -0.6317
  968MOL0     H27728   2.339   6.528   9.846  2.1938 -2.1833 -0.4326
  968MOL0     H27729   2.562   6.639   9.924 -0.0610  1.2463 -1.6937
  968MOL0     H27730   2.714   6.875  10.056 -0.0624 -3.3055 -1.2636
  968MOL0     H27731   2.598   7.009  10.095  1.0131  0.4671 -1.6583
  968MOL0     H27732   2.548   7.043   9.861 -0.1699  2.1211 -0.1318
  968MOL0     H27733   2.661   6.902   9.827  5.0250  0.9795  0.2263
  968MOL0     H27734   2.758   7.166   9.937  2.7604 -0.3334  0.7533
  968MOL0     H27735   2.852   7.032   9.882  0.7932  0.6745 -4.1878
  968MOL0     H27736   2.777   7.075   9.643  1.4934  2.3827 -0.8252
  968MOL0     H27737   2.888   7.182   9.713 -0.4841  0.2235  1.8189
  968MOL0     H27738   2.822   7.210   9.498  0.4427  0.3666 -1.7567
  968MOL0     H27739   2.798   7.329   9.273 -1.3732 -1.2931 -0.5005
  968MOL0     H27740   2.613   7.625   8.939  0.3779 -0.8675  2.7659
  968MOL0     H27741   2.498   7.764   8.765  0.7563 -0.8187  0.2592
  968MOL0     H27742   2.112   7.967   8.685  2.1610 -0.5765 -0.1490
  968MOL0     H27743   2.101   7.951   8.849  1.1779 -1.7055  0.9412
  968MOL0     H27744   2.029   7.694   8.820 -0.8517 -0.6746  0.7300
  968MOL0     H27745   2.026   7.725   8.646 -4.7770  2.4738 -2.3405
  968MOL0     H27746   1.849   7.905   8.699  0.4948  0.3345  0.0709
  968MOL0     H27747   1.857   7.858   8.860 -1.2646  1.4308 -0.8599
  968MOL0     H27748   1.808   7.653   8.645  0.6770  0.7532 -1.4392
  968MOL0     H27749   1.747   7.648   8.810 -3.4731  2.4533  0.8424
  968MOL0     H27750   1.574   7.691   8.620 -0.0811  1.3431  0.4637
  968MOL0     H27751   1.651   7.846   8.619 -0.9503 -0.7581 -0.8333
  968MOL0     H27752   1.517   7.907   8.800 -0.4844  0.0285  0.2318
  968MOL0     H27753   1.560   7.763   8.897 -2.4084  0.1594  0.9842
  968MOL0     H27754   1.330   7.802   8.710 -4.7967 -1.5578  0.3062
  968MOL0     H27755   1.381   7.638   8.781  1.0054 -0.1622  1.7716
  968MOL0     H27756   1.340   7.737   9.006 -0.2546 -0.2862  1.0797
  968MOL0     H27757   1.199   7.724   8.894  0.3622  0.2521 -0.3501
  968MOL0     H27758   2.148   7.790   9.000 -0.9674  0.3783 -0.5691
  968MOL0     H27759   2.245   7.668   9.185 -1.6153 -3.9537 -2.5381
  968MOL0     H27760   2.458   7.536   9.431 -1.9039 -3.2706 -3.5830
  968MOL0     H27761   2.507   7.438   9.657 -2.3292  0.8825 -1.1320
  968MOL0     H27762   2.615   5.710   9.809 -1.4313 -0.6196  0.8107
  968MOL0     H27763   2.737   5.743   9.586 -0.3836  2.9778 -0.7547
  968MOL0     H27764   2.605   5.679   9.114 -2.3950  0.4238 -1.0826
  968MOL0     H27765   2.652   5.712   8.872 -0.7061  1.1559 -0.5880
  968MOL0     H27766   2.869   6.100   8.783  0.7306 -0.3964  3.1272
  968MOL0     H27767   2.871   6.019   8.624  4.7033 -1.2345 -0.5210
  968MOL0     H27768   3.008   5.915   8.878  0.2584 -0.3196 -0.4847
  968MOL0     H27769   3.033   5.847   8.716  0.5530 -0.0461  0.4225
  968MOL0     H27770   3.213   5.982   8.738  1.4994  0.9984 -0.4024
  968MOL0     H27771   3.129   6.114   8.810  1.8791  0.1631 -1.1021
  968MOL0     H27772   3.106   6.013   8.528  4.0614  0.2179 -1.1932
  968MOL0     H27773   3.017   6.154   8.590 -2.3212 -4.5582 -2.8185
  968MOL0     H27774   3.451   6.249   8.582  0.3678 -2.5930 -2.0672
  968MOL0     H27775   2.829   6.090   8.961  2.4838 -1.8498 -2.8123
  968MOL0     H27776   2.762   6.083   9.181  2.9508  0.4469 -1.4685
  969MOL0     O27777   0.972  11.236   8.037 -0.4986 -0.2884  0.3582
  969MOL0     C27778   1.005  11.157   8.124  1.1080 -0.0170  0.3363
  969MOL0     O27779   1.008  11.028   8.110  0.2985  0.1242 -0.2802
  969MOL0     C27780   0.954  10.959   8.003 -1.4541  0.4537 -0.2389
  969MOL0     C27781   1.038  10.931   7.886  0.2711 -0.0036  0.3461
  969MOL0     C27782   0.983  10.868   7.777 -0.2607  0.0677 -0.1552
  969MOL0     C27783   0.844  10.849   7.772  0.1979  0.5939  0.6156
  969MOL0     O27784   0.808  10.791   7.655  0.3223 -0.3932  0.1378
  969MOL0     C27785   0.687  10.708   7.642  1.0556  0.3686 -1.0790
  969MOL0     C27786   0.676  10.652   7.497 -0.5123 -0.6323 -0.9045
  969MOL0     C27787   0.688  10.761   7.388  0.3588 -0.0874  0.7643
  969MOL0     C27788   0.623  10.712   7.250  0.5978  0.6899 -0.7849
  969MOL0     C27789   0.635  10.813   7.140  0.9148 -0.1006 -0.2646
  969MOL0     C27790   0.554  10.767   7.009  0.0560  0.6638 -0.1417
  969MOL0     C27791   0.572  10.864   6.894 -0.0078  0.3262  0.0917
  969MOL0     C27792   0.506  10.825   6.767  0.1096  0.5179 -0.1299
  969MOL0     N27793   0.355  10.835   6.782 -0.6575 -0.2077 -1.2073
  969MOL0     C27794   0.278  10.947   6.779 -0.1441  0.0196 -0.1291
  969MOL0     C27795   0.152  10.904   6.798 -0.0319 -1.3944  1.4579
  969MOL0     C27796   0.035  11.001   6.810  0.4794 -0.3901  0.0166
  969MOL0     C27797  -0.098  10.932   6.763  0.0480  0.8019 -0.2799
  969MOL0     C27798  -0.110  10.934   6.610  0.2170  0.2405 -0.0324
  969MOL0     C27799  -0.228  10.844   6.563  0.6883  0.1396 -0.1392
  969MOL0     O27800  -0.239  10.854   6.426 -0.0380 -0.7023 -0.4225
  969MOL0     C27801  -0.161  10.788   6.344  0.1442  0.3018  1.2323
  969MOL0     C27802  -0.059  10.695   6.381  0.7333  0.4972 -0.1064
  969MOL0     C27803   0.025  10.643   6.280  0.8098  0.8979 -0.2797
  969MOL0     C27804   0.010  10.672   6.149 -0.4330  0.5379  0.6948
  969MOL0     C27805   0.116  10.653   6.050 -1.0116  0.7104  0.0271
  969MOL0     O27806   0.218  10.569   6.086  0.5155 -0.0377 -0.0204
  969MOL0     C27807   0.352  10.574   6.041 -0.0965  0.1037 -0.5506
  969MOL0     C27808   0.425  10.685   5.996 -0.5949 -0.5209  0.0092
  969MOL0     C27809   0.560  10.677   5.964 -0.1699  0.0775  0.1352
  969MOL0     C27810   0.628  10.550   5.980 -0.0656 -0.8208 -1.1073
  969MOL0     O27811   0.757  10.527   5.940  0.8444  0.8371 -0.2752
  969MOL0     C27812   0.822  10.611   5.849 -0.6807  0.2517  0.8209
  969MOL0     C27813   0.940  10.536   5.759  0.8252  0.6349 -0.6612
  969MOL0     C27814   0.996  10.616   5.637 -0.4620 -0.2733  0.0670
  969MOL0     C27815   1.078  10.521   5.545  0.6628 -0.2405 -0.2648
  969MOL0     C27816   1.163  10.600   5.435  0.2907  0.1426  0.0839
  969MOL0     C27817   1.274  10.687   5.497 -1.0295  0.0341  0.8736
  969MOL0     C27818   1.378  10.741   5.393  0.2303  0.5106 -0.9627
  969MOL0     C27819   1.483  10.817   5.469 -0.0965  0.6646  0.4316
  969MOL0    Cl27820   1.555  10.921   5.348 -0.0901 -0.5645 -0.1838
  969MOL0     C27821   0.554  10.439   6.025  0.2345  0.3282  0.2228
  969MOL0     C27822   0.419  10.456   6.055  0.0123  0.3975 -0.5472
  969MOL0     O27823   0.116  10.726   5.952 -0.2527 -0.5577 -0.1640
  969MOL0     C27824  -0.100  10.752   6.108  0.9688 -0.0772  0.8128
  969MOL0     C27825  -0.191  10.803   6.208  0.9633 -0.0075 -0.3188
  969MOL0     N27826   0.156  10.772   6.825 -0.1282  0.2657  0.3909
  969MOL0     N27827   0.281  10.736   6.830  0.2062 -0.3136  0.2825
  969MOL0     C27828   0.770  10.867   7.890 -1.1781  0.7902  0.2840
  969MOL0     C27829   0.826  10.911   8.004 -1.0311 -1.2100  0.4628
  969MOL0     C27830   1.061  11.212   8.246 -0.3331 -0.6911 -0.2396
  969MOL0     C27831   1.098  11.129   8.347  0.2010  0.2655  0.0380
  969MOL0     C27832   1.135  11.181   8.468  0.0233 -1.2131 -0.8798
  969MOL0     C27833   1.175  11.318   8.488  0.0731 -0.2877 -1.0021
  969MOL0     O27834   1.207  11.366   8.615 -0.7016 -0.1134  0.2818
  969MOL0     C27835   1.336  11.345   8.665  0.3048 -1.2796 -2.2299
  969MOL0     C27836   1.378  11.195   8.677  0.1425 -0.3185 -0.8082
  969MOL0     C27837   1.315  11.136   8.811 -0.0062 -0.5431 -0.1001
  969MOL0     C27838   1.369  10.999   8.832  0.0548 -0.3275 -0.4047
  969MOL0     C27839   1.348  10.945   8.958  0.4746 -0.4061 -0.5203
  969MOL0     C27840   1.310  10.909   9.064 -0.4269  0.4703 -0.7125
  969MOL0     C27841   1.145  11.402   8.379 -0.1480 -0.3426  0.0174
  969MOL0     C27842   1.092  11.347   8.262  1.1188 -0.0316  0.6409
  969MOL0     H27843   1.141  10.964   7.898 -0.5387  2.3439  1.2196
  969MOL0     H27844   1.051  10.850   7.695  1.0147 -0.3051  0.9458
  969MOL0     H27845   0.598  10.767   7.668 -1.2970 -2.3267 -2.3988
  969MOL0     H27846   0.683  10.624   7.711 -2.0762  0.7078 -0.6935
  969MOL0     H27847   0.586  10.591   7.498  0.5099 -2.2694  1.5922
  969MOL0     H27848   0.763  10.586   7.498 -0.5961 -0.7640  0.7409
  969MOL0     H27849   0.786  10.808   7.382  0.6771 -0.7161  0.9039
  969MOL0     H27850   0.618  10.834   7.431  0.0189  0.2900 -0.3973
  969MOL0     H27851   0.679  10.626   7.211  0.5903  1.6111 -2.9312
  969MOL0     H27852   0.519  10.688   7.275  1.2019  1.7708  3.7451
  969MOL0     H27853   0.741  10.825   7.117  0.5686  3.1684 -0.5691
  969MOL0     H27854   0.600  10.905   7.187  2.4460 -0.6846  2.1911
  969MOL0     H27855   0.446  10.752   7.018 -0.4627  0.7901 -4.4196
  969MOL0     H27856   0.596  10.673   6.975 -0.5300  0.2876  0.1539
  969MOL0     H27857   0.533  10.963   6.922 -2.9023 -0.4836 -0.6900
  969MOL0     H27858   0.677  10.868   6.867  0.5404 -0.0549  2.0003
  969MOL0     H27859   0.538  10.728   6.729  0.3541  0.1430  0.9991
  969MOL0     H27860   0.527  10.894   6.685 -0.5362 -1.1435 -1.7675
  969MOL0     H27861   0.301  11.053   6.777  1.9208 -0.3764 -2.6552
  969MOL0     H27862   0.061  11.090   6.752  2.5606 -0.9683 -0.0170
  969MOL0     H27863   0.025  11.030   6.915 -1.2043 -2.9861  0.6563
  969MOL0     H27864  -0.187  10.970   6.814  1.2000  0.9913  1.6947
  969MOL0     H27865  -0.098  10.827   6.793 -2.1408  0.7826 -0.2083
  969MOL0     H27866  -0.141  11.031   6.571 -3.3929 -0.1416  1.4770
  969MOL0     H27867  -0.019  10.889   6.571 -0.5268 -3.0008  1.6158
  969MOL0     H27868  -0.318  10.875   6.617 -0.4500 -3.7532  0.4616
  969MOL0     H27869  -0.215  10.741   6.595  3.2521  0.5699  0.4179
  969MOL0     H27870  -0.041  10.682   6.487 -2.9293  0.9764  0.7152
  969MOL0     H27871   0.110  10.591   6.324  1.4229  3.3527  1.6878
  969MOL0     H27872   0.376  10.781   6.011 -2.7939 -1.7976  1.8421
  969MOL0     H27873   0.614  10.763   5.926 -2.8436  0.7590 -2.5503
  969MOL0     H27874   0.874  10.675   5.921  1.5831 -1.0063  0.4086
  969MOL0     H27875   0.757  10.665   5.778  0.0915 -0.3635 -0.3898
  969MOL0     H27876   0.891  10.448   5.716  3.8305 -3.2791  3.0882
  969MOL0     H27877   1.014  10.501   5.831  1.7416  0.7337 -1.5398
  969MOL0     H27878   1.061  10.686   5.690  2.6070 -2.4793 -0.5256
  969MOL0     H27879   0.921  10.670   5.579  0.3368  0.4194 -0.3326
  969MOL0     H27880   1.144  10.459   5.606  0.3448  2.0643  2.6585
  969MOL0     H27881   1.015  10.455   5.485  0.3936  1.7052 -2.2819
  969MOL0     H27882   1.102  10.667   5.375  3.0674  1.7874 -1.0425
  969MOL0     H27883   1.204  10.530   5.362 -1.8233 -0.8575 -0.2099
  969MOL0     H27884   1.335  10.619   5.558  2.4116  0.6716 -1.5567
  969MOL0     H27885   1.239  10.779   5.545 -1.9725  1.7577 -2.7643
  969MOL0     H27886   1.416  10.655   5.337  1.0155 -0.7071  1.3156
  969MOL0     H27887   1.337  10.816   5.324  0.9380  1.8670  0.0398
  969MOL0     H27888   1.553  10.739   5.502 -1.6453 -1.0247 -0.0833
  969MOL0     H27889   1.446  10.880   5.551 -1.0930 -0.7045  1.0790
  969MOL0     H27890   0.599  10.341   6.030 -2.4823 -1.0536 -0.5469
  969MOL0     H27891   0.365  10.375   6.103  0.5797  0.9202  1.0275
  969MOL0     H27892  -0.117  10.770   6.002 -3.6881  1.7133  1.6547
  969MOL0     H27893  -0.277  10.864   6.183  0.6769  0.1920  1.0481
  969MOL0     H27894   0.662  10.856   7.897 -1.2375  0.7957 -0.5373
  969MOL0     H27895   0.763  10.936   8.090  0.1946  0.6764  0.8767
  969MOL0     H27896   1.071  11.024   8.344 -1.6957  0.6941  0.7953
  969MOL0     H27897   1.145  11.097   8.536 -0.1959 -1.3183 -0.9782
  969MOL0     H27898   1.343  11.403   8.758 -0.5890 -0.3569 -2.7209
  969MOL0     H27899   1.417  11.398   8.613 -0.3050  1.1104 -0.9057
  969MOL0     H27900   1.359  11.135   8.588  0.9579  1.0034 -1.9048
  969MOL0     H27901   1.485  11.196   8.697  0.1631  0.2642 -0.9224
  969MOL0     H27902   1.206  11.135   8.800  0.0633  1.8102 -1.8849
  969MOL0     H27903   1.349  11.204   8.890  1.2992 -2.3154  0.9261
  969MOL0     H27904   1.319  10.938   8.756  1.7723 -0.2259 -1.6787
  969MOL0     H27905   1.476  10.989   8.813  0.1304  2.5649 -2.0180
  969MOL0     H27906   1.272  10.878   9.159  0.3980  3.9544  0.8840
  969MOL0     H27907   1.151  11.511   8.375 -1.7645 -0.2658 -2.0965
  969MOL0     H27908   1.069  11.410   8.176  0.0874 -2.1310 -0.7102
  970MOL0     O27909   9.432  10.079  10.654  0.3703  0.5367 -0.5330
  970MOL0     C27910   9.321  10.131  10.642  0.2580 -0.3569  0.3282
  970MOL0     O27911   9.194  10.083  10.686  0.3200  0.7636 -0.9003
  970MOL0     C27912   9.201   9.971  10.771  1.6106 -0.4216 -0.4475
  970MOL0     C27913   9.263   9.855  10.750  0.4375 -0.3768 -0.5463
  970MOL0     C27914   9.269   9.746  10.836  0.7783  0.6674  0.0101
  970MOL0     C27915   9.190   9.750  10.952 -0.1036 -0.0495  0.2563
  970MOL0     O27916   9.178   9.638  11.037  0.3537 -0.0263 -0.2020
  970MOL0     C27917   9.253   9.517  11.008 -0.0317 -0.3758  0.4747
  970MOL0     C27918   9.203   9.396  11.097 -0.0777 -0.5026 -0.5889
  970MOL0     C27919   9.260   9.410  11.240  0.2509 -0.3481 -0.2404
  970MOL0     C27920   9.237   9.279  11.319 -0.1786 -1.2266  0.5319
  970MOL0     C27921   9.180   9.299  11.457 -0.0119 -0.7229 -0.1335
  970MOL0     C27922   9.199   9.170  11.541  0.5703 -1.0314 -0.2536
  970MOL0     C27923   9.097   9.164  11.655  1.0275 -0.8687  0.1656
  970MOL0     C27924   9.090   9.302  11.728  0.0152  0.5709  0.4431
  970MOL0     N27925   9.096   9.288  11.871  0.1053 -0.5632  0.3317
  970MOL0     C27926   9.194   9.226  11.935 -1.4160 -0.4084  0.5535
  970MOL0     C27927   9.177   9.241  12.060  0.2234 -0.8805 -0.6930
  970MOL0     C27928   9.281   9.196  12.150  0.5492 -0.4258  0.0269
  970MOL0     C27929   9.231   9.075  12.232 -0.2410  0.4867  0.2378
  970MOL0     C27930   9.349   9.000  12.297  0.7923  0.4452  0.0378
  970MOL0     C27931   9.304   8.866  12.356  0.4580  0.1070 -0.6234
  970MOL0     O27932   9.428   8.825  12.418  0.1785  0.1831  0.4865
  970MOL0     C27933   9.453   8.701  12.466  0.1756 -0.2720  0.7528
  970MOL0     C27934   9.347   8.613  12.489 -0.6274  0.0039  0.8221
  970MOL0     C27935   9.375   8.485  12.535 -0.6813 -0.4164  0.0700
  970MOL0     C27936   9.505   8.447  12.571 -0.0287  0.2021 -0.3427
  970MOL0     C27937   9.537   8.307  12.617 -1.3594  0.0427 -0.6232
  970MOL0     O27938   9.671   8.275  12.642  0.0254  0.6230 -0.1256
  970MOL0     C27939   9.711   8.149  12.676  0.3743  0.5221  0.1122
  970MOL0     C27940   9.784   8.073  12.585  0.6799 -0.3238  0.4365
  970MOL0     C27941   9.812   7.944  12.609  0.4573 -0.8782  0.9930
  970MOL0     C27942   9.776   7.884  12.727  0.9996 -0.1455  0.3957
  970MOL0     O27943   9.829   7.757  12.739  0.3182 -0.6095  0.5079
  970MOL0     C27944   9.895   7.724  12.862 -0.8636 -0.4363 -0.0667
  970MOL0     C27945  10.021   7.811  12.884  0.1739  0.0952 -0.2723
  970MOL0     C27946  10.092   7.775  13.013 -0.2485  0.4185  0.6801
  970MOL0     C27947  10.174   7.651  13.014 -0.4065  0.5229 -0.4528
  970MOL0     C27948  10.313   7.665  12.937  1.1730  0.4588  0.0936
  970MOL0     C27949  10.375   7.537  12.902  0.2504 -1.1127 -0.2046
  970MOL0     C27950  10.503   7.536  12.810  0.8992  0.8517  1.3626
  970MOL0     C27951  10.565   7.399  12.795  0.4264  1.0685  0.1461
  970MOL0    Cl27952  10.468   7.278  12.714 -0.0770  0.8310  0.5538
  970MOL0     C27953   9.693   7.954  12.815 -1.6995  0.5853  0.5054
  970MOL0     C27954   9.664   8.087  12.794 -0.3462  0.1227  0.4098
  970MOL0     O27955   9.441   8.237  12.639 -0.0071 -0.5636  0.7528
  970MOL0     C27956   9.615   8.528  12.544 -0.2502 -0.4493  1.6461
  970MOL0     C27957   9.589   8.652  12.481  0.6140 -0.2847 -0.3978
  970MOL0     N27958   9.058   9.311  12.091 -0.5328 -0.2901  0.2837
  970MOL0     N27959   9.012   9.328  11.973  0.4556 -0.4074 -0.5980
  970MOL0     C27960   9.109   9.861  10.975 -0.2918 -0.4878 -0.4742
  970MOL0     C27961   9.129   9.972  10.895  0.3494 -0.5925  0.2029
  970MOL0     C27962   9.330  10.256  10.566  0.0500 -0.9544 -0.3251
  970MOL0     C27963   9.213  10.328  10.525  0.0484 -0.2400 -0.1497
  970MOL0     C27964   9.223  10.444  10.448  0.5247  0.1051  0.1356
  970MOL0     C27965   9.345  10.493  10.405 -1.2688 -0.0123  0.1435
  970MOL0     O27966   9.356  10.599  10.319  0.0008 -0.5687 -0.6580
  970MOL0     C27967   9.245  10.621  10.235  0.8475 -0.1372 -0.5309
  970MOL0     C27968   9.292  10.681  10.097  0.1177 -0.5663 -0.6059
  970MOL0     C27969   9.392  10.808  10.088 -0.9297 -0.2679  0.8473
  970MOL0     C27970   9.445  10.836   9.943  0.7422 -0.1364 -0.5593
  970MOL0     C27971   9.355  10.789   9.842 -0.6507 -0.2060  0.6662
  970MOL0     C27972   9.282  10.743   9.763 -0.1885  1.2900 -0.3134
  970MOL0     C27973   9.459  10.434  10.446  0.3285 -0.0192 -0.2669
  970MOL0     C27974   9.452  10.316  10.522 -0.1426  0.1071  0.1958
  970MOL0     H27975   9.301   9.830  10.652  0.4863  0.6755 -0.8095
  970MOL0     H27976   9.313   9.653  10.800 -0.1204 -0.8537  2.5635
  970MOL0     H27977   9.361   9.532  11.008  0.1668 -1.6921  0.6318
  970MOL0     H27978   9.227   9.483  10.907  2.6863 -0.6193 -0.2031
  970MOL0     H27979   9.236   9.305  11.045 -0.6480 -0.3579 -1.2142
  970MOL0     H27980   9.094   9.402  11.097 -0.0895  5.8869 -0.9065
  970MOL0     H27981   9.214   9.493  11.296 -0.9154 -1.9077  1.1961
  970MOL0     H27982   9.364   9.443  11.229  0.6689  0.1123  3.6828
  970MOL0     H27983   9.164   9.222  11.260  0.0469 -1.8449  0.8390
  970MOL0     H27984   9.333   9.228  11.329 -0.4201 -1.4330  2.1232
  970MOL0     H27985   9.076   9.331  11.470 -0.1264 -2.3891  5.7067
  970MOL0     H27986   9.248   9.375  11.496 -3.5371  1.7045  1.8512
  970MOL0     H27987   9.302   9.173  11.580 -0.5727 -0.6503  3.0285
  970MOL0     H27988   9.174   9.085  11.477 -2.4536 -1.1128  0.8763
  970MOL0     H27989   8.999   9.144  11.611  0.4376  2.4469 -0.3201
  970MOL0     H27990   9.127   9.089  11.728 -0.2114 -2.3744 -0.8214
  970MOL0     H27991   8.993   9.352  11.713  1.0688  3.8865  3.2974
  970MOL0     H27992   9.170   9.370  11.696  2.2610 -0.6140  3.1991
  970MOL0     H27993   9.277   9.177  11.885  0.6497  2.4183  0.9532
  970MOL0     H27994   9.298   9.267  12.231 -1.1835  0.2202 -0.1467
  970MOL0     H27995   9.375   9.178  12.096  0.6414 -1.4593  0.4983
  970MOL0     H27996   9.196   8.994  12.168  1.5365 -1.8011  1.9886
  970MOL0     H27997   9.164   9.108  12.311 -4.2657  1.4283 -3.2365
  970MOL0     H27998   9.427   9.006  12.221  0.2886  2.7408 -0.3732
  970MOL0     H27999   9.389   9.063  12.377 -2.4521  3.7896 -0.6559
  970MOL0     H28000   9.257   8.814  12.272 -2.7121  1.8249 -0.0789
  970MOL0     H28001   9.224   8.874  12.431  1.3656 -0.7577  0.4613
  970MOL0     H28002   9.243   8.636  12.468  0.3036  1.4901 -2.7750
  970MOL0     H28003   9.302   8.409  12.561  1.4782 -1.6387  3.1747
  970MOL0     H28004   9.811   8.129  12.496 -2.4491  2.8925  1.2785
  970MOL0     H28005   9.875   7.894  12.536  0.1080  1.7950 -1.3144
  970MOL0     H28006   9.923   7.618  12.853 -1.5363 -0.6367  0.1866
  970MOL0     H28007   9.826   7.731  12.946 -1.2716  4.4340 -0.5612
  970MOL0     H28008   9.984   7.912  12.904  1.3748  0.6508 -0.7070
  970MOL0     H28009  10.087   7.812  12.797  3.6844 -0.1765  2.1431
  970MOL0     H28010  10.011   7.754  13.083  0.5100 -2.3870  0.8522
  970MOL0     H28011  10.155   7.858  13.046  0.9202 -0.5800  1.0526
  970MOL0     H28012  10.195   7.631  13.119 -0.7493  4.1663  0.4357
  970MOL0     H28013  10.115   7.570  12.968 -0.9009  1.3034 -1.2135
  970MOL0     H28014  10.374   7.725  13.006 -1.4089  0.5225  2.4869
  970MOL0     H28015  10.292   7.713  12.841  2.6269 -1.3792 -1.2242
  970MOL0     H28016  10.305   7.472  12.848 -0.0353 -0.8186 -0.1914
  970MOL0     H28017  10.403   7.482  12.993  0.2366 -0.1428  0.3927
  970MOL0     H28018  10.483   7.582  12.713  3.3463  1.6280  1.1646
  970MOL0     H28019  10.569   7.611  12.855  0.6582  3.2379 -1.9552
  970MOL0     H28020  10.593   7.364  12.895  0.6262 -1.9136 -0.8559
  970MOL0     H28021  10.666   7.414  12.755  0.8110  0.0552  0.6798
  970MOL0     H28022   9.674   7.901  12.908 -1.0911 -2.5702 -1.0363
  970MOL0     H28023   9.603   8.134  12.871 -2.3442 -2.0688  0.2646
  970MOL0     H28024   9.716   8.507  12.576  0.3731  2.8850  2.2301
  970MOL0     H28025   9.659   8.725  12.443 -0.8698  0.0411 -2.7123
  970MOL0     H28026   9.042   9.876  11.060  2.2497 -2.7787  2.1840
  970MOL0     H28027   9.076  10.063  10.918  3.4115  1.3195  0.2910
  970MOL0     H28028   9.117  10.286  10.553  0.7479 -4.1333 -2.8986
  970MOL0     H28029   9.131  10.499  10.433 -0.6876 -1.7862  0.2288
  970MOL0     H28030   9.169  10.686  10.278  0.6087 -1.3036  0.9166
  970MOL0     H28031   9.186  10.530  10.219  0.5654 -1.2655  4.7897
  970MOL0     H28032   9.336  10.605  10.032  0.0392  0.5331 -1.9735
  970MOL0     H28033   9.206  10.722  10.044  0.4216  0.0390 -0.6360
  970MOL0     H28034   9.471  10.793  10.162 -0.0398  1.1338  0.2066
  970MOL0     H28035   9.337  10.891  10.133 -0.7585  0.6299 -0.5565
  970MOL0     H28036   9.462  10.944   9.936  4.2119 -0.6224 -1.2390
  970MOL0     H28037   9.543  10.793   9.921  0.9415  0.6322 -1.2355
  970MOL0     H28038   9.216  10.698   9.691 -0.2360  2.0255 -0.7377
  970MOL0     H28039   9.553  10.475  10.412  0.5246  2.6707  2.9280
  970MOL0     H28040   9.542  10.271  10.562  0.2727  0.5423 -0.2440
  971MOL0     O28041   4.864  10.763   4.074 -0.5486 -0.4490  0.1986
  971MOL0     C28042   4.918  10.740   4.183 -0.0468  0.0231  0.4108
  971MOL0     O28043   5.028  10.807   4.236  0.9932  0.1290 -0.0466
  971MOL0     C28044   5.109  10.896   4.155  0.5235  0.2042 -0.3240
  971MOL0     C28045   5.053  10.974   4.050 -0.8349  0.1000  0.7779
  971MOL0     C28046   5.135  11.070   3.991  0.1451 -0.4936  1.3648
  971MOL0     C28047   5.271  11.093   4.027 -0.7298 -0.5879  0.4093
  971MOL0     O28048   5.361  11.191   3.973  0.2798 -0.4966 -0.0279
  971MOL0     C28049   5.335  11.238   3.843 -0.0508 -0.5448 -0.3348
  971MOL0     C28050   5.429  11.354   3.834  0.6904 -0.1642 -0.6899
  971MOL0     C28051   5.399  11.444   3.727 -0.5619 -0.5807 -1.1350
  971MOL0     C28052   5.381  11.370   3.593  0.8284  0.2623 -0.7588
  971MOL0     C28053   5.421  11.458   3.475  1.0546 -0.3926 -0.7012
  971MOL0     C28054   5.318  11.569   3.427 -0.1485 -0.0803 -0.1073
  971MOL0     C28055   5.351  11.595   3.276 -0.1218 -0.3330 -0.7142
  971MOL0     C28056   5.468  11.701   3.275  0.2533  0.3635  0.1831
  971MOL0     N28057   5.525  11.710   3.135  0.3160 -0.7843  0.4593
  971MOL0     C28058   5.607  11.619   3.074 -0.4252 -0.4431  0.6429
  971MOL0     C28059   5.644  11.687   2.959 -1.3389 -0.5286  0.0687
  971MOL0     C28060   5.733  11.620   2.854 -0.0018 -0.9588 -0.1834
  971MOL0     C28061   5.664  11.517   2.775  0.2722  0.4345  0.6271
  971MOL0     C28062   5.753  11.431   2.691 -0.4183  0.2751  0.1613
  971MOL0     C28063   5.823  11.512   2.581  0.3018  0.2433 -0.0566
  971MOL0     O28064   5.938  11.575   2.630 -0.1647  0.3786 -0.6810
  971MOL0     C28065   6.013  11.644   2.540  1.2542  0.1033  1.3092
  971MOL0     C28066   5.960  11.691   2.417 -0.1796 -0.0374  0.3595
  971MOL0     C28067   6.035  11.781   2.335  0.3765 -0.3484  0.1253
  971MOL0     C28068   6.168  11.823   2.368  0.0543  1.4246  0.2500
  971MOL0     C28069   6.248  11.896   2.265 -0.4890 -0.2734 -1.1380
  971MOL0     O28070   6.179  11.942   2.152 -0.3370 -0.6344  0.2900
  971MOL0     C28071   6.240  12.039   2.068  0.6694 -0.6400 -0.6663
  971MOL0     C28072   6.273  12.013   1.934 -0.1225  0.7055 -0.2106
  971MOL0     C28073   6.353  12.101   1.868  0.0564 -0.2865  0.8702
  971MOL0     C28074   6.386  12.219   1.923  0.4971  0.0562  0.6480
  971MOL0     O28075   6.456  12.308   1.841  0.7172  0.0033 -0.7223
  971MOL0     C28076   6.579  12.264   1.792 -0.3130  0.1236  1.6960
  971MOL0     C28077   6.677  12.370   1.743 -0.1297  0.5594  0.1762
  971MOL0     C28078   6.601  12.480   1.663 -0.4353  0.3108  0.6208
  971MOL0     C28079   6.518  12.433   1.542  0.4219  0.4560 -0.5440
  971MOL0     C28080   6.599  12.358   1.439 -1.2884  0.3314 -0.4223
  971MOL0     C28081   6.513  12.265   1.342 -0.1392 -0.0099 -0.5066
  971MOL0     C28082   6.424  12.335   1.233  0.4553  0.2432  0.2270
  971MOL0     C28083   6.361  12.220   1.151  0.3021  0.4838  0.6765
  971MOL0    Cl28084   6.487  12.123   1.058  0.5551 -0.0411  0.5001
  971MOL0     C28085   6.342  12.255   2.051  0.7709 -0.9406 -0.1782
  971MOL0     C28086   6.278  12.165   2.130  0.3836  0.2050  0.4470
  971MOL0     O28087   6.364  11.921   2.299  0.7170  0.4049  0.0505
  971MOL0     C28088   6.212  11.773   2.496  0.3172 -1.0761  0.4836
  971MOL0     C28089   6.137  11.686   2.573 -0.3048 -0.0005  0.6780
  971MOL0     N28090   5.581  11.805   2.951  0.2307 -0.9889  0.8392
  971MOL0     N28091   5.505  11.820   3.050  0.5203 -0.7361  0.1452
  971MOL0     C28092   5.323  11.002   4.115 -0.1815  0.1293 -0.3386
  971MOL0     C28093   5.241  10.915   4.188  0.1086 -0.3811  0.8451
  971MOL0     C28094   4.848  10.636   4.262  0.0434  0.0856 -0.0065
  971MOL0     C28095   4.913  10.599   4.378 -0.7960 -0.2262  0.7090
  971MOL0     C28096   4.860  10.529   4.483  0.0719  0.2814  0.0912
  971MOL0     C28097   4.729  10.488   4.470  0.0221  0.0742  0.0236
  971MOL0     O28098   4.685  10.401   4.563 -0.1879 -0.0759 -0.0287
  971MOL0     C28099   4.706  10.433   4.699  1.4339  0.2233  0.1935
  971MOL0     C28100   4.813  10.336   4.756  0.4977  0.9778 -0.8374
  971MOL0     C28101   4.764  10.275   4.877 -0.2678 -0.4442 -0.7970
  971MOL0     C28102   4.642  10.182   4.866  0.4493  0.0896  0.0050
  971MOL0     C28103   4.552  10.224   4.970 -0.5667 -0.1962  0.3272
  971MOL0     C28104   4.479  10.247   5.060 -0.5150  0.0104  0.3322
  971MOL0     C28105   4.655  10.513   4.347  0.2302 -0.6962  0.4778
  971MOL0     C28106   4.714  10.578   4.237 -0.0205  0.2932 -0.3457
  971MOL0     H28107   4.949  10.971   4.019 -0.5760 -2.3582 -0.0783
  971MOL0     H28108   5.094  11.132   3.912  3.9234 -0.8804 -1.1169
  971MOL0     H28109   5.234  11.278   3.842  0.0885 -0.1376  0.8533
  971MOL0     H28110   5.351  11.151   3.778 -1.9600 -2.4304  1.5356
  971MOL0     H28111   5.530  11.315   3.818  1.1286 -0.7312  2.6514
  971MOL0     H28112   5.435  11.401   3.932  3.7421 -2.2047  0.2236
  971MOL0     H28113   5.480  11.517   3.719 -0.3951 -0.8432 -1.9952
  971MOL0     H28114   5.314  11.508   3.751  1.5344  1.0442  2.8886
  971MOL0     H28115   5.455  11.290   3.600  2.3405  1.6998  0.2622
  971MOL0     H28116   5.281  11.324   3.596  1.7781 -1.8937  0.8573
  971MOL0     H28117   5.427  11.388   3.391  2.2069 -2.7586  1.2588
  971MOL0     H28118   5.521  11.491   3.504  1.5159 -1.9219 -0.4744
  971MOL0     H28119   5.303  11.655   3.492 -1.8412  0.3222 -0.9687
  971MOL0     H28120   5.220  11.520   3.420  0.8966 -2.0314 -4.2988
  971MOL0     H28121   5.377  11.507   3.217  0.9810  1.1827 -2.5924
  971MOL0     H28122   5.258  11.636   3.236 -0.1080  3.8394  2.7587
  971MOL0     H28123   5.545  11.666   3.344 -0.3197 -0.1168  0.5970
  971MOL0     H28124   5.440  11.801   3.309  1.2606  0.8365 -0.3520
  971MOL0     H28125   5.633  11.521   3.113 -2.0130 -1.2627 -0.2691
  971MOL0     H28126   5.817  11.574   2.908  0.5264  0.3312  0.1384
  971MOL0     H28127   5.767  11.700   2.787  0.2188 -0.7061  0.2262
  971MOL0     H28128   5.588  11.564   2.711 -1.2918  0.4915  2.4638
  971MOL0     H28129   5.610  11.450   2.841  2.4449 -2.7321 -0.5446
  971MOL0     H28130   5.826  11.378   2.753  1.8805  2.2240 -0.7006
  971MOL0     H28131   5.696  11.347   2.650 -1.5533  0.8631  0.5022
  971MOL0     H28132   5.750  11.582   2.540  0.7877  1.5940  1.2702
  971MOL0     H28133   5.841  11.450   2.492 -1.3029 -0.9584  0.4208
  971MOL0     H28134   5.855  11.679   2.394  0.2230 -4.1374 -0.0404
  971MOL0     H28135   5.977  11.818   2.252 -1.0271  0.2765  1.3350
  971MOL0     H28136   6.234  11.920   1.896 -0.5774  0.4694  0.7991
  971MOL0     H28137   6.391  12.080   1.769 -0.1745  0.3851  0.6388
  971MOL0     H28138   6.566  12.188   1.714 -1.7307  0.9587  1.0709
  971MOL0     H28139   6.625  12.208   1.874  0.9593  0.2562  1.0935
  971MOL0     H28140   6.750  12.326   1.674  0.1678  0.7090  0.3962
  971MOL0     H28141   6.731  12.419   1.824 -0.4229 -0.3991  0.9743
  971MOL0     H28142   6.680  12.549   1.636  2.0964 -2.8291 -0.6759
  971MOL0     H28143   6.528  12.520   1.734  0.2455 -1.8207  2.6649
  971MOL0     H28144   6.451  12.359   1.588  1.2599  0.5089  0.8173
  971MOL0     H28145   6.460  12.513   1.496  0.4684  1.6615  1.3946
  971MOL0     H28146   6.679  12.293   1.476 -0.9001  1.1209  0.1775
  971MOL0     H28147   6.659  12.424   1.375 -0.1562 -3.0087 -3.0826
  971MOL0     H28148   6.468  12.194   1.413  0.2640  0.8257  0.6206
  971MOL0     H28149   6.588  12.213   1.283  1.1639  2.1660 -0.8711
  971MOL0     H28150   6.351  12.396   1.286 -0.6002 -4.0214  4.3352
  971MOL0     H28151   6.476  12.404   1.166  0.2845  1.2763  1.1274
  971MOL0     H28152   6.294  12.255   1.072  1.7628 -2.4781 -2.1369
  971MOL0     H28153   6.316  12.145   1.218 -0.7782 -0.2062 -0.7640
  971MOL0     H28154   6.368  12.354   2.088 -1.7340 -0.4414  0.4650
  971MOL0     H28155   6.249  12.187   2.232  1.2259 -0.3139  0.8022
  971MOL0     H28156   6.311  11.806   2.527  0.3280 -0.2038 -0.4080
  971MOL0     H28157   6.165  11.659   2.675 -0.7633 -0.5983  0.6502
  971MOL0     H28158   5.423  11.016   4.154 -1.6112  0.2442  3.8069
  971MOL0     H28159   5.280  10.863   4.275  0.2686 -0.7580  0.5479
  971MOL0     H28160   5.010  10.633   4.414  0.3486 -2.6734  0.1478
  971MOL0     H28161   4.927  10.504   4.564 -2.1984 -0.2839  1.8874
  971MOL0     H28162   4.607  10.421   4.743  0.3190  0.3783 -2.1404
  971MOL0     H28163   4.742  10.533   4.726 -0.5467  1.3969 -1.2139
  971MOL0     H28164   4.831  10.260   4.680  0.3276 -1.1651  1.1466
  971MOL0     H28165   4.910  10.383   4.771  1.4325 -1.3510  1.0997
  971MOL0     H28166   4.756  10.359   4.947  2.7797 -0.4649 -0.2843
  971MOL0     H28167   4.854  10.224   4.913  1.3453 -0.3641 -4.2617
  971MOL0     H28168   4.598  10.199   4.767 -0.5373  0.6355  0.5258
  971MOL0     H28169   4.691  10.085   4.873  1.2366  0.6040  2.9921
  971MOL0     H28170   4.407  10.243   5.139 -0.5646  0.5789  0.3212
  971MOL0     H28171   4.556  10.468   4.342 -0.1549  0.2052 -0.6601
  971MOL0     H28172   4.662  10.587   4.142  1.5886 -1.8844 -1.5136
  972MOL0     O28173   9.764   8.752   7.488 -0.0655  0.0522 -0.1004
  972MOL0     C28174   9.834   8.744   7.393  0.0645 -0.2666  0.5085
  972MOL0     O28175   9.962   8.799   7.374  0.1530  0.1206 -0.3862
  972MOL0     C28176  10.005   8.912   7.431  0.2756 -0.0246  0.1285
  972MOL0     C28177  10.146   8.924   7.443  0.3531 -0.3658  0.3060
  972MOL0     C28178  10.194   9.049   7.489  0.5513  0.9223 -0.6955
  972MOL0     C28179  10.113   9.156   7.534  0.2202  0.3336  0.0889
  972MOL0     O28180  10.180   9.268   7.586 -0.4682  0.5098 -0.2963
  972MOL0     C28181  10.136   9.400   7.559  0.4025 -0.0739 -0.0917
  972MOL0     C28182  10.252   9.496   7.599  0.2729  0.0700  0.5960
  972MOL0     C28183  10.381   9.470   7.511  0.0496  0.6622 -0.1822
  972MOL0     C28184  10.506   9.555   7.545  0.6784 -0.7247 -0.5378
  972MOL0     C28185  10.493   9.701   7.585  0.5954  0.1078 -0.3743
  972MOL0     C28186  10.464   9.799   7.474 -0.5572 -0.7948 -0.2841
  972MOL0     C28187  10.441   9.935   7.526 -0.3807  0.8267  1.3369
  972MOL0     C28188  10.420  10.050   7.426  0.4161 -1.1777 -0.7352
  972MOL0     N28189  10.404  10.188   7.479  0.0637 -0.5979  0.4096
  972MOL0     C28190  10.287  10.250   7.486 -0.0902  0.8583 -0.4368
  972MOL0     C28191  10.309  10.373   7.535 -0.7670 -0.3918  0.4831
  972MOL0     C28192  10.205  10.479   7.566 -1.5473  0.5371 -1.0667
  972MOL0     C28193  10.108  10.498   7.448  0.1699  0.1561 -0.0671
  972MOL0     C28194  10.038  10.632   7.454  0.3871 -0.1311  0.5498
  972MOL0     C28195   9.946  10.631   7.579  0.7791 -0.2585 -0.0852
  972MOL0     O28196   9.864  10.751   7.575 -0.0259  0.1267  1.0301
  972MOL0     C28197   9.776  10.766   7.676  0.2369 -0.0512  0.4400
  972MOL0     C28198   9.772  10.684   7.786 -0.4618 -0.5324  0.4427
  972MOL0     C28199   9.675  10.705   7.886  0.4235  0.2504 -0.4603
  972MOL0     C28200   9.572  10.801   7.882 -0.2607 -0.1691 -0.5991
  972MOL0     C28201   9.486  10.836   7.995 -0.6191 -0.0451  0.4431
  972MOL0     O28202   9.467  10.973   8.003 -0.3167 -0.4243  0.6747
  972MOL0     C28203   9.364  11.013   8.080 -0.4983 -0.4255  0.4279
  972MOL0     C28204   9.242  10.951   8.044  0.5261 -0.3642  0.8439
  972MOL0     C28205   9.136  10.978   8.130 -1.1005 -0.4483 -0.0278
  972MOL0     C28206   9.150  11.072   8.241  0.6772  0.4846 -0.2089
  972MOL0     O28207   9.041  11.102   8.317 -0.2136 -0.7577  0.2245
  972MOL0     C28208   9.050  11.150   8.453  0.2042 -0.9509 -0.4486
  972MOL0     C28209   8.920  11.143   8.526 -0.1951 -0.4893  0.0805
  972MOL0     C28210   8.896  11.006   8.564  0.5846  0.0117 -0.8047
  972MOL0     C28211   8.754  10.991   8.634 -0.1493  0.3906  0.9401
  972MOL0     C28212   8.725  11.044   8.767  0.5914 -0.5900 -0.0977
  972MOL0     C28213   8.830  11.012   8.865  0.0115 -0.1922  0.2411
  972MOL0     C28214   8.781  11.042   9.000  0.3258 -0.2876  1.0334
  972MOL0     C28215   8.872  10.994   9.112  0.0707 -0.7999  0.1904
  972MOL0    Cl28216   8.858  10.823   9.133  0.2785  0.0444 -0.1205
  972MOL0     C28217   9.270  11.123   8.271  0.7129 -1.6654 -0.7222
  972MOL0     C28218   9.380  11.093   8.191  0.4128  0.9468 -0.7122
  972MOL0     O28219   9.466  10.754   8.085  0.1699 -0.2368  0.5360
  972MOL0     C28220   9.574  10.879   7.760 -0.1821 -0.7745 -0.2930
  972MOL0     C28221   9.667  10.859   7.663 -0.1041  0.2361 -0.1003
  972MOL0     N28222  10.444  10.383   7.553  0.1585 -0.8407 -0.1552
  972MOL0     N28223  10.505  10.273   7.515  0.4025 -0.4007 -0.8602
  972MOL0     C28224   9.976   9.140   7.540  0.1992  0.5874 -0.0902
  972MOL0     C28225   9.922   9.014   7.489 -0.2403  0.9822  0.6427
  972MOL0     C28226   9.784   8.648   7.283 -0.9272  0.4465  0.1088
  972MOL0     C28227   9.823   8.653   7.148 -0.8245 -0.5401 -0.7406
  972MOL0     C28228   9.767   8.560   7.050  0.4186 -0.5402 -0.7939
  972MOL0     C28229   9.679   8.465   7.095 -0.0251 -0.2885  0.3738
  972MOL0     O28230   9.633   8.378   7.004 -0.4846  0.2250  0.0608
  972MOL0     C28231   9.645   8.234   7.032 -0.5218  0.1124 -0.5714
  972MOL0     C28232   9.523   8.172   6.972 -0.9732  0.3733  0.1811
  972MOL0     C28233   9.516   8.023   7.011  0.0676  0.1872  0.0968
  972MOL0     C28234   9.386   7.956   6.951 -0.5516 -0.8847 -0.7515
  972MOL0     C28235   9.346   7.837   7.025 -0.7699  0.6427  0.0549
  972MOL0     C28236   9.314   7.749   7.106  0.3028  0.4904  0.4531
  972MOL0     C28237   9.630   8.463   7.227  0.0091  0.2309  0.3496
  972MOL0     C28238   9.683   8.555   7.313  0.1549 -0.7999  0.0243
  972MOL0     H28239  10.203   8.839   7.407 -2.5120 -2.4128  0.2911
  972MOL0     H28240  10.302   9.059   7.482  0.6886  0.4538  0.4826
  972MOL0     H28241  10.042   9.437   7.599  0.0532  0.2711 -1.1855
  972MOL0     H28242  10.126   9.395   7.450  1.3237  0.2115 -0.2027
  972MOL0     H28243  10.274   9.476   7.704  0.1224  0.1895  0.6496
  972MOL0     H28244  10.221   9.600   7.581  2.1584  0.5532 -0.2138
  972MOL0     H28245  10.354   9.493   7.408 -0.9709  2.5321  0.4433
  972MOL0     H28246  10.422   9.369   7.519 -3.9645 -1.0700  1.9627
  972MOL0     H28247  10.553   9.508   7.632 -1.7657  1.1549  1.9584
  972MOL0     H28248  10.585   9.544   7.471  1.5665 -1.1148  0.4394
  972MOL0     H28249  10.583   9.736   7.635 -0.4286  2.0583  0.2005
  972MOL0     H28250  10.423   9.699   7.670  0.9521 -2.5066 -0.0555
  972MOL0     H28251  10.372   9.767   7.424 -1.9187 -0.4216  1.8510
  972MOL0     H28252  10.553   9.790   7.411 -0.2846 -1.0496  0.1351
  972MOL0     H28253  10.349   9.942   7.584 -1.9031 -0.2406 -0.7940
  972MOL0     H28254  10.525   9.960   7.592 -0.4027  3.0152  0.6257
  972MOL0     H28255  10.334  10.017   7.366 -1.4760  0.5571  0.8538
  972MOL0     H28256  10.512  10.049   7.367  1.0743 -0.4372  0.2454
  972MOL0     H28257  10.192  10.215   7.445  0.4437 -1.0133 -0.1690
  972MOL0     H28258  10.257  10.574   7.586  1.6435 -1.0184 -1.2853
  972MOL0     H28259  10.140  10.442   7.646 -0.5841 -0.2956 -0.6492
  972MOL0     H28260  10.038  10.415   7.446 -3.5377  2.9582  1.6284
  972MOL0     H28261  10.162  10.488   7.353  2.1474 -0.1221  1.0299
  972MOL0     H28262  10.112  10.712   7.466 -1.6377  1.9415 -0.1041
  972MOL0     H28263   9.980  10.636   7.361 -0.8407  0.1562  1.3028
  972MOL0     H28264  10.006  10.624   7.669 -0.9635 -2.8162  0.9758
  972MOL0     H28265   9.892  10.536   7.578  1.9498 -1.0872  3.3417
  972MOL0     H28266   9.846  10.605   7.792 -0.2017 -0.4861 -1.5429
  972MOL0     H28267   9.680  10.642   7.975 -0.4710 -1.8209 -1.8011
  972MOL0     H28268   9.225  10.888   7.957  0.9637 -1.3259  1.4411
  972MOL0     H28269   9.034  10.948   8.111 -0.5517 -2.1840 -0.3465
  972MOL0     H28270   9.069  11.258   8.446  1.6995 -0.8762  2.9176
  972MOL0     H28271   9.121  11.091   8.511 -0.5609  1.1233  2.9214
  972MOL0     H28272   8.843  11.189   8.463  1.2057  2.3548  0.2985
  972MOL0     H28273   8.923  11.203   8.617 -1.6635 -1.5405  0.8682
  972MOL0     H28274   8.964  11.000   8.650  0.8892 -1.5736 -1.1353
  972MOL0     H28275   8.912  10.936   8.482 -0.4112 -0.6530 -0.4555
  972MOL0     H28276   8.672  11.017   8.566 -0.4931 -0.0157  1.1881
  972MOL0     H28277   8.738  10.883   8.640 -0.1178  0.3435  0.2969
  972MOL0     H28278   8.630  10.998   8.795  0.2639 -0.8036 -1.4612
  972MOL0     H28279   8.705  11.151   8.760 -3.4516 -1.2701 -1.6473
  972MOL0     H28280   8.918  11.070   8.840 -0.3646  0.9367  1.3959
  972MOL0     H28281   8.851  10.905   8.860  1.3012  0.1028 -1.4590
  972MOL0     H28282   8.777  11.151   8.996  1.1913 -0.2785 -0.0557
  972MOL0     H28283   8.679  11.005   9.009  0.7771 -1.5007  1.4126
  972MOL0     H28284   8.844  11.054   9.199  0.6531 -0.5621  0.2233
  972MOL0     H28285   8.979  11.012   9.094 -0.2948  1.3563 -0.0474
  972MOL0     H28286   9.288  11.189   8.356 -1.3216 -1.2080 -0.5866
  972MOL0     H28287   9.480  11.123   8.222 -0.1281  1.4525  0.6013
  972MOL0     H28288   9.510  10.963   7.734  1.7244  1.1549  0.8895
  972MOL0     H28289   9.652  10.933   7.584  0.9849  2.9214  2.0336
  972MOL0     H28290   9.911   9.208   7.593 -1.0413 -1.7810  1.6247
  972MOL0     H28291   9.816   8.991   7.486  0.3848 -2.2677  0.2923
  972MOL0     H28292   9.895   8.728   7.119  0.5110  0.6305  4.5253
  972MOL0     H28293   9.792   8.560   6.945  1.7403  2.2002 -0.5762
  972MOL0     H28294   9.658   8.206   7.137  2.5594 -0.1311 -0.9223
  972MOL0     H28295   9.735   8.209   6.975 -0.0025 -3.1611  1.4143
  972MOL0     H28296   9.435   8.229   7.001 -1.2608 -0.0436  0.1444
  972MOL0     H28297   9.521   8.179   6.862 -1.0785 -1.5886  0.0229
  972MOL0     H28298   9.506   8.011   7.120  1.0743 -1.8107  0.0018
  972MOL0     H28299   9.610   7.978   6.978  0.1578 -1.4261  2.2989
  972MOL0     H28300   9.311   8.033   6.970  0.1148 -0.3631 -0.1713
  972MOL0     H28301   9.391   7.938   6.844  0.8269 -0.0253 -0.8696
  972MOL0     H28302   9.283   7.684   7.184 -1.1239  0.3871 -0.1754
  972MOL0     H28303   9.545   8.398   7.244  1.2564 -0.9811  2.4577
  972MOL0     H28304   9.633   8.577   7.406  0.8708  1.6805 -0.1093
  973MOL0     O28305   9.511   5.798   0.508 -0.2828 -0.3361 -0.1255
  973MOL0     C28306   9.559   5.777   0.622  0.1935 -0.0530  0.2198
  973MOL0     O28307   9.690   5.746   0.648  0.3010  0.3684 -0.3687
  973MOL0     C28308   9.775   5.725   0.543 -0.2706 -0.7126  0.0419
  973MOL0     C28309   9.840   5.606   0.542  0.4144 -0.9983 -0.4770
  973MOL0     C28310   9.932   5.569   0.442  0.0626  0.9801  0.1024
  973MOL0     C28311   9.958   5.659   0.336  0.0749  1.0551  0.7053
  973MOL0     O28312  10.052   5.610   0.240  0.4452 -0.2848  0.3992
  973MOL0     C28313  10.072   5.687   0.122  0.3129 -0.2762 -0.1565
  973MOL0     C28314  10.100   5.583   0.016 -0.2673 -0.7144 -0.2145
  973MOL0     C28315  10.235   5.517   0.032 -0.2552  0.0276 -0.3180
  973MOL0     C28316  10.306   5.489  -0.101  0.7970  0.9206  0.5284
  973MOL0     C28317  10.447   5.445  -0.094  0.2882  0.0284  0.1459
  973MOL0     C28318  10.532   5.462  -0.219 -0.4090 -0.4302 -0.3314
  973MOL0     C28319  10.672   5.399  -0.209 -0.0313 -0.6590  0.3267
  973MOL0     C28320  10.759   5.399  -0.329  0.3860  0.1477 -0.0787
  973MOL0     N28321  10.759   5.531  -0.403  0.0701  0.0806 -0.1143
  973MOL0     C28322  10.854   5.629  -0.370  1.2065 -0.0011 -0.1999
  973MOL0     C28323  10.809   5.739  -0.446 -0.1602  1.4580 -0.0923
  973MOL0     C28324  10.866   5.867  -0.445  0.6321  0.3818 -0.8803
  973MOL0     C28325  10.833   5.965  -0.327 -0.3413  0.1642 -0.8798
  973MOL0     C28326  10.908   6.095  -0.320 -0.0600  0.2982  0.1351
  973MOL0     C28327  10.882   6.152  -0.182  0.1121  0.5481  0.9754
  973MOL0     O28328  10.964   6.268  -0.156 -0.1346  0.5993  0.5554
  973MOL0     C28329  10.915   6.388  -0.187  0.0170 -0.0367  0.2408
  973MOL0     C28330  10.774   6.424  -0.195 -0.3707 -0.0922 -0.3593
  973MOL0     C28331  10.739   6.552  -0.206 -0.3074  0.0969 -0.2512
  973MOL0     C28332  10.829   6.653  -0.201  0.1678  1.0343 -0.4126
  973MOL0     C28333  10.785   6.793  -0.219 -0.1490 -1.1534 -0.8573
  973MOL0     O28334  10.650   6.811  -0.246 -0.1439 -0.1149 -0.5093
  973MOL0     C28335  10.602   6.925  -0.288 -0.7812 -0.8131 -0.2017
  973MOL0     C28336  10.465   6.964  -0.271  0.3882  0.2655 -0.0248
  973MOL0     C28337  10.411   7.073  -0.337 -0.2683 -0.9195  0.1671
  973MOL0     C28338  10.488   7.166  -0.409 -0.0202  0.6871 -0.9508
  973MOL0     O28339  10.439   7.284  -0.458 -0.0180 -0.0836  0.0514
  973MOL0     C28340  10.297   7.301  -0.452  0.8195  0.3270 -0.5472
  973MOL0     C28341  10.246   7.429  -0.534 -0.2221  0.4338  0.3396
  973MOL0     C28342  10.319   7.427  -0.670 -0.3467 -0.0030  0.1029
  973MOL0     C28343  10.236   7.488  -0.778 -0.1024 -0.1824 -0.1679
  973MOL0     C28344  10.124   7.392  -0.812  0.0645 -0.8961  0.3670
  973MOL0     C28345   9.983   7.468  -0.836 -0.8347  0.9250 -0.4016
  973MOL0     C28346   9.926   7.518  -0.700 -1.2035  0.8741  0.7492
  973MOL0     C28347   9.808   7.611  -0.714  0.9083  0.1466  0.0264
  973MOL0    Cl28348   9.693   7.528  -0.806 -0.2404  0.1447 -0.2633
  973MOL0     C28349  10.628   7.137  -0.419  0.1452  0.8304 -0.8512
  973MOL0     C28350  10.684   7.026  -0.357  0.6970 -0.4420 -0.0707
  973MOL0     O28351  10.871   6.886  -0.183 -0.1741  0.3920  0.6708
  973MOL0     C28352  10.967   6.612  -0.202 -0.5783 -0.9703  0.5490
  973MOL0     C28353  11.018   6.488  -0.202 -0.3117  1.0060 -0.2455
  973MOL0     N28354  10.693   5.714  -0.506 -1.0649 -0.2781 -0.6268
  973MOL0     N28355  10.675   5.578  -0.486  0.3628  0.2261  0.0163
  973MOL0     C28356   9.896   5.790   0.338  0.3250 -0.0533  0.0631
  973MOL0     C28357   9.805   5.808   0.437 -0.5044  0.8499  0.5634
  973MOL0     C28358   9.464   5.776   0.737  0.4946  0.4917  0.3477
  973MOL0     C28359   9.498   5.700   0.850  0.1343 -0.4857 -0.4069
  973MOL0     C28360   9.407   5.666   0.948  0.2341  0.1433  0.1818
  973MOL0     C28361   9.271   5.719   0.942  0.7503  1.2985  0.2987
  973MOL0     O28362   9.173   5.689   1.038 -0.1651 -0.1332 -0.0923
  973MOL0     C28363   9.033   5.685   1.008  0.0872 -0.7502 -0.4248
  973MOL0     C28364   8.943   5.665   1.132  0.8553  0.5551 -0.1817
  973MOL0     C28365   8.899   5.520   1.166  0.6577 -0.8595 -0.7888
  973MOL0     C28366   9.001   5.446   1.243 -0.0326  1.2115 -0.3871
  973MOL0     C28367   8.970   5.301   1.244 -0.4009  0.8553 -0.3203
  973MOL0     C28368   8.946   5.182   1.236  0.0109  0.0613  0.9815
  973MOL0     C28369   9.245   5.800   0.826  1.1368 -0.0123 -0.2099
  973MOL0     C28370   9.333   5.831   0.727  0.2388 -0.2501 -0.7400
  973MOL0     H28371   9.821   5.521   0.606  1.3212 -1.2266 -0.4994
  973MOL0     H28372   9.985   5.476   0.424 -0.8058  1.1062 -4.4666
  973MOL0     H28373  10.141   5.771   0.134 -2.6297  2.2776  0.4005
  973MOL0     H28374   9.977   5.734   0.095  0.2932 -0.9395 -1.3188
  973MOL0     H28375  10.087   5.629  -0.082  1.6517 -3.5356 -1.9460
  973MOL0     H28376  10.026   5.503   0.019 -0.3781 -0.7151 -1.9348
  973MOL0     H28377  10.221   5.425   0.089 -2.7694  0.9802  0.7207
  973MOL0     H28378  10.297   5.586   0.090  2.8500  0.0580 -3.3403
  973MOL0     H28379  10.252   5.425  -0.171 -1.3190  1.2220  1.7927
  973MOL0     H28380  10.302   5.583  -0.157 -0.6887  0.3178 -0.4282
  973MOL0     H28381  10.448   5.338  -0.072 -0.8267  0.1694  0.9641
  973MOL0     H28382  10.509   5.489  -0.015  1.2727 -0.7224 -0.1828
  973MOL0     H28383  10.533   5.566  -0.252  1.4568 -0.8846 -1.8961
  973MOL0     H28384  10.477   5.404  -0.294  0.6760 -3.1728  0.8390
  973MOL0     H28385  10.724   5.441  -0.122  0.3827 -0.1481 -0.1654
  973MOL0     H28386  10.670   5.292  -0.185 -1.2676 -1.1549 -1.7541
  973MOL0     H28387  10.725   5.324  -0.401  1.0236  0.3059 -0.5566
  973MOL0     H28388  10.865   5.383  -0.304  0.4845 -2.1385 -1.6659
  973MOL0     H28389  10.944   5.612  -0.311  1.0992 -2.1212 -0.5542
  973MOL0     H28390  10.850   5.909  -0.544  1.5354  1.7170 -0.4940
  973MOL0     H28391  10.975   5.854  -0.444  0.9797  2.8190 -1.5377
  973MOL0     H28392  10.845   5.917  -0.230 -0.5555  2.0132  0.1201
  973MOL0     H28393  10.728   5.993  -0.338 -1.0258 -0.6334  2.5237
  973MOL0     H28394  11.011   6.062  -0.337 -0.7540 -2.4438  0.6931
  973MOL0     H28395  10.878   6.160  -0.402 -1.4872 -0.5495 -0.0473
  973MOL0     H28396  10.908   6.068  -0.117 -2.9630 -0.5078  1.0150
  973MOL0     H28397  10.774   6.161  -0.165 -0.6141  0.0047 -2.5534
  973MOL0     H28398  10.693   6.352  -0.185 -1.2057  1.0958  2.1088
  973MOL0     H28399  10.635   6.562  -0.237 -0.6123 -2.0848 -0.1296
  973MOL0     H28400  10.399   6.898  -0.215  1.9346 -1.0280  0.3705
  973MOL0     H28401  10.306   7.089  -0.318 -0.0326 -2.3929  3.4742
  973MOL0     H28402  10.270   7.317  -0.348  1.4599 -1.3407 -0.0959
  973MOL0     H28403  10.243   7.215  -0.493 -1.3469  1.4191 -0.0970
  973MOL0     H28404  10.262   7.519  -0.474 -0.5217  0.2607  0.6737
  973MOL0     H28405  10.138   7.430  -0.551 -0.3851 -3.0308  0.5103
  973MOL0     H28406  10.337   7.324  -0.701 -2.0692  0.0255 -1.0580
  973MOL0     H28407  10.414   7.482  -0.659 -0.0994 -0.4026 -0.0248
  973MOL0     H28408  10.201   7.585  -0.742  3.0298  0.8631  0.3359
  973MOL0     H28409  10.288   7.500  -0.873 -0.9140 -0.8080 -0.7077
  973MOL0     H28410  10.119   7.314  -0.736  0.5603 -2.5342 -1.2090
  973MOL0     H28411  10.154   7.338  -0.902  0.3002  0.0296 -0.1328
  973MOL0     H28412   9.912   7.400  -0.883 -2.7141  1.8119  1.0123
  973MOL0     H28413   9.983   7.556  -0.901 -2.0690  1.8342  0.7938
  973MOL0     H28414   9.899   7.424  -0.650 -3.0100  1.2188  0.4751
  973MOL0     H28415   9.999   7.564  -0.633 -0.0453  0.2534 -0.0524
  973MOL0     H28416   9.835   7.711  -0.749 -1.9916  1.0206  0.0834
  973MOL0     H28417   9.775   7.627  -0.611  0.6883  1.4304 -0.2296
  973MOL0     H28418  10.693   7.201  -0.478  2.8287 -2.0947 -1.2886
  973MOL0     H28419  10.792   7.020  -0.361  0.6684 -1.8091  0.3219
  973MOL0     H28420  11.042   6.689  -0.187 -1.2422 -0.1205 -0.4133
  973MOL0     H28421  11.124   6.486  -0.177 -0.2821  2.4841 -0.1182
  973MOL0     H28422   9.917   5.873   0.271 -1.6886 -1.9679 -3.2576
  973MOL0     H28423   9.753   5.903   0.433 -1.8638  0.1029 -0.1157
  973MOL0     H28424   9.603   5.675   0.855  0.8759  0.6488 -5.1724
  973MOL0     H28425   9.439   5.612   1.037 -1.5875 -2.5421 -0.6922
  973MOL0     H28426   9.021   5.600   0.940 -0.7578 -0.5008 -0.5998
  973MOL0     H28427   9.007   5.779   0.959  1.0779 -0.7082 -0.9012
  973MOL0     H28428   8.989   5.718   1.216  1.3214  0.2563 -0.2501
  973MOL0     H28429   8.851   5.721   1.110  1.3595  2.1109  1.3776
  973MOL0     H28430   8.870   5.470   1.073 -0.2968 -0.7983 -0.5362
  973MOL0     H28431   8.816   5.531   1.236  1.9547  2.1864  0.4506
  973MOL0     H28432   9.091   5.440   1.180 -1.1793 -0.6693 -1.9991
  973MOL0     H28433   9.022   5.479   1.345  2.4525 -1.2761  0.0671
  973MOL0     H28434   8.912   5.081   1.246 -1.0557  0.3195  0.1298
  973MOL0     H28435   9.147   5.839   0.801  1.7407 -0.1351 -3.1545
  973MOL0     H28436   9.314   5.881   0.632  0.2677 -0.7836 -1.0313
  974MOL0     O28437   0.884   3.811   6.123  0.1923 -0.0288 -0.4841
  974MOL0     C28438   0.804   3.731   6.076  0.5606 -0.1863  0.1762
  974MOL0     O28439   0.669   3.725   6.099 -0.9294 -1.0103  0.4842
  974MOL0     C28440   0.606   3.836   6.143  0.9568  0.4002 -0.0865
  974MOL0     C28441   0.528   3.910   6.050 -0.9257  1.3130  0.5014
  974MOL0     C28442   0.492   4.036   6.088  0.0787 -0.1284  0.4761
  974MOL0     C28443   0.508   4.079   6.225 -0.0365  0.6224  0.9101
  974MOL0     O28444   0.466   4.206   6.259 -0.5023  0.6065 -0.3253
  974MOL0     C28445   0.329   4.200   6.285  0.8243 -0.3315  0.6117
  974MOL0     C28446   0.291   4.333   6.227  1.2019 -0.1113 -1.1889
  974MOL0     C28447   0.297   4.341   6.076  0.4916  0.2118  1.0312
  974MOL0     C28448   0.213   4.464   6.022  0.5459  0.3627 -1.1971
  974MOL0     C28449   0.186   4.478   5.867  0.6938 -0.0492 -0.2741
  974MOL0     C28450   0.327   4.477   5.799 -0.0480  0.2255  0.4503
  974MOL0     C28451   0.330   4.535   5.663 -0.5107  0.0053  0.4318
  974MOL0     C28452   0.441   4.639   5.650 -0.4760 -0.8441 -0.9183
  974MOL0     N28453   0.387   4.767   5.715  0.7661  0.6792  1.2593
  974MOL0     C28454   0.299   4.856   5.665  0.5921  1.6685 -0.7551
  974MOL0     C28455   0.294   4.954   5.749 -0.3581 -0.0914 -0.2862
  974MOL0     C28456   0.231   5.088   5.735  0.2786 -0.7632 -1.0153
  974MOL0     C28457   0.191   5.140   5.590 -0.3921  1.4458 -0.1537
  974MOL0     C28458   0.148   5.281   5.602 -0.2335 -0.6278  0.2021
  974MOL0     C28459   0.074   5.318   5.469 -1.5704  1.0462  0.3810
  974MOL0     O28460   0.143   5.289   5.344 -0.2787 -0.5451  0.0810
  974MOL0     C28461   0.220   5.392   5.308 -0.1573  0.3363  0.9163
  974MOL0     C28462   0.329   5.433   5.390  0.2116 -0.1462  0.7794
  974MOL0     C28463   0.393   5.552   5.358 -0.3466  0.7267 -0.7278
  974MOL0     C28464   0.349   5.635   5.248 -0.8580  0.6268  0.2314
  974MOL0     C28465   0.414   5.767   5.218  0.3431 -0.1215  0.4476
  974MOL0     O28466   0.528   5.786   5.285  0.0344  0.3995 -0.2307
  974MOL0     C28467   0.590   5.909   5.293 -0.0888 -0.6308 -0.2603
  974MOL0     C28468   0.520   6.037   5.279 -0.0353  0.4500  0.1439
  974MOL0     C28469   0.598   6.152   5.281 -0.3398  0.0769  0.3009
  974MOL0     C28470   0.736   6.145   5.297 -0.6256 -0.7892  0.0807
  974MOL0     O28471   0.806   6.262   5.310 -0.1143  0.7381 -0.2076
  974MOL0     C28472   0.911   6.286   5.220 -0.3044 -0.1654  0.3750
  974MOL0     C28473   0.975   6.422   5.274 -0.1189  0.0958 -0.8612
  974MOL0     C28474   1.072   6.419   5.406 -0.0921 -0.6842 -0.1433
  974MOL0     C28475   1.218   6.379   5.381  0.0897  0.0781 -0.0255
  974MOL0     C28476   1.279   6.344   5.519 -0.5879 -0.5858  0.4705
  974MOL0     C28477   1.435   6.338   5.532 -0.2709 -0.5669  0.8610
  974MOL0     C28478   1.471   6.363   5.683 -0.3412 -0.0052 -0.1304
  974MOL0     C28479   1.625   6.329   5.706  0.7508 -0.3117  0.6449
  974MOL0    Cl28480   1.729   6.440   5.601 -0.3696  0.1793 -0.0597
  974MOL0     C28481   0.800   6.022   5.312 -0.2930 -0.1743  0.6452
  974MOL0     C28482   0.730   5.910   5.313 -0.2291  0.5346 -0.2692
  974MOL0     O28483   0.366   5.835   5.125 -0.6382  0.1517  0.1455
  974MOL0     C28484   0.238   5.593   5.174 -0.9101 -0.2582  0.8112
  974MOL0     C28485   0.180   5.469   5.200 -0.8501  0.7860 -0.9844
  974MOL0     N28486   0.376   4.925   5.856 -0.1840  0.1460 -0.2032
  974MOL0     N28487   0.429   4.819   5.824 -0.6470  0.2576  0.4617
  974MOL0     C28488   0.570   3.988   6.318  0.1501 -0.3019  0.1118
  974MOL0     C28489   0.613   3.873   6.276 -0.6196  0.1736 -0.1664
  974MOL0     C28490   0.861   3.636   5.982 -0.4763 -0.1730 -0.2642
  974MOL0     C28491   0.779   3.578   5.885 -0.4264  0.2010 -0.0475
  974MOL0     C28492   0.837   3.486   5.790 -0.4832  0.1962 -0.0295
  974MOL0     C28493   0.961   3.434   5.808  0.3870  1.1458  0.0935
  974MOL0     O28494   1.008   3.342   5.710 -0.5271  0.4067  0.4067
  974MOL0     C28495   1.135   3.294   5.712 -0.4038  0.4404 -0.1096
  974MOL0     C28496   1.228   3.397   5.645 -0.2562  0.3251  0.0247
  974MOL0     C28497   1.368   3.328   5.632  0.5573  0.3359 -0.1423
  974MOL0     C28498   1.471   3.418   5.568  0.5524  0.5502 -0.0293
  974MOL0     C28499   1.502   3.546   5.634 -0.1178 -0.3778 -0.0047
  974MOL0     C28500   1.537   3.658   5.675 -0.4833  0.8836  0.2824
  974MOL0     C28501   1.039   3.477   5.920  0.1059 -0.9384  0.4111
  974MOL0     C28502   0.994   3.586   6.004  0.2750 -0.2262 -0.0882
  974MOL0     H28503   0.522   3.874   5.948  0.9753  2.8938 -0.2416
  974MOL0     H28504   0.434   4.103   6.026 -0.1829 -1.1368 -0.4044
  974MOL0     H28505   0.307   4.208   6.392 -3.0438 -1.8294  0.1078
  974MOL0     H28506   0.274   4.127   6.224  0.3454  1.4807 -1.2616
  974MOL0     H28507   0.346   4.419   6.267  0.2231  0.3095 -0.7131
  974MOL0     H28508   0.189   4.340   6.265  0.2918 -4.1800 -2.4584
  974MOL0     H28509   0.247   4.258   6.024  5.0738 -0.7039 -2.5503
  974MOL0     H28510   0.400   4.340   6.039  0.5428  1.3901  1.0962
  974MOL0     H28511   0.117   4.455   6.073  1.8455 -1.7933  1.0576
  974MOL0     H28512   0.260   4.557   6.055 -2.0491  1.2565  0.2508
  974MOL0     H28513   0.135   4.573   5.849  2.3215  0.9638  0.2943
  974MOL0     H28514   0.126   4.389   5.844 -2.3058  1.3119  1.7132
  974MOL0     H28515   0.362   4.374   5.786  4.4050  1.4782  0.8237
  974MOL0     H28516   0.396   4.533   5.862  0.0648  3.2892 -2.1349
  974MOL0     H28517   0.347   4.453   5.593  0.9337 -0.7050  1.5530
  974MOL0     H28518   0.241   4.584   5.622  0.9738  3.0977  0.6111
  974MOL0     H28519   0.449   4.650   5.542 -0.6776 -2.6683 -1.1409
  974MOL0     H28520   0.539   4.606   5.684 -2.2797 -4.8084  1.1397
  974MOL0     H28521   0.239   4.836   5.577 -1.0792 -0.2520  0.7243
  974MOL0     H28522   0.297   5.167   5.774 -0.0415 -0.8575 -0.2588
  974MOL0     H28523   0.140   5.080   5.795 -0.5449 -1.0379 -2.2870
  974MOL0     H28524   0.114   5.076   5.548 -0.7500 -0.9761  3.6814
  974MOL0     H28525   0.281   5.116   5.532  0.7304  2.3748  1.1241
  974MOL0     H28526   0.063   5.293   5.668 -2.1563 -0.5575 -2.1408
  974MOL0     H28527   0.223   5.353   5.637 -0.7530  0.3606 -0.6421
  974MOL0     H28528   0.036   5.420   5.474 -4.2355  0.1522  0.2139
  974MOL0     H28529  -0.013   5.251   5.473 -1.5870  0.9683 -0.8819
  974MOL0     H28530   0.366   5.377   5.475  3.1975  1.2140  0.4814
  974MOL0     H28531   0.476   5.564   5.428  0.9449 -3.0495 -1.3271
  974MOL0     H28532   0.413   6.047   5.269 -0.2481 -1.8732 -0.5374
  974MOL0     H28533   0.551   6.249   5.284 -0.6340 -0.0510  3.7810
  974MOL0     H28534   0.881   6.289   5.114  2.9724  4.5674 -0.7902
  974MOL0     H28535   0.986   6.207   5.230  1.0339  0.8905 -0.9054
  974MOL0     H28536   0.888   6.485   5.294 -0.8370 -0.1903 -2.8742
  974MOL0     H28537   1.022   6.464   5.184  3.1151  3.3327  2.0332
  974MOL0     H28538   1.027   6.370   5.492  1.1659 -0.8166  0.4683
  974MOL0     H28539   1.085   6.525   5.427  0.4548 -0.1529 -2.7239
  974MOL0     H28540   1.230   6.295   5.312  1.4866  0.9312 -0.8582
  974MOL0     H28541   1.277   6.460   5.338 -0.4478  0.9764  0.8818
  974MOL0     H28542   1.245   6.252   5.568  0.6335 -0.0586  2.4378
  974MOL0     H28543   1.240   6.415   5.592 -1.3444 -0.9815  0.4643
  974MOL0     H28544   1.470   6.413   5.460 -2.2467 -0.4584 -0.0579
  974MOL0     H28545   1.473   6.240   5.503 -0.2210 -0.7387  1.4838
  974MOL0     H28546   1.451   6.466   5.715  1.6619  0.7517 -1.1585
  974MOL0     H28547   1.420   6.294   5.751  4.5229 -1.9051  2.0583
  974MOL0     H28548   1.636   6.230   5.662 -1.8904  0.1140 -1.2531
  974MOL0     H28549   1.658   6.342   5.809  2.3020 -0.1349  0.1470
  974MOL0     H28550   0.908   6.019   5.319 -0.2695 -0.2143  0.3177
  974MOL0     H28551   0.776   5.813   5.330 -1.9520  0.0049  1.8777
  974MOL0     H28552   0.197   5.653   5.093  0.3551 -1.3701 -0.7163
  974MOL0     H28553   0.091   5.429   5.153 -1.6393  3.1711 -1.6722
  974MOL0     H28554   0.579   4.033   6.416 -3.4394  2.4015 -0.6000
  974MOL0     H28555   0.670   3.811   6.345  0.6928  1.7711  0.2692
  974MOL0     H28556   0.673   3.605   5.883  0.0619  2.5677 -3.5705
  974MOL0     H28557   0.770   3.437   5.719 -0.1193 -0.5705  0.1426
  974MOL0     H28558   1.137   3.202   5.653  0.8978  0.9537 -0.9153
  974MOL0     H28559   1.167   3.271   5.814  1.8248  2.7264 -0.2001
  974MOL0     H28560   1.194   3.428   5.546  1.5886  6.3083  0.8528
  974MOL0     H28561   1.218   3.489   5.702 -0.6435  1.5514 -1.9266
  974MOL0     H28562   1.354   3.237   5.572  0.1295  1.3842 -1.6898
  974MOL0     H28563   1.407   3.308   5.732 -0.2311 -1.6918 -0.1863
  974MOL0     H28564   1.567   3.365   5.564  0.4968  0.4429  0.0667
  974MOL0     H28565   1.430   3.432   5.467  1.1758  3.0101 -0.0041
  974MOL0     H28566   1.551   3.754   5.719 -1.1146  0.0399  2.4507
  974MOL0     H28567   1.129   3.424   5.952  1.0685  0.8451  0.7821
  974MOL0     H28568   1.041   3.616   6.098 -0.0319 -1.9372  0.6507
  975MOL0     O28569   8.788   0.080   8.034 -0.6133  0.8986 -0.1353
  975MOL0     C28570   8.800  -0.019   8.112 -0.4864  0.3073 -0.3011
  975MOL0     O28571   8.913  -0.066   8.182  0.3934 -0.0401 -0.1991
  975MOL0     C28572   9.032  -0.034   8.137 -0.5068 -0.1155  0.2598
  975MOL0     C28573   9.078  -0.067   8.005 -0.2870  0.8309 -0.1331
  975MOL0     C28574   9.196  -0.028   7.952 -0.8737 -0.2127 -1.1441
  975MOL0     C28575   9.285   0.059   8.032  0.4934  0.5409 -0.5023
  975MOL0     O28576   9.386   0.117   7.967 -1.1090  1.2368  0.4185
  975MOL0     C28577   9.358   0.205   7.860 -1.4136  0.5975 -0.4038
  975MOL0     C28578   9.285   0.326   7.910  0.7599 -0.4381 -0.9355
  975MOL0     C28579   9.274   0.439   7.804  0.6733  0.0294  0.2017
  975MOL0     C28580   9.401   0.512   7.774 -0.6586  0.4712 -0.3888
  975MOL0     C28581   9.397   0.612   7.665 -0.6051 -0.4350 -0.3052
  975MOL0     C28582   9.535   0.674   7.634  0.6836  0.0514  0.5736
  975MOL0     C28583   9.648   0.575   7.590  0.8883 -1.0077 -0.0233
  975MOL0     C28584   9.637   0.507   7.457  0.5694  0.7511  0.6665
  975MOL0     N28585   9.545   0.390   7.466 -0.4359 -0.6693  0.2383
  975MOL0     C28586   9.429   0.386   7.403  0.4518 -0.7204  0.1462
  975MOL0     C28587   9.368   0.275   7.457  0.2231 -0.4759 -0.8828
  975MOL0     C28588   9.230   0.220   7.434 -0.2732 -1.4376 -0.6230
  975MOL0     C28589   9.150   0.156   7.541 -0.0476  0.2985  0.4070
  975MOL0     C28590   8.995   0.150   7.529 -0.9211 -0.1727  0.2885
  975MOL0     C28591   8.946   0.061   7.643 -0.2581 -0.4686 -0.0426
  975MOL0     O28592   8.998  -0.068   7.629  0.7092  0.1693  0.4131
  975MOL0     C28593   8.933  -0.175   7.687  0.0968  0.4598 -0.0531
  975MOL0     C28594   9.006  -0.287   7.672 -0.0725 -0.7647  0.2072
  975MOL0     C28595   8.975  -0.415   7.729  0.3000 -0.4089  0.7635
  975MOL0     C28596   8.864  -0.420   7.823 -0.2342 -0.5315 -0.0285
  975MOL0     C28597   8.821  -0.547   7.885 -0.0286  0.9662 -0.5136
  975MOL0     O28598   8.739  -0.538   7.989  1.2154  0.9060  0.2751
  975MOL0     C28599   8.664  -0.650   8.027  0.1571 -1.1860  0.5087
  975MOL0     C28600   8.709  -0.775   8.051  0.0556 -0.4262 -0.2099
  975MOL0     C28601   8.628  -0.880   8.099 -0.9656 -0.2251 -1.0153
  975MOL0     C28602   8.501  -0.846   8.155  0.1456 -0.0958  0.9416
  975MOL0     O28603   8.425  -0.934   8.234 -0.2154  0.3028  0.2415
  975MOL0     C28604   8.482  -1.057   8.269 -0.0093  0.3298 -0.3391
  975MOL0     C28605   8.393  -1.132   8.363 -0.4779  0.7627 -0.1257
  975MOL0     C28606   8.474  -1.246   8.442 -0.7298  0.1686 -0.4699
  975MOL0     C28607   8.400  -1.294   8.569 -1.0588  0.1356  0.1216
  975MOL0     C28608   8.471  -1.409   8.639  0.3000 -0.7777  0.3821
  975MOL0     C28609   8.374  -1.503   8.715  0.5584  0.1605  0.6232
  975MOL0     C28610   8.440  -1.609   8.801 -0.2957 -0.1692  0.7677
  975MOL0     C28611   8.504  -1.558   8.939  0.5783 -0.3154  0.3278
  975MOL0    Cl28612   8.366  -1.477   9.042 -0.4653 -0.2861  0.3376
  975MOL0     C28613   8.441  -0.721   8.114 -0.4713 -0.3502 -0.0445
  975MOL0     C28614   8.527  -0.632   8.045 -0.7298 -0.0298  0.6608
  975MOL0     O28615   8.871  -0.651   7.842  0.4095 -0.0462  0.1545
  975MOL0     C28616   8.792  -0.300   7.834  0.0606 -0.2642 -1.3180
  975MOL0     C28617   8.818  -0.175   7.774 -0.0741 -0.3859 -0.4616
  975MOL0     N28618   9.460   0.208   7.539  0.1979  1.1570 -0.2766
  975MOL0     N28619   9.566   0.289   7.547  0.1086 -0.4205  0.4154
  975MOL0     C28620   9.244   0.103   8.159  0.7685 -1.2101 -0.3197
  975MOL0     C28621   9.126   0.051   8.212  0.2180 -0.6008  0.5002
  975MOL0     C28622   8.684  -0.101   8.129  0.1799  0.6249 -0.9231
  975MOL0     C28623   8.683  -0.216   8.207 -0.3672  0.3208  0.5843
  975MOL0     C28624   8.571  -0.279   8.248 -0.2695 -0.1746  0.4929
  975MOL0     C28625   8.441  -0.240   8.214  0.3084 -0.3480 -0.5586
  975MOL0     O28626   8.323  -0.297   8.240 -0.2924  1.0386 -0.1624
  975MOL0     C28627   8.323  -0.411   8.331 -0.8458  0.8328  0.5046
  975MOL0     C28628   8.179  -0.479   8.323 -0.4640 -0.2045 -0.6827
  975MOL0     C28629   8.074  -0.384   8.358  0.4713 -0.8438  0.5229
  975MOL0     C28630   7.938  -0.456   8.343 -0.5134 -0.9768 -0.8495
  975MOL0     C28631   7.924  -0.539   8.467  0.7644 -0.8797  0.3438
  975MOL0     C28632   7.894  -0.607   8.561 -0.0138  0.6393 -0.1636
  975MOL0     C28633   8.443  -0.124   8.135 -0.2132  0.1294 -0.1719
  975MOL0     C28634   8.560  -0.055   8.087 -0.8438  0.5461 -0.2916
  975MOL0     H28635   9.017  -0.140   7.953  0.0568  0.0057  0.5684
  975MOL0     H28636   9.216  -0.056   7.849  0.9354 -1.0638 -0.5972
  975MOL0     H28637   9.300   0.166   7.776 -2.4579  3.5669 -1.1632
  975MOL0     H28638   9.449   0.251   7.819 -0.3481 -1.3650 -0.3861
  975MOL0     H28639   9.344   0.361   7.995 -1.5616  1.3470  0.0495
  975MOL0     H28640   9.184   0.302   7.944  0.5635  0.2836 -0.9956
  975MOL0     H28641   9.196   0.508   7.836 -0.5660 -1.3432  0.2635
  975MOL0     H28642   9.244   0.393   7.709 -1.4084 -0.7534  1.1702
  975MOL0     H28643   9.427   0.557   7.870 -1.7869  0.0990  0.1069
  975MOL0     H28644   9.484   0.446   7.746 -2.0718 -1.6805  0.2253
  975MOL0     H28645   9.331   0.686   7.711  0.0131 -1.0862  1.7640
  975MOL0     H28646   9.347   0.578   7.574  1.1061  2.8158 -2.6495
  975MOL0     H28647   9.580   0.724   7.720 -0.2196  1.8036  0.0785
  975MOL0     H28648   9.519   0.749   7.556  3.6210 -0.5420 -0.7509
  975MOL0     H28649   9.740   0.634   7.595 -1.8003  3.5496  1.4341
  975MOL0     H28650   9.659   0.497   7.665  2.2505  0.2064  1.0878
  975MOL0     H28651   9.721   0.452   7.414 -2.5110 -2.8195 -1.4138
  975MOL0     H28652   9.615   0.581   7.379 -0.2342  0.8171  0.9512
  975MOL0     H28653   9.402   0.462   7.331  3.7411  0.1408 -0.3399
  975MOL0     H28654   9.238   0.143   7.357 -1.2735 -0.9597 -1.2196
  975MOL0     H28655   9.172   0.293   7.376  1.5244 -1.3963 -2.4656
  975MOL0     H28656   9.165   0.227   7.623 -3.2464  0.7811  0.7403
  975MOL0     H28657   9.190   0.055   7.556 -1.2625 -0.4688 -1.1735
  975MOL0     H28658   8.955   0.249   7.556 -2.5478 -0.4822 -0.8714
  975MOL0     H28659   8.954   0.119   7.433 -2.7960 -4.1826  2.1329
  975MOL0     H28660   8.838   0.068   7.625 -0.2122  2.9909  0.5046
  975MOL0     H28661   8.970   0.101   7.741 -1.5681  2.4131 -0.8001
  975MOL0     H28662   9.084  -0.275   7.598 -1.3194  0.4653 -0.9669
  975MOL0     H28663   9.009  -0.511   7.691  0.7132 -0.4735  1.2731
  975MOL0     H28664   8.814  -0.791   8.033 -0.1624 -0.6963 -1.2610
  975MOL0     H28665   8.683  -0.969   8.129  0.2499  0.4024 -1.3044
  975MOL0     H28666   8.580  -1.043   8.315  1.5007  5.4654 -4.1135
  975MOL0     H28667   8.511  -1.120   8.185 -0.5321 -1.7945  1.0004
  975MOL0     H28668   8.309  -1.175   8.309 -0.0701  0.2025 -0.3179
  975MOL0     H28669   8.352  -1.062   8.436 -2.9035 -0.7002  0.0219
  975MOL0     H28670   8.574  -1.209   8.463 -1.4198  1.9049 -0.0607
  975MOL0     H28671   8.480  -1.326   8.367  0.7546  1.3472 -1.6715
  975MOL0     H28672   8.387  -1.214   8.642 -0.9310 -1.0179  1.4480
  975MOL0     H28673   8.299  -1.321   8.537  0.1300 -1.2819 -2.7932
  975MOL0     H28674   8.545  -1.363   8.705 -0.2266 -1.0411  1.1724
  975MOL0     H28675   8.529  -1.469   8.568 -1.6034 -2.7533  0.3998
  975MOL0     H28676   8.308  -1.547   8.639  2.5050  2.0441 -2.3502
  975MOL0     H28677   8.307  -1.444   8.779 -0.6439 -0.6777  0.1812
  975MOL0     H28678   8.367  -1.685   8.831 -0.3967 -0.6462 -0.6355
  975MOL0     H28679   8.522  -1.663   8.752  2.4652  0.5724  4.1371
  975MOL0     H28680   8.588  -1.489   8.930 -0.1967  0.8431  1.4758
  975MOL0     H28681   8.541  -1.646   8.992  0.9973 -0.8348 -0.7924
  975MOL0     H28682   8.336  -0.704   8.135 -0.2672  2.0381 -0.6103
  975MOL0     H28683   8.494  -0.534   8.012  1.8143  0.4893 -0.5905
  975MOL0     H28684   8.707  -0.298   7.901  2.7796  1.7713  2.4958
  975MOL0     H28685   8.755  -0.088   7.793 -2.3867 -1.9355 -0.6681
  975MOL0     H28686   9.297   0.180   8.214 -1.3094  1.7611 -2.2082
  975MOL0     H28687   9.090   0.097   8.303 -0.7529  3.9933 -1.9203
  975MOL0     H28688   8.784  -0.246   8.233  0.2229  2.5482  1.0451
  975MOL0     H28689   8.585  -0.367   8.310 -0.9423  1.2516  2.8068
  975MOL0     H28690   8.331  -0.372   8.433 -0.9306 -1.2321  1.3652
  975MOL0     H28691   8.404  -0.480   8.306  0.4777  2.3450  0.4621
  975MOL0     H28692   8.170  -0.503   8.217 -1.4676  1.5817 -1.0431
  975MOL0     H28693   8.169  -0.573   8.379  0.2206  0.3363  0.3841
  975MOL0     H28694   8.065  -0.306   8.282  3.7501 -2.0297 -1.3163
  975MOL0     H28695   8.088  -0.333   8.454  1.4168 -1.2078  0.5964
  975MOL0     H28696   7.854  -0.387   8.336  2.2089  2.4395 -3.2553
  975MOL0     H28697   7.922  -0.521   8.256  1.0093 -0.3537 -1.6187
  975MOL0     H28698   7.867  -0.667   8.645  1.3356 -3.2608 -2.2579
  975MOL0     H28699   8.347  -0.086   8.103  0.3421  1.1939 -0.6091
  975MOL0     H28700   8.545   0.032   8.024  0.3456 -0.9200 -2.7363
  976MOL0     O28701   3.411  10.356   8.596  1.3374  0.0174 -0.3375
  976MOL0     C28702   3.350  10.421   8.677 -0.4400 -0.5077 -0.4799
  976MOL0     O28703   3.210  10.445   8.673 -0.0493  0.3464  0.2918
  976MOL0     C28704   3.137  10.427   8.558  1.3271  0.6097 -0.1243
  976MOL0     C28705   3.185  10.473   8.436 -0.7688  0.2717 -0.4999
  976MOL0     C28706   3.123  10.462   8.312  0.2149 -0.1233 -1.0547
  976MOL0     C28707   2.993  10.409   8.323 -1.4284  0.4037  0.1748
  976MOL0     O28708   2.915  10.404   8.212 -0.5792  0.1579 -0.1865
  976MOL0     C28709   2.848  10.279   8.178  0.0591  0.1292  1.0587
  976MOL0     C28710   2.793  10.295   8.038  0.2639  0.0117  1.0279
  976MOL0     C28711   2.760  10.156   7.984  0.4470 -0.3708 -0.4257
  976MOL0     C28712   2.630  10.099   8.035 -0.1869  0.1932 -0.1263
  976MOL0     C28713   2.591   9.974   7.961  0.1592  1.2231 -0.2078
  976MOL0     C28714   2.593   9.983   7.804 -0.5899  0.1199  0.2878
  976MOL0     C28715   2.514   9.880   7.721 -0.3971 -0.8341 -0.0049
  976MOL0     C28716   2.359   9.887   7.735  0.0356  0.1596  0.7288
  976MOL0     N28717   2.286   9.763   7.722 -0.3637 -0.0670 -0.1072
  976MOL0     C28718   2.344   9.655   7.662  0.1347  0.7651 -0.2819
  976MOL0     C28719   2.252   9.554   7.683 -0.5679  0.1735  0.9549
  976MOL0     C28720   2.270   9.406   7.647  0.2884  0.3008 -0.1760
  976MOL0     C28721   2.130   9.336   7.616  0.2625 -0.3332 -0.2819
  976MOL0     C28722   2.142   9.194   7.562 -0.7448 -0.2856 -0.1654
  976MOL0     C28723   2.020   9.103   7.586  0.3332 -0.0031 -0.1348
  976MOL0     O28724   1.993   9.109   7.736  0.1520  0.3603  0.6445
  976MOL0     C28725   1.896   9.027   7.782 -0.6785 -0.0804 -0.1756
  976MOL0     C28726   1.812   9.081   7.882 -0.7976 -0.2758  0.3625
  976MOL0     C28727   1.703   9.007   7.925  0.4179  0.1853 -0.1010
  976MOL0     C28728   1.685   8.871   7.891 -0.2144 -0.3122  0.2582
  976MOL0     C28729   1.585   8.783   7.949 -0.4019  0.0376  0.0570
  976MOL0     O28730   1.543   8.819   8.081 -0.6161  0.2302  0.4125
  976MOL0     C28731   1.517   8.729   8.179  1.0550  0.3935  0.4537
  976MOL0     C28732   1.487   8.593   8.165 -0.0422 -0.5172 -0.5138
  976MOL0     C28733   1.460   8.517   8.276  0.1487  0.4448  0.5068
  976MOL0     C28734   1.477   8.567   8.411  0.4354 -0.1154  1.0484
  976MOL0     O28735   1.466   8.480   8.511 -0.9861  0.3941 -0.0916
  976MOL0     C28736   1.374   8.511   8.615 -0.1367  1.1673 -0.1068
  976MOL0     C28737   1.439   8.453   8.743 -0.6717  0.4692  0.3284
  976MOL0     C28738   1.348   8.425   8.865  0.7466  0.1784  0.5670
  976MOL0     C28739   1.415   8.393   8.993 -0.3046  0.9311 -0.0550
  976MOL0     C28740   1.319   8.379   9.110 -0.2313  0.2267  0.1834
  976MOL0     C28741   1.263   8.235   9.108 -0.0934 -1.1085  0.6556
  976MOL0     C28742   1.155   8.211   9.211  0.4595 -0.3967  1.3124
  976MOL0     C28743   1.194   8.244   9.351  0.5500  0.2160  1.3393
  976MOL0    Cl28744   1.066   8.178   9.455 -0.2635  0.2116  0.4060
  976MOL0     C28745   1.514   8.710   8.419  0.9936  0.1600 -1.3492
  976MOL0     C28746   1.534   8.782   8.302 -0.2378  0.1799 -0.7926
  976MOL0     O28747   1.572   8.673   7.892 -0.2687 -0.7744 -0.6541
  976MOL0     C28748   1.782   8.818   7.802  0.3828 -0.4785 -0.2095
  976MOL0     C28749   1.879   8.899   7.746 -0.2054  0.7581  0.6854
  976MOL0     N28750   2.147   9.606   7.753 -0.3810  0.1052  0.7361
  976MOL0     N28751   2.176   9.723   7.788  0.0568  0.6104  0.0984
  976MOL0     C28752   2.940  10.356   8.442  0.9321  0.1671  0.5525
  976MOL0     C28753   3.018  10.356   8.560  0.0241 -1.3813 -0.0190
  976MOL0     C28754   3.411  10.462   8.802 -0.6298 -1.1452 -0.4832
  976MOL0     C28755   3.366  10.565   8.881 -0.9075 -1.5047  0.5298
  976MOL0     C28756   3.444  10.609   8.986 -0.4884  0.4021 -0.1900
  976MOL0     C28757   3.555  10.547   9.034 -0.0714 -0.1194 -0.4285
  976MOL0     O28758   3.619  10.580   9.158 -0.1102  0.9327  0.1092
  976MOL0     C28759   3.764  10.547   9.171  1.5518 -0.2366 -0.8595
  976MOL0     C28760   3.828  10.599   9.302  0.2754  0.3349 -0.3043
  976MOL0     C28761   3.964  10.529   9.321 -0.9938 -0.3211 -0.2927
  976MOL0     C28762   4.029  10.587   9.445 -0.0813 -0.2814  1.8919
  976MOL0     C28763   3.968  10.540   9.567 -0.5313  0.1340 -0.7311
  976MOL0     C28764   3.932  10.526   9.679 -0.3739  0.4151  0.7276
  976MOL0     C28765   3.602  10.439   8.956  0.8547 -0.5019 -0.0112
  976MOL0     C28766   3.531  10.399   8.842 -0.4466 -0.6196 -0.2001
  976MOL0     H28767   3.283  10.519   8.440 -0.5865 -0.1023 -0.6108
  976MOL0     H28768   3.151  10.504   8.216  0.4168 -0.8370 -1.3159
  976MOL0     H28769   2.771  10.251   8.251  1.1337  2.6117  3.3028
  976MOL0     H28770   2.920  10.197   8.185 -1.6431 -1.3530  1.9822
  976MOL0     H28771   2.876  10.336   7.979  1.2964 -2.1142  0.9094
  976MOL0     H28772   2.708  10.364   8.042  1.3728  1.4589  0.7421
  976MOL0     H28773   2.834  10.085   8.022  1.8318  0.9588 -0.5044
  976MOL0     H28774   2.750  10.174   7.876  2.2221  1.4982 -0.3591
  976MOL0     H28775   2.634  10.089   8.144  2.7407 -1.2330 -0.2636
  976MOL0     H28776   2.563  10.184   8.021  0.5170  0.3776 -2.8807
  976MOL0     H28777   2.493   9.932   7.986  1.1632 -0.7133  0.7297
  976MOL0     H28778   2.658   9.894   7.993 -2.7283 -2.7712 -3.0868
  976MOL0     H28779   2.698   9.989   7.776 -1.3334  1.5305 -2.6697
  976MOL0     H28780   2.548  10.076   7.767  1.2893  1.4230  1.1252
  976MOL0     H28781   2.553   9.894   7.620  0.0040 -1.3173  0.0799
  976MOL0     H28782   2.551   9.783   7.757 -1.5227  0.0068  3.8945
  976MOL0     H28783   2.334   9.961   7.658  1.0190  0.8339  1.0427
  976MOL0     H28784   2.332   9.918   7.836  2.1590 -1.7005  1.9528
  976MOL0     H28785   2.441   9.655   7.613  0.1154  0.5594 -0.3194
  976MOL0     H28786   2.314   9.345   7.725  2.2435 -1.2880 -2.3663
  976MOL0     H28787   2.342   9.406   7.564  3.0353  1.3806  2.0546
  976MOL0     H28788   2.058   9.393   7.558 -1.1299 -0.7494  0.9691
  976MOL0     H28789   2.078   9.319   7.711  1.6714 -4.6518 -0.0492
  976MOL0     H28790   2.155   9.205   7.454  1.0491  2.2711  0.2209
  976MOL0     H28791   2.225   9.136   7.603 -1.7478 -2.1423 -0.6193
  976MOL0     H28792   2.046   9.003   7.551  1.7374  1.1195 -2.5646
  976MOL0     H28793   1.927   9.133   7.537 -0.7423  0.7773  2.2125
  976MOL0     H28794   1.816   9.180   7.925 -1.9834  0.5841 -1.3719
  976MOL0     H28795   1.630   9.047   7.994  1.0734  0.5503  0.3930
  976MOL0     H28796   1.459   8.546   8.071 -2.6485  0.7162 -0.4499
  976MOL0     H28797   1.431   8.413   8.264  2.8296 -0.1954 -1.3430
  976MOL0     H28798   1.276   8.463   8.600  1.1344 -0.7648 -3.4914
  976MOL0     H28799   1.357   8.617   8.634 -1.9164  0.6305  1.6644
  976MOL0     H28800   1.526   8.511   8.776  0.8374  0.0445 -2.6029
  976MOL0     H28801   1.476   8.352   8.725  1.9272  0.8546  2.7524
  976MOL0     H28802   1.299   8.330   8.843  0.1340  0.8304 -1.0547
  976MOL0     H28803   1.282   8.511   8.879  1.1422  0.7338 -0.7565
  976MOL0     H28804   1.464   8.296   8.975 -2.5843 -0.2100 -0.5070
  976MOL0     H28805   1.495   8.461   9.024  2.0835 -0.5101 -2.5585
  976MOL0     H28806   1.237   8.451   9.105 -2.9264 -2.7055 -1.4999
  976MOL0     H28807   1.375   8.387   9.204 -1.3552 -0.7819  0.9709
  976MOL0     H28808   1.347   8.166   9.110  1.0996 -0.2009 -4.1546
  976MOL0     H28809   1.214   8.215   9.012 -1.0104 -0.4049  0.9555
  976MOL0     H28810   1.063   8.259   9.176  1.0686  1.3120  1.9543
  976MOL0     H28811   1.130   8.105   9.205 -0.1584 -0.1556 -1.4148
  976MOL0     H28812   1.209   8.352   9.363  1.5817 -0.0536  2.8000
  976MOL0     H28813   1.289   8.191   9.366  1.6388  1.9786  0.9119
  976MOL0     H28814   1.544   8.754   8.514  0.1940  0.8129 -1.3924
  976MOL0     H28815   1.568   8.880   8.332  3.3675 -2.0013  3.5223
  976MOL0     H28816   1.766   8.720   7.758  0.0910 -1.0942  1.2044
  976MOL0     H28817   1.955   8.868   7.675 -1.3934 -0.5375 -0.0635
  976MOL0     H28818   2.841  10.312   8.446  0.9664 -0.0063 -0.2681
  976MOL0     H28819   2.980  10.312   8.651  0.2220  1.5801  1.6055
  976MOL0     H28820   3.293  10.627   8.831  1.4963 -0.2214 -1.6148
  976MOL0     H28821   3.395  10.692   9.035 -0.9814  0.8658 -1.4393
  976MOL0     H28822   3.832  10.578   9.092  2.2914  1.2254  0.2811
  976MOL0     H28823   3.757  10.439   9.180  0.9361 -0.1986 -0.8810
  976MOL0     H28824   3.840  10.707   9.294 -2.3751  0.6483 -0.9962
  976MOL0     H28825   3.760  10.597   9.388 -0.1575  2.8242 -0.5109
  976MOL0     H28826   4.031  10.545   9.236  1.6433 -2.1569  1.2951
  976MOL0     H28827   3.949  10.421   9.308 -2.3789 -0.1768  0.0124
  976MOL0     H28828   4.133  10.553   9.441 -0.0170 -0.0149  1.2273
  976MOL0     H28829   4.027  10.696   9.446 -3.8353 -0.2014  0.5521
  976MOL0     H28830   3.910  10.500   9.781 -0.4468 -1.7530  0.2046
  976MOL0     H28831   3.695  10.391   8.984 -0.9078 -2.6138  2.6648
  976MOL0     H28832   3.548  10.303   8.795  4.1507  0.3141 -0.9777
  977MOL0     O28833   2.436   3.222   1.519 -0.2666  0.1025  0.0591
  977MOL0     C28834   2.452   3.330   1.457 -0.1022  0.0550  0.1435
  977MOL0     O28835   2.473   3.336   1.312 -0.8554 -0.3008 -0.3263
  977MOL0     C28836   2.493   3.215   1.244  0.0890  0.0587  0.1568
  977MOL0     C28837   2.625   3.190   1.192  0.1043 -0.2802  1.0435
  977MOL0     C28838   2.642   3.090   1.104  0.3354  0.6430 -0.2104
  977MOL0     C28839   2.535   2.998   1.088 -0.7968 -0.1601  0.0725
  977MOL0     O28840   2.544   2.884   1.015  0.6117 -0.8435 -0.2576
  977MOL0     C28841   2.616   2.776   1.064  0.3296 -0.1073  0.2189
  977MOL0     C28842   2.615   2.666   0.950  0.2861 -0.9600 -0.2188
  977MOL0     C28843   2.667   2.534   1.001  0.0091  0.3816  0.2775
  977MOL0     C28844   2.723   2.430   0.890  0.5506 -1.0303 -0.0947
  977MOL0     C28845   2.767   2.299   0.962 -0.7224 -1.3945  0.4385
  977MOL0     C28846   2.816   2.197   0.863  0.1576  0.2444  0.5020
  977MOL0     C28847   2.820   2.063   0.931  0.0096  0.2465  0.0102
  977MOL0     C28848   2.698   1.978   0.888  0.4024 -0.0089 -0.8184
  977MOL0     N28849   2.709   1.835   0.942 -0.5636 -0.2204 -0.2908
  977MOL0     C28850   2.646   1.796   1.059  0.3893  0.5839 -0.7944
  977MOL0     C28851   2.707   1.674   1.082  0.9617 -0.3655  0.0939
  977MOL0     C28852   2.688   1.599   1.213 -0.0807 -0.6144 -1.0336
  977MOL0     C28853   2.696   1.449   1.198  0.2300  0.2422  0.5333
  977MOL0     C28854   2.680   1.375   1.330  0.1525  0.2563 -0.2326
  977MOL0     C28855   2.677   1.227   1.308  1.2095  0.2088  0.1885
  977MOL0     O28856   2.551   1.187   1.237 -0.2091 -0.1582 -0.5681
  977MOL0     C28857   2.548   1.058   1.168 -0.2229 -0.7758  0.4902
  977MOL0     C28858   2.476   1.052   1.053  0.4070 -0.1849  0.0410
  977MOL0     C28859   2.494   0.935   0.964 -0.1142 -0.2203  0.1725
  977MOL0     C28860   2.558   0.822   1.012 -0.6597  0.0040  0.8050
  977MOL0     C28861   2.591   0.708   0.915  0.3688  0.3553 -0.8476
  977MOL0     O28862   2.562   0.721   0.786  0.3226 -0.1685 -0.7302
  977MOL0     C28863   2.601   0.621   0.700  0.2016  0.4764 -0.3346
  977MOL0     C28864   2.505   0.531   0.664 -0.2914  0.3302  0.1228
  977MOL0     C28865   2.534   0.436   0.565 -0.4956 -0.2948 -0.4766
  977MOL0     C28866   2.658   0.439   0.508 -1.0822 -0.6425  0.5715
  977MOL0     O28867   2.694   0.351   0.406 -0.2989 -0.2570 -0.1620
  977MOL0     C28868   2.592   0.277   0.341  0.6342 -0.0402  1.2699
  977MOL0     C28869   2.492   0.366   0.259  0.9311 -0.0438 -0.6621
  977MOL0     C28870   2.397   0.282   0.174  0.4440 -0.0584 -0.1952
  977MOL0     C28871   2.287   0.203   0.262  0.3352  0.1580  0.0698
  977MOL0     C28872   2.272   0.053   0.221  0.4052 -0.4155  0.1482
  977MOL0     C28873   2.406  -0.029   0.241  0.1722 -0.7615  0.7576
  977MOL0     C28874   2.408  -0.181   0.201  1.2737 -0.4286 -1.0410
  977MOL0     C28875   2.290  -0.253   0.258  0.2590 -0.6273  0.5672
  977MOL0    Cl28876   2.305  -0.422   0.221 -0.3487  0.3789 -0.1289
  977MOL0     C28877   2.756   0.536   0.531  1.1296 -0.0088 -0.5069
  977MOL0     C28878   2.729   0.625   0.639  0.5532 -0.0256  0.0289
  977MOL0     O28879   2.641   0.609   0.962  0.4905  0.4597  0.2489
  977MOL0     C28880   2.607   0.825   1.143 -0.4451 -1.5314  0.1503
  977MOL0     C28881   2.608   0.945   1.228  0.2665  0.4632  0.4438
  977MOL0     N28882   2.807   1.650   0.989  0.9471 -0.8018 -0.3844
  977MOL0     N28883   2.801   1.739   0.901 -0.4130  1.0113  0.1321
  977MOL0     C28884   2.408   3.012   1.156 -0.5300 -0.0840  0.0328
  977MOL0     C28885   2.390   3.124   1.237  0.9013  0.9746 -0.4294
  977MOL0     C28886   2.411   3.454   1.516 -0.7101 -0.4454 -0.4384
  977MOL0     C28887   2.385   3.469   1.654  1.3436  0.2942 -0.1733
  977MOL0     C28888   2.334   3.586   1.706 -0.3655  0.8371 -0.0600
  977MOL0     C28889   2.314   3.696   1.624 -1.1191  0.3258  0.7107
  977MOL0     O28890   2.266   3.819   1.665 -0.2682  0.3325  0.0639
  977MOL0     C28891   2.272   3.857   1.803 -0.3488  0.9108  0.0984
  977MOL0     C28892   2.281   4.001   1.810  1.4736  0.3670  0.0388
  977MOL0     C28893   2.260   4.056   1.952  0.2857  0.4256 -0.3301
  977MOL0     C28894   2.389   4.055   2.036 -0.0462  0.5261  0.2307
  977MOL0     C28895   2.358   4.082   2.178  0.5289 -0.1796 -0.1016
  977MOL0     C28896   2.324   4.090   2.296 -0.1672  0.1353  0.0881
  977MOL0     C28897   2.337   3.674   1.480 -0.6942  0.0454  0.0461
  977MOL0     C28898   2.399   3.562   1.431  0.1848  0.3330  0.3454
  977MOL0     H28899   2.706   3.260   1.208 -1.5182  1.8046  0.5444
  977MOL0     H28900   2.735   3.075   1.050 -1.2602 -0.5141 -2.8589
  977MOL0     H28901   2.568   2.727   1.150  2.1007  0.9525  1.8852
  977MOL0     H28902   2.722   2.796   1.083  0.1054  4.0453 -1.7842
  977MOL0     H28903   2.677   2.695   0.864  0.5852 -0.9167  0.0114
  977MOL0     H28904   2.510   2.658   0.917  0.5343  2.3203 -2.3079
  977MOL0     H28905   2.592   2.483   1.061  2.2391 -0.6773  2.3641
  977MOL0     H28906   2.752   2.548   1.070  0.9854 -0.6214 -0.6830
  977MOL0     H28907   2.647   2.402   0.817  0.3202 -2.5105  0.6607
  977MOL0     H28908   2.814   2.476   0.850 -0.6833  0.1902 -1.6317
  977MOL0     H28909   2.692   2.267   1.034  1.4683 -0.5107  3.3240
  977MOL0     H28910   2.845   2.339   1.027 -0.5084  1.1411 -1.2170
  977MOL0     H28911   2.911   2.219   0.814 -0.5513  0.0476 -1.0181
  977MOL0     H28912   2.755   2.192   0.772  4.6613  2.1474 -3.0226
  977MOL0     H28913   2.915   2.012   0.914 -0.8704 -1.0581 -1.1706
  977MOL0     H28914   2.824   2.096   1.036  2.0615  0.6588 -0.1345
  977MOL0     H28915   2.698   1.988   0.779  0.6093 -1.3403 -0.9501
  977MOL0     H28916   2.604   2.032   0.906 -0.4056 -0.1961 -3.8819
  977MOL0     H28917   2.563   1.839   1.114 -0.5095 -0.8838 -0.9641
  977MOL0     H28918   2.593   1.621   1.262  0.1894 -1.5200 -0.0503
  977MOL0     H28919   2.767   1.627   1.284 -1.7101  3.2970 -0.4576
  977MOL0     H28920   2.792   1.421   1.154 -0.1549 -1.1314  0.5113
  977MOL0     H28921   2.621   1.410   1.128  1.0999 -1.7962  0.6607
  977MOL0     H28922   2.754   1.403   1.406 -1.6567  2.2370  0.8978
  977MOL0     H28923   2.582   1.406   1.366 -1.3975 -0.8110 -3.2233
  977MOL0     H28924   2.691   1.169   1.400  0.5151 -3.0857 -1.6287
  977MOL0     H28925   2.755   1.190   1.241 -1.5551 -3.4888 -1.3646
  977MOL0     H28926   2.422   1.142   1.027  2.8132  1.5309  0.5815
  977MOL0     H28927   2.439   0.942   0.871 -0.9298 -0.7498  0.6053
  977MOL0     H28928   2.425   0.526   0.737 -0.2153  0.3405  0.2069
  977MOL0     H28929   2.456   0.363   0.545 -1.6745 -0.4359  3.7946
  977MOL0     H28930   2.555   0.196   0.404  1.4448 -0.2077  1.5312
  977MOL0     H28931   2.643   0.232   0.255  1.7301  5.5384 -1.4945
  977MOL0     H28932   2.555   0.420   0.187  1.5483 -0.6820 -0.6160
  977MOL0     H28933   2.438   0.431   0.328  0.6695 -0.6497 -0.2865
  977MOL0     H28934   2.459   0.218   0.109 -0.9383  0.7316 -2.3768
  977MOL0     H28935   2.344   0.348   0.106 -3.1142 -5.1186 -3.0394
  977MOL0     H28936   2.317   0.203   0.367  0.7669  0.6399 -0.0476
  977MOL0     H28937   2.194   0.259   0.252  0.9863  0.9589 -2.0141
  977MOL0     H28938   2.237   0.037   0.118  2.3516 -1.9443 -0.3504
  977MOL0     H28939   2.197   0.011   0.288  2.1678 -0.1872  2.3823
  977MOL0     H28940   2.431  -0.025   0.347 -0.0180 -2.5115  0.8971
  977MOL0     H28941   2.483   0.025   0.185 -3.4503  0.8007 -3.3805
  977MOL0     H28942   2.407  -0.196   0.093 -4.8035  3.2871 -1.9591
  977MOL0     H28943   2.501  -0.219   0.245  1.7157  5.0543  3.9677
  977MOL0     H28944   2.199  -0.220   0.207  2.0627  0.5990 -2.1111
  977MOL0     H28945   2.254  -0.234   0.360 -1.6653 -0.8653 -0.0373
  977MOL0     H28946   2.854   0.542   0.484  1.4298 -1.4980 -0.1314
  977MOL0     H28947   2.799   0.702   0.671 -0.2035  1.4299 -1.6768
  977MOL0     H28948   2.660   0.737   1.180  2.3741  0.8034  2.0975
  977MOL0     H28949   2.641   0.946   1.331 -2.0784 -3.9155  1.4930
  977MOL0     H28950   2.327   2.939   1.150 -1.2745  0.7758 -4.3278
  977MOL0     H28951   2.297   3.121   1.294 -1.0036 -2.3876 -3.2402
  977MOL0     H28952   2.406   3.379   1.711  1.2985  1.1352  1.2325
  977MOL0     H28953   2.307   3.602   1.810 -0.8981  0.7627 -0.1852
  977MOL0     H28954   2.360   3.815   1.853 -0.0433 -1.8092 -2.4179
  977MOL0     H28955   2.186   3.815   1.856  1.1638 -0.7710  1.3603
  977MOL0     H28956   2.386   4.020   1.784  1.7394  0.1071  0.8928
  977MOL0     H28957   2.210   4.049   1.743 -0.7303 -3.9685 -1.1437
  977MOL0     H28958   2.189   3.996   2.010 -0.4747  2.7908  1.3291
  977MOL0     H28959   2.218   4.157   1.944 -1.8495 -0.3696  0.3196
  977MOL0     H28960   2.435   3.956   2.042 -0.7480  0.2283  0.9778
  977MOL0     H28961   2.464   4.124   1.997 -0.0981  1.4029  1.5846
  977MOL0     H28962   2.286   4.082   2.396 -1.4536 -2.6728 -0.5235
  977MOL0     H28963   2.335   3.759   1.413  1.9337 -2.2097 -3.1815
  977MOL0     H28964   2.428   3.566   1.326 -0.6588  4.1589  0.1306
  978MOL0     O28965   5.642   1.879   0.212 -0.2917  0.0104 -0.3419
  978MOL0     C28966   5.602   1.987   0.168 -0.9419 -0.2499 -1.2978
  978MOL0     O28967   5.640   2.110   0.202 -0.6907  0.0544  1.1027
  978MOL0     C28968   5.749   2.148   0.283 -0.0955 -0.1898  0.0872
  978MOL0     C28969   5.736   2.279   0.342  0.2590 -0.5903 -0.0557
  978MOL0     C28970   5.842   2.326   0.418  0.5473 -0.8460  0.7405
  978MOL0     C28971   5.964   2.257   0.430 -0.3322 -0.4638  0.7788
  978MOL0     O28972   6.090   2.297   0.472  0.6215 -0.2056  0.6011
  978MOL0     C28973   6.093   2.409   0.553 -0.2523  0.5779  0.4384
  978MOL0     C28974   6.101   2.544   0.482  0.5931 -0.5992 -0.4056
  978MOL0     C28975   6.242   2.593   0.461 -0.0388  0.7007 -0.3827
  978MOL0     C28976   6.250   2.731   0.418  0.4915  0.5957  0.1151
  978MOL0     C28977   6.383   2.812   0.451 -0.4466  0.5577 -1.0714
  978MOL0     C28978   6.383   2.852   0.600 -0.3455 -0.7666 -0.9269
  978MOL0     C28979   6.520   2.927   0.626  0.8553 -0.3604  0.6018
  978MOL0     C28980   6.544   2.946   0.775  0.5413 -0.0864  0.0067
  978MOL0     N28981   6.580   2.822   0.855 -0.1156  0.7946  0.3654
  978MOL0     C28982   6.615   2.701   0.804  0.1127  1.4741  0.1989
  978MOL0     C28983   6.666   2.643   0.913  0.8624 -0.4546 -0.0375
  978MOL0     C28984   6.733   2.509   0.892  0.6624  0.3550 -1.3147
  978MOL0     C28985   6.813   2.458   1.021  0.3124 -1.5409 -0.0488
  978MOL0     C28986   6.746   2.342   1.097  0.6408  0.0714  0.3211
  978MOL0     C28987   6.814   2.317   1.234  0.2746 -0.7893 -0.5468
  978MOL0     O28988   6.770   2.406   1.337 -0.2636  0.2122 -1.0751
  978MOL0     C28989   6.818   2.384   1.460 -1.3212  0.3726 -0.8112
  978MOL0     C28990   6.937   2.308   1.493  0.6682 -0.7654  0.8492
  978MOL0     C28991   6.967   2.280   1.624  0.0940  0.9621  0.1182
  978MOL0     C28992   6.888   2.332   1.737  0.0074  0.2838  0.2763
  978MOL0     C28993   6.922   2.301   1.875 -0.5782  0.8982  0.6307
  978MOL0     O28994   6.853   2.362   1.970  0.1602 -0.2023  0.1321
  978MOL0     C28995   6.891   2.332   2.098 -0.8342 -0.7114 -0.4295
  978MOL0     C28996   7.031   2.308   2.140  0.4863  0.0163  1.0107
  978MOL0     C28997   7.051   2.281   2.281  0.4055  0.0484  0.7795
  978MOL0     C28998   6.947   2.296   2.375  0.2664 -0.7910 -0.5222
  978MOL0     O28999   6.973   2.286   2.511 -0.8423  0.4037 -0.0277
  978MOL0     C29000   6.867   2.259   2.601 -0.4687  0.1341  0.2474
  978MOL0     C29001   6.931   2.199   2.715  0.5077  0.1590  0.0291
  978MOL0     C29002   7.018   2.312   2.787  0.2069  0.0480  0.3832
  978MOL0     C29003   7.042   2.276   2.943  0.7967  1.3778  0.2223
  978MOL0     C29004   7.075   2.400   3.032 -0.7240 -1.4969  0.7997
  978MOL0     C29005   7.053   2.363   3.186 -0.0583 -0.3429  0.3317
  978MOL0     C29006   7.089   2.479   3.281 -0.2706 -0.3556  1.6262
  978MOL0     C29007   6.977   2.578   3.296  0.4542 -0.0834 -0.5686
  978MOL0    Cl29008   7.034   2.717   3.386  0.0037 -0.3451 -0.2253
  978MOL0     C29009   6.818   2.335   2.333 -0.9245  0.2646 -0.2500
  978MOL0     C29010   6.795   2.341   2.193 -1.0318 -0.4942 -1.1171
  978MOL0     O29011   6.992   2.192   1.883 -0.9644  0.3286 -0.2152
  978MOL0     C29012   6.779   2.424   1.698  0.1391 -0.3176  0.3845
  978MOL0     C29013   6.749   2.447   1.567 -0.4356 -1.1998  0.0190
  978MOL0     N29014   6.654   2.718   1.026 -0.3816 -0.6184 -0.5569
  978MOL0     N29015   6.600   2.831   0.991  0.0727  0.7075  0.2993
  978MOL0     C29016   5.960   2.124   0.395 -0.1404 -0.2535 -0.1519
  978MOL0     C29017   5.864   2.069   0.317 -0.0072 -0.2308  0.1975
  978MOL0     C29018   5.499   1.966   0.062 -0.1581 -0.3765 -0.2689
  978MOL0     C29019   5.464   2.077  -0.019 -0.5314 -0.3629 -0.4722
  978MOL0     C29020   5.359   2.074  -0.107 -0.1990  0.2430  0.5537
  978MOL0     C29021   5.298   1.951  -0.134  0.0369  0.6577  0.0467
  978MOL0     O29022   5.198   1.956  -0.223 -0.2200  0.7009  0.8291
  978MOL0     C29023   5.087   1.868  -0.216  0.7589  0.5788  0.9250
  978MOL0     C29024   5.006   1.912  -0.334 -0.8471 -0.3486 -0.0923
  978MOL0     C29025   5.068   1.859  -0.464 -0.1272  0.0543 -0.0308
  978MOL0     C29026   5.002   1.936  -0.585 -0.2885 -0.2797 -0.6453
  978MOL0     C29027   4.868   1.898  -0.610  0.0888  0.3067 -0.4846
  978MOL0     C29028   4.757   1.863  -0.641 -0.2442  0.2952  0.2782
  978MOL0     C29029   5.330   1.834  -0.058  0.7937  0.2432  0.8548
  978MOL0     C29030   5.424   1.848   0.039 -0.6448 -0.1218  0.2220
  978MOL0     H29031   5.640   2.327   0.331  0.7451  0.3402 -0.3471
  978MOL0     H29032   5.839   2.429   0.453  0.0347 -1.0332  1.2587
  978MOL0     H29033   6.173   2.398   0.628  1.6273  0.1546 -1.5048
  978MOL0     H29034   6.013   2.407   0.627  0.2275  2.5833  1.0660
  978MOL0     H29035   6.056   2.617   0.550 -0.3347 -1.4009 -0.1358
  978MOL0     H29036   6.046   2.551   0.387 -0.1613  2.4504  0.1228
  978MOL0     H29037   6.298   2.539   0.384  0.7193 -5.1191  3.6255
  978MOL0     H29038   6.299   2.577   0.553 -1.1119  1.2930  0.4097
  978MOL0     H29039   6.249   2.731   0.308 -0.2896  0.6644  0.1147
  978MOL0     H29040   6.162   2.792   0.440 -0.8577  0.1645 -3.3949
  978MOL0     H29041   6.388   2.901   0.387 -3.0327  1.1977 -0.5046
  978MOL0     H29042   6.473   2.750   0.439  1.3706  3.1020 -1.5512
  978MOL0     H29043   6.390   2.763   0.663  0.5475 -1.8990 -2.5331
  978MOL0     H29044   6.297   2.917   0.620  0.5234 -0.0293  0.5886
  978MOL0     H29045   6.603   2.864   0.594  2.1628  1.1554  0.8946
  978MOL0     H29046   6.514   3.017   0.565  2.6059 -1.0116 -0.6035
  978MOL0     H29047   6.456   2.993   0.820  0.8567  2.5089 -1.8458
  978MOL0     H29048   6.623   3.020   0.784  0.7113  0.0721 -2.2207
  978MOL0     H29049   6.626   2.664   0.702  0.7370  0.7326  0.5250
  978MOL0     H29050   6.791   2.518   0.800 -0.4183  1.1095 -1.9466
  978MOL0     H29051   6.655   2.436   0.871 -2.6006  2.3416  2.4531
  978MOL0     H29052   6.834   2.542   1.087 -1.5156 -2.6256  2.0365
  978MOL0     H29053   6.902   2.417   0.973 -1.9991 -3.8412 -2.7141
  978MOL0     H29054   6.637   2.352   1.110  0.8980  2.0960  1.2909
  978MOL0     H29055   6.761   2.254   1.035 -1.3230  0.2458 -0.4803
  978MOL0     H29056   6.921   2.336   1.234 -0.0354  2.2219  2.7747
  978MOL0     H29057   6.797   2.213   1.261  0.3803 -0.6248  0.1884
  978MOL0     H29058   6.997   2.270   1.411 -0.3526 -0.1129 -0.2288
  978MOL0     H29059   7.063   2.232   1.636 -1.2138 -1.7683  0.3892
  978MOL0     H29060   7.113   2.307   2.069 -1.0101 -2.8447 -0.8759
  978MOL0     H29061   7.151   2.249   2.308 -0.1149  0.3940  3.4026
  978MOL0     H29062   6.800   2.181   2.563  0.8614 -1.3679  0.8628
  978MOL0     H29063   6.815   2.349   2.635  1.0467  0.6042  1.4140
  978MOL0     H29064   6.979   2.103   2.695  1.4932 -0.1460  3.2527
  978MOL0     H29065   6.852   2.179   2.789  0.5437  1.5648  0.4792
  978MOL0     H29066   6.964   2.407   2.785  0.4869  0.2190  0.8235
  978MOL0     H29067   7.109   2.329   2.729 -1.9058  2.6256 -2.5053
  978MOL0     H29068   6.947   2.228   2.969 -0.1454  0.6098 -3.8583
  978MOL0     H29069   7.124   2.203   2.939  1.0179  1.6463 -0.3214
  978MOL0     H29070   7.013   2.484   2.999  2.2788  0.7937  0.5680
  978MOL0     H29071   7.179   2.429   3.013 -1.0628 -2.5433 -3.5701
  978MOL0     H29072   7.119   2.279   3.212 -1.1939 -0.9216  1.4578
  978MOL0     H29073   6.950   2.328   3.193  1.5317 -5.6373  2.8700
  978MOL0     H29074   7.113   2.436   3.378 -0.2304 -1.2788  1.2200
  978MOL0     H29075   7.170   2.539   3.239 -0.8130  0.8201  2.2065
  978MOL0     H29076   6.882   2.542   3.336 -0.3816  1.3394 -1.2066
  978MOL0     H29077   6.959   2.606   3.192  1.9644  2.7438 -0.1581
  978MOL0     H29078   6.733   2.346   2.399 -1.6417  1.1379 -1.2769
  978MOL0     H29079   6.694   2.367   2.162 -1.0444 -0.2760 -0.8927
  978MOL0     H29080   6.722   2.479   1.773  1.5495  1.3838  0.2817
  978MOL0     H29081   6.668   2.512   1.536  0.6225  0.2748  0.2334
  978MOL0     H29082   6.056   2.074   0.402 -0.1362 -0.2690 -0.3149
  978MOL0     H29083   5.896   1.979   0.266  2.5199  0.9403 -0.4170
  978MOL0     H29084   5.499   2.180  -0.008 -1.1641 -0.1838 -0.0583
  978MOL0     H29085   5.321   2.160  -0.163 -1.2781  0.5003  1.6387
  978MOL0     H29086   5.035   1.893  -0.123 -0.6577 -1.5939  0.7921
  978MOL0     H29087   5.113   1.762  -0.223  0.1315  0.5629 -3.1490
  978MOL0     H29088   4.902   1.880  -0.319 -0.2736 -1.3114  2.1471
  978MOL0     H29089   5.007   2.020  -0.319 -0.1643  0.1039 -2.7864
  978MOL0     H29090   5.064   1.752  -0.487  0.1689  0.0843 -0.2328
  978MOL0     H29091   5.174   1.884  -0.457 -1.1956  4.9645  2.5407
  978MOL0     H29092   5.011   2.042  -0.560 -1.5058 -0.5077  0.8824
  978MOL0     H29093   5.062   1.915  -0.674  0.4090  0.4475 -0.3669
  978MOL0     H29094   4.657   1.830  -0.664 -0.4514  2.1059 -1.7435
  978MOL0     H29095   5.267   1.745  -0.063  1.7714 -0.5047  1.3435
  978MOL0     H29096   5.448   1.768   0.108 -0.0579  0.3210  0.5458
  979MOL0     O29097   1.119   7.809   2.375  0.6232  0.1859  0.0118
  979MOL0     C29098   1.138   7.847   2.486  0.4434 -0.5602 -0.4357
  979MOL0     O29099   1.172   7.779   2.601  0.6416 -0.0746  0.5540
  979MOL0     C29100   1.174   7.645   2.596  0.4896  0.6987 -0.1628
  979MOL0     C29101   1.275   7.579   2.529 -1.2347  0.2189  0.3982
  979MOL0     C29102   1.266   7.443   2.498  1.1721  0.0450 -0.1939
  979MOL0     C29103   1.161   7.363   2.547 -0.9296  0.4204 -0.0166
  979MOL0     O29104   1.162   7.224   2.520  0.2164 -0.3190  0.0044
  979MOL0     C29105   1.094   7.126   2.599 -0.4357 -0.2206  0.6170
  979MOL0     C29106   1.000   7.053   2.507 -0.7594 -0.0989 -0.7555
  979MOL0     C29107   0.939   6.930   2.575  0.5462 -0.3343 -0.6923
  979MOL0     C29108   1.042   6.819   2.585  0.4263 -0.1582  0.2291
  979MOL0     C29109   0.983   6.688   2.607  0.1609 -0.7639 -0.7657
  979MOL0     C29110   0.964   6.649   2.754 -0.2067 -0.7072  0.5117
  979MOL0     C29111   0.921   6.505   2.781 -0.3075 -1.3066  0.5546
  979MOL0     C29112   0.785   6.479   2.719 -0.6305 -0.4843  0.2873
  979MOL0     N29113   0.708   6.355   2.755 -0.0025 -0.4833 -0.8963
  979MOL0     C29114   0.610   6.355   2.851 -0.6640  0.3057 -0.0230
  979MOL0     C29115   0.558   6.228   2.848  0.3912 -0.7934 -0.7389
  979MOL0     C29116   0.442   6.178   2.931  0.7263  0.3705  0.5220
  979MOL0     C29117   0.470   6.073   3.039 -0.4559  0.1445  0.9846
  979MOL0     C29118   0.596   6.095   3.125  0.3111  0.1357 -0.3626
  979MOL0     C29119   0.711   6.011   3.077 -0.0070 -0.1482 -0.2169
  979MOL0     O29120   0.826   6.005   3.166 -0.8987 -0.2751 -0.1600
  979MOL0     C29121   0.946   6.065   3.127  0.7052 -0.4266 -1.8539
  979MOL0     C29122   0.974   6.136   3.004 -0.4745  0.3181 -0.0767
  979MOL0     C29123   1.104   6.173   2.966 -0.0901 -0.6239 -0.3717
  979MOL0     C29124   1.212   6.155   3.056 -0.5665 -0.6091 -0.1250
  979MOL0     C29125   1.351   6.193   3.018  0.5099  0.3134  0.3126
  979MOL0     O29126   1.440   6.156   3.103 -0.3847 -0.3208  0.4287
  979MOL0     C29127   1.571   6.160   3.073 -0.9370 -0.1978  0.1742
  979MOL0     C29128   1.650   6.058   3.012  0.3034 -0.3480 -1.3124
  979MOL0     C29129   1.789   6.084   2.994 -0.1264 -1.2755 -0.2360
  979MOL0     C29130   1.852   6.206   3.031  0.4499 -0.3441 -0.6647
  979MOL0     O29131   1.972   6.242   2.998 -0.1564 -0.0546 -1.2961
  979MOL0     C29132   2.071   6.141   2.977  0.0714  0.7801  0.6737
  979MOL0     C29133   2.208   6.209   2.981  0.1780  0.7824  0.0050
  979MOL0     C29134   2.311   6.145   2.887 -0.1254 -0.8240 -0.9965
  979MOL0     C29135   2.458   6.153   2.944  0.4881 -0.6469 -0.8099
  979MOL0     C29136   2.558   6.177   2.821  0.0948 -0.7948  0.4920
  979MOL0     C29137   2.707   6.170   2.867  0.2516  0.6508 -0.4295
  979MOL0     C29138   2.743   6.290   2.953  0.7634 -0.0098 -0.0768
  979MOL0     C29139   2.896   6.312   2.959 -0.3795 -0.4425 -0.0332
  979MOL0    Cl29140   2.962   6.403   2.812 -0.1069 -0.2769 -0.3694
  979MOL0     C29141   1.771   6.293   3.103 -1.0288 -0.5241  0.2985
  979MOL0     C29142   1.641   6.265   3.131  0.4924  0.1691 -0.2447
  979MOL0     O29143   1.375   6.249   2.911  0.1125  0.2957 -0.2021
  979MOL0     C29144   1.192   6.074   3.168  0.1913 -0.0015 -0.1507
  979MOL0     C29145   1.064   6.043   3.202  0.8121 -0.1218  0.0019
  979MOL0     N29146   0.633   6.150   2.762 -0.1492  0.6969 -0.1747
  979MOL0     N29147   0.709   6.233   2.702 -0.7435  0.1565  0.6152
  979MOL0     C29148   1.063   7.433   2.623 -1.0465  1.3490 -1.4593
  979MOL0     C29149   1.070   7.567   2.654  0.5415  0.1421 -0.5535
  979MOL0     C29150   1.152   7.988   2.505 -0.2892 -0.3109  0.3653
  979MOL0     C29151   1.101   8.039   2.630 -0.6126 -0.2194 -0.2079
  979MOL0     C29152   1.091   8.174   2.649  0.0662 -0.3589  0.0100
  979MOL0     C29153   1.140   8.255   2.546 -0.6398  0.4478 -0.6246
  979MOL0     O29154   1.125   8.388   2.563 -0.7319  0.5328  0.4229
  979MOL0     C29155   1.032   8.460   2.470  0.3410  0.7141 -0.1036
  979MOL0     C29156   0.990   8.585   2.552 -0.2685 -0.3183  0.0819
  979MOL0     C29157   0.901   8.530   2.663 -0.1119 -0.1825  0.5106
  979MOL0     C29158   0.843   8.638   2.753 -0.3367 -0.2477 -0.1030
  979MOL0     C29159   0.752   8.736   2.685 -0.0451  0.5354  0.2432
  979MOL0     C29160   0.690   8.824   2.624  0.1784  1.1334 -0.2461
  979MOL0     C29161   1.202   8.200   2.431  0.0415 -0.5149 -0.6360
  979MOL0     C29162   1.206   8.070   2.403  0.9087  0.6190 -0.7354
  979MOL0     H29163   1.366   7.622   2.487 -0.9031 -1.6361 -0.8770
  979MOL0     H29164   1.333   7.393   2.428  1.5073 -1.2771  1.0341
  979MOL0     H29165   1.022   7.179   2.663  1.1220  2.6124  0.2062
  979MOL0     H29166   1.169   7.071   2.657  1.7070 -0.0113 -1.7598
  979MOL0     H29167   1.072   7.029   2.427  3.1683  1.1443  2.0752
  979MOL0     H29168   0.919   7.115   2.468 -0.3207  0.3491 -0.9721
  979MOL0     H29169   0.852   6.898   2.517  0.4679  1.0906 -1.3932
  979MOL0     H29170   0.894   6.968   2.668 -3.5618  2.3086 -3.4592
  979MOL0     H29171   1.096   6.802   2.492 -3.2566 -3.0609 -1.6480
  979MOL0     H29172   1.122   6.857   2.650 -2.2889  2.2025  2.4673
  979MOL0     H29173   1.054   6.614   2.570  0.6308 -0.2159 -0.9580
  979MOL0     H29174   0.888   6.662   2.558 -0.7006 -2.9751  1.8024
  979MOL0     H29175   0.904   6.715   2.817  1.6849 -0.7117  2.4670
  979MOL0     H29176   1.060   6.671   2.802 -0.5076 -1.4565  1.4998
  979MOL0     H29177   0.994   6.439   2.733 -0.5072 -0.9245 -0.2989
  979MOL0     H29178   0.916   6.486   2.888 -1.7470 -0.9479  0.5697
  979MOL0     H29179   0.795   6.476   2.610  0.1217 -1.6895  0.3686
  979MOL0     H29180   0.717   6.561   2.741  0.9575  1.1550 -0.6062
  979MOL0     H29181   0.586   6.430   2.926  0.5751 -0.3954  1.1390
  979MOL0     H29182   0.369   6.131   2.864 -2.7838  2.0566  2.8523
  979MOL0     H29183   0.382   6.260   2.971  1.9687  0.9156  1.3279
  979MOL0     H29184   0.465   5.978   2.985 -2.0393  0.7462 -0.0072
  979MOL0     H29185   0.387   6.061   3.109  1.0030 -2.0092  2.4731
  979MOL0     H29186   0.631   6.199   3.131 -1.6793  0.9081 -1.1946
  979MOL0     H29187   0.557   6.066   3.222 -2.2362  3.3509 -0.2453
  979MOL0     H29188   0.736   6.040   2.974  0.9440 -3.6115 -1.0861
  979MOL0     H29189   0.683   5.906   3.067 -0.0987  0.0130 -1.9984
  979MOL0     H29190   0.892   6.174   2.943 -1.0175 -0.7395 -0.0411
  979MOL0     H29191   1.112   6.228   2.873 -0.7186 -2.3281 -1.4927
  979MOL0     H29192   1.606   5.964   2.980 -0.7418  0.1395 -1.3623
  979MOL0     H29193   1.845   6.006   2.944  0.3260 -0.8110 -0.4613
  979MOL0     H29194   2.044   6.096   2.881 -1.1430 -0.1308  1.4122
  979MOL0     H29195   2.058   6.070   3.059  0.6587  0.4453  0.4831
  979MOL0     H29196   2.247   6.213   3.083  1.5505 -0.1334 -0.4492
  979MOL0     H29197   2.209   6.315   2.954  1.2848  1.1915  1.5118
  979MOL0     H29198   2.309   6.199   2.792 -1.9766  0.4674 -0.2623
  979MOL0     H29199   2.294   6.040   2.861 -2.6735 -0.5904 -0.4656
  979MOL0     H29200   2.488   6.238   3.006  1.9716 -1.5572 -0.2360
  979MOL0     H29201   2.473   6.072   3.016  0.1081  1.2367  1.5425
  979MOL0     H29202   2.534   6.270   2.769  1.7651 -0.5814  0.0411
  979MOL0     H29203   2.529   6.091   2.760  0.7054  0.2753 -1.4195
  979MOL0     H29204   2.765   6.180   2.775  1.6938  1.1802  0.5089
  979MOL0     H29205   2.721   6.076   2.923  0.8052  1.2450  0.4551
  979MOL0     H29206   2.691   6.383   2.928 -0.8729 -0.4598  1.4420
  979MOL0     H29207   2.716   6.263   3.055  1.3400 -1.0327 -0.1784
  979MOL0     H29208   2.948   6.216   2.958 -0.1007 -0.2933 -0.7366
  979MOL0     H29209   2.929   6.363   3.050  5.6966  0.1700 -2.1094
  979MOL0     H29210   1.806   6.392   3.131  1.6578 -1.0497 -0.9142
  979MOL0     H29211   1.585   6.329   3.198 -0.1001 -1.1390  0.5360
  979MOL0     H29212   1.266   6.050   3.244  1.7311  1.1838 -1.1938
  979MOL0     H29213   1.038   5.982   3.288  3.8407 -1.3293  0.1511
  979MOL0     H29214   0.980   7.373   2.659  1.1528 -0.7872  0.3861
  979MOL0     H29215   0.991   7.613   2.711 -1.7026 -2.7024 -1.1357
  979MOL0     H29216   1.056   7.963   2.693 -0.0874 -0.0451  0.3911
  979MOL0     H29217   1.033   8.210   2.733  1.7087 -2.2455  2.0666
  979MOL0     H29218   0.953   8.396   2.429  2.7457 -0.9354 -2.6131
  979MOL0     H29219   1.081   8.493   2.378 -1.1123  4.9528  0.4387
  979MOL0     H29220   1.076   8.645   2.585 -0.7669  1.4904 -1.6699
  979MOL0     H29221   0.949   8.650   2.474  3.6394 -0.9300 -2.7738
  979MOL0     H29222   0.976   8.486   2.729 -0.6701 -0.9692  0.6264
  979MOL0     H29223   0.830   8.458   2.621  1.0717 -0.3527 -1.3609
  979MOL0     H29224   0.796   8.584   2.835 -1.2222 -1.7410 -1.5352
  979MOL0     H29225   0.931   8.687   2.796  0.1758 -1.8609  0.7569
  979MOL0     H29226   0.657   8.916   2.578 -1.2623 -0.7034 -3.2230
  979MOL0     H29227   1.234   8.280   2.365 -1.8028  0.3646 -0.5220
  979MOL0     H29228   1.255   8.050   2.309  3.5012  3.8074 -0.2489
  980MOL0     O29229   4.590   5.829   5.473  0.4277 -0.0163  0.8090
  980MOL0     C29230   4.702   5.804   5.497  1.2774 -1.5334 -0.4169
  980MOL0     O29231   4.734   5.720   5.598  0.1512 -0.8047 -0.4173
  980MOL0     C29232   4.633   5.659   5.665  0.6078  0.0906 -0.0305
  980MOL0     C29233   4.607   5.673   5.802  0.0342  1.0309  0.4693
  980MOL0     C29234   4.521   5.588   5.875 -0.3057  1.1080 -0.2570
  980MOL0     C29235   4.435   5.494   5.814 -0.3622  0.3111 -0.0993
  980MOL0     O29236   4.343   5.430   5.885 -0.4682  0.2096 -0.3556
  980MOL0     C29237   4.344   5.285   5.890 -0.1504  0.0692 -0.1975
  980MOL0     C29238   4.197   5.236   5.930  0.3564  0.5565  0.1645
  980MOL0     C29239   4.084   5.288   5.839  0.2440 -0.3045  0.2631
  980MOL0     C29240   3.940   5.254   5.888  0.3846 -0.1493 -0.3926
  980MOL0     C29241   3.842   5.273   5.772  0.0681  0.0635  0.2131
  980MOL0     C29242   3.688   5.255   5.811  0.8838  0.2157  0.0731
  980MOL0     C29243   3.645   5.111   5.844 -0.8646  0.6924  0.2272
  980MOL0     C29244   3.488   5.092   5.834 -0.2475 -0.2110  0.0150
  980MOL0     N29245   3.411   5.160   5.939 -0.5843  0.6378 -0.5930
  980MOL0     C29246   3.341   5.091   6.037 -0.1290 -0.0984 -0.1784
  980MOL0     C29247   3.268   5.195   6.098 -0.4248  0.5580  0.4203
  980MOL0     C29248   3.162   5.186   6.211  0.3778  0.4055 -0.2778
  980MOL0     C29249   3.021   5.166   6.167  0.9384  0.5475  0.6679
  980MOL0     C29250   3.010   5.100   6.026  0.2338 -0.6909 -0.6639
  980MOL0     C29251   2.873   5.049   5.985 -1.0506  0.3846 -0.6446
  980MOL0     O29252   2.806   5.172   5.949  0.1806  0.1362 -0.9830
  980MOL0     C29253   2.688   5.172   5.891  0.7451  0.4637  0.0826
  980MOL0     C29254   2.603   5.060   5.877  0.2921 -0.3248 -0.8910
  980MOL0     C29255   2.484   5.079   5.817  0.5287  0.5421 -0.4485
  980MOL0     C29256   2.453   5.206   5.760  0.3797 -0.5644 -0.2402
  980MOL0     C29257   2.325   5.223   5.700  0.0428 -0.5608 -0.8278
  980MOL0     O29258   2.294   5.343   5.637  0.4675  0.6436 -0.2795
  980MOL0     C29259   2.180   5.337   5.555 -0.1031  1.1328  0.5482
  980MOL0     C29260   2.054   5.343   5.621  0.6586 -1.0732  0.4211
  980MOL0     C29261   1.946   5.289   5.546 -0.1157 -0.6266  0.1502
  980MOL0     C29262   1.954   5.258   5.410 -0.8849 -0.1083  0.5103
  980MOL0     O29263   1.839   5.229   5.340 -0.5277 -0.3127  0.3625
  980MOL0     C29264   1.838   5.134   5.231  0.7697 -0.7081 -0.4945
  980MOL0     C29265   1.696   5.077   5.200 -0.3160 -0.8913 -0.2858
  980MOL0     C29266   1.604   5.180   5.121 -0.8772 -0.4022 -0.6132
  980MOL0     C29267   1.475   5.116   5.089  0.0269  1.2564 -0.9983
  980MOL0     C29268   1.390   5.215   5.017  0.5535  0.1700  0.2808
  980MOL0     C29269   1.405   5.181   4.863  0.4363  0.7004 -0.4265
  980MOL0     C29270   1.322   5.285   4.782  0.2234 -0.2494  1.3201
  980MOL0     C29271   1.179   5.241   4.741 -0.4858 -0.1533 -0.1065
  980MOL0    Cl29272   1.083   5.212   4.893  0.3242 -0.0066  0.5534
  980MOL0     C29273   2.078   5.262   5.343 -0.4894 -0.9978  0.2792
  980MOL0     C29274   2.191   5.296   5.422  0.8688  0.6482  0.8145
  980MOL0     O29275   2.253   5.128   5.718  0.1322 -0.5249 -0.5557
  980MOL0     C29276   2.543   5.311   5.773 -0.4591 -0.6138 -0.4710
  980MOL0     C29277   2.652   5.301   5.855 -0.5117 -0.1483  0.6117
  980MOL0     N29278   3.307   5.312   6.052 -1.1830  0.4065  0.8048
  980MOL0     N29279   3.379   5.289   5.952 -0.2454  0.0100  0.7514
  980MOL0     C29280   4.463   5.475   5.673 -0.0074 -0.2838 -0.2211
  980MOL0     C29281   4.553   5.553   5.603  0.7231 -0.8020 -0.7944
  980MOL0     C29282   4.819   5.874   5.435  0.3442 -0.0359 -0.9656
  980MOL0     C29283   4.805   5.937   5.316 -0.7737 -0.2972 -0.5939
  980MOL0     C29284   4.915   5.986   5.249  0.6802 -0.7466 -0.6692
  980MOL0     C29285   5.046   5.960   5.293 -0.3568 -0.2553  0.2416
  980MOL0     O29286   5.149   5.990   5.201 -0.1162 -0.7094  0.3062
  980MOL0     C29287   5.285   5.957   5.239  0.3724  0.1065  0.1390
  980MOL0     C29288   5.388   5.941   5.126 -1.0457 -0.1553 -0.9361
  980MOL0     C29289   5.402   6.072   5.056 -0.5715 -0.2953 -0.4905
  980MOL0     C29290   5.494   6.082   4.936 -0.0495  0.1430  0.2023
  980MOL0     C29291   5.633   6.051   4.963  0.8386  0.1466 -0.2051
  980MOL0     C29292   5.743   6.023   5.016  0.7308 -0.5361  0.1092
  980MOL0     C29293   5.062   5.897   5.420 -0.3012 -0.1204  0.3700
  980MOL0     C29294   4.947   5.856   5.493 -0.6651 -0.5375  0.3255
  980MOL0     H29295   4.656   5.753   5.857 -2.2793  1.5635  1.8873
  980MOL0     H29296   4.533   5.585   5.982 -1.5187 -0.6542 -0.1269
  980MOL0     H29297   4.411   5.253   5.971 -1.3118  1.2361  1.2811
  980MOL0     H29298   4.386   5.228   5.807 -0.0226 -1.0189  0.5967
  980MOL0     H29299   4.172   5.258   6.034 -0.0324 -0.1221  0.2214
  980MOL0     H29300   4.205   5.130   5.904 -1.6405  0.7486 -1.5583
  980MOL0     H29301   4.117   5.252   5.741 -0.0420 -0.6994  0.3093
  980MOL0     H29302   4.087   5.398   5.842 -0.6682 -0.2288 -0.8318
  980MOL0     H29303   3.941   5.150   5.922  2.6492  0.1936  0.8120
  980MOL0     H29304   3.934   5.321   5.975  1.6368 -3.1475  2.2117
  980MOL0     H29305   3.867   5.219   5.680  1.2414  1.4856 -0.3358
  980MOL0     H29306   3.860   5.379   5.753  2.0037 -0.2339  0.1785
  980MOL0     H29307   3.627   5.275   5.722 -3.6186 -1.6286  2.4350
  980MOL0     H29308   3.649   5.319   5.891 -1.3516 -2.9595  1.7278
  980MOL0     H29309   3.684   5.055   5.758 -3.0542  2.9906 -2.4705
  980MOL0     H29310   3.695   5.080   5.936  1.2202  1.4353 -0.5779
  980MOL0     H29311   3.468   4.985   5.826  3.9565 -1.2414  0.8981
  980MOL0     H29312   3.461   5.157   5.750 -3.8344  3.4968  3.5374
  980MOL0     H29313   3.339   4.983   6.049  4.0971 -0.6141 -2.2320
  980MOL0     H29314   3.174   5.279   6.268 -0.4745  1.4088 -1.6776
  980MOL0     H29315   3.197   5.102   6.272 -2.6537 -2.6339 -2.3516
  980MOL0     H29316   2.971   5.262   6.179  0.7688  0.4440  0.7918
  980MOL0     H29317   2.981   5.100   6.245  2.6763 -0.5277  0.7061
  980MOL0     H29318   3.045   5.172   5.951 -2.1551  0.4107 -0.8122
  980MOL0     H29319   3.081   5.017   6.034  2.9098  1.4571 -0.5194
  980MOL0     H29320   2.829   4.989   6.066 -2.6993  0.9297 -1.0853
  980MOL0     H29321   2.874   4.994   5.891  1.3903 -1.5075  0.3813
  980MOL0     H29322   2.613   4.963   5.924 -0.8838  0.0104  0.0858
  980MOL0     H29323   2.421   4.990   5.811  1.7749 -0.4170  0.2441
  980MOL0     H29324   2.061   5.399   5.713  4.2791  4.0699 -2.5029
  980MOL0     H29325   1.853   5.276   5.599  0.1222  0.1336  0.7608
  980MOL0     H29326   1.918   5.063   5.253  1.4008  0.2532  0.4842
  980MOL0     H29327   1.872   5.184   5.140  0.5346  0.8066  0.2125
  980MOL0     H29328   1.643   5.053   5.292 -1.0846 -4.7880 -1.5665
  980MOL0     H29329   1.703   4.981   5.148 -1.3303 -2.6317  2.5891
  980MOL0     H29330   1.641   5.202   5.021 -0.6283 -6.8019 -2.3729
  980MOL0     H29331   1.592   5.266   5.189 -0.5725  0.9098 -2.1635
  980MOL0     H29332   1.491   5.031   5.022  1.0503  1.1527 -0.6368
  980MOL0     H29333   1.423   5.077   5.177 -0.0675 -1.0089 -2.0052
  980MOL0     H29334   1.413   5.317   5.049 -1.3884  0.4706  0.8615
  980MOL0     H29335   1.287   5.195   5.048  0.1966  3.1489  1.3182
  980MOL0     H29336   1.377   5.083   4.824  3.9452  0.5096 -2.9215
  980MOL0     H29337   1.513   5.186   4.849  0.9683 -0.5282  2.6369
  980MOL0     H29338   1.316   5.385   4.827  2.8477  1.1020 -1.0129
  980MOL0     H29339   1.385   5.317   4.698 -0.5128  4.1807  2.2285
  980MOL0     H29340   1.188   5.146   4.688 -1.0586 -1.4580  2.0302
  980MOL0     H29341   1.116   5.304   4.678  1.2017  0.4281 -1.2938
  980MOL0     H29342   2.093   5.242   5.238 -0.7832 -0.3335  0.1039
  980MOL0     H29343   2.292   5.301   5.380  1.3341 -3.3818  1.1281
  980MOL0     H29344   2.515   5.409   5.735  0.5927 -0.6052 -1.2588
  980MOL0     H29345   2.725   5.381   5.861 -0.8289  0.3392 -1.1432
  980MOL0     H29346   4.393   5.410   5.621 -1.3236 -0.6583  1.8782
  980MOL0     H29347   4.558   5.537   5.496 -2.9666  0.3188 -1.2696
  980MOL0     H29348   4.705   5.951   5.276 -2.0402  2.5621  2.9672
  980MOL0     H29349   4.898   6.033   5.152  5.2313 -1.1358 -1.8698
  980MOL0     H29350   5.290   5.856   5.282  2.5748 -0.9753 -2.3243
  980MOL0     H29351   5.330   6.019   5.316  2.0261 -1.0145  0.1368
  980MOL0     H29352   5.484   5.905   5.164  1.2634  1.7241 -4.4027
  980MOL0     H29353   5.350   5.867   5.055 -5.2723 -0.9523  1.7822
  980MOL0     H29354   5.439   6.157   5.115  0.8775 -2.7007  2.3805
  980MOL0     H29355   5.304   6.081   5.008 -0.3954 -1.5151 -1.1125
  980MOL0     H29356   5.459   6.012   4.859  1.2994  1.6604 -1.9034
  980MOL0     H29357   5.486   6.178   4.884 -0.0326 -1.2898 -2.6719
  980MOL0     H29358   5.830   6.007   5.077 -1.0114  0.5743  3.1020
  980MOL0     H29359   5.162   5.874   5.455 -0.0085  1.8195  0.9425
  980MOL0     H29360   4.966   5.816   5.592 -1.1205  1.6137  1.3442
  981MOL0     O29361   1.557   7.848  10.074  0.8410  0.3594  0.8252
  981MOL0     C29362   1.663   7.807  10.020  0.9269 -0.2429  0.6886
  981MOL0     O29363   1.672   7.691   9.949 -0.3551 -0.1611  0.5539
  981MOL0     C29364   1.559   7.611   9.946 -0.7871 -0.9040 -0.3631
  981MOL0     C29365   1.485   7.607   9.832 -0.4664 -0.0413 -0.4062
  981MOL0     C29366   1.363   7.538   9.828 -0.2271 -0.7890 -1.1094
  981MOL0     C29367   1.322   7.467   9.942  1.3031 -1.0536  0.3746
  981MOL0     O29368   1.200   7.396   9.940  0.5930  0.4052  0.2689
  981MOL0     C29369   1.091   7.444  10.036  0.6073  0.5471 -0.0662
  981MOL0     C29370   0.964   7.359  10.037  0.8007 -0.3852 -0.2887
  981MOL0     C29371   0.864   7.376   9.922 -0.6938 -0.9606  0.7272
  981MOL0     C29372   0.755   7.279   9.951  0.0917 -0.4471 -0.7316
  981MOL0     C29373   0.638   7.298   9.860  0.3953 -0.1053  0.6021
  981MOL0     C29374   0.560   7.168   9.835 -0.3327  0.3700  0.3380
  981MOL0     C29375   0.454   7.177   9.724 -0.4520  0.0091  0.8233
  981MOL0     C29376   0.508   7.136   9.591  0.0794  0.8054 -0.8259
  981MOL0     N29377   0.421   7.148   9.471 -0.2115  0.3557  0.3005
  981MOL0     C29378   0.460   7.211   9.353 -0.6596 -0.1312  0.4778
  981MOL0     C29379   0.360   7.183   9.273  0.0022 -0.8101  0.0980
  981MOL0     C29380   0.337   7.267   9.143 -0.4661  0.2439  0.9933
  981MOL0     C29381   0.387   7.195   9.016  0.9212  0.0251 -0.4968
  981MOL0     C29382   0.370   7.294   8.892 -0.3589  0.3677  0.4836
  981MOL0     C29383   0.227   7.296   8.838 -0.1294 -0.3287  0.6375
  981MOL0     O29384   0.194   7.159   8.800  0.0410  0.0803 -0.7422
  981MOL0     C29385   0.088   7.136   8.715  0.5169 -0.6345 -0.6515
  981MOL0     C29386   0.007   7.239   8.648  0.0388  0.4358 -0.1537
  981MOL0     C29387  -0.087   7.211   8.545 -0.3597 -0.4383  0.8976
  981MOL0     C29388  -0.103   7.073   8.517  0.2091 -0.3032 -0.2822
  981MOL0     C29389  -0.191   7.033   8.416  0.5867 -1.0280  0.2457
  981MOL0     O29390  -0.224   6.902   8.416 -0.5886  0.5114 -0.2289
  981MOL0     C29391  -0.321   6.852   8.331  0.5275  0.2077 -0.2390
  981MOL0     C29392  -0.459   6.857   8.360 -0.4201  0.7857 -1.0844
  981MOL0     C29393  -0.549   6.798   8.271  0.2499 -0.1802 -0.3265
  981MOL0     C29394  -0.514   6.737   8.149 -0.3082 -0.5935 -1.0899
  981MOL0     O29395  -0.611   6.670   8.071 -0.3900 -0.4477 -0.1803
  981MOL0     C29396  -0.578   6.612   7.946 -0.3866  0.0793 -0.5498
  981MOL0     C29397  -0.546   6.461   7.974  0.4846 -0.3299  0.1605
  981MOL0     C29398  -0.504   6.379   7.853  0.4160  0.1200 -0.2511
  981MOL0     C29399  -0.491   6.239   7.916  0.5021 -0.7992  0.0457
  981MOL0     C29400  -0.451   6.126   7.808 -0.9271 -0.5536  0.5402
  981MOL0     C29401  -0.308   6.138   7.763  0.1485 -0.1067 -0.7575
  981MOL0     C29402  -0.280   6.045   7.653 -0.5535 -0.0665  0.1041
  981MOL0     C29403  -0.154   6.081   7.561 -0.6444  0.4898  0.2477
  981MOL0    Cl29404  -0.007   6.114   7.664  0.0535 -0.4457 -0.3885
  981MOL0     C29405  -0.374   6.727   8.126 -0.1146 -0.0941  0.5282
  981MOL0     C29406  -0.285   6.787   8.218 -0.2417  0.8791  0.0788
  981MOL0     O29407  -0.243   7.126   8.342  0.5423  0.0605 -0.2840
  981MOL0     C29408  -0.026   6.975   8.581 -1.0914  1.1797  0.5474
  981MOL0     C29409   0.067   7.002   8.683  0.3125  0.1349  0.1383
  981MOL0     N29410   0.263   7.110   9.338 -0.2408 -0.0550 -0.5115
  981MOL0     N29411   0.303   7.075   9.455  0.0682  0.0530  0.2275
  981MOL0     C29412   1.399   7.474  10.054  0.0813  0.8923 -0.0706
  981MOL0     C29413   1.515   7.550  10.064 -0.5896 -1.1382  0.1437
  981MOL0     C29414   1.778   7.888  10.019 -0.8662  0.3911 -0.3115
  981MOL0     C29415   1.910   7.832  10.048 -1.5244  0.5412 -0.2682
  981MOL0     C29416   2.015   7.915  10.063 -0.4612 -0.9942  0.1887
  981MOL0     C29417   2.002   8.051  10.047  0.4482 -0.4275  0.2446
  981MOL0     O29418   2.106   8.131  10.059 -0.1151 -0.1371 -0.3337
  981MOL0     C29419   2.125   8.251  10.133  1.0318  0.6450 -0.3026
  981MOL0     C29420   2.170   8.369  10.053 -0.0669 -0.3354 -0.7835
  981MOL0     C29421   2.196   8.495  10.134  0.1289 -0.5070 -0.5186
  981MOL0     C29422   2.076   8.597  10.115  0.4516  0.0421 -0.3555
  981MOL0     C29423   2.109   8.733  10.163  0.3858  0.0854 -0.1297
  981MOL0     C29424   2.131   8.846  10.178  0.1300 -0.2919  0.3996
  981MOL0     C29425   1.879   8.108  10.008  0.4338  0.6449  0.3910
  981MOL0     C29426   1.769   8.025  10.008  0.4103  0.8288  0.1367
  981MOL0     H29427   1.519   7.648   9.737 -0.6109 -0.5486 -0.6855
  981MOL0     H29428   1.306   7.515   9.739 -0.6576 -3.2911 -0.2601
  981MOL0     H29429   1.076   7.550  10.012  1.0994  0.5186 -0.5035
  981MOL0     H29430   1.131   7.442  10.137  2.7295 -0.4923 -0.8639
  981MOL0     H29431   0.901   7.384  10.123  1.7366  2.7432 -0.4015
  981MOL0     H29432   0.996   7.256  10.056  2.3870  0.2042  0.3854
  981MOL0     H29433   0.910   7.347   9.827 -3.4586  0.4066 -1.1981
  981MOL0     H29434   0.824   7.478   9.932 -0.8474 -1.0542  1.0492
  981MOL0     H29435   0.805   7.183   9.930  0.9755 -1.0797  3.2657
  981MOL0     H29436   0.734   7.283  10.059 -1.6760  1.8562 -1.0970
  981MOL0     H29437   0.672   7.335   9.763 -1.6379  1.0970  0.2933
  981MOL0     H29438   0.574   7.373   9.908  0.9152  1.8370 -1.5672
  981MOL0     H29439   0.497   7.138   9.920  1.6303 -1.8900  1.1018
  981MOL0     H29440   0.633   7.088   9.819  0.3651  1.0071  0.2807
  981MOL0     H29441   0.374   7.103   9.735 -0.9055 -0.0065 -1.8509
  981MOL0     H29442   0.413   7.278   9.717  1.1648  0.5929 -1.1527
  981MOL0     H29443   0.545   7.034   9.603 -1.6472  0.1364 -0.8833
  981MOL0     H29444   0.593   7.204   9.575  0.9861 -0.4296 -1.3826
  981MOL0     H29445   0.528   7.294   9.340 -1.8907  0.5449 -2.4635
  981MOL0     H29446   0.389   7.363   9.151  2.6400 -1.3922  1.9999
  981MOL0     H29447   0.231   7.287   9.126 -1.5778 -3.1533  3.0081
  981MOL0     H29448   0.333   7.103   8.993 -2.3218  1.3922  0.9704
  981MOL0     H29449   0.494   7.186   9.037  0.3669 -2.6245  1.5854
  981MOL0     H29450   0.406   7.395   8.912  2.0464  0.0050 -1.5228
  981MOL0     H29451   0.425   7.245   8.811 -1.9936  0.7963 -0.9435
  981MOL0     H29452   0.228   7.355   8.746  2.7249 -3.1291 -1.3712
  981MOL0     H29453   0.157   7.341   8.908 -1.3478 -2.5332  0.9380
  981MOL0     H29454   0.022   7.341   8.683  1.0119  1.5581 -3.4349
  981MOL0     H29455  -0.149   7.292   8.505 -1.4182 -1.9037 -0.5658
  981MOL0     H29456  -0.501   6.901   8.450 -0.3160  0.0967 -0.6915
  981MOL0     H29457  -0.653   6.807   8.301 -0.1491 -2.4578 -0.8561
  981MOL0     H29458  -0.490   6.656   7.897 -1.3696  2.4478 -0.3160
  981MOL0     H29459  -0.666   6.622   7.882 -3.4263 -4.6951  2.2997
  981MOL0     H29460  -0.626   6.421   8.036 -1.3122 -0.4908 -2.1492
  981MOL0     H29461  -0.451   6.467   8.029  2.4476  1.6922 -3.0814
  981MOL0     H29462  -0.406   6.415   7.821  1.9744 -2.6326  1.0408
  981MOL0     H29463  -0.587   6.387   7.781  0.3166  0.3952 -0.1088
  981MOL0     H29464  -0.419   6.247   7.998 -0.1823  2.0047  0.5130
  981MOL0     H29465  -0.592   6.217   7.952 -1.1016  1.4906 -2.5981
  981MOL0     H29466  -0.517   6.128   7.720  2.2033  1.9142 -2.0031
  981MOL0     H29467  -0.453   6.028   7.856 -0.5231 -2.2645 -2.6900
  981MOL0     H29468  -0.239   6.125   7.847 -1.3351 -0.5584  0.4424
  981MOL0     H29469  -0.292   6.242   7.735  2.7314  0.0867  1.0332
  981MOL0     H29470  -0.251   5.946   7.691  1.2665 -0.7287 -2.6616
  981MOL0     H29471  -0.353   6.026   7.574 -1.0796  0.4313  0.4691
  981MOL0     H29472  -0.179   6.166   7.497  0.6126  0.7852  0.1367
  981MOL0     H29473  -0.142   5.995   7.494 -2.4933  0.8306 -0.6138
  981MOL0     H29474  -0.330   6.685   8.036 -1.2152  1.0339 -0.5730
  981MOL0     H29475  -0.181   6.767   8.195 -1.5431 -3.2265 -3.6233
  981MOL0     H29476  -0.027   6.874   8.543  4.2335  0.5647  1.3184
  981MOL0     H29477   0.132   6.925   8.723 -1.4498 -1.5368 -0.0686
  981MOL0     H29478   1.371   7.428  10.148  1.3443  1.4620  0.6171
  981MOL0     H29479   1.564   7.561  10.160  1.1711 -2.3091 -0.5681
  981MOL0     H29480   1.928   7.727  10.070 -1.5652  0.7210  0.6749
  981MOL0     H29481   2.110   7.871  10.093  0.7676  1.7042  0.5562
  981MOL0     H29482   2.200   8.223  10.207 -0.4416 -2.6331  0.1459
  981MOL0     H29483   2.038   8.269  10.198  0.7208 -3.8054  0.8600
  981MOL0     H29484   2.269   8.332  10.025  0.9033  1.7296 -0.2727
  981MOL0     H29485   2.119   8.396   9.960 -2.5158  0.5777  0.7184
  981MOL0     H29486   2.285   8.551  10.102 -0.2687  0.2462 -0.3425
  981MOL0     H29487   2.206   8.476  10.241  2.9902  1.7675 -0.2226
  981MOL0     H29488   2.057   8.619  10.009 -2.1728 -0.3201 -0.0238
  981MOL0     H29489   1.988   8.550  10.159 -0.4029  1.2509 -0.7214
  981MOL0     H29490   2.161   8.948  10.195 -1.0674  0.0088  0.7871
  981MOL0     H29491   1.868   8.215   9.999  2.8653  1.1515  2.2424
  981MOL0     H29492   1.669   8.062   9.990  0.6562  1.4620  0.0273
  982MOL0     O29493   1.919   2.410  10.861 -0.8466  0.3998  0.1006
  982MOL0     C29494   1.844   2.483  10.923 -0.7746 -1.1070 -0.1748
  982MOL0     O29495   1.884   2.567  11.027 -1.1157  0.2009  0.1592
  982MOL0     C29496   2.007   2.562  11.092  0.4649  0.0686 -0.7269
  982MOL0     C29497   2.118   2.482  11.060  0.3893 -0.6296  0.3088
  982MOL0     C29498   2.219   2.470  11.155 -1.0324  0.7023 -0.1145
  982MOL0     C29499   2.215   2.546  11.276 -0.6893 -0.1551 -0.1331
  982MOL0     O29500   2.325   2.537  11.360 -0.3095  0.6721 -0.0095
  982MOL0     C29501   2.447   2.568  11.300 -0.4145 -0.5021  1.1727
  982MOL0     C29502   2.544   2.472  11.366 -0.2796 -0.6684 -0.8037
  982MOL0     C29503   2.671   2.442  11.289 -0.4595 -0.6504 -0.0445
  982MOL0     C29504   2.783   2.356  11.366 -1.4527  0.3785 -1.2417
  982MOL0     C29505   2.908   2.320  11.295 -0.1832 -0.1211  0.1619
  982MOL0     C29506   3.010   2.244  11.391 -0.0388  0.2547  0.1835
  982MOL0     C29507   3.128   2.188  11.318  0.3834  0.3597 -0.3557
  982MOL0     C29508   3.247   2.162  11.418 -0.6640 -0.1876 -0.5808
  982MOL0     N29509   3.356   2.098  11.342 -0.5418 -0.0072  0.0628
  982MOL0     C29510   3.461   2.153  11.283 -0.3109 -0.4444  0.4422
  982MOL0     C29511   3.532   2.055  11.228 -1.3512 -0.6712  0.2170
  982MOL0     C29512   3.653   2.065  11.145 -0.1835  0.0449  0.2731
  982MOL0     C29513   3.784   2.087  11.225  0.5513  0.4151 -0.8192
  982MOL0     C29514   3.868   1.958  11.237 -0.0103  0.3854 -0.5784
  982MOL0     C29515   4.025   1.977  11.256  0.4525 -0.3696 -0.1198
  982MOL0     O29516   4.042   2.057  11.374  0.2521  0.6126 -0.0246
  982MOL0     C29517   4.069   1.994  11.497  0.0770 -0.9792  0.4626
  982MOL0     C29518   4.061   1.862  11.533 -0.1859 -0.4687  1.1052
  982MOL0     C29519   4.104   1.823  11.658  0.6057  0.2382 -0.6775
  982MOL0     C29520   4.151   1.914  11.757 -0.5820 -0.5215 -0.2799
  982MOL0     C29521   4.192   1.871  11.891 -0.2144  0.2353 -0.3446
  982MOL0     O29522   4.257   1.957  11.976  0.0519 -0.6768  0.2136
  982MOL0     C29523   4.311   1.902  12.088  1.3961 -0.7660  0.4129
  982MOL0     C29524   4.244   1.829  12.196 -0.4836 -0.5615  0.4345
  982MOL0     C29525   4.309   1.802  12.319 -0.3075  0.5858  0.7815
  982MOL0     C29526   4.444   1.841  12.332 -0.3052 -0.4399  0.6836
  982MOL0     O29527   4.516   1.834  12.453 -0.2731  0.0991  0.2864
  982MOL0     C29528   4.458   1.750  12.553 -0.2213 -0.2944 -0.4238
  982MOL0     C29529   4.575   1.760  12.662 -0.3444  0.6911 -0.3120
  982MOL0     C29530   4.564   1.649  12.773 -0.2788 -0.2535  0.9058
  982MOL0     C29531   4.623   1.518  12.711  0.6381 -0.3516  0.7705
  982MOL0     C29532   4.614   1.399  12.809  0.0710  0.0109 -0.0652
  982MOL0     C29533   4.742   1.383  12.891  0.0401  0.4586 -0.3884
  982MOL0     C29534   4.767   1.241  12.940 -0.3671 -0.4840 -0.3473
  982MOL0     C29535   4.679   1.199  13.058 -0.8495  0.4247 -0.2054
  982MOL0    Cl29536   4.765   1.056  13.134  0.4315 -0.0586 -0.8301
  982MOL0     C29537   4.508   1.894  12.212  0.1028  0.6528  0.8187
  982MOL0     C29538   4.442   1.925  12.093 -0.2885  0.7049  0.3537
  982MOL0     O29539   4.159   1.756  11.926  0.0352  0.0625 -0.3591
  982MOL0     C29540   4.147   2.055  11.723 -0.3132  0.0293 -0.1152
  982MOL0     C29541   4.100   2.092  11.595  0.6227 -0.0054  0.1671
  982MOL0     N29542   3.465   1.944  11.247 -0.4204 -0.8379  0.0986
  982MOL0     N29543   3.361   1.963  11.318 -0.3750  0.2690  0.8264
  982MOL0     C29544   2.112   2.635  11.302  0.3127 -0.7036 -0.5405
  982MOL0     C29545   2.010   2.641  11.211 -0.1555 -0.6540  0.0860
  982MOL0     C29546   1.715   2.510  10.856 -0.6242  0.0518  0.3126
  982MOL0     C29547   1.629   2.593  10.923  0.2353  0.4953 -0.0643
  982MOL0     C29548   1.501   2.623  10.868 -0.5558 -0.1765  0.2049
  982MOL0     C29549   1.468   2.586  10.735 -0.6962  0.9968 -0.4302
  982MOL0     O29550   1.356   2.635  10.674 -0.4809 -0.3529 -0.4634
  982MOL0     C29551   1.382   2.733  10.575 -0.1146  0.7236 -0.0236
  982MOL0     C29552   1.266   2.747  10.471 -0.4251 -0.3126 -0.6843
  982MOL0     C29553   1.223   2.619  10.388 -1.0431 -0.5058 -0.2407
  982MOL0     C29554   1.102   2.541  10.439 -0.0144  0.0930  0.4217
  982MOL0     C29555   0.980   2.620  10.425  0.2831 -0.1127  0.4075
  982MOL0     C29556   0.876   2.682  10.403 -0.0307  1.0714 -0.3138
  982MOL0     C29557   1.555   2.501  10.668 -0.0038 -0.9331  0.2539
  982MOL0     C29558   1.675   2.461  10.725  0.8908  0.5252 -0.4529
  982MOL0     H29559   2.133   2.429  10.967  2.3104  0.1460  0.1333
  982MOL0     H29560   2.302   2.406  11.129  0.7808  2.9160 -0.0722
  982MOL0     H29561   2.469   2.671  11.330 -0.7849  0.7206 -2.2950
  982MOL0     H29562   2.452   2.563  11.191  2.7400  0.2153  1.1923
  982MOL0     H29563   2.489   2.379  11.383 -0.1783 -0.3837  1.3276
  982MOL0     H29564   2.563   2.528  11.458  2.4194  1.4238 -2.4663
  982MOL0     H29565   2.717   2.539  11.270  1.0720 -1.7333 -2.3251
  982MOL0     H29566   2.655   2.406  11.187  1.1700  1.6449 -1.2000
  982MOL0     H29567   2.807   2.413  11.456  1.5614 -2.6798  0.1008
  982MOL0     H29568   2.750   2.261  11.408 -0.1587 -0.0349 -1.0946
  982MOL0     H29569   2.945   2.406  11.240  0.7280 -0.6557 -0.0758
  982MOL0     H29570   2.880   2.250  11.215 -0.0519 -0.0680  0.0694
  982MOL0     H29571   2.958   2.158  11.434  1.6016 -0.2632  1.2402
  982MOL0     H29572   3.050   2.315  11.463  0.5687  1.9253 -1.6936
  982MOL0     H29573   3.102   2.095  11.267 -0.8290  0.9161 -0.7925
  982MOL0     H29574   3.150   2.248  11.229 -2.2808 -0.9984 -2.0648
  982MOL0     H29575   3.224   2.090  11.497  4.3239 -0.1698  1.2801
  982MOL0     H29576   3.283   2.247  11.477  0.9895 -1.3072  0.1188
  982MOL0     H29577   3.489   2.258  11.279 -1.7461 -0.0747 -0.5305
  982MOL0     H29578   3.639   2.154  11.082  0.3941  2.3047  3.1235
  982MOL0     H29579   3.658   1.977  11.081  0.3850 -1.0738  1.7988
  982MOL0     H29580   3.768   2.131  11.324 -2.1700 -3.2022  0.5701
  982MOL0     H29581   3.837   2.162  11.167  0.4835 -0.8314 -2.5560
  982MOL0     H29582   3.847   1.903  11.330  2.9025  1.2998  0.7282
  982MOL0     H29583   3.854   1.893  11.150 -0.0330 -0.0671 -0.2431
  982MOL0     H29584   4.083   2.029  11.179  2.7516  0.7020  2.1949
  982MOL0     H29585   4.074   1.880  11.269 -0.8268 -1.2488 -1.5237
  982MOL0     H29586   4.024   1.784  11.467  0.9498 -0.2464  0.1610
  982MOL0     H29587   4.092   1.717  11.680 -1.6488  0.1301 -2.1135
  982MOL0     H29588   4.142   1.808  12.166 -0.0608 -3.8662  0.9616
  982MOL0     H29589   4.250   1.764  12.402  0.4240 -0.3893  0.8675
  982MOL0     H29590   4.434   1.648  12.522  1.8989 -0.2598 -2.4156
  982MOL0     H29591   4.369   1.799  12.594 -0.8498  0.2981 -2.4260
  982MOL0     H29592   4.564   1.851  12.721  1.4566  1.0649 -0.4902
  982MOL0     H29593   4.674   1.751  12.616 -0.0373  1.6524  0.1301
  982MOL0     H29594   4.458   1.642  12.801 -0.9315  2.4075 -0.5708
  982MOL0     H29595   4.623   1.680  12.859  2.5078 -5.2818  1.1699
  982MOL0     H29596   4.561   1.505  12.621 -1.5580  2.7129  1.6732
  982MOL0     H29597   4.727   1.531  12.682  0.4163  0.1111  0.1387
  982MOL0     H29598   4.601   1.313  12.743  2.3885  0.3832 -1.1070
  982MOL0     H29599   4.531   1.412  12.879  0.6255  0.0335  0.6034
  982MOL0     H29600   4.756   1.460  12.967 -0.3069  0.6649 -0.5329
  982MOL0     H29601   4.829   1.394  12.824  0.7612 -2.1075  0.0153
  982MOL0     H29602   4.759   1.169  12.858 -1.5867 -1.5288  0.6482
  982MOL0     H29603   4.868   1.239  12.981 -0.6597  0.7190  0.4692
  982MOL0     H29604   4.573   1.185  13.035 -2.0136  3.7871  2.2090
  982MOL0     H29605   4.670   1.282  13.129  0.2438  1.2958 -1.0513
  982MOL0     H29606   4.616   1.907  12.218  0.0614  2.1338 -0.8726
  982MOL0     H29607   4.486   1.962  12.001 -0.3186  2.0142  0.8409
  982MOL0     H29608   4.200   2.132  11.779  3.6886  0.2874 -3.6949
  982MOL0     H29609   4.092   2.195  11.563  3.5425  0.4613  0.6821
  982MOL0     H29610   2.098   2.684  11.398 -0.5736 -0.1737 -0.9303
  982MOL0     H29611   1.924   2.706  11.222 -0.4163 -0.9029 -0.4304
  982MOL0     H29612   1.650   2.632  11.022  0.1909 -0.8261  0.4915
  982MOL0     H29613   1.441   2.686  10.934 -2.9791 -0.9080 -1.1559
  982MOL0     H29614   1.481   2.708  10.535  0.3115 -0.3653  1.5935
  982MOL0     H29615   1.392   2.824  10.634 -0.3893  2.1196 -2.0308
  982MOL0     H29616   1.180   2.802  10.509  0.5821  0.4392  0.6321
  982MOL0     H29617   1.292   2.826  10.400 -4.4207  1.0835 -0.8196
  982MOL0     H29618   1.307   2.549  10.383  1.2175  2.1553 -3.4887
  982MOL0     H29619   1.215   2.653  10.284  4.4351  1.1412 -0.4694
  982MOL0     H29620   1.087   2.451  10.379  2.3429 -0.6146  0.8071
  982MOL0     H29621   1.117   2.508  10.542 -1.2526 -0.6828  0.3861
  982MOL0     H29622   0.781   2.728  10.384 -0.0297  0.6014 -1.4756
  982MOL0     H29623   1.537   2.456  10.571  0.7530 -1.0880  0.1796
  982MOL0     H29624   1.732   2.387  10.671  1.9792  1.1430 -0.1894
  983MOL0     O29625   6.074   4.494   6.894  0.2140  0.1264  0.1430
  983MOL0     C29626   6.069   4.372   6.918 -0.5569 -0.3140  0.6189
  983MOL0     O29627   5.963   4.292   6.919  0.3504 -0.1150  0.1147
  983MOL0     C29628   5.833   4.341   6.887 -2.0569  0.7778 -0.1182
  983MOL0     C29629   5.752   4.244   6.844  1.1619  0.0946 -0.2121
  983MOL0     C29630   5.621   4.277   6.809 -0.3142  0.3888  0.3914
  983MOL0     C29631   5.563   4.401   6.828 -0.0062 -1.0356 -0.2379
  983MOL0     O29632   5.440   4.448   6.796  0.1563  0.2896  0.2481
  983MOL0     C29633   5.341   4.360   6.746 -0.0912  0.3121  0.0652
  983MOL0     C29634   5.225   4.448   6.687 -0.4338 -0.5575  0.1362
  983MOL0     C29635   5.134   4.505   6.797  0.1186 -0.0682 -0.1486
  983MOL0     C29636   5.011   4.578   6.731 -0.3661 -0.0244  0.0993
  983MOL0     C29637   4.874   4.560   6.819  0.1692 -1.0140  0.0871
  983MOL0     C29638   4.891   4.605   6.973  0.4688 -1.0476  0.4431
  983MOL0     C29639   4.863   4.757   6.987  0.5336 -0.0932  0.9424
  983MOL0     C29640   4.882   4.809   7.126 -0.3367  0.3295  0.3274
  983MOL0     N29641   4.792   4.753   7.230  0.2980 -0.3389 -0.2145
  983MOL0     C29642   4.802   4.629   7.290  0.0661  0.6595 -0.1740
  983MOL0     C29643   4.699   4.616   7.377  0.4195 -0.4303  0.2414
  983MOL0     C29644   4.690   4.488   7.470 -0.1847  0.3563  0.2292
  983MOL0     C29645   4.664   4.518   7.610  0.4407  0.3625 -0.2252
  983MOL0     C29646   4.765   4.605   7.678  0.5149 -0.3995  1.0763
  983MOL0     C29647   4.728   4.632   7.827  0.2458 -0.5400 -0.6997
  983MOL0     O29648   4.773   4.535   7.919 -0.1158 -0.4125  0.1292
  983MOL0     C29649   4.901   4.543   7.981 -0.0719  0.2132 -0.0219
  983MOL0     C29650   4.974   4.657   8.031 -0.3333 -0.3247  0.6219
  983MOL0     C29651   5.114   4.639   8.052  0.0468  1.0298  1.2624
  983MOL0     C29652   5.181   4.508   8.037  0.2221 -0.3143  0.0364
  983MOL0     C29653   5.330   4.506   8.050 -0.4848  1.0131 -0.3101
  983MOL0     O29654   5.385   4.390   8.014 -0.1984  0.6577  0.8846
  983MOL0     C29655   5.521   4.377   7.981 -1.1998 -0.9876 -0.0805
  983MOL0     C29656   5.606   4.477   7.928  0.6797  0.6995 -0.0801
  983MOL0     C29657   5.748   4.455   7.920  0.1879  0.5079  0.3723
  983MOL0     C29658   5.805   4.334   7.959 -0.3668  0.5413 -0.6520
  983MOL0     O29659   5.939   4.300   7.941  0.4573  0.4498  0.3035
  983MOL0     C29660   6.004   4.369   7.834 -0.0045 -0.7647  0.2249
  983MOL0     C29661   6.098   4.271   7.774 -0.1759 -0.3318 -0.1364
  983MOL0     C29662   6.213   4.239   7.876  0.7533  0.1425 -0.0989
  983MOL0     C29663   6.308   4.140   7.812  1.1037 -0.9843 -1.2625
  983MOL0     C29664   6.412   4.100   7.916 -0.8420 -0.5495  0.0965
  983MOL0     C29665   6.375   4.057   8.060  0.8356 -0.4022 -0.5417
  983MOL0     C29666   6.258   3.952   8.069  0.0175 -0.3439 -0.3595
  983MOL0     C29667   6.296   3.809   8.106 -0.0913 -0.3716 -0.6457
  983MOL0    Cl29668   6.440   3.767   8.006 -0.1239  0.2789  0.2209
  983MOL0     C29669   5.718   4.239   8.007 -0.4471 -0.2709 -0.0179
  983MOL0     C29670   5.583   4.259   8.014  0.6281  0.2027  0.1683
  983MOL0     O29671   5.392   4.601   8.097 -0.1049  0.2837 -0.3313
  983MOL0     C29672   5.096   4.396   8.013 -0.3915  0.0833 -0.4532
  983MOL0     C29673   4.959   4.424   7.976 -0.4289  0.0407  0.3274
  983MOL0     N29674   4.619   4.733   7.365  0.3013 -0.0605 -0.1883
  983MOL0     N29675   4.671   4.805   7.275 -0.5662 -0.1111 -0.4390
  983MOL0     C29676   5.646   4.491   6.890 -0.4229  0.0542  0.9928
  983MOL0     C29677   5.785   4.465   6.921  0.5229 -0.4184  1.1642
  983MOL0     C29678   6.193   4.314   6.981 -0.2304 -0.7851  0.1075
  983MOL0     C29679   6.224   4.180   6.955  0.3866  0.4852 -0.5387
  983MOL0     C29680   6.328   4.117   7.008  0.6335 -0.5523  0.5673
  983MOL0     C29681   6.404   4.183   7.108  0.7957  0.4179 -0.0668
  983MOL0     O29682   6.493   4.109   7.174 -0.8406  0.5160  0.3687
  983MOL0     C29683   6.612   4.175   7.231  0.2810  0.0729 -0.1185
  983MOL0     C29684   6.701   4.069   7.311  0.1056 -1.0773 -0.0025
  983MOL0     C29685   6.639   4.016   7.443 -0.4023 -0.0290 -0.1200
  983MOL0     C29686   6.708   3.907   7.515  0.2824  1.3562  0.4112
  983MOL0     C29687   6.625   3.838   7.624 -0.2271  0.2831  0.0826
  983MOL0     C29688   6.538   3.788   7.690  0.7083 -0.1999 -1.2890
  983MOL0     C29689   6.367   4.319   7.144 -0.6031  0.0684 -0.6298
  983MOL0     C29690   6.268   4.395   7.079  0.2702  0.5076 -0.0128
  983MOL0     H29691   5.779   4.139   6.844 -1.3981 -0.6654 -1.2800
  983MOL0     H29692   5.553   4.208   6.759 -2.9863  2.6041  0.7317
  983MOL0     H29693   5.309   4.302   6.833  1.1929  0.7847  0.8911
  983MOL0     H29694   5.381   4.296   6.666 -1.2273  3.2723 -3.1302
  983MOL0     H29695   5.177   4.390   6.608 -0.2039 -0.5705  0.0049
  983MOL0     H29696   5.265   4.537   6.638 -0.7010  1.5903  3.4889
  983MOL0     H29697   5.181   4.579   6.863 -0.7685 -1.0247  1.6212
  983MOL0     H29698   5.113   4.427   6.870  3.9883 -0.9505  0.2668
  983MOL0     H29699   5.027   4.685   6.714 -0.6893 -0.3717 -2.9477
  983MOL0     H29700   5.004   4.525   6.635  1.6534 -0.6870  0.2717
  983MOL0     H29701   4.849   4.454   6.809 -2.5171 -0.3963 -0.5840
  983MOL0     H29702   4.793   4.621   6.777  0.2905 -2.3379 -2.2956
  983MOL0     H29703   4.988   4.575   7.013  0.0003 -4.6157 -0.7530
  983MOL0     H29704   4.813   4.558   7.034 -0.3105  2.0884  2.1412
  983MOL0     H29705   4.937   4.809   6.925 -2.7100 -0.5531 -3.7913
  983MOL0     H29706   4.761   4.775   6.954  0.7017 -2.2559 -1.0399
  983MOL0     H29707   4.854   4.914   7.133 -2.8425 -0.2371 -0.1307
  983MOL0     H29708   4.985   4.782   7.149 -0.1315  1.3539  0.6654
  983MOL0     H29709   4.881   4.555   7.279  0.1182  0.8128 -0.8883
  983MOL0     H29710   4.786   4.436   7.465  2.4582  4.7845 -2.4579
  983MOL0     H29711   4.618   4.428   7.415 -0.1239 -0.5946  1.1769
  983MOL0     H29712   4.671   4.423   7.665  0.1129  0.1231 -0.5873
  983MOL0     H29713   4.567   4.566   7.623  0.7238  1.4391 -1.8141
  983MOL0     H29714   4.870   4.574   7.678  0.3025 -1.3793 -1.5540
  983MOL0     H29715   4.755   4.704   7.633  2.2681 -0.5089  0.3615
  983MOL0     H29716   4.621   4.644   7.849  1.1382  2.1432  3.4047
  983MOL0     H29717   4.760   4.729   7.865  0.3850 -1.7641  2.6555
  983MOL0     H29718   4.914   4.746   8.044  0.3255  0.2709 -0.2274
  983MOL0     H29719   5.166   4.733   8.073 -4.0713  4.7663 -2.9560
  983MOL0     H29720   5.559   4.572   7.904 -0.3748 -0.4095 -2.7361
  983MOL0     H29721   5.813   4.538   7.895 -0.5163  1.0197  0.1906
  983MOL0     H29722   6.060   4.457   7.868  1.3635 -0.8527 -1.6134
  983MOL0     H29723   5.938   4.399   7.752  0.8407 -0.0638 -0.2258
  983MOL0     H29724   6.145   4.309   7.683  0.1563 -1.2765 -0.3631
  983MOL0     H29725   6.037   4.187   7.739 -0.1939  0.2187 -1.4794
  983MOL0     H29726   6.158   4.205   7.964 -2.8342  2.6489 -1.1576
  983MOL0     H29727   6.269   4.323   7.916  2.7810 -1.3551  0.3559
  983MOL0     H29728   6.241   4.060   7.780  0.0571  0.1654 -2.0524
  983MOL0     H29729   6.364   4.184   7.729 -0.2780  0.0669 -1.6844
  983MOL0     H29730   6.479   4.185   7.922  0.8129 -1.4690 -3.1981
  983MOL0     H29731   6.469   4.018   7.872 -3.1960 -2.3193  0.1234
  983MOL0     H29732   6.348   4.150   8.111  2.1220 -0.7708  0.8808
  983MOL0     H29733   6.453   4.032   8.131  0.6675  1.3078  0.3050
  983MOL0     H29734   6.191   3.986   8.149  0.4232  0.9656 -0.5472
  983MOL0     H29735   6.195   3.949   7.980  1.2148  3.6524 -1.5522
  983MOL0     H29736   6.211   3.743   8.088  0.7369 -1.3942 -0.9620
  983MOL0     H29737   6.313   3.798   8.214 -2.5949  0.6315 -0.0968
  983MOL0     H29738   5.767   4.150   8.046  2.8047  2.0124  1.6198
  983MOL0     H29739   5.531   4.174   8.056  1.0860 -2.0247 -3.2986
  983MOL0     H29740   5.136   4.298   7.987 -0.6430 -0.1545  0.0519
  983MOL0     H29741   4.908   4.341   7.928  2.3534 -2.1710  0.9646
  983MOL0     H29742   5.619   4.596   6.901  2.8440  1.1331 -0.2601
  983MOL0     H29743   5.847   4.548   6.955  1.0749  0.2325 -1.2426
  983MOL0     H29744   6.150   4.120   6.902  1.0615 -1.1584  0.2795
  983MOL0     H29745   6.349   4.015   6.975  2.6802  0.3408 -1.2257
  983MOL0     H29746   6.583   4.253   7.302  0.3374  1.5500 -1.6362
  983MOL0     H29747   6.687   4.213   7.161  2.3641  1.0974  2.5264
  983MOL0     H29748   6.707   3.986   7.240 -0.2595 -0.3407 -0.9173
  983MOL0     H29749   6.799   4.117   7.320 -0.4300  0.2038 -0.6741
  983MOL0     H29750   6.538   3.981   7.420 -1.1901 -0.6085  3.5519
  983MOL0     H29751   6.630   4.098   7.516  1.5852  1.0361 -0.9747
  983MOL0     H29752   6.754   3.834   7.449 -0.7599  2.5893 -1.8221
  983MOL0     H29753   6.799   3.947   7.561  1.4929 -1.6549  0.8721
  983MOL0     H29754   6.443   3.750   7.723  1.1710  0.9997  1.7567
  983MOL0     H29755   6.404   4.354   7.239 -1.9758  1.0793 -0.4468
  983MOL0     H29756   6.245   4.500   7.096  0.4142  0.5155  0.1399
  984MOL0     O29757   6.451   4.345   3.821  0.4578  0.4483  0.1904
  984MOL0     C29758   6.527   4.439   3.839 -0.1124 -0.2450 -0.4678
  984MOL0     O29759   6.488   4.565   3.871 -0.6962 -0.1402  0.2138
  984MOL0     C29760   6.358   4.589   3.850  0.2446  0.0359  0.4014
  984MOL0     C29761   6.314   4.674   3.742  0.1654  0.5879 -0.7308
  984MOL0     C29762   6.173   4.702   3.731  0.3914 -0.2459  0.1127
  984MOL0     C29763   6.079   4.649   3.819 -0.5482  0.2606 -0.5176
  984MOL0     O29764   5.956   4.698   3.794  0.4840  0.9923 -0.5472
  984MOL0     C29765   5.845   4.634   3.855  0.3460 -0.1353 -0.9894
  984MOL0     C29766   5.732   4.679   3.773 -0.6001 -0.6313 -0.8898
  984MOL0     C29767   5.606   4.649   3.852  0.7464 -0.3447  0.3040
  984MOL0     C29768   5.482   4.687   3.774  0.3876 -0.5770  0.2232
  984MOL0     C29769   5.367   4.708   3.870 -0.2946  0.3969 -0.9382
  984MOL0     C29770   5.236   4.764   3.809 -1.7088 -0.0617  0.4867
  984MOL0     C29771   5.155   4.667   3.733  0.2673  1.0182 -0.5252
  984MOL0     C29772   5.048   4.733   3.645 -0.2935  0.3474  0.2090
  984MOL0     N29773   5.095   4.803   3.523 -0.3834 -0.1520  0.0405
  984MOL0     C29774   5.203   4.770   3.452  0.5878 -0.0916  0.2630
  984MOL0     C29775   5.203   4.865   3.345  0.1327  0.6477  0.9554
  984MOL0     C29776   5.321   4.868   3.241  0.1432  0.7531 -0.3948
  984MOL0     C29777   5.451   4.910   3.321  0.6416  0.3322  0.2427
  984MOL0     C29778   5.568   4.874   3.238 -0.8904 -0.5354 -0.8823
  984MOL0     C29779   5.693   4.918   3.309 -0.9448  0.6572 -0.4788
  984MOL0     O29780   5.812   4.920   3.231  0.0732  0.7718  0.8402
  984MOL0     C29781   5.928   4.972   3.274  0.0062 -0.4730  0.0198
  984MOL0     C29782   5.970   5.100   3.223  0.2991 -0.5920 -0.2177
  984MOL0     C29783   6.098   5.148   3.268 -0.7241 -0.1014  0.2447
  984MOL0     C29784   6.179   5.085   3.357  0.6533  0.3458 -0.4416
  984MOL0     C29785   6.316   5.132   3.388 -0.6507  0.0820 -0.0080
  984MOL0     O29786   6.352   5.253   3.347  0.5247 -0.7843 -0.3783
  984MOL0     C29787   6.490   5.291   3.372  0.2732  0.8186  0.7282
  984MOL0     C29788   6.572   5.281   3.258 -0.3205  0.2301 -0.6110
  984MOL0     C29789   6.708   5.302   3.275 -0.8281  0.0625 -0.5793
  984MOL0     C29790   6.766   5.333   3.401 -0.0136 -0.8150  1.3595
  984MOL0     O29791   6.901   5.343   3.409 -0.4486 -0.0845 -0.1802
  984MOL0     C29792   6.960   5.301   3.535 -0.2573  0.5026  1.1956
  984MOL0     C29793   7.117   5.311   3.542  0.7110 -0.1275  0.0862
  984MOL0     C29794   7.196   5.201   3.463 -0.2808  0.1980 -0.9555
  984MOL0     C29795   7.349   5.208   3.494 -0.6370 -0.3132  0.0617
  984MOL0     C29796   7.423   5.101   3.411  0.4509 -0.3991  0.9986
  984MOL0     C29797   7.579   5.087   3.441  0.1986  0.7941 -0.4626
  984MOL0     C29798   7.608   5.007   3.566 -0.2452 -0.1629 -0.3948
  984MOL0     C29799   7.752   4.943   3.550  0.3282  0.6791 -0.6704
  984MOL0    Cl29800   7.789   4.847   3.708  0.2797  0.3312  0.2530
  984MOL0     C29801   6.685   5.360   3.513 -0.3755  0.4948 -0.3246
  984MOL0     C29802   6.552   5.335   3.493  0.2579 -0.0686 -0.9786
  984MOL0     O29803   6.388   5.058   3.458 -0.5322  0.4882 -0.3078
  984MOL0     C29804   6.136   4.955   3.396  0.0654 -0.0716  1.0061
  984MOL0     C29805   6.014   4.906   3.355  0.1897 -0.1976  0.0442
  984MOL0     N29806   5.086   4.935   3.361  0.4946 -1.2117  0.0229
  984MOL0     N29807   5.014   4.883   3.453 -0.2976 -0.5047 -0.0647
  984MOL0     C29808   6.122   4.566   3.925 -0.1864  0.3186  0.3627
  984MOL0     C29809   6.258   4.538   3.933  0.0537 -0.7522  0.0340
  984MOL0     C29810   6.667   4.409   3.845  0.2255 -0.3975 -0.7622
  984MOL0     C29811   6.756   4.504   3.903  0.2770 -0.8143  0.7619
  984MOL0     C29812   6.890   4.460   3.923 -0.5090 -0.4358  0.1982
  984MOL0     C29813   6.934   4.340   3.879  0.5499 -0.0459 -0.3547
  984MOL0     O29814   7.065   4.311   3.897 -0.0905 -0.5299 -0.6744
  984MOL0     C29815   7.098   4.186   3.956 -0.1363 -0.1869  0.7636
  984MOL0     C29816   7.074   4.191   4.108 -1.2545  0.7626 -0.1375
  984MOL0     C29817   7.169   4.276   4.202 -0.0453  1.2048  0.0807
  984MOL0     C29818   7.317   4.234   4.191  0.5811 -0.7787 -0.1734
  984MOL0     C29819   7.376   4.275   4.317  1.0200  0.9251 -0.1188
  984MOL0     C29820   7.433   4.297   4.426 -0.8055 -0.9349  0.0714
  984MOL0     C29821   6.841   4.253   3.819  1.2310  0.2289 -0.8541
  984MOL0     C29822   6.711   4.281   3.811 -0.3971 -0.3373  0.3504
  984MOL0     H29823   6.386   4.720   3.675  1.3169  0.3047  0.2808
  984MOL0     H29824   6.135   4.769   3.655  1.7689 -1.5949 -1.8631
  984MOL0     H29825   5.830   4.672   3.957 -0.1173  0.4281 -1.2662
  984MOL0     H29826   5.853   4.525   3.858 -0.4128 -0.1852 -0.2894
  984MOL0     H29827   5.727   4.616   3.684  1.9069 -0.0598 -1.5137
  984MOL0     H29828   5.742   4.785   3.746  0.8998 -0.4332  0.2826
  984MOL0     H29829   5.613   4.702   3.948 -0.3685  1.1286 -0.3926
  984MOL0     H29830   5.592   4.544   3.879  0.1636  0.0906  1.8396
  984MOL0     H29831   5.506   4.765   3.701 -3.5176 -0.3141 -1.0309
  984MOL0     H29832   5.455   4.608   3.704  0.8362  0.0106 -0.6264
  984MOL0     H29833   5.404   4.751   3.964  1.2632 -1.7880 -0.4657
  984MOL0     H29834   5.336   4.608   3.901  1.2007  0.2680  0.2998
  984MOL0     H29835   5.259   4.850   3.745 -0.4030 -0.8120 -0.0790
  984MOL0     H29836   5.174   4.799   3.892 -0.6992  3.5886 -0.1162
  984MOL0     H29837   5.208   4.596   3.669 -2.8387 -2.6145  0.5127
  984MOL0     H29838   5.121   4.592   3.805 -4.3186  1.8268 -1.5274
  984MOL0     H29839   4.973   4.795   3.693 -1.2521 -0.6535  0.0322
  984MOL0     H29840   4.982   4.652   3.614 -1.9714  0.5422  2.9275
  984MOL0     H29841   5.269   4.688   3.479 -1.0904 -1.4970  0.3430
  984MOL0     H29842   5.306   4.945   3.164  2.1719  2.9246  1.2426
  984MOL0     H29843   5.330   4.768   3.198  1.6851  0.4027  0.7010
  984MOL0     H29844   5.461   4.867   3.420  1.1928 -2.1332 -0.8089
  984MOL0     H29845   5.450   5.018   3.342  2.7298 -0.0225  2.6950
  984MOL0     H29846   5.573   4.769   3.210 -6.8819 -1.0799 -1.3286
  984MOL0     H29847   5.570   4.940   3.151  1.8382  2.6927  1.3583
  984MOL0     H29848   5.703   4.842   3.388 -1.6327  1.3191  0.2618
  984MOL0     H29849   5.679   5.021   3.343 -0.0926  1.8034 -3.3228
  984MOL0     H29850   5.908   5.163   3.159 -1.4874 -1.8087  0.2320
  984MOL0     H29851   6.123   5.248   3.233 -0.5309 -0.7769 -1.6433
  984MOL0     H29852   6.524   5.241   3.169 -5.0696 -0.3092  1.8687
  984MOL0     H29853   6.783   5.284   3.199 -1.3302 -0.7700 -0.8870
  984MOL0     H29854   6.940   5.195   3.553  0.5932  0.0374 -0.3712
  984MOL0     H29855   6.926   5.362   3.619 -0.9927  2.3392 -0.3744
  984MOL0     H29856   7.138   5.292   3.647 -3.3324 -2.2816  0.7218
  984MOL0     H29857   7.137   5.414   3.510  2.3605 -1.5040 -3.8769
  984MOL0     H29858   7.170   5.219   3.359  0.1812 -0.4604 -1.1936
  984MOL0     H29859   7.155   5.100   3.476  2.4751 -1.1529 -2.0130
  984MOL0     H29860   7.388   5.307   3.467  0.7189 -0.8910 -0.1687
  984MOL0     H29861   7.364   5.186   3.600 -3.9969  0.3721  0.7893
  984MOL0     H29862   7.410   5.123   3.305 -0.3363  1.8125  1.4962
  984MOL0     H29863   7.377   5.004   3.434 -0.6369 -1.3440 -3.9816
  984MOL0     H29864   7.628   5.184   3.434  1.0520  0.3872 -0.2281
  984MOL0     H29865   7.617   5.017   3.366  0.0705 -0.4512  0.5872
  984MOL0     H29866   7.620   5.070   3.655  3.3222 -1.0394 -0.0937
  984MOL0     H29867   7.533   4.928   3.572 -0.6328  0.1080 -1.4572
  984MOL0     H29868   7.822   5.027   3.548 -0.8188  1.8005  1.6828
  984MOL0     H29869   7.745   4.876   3.464  0.6265 -0.4273  0.1420
  984MOL0     H29870   6.713   5.403   3.609 -0.9239 -0.6796  0.3748
  984MOL0     H29871   6.488   5.330   3.581  2.5945 -1.4513  0.7524
  984MOL0     H29872   6.192   4.892   3.466 -0.6136 -3.0100 -0.9105
  984MOL0     H29873   5.981   4.804   3.375  4.0220 -0.9890  3.7130
  984MOL0     H29874   6.056   4.534   4.005  0.7198  0.8283  1.3388
  984MOL0     H29875   6.294   4.481   4.018  3.4269  0.1911 -0.6113
  984MOL0     H29876   6.722   4.604   3.928  2.6864 -0.2042  1.8521
  984MOL0     H29877   6.957   4.540   3.951  1.2831 -1.6704 -0.3638
  984MOL0     H29878   7.204   4.171   3.933  0.3253 -1.1226  3.2597
  984MOL0     H29879   7.048   4.105   3.901  0.0128 -3.3552  4.8403
  984MOL0     H29880   6.970   4.224   4.119 -0.8286  1.9121  0.6687
  984MOL0     H29881   7.076   4.086   4.138 -0.6012  0.7871 -0.0853
  984MOL0     H29882   7.135   4.290   4.305 -1.8006 -1.0626 -0.0950
  984MOL0     H29883   7.168   4.374   4.154 -1.4433  1.1135 -0.1395
  984MOL0     H29884   7.322   4.128   4.165 -3.4772 -1.0036 -0.7492
  984MOL0     H29885   7.385   4.278   4.118  1.7702 -0.0247  1.3391
  984MOL0     H29886   7.487   4.322   4.515 -0.8594  2.3349 -0.6958
  984MOL0     H29887   6.865   4.153   3.785 -0.0982 -0.2215 -0.5314
  984MOL0     H29888   6.642   4.211   3.766 -0.3648  0.8166 -1.6223
  985MOL0     O29889   7.493  10.022   0.498  0.1907 -0.5918 -0.3650
  985MOL0     C29890   7.424  10.088   0.584 -0.9500 -0.2085 -1.2803
  985MOL0     O29891   7.301  10.137   0.566  0.2120 -0.5041  0.0255
  985MOL0     C29892   7.263  10.141   0.437 -0.1715 -0.2460 -0.0792
  985MOL0     C29893   7.142  10.076   0.409  0.5539 -0.5833 -0.6498
  985MOL0     C29894   7.086  10.073   0.281 -0.6537 -0.0452  0.7915
  985MOL0     C29895   7.153  10.144   0.174  0.0728  0.4109  0.9819
  985MOL0     O29896   7.100  10.138   0.047 -0.9836 -0.4664 -0.7430
  985MOL0     C29897   7.137  10.016  -0.012  0.1683 -0.1756  0.0748
  985MOL0     C29898   7.025   9.979  -0.115 -0.4022 -0.7457 -0.0816
  985MOL0     C29899   7.057   9.856  -0.206 -0.2503  0.0778 -0.1069
  985MOL0     C29900   6.955   9.853  -0.314  0.7642 -0.2516 -0.5302
  985MOL0     C29901   6.966   9.735  -0.409  0.5847 -0.1965 -0.1018
  985MOL0     C29902   6.942   9.594  -0.335 -0.7017 -0.0388  1.0104
  985MOL0     C29903   6.949   9.468  -0.435  0.9032 -0.0870  0.1027
  985MOL0     C29904   7.078   9.466  -0.524  0.0784  0.1350 -0.2982
  985MOL0     N29905   7.062   9.522  -0.660  0.6554  0.2987 -0.3074
  985MOL0     C29906   6.944   9.495  -0.726 -0.1150 -0.3530  0.8331
  985MOL0     C29907   6.923   9.597  -0.808  0.0767  0.1458  0.6453
  985MOL0     C29908   6.810   9.617  -0.906 -0.2138 -0.4745  0.9588
  985MOL0     C29909   6.726   9.494  -0.910 -1.0210 -1.0911  0.3229
  985MOL0     C29910   6.610   9.495  -1.010 -0.5586 -0.0722  0.1939
  985MOL0     C29911   6.503   9.587  -0.966 -0.2524  0.0827 -0.3254
  985MOL0     O29912   6.393   9.572  -1.047  0.2330  0.7877 -0.0218
  985MOL0     C29913   6.286   9.648  -1.031 -0.0550 -0.5493 -1.1627
  985MOL0     C29914   6.273   9.747  -0.931  0.1621 -0.3481  0.5390
  985MOL0     C29915   6.168   9.835  -0.917 -0.4618 -0.1570 -1.0637
  985MOL0     C29916   6.068   9.835  -1.024 -0.4546  0.0178  0.0713
  985MOL0     C29917   5.966   9.946  -1.023 -0.0691 -0.8978  0.0376
  985MOL0     O29918   5.899   9.980  -1.142 -0.2698 -0.5999  0.1475
  985MOL0     C29919   5.817  10.091  -1.145  1.0058 -0.5083  0.7102
  985MOL0     C29920   5.850  10.225  -1.112 -0.0041  0.4433  1.0801
  985MOL0     C29921   5.759  10.328  -1.146  0.0031 -0.8543  0.6217
  985MOL0     C29922   5.624  10.298  -1.199 -0.9410  0.7076  1.0511
  985MOL0     O29923   5.537  10.397  -1.242 -0.4942 -0.3525  0.1235
  985MOL0     C29924   5.529  10.514  -1.149 -0.3827 -0.3388  0.9424
  985MOL0     C29925   5.405  10.593  -1.211  0.4354  0.4734 -0.1565
  985MOL0     C29926   5.269  10.534  -1.154 -0.0459  0.2829 -0.0379
  985MOL0     C29927   5.225  10.404  -1.223 -0.4137  0.0314 -0.1898
  985MOL0     C29928   5.109  10.324  -1.150 -0.2805 -0.3951 -0.4068
  985MOL0     C29929   4.969  10.378  -1.164 -0.1696  0.9099 -0.5936
  985MOL0     C29930   4.911  10.358  -1.307 -0.4943 -1.1932 -0.0138
  985MOL0     C29931   4.814  10.236  -1.309 -0.2543 -0.2098 -0.3033
  985MOL0    Cl29932   4.693  10.248  -1.437 -0.4268  0.4849  0.5191
  985MOL0     C29933   5.591  10.161  -1.214  0.4528 -0.5756  1.0254
  985MOL0     C29934   5.691  10.066  -1.194  1.1427  0.3544 -0.0099
  985MOL0     O29935   5.946   9.990  -0.910  0.4544  0.8489  0.6265
  985MOL0     C29936   6.079   9.728  -1.118  1.1758 -0.2862 -0.6402
  985MOL0     C29937   6.184   9.636  -1.120  0.4189  0.3720 -0.3878
  985MOL0     N29938   7.017   9.687  -0.772 -0.4006  0.3759  0.1994
  985MOL0     N29939   7.098   9.641  -0.699 -0.5973 -1.5210 -0.4585
  985MOL0     C29940   7.276  10.213   0.205 -0.1802  0.8205  0.7858
  985MOL0     C29941   7.333  10.202   0.335 -0.7371  0.2053  0.6156
  985MOL0     C29942   7.488  10.108   0.718  0.2125 -0.0537 -0.1289
  985MOL0     C29943   7.626  10.087   0.745  0.1001 -0.4983  0.1583
  985MOL0     C29944   7.674  10.082   0.872 -0.5640 -0.9617 -0.2534
  985MOL0     C29945   7.598  10.111   0.986 -0.3654  0.3312 -0.4266
  985MOL0     O29946   7.674  10.119   1.101  0.3647  0.3551  0.1268
  985MOL0     C29947   7.607  10.132   1.234 -0.1290 -0.8985  0.9879
  985MOL0     C29948   7.585  10.283   1.267  0.6376 -0.5994  1.1000
  985MOL0     C29949   7.578  10.326   1.414 -0.7913  1.1642 -0.0686
  985MOL0     C29950   7.623  10.475   1.419 -0.7031  0.2024  0.4297
  985MOL0     C29951   7.767  10.480   1.410 -0.3896 -0.4182  1.2681
  985MOL0     C29952   7.880  10.512   1.379  0.7385  0.0849 -0.4711
  985MOL0     C29953   7.471  10.137   0.961  0.2334 -0.3178 -0.3271
  985MOL0     C29954   7.418  10.144   0.831  0.0133  0.2904 -0.2307
  985MOL0     H29955   7.082  10.052   0.496 -1.7541 -3.7826 -2.8856
  985MOL0     H29956   6.983  10.039   0.280 -0.0317 -2.0283  0.1855
  985MOL0     H29957   7.142   9.931   0.056  3.1549 -0.3447 -0.2376
  985MOL0     H29958   7.234  10.022  -0.062  1.0316 -0.9054  1.5988
  985MOL0     H29959   7.017  10.071  -0.173  1.3916  0.3012  1.2464
  985MOL0     H29960   6.929   9.960  -0.066 -0.1247 -1.7092  0.1148
  985MOL0     H29961   7.054   9.767  -0.144  2.5400 -0.4017 -0.4957
  985MOL0     H29962   7.162   9.867  -0.236 -0.1202  3.6388  1.1187
  985MOL0     H29963   6.854   9.845  -0.272  0.6365  1.2820 -0.4586
  985MOL0     H29964   6.957   9.941  -0.380 -3.2774  0.3325 -0.1440
  985MOL0     H29965   7.059   9.742  -0.466  1.0956  2.8669  0.9376
  985MOL0     H29966   6.891   9.742  -0.487 -0.2777  0.1718  0.7469
  985MOL0     H29967   6.850   9.611  -0.278 -0.7237 -0.6774  1.1742
  985MOL0     H29968   7.031   9.576  -0.274  0.9731 -0.4481 -1.4135
  985MOL0     H29969   6.941   9.376  -0.377  0.9578 -1.2398 -1.6396
  985MOL0     H29970   6.858   9.449  -0.492  0.2999 -1.2759  1.4053
  985MOL0     H29971   7.113   9.363  -0.529  2.0460  0.8317 -2.2415
  985MOL0     H29972   7.162   9.516  -0.476  0.5987 -1.4460  0.4971
  985MOL0     H29973   6.890   9.401  -0.717 -0.1823 -0.9534 -3.5068
  985MOL0     H29974   6.848   9.630  -1.008 -1.6053 -0.8028  0.3858
  985MOL0     H29975   6.751   9.704  -0.876 -0.4345 -0.1418 -0.4066
  985MOL0     H29976   6.683   9.472  -0.812 -1.5682 -4.3879 -0.5324
  985MOL0     H29977   6.789   9.410  -0.941  3.3778  2.2074 -0.6845
  985MOL0     H29978   6.639   9.528  -1.110 -1.1576  1.6391  0.5425
  985MOL0     H29979   6.564   9.395  -1.011 -1.8181  0.4609  1.2135
  985MOL0     H29980   6.531   9.693  -0.969 -0.0963  0.0421 -0.2408
  985MOL0     H29981   6.480   9.563  -0.862 -0.2819 -1.4105 -0.6507
  985MOL0     H29982   6.348   9.753  -0.853 -0.7332 -2.4721  1.6408
  985MOL0     H29983   6.164   9.897  -0.828  2.0187 -0.2417 -0.8026
  985MOL0     H29984   5.949  10.248  -1.073  0.2998  3.4976 -1.1383
  985MOL0     H29985   5.790  10.430  -1.123  0.3319 -1.3028  2.2578
  985MOL0     H29986   5.611  10.586  -1.153 -0.1099 -0.6633  0.6732
  985MOL0     H29987   5.508  10.474  -1.049  0.2819 -1.9752  0.4623
  985MOL0     H29988   5.411  10.599  -1.320 -1.8210 -2.0867 -0.5277
  985MOL0     H29989   5.413  10.694  -1.171 -1.8597  0.8207 -0.4314
  985MOL0     H29990   5.191  10.611  -1.164 -1.5120 -1.3213 -1.8611
  985MOL0     H29991   5.277  10.510  -1.047  0.3291 -0.2700 -0.1866
  985MOL0     H29992   5.197  10.416  -1.329 -1.4859  2.9085  0.3197
  985MOL0     H29993   5.307  10.333  -1.209 -0.2487  0.3613  0.5104
  985MOL0     H29994   5.126  10.331  -1.042 -2.0126 -1.7852  0.0020
  985MOL0     H29995   5.116  10.216  -1.166 -2.4787 -0.6017 -0.2801
  985MOL0     H29996   4.969  10.486  -1.144  2.4995  0.8513  0.1523
  985MOL0     H29997   4.904  10.332  -1.090 -0.4382  1.1616 -0.6724
  985MOL0     H29998   4.854  10.442  -1.348 -1.1178 -0.8302  1.5115
  985MOL0     H29999   4.994  10.337  -1.375 -1.0886  0.3453 -1.2458
  985MOL0     H30000   4.753  10.230  -1.218 -1.0572 -0.3771 -0.8467
  985MOL0     H30001   4.868  10.142  -1.321 -0.7574 -1.1540  3.4717
  985MOL0     H30002   5.496  10.128  -1.253  0.7304 -0.5308  0.2927
  985MOL0     H30003   5.667   9.962  -1.215  0.9306  0.5484 -0.7490
  985MOL0     H30004   6.001   9.717  -1.192  2.3346 -0.1119 -1.9083
  985MOL0     H30005   6.175   9.566  -1.202 -1.7282 -3.1910  2.5593
  985MOL0     H30006   7.324  10.250   0.115  0.7123  0.9961  1.3159
  985MOL0     H30007   7.431  10.246   0.354  0.6385 -2.0174 -0.7690
  985MOL0     H30008   7.697  10.080   0.662  0.9481  3.7269  0.2790
  985MOL0     H30009   7.777  10.060   0.899 -1.1240 -1.6740  1.4048
  985MOL0     H30010   7.671  10.090   1.313 -2.3284 -1.0523  2.7963
  985MOL0     H30011   7.512  10.078   1.228 -0.4117 -0.2554 -1.7033
  985MOL0     H30012   7.672  10.327   1.219 -0.6504 -1.7894 -2.6184
  985MOL0     H30013   7.490  10.310   1.219  0.8317  0.5847  1.3632
  985MOL0     H30014   7.648  10.266   1.472 -1.7917 -1.5975 -1.5366
  985MOL0     H30015   7.480  10.302   1.458  0.8456 -4.1575  1.3814
  985MOL0     H30016   7.592  10.531   1.331  1.3210 -0.2208 -0.6204
  985MOL0     H30017   7.588  10.527   1.509 -2.2761 -3.5555  2.1947
  985MOL0     H30018   7.973  10.540   1.332  2.1723  1.1037  2.7200
  985MOL0     H30019   7.399  10.153   1.041 -0.8300 -0.6072 -1.2105
  985MOL0     H30020   7.311  10.160   0.825  0.2731  2.0643 -0.9225
  986MOL0     O30021   7.514   3.276   4.572 -0.7351  0.2783 -0.4213
  986MOL0     C30022   7.519   3.211   4.684 -0.2253 -0.5322  0.7043
  986MOL0     O30023   7.607   3.237   4.787  0.1241  0.0020 -0.6521
  986MOL0     C30024   7.735   3.290   4.760  0.1256 -0.1138 -0.1388
  986MOL0     C30025   7.771   3.396   4.840 -0.0922 -0.4529  0.6258
  986MOL0     C30026   7.881   3.466   4.822 -0.4849  0.0865 -0.2781
  986MOL0     C30027   7.970   3.423   4.721 -0.3270  0.1549 -0.3246
  986MOL0     O30028   8.077   3.509   4.703  0.5489 -0.6690  0.2461
  986MOL0     C30029   8.163   3.507   4.589  0.5716 -0.3776 -0.1435
  986MOL0     C30030   8.211   3.654   4.557  0.3520 -0.4152 -0.8549
  986MOL0     C30031   8.330   3.703   4.650  0.8721 -0.1385  0.0438
  986MOL0     C30032   8.459   3.636   4.614  0.8025  0.1206  0.0824
  986MOL0     C30033   8.588   3.699   4.672 -0.1590 -0.7310 -0.4837
  986MOL0     C30034   8.596   3.700   4.829  0.1626 -0.6712 -0.2812
  986MOL0     C30035   8.725   3.772   4.874  0.0084 -0.1506 -0.2921
  986MOL0     C30036   8.698   3.863   4.990 -0.8302 -0.1898 -0.4619
  986MOL0     N30037   8.669   3.994   4.940  0.0424  0.5124  0.5971
  986MOL0     C30038   8.579   4.020   4.841  0.5430  0.2984 -0.4342
  986MOL0     C30039   8.582   4.152   4.831 -0.3854  0.0624 -0.0933
  986MOL0     C30040   8.517   4.228   4.719  0.8348 -0.0730  0.6671
  986MOL0     C30041   8.581   4.365   4.699  0.3348 -0.2904  0.3803
  986MOL0     C30042   8.527   4.454   4.601 -0.4256  1.1211  0.0123
  986MOL0     C30043   8.598   4.580   4.587  0.6910 -0.1018  0.6473
  986MOL0     O30044   8.703   4.568   4.492  0.9801 -0.2694  1.0272
  986MOL0     C30045   8.825   4.537   4.543 -0.2336  0.3569  0.1962
  986MOL0     C30046   8.899   4.606   4.646 -0.1547  0.3270 -0.0573
  986MOL0     C30047   9.028   4.552   4.680  0.2020  0.3317 -0.0540
  986MOL0     C30048   9.089   4.446   4.616  0.3854  0.5183  0.3463
  986MOL0     C30049   9.231   4.423   4.639  0.2080 -0.8790 -0.0529
  986MOL0     O30050   9.281   4.465   4.759 -0.1541  0.3676  0.5093
  986MOL0     C30051   9.406   4.451   4.809 -1.0597 -0.2589 -0.3085
  986MOL0     C30052   9.419   4.458   4.944  0.6246 -0.0351 -0.0477
  986MOL0     C30053   9.547   4.458   5.002 -0.3988  0.2062 -0.8242
  986MOL0     C30054   9.664   4.467   4.917  1.1368 -0.1751  0.6130
  986MOL0     O30055   9.782   4.493   4.968 -0.2651 -0.4218  1.1807
  986MOL0     C30056   9.855   4.375   4.996  0.5936  0.1688  0.0000
  986MOL0     C30057   9.977   4.410   5.088  0.9196  0.8452  0.3817
  986MOL0     C30058  10.090   4.484   5.004  0.8051 -0.4638 -0.0537
  986MOL0     C30059  10.221   4.407   4.983  0.1716 -0.0290 -1.0315
  986MOL0     C30060  10.322   4.395   5.105 -0.4279 -0.3699 -0.9877
  986MOL0     C30061  10.464   4.377   5.065  0.0779  0.7516 -0.1907
  986MOL0     C30062  10.490   4.252   4.976 -0.3938 -0.1380  0.3374
  986MOL0     C30063  10.503   4.114   5.043 -0.3553  0.3108 -0.3862
  986MOL0    Cl30064  10.537   4.010   4.905 -0.3915  0.2205 -0.3680
  986MOL0     C30065   9.655   4.437   4.783  0.2377 -0.1268 -0.6310
  986MOL0     C30066   9.523   4.438   4.725  0.3469  0.6855 -0.0882
  986MOL0     O30067   9.293   4.385   4.547  0.3100 -0.8319  0.2293
  986MOL0     C30068   9.020   4.377   4.521  0.0478  0.3280 -0.2488
  986MOL0     C30069   8.895   4.423   4.483  0.7460 -0.2430 -0.8463
  986MOL0     N30070   8.664   4.205   4.927  1.2983  0.0574 -0.2017
  986MOL0     N30071   8.728   4.110   4.986 -0.2537 -0.7365  0.5206
  986MOL0     C30072   7.939   3.309   4.644 -0.1998  0.2619 -0.0548
  986MOL0     C30073   7.815   3.249   4.654 -0.3986 -0.5483 -0.1556
  986MOL0     C30074   7.441   3.088   4.666 -0.0857 -0.3441 -0.1126
  986MOL0     C30075   7.458   2.989   4.764  0.5412  0.2294  0.5021
  986MOL0     C30076   7.389   2.866   4.755  0.6651 -0.3831  0.8142
  986MOL0     C30077   7.308   2.836   4.644 -0.0509  0.3642  0.6795
  986MOL0     O30078   7.230   2.724   4.616  0.0751  0.1720  0.0453
  986MOL0     C30079   7.236   2.601   4.685 -0.0881  0.4619  0.2592
  986MOL0     C30080   7.180   2.615   4.824 -0.9462 -0.2008  0.0409
  986MOL0     C30081   7.138   2.478   4.868 -0.9948  0.1644 -0.1166
  986MOL0     C30082   6.994   2.442   4.872 -0.1240 -0.0703  0.2569
  986MOL0     C30083   6.934   2.511   4.983  0.5173 -1.3283  0.0359
  986MOL0     C30084   6.864   2.578   5.053  0.4626  0.6991  0.2455
  986MOL0     C30085   7.292   2.939   4.553 -0.2715 -0.4375  0.8641
  986MOL0     C30086   7.362   3.061   4.555 -0.2628 -0.4102 -0.2185
  986MOL0     H30087   7.701   3.418   4.920 -4.1495  1.5413 -3.0570
  986MOL0     H30088   7.904   3.539   4.899 -0.2636 -1.6382  1.3358
  986MOL0     H30089   8.111   3.481   4.497  2.4543  1.0821 -1.7192
  986MOL0     H30090   8.238   3.430   4.610  0.4636 -0.7004 -0.9397
  986MOL0     H30091   8.123   3.716   4.578  0.9296 -0.2198  1.2940
  986MOL0     H30092   8.249   3.656   4.455 -0.8015  0.1759 -1.2893
  986MOL0     H30093   8.299   3.678   4.752 -1.7355 -0.1848 -0.6717
  986MOL0     H30094   8.337   3.812   4.645  0.5735 -0.1807 -2.8123
  986MOL0     H30095   8.439   3.540   4.662 -0.1514  0.1070 -0.3196
  986MOL0     H30096   8.471   3.632   4.505 -2.3864  0.2282 -0.3821
  986MOL0     H30097   8.589   3.799   4.628  3.5174  0.4296  1.7506
  986MOL0     H30098   8.674   3.644   4.632  0.0911 -1.4545  1.0009
  986MOL0     H30099   8.610   3.595   4.857  0.0003 -1.3717 -2.6635
  986MOL0     H30100   8.500   3.730   4.873 -0.8384 -2.7118 -0.9362
  986MOL0     H30101   8.801   3.699   4.906  0.9236  1.1193  0.5525
  986MOL0     H30102   8.777   3.833   4.800 -0.9543  4.3466  2.3550
  986MOL0     H30103   8.784   3.853   5.056 -2.4206 -0.1099  1.7291
  986MOL0     H30104   8.614   3.825   5.050  0.1930 -1.5816  0.1516
  986MOL0     H30105   8.532   3.937   4.789  1.2867 -1.4735  1.5798
  986MOL0     H30106   8.412   4.247   4.740 -0.3557 -4.1859 -0.6162
  986MOL0     H30107   8.510   4.172   4.626  2.2444 -1.9126  1.5813
  986MOL0     H30108   8.683   4.347   4.667 -0.8911 -1.0631 -3.5906
  986MOL0     H30109   8.581   4.414   4.797  4.4667  1.9082 -0.4996
  986MOL0     H30110   8.526   4.408   4.501 -1.0867  3.1393 -0.9596
  986MOL0     H30111   8.427   4.479   4.636  0.8530  2.9432  2.7156
  986MOL0     H30112   8.631   4.598   4.689  0.9203  3.5587  0.0410
  986MOL0     H30113   8.536   4.668   4.569 -1.4654 -1.5052  0.7928
  986MOL0     H30114   8.852   4.685   4.702  0.0849  0.7385 -0.4263
  986MOL0     H30115   9.077   4.599   4.764 -3.3834 -0.8634  2.9925
  986MOL0     H30116   9.337   4.480   5.012  1.7306  3.9157  0.2280
  986MOL0     H30117   9.561   4.473   5.108  0.1270  1.0443 -0.9999
  986MOL0     H30118   9.884   4.316   4.909 -0.0229  1.2044 -0.9365
  986MOL0     H30119   9.783   4.316   5.053 -2.5330 -0.4111 -4.0924
  986MOL0     H30120  10.017   4.315   5.125 -1.5457 -0.8892 -1.0346
  986MOL0     H30121   9.945   4.469   5.174  2.2140  2.2012 -0.0336
  986MOL0     H30122  10.098   4.580   5.055 -2.3401 -0.3754  0.4425
  986MOL0     H30123  10.050   4.516   4.907 -0.0641 -0.8576  0.1745
  986MOL0     H30124  10.210   4.307   4.939  2.9168 -0.2040 -1.5404
  986MOL0     H30125  10.280   4.460   4.908  1.1569 -1.0321 -0.9970
  986MOL0     H30126  10.295   4.309   5.168  3.0243  0.5188  2.0478
  986MOL0     H30127  10.312   4.484   5.168 -1.8262 -0.9846 -0.2704
  986MOL0     H30128  10.534   4.371   5.149  0.9495 -0.6327 -0.9748
  986MOL0     H30129  10.483   4.463   5.000  0.5428 -0.1799 -1.3093
  986MOL0     H30130  10.428   4.260   4.886  0.9463  0.1525 -0.5846
  986MOL0     H30131  10.592   4.265   4.941  0.3184  2.3363  2.9463
  986MOL0     H30132  10.409   4.070   5.079 -1.7954  0.5564 -3.5196
  986MOL0     H30133  10.576   4.102   5.124  0.3505  1.9030 -0.7558
  986MOL0     H30134   9.749   4.437   4.729  0.7177  1.8801  0.1085
  986MOL0     H30135   9.517   4.434   4.617 -1.7597 -1.7903  0.0249
  986MOL0     H30136   9.067   4.288   4.480 -2.2316 -0.9836 -0.2053
  986MOL0     H30137   8.838   4.354   4.421 -0.2475  0.0416 -0.2803
  986MOL0     H30138   8.001   3.272   4.564 -0.8712 -2.2401  0.4896
  986MOL0     H30139   7.799   3.163   4.589  0.4366 -1.8174  1.2501
  986MOL0     H30140   7.522   3.015   4.847  2.4168  1.9177 -1.3573
  986MOL0     H30141   7.395   2.797   4.838 -4.0003  0.8315  2.4504
  986MOL0     H30142   7.341   2.576   4.702 -0.2107  0.6624  1.3706
  986MOL0     H30143   7.195   2.519   4.625  0.1868  1.5416 -1.4824
  986MOL0     H30144   7.262   2.652   4.887 -0.9941 -0.5786  0.3285
  986MOL0     H30145   7.093   2.681   4.835 -1.0353 -0.2907 -0.1324
  986MOL0     H30146   7.174   2.476   4.972 -0.6519 -0.3519 -0.2422
  986MOL0     H30147   7.198   2.406   4.813 -0.3305  1.2314 -0.8325
  986MOL0     H30148   6.935   2.464   4.782 -0.0726  2.2062  0.7283
  986MOL0     H30149   7.000   2.334   4.891  3.7363 -0.1243 -0.4765
  986MOL0     H30150   6.794   2.637   5.108 -2.8226 -2.4185 -0.1695
  986MOL0     H30151   7.232   2.914   4.466 -0.7697  2.2686  0.3081
  986MOL0     H30152   7.341   3.139   4.483  1.9095 -1.1191 -1.7141
  987MOL0     O30153  10.077   8.426  10.379  0.0006  0.5086 -0.2423
  987MOL0     C30154  10.183   8.367  10.350 -0.0219  0.1078  0.3089
  987MOL0     O30155  10.206   8.291  10.235 -0.0168 -0.1264 -0.2332
  987MOL0     C30156  10.099   8.282  10.145 -0.0911 -0.3852  0.2581
  987MOL0     C30157  10.042   8.158  10.119 -0.3634  0.6710  0.2352
  987MOL0     C30158   9.928   8.145  10.045  0.4777 -0.6840  0.0789
  987MOL0     C30159   9.876   8.251   9.977 -0.3001 -0.4175  0.6354
  987MOL0     O30160   9.767   8.219   9.899 -0.0158 -0.4258  0.4362
  987MOL0     C30161   9.703   8.315   9.807  0.3143 -0.1172 -0.4404
  987MOL0     C30162   9.629   8.240   9.697  0.1988  0.3361 -0.1811
  987MOL0     C30163   9.499   8.302   9.661  0.2852  0.4682  0.5724
  987MOL0     C30164   9.519   8.457   9.631 -0.3734  0.7863  0.6547
  987MOL0     C30165   9.399   8.512   9.550  0.3439  0.7381  1.4034
  987MOL0     C30166   9.269   8.529   9.646 -0.3828  0.6811 -0.0484
  987MOL0     C30167   9.160   8.631   9.598  0.3870  0.1828 -1.0865
  987MOL0     C30168   9.078   8.696   9.714  0.0632  0.6117 -0.6950
  987MOL0     N30169   8.972   8.788   9.668  0.1009 -0.0179  0.1582
  987MOL0     C30170   8.971   8.927   9.665 -0.2228  1.2055 -0.3505
  987MOL0     C30171   8.871   8.968   9.585 -0.1471 -0.5433 -0.2362
  987MOL0     C30172   8.837   9.102   9.530  0.2808 -0.7704 -0.4403
  987MOL0     C30173   8.769   9.190   9.635  0.0883  0.0461 -0.5544
  987MOL0     C30174   8.764   9.336   9.580 -0.2946 -0.4057  0.2949
  987MOL0     C30175   8.648   9.347   9.475  0.4118 -0.9997  0.4095
  987MOL0     O30176   8.636   9.483   9.427 -0.1137  0.0813  0.6165
  987MOL0     C30177   8.530   9.524   9.349 -0.7518  0.2332  0.0082
  987MOL0     C30178   8.452   9.632   9.386 -0.9079 -0.3987 -0.1786
  987MOL0     C30179   8.346   9.666   9.293  1.3547  0.6177 -0.2997
  987MOL0     C30180   8.318   9.599   9.174 -0.1187 -0.2477  0.7180
  987MOL0     C30181   8.211   9.646   9.085  0.5654 -0.5390 -0.4429
  987MOL0     O30182   8.122   9.724   9.142  0.1887 -0.8746 -0.3354
  987MOL0     C30183   8.030   9.797   9.069 -0.6763  1.0648 -0.4296
  987MOL0     C30184   8.053   9.854   8.949  0.3035  0.4210  0.3529
  987MOL0     C30185   7.953   9.917   8.875 -0.3101 -1.3718 -0.1948
  987MOL0     C30186   7.816   9.924   8.917 -0.1937  0.4222 -1.2347
  987MOL0     O30187   7.719   9.969   8.833 -0.6386 -0.0983 -0.6990
  987MOL0     C30188   7.644   9.877   8.759  0.9638  0.1941  1.2738
  987MOL0     C30189   7.699   9.877   8.610  0.0497  0.6708  0.0952
  987MOL0     C30190   7.691  10.013   8.542 -0.7517 -0.2683 -0.3907
  987MOL0     C30191   7.721  10.006   8.391 -0.7275 -0.3264 -0.1224
  987MOL0     C30192   7.739  10.154   8.332  0.3009  0.0544  0.7589
  987MOL0     C30193   7.872  10.214   8.381  1.1178 -0.2795  0.3162
  987MOL0     C30194   7.890  10.353   8.344  0.3569 -0.5429 -0.5456
  987MOL0     C30195   8.011  10.413   8.408 -0.1922 -1.3736 -0.5279
  987MOL0    Cl30196   8.068  10.565   8.342 -0.4440  0.4948  0.3363
  987MOL0     C30197   7.798   9.888   9.056  0.0178  0.2355  0.1016
  987MOL0     C30198   7.897   9.819   9.130  0.3274 -0.3700 -0.5160
  987MOL0     O30199   8.219   9.618   8.965 -0.2191 -0.2207 -0.3253
  987MOL0     C30200   8.400   9.496   9.144 -0.6387  0.6329 -0.2548
  987MOL0     C30201   8.495   9.456   9.229 -0.9183  0.1715 -0.0245
  987MOL0     N30202   8.804   8.850   9.544 -0.2872 -0.1102  0.0716
  987MOL0     N30203   8.874   8.749   9.588 -0.6276  0.4266  0.2320
  987MOL0     C30204   9.928   8.378   9.992 -0.5710 -0.4619  0.3653
  987MOL0     C30205  10.039   8.397  10.078  0.4293 -0.2042 -1.4847
  987MOL0     C30206  10.286   8.379  10.464 -0.1358  0.0215 -0.6286
  987MOL0     C30207  10.257   8.434  10.593 -0.2195 -0.7379  0.7844
  987MOL0     C30208  10.343   8.429  10.702 -0.1263  0.2214  0.9397
  987MOL0     C30209  10.469   8.380  10.685  0.3767 -0.6754  0.5661
  987MOL0     O30210  10.564   8.385  10.792 -0.2562 -0.6584 -0.1240
  987MOL0     C30211  10.540   8.462  10.912 -0.0274 -0.2190  0.1023
  987MOL0     C30212  10.652   8.423  11.011  1.0471 -0.1663 -0.6229
  987MOL0     C30213  10.769   8.520  10.974 -0.3620  0.3460 -0.2347
  987MOL0     C30214  10.889   8.513  11.060 -0.2129  0.2603 -1.8358
  987MOL0     C30215  10.854   8.592  11.184  0.2675 -0.4436 -0.4545
  987MOL0     C30216  10.834   8.661  11.287  0.6131  0.5821 -0.3514
  987MOL0     C30217  10.506   8.325  10.557 -0.4881  0.4777 -0.7515
  987MOL0     C30218  10.414   8.325  10.445 -0.5592 -0.4085 -0.9499
  987MOL0     H30219  10.081   8.078  10.182 -0.6497  2.2205  2.5111
  987MOL0     H30220   9.885   8.046  10.040 -0.4529 -0.5703  3.3645
  987MOL0     H30221   9.787   8.367   9.759 -0.5425  3.4156  1.5500
  987MOL0     H30222   9.634   8.383   9.859 -0.9816  0.2500 -2.5128
  987MOL0     H30223   9.610   8.140   9.736  0.7738  1.3470  3.0148
  987MOL0     H30224   9.689   8.225   9.606 -0.3337 -2.3324 -0.1534
  987MOL0     H30225   9.420   8.299   9.736 -0.4382  0.7386 -0.1511
  987MOL0     H30226   9.456   8.252   9.573  2.1506  3.1198 -2.0810
  987MOL0     H30227   9.536   8.513   9.723  0.3240  1.8455 -0.0925
  987MOL0     H30228   9.611   8.467   9.573 -0.2186  2.8053  1.1783
  987MOL0     H30229   9.366   8.454   9.463  1.9412  1.1050  0.5191
  987MOL0     H30230   9.427   8.613   9.519  2.4454 -0.3279 -0.4818
  987MOL0     H30231   9.314   8.562   9.740  1.2901 -0.0236 -0.5670
  987MOL0     H30232   9.224   8.432   9.669 -2.2416  2.0198  2.4736
  987MOL0     H30233   9.200   8.710   9.534 -1.6575  2.6446  0.4756
  987MOL0     H30234   9.087   8.574   9.539  0.1263 -1.8255  1.0001
  987MOL0     H30235   9.158   8.749   9.766  0.9116  1.3380 -2.6224
  987MOL0     H30236   9.041   8.620   9.783  2.4278  0.7945  0.8914
  987MOL0     H30237   9.036   9.006   9.702 -1.6360  0.7357  3.5683
  987MOL0     H30238   8.767   9.093   9.446 -2.3210  1.3081  1.3148
  987MOL0     H30239   8.933   9.143   9.498  1.2611 -3.1551 -0.7411
  987MOL0     H30240   8.841   9.193   9.717  1.5608 -0.4253 -1.7806
  987MOL0     H30241   8.672   9.158   9.674 -1.5805 -0.0364 -4.3536
  987MOL0     H30242   8.746   9.404   9.664 -2.6628 -1.2106  0.4919
  987MOL0     H30243   8.856   9.359   9.526  0.4030  0.0624  1.6189
  987MOL0     H30244   8.552   9.326   9.522 -0.9286  0.4308 -1.5122
  987MOL0     H30245   8.647   9.281   9.387 -0.3355  1.5619 -1.6328
  987MOL0     H30246   8.486   9.684   9.475  1.7001 -3.4777  0.8107
  987MOL0     H30247   8.286   9.752   9.322 -0.7856 -1.0093  0.3665
  987MOL0     H30248   8.154   9.853   8.909  1.0616  0.4551  2.1854
  987MOL0     H30249   7.984   9.955   8.778 -1.3568  2.0881  0.6611
  987MOL0     H30250   7.539   9.906   8.754  0.6379 -1.1461 -0.9212
  987MOL0     H30251   7.653   9.783   8.815  1.5772  0.6991  2.0571
  987MOL0     H30252   7.646   9.796   8.560  0.7419 -0.9101  1.8181
  987MOL0     H30253   7.804   9.845   8.612  0.0242  0.5696 -0.1399
  987MOL0     H30254   7.769  10.070   8.592  2.7498 -3.2133 -2.0696
  987MOL0     H30255   7.588  10.048   8.557 -0.9681 -0.7439 -0.7575
  987MOL0     H30256   7.804   9.942   8.360 -1.1047 -1.5118  1.2127
  987MOL0     H30257   7.628   9.977   8.340 -1.7720  1.5169  0.6325
  987MOL0     H30258   7.644  10.207   8.341  0.8143  0.6420  4.3351
  987MOL0     H30259   7.766  10.143   8.226 -2.4753  0.8872 -0.0947
  987MOL0     H30260   7.952  10.149   8.343 -0.5244 -0.1845 -3.7904
  987MOL0     H30261   7.892  10.214   8.488 -2.4597  2.7699  1.1746
  987MOL0     H30262   7.896  10.361   8.235 -1.3200 -1.2726 -0.7270
  987MOL0     H30263   7.808  10.416   8.378  0.5022 -0.7959  0.2798
  987MOL0     H30264   8.094  10.346   8.429  1.1466  0.5927  0.7856
  987MOL0     H30265   7.974  10.429   8.510  1.9889 -0.8857  0.2362
  987MOL0     H30266   7.695   9.905   9.087 -0.3497  0.9076 -1.4261
  987MOL0     H30267   7.878   9.775   9.227  1.0718 -0.7544 -0.5410
  987MOL0     H30268   8.393   9.429   9.059  1.8116 -2.5578  1.8335
  987MOL0     H30269   8.559   9.370   9.212  1.3458  1.6871  0.4168
  987MOL0     H30270   9.868   8.459   9.952  0.7451  0.8198  0.8450
  987MOL0     H30271  10.077   8.498  10.084  0.4189 -0.2594 -0.3580
  987MOL0     H30272  10.163   8.483  10.617 -0.4108 -0.2167 -0.9434
  987MOL0     H30273  10.304   8.481  10.789 -0.4771 -3.7673  3.4387
  987MOL0     H30274  10.442   8.436  10.952 -0.2238 -1.9414 -1.3663
  987MOL0     H30275  10.534   8.566  10.878 -2.0137 -0.9177 -1.9309
  987MOL0     H30276  10.608   8.444  11.109  0.7482  1.0594 -1.0022
  987MOL0     H30277  10.695   8.322  11.009  0.6028 -0.3948  0.4961
  987MOL0     H30278  10.736   8.624  10.977 -2.9551 -0.4381  0.8449
  987MOL0     H30279  10.792   8.492  10.870  1.3756  1.2216 -0.1259
  987MOL0     H30280  10.917   8.410  11.084  1.1472  0.8598 -0.7239
  987MOL0     H30281  10.981   8.549  11.012  1.2857 -2.4107 -1.1648
  987MOL0     H30282  10.826   8.714  11.380  3.8401 -1.5241  1.2899
  987MOL0     H30283  10.609   8.295  10.541  0.4166  0.3849  3.7476
  987MOL0     H30284  10.443   8.280  10.350  2.7045 -1.2539  0.3248
  988MOL0     O30285   4.980   7.106   1.311  0.1629 -0.0156  0.1811
  988MOL0     C30286   4.975   7.162   1.206  0.6699 -0.4387  0.3772
  988MOL0     O30287   5.057   7.176   1.114  0.0490 -0.3310 -0.1687
  988MOL0     C30288   5.191   7.143   1.140  0.1250 -0.2660 -0.7970
  988MOL0     C30289   5.264   7.168   1.256  0.4782  1.0848  0.6257
  988MOL0     C30290   5.395   7.116   1.252 -0.0094 -0.1423 -0.6329
  988MOL0     C30291   5.464   7.066   1.130 -0.1493 -0.0286  0.2815
  988MOL0     O30292   5.592   7.028   1.117 -0.1315  0.1762  1.2271
  988MOL0     C30293   5.675   7.031   1.235 -0.1922 -0.1898  0.4190
  988MOL0     C30294   5.718   7.184   1.250 -0.3002  0.3204  0.4759
  988MOL0     C30295   5.836   7.204   1.345 -0.5807 -0.4273  0.4462
  988MOL0     C30296   5.797   7.219   1.492 -0.9048  0.5458  0.7299
  988MOL0     C30297   5.919   7.263   1.577  0.0004 -0.2629 -0.2165
  988MOL0     C30298   5.894   7.308   1.717  0.2647  0.6375  0.0137
  988MOL0     C30299   6.027   7.349   1.785 -0.5230 -0.4668  0.3518
  988MOL0     C30300   5.990   7.366   1.929 -0.4065  0.6362 -0.2749
  988MOL0     N30301   6.086   7.448   1.988 -0.0272 -1.1237 -0.9423
  988MOL0     C30302   6.075   7.567   2.046  0.7518  0.7055  1.4995
  988MOL0     C30303   6.190   7.589   2.109  0.2789 -0.5890  0.1088
  988MOL0     C30304   6.236   7.711   2.188 -1.1616  0.7542 -0.3173
  988MOL0     C30305   6.190   7.846   2.138 -0.2764  0.3637 -0.4578
  988MOL0     C30306   6.053   7.878   2.189 -0.0315  0.2103  0.4166
  988MOL0     C30307   6.050   8.021   2.236 -0.1418 -0.3955 -0.8103
  988MOL0     O30308   5.930   8.049   2.312  1.0736 -0.1869  0.3133
  988MOL0     C30309   5.891   8.178   2.298 -0.7983 -0.9648 -1.1242
  988MOL0     C30310   5.755   8.205   2.265 -0.3055 -0.0312 -1.0882
  988MOL0     C30311   5.707   8.318   2.218 -0.1411 -1.0154  0.0867
  988MOL0     C30312   5.788   8.430   2.227  0.8134 -0.7526 -0.1355
  988MOL0     C30313   5.746   8.564   2.189 -0.3446 -0.2358 -0.5054
  988MOL0     O30314   5.843   8.656   2.167 -0.0425  0.6166 -0.9746
  988MOL0     C30315   5.816   8.794   2.157  0.3942  0.1831  0.4484
  988MOL0     C30316   5.913   8.871   2.092 -1.1709 -0.1681 -0.9728
  988MOL0     C30317   5.903   9.006   2.085  0.5173  0.8032  0.3520
  988MOL0     C30318   5.785   9.072   2.133  0.5053  0.6776 -0.0210
  988MOL0     O30319   5.762   9.209   2.130 -0.2907 -0.6636  0.0473
  988MOL0     C30320   5.814   9.269   2.007  0.3829 -0.1125  0.2013
  988MOL0     C30321   5.712   9.377   1.972  0.1363  0.0929 -0.2205
  988MOL0     C30322   5.749   9.448   1.841 -0.4291 -0.0081 -0.2322
  988MOL0     C30323   5.647   9.558   1.794  0.1573  0.2482 -0.0090
  988MOL0     C30324   5.681   9.697   1.820  0.0983 -0.2757  0.4103
  988MOL0     C30325   5.662   9.737   1.973 -0.2010  0.0221 -0.0424
  988MOL0     C30326   5.674   9.887   1.992 -0.6431 -0.6785 -0.3473
  988MOL0     C30327   5.625   9.939   2.125 -0.2826  0.2353 -0.5431
  988MOL0    Cl30328   5.654  10.108   2.134 -0.0942 -0.7713 -0.0523
  988MOL0     C30329   5.682   9.000   2.181  0.9497  0.2310 -0.4851
  988MOL0     C30330   5.704   8.857   2.193 -0.3053  0.3454  0.3657
  988MOL0     O30331   5.625   8.583   2.169 -0.9037 -0.2910  0.7812
  988MOL0     C30332   5.919   8.419   2.288  0.1044  0.6482 -0.3160
  988MOL0     C30333   5.974   8.289   2.312 -0.3456 -0.1879 -0.3507
  988MOL0     N30334   6.279   7.481   2.091  0.8885  1.0629  0.2339
  988MOL0     N30335   6.215   7.403   2.015  0.1666  0.1233 -0.5072
  988MOL0     C30336   5.376   7.042   1.025  0.4044 -0.9517 -0.1256
  988MOL0     C30337   5.247   7.090   1.025  1.0849 -0.1258 -0.6376
  988MOL0     C30338   4.845   7.217   1.164 -0.3478  0.0753 -0.7317
  988MOL0     C30339   4.830   7.331   1.083 -0.2438 -0.6488  1.1586
  988MOL0     C30340   4.705   7.381   1.042 -0.3215  0.5106  0.7531
  988MOL0     C30341   4.591   7.304   1.065 -0.1291  0.1496  0.6393
  988MOL0     O30342   4.476   7.336   1.015 -0.0783  0.5668 -0.0391
  988MOL0     C30343   4.360   7.244   1.001  0.7088  0.2303  0.1894
  988MOL0     C30344   4.239   7.334   0.984  0.5527  0.7768 -0.4660
  988MOL0     C30345   4.238   7.418   0.867 -0.4630  0.6614 -1.1850
  988MOL0     C30346   4.147   7.371   0.754  0.6985 -0.6613  0.6515
  988MOL0     C30347   4.120   7.468   0.648  0.2034 -0.1861  0.1726
  988MOL0     C30348   4.101   7.554   0.561 -0.3470 -0.0460 -0.6894
  988MOL0     C30349   4.606   7.182   1.136  1.0666  0.6096  0.0978
  988MOL0     C30350   4.731   7.143   1.179  0.0918 -0.0528  0.3694
  988MOL0     H30351   5.228   7.216   1.346  0.5009 -1.7069  2.2235
  988MOL0     H30352   5.462   7.114   1.337  1.2487 -1.5033 -1.5929
  988MOL0     H30353   5.761   6.968   1.213  2.2723  2.6675  1.1756
  988MOL0     H30354   5.639   6.999   1.333 -0.3736 -3.4299 -0.6046
  988MOL0     H30355   5.625   7.234   1.277 -1.4800 -0.4989 -1.7962
  988MOL0     H30356   5.744   7.215   1.148  1.1003 -0.9796  0.3986
  988MOL0     H30357   5.869   7.305   1.319  2.1317 -1.1393  0.8790
  988MOL0     H30358   5.923   7.140   1.329 -2.2523 -2.1714 -2.8787
  988MOL0     H30359   5.709   7.281   1.513 -1.6349 -0.2097 -0.0640
  988MOL0     H30360   5.746   7.126   1.519 -1.1485  0.3902 -0.2507
  988MOL0     H30361   5.968   7.349   1.530  0.3396  0.9638  2.2251
  988MOL0     H30362   5.992   7.181   1.581  1.9909  1.4887  1.1384
  988MOL0     H30363   5.852   7.227   1.777  1.1158 -0.1457 -0.4049
  988MOL0     H30364   5.818   7.386   1.717 -1.5142 -0.8945 -2.9544
  988MOL0     H30365   6.107   7.278   1.762 -0.4910  0.5623 -3.3620
  988MOL0     H30366   6.056   7.443   1.737  1.3756 -0.6427  1.0766
  988MOL0     H30367   5.994   7.266   1.975  1.3928 -0.1657 -2.0165
  988MOL0     H30368   5.896   7.421   1.937  0.9836  2.8481  2.1601
  988MOL0     H30369   5.995   7.640   2.039  0.0809 -0.1835 -1.0873
  988MOL0     H30370   6.346   7.714   2.192 -1.1548  0.5463 -0.3639
  988MOL0     H30371   6.205   7.701   2.293 -2.2082 -0.6271 -0.7328
  988MOL0     H30372   6.199   7.849   2.029  2.6157 -3.7443 -0.5679
  988MOL0     H30373   6.260   7.924   2.168  0.8057 -1.0372  0.8120
  988MOL0     H30374   5.980   7.880   2.107  3.6853 -0.9841 -3.2674
  988MOL0     H30375   6.024   7.806   2.266  0.2680  2.4362  2.7445
  988MOL0     H30376   6.071   8.090   2.153  3.3655  1.8058  1.6585
  988MOL0     H30377   6.140   8.028   2.298 -1.8038  0.4927  1.6277
  988MOL0     H30378   5.700   8.111   2.264 -1.3336  0.4919  0.5394
  988MOL0     H30379   5.607   8.340   2.182 -0.9195 -1.3467  1.9266
  988MOL0     H30380   6.007   8.830   2.055 -0.8078 -0.6165  0.3725
  988MOL0     H30381   5.979   9.065   2.036 -0.3908 -0.2651 -2.5369
  988MOL0     H30382   5.815   9.209   1.916 -0.0264  0.1599  0.0148
  988MOL0     H30383   5.918   9.303   2.017  0.5124  0.6573 -2.8743
  988MOL0     H30384   5.708   9.452   2.051  5.0944 -0.6179  1.0368
  988MOL0     H30385   5.616   9.326   1.963  1.3341 -3.2520  3.2689
  988MOL0     H30386   5.748   9.365   1.770 -3.1520 -0.3605  0.1205
  988MOL0     H30387   5.842   9.503   1.859 -2.0370  3.0299 -0.4858
  988MOL0     H30388   5.648   9.537   1.687  0.0311  1.2485 -0.2076
  988MOL0     H30389   5.548   9.520   1.821 -0.3140  1.5951  0.2133
  988MOL0     H30390   5.615   9.761   1.761 -0.8842 -1.8842 -0.3190
  988MOL0     H30391   5.785   9.720   1.792 -0.2414 -0.6769 -1.3096
  988MOL0     H30392   5.742   9.687   2.029  0.8168 -0.6411 -1.9893
  988MOL0     H30393   5.560   9.722   2.010 -0.7780  2.3495 -0.5327
  988MOL0     H30394   5.778   9.910   1.969 -0.0682 -1.1980  1.5304
  988MOL0     H30395   5.618   9.936   1.912 -0.8499 -2.3251 -1.2489
  988MOL0     H30396   5.659   9.885   2.214 -2.6495 -1.3525 -0.5216
  988MOL0     H30397   5.516   9.927   2.132 -0.0894 -0.7900  4.2954
  988MOL0     H30398   5.598   9.041   2.236  1.5841  0.4806  0.3287
  988MOL0     H30399   5.628   8.809   2.254  0.7869 -1.2801  0.4898
  988MOL0     H30400   5.977   8.510   2.294 -3.8515  3.8194 -3.7719
  988MOL0     H30401   6.074   8.277   2.353 -0.3266 -1.6436 -0.7605
  988MOL0     H30402   5.428   7.006   0.937  0.6678 -0.4070 -0.1958
  988MOL0     H30403   5.187   7.080   0.935 -0.1137  0.0500  0.1138
  988MOL0     H30404   4.922   7.381   1.057  0.3781 -2.4647 -0.3563
  988MOL0     H30405   4.702   7.478   0.995 -2.3672  0.8011  1.3950
  988MOL0     H30406   4.342   7.172   1.082  2.2487  0.2986  0.6168
  988MOL0     H30407   4.374   7.189   0.907  0.3758  1.9113 -0.8747
  988MOL0     H30408   4.153   7.267   0.994  1.9533 -1.0395 -0.1357
  988MOL0     H30409   4.240   7.392   1.077 -1.5274  0.1837 -0.0074
  988MOL0     H30410   4.340   7.439   0.834  0.3581 -1.1244  0.1107
  988MOL0     H30411   4.194   7.514   0.896 -1.6695  0.6044 -2.6923
  988MOL0     H30412   4.190   7.280   0.713  2.6050  0.5892 -0.2422
  988MOL0     H30413   4.041   7.363   0.784 -0.2662  1.6779 -1.7367
  988MOL0     H30414   4.084   7.634   0.491 -0.5829 -0.8281 -1.5418
  988MOL0     H30415   4.522   7.116   1.157  0.5036  1.7414  1.5873
  988MOL0     H30416   4.735   7.040   1.214 -1.9214 -0.0381  0.8082
  989MOL0     O30417   4.637   6.234   0.974 -0.8047 -0.9123  0.2131
  989MOL0     C30418   4.672   6.171   1.074  0.2065  0.4787  1.1103
  989MOL0     O30419   4.599   6.073   1.130 -1.0796 -0.6183  0.3035
  989MOL0     C30420   4.502   6.019   1.051  0.2190  0.8167  0.1486
  989MOL0     C30421   4.515   5.989   0.913 -1.1288  0.0402  0.3879
  989MOL0     C30422   4.416   5.909   0.849  0.3590 -0.7424 -0.6883
  989MOL0     C30423   4.300   5.869   0.918 -0.7007 -0.0964 -1.0607
  989MOL0     O30424   4.220   5.799   0.835 -0.0227 -0.5358 -0.2097
  989MOL0     C30425   4.120   5.717   0.903 -0.0635  0.2616  0.0933
  989MOL0     C30426   4.034   5.655   0.788  0.0969  1.2385 -0.1624
  989MOL0     C30427   4.120   5.549   0.706 -0.8587 -0.3214 -0.5828
  989MOL0     C30428   4.055   5.515   0.571  0.3742 -0.6189  0.0133
  989MOL0     C30429   3.925   5.433   0.593  0.4123  0.5377  0.1810
  989MOL0     C30430   3.956   5.303   0.659 -0.0415  0.6954 -0.3575
  989MOL0     C30431   3.852   5.196   0.635 -0.2073 -0.4728 -1.0811
  989MOL0     C30432   3.721   5.218   0.719  0.0661  0.9191 -0.4353
  989MOL0     N30433   3.607   5.138   0.674 -0.8702  0.2207 -0.3498
  989MOL0     C30434   3.573   5.005   0.719  0.0341 -1.4184  0.6466
  989MOL0     C30435   3.458   4.990   0.654  0.4573  0.1558 -0.2825
  989MOL0     C30436   3.384   4.861   0.677  0.0801  0.0105  0.1193
  989MOL0     C30437   3.426   4.768   0.556 -0.5403 -0.9897 -0.1821
  989MOL0     C30438   3.552   4.689   0.572  0.4900 -0.4672 -0.0532
  989MOL0     C30439   3.605   4.646   0.434 -0.3586 -0.9757 -0.8093
  989MOL0     O30440   3.656   4.763   0.358 -0.3781 -0.0158  0.9980
  989MOL0     C30441   3.771   4.830   0.389 -0.4500  0.1636 -0.2610
  989MOL0     C30442   3.875   4.796   0.479  0.0437 -0.1984 -0.8425
  989MOL0     C30443   4.000   4.866   0.489 -1.9868  0.4995  0.2096
  989MOL0     C30444   4.027   4.978   0.410 -0.6449  0.8903  0.4558
  989MOL0     C30445   4.161   5.047   0.414 -0.4544  0.1241  0.9360
  989MOL0     O30446   4.192   5.147   0.329 -0.0074  0.1956 -0.5728
  989MOL0     C30447   4.308   5.223   0.348  0.1888  0.2636 -1.3735
  989MOL0     C30448   4.374   5.273   0.235 -0.2415  0.5160 -1.3689
  989MOL0     C30449   4.492   5.357   0.250 -0.7655 -0.9103  0.6482
  989MOL0     C30450   4.548   5.379   0.369 -0.1022  0.5240 -0.7799
  989MOL0     O30451   4.661   5.449   0.378  0.0731 -0.3412 -0.5859
  989MOL0     C30452   4.784   5.384   0.431  0.3818  0.1908 -0.9595
  989MOL0     C30453   4.875   5.484   0.487 -0.4143 -0.1174  0.7320
  989MOL0     C30454   4.813   5.537   0.610 -0.1057 -0.4426 -0.6712
  989MOL0     C30455   4.924   5.627   0.677  1.5410  0.1631 -0.2240
  989MOL0     C30456   4.866   5.741   0.768  0.2078 -0.6454 -0.3428
  989MOL0     C30457   4.981   5.846   0.785  0.0012 -0.6088 -0.5318
  989MOL0     C30458   4.948   5.945   0.902  0.6239 -0.5309  0.0376
  989MOL0     C30459   5.067   6.026   0.951  0.4051  0.7200  0.3292
  989MOL0    Cl30460   5.127   6.134   0.822  0.3657  0.1801  0.2347
  989MOL0     C30461   4.479   5.335   0.483  0.4206  0.7457  0.4953
  989MOL0     C30462   4.366   5.252   0.474  0.4210  0.3713  0.0084
  989MOL0     O30463   4.239   5.000   0.501  0.4570 -0.1026  0.0979
  989MOL0     C30464   3.928   5.023   0.324 -0.3963 -0.7937  0.1405
  989MOL0     C30465   3.812   4.947   0.308  0.0091  0.1191 -0.5862
  989MOL0     N30466   3.428   5.094   0.569  0.4617  0.1751  0.6529
  989MOL0     N30467   3.512   5.186   0.587  0.6350 -0.5195  0.4219
  989MOL0     C30468   4.291   5.896   1.056  0.6244 -0.4782 -0.2199
  989MOL0     C30469   4.382   5.982   1.114 -0.1291 -0.1694  0.2387
  989MOL0     C30470   4.793   6.221   1.165 -0.5826  1.8924 -0.1091
  989MOL0     C30471   4.858   6.349   1.155  0.7197  0.0575 -0.6911
  989MOL0     C30472   4.958   6.386   1.237 -0.1181  0.7022  0.4534
  989MOL0     C30473   5.021   6.290   1.318 -0.3271  0.2947 -0.1464
  989MOL0     O30474   5.122   6.334   1.401  1.0666  0.6485 -0.5352
  989MOL0     C30475   5.234   6.395   1.347 -0.4617  0.3001  1.0198
  989MOL0     C30476   5.318   6.300   1.267  0.9789  1.0947  0.9132
  989MOL0     C30477   5.438   6.369   1.203  0.0697  0.3457 -0.2361
  989MOL0     C30478   5.532   6.280   1.118 -0.5157 -0.1426 -0.5552
  989MOL0     C30479   5.572   6.163   1.193 -0.3559 -0.5327  0.0042
  989MOL0     C30480   5.629   6.077   1.245  1.1963  0.5911 -0.1487
  989MOL0     C30481   4.967   6.166   1.330  0.0442  0.0242 -0.5131
  989MOL0     C30482   4.852   6.125   1.250  0.4046  0.2089  0.3074
  989MOL0     H30483   4.591   6.032   0.849 -1.0551 -1.5179 -0.6311
  989MOL0     H30484   4.433   5.871   0.749 -0.1646 -0.3536 -0.9303
  989MOL0     H30485   4.054   5.780   0.962 -1.3830  0.1827 -1.2312
  989MOL0     H30486   4.169   5.651   0.976 -1.4144  1.0423  1.7644
  989MOL0     H30487   4.005   5.724   0.708  5.6754 -1.6604 -5.5438
  989MOL0     H30488   3.952   5.607   0.840  0.9723  1.6950  1.7086
  989MOL0     H30489   4.144   5.457   0.760  0.8970 -0.3209 -1.2834
  989MOL0     H30490   4.219   5.589   0.681  0.0136 -0.6294  2.0696
  989MOL0     H30491   4.030   5.612   0.529 -2.6387  0.4570  3.7496
  989MOL0     H30492   4.120   5.462   0.500 -0.4088 -0.2383 -1.0035
  989MOL0     H30493   3.884   5.438   0.492  2.0105 -0.2430 -0.5542
  989MOL0     H30494   3.848   5.474   0.658 -2.9997 -4.0212 -0.4431
  989MOL0     H30495   3.967   5.327   0.765  3.3666  1.3065 -0.7126
  989MOL0     H30496   4.045   5.252   0.621 -0.2427 -1.1152  1.4052
  989MOL0     H30497   3.819   5.207   0.531 -0.0967  2.5992 -0.8828
  989MOL0     H30498   3.894   5.097   0.658 -1.4116 -0.5855  0.8798
  989MOL0     H30499   3.682   5.319   0.706 -1.0153  0.5291 -0.2829
  989MOL0     H30500   3.746   5.193   0.822 -5.0306 -0.4967  0.7226
  989MOL0     H30501   3.621   4.939   0.790 -0.3148 -3.2979 -0.7797
  989MOL0     H30502   3.278   4.884   0.660  0.7239  1.8744 -1.6718
  989MOL0     H30503   3.405   4.819   0.776  0.2941  2.3907  1.1435
  989MOL0     H30504   3.429   4.832   0.468 -1.6209 -1.9939 -0.9868
  989MOL0     H30505   3.340   4.702   0.540  0.6601 -2.2314 -1.8910
  989MOL0     H30506   3.629   4.735   0.635 -0.8767 -0.9773  2.1105
  989MOL0     H30507   3.513   4.598   0.618 -2.3585  0.5963 -0.1287
  989MOL0     H30508   3.520   4.601   0.381 -2.4249  1.5615  0.1049
  989MOL0     H30509   3.682   4.572   0.458  1.5658  1.3887  0.7969
  989MOL0     H30510   3.859   4.709   0.542  3.2326 -0.0467  0.3723
  989MOL0     H30511   4.079   4.828   0.553 -2.6025  0.8295  1.1827
  989MOL0     H30512   4.341   5.253   0.133  2.1872 -2.8520 -1.6771
  989MOL0     H30513   4.532   5.409   0.163 -1.6294 -0.4600  0.5155
  989MOL0     H30514   4.835   5.343   0.344  0.8228  0.7837 -0.9802
  989MOL0     H30515   4.749   5.319   0.512 -2.5269  1.0536 -1.3853
  989MOL0     H30516   4.896   5.561   0.413 -1.2095 -0.7528 -0.1780
  989MOL0     H30517   4.969   5.433   0.511 -1.2623 -2.9116 -1.3024
  989MOL0     H30518   4.792   5.461   0.686  2.7613  0.7913  1.5395
  989MOL0     H30519   4.720   5.587   0.578  0.4800  0.9303 -0.2774
  989MOL0     H30520   4.993   5.568   0.737  0.2077 -0.0678  1.1558
  989MOL0     H30521   4.989   5.680   0.607  0.5076  1.0189 -0.5713
  989MOL0     H30522   4.844   5.699   0.867  2.5491 -1.9918 -0.2965
  989MOL0     H30523   4.778   5.777   0.715  2.1315  0.8673 -2.7160
  989MOL0     H30524   4.986   5.904   0.692  1.1507  2.1448  1.1074
  989MOL0     H30525   5.079   5.800   0.800  0.7220  1.3176  1.1176
  989MOL0     H30526   4.876   6.024   0.877 -0.6392 -2.8058 -4.5250
  989MOL0     H30527   4.899   5.883   0.976  0.8421  0.6277  1.1917
  989MOL0     H30528   5.149   5.955   0.967  0.0196 -0.6282 -2.8353
  989MOL0     H30529   5.040   6.085   1.039  0.0173 -0.4835  1.0357
  989MOL0     H30530   4.511   5.354   0.584  2.0441  0.3585  0.0836
  989MOL0     H30531   4.312   5.214   0.560 -0.4573  1.4790 -0.0238
  989MOL0     H30532   3.943   5.103   0.251 -0.8988 -2.5969 -2.0430
  989MOL0     H30533   3.731   4.983   0.244  1.1272  0.2586 -1.9703
  989MOL0     H30534   4.205   5.863   1.113  0.3233 -1.5375 -1.2544
  989MOL0     H30535   4.367   5.999   1.220 -0.8212 -0.0007  0.1195
  989MOL0     H30536   4.805   6.425   1.099  2.1296  1.6265  0.0234
  989MOL0     H30537   5.004   6.484   1.245  4.0593 -1.1786  2.3288
  989MOL0     H30538   5.290   6.437   1.431  1.1657 -0.9858  0.6250
  989MOL0     H30539   5.200   6.482   1.291 -3.6544  2.5340  5.8190
  989MOL0     H30540   5.333   6.209   1.326 -1.9827 -0.0336  0.1166
  989MOL0     H30541   5.260   6.269   1.179  3.2079 -0.7054 -0.0243
  989MOL0     H30542   5.488   6.419   1.287  0.4370 -1.6777  0.8224
  989MOL0     H30543   5.416   6.436   1.120 -0.8583  1.8423  1.1714
  989MOL0     H30544   5.486   6.252   1.022 -0.5626  1.8748 -1.1696
  989MOL0     H30545   5.623   6.337   1.096  0.0551 -0.6543  0.4384
  989MOL0     H30546   5.674   5.998   1.302 -2.5852 -1.1263  0.7739
  989MOL0     H30547   4.997   6.103   1.413  0.8322 -2.2852 -2.4394
  989MOL0     H30548   4.796   6.035   1.271  1.4751 -0.3728  0.7406
  990MOL0     O30549   1.463  10.048   0.359  0.6866 -0.2891  0.3773
  990MOL0     C30550   1.543  10.051   0.261  0.4893 -0.2976 -0.7959
  990MOL0     O30551   1.549   9.951   0.161 -0.3600  0.3037  0.1424
  990MOL0     C30552   1.474   9.845   0.192 -0.3203 -0.0038 -0.6808
  990MOL0     C30553   1.355   9.832   0.114 -0.8360  0.1682 -0.9078
  990MOL0     C30554   1.293   9.699   0.116  0.2272 -0.5279  0.2829
  990MOL0     C30555   1.344   9.595   0.196 -1.2869  0.1294 -0.5950
  990MOL0     O30556   1.278   9.480   0.203 -1.0337 -0.0751 -0.5271
  990MOL0     C30557   1.241   9.444   0.340  0.4010 -0.1357 -0.7522
  990MOL0     C30558   1.164   9.313   0.342  0.1332  0.4363 -0.6026
  990MOL0     C30559   1.114   9.284   0.482 -0.0478  0.9339 -0.3579
  990MOL0     C30560   1.016   9.158   0.499  0.3749  0.9225  0.2978
  990MOL0     C30561   0.868   9.196   0.477 -0.2954  0.2983  1.0713
  990MOL0     C30562   0.814   9.309   0.564 -0.6129  0.0962 -0.0318
  990MOL0     C30563   0.662   9.293   0.553  0.1806 -0.3213 -0.1060
  990MOL0     C30564   0.594   9.411   0.621 -0.0152 -2.2890 -0.1628
  990MOL0     N30565   0.459   9.459   0.573  0.2523 -0.0769 -0.1855
  990MOL0     C30566   0.437   9.545   0.460  0.0476  0.7472 -0.6615
  990MOL0     C30567   0.307   9.552   0.445  0.4130  0.9043 -0.1435
  990MOL0     C30568   0.232   9.633   0.349  0.3514  0.4823 -0.0690
  990MOL0     C30569   0.229   9.775   0.411 -0.1582  1.0199 -0.0653
  990MOL0     C30570   0.166   9.798   0.545 -1.0730  0.1440  0.0226
  990MOL0     C30571   0.022   9.752   0.547 -0.0547 -0.6676 -0.5764
  990MOL0     O30572  -0.058   9.837   0.458  0.2148  0.8534  0.3729
  990MOL0     C30573  -0.181   9.781   0.420 -0.3742 -0.5236  0.0428
  990MOL0     C30574  -0.273   9.861   0.358 -0.5266 -0.0177 -1.3633
  990MOL0     C30575  -0.408   9.815   0.341 -0.3921 -0.0647 -0.2534
  990MOL0     C30576  -0.450   9.687   0.395  0.0805 -0.5065  0.7385
  990MOL0     C30577  -0.587   9.646   0.382 -0.0061  0.1222 -0.5359
  990MOL0     O30578  -0.610   9.516   0.423  0.5427  0.6529 -0.2692
  990MOL0     C30579  -0.738   9.478   0.397  0.1176  1.0871 -0.0670
  990MOL0     C30580  -0.840   9.513   0.474 -0.0615  0.1768 -0.0790
  990MOL0     C30581  -0.977   9.479   0.443 -0.5669 -0.0995 -0.0978
  990MOL0     C30582  -1.001   9.387   0.336  0.9232 -0.3471 -0.2523
  990MOL0     O30583  -1.132   9.349   0.308 -0.1486  0.2706  0.2291
  990MOL0     C30584  -1.167   9.315   0.168 -0.0615  0.6624  0.3695
  990MOL0     C30585  -1.311   9.271   0.154  1.5219 -0.1841 -0.6833
  990MOL0     C30586  -1.403   9.382   0.196  0.5828 -0.2546 -0.3107
  990MOL0     C30587  -1.547   9.361   0.191  0.8209  0.2724 -0.3190
  990MOL0     C30588  -1.605   9.264   0.286 -1.7298 -0.2614  0.2182
  990MOL0     C30589  -1.636   9.334   0.420  0.5125  0.1064  0.0893
  990MOL0     C30590  -1.692   9.230   0.519  0.3817 -1.1888 -0.6265
  990MOL0     C30591  -1.751   9.305   0.638  0.1497 -0.0902 -0.7961
  990MOL0    Cl30592  -1.806   9.200   0.783 -0.6656 -0.3281  0.0376
  990MOL0     C30593  -0.896   9.360   0.252 -0.2864  0.7351 -0.1942
  990MOL0     C30594  -0.770   9.404   0.288 -1.1221 -0.7266 -0.7499
  990MOL0     O30595  -0.669   9.725   0.334 -0.7107 -0.2915  0.5397
  990MOL0     C30596  -0.355   9.606   0.471  1.7814 -1.5794  0.5563
  990MOL0     C30597  -0.224   9.655   0.474  0.6702 -0.2902  0.5458
  990MOL0     N30598   0.248   9.466   0.535 -0.8219  0.4343 -0.2002
  990MOL0     N30599   0.335   9.411   0.614  0.5266  0.5366  0.2562
  990MOL0     C30600   1.462   9.621   0.271  0.4649  0.4646 -0.3180
  990MOL0     C30601   1.522   9.744   0.275 -0.4766  0.2957 -0.8347
  990MOL0     C30602   1.615  10.176   0.236  0.6354  1.2640  0.2540
  990MOL0     C30603   1.616  10.281   0.326 -1.5762 -0.1942  0.2768
  990MOL0     C30604   1.687  10.402   0.294  0.3271  0.0447 -0.1287
  990MOL0     C30605   1.760  10.427   0.174  0.6090  0.7146  0.4959
  990MOL0     O30606   1.815  10.546   0.143  0.1435 -0.3472 -0.1193
  990MOL0     C30607   1.889  10.560   0.028 -0.1940 -0.6859  0.5279
  990MOL0     C30608   1.931  10.707   0.027  0.7857  0.3781 -0.1488
  990MOL0     C30609   2.026  10.733  -0.086  0.0716  0.4629  0.2522
  990MOL0     C30610   2.166  10.780  -0.028  0.5863  0.2777  0.0848
  990MOL0     C30611   2.256  10.830  -0.134  0.1542 -0.4778 -0.8152
  990MOL0     C30612   2.296  10.900  -0.227 -0.2764  0.4897 -0.4687
  990MOL0     C30613   1.752  10.319   0.078  0.0859 -0.4184 -0.0711
  990MOL0     C30614   1.694  10.202   0.117  0.4618  1.2916  0.1529
  990MOL0     H30615   1.314   9.915   0.058 -0.6279  2.7209  2.4325
  990MOL0     H30616   1.212   9.661   0.054  2.2609 -2.5944 -1.2930
  990MOL0     H30617   1.180   9.524   0.382  0.4084 -0.0082 -0.9840
  990MOL0     H30618   1.330   9.427   0.401 -2.1375 -0.2816  3.2672
  990MOL0     H30619   1.238   9.237   0.317  1.3482  0.8772  1.4730
  990MOL0     H30620   1.083   9.311   0.268  1.1869 -2.5051 -1.8030
  990MOL0     H30621   1.066   9.369   0.531  0.3660  0.1951  1.4214
  990MOL0     H30622   1.203   9.263   0.542  0.3400  1.6224 -0.6840
  990MOL0     H30623   1.063   9.089   0.427  0.8761  1.3692  0.1860
  990MOL0     H30624   1.029   9.115   0.599  0.2683 -1.1094 -0.5060
  990MOL0     H30625   0.805   9.111   0.503 -2.3065  0.6703 -2.0347
  990MOL0     H30626   0.845   9.221   0.373  0.1207  1.9490  1.3369
  990MOL0     H30627   0.848   9.403   0.521 -1.1016  0.3889  0.1998
  990MOL0     H30628   0.839   9.295   0.670  0.4111 -0.4134 -0.3377
  990MOL0     H30629   0.635   9.302   0.447  1.1419  3.8103 -0.1579
  990MOL0     H30630   0.623   9.201   0.597 -0.0678  0.0415  0.4412
  990MOL0     H30631   0.667   9.488   0.597  1.3010 -2.9000  1.6456
  990MOL0     H30632   0.588   9.390   0.728 -1.9877 -1.1006  0.0254
  990MOL0     H30633   0.508   9.603   0.402 -0.6636  0.8760 -1.4339
  990MOL0     H30634   0.131   9.593   0.337  0.0496  1.3387 -0.4080
  990MOL0     H30635   0.266   9.633   0.245 -1.2331 -0.8695 -0.6300
  990MOL0     H30636   0.178   9.842   0.341 -3.3271 -1.4576 -0.3485
  990MOL0     H30637   0.332   9.812   0.422 -0.5970  2.3182 -0.1064
  990MOL0     H30638   0.218   9.745   0.625 -1.9710  0.7692  1.0456
  990MOL0     H30639   0.179   9.905   0.563  2.2612 -0.5197  2.6315
  990MOL0     H30640  -0.013   9.750   0.650  2.6815  2.6000  0.6071
  990MOL0     H30641   0.031   9.646   0.521  2.1298 -0.7089  0.1177
  990MOL0     H30642  -0.243   9.959   0.321 -0.9864 -0.1517 -2.1183
  990MOL0     H30643  -0.471   9.892   0.297 -0.8572  0.5066  1.3461
  990MOL0     H30644  -0.817   9.588   0.550  0.1067  1.5061 -1.3924
  990MOL0     H30645  -1.046   9.508   0.521  0.4810  1.2469  0.3679
  990MOL0     H30646  -1.109   9.224   0.146 -1.4920 -0.4049  0.8349
  990MOL0     H30647  -1.164   9.398   0.098  0.2959  1.4271  1.2604
  990MOL0     H30648  -1.330   9.190   0.226  4.2719  0.4767  0.9215
  990MOL0     H30649  -1.345   9.230   0.058  0.5533 -4.0974  1.1343
  990MOL0     H30650  -1.392   9.469   0.130 -2.0093 -0.7636 -1.5360
  990MOL0     H30651  -1.381   9.410   0.300  0.4940  0.8053 -0.5674
  990MOL0     H30652  -1.601   9.454   0.210 -0.8341 -0.5877 -0.6283
  990MOL0     H30653  -1.561   9.332   0.087  0.8003 -0.0072 -0.2393
  990MOL0     H30654  -1.536   9.183   0.313  1.2264  2.4770  1.5170
  990MOL0     H30655  -1.698   9.228   0.241 -3.0473  0.5521  2.1433
  990MOL0     H30656  -1.715   9.405   0.396  0.5681 -0.0199 -0.4948
  990MOL0     H30657  -1.556   9.395   0.463 -0.6081  1.1021  0.8167
  990MOL0     H30658  -1.772   9.166   0.481  1.6529 -3.9809  0.9757
  990MOL0     H30659  -1.613   9.159   0.546 -0.0167 -1.3779  0.0595
  990MOL0     H30660  -1.836   9.354   0.590 -0.7051  0.6742  1.3897
  990MOL0     H30661  -1.675   9.373   0.676 -0.9749 -0.4452  2.4176
  990MOL0     H30662  -0.918   9.288   0.174  0.2448  2.0049 -1.5875
  990MOL0     H30663  -0.681   9.371   0.234 -0.7920 -1.9893  0.5238
  990MOL0     H30664  -0.371   9.516   0.530  2.0151 -1.0196  1.4951
  990MOL0     H30665  -0.151   9.591   0.523  2.5110  1.1674 -0.1594
  990MOL0     H30666   1.504   9.538   0.327  4.5599  0.6544 -2.7372
  990MOL0     H30667   1.613   9.752   0.334 -0.5453  0.9781 -0.8141
  990MOL0     H30668   1.537  10.285   0.399  0.3632 -1.5074  2.6100
  990MOL0     H30669   1.674  10.482   0.366 -0.9148 -0.0780 -0.1855
  990MOL0     H30670   1.830  10.535  -0.060 -0.1481  0.9809 -0.0203
  990MOL0     H30671   1.984  10.507   0.017  0.1496 -0.0837  0.5263
  990MOL0     H30672   1.841  10.767   0.009  0.2807  0.2198  1.6382
  990MOL0     H30673   1.966  10.734   0.127 -2.7126 -1.8974  1.9414
  990MOL0     H30674   1.993  10.821  -0.143 -3.4956 -0.8343  0.0466
  990MOL0     H30675   2.040  10.654  -0.161  1.3519  0.0198  0.9393
  990MOL0     H30676   2.155  10.863   0.041  0.9244 -1.0460  1.7976
  990MOL0     H30677   2.226  10.703   0.020 -0.5866 -0.8496 -0.1906
  990MOL0     H30678   2.331  10.949  -0.316 -0.2463 -0.5731 -1.0634
  990MOL0     H30679   1.805  10.326  -0.016 -0.3089 -0.6070 -0.3116
  990MOL0     H30680   1.691  10.121   0.046 -2.1374  1.8906 -0.5441
  991MOL0     O30681   1.409   1.832   5.786 -0.4748 -0.2411  0.6535
  991MOL0     C30682   1.394   1.721   5.736 -0.7343  0.5378 -0.2280
  991MOL0     O30683   1.459   1.619   5.768 -0.2936 -0.2588 -0.1650
  991MOL0     C30684   1.558   1.624   5.870  0.0870  1.0286  1.1091
  991MOL0     C30685   1.665   1.715   5.862  0.0675 -0.1735 -0.4109
  991MOL0     C30686   1.768   1.713   5.955 -0.2387  0.7930  0.6569
  991MOL0     C30687   1.760   1.622   6.063 -0.0190  0.3424 -0.7915
  991MOL0     O30688   1.865   1.623   6.151 -0.3873 -0.4284  0.1436
  991MOL0     C30689   1.839   1.587   6.288 -0.8478  0.1903 -0.5648
  991MOL0     C30690   1.947   1.642   6.380 -0.3979  0.3548  0.1160
  991MOL0     C30691   1.960   1.558   6.505 -0.4087 -0.2913  0.5370
  991MOL0     C30692   2.097   1.572   6.574 -1.5258 -0.5652  0.1856
  991MOL0     C30693   2.207   1.478   6.496 -0.1607 -0.6680  0.2784
  991MOL0     C30694   2.321   1.430   6.565  0.2661 -0.1754  0.5700
  991MOL0     C30695   2.392   1.537   6.642 -0.0509  0.4104  0.1319
  991MOL0     C30696   2.531   1.492   6.682 -0.1938 -0.9514 -0.5882
  991MOL0     N30697   2.534   1.411   6.806  0.6965 -0.4621 -0.4383
  991MOL0     C30698   2.560   1.450   6.933  1.0069  0.5622  0.0584
  991MOL0     C30699   2.539   1.327   6.998 -1.1054 -0.2284 -0.2331
  991MOL0     C30700   2.575   1.285   7.145  0.0028  0.1628 -0.1453
  991MOL0     C30701   2.711   1.214   7.145  0.1100 -0.6391 -0.4013
  991MOL0     C30702   2.836   1.308   7.144  0.1794  1.3672 -0.1734
  991MOL0     C30703   2.961   1.224   7.166  0.2578 -0.6798 -0.2084
  991MOL0     O30704   2.961   1.127   7.059  0.2545 -0.5031 -0.1211
  991MOL0     C30705   3.070   1.049   7.032 -0.6792  0.0369 -0.3653
  991MOL0     C30706   3.186   1.043   7.111  0.1738  0.0335  0.5735
  991MOL0     C30707   3.287   0.953   7.072 -0.5154  0.3752  0.1567
  991MOL0     C30708   3.275   0.870   6.958 -0.0813  0.4709  0.0038
  991MOL0     C30709   3.392   0.786   6.923 -0.2741 -0.4544 -0.8139
  991MOL0     O30710   3.377   0.716   6.804 -0.6092  0.1753 -0.0980
  991MOL0     C30711   3.483   0.641   6.746  0.6425  0.8773  0.4685
  991MOL0     C30712   3.606   0.691   6.734  0.8711 -0.9129 -0.6095
  991MOL0     C30713   3.709   0.608   6.707 -1.0694  0.8784  0.2600
  991MOL0     C30714   3.684   0.470   6.662  0.2242 -0.4869 -0.2826
  991MOL0     O30715   3.783   0.378   6.628 -0.2795 -0.1335 -0.4047
  991MOL0     C30716   3.916   0.426   6.599  0.0776  0.2996 -0.1057
  991MOL0     C30717   4.003   0.306   6.543 -0.3023  0.5517  0.3718
  991MOL0     C30718   4.066   0.221   6.644  0.7000  0.1324 -0.3758
  991MOL0     C30719   4.125   0.108   6.562 -0.7090 -0.4588 -0.1804
  991MOL0     C30720   4.188  -0.002   6.655  0.6849 -0.3277 -0.1456
  991MOL0     C30721   4.090  -0.078   6.738  0.2315 -0.5968  0.1584
  991MOL0     C30722   4.160  -0.200   6.799  0.0452 -0.2051 -0.4170
  991MOL0     C30723   4.138  -0.223   6.946 -1.0780 -0.3955 -0.2495
  991MOL0    Cl30724   3.962  -0.236   6.981 -0.3399  0.3262 -0.2128
  991MOL0     C30725   3.555   0.419   6.671 -0.7130  0.8474  0.6771
  991MOL0     C30726   3.449   0.506   6.707 -0.2707  0.0562 -0.7712
  991MOL0     O30727   3.486   0.779   7.004  0.0508  0.3837 -0.8082
  991MOL0     C30728   3.171   0.887   6.874  1.3391  0.1394 -0.9027
  991MOL0     C30729   3.070   0.977   6.909  0.2571 -0.8517  0.0520
  991MOL0     N30730   2.498   1.234   6.913  0.5329  0.3603  0.9080
  991MOL0     N30731   2.497   1.284   6.798 -0.1132 -0.0554  0.4258
  991MOL0     C30732   1.662   1.524   6.063  1.0750 -0.3669  0.4275
  991MOL0     C30733   1.555   1.523   5.968 -0.0619 -0.1425 -0.1636
  991MOL0     C30734   1.267   1.701   5.656 -0.0427 -0.0898  0.2753
  991MOL0     C30735   1.196   1.810   5.595  0.1708 -0.1834 -0.2794
  991MOL0     C30736   1.079   1.787   5.522  0.9781  0.5055  0.1481
  991MOL0     C30737   1.035   1.657   5.499  0.1918 -0.2440  0.3463
  991MOL0     O30738   0.925   1.621   5.427  0.0338  0.4598  0.8235
  991MOL0     C30739   0.807   1.707   5.449  0.5703  0.1950  0.9580
  991MOL0     C30740   0.697   1.658   5.357  0.7950 -0.4208 -0.6476
  991MOL0     C30741   0.569   1.740   5.370 -0.0545  0.6141  0.5539
  991MOL0     C30742   0.468   1.694   5.269  0.5329 -0.2877 -1.1367
  991MOL0     C30743   0.399   1.575   5.322  0.0813  1.0279  0.4839
  991MOL0     C30744   0.363   1.464   5.358  0.9394  0.1081  1.1850
  991MOL0     C30745   1.095   1.548   5.569 -0.6590  0.3886 -0.1163
  991MOL0     C30746   1.208   1.570   5.652  0.6561  0.4320  0.5948
  991MOL0     H30747   1.667   1.781   5.777  0.4892 -1.3007 -1.3042
  991MOL0     H30748   1.837   1.796   5.943 -0.3673  0.5778 -2.2120
  991MOL0     H30749   1.845   1.478   6.278 -1.5575  0.0636  0.2423
  991MOL0     H30750   1.739   1.612   6.325 -0.5109  0.7050  0.0113
  991MOL0     H30751   1.925   1.746   6.406  0.5609  0.6641 -0.2795
  991MOL0     H30752   2.044   1.632   6.330 -1.0284 -3.5308 -0.6309
  991MOL0     H30753   1.960   1.451   6.484  2.5709 -0.9801  3.2501
  991MOL0     H30754   1.867   1.571   6.562 -0.8332  0.0314 -0.2183
  991MOL0     H30755   2.124   1.677   6.590 -1.6556  0.0470 -2.8648
  991MOL0     H30756   2.098   1.526   6.673  2.3649 -1.9910 -0.3479
  991MOL0     H30757   2.239   1.547   6.418 -0.0013  1.2466  1.9589
  991MOL0     H30758   2.163   1.388   6.451 -0.3489 -0.4805  0.0844
  991MOL0     H30759   2.393   1.393   6.492  0.8529 -1.4241  1.7277
  991MOL0     H30760   2.308   1.343   6.631  1.8810  0.2134  1.4468
  991MOL0     H30761   2.408   1.631   6.588  2.5659  0.1506  0.3043
  991MOL0     H30762   2.327   1.548   6.729 -0.1831 -2.6222  0.5240
  991MOL0     H30763   2.575   1.591   6.702  1.8804 -1.7793 -0.7872
  991MOL0     H30764   2.589   1.446   6.602  0.9101  0.3242 -0.5753
  991MOL0     H30765   2.601   1.538   6.981  2.2927 -1.2927  2.6655
  991MOL0     H30766   2.503   1.217   7.192 -1.3170  0.1984 -2.0253
  991MOL0     H30767   2.588   1.373   7.209 -0.8857  0.9284 -0.9921
  991MOL0     H30768   2.704   1.143   7.062  0.4410  0.2542 -1.2301
  991MOL0     H30769   2.713   1.159   7.239 -0.0156  1.9127  1.1951
  991MOL0     H30770   2.831   1.340   7.040 -3.1073 -2.1349 -1.3286
  991MOL0     H30771   2.836   1.394   7.212  1.5077  0.3975  1.1208
  991MOL0     H30772   2.944   1.185   7.266 -2.5184  1.0962  0.1336
  991MOL0     H30773   3.051   1.283   7.144  0.3163 -0.7416 -0.1322
  991MOL0     H30774   3.195   1.094   7.206  2.2771  0.2564  0.2880
  991MOL0     H30775   3.367   0.941   7.145 -0.7120  0.9773  0.4738
  991MOL0     H30776   3.628   0.793   6.764 -1.7905  0.2735 -2.2783
  991MOL0     H30777   3.806   0.656   6.707  1.3064 -3.4167 -0.2437
  991MOL0     H30778   3.964   0.462   6.690 -0.5048  1.9386 -0.4166
  991MOL0     H30779   3.914   0.509   6.528  4.5926  1.2342  0.5703
  991MOL0     H30780   4.077   0.360   6.483 -1.5001  0.0159 -1.7114
  991MOL0     H30781   3.944   0.248   6.471  1.7981  2.4026 -3.1450
  991MOL0     H30782   3.991   0.182   6.713 -0.0148 -2.6927 -2.5566
  991MOL0     H30783   4.131   0.278   6.710 -1.8285  0.6823  1.8154
  991MOL0     H30784   4.055   0.065   6.491 -0.1050  1.3938 -1.9727
  991MOL0     H30785   4.202   0.137   6.490  0.8866 -3.9559 -0.1192
  991MOL0     H30786   4.272   0.036   6.714  0.5902 -2.5094  1.4777
  991MOL0     H30787   4.228  -0.074   6.582  0.7914  1.8347 -2.3776
  991MOL0     H30788   4.001  -0.100   6.678 -2.0877  2.6244  2.0390
  991MOL0     H30789   4.059  -0.012   6.820 -0.4019  1.5716 -1.7018
  991MOL0     H30790   4.129  -0.295   6.754 -0.2113  0.3107 -1.3500
  991MOL0     H30791   4.265  -0.186   6.772 -0.2000 -1.5388 -2.3078
  991MOL0     H30792   4.171  -0.132   6.996 -2.1595  1.5325 -2.8672
  991MOL0     H30793   4.193  -0.312   6.980 -0.1665  0.3683  0.3240
  991MOL0     H30794   3.540   0.318   6.634 -0.0901  0.8895  0.2857
  991MOL0     H30795   3.346   0.472   6.714  0.4140 -1.7680  3.3130
  991MOL0     H30796   3.185   0.844   6.775 -1.9035 -2.0643 -0.5448
  991MOL0     H30797   2.978   0.995   6.854  0.3872 -4.4958 -1.7162
  991MOL0     H30798   1.661   1.444   6.136 -0.0011 -1.7280 -1.0010
  991MOL0     H30799   1.473   1.452   5.982 -0.5330  0.3020 -0.6404
  991MOL0     H30800   1.237   1.911   5.599  2.6884 -1.1402 -0.5352
  991MOL0     H30801   1.035   1.860   5.454 -2.5524 -0.4224  1.2630
  991MOL0     H30802   0.837   1.807   5.415  1.3533 -0.4143 -0.2185
  991MOL0     H30803   0.758   1.712   5.547 -2.8445 -0.9726 -0.5592
  991MOL0     H30804   0.733   1.663   5.253 -0.5449  2.1814 -1.0888
  991MOL0     H30805   0.680   1.554   5.386  1.4255  0.3613  2.9266
  991MOL0     H30806   0.598   1.845   5.359 -3.5520  1.6666  0.1923
  991MOL0     H30807   0.524   1.734   5.469 -0.9274  0.4905  0.1585
  991MOL0     H30808   0.388   1.768   5.265 -1.5366 -1.8689  3.6167
  991MOL0     H30809   0.510   1.675   5.170 -2.5260  1.2108 -2.8748
  991MOL0     H30810   0.338   1.363   5.383 -0.5308 -0.2624 -1.4589
  991MOL0     H30811   1.058   1.446   5.561 -0.4774  0.0969  2.0903
  991MOL0     H30812   1.249   1.498   5.722 -2.2765 -1.8376  0.1734
  992MOL0     O30813   2.959  10.708   0.522  0.1492  0.3654 -0.8424
  992MOL0     C30814   3.015  10.808   0.482  0.3606  0.8953  0.0539
  992MOL0     O30815   3.037  10.918   0.544 -0.8726 -0.4032 -0.0249
  992MOL0     C30816   3.012  10.925   0.676 -0.4430 -0.1722  0.5569
  992MOL0     C30817   3.111  10.962   0.761  0.4389 -0.1258 -0.6224
  992MOL0     C30818   3.087  10.979   0.900 -0.3352  0.9144 -0.0728
  992MOL0     C30819   2.957  10.954   0.964 -0.2047 -0.2305  0.5569
  992MOL0     O30820   2.923  10.979   1.091 -0.2807 -0.6392  0.2142
  992MOL0     C30821   3.018  11.038   1.182  0.3446 -0.0849  0.0403
  992MOL0     C30822   2.933  11.111   1.291 -1.3859  0.4707 -0.1238
  992MOL0     C30823   2.859  11.005   1.375  0.0491 -1.0454  0.0292
  992MOL0     C30824   2.771  11.076   1.479 -0.7311  0.0687  0.2943
  992MOL0     C30825   2.711  10.971   1.565  0.6426  0.0396 -1.3244
  992MOL0     C30826   2.575  11.021   1.625 -0.9265  0.2004 -0.1145
  992MOL0     C30827   2.550  10.929   1.740  0.2768  0.3797  0.2132
  992MOL0     C30828   2.438  10.834   1.722  0.1172  0.4167  0.1809
  992MOL0     N30829   2.430  10.756   1.848  1.3969 -0.2745 -0.3347
  992MOL0     C30830   2.503  10.651   1.886 -0.6954 -0.4472  0.3296
  992MOL0     C30831   2.461  10.614   2.000  0.0262  0.0467 -0.8879
  992MOL0     C30832   2.492  10.485   2.074 -0.5084 -0.0231 -0.0658
  992MOL0     C30833   2.628  10.419   2.038 -0.9855 -0.6182  0.1963
  992MOL0     C30834   2.638  10.274   2.098 -0.3697 -0.0244 -0.0237
  992MOL0     C30835   2.695  10.278   2.238 -0.2520  0.7135 -0.5311
  992MOL0     O30836   2.698  10.139   2.286 -0.4020 -0.2198 -0.9587
  992MOL0     C30837   2.731  10.128   2.423  0.6527  0.4927 -0.0978
  992MOL0     C30838   2.858  10.067   2.456 -0.6773 -0.2266  0.7037
  992MOL0     C30839   2.899  10.050   2.585 -0.1341 -0.4682  0.4208
  992MOL0     C30840   2.810  10.074   2.689 -1.6412  0.4664 -0.2435
  992MOL0     C30841   2.850  10.045   2.830  0.1918  0.0897 -0.2954
  992MOL0     O30842   2.978   9.994   2.852 -0.6293  0.5916  0.3153
  992MOL0     C30843   3.012  10.003   2.983 -0.7295  0.6077 -0.0434
  992MOL0     C30844   3.079  10.112   3.027 -0.3965  0.8717 -0.8088
  992MOL0     C30845   3.125  10.102   3.158  1.0661  0.2021 -0.2446
  992MOL0     C30846   3.088  10.000   3.250  0.5927  0.7443 -1.1703
  992MOL0     O30847   3.134  10.003   3.384  0.2020  0.0465  0.0398
  992MOL0     C30848   3.091   9.900   3.478 -0.0328  0.3962  0.6074
  992MOL0     C30849   3.151   9.926   3.622  0.0410 -0.3494 -0.0033
  992MOL0     C30850   3.307   9.903   3.625  0.5533 -0.7616  0.2129
  992MOL0     C30851   3.352   9.926   3.766  0.3369 -0.2443  0.6455
  992MOL0     C30852   3.501   9.905   3.782 -0.2670  0.2025  0.0498
  992MOL0     C30853   3.561   9.961   3.913 -0.5999 -0.8816  0.5863
  992MOL0     C30854   3.710   9.963   3.910  0.3906 -0.1313  0.0404
  992MOL0     C30855   3.764  10.055   4.018 -0.1352  0.9974 -0.3171
  992MOL0    Cl30856   3.946  10.032   4.032 -0.0777 -0.1055  0.1208
  992MOL0     C30857   3.011   9.890   3.198  0.7962  0.5426  0.2532
  992MOL0     C30858   2.981   9.888   3.061  0.1489 -0.0388 -0.3509
  992MOL0     O30859   2.773  10.085   2.916  0.1521 -0.8499 -0.6205
  992MOL0     C30860   2.690  10.131   2.664 -0.3585  0.1114  0.4641
  992MOL0     C30861   2.644  10.163   2.533 -0.2605  0.5828  0.6686
  992MOL0     N30862   2.363  10.700   2.043 -0.0411 -0.0318  0.9191
  992MOL0     N30863   2.339  10.787   1.943 -0.3903  0.4193  0.8060
  992MOL0     C30864   2.851  10.927   0.870  0.0835  1.7472 -0.5946
  992MOL0     C30865   2.884  10.912   0.737 -1.0349  0.2227 -0.1183
  992MOL0     C30866   3.099  10.790   0.359  1.3031 -0.0291 -0.6809
  992MOL0     C30867   3.093  10.670   0.288 -0.1541 -0.0927  0.0441
  992MOL0     C30868   3.151  10.662   0.164  0.5418 -0.4554  0.8036
  992MOL0     C30869   3.209  10.784   0.109 -0.5560  0.2152  0.1781
  992MOL0     O30870   3.271  10.787  -0.016 -0.1518 -1.0722  0.7814
  992MOL0     C30871   3.415  10.787  -0.006  0.5323 -0.6561  0.1091
  992MOL0     C30872   3.481  10.776  -0.144 -1.4666 -0.4194 -0.9098
  992MOL0     C30873   3.524  10.635  -0.184  0.8812  0.4596 -0.7607
  992MOL0     C30874   3.582  10.611  -0.328  0.4713 -0.3902  0.3316
  992MOL0     C30875   3.644  10.477  -0.341 -1.1519  0.0152  0.8792
  992MOL0     C30876   3.710  10.374  -0.334 -0.9418 -0.3767 -0.3503
  992MOL0     C30877   3.213  10.897   0.178  0.6560 -0.4262  0.2160
  992MOL0     C30878   3.152  10.902   0.302 -1.0587 -0.5506  0.9505
  992MOL0     H30879   3.208  10.970   0.714 -0.1425  0.2592 -1.8069
  992MOL0     H30880   3.171  10.998   0.966  1.7093  2.8478 -2.9813
  992MOL0     H30881   3.095  11.104   1.141  1.0368 -1.8202 -1.6607
  992MOL0     H30882   3.077  10.956   1.225 -2.9488 -1.5358  2.1277
  992MOL0     H30883   2.869  11.184   1.241  3.3440  2.1081 -4.6704
  992MOL0     H30884   3.006  11.163   1.354  3.7635 -2.6097 -2.8953
  992MOL0     H30885   2.934  10.936   1.418  2.7199  1.7472  0.2138
  992MOL0     H30886   2.798  10.948   1.305  1.2086 -0.1944 -1.7488
  992MOL0     H30887   2.836  11.143   1.536  2.0020 -2.4987  0.4246
  992MOL0     H30888   2.695  11.139   1.432 -1.4050 -0.5241  0.5643
  992MOL0     H30889   2.790  10.964   1.641  0.4736  1.8113 -0.9412
  992MOL0     H30890   2.695  10.879   1.508  0.8274 -0.6925 -0.2285
  992MOL0     H30891   2.492  11.024   1.553  0.7360  2.8338 -2.0829
  992MOL0     H30892   2.599  11.118   1.668 -0.3942 -0.3285  0.8089
  992MOL0     H30893   2.645  10.886   1.773 -0.7419 -0.0802  2.7241
  992MOL0     H30894   2.514  10.988   1.824 -0.4156 -0.9171  0.8601
  992MOL0     H30895   2.443  10.756   1.646 -1.0128  0.5980 -0.0997
  992MOL0     H30896   2.353  10.897   1.694  1.0497  1.7963  0.3630
  992MOL0     H30897   2.574  10.594   1.827  0.8774 -1.2898  2.9067
  992MOL0     H30898   2.405  10.420   2.063 -0.6162  0.0330  0.4299
  992MOL0     H30899   2.486  10.514   2.180 -0.8240 -1.0805  0.2216
  992MOL0     H30900   2.709  10.483   2.073 -2.5053  4.4476 -4.1197
  992MOL0     H30901   2.648  10.397   1.933  4.6146  0.3178  0.7456
  992MOL0     H30902   2.544  10.218   2.093 -1.0640  1.1414 -0.8279
  992MOL0     H30903   2.720  10.231   2.040 -1.2193 -3.1837  0.9623
  992MOL0     H30904   2.632  10.343   2.299 -0.2350  0.5511 -0.3418
  992MOL0     H30905   2.797  10.318   2.229 -0.2624  2.3360  4.0449
  992MOL0     H30906   2.919  10.036   2.372 -1.0387 -0.0434  0.3698
  992MOL0     H30907   3.001  10.012   2.592  0.5282  1.0045 -0.6839
  992MOL0     H30908   3.116  10.187   2.956  2.9767 -0.1303 -0.3154
  992MOL0     H30909   3.199  10.177   3.185  2.8928 -0.5736 -2.6704
  992MOL0     H30910   3.121   9.799   3.449  0.9614  1.1847 -1.2324
  992MOL0     H30911   2.982   9.905   3.488 -0.1145 -0.8047  0.5235
  992MOL0     H30912   3.095   9.871   3.697 -1.1742  1.2011  0.2766
  992MOL0     H30913   3.132  10.028   3.655  0.1914  0.2640 -1.6903
  992MOL0     H30914   3.363   9.969   3.557 -0.3664  0.1549  0.3085
  992MOL0     H30915   3.331   9.801   3.596  0.1872 -0.2531 -2.0759
  992MOL0     H30916   3.313  10.024   3.795 -3.8136 -2.0258  1.9660
  992MOL0     H30917   3.301   9.855   3.833  1.1541 -0.3658  1.1475
  992MOL0     H30918   3.554   9.957   3.703  2.3152  2.7382  3.1653
  992MOL0     H30919   3.527   9.799   3.778 -0.9924  0.0410 -3.6091
  992MOL0     H30920   3.528   9.907   4.002  0.6577 -0.9987  0.9976
  992MOL0     H30921   3.526  10.065   3.915 -2.5597 -1.3265 -2.7209
  992MOL0     H30922   3.745   9.859   3.914  1.3777  0.1606  4.3581
  992MOL0     H30923   3.750   9.997   3.814  0.6630 -0.8431 -0.1093
  992MOL0     H30924   3.721  10.042   4.117  1.5179 -0.4282  0.2645
  992MOL0     H30925   3.725  10.153   3.988 -1.3902  0.6562  0.1559
  992MOL0     H30926   2.973   9.810   3.261  0.2064  0.3232 -0.3780
  992MOL0     H30927   2.918   9.811   3.017 -0.9704  0.6115  0.0808
  992MOL0     H30928   2.621  10.167   2.740 -0.2981  3.0382 -0.7319
  992MOL0     H30929   2.543  10.202   2.519 -1.7344 -2.4545  1.8349
  992MOL0     H30930   2.746  10.914   0.896  0.5633 -0.6640  0.3404
  992MOL0     H30931   2.808  10.898   0.661 -0.3709 -1.7285 -0.4906
  992MOL0     H30932   3.025  10.592   0.321  0.3638 -0.4267  0.3341
  992MOL0     H30933   3.144  10.577   0.098  0.5735 -0.8396  1.2885
  992MOL0     H30934   3.441  10.703   0.059  1.8685 -0.0107  0.4478
  992MOL0     H30935   3.453  10.885   0.024  2.5153 -0.8592 -1.5349
  992MOL0     H30936   3.408  10.804  -0.220 -1.6909 -1.5889 -1.1567
  992MOL0     H30937   3.578  10.827  -0.143  0.1124 -3.1671 -1.2524
  992MOL0     H30938   3.427  10.586  -0.174  0.1298  1.8882 -0.7980
  992MOL0     H30939   3.597  10.584  -0.120  0.0022 -3.3603 -2.5199
  992MOL0     H30940   3.505  10.612  -0.406  1.2354 -0.8893 -0.4478
  992MOL0     H30941   3.655  10.685  -0.360  2.7616 -2.0447  1.4880
  992MOL0     H30942   3.752  10.276  -0.345 -0.0010 -0.1564  1.0513
  992MOL0     H30943   3.255  10.983   0.127 -0.2369 -0.0294  0.1302
  992MOL0     H30944   3.162  10.998   0.350  0.8932 -0.8319  1.1839
  993MOL0     O30945  10.917   7.566  11.433  0.1860  0.0573  0.3066
  993MOL0     C30946  10.823   7.632  11.471  0.7636 -0.4699  0.0174
  993MOL0     O30947  10.714   7.594  11.547 -0.2560 -0.2636 -0.1406
  993MOL0     C30948  10.703   7.458  11.591 -0.5604 -0.0664  0.1795
  993MOL0     C30949  10.720   7.349  11.519  0.2489  0.6442  0.0803
  993MOL0     C30950  10.717   7.215  11.574  0.1742 -0.6834  0.4646
  993MOL0     C30951  10.685   7.197  11.708  0.1823 -0.0309  0.9787
  993MOL0     O30952  10.692   7.069  11.765 -0.5800 -0.1502  0.0320
  993MOL0     C30953  10.587   6.988  11.723 -1.2876 -0.1287 -0.3027
  993MOL0     C30954  10.606   6.905  11.598 -0.4070 -0.0999 -0.2694
  993MOL0     C30955  10.502   6.791  11.590 -0.4859 -0.1307 -0.7352
  993MOL0     C30956  10.357   6.844  11.594 -0.7534 -0.3353  0.3997
  993MOL0     C30957  10.271   6.728  11.557 -0.1674  0.1201  0.4356
  993MOL0     C30958  10.127   6.753  11.596  1.7516 -0.5894 -0.0163
  993MOL0     C30959  10.046   6.624  11.589  0.5024 -0.0170  0.6166
  993MOL0     C30960  10.011   6.575  11.448 -0.4148 -0.3706  0.2830
  993MOL0     N30961   9.887   6.497  11.443  0.1414  0.0185  0.1211
  993MOL0     C30962   9.765   6.540  11.400  0.2085  0.1538  0.0724
  993MOL0     C30963   9.694   6.429  11.387  0.7648 -0.7542  0.1301
  993MOL0     C30964   9.553   6.410  11.341 -0.0513 -0.9625  0.1988
  993MOL0     C30965   9.463   6.531  11.340  0.3228  0.2486 -0.2214
  993MOL0     C30966   9.309   6.522  11.347 -0.2264  0.9085  0.3485
  993MOL0     C30967   9.242   6.502  11.208 -0.6327 -0.1199  0.5232
  993MOL0     O30968   9.116   6.454  11.224 -0.1788  0.2342  1.0619
  993MOL0     C30969   9.011   6.542  11.245  0.3804  0.1467  0.0444
  993MOL0     C30970   9.027   6.684  11.256 -0.6775  0.6265 -1.5214
  993MOL0     C30971   8.915   6.762  11.284 -0.9168  1.0750  0.3055
  993MOL0     C30972   8.788   6.700  11.303 -0.6384  0.3861  1.1582
  993MOL0     C30973   8.673   6.791  11.317  0.3039  0.1523 -0.3401
  993MOL0     O30974   8.697   6.926  11.341  0.7752  1.0166 -0.6538
  993MOL0     C30975   8.605   7.028  11.369 -0.1340  0.8760  0.0107
  993MOL0     C30976   8.466   7.010  11.380 -0.4796 -0.2438 -0.0149
  993MOL0     C30977   8.380   7.116  11.410  0.1713  0.0792  0.5319
  993MOL0     C30978   8.420   7.242  11.431 -0.5607 -0.3009 -0.2966
  993MOL0     O30979   8.340   7.343  11.454  0.1795 -0.4098 -0.4306
  993MOL0     C30980   8.391   7.472  11.486  0.2095  0.5526  0.3233
  993MOL0     C30981   8.268   7.562  11.496 -0.2319  0.1772  0.2024
  993MOL0     C30982   8.291   7.714  11.472 -1.1488 -0.1666 -0.1466
  993MOL0     C30983   8.166   7.783  11.418 -0.4928  0.3149  0.3413
  993MOL0     C30984   8.068   7.830  11.530 -0.1674 -0.5963  0.9875
  993MOL0     C30985   7.977   7.925  11.457  0.1340  0.6522 -0.5247
  993MOL0     C30986   7.855   7.977  11.539  0.0817 -0.3784 -0.5301
  993MOL0     C30987   7.894   8.097  11.632  0.6881 -0.0577  0.2101
  993MOL0    Cl30988   7.926   8.238  11.531  0.2208  0.5509  0.0019
  993MOL0     C30989   8.563   7.260  11.417  0.2743  0.7894 -0.7037
  993MOL0     C30990   8.650   7.160  11.380  0.2789  0.4607 -1.3550
  993MOL0     O30991   8.558   6.734  11.320 -0.3577  0.2308 -0.2305
  993MOL0     C30992   8.775   6.558  11.299 -0.6457 -0.4160  0.1091
  993MOL0     C30993   8.886   6.488  11.258  1.1962  0.6684 -0.2017
  993MOL0     N30994   9.768   6.329  11.421  0.2105  0.9619  0.3916
  993MOL0     N30995   9.884   6.368  11.457  0.6716 -0.2132 -0.1656
  993MOL0     C30996  10.663   7.306  11.786 -0.7722  0.0285 -0.1914
  993MOL0     C30997  10.667   7.437  11.728  0.0658 -0.2815  0.5746
  993MOL0     C30998  10.852   7.783  11.464  0.8560 -1.0174 -1.4917
  993MOL0     C30999  10.951   7.849  11.392  0.7221 -0.0375 -0.4781
  993MOL0     C31000  10.991   7.985  11.401 -0.1658  0.4220  0.0512
  993MOL0     C31001  10.925   8.066  11.495  0.7268 -0.2206  1.4973
  993MOL0     O31002  10.950   8.194  11.497  0.0201 -0.2582  0.1903
  993MOL0     C31003  10.847   8.284  11.560 -1.0130 -0.6024  0.6897
  993MOL0     C31004  10.881   8.432  11.582  0.7969  0.1282 -0.5927
  993MOL0     C31005  11.013   8.461  11.657 -0.2048 -0.3252 -0.1990
  993MOL0     C31006  11.037   8.616  11.671  0.3753  0.3371 -1.0634
  993MOL0     C31007  11.177   8.646  11.700 -0.3355  0.3327 -0.3404
  993MOL0     C31008  11.298   8.665  11.714  0.4593  0.1161  0.3450
  993MOL0     C31009  10.828   8.006  11.573  0.2268  0.0343  1.0755
  993MOL0     C31010  10.788   7.869  11.553 -0.5038 -1.1177 -0.4670
  993MOL0     H31011  10.734   7.369  11.413  2.6840  1.7781  0.5338
  993MOL0     H31012  10.736   7.146  11.492 -1.0549  0.6773 -1.0456
  993MOL0     H31013  10.504   7.060  11.718  1.1190  2.8443 -0.1186
  993MOL0     H31014  10.569   6.926  11.811 -1.8949 -0.5160 -0.6922
  993MOL0     H31015  10.697   6.849  11.622 -1.0109 -1.6345 -1.3667
  993MOL0     H31016  10.620   6.962  11.506 -0.9011 -0.4466 -0.5688
  993MOL0     H31017  10.532   6.724  11.671  2.2077  1.0566 -0.6626
  993MOL0     H31018  10.524   6.732  11.501  0.6228 -3.8704  1.7979
  993MOL0     H31019  10.322   6.866  11.695 -1.1997  1.2190 -0.0757
  993MOL0     H31020  10.339   6.930  11.529 -2.8576 -1.6431 -0.9015
  993MOL0     H31021  10.305   6.634  11.603 -0.5224 -1.2517 -1.9198
  993MOL0     H31022  10.280   6.716  11.449 -1.1990  1.2442  0.2078
  993MOL0     H31023  10.090   6.827  11.524  3.0507  3.0531  2.7213
  993MOL0     H31024  10.114   6.782  11.701  3.1109 -1.8257  0.5387
  993MOL0     H31025  10.105   6.542  11.632  0.8519  0.5891  1.3073
  993MOL0     H31026   9.952   6.644  11.641  0.6978 -0.4284  1.1474
  993MOL0     H31027  10.099   6.523  11.409  0.7911  2.2190 -0.6462
  993MOL0     H31028   9.995   6.663  11.385 -2.5603 -2.4346 -2.2817
  993MOL0     H31029   9.716   6.635  11.383 -1.5745 -1.0209 -1.7721
  993MOL0     H31030   9.505   6.327  11.394 -1.8578 -0.2318 -0.2098
  993MOL0     H31031   9.553   6.379  11.236 -0.6515  1.5184 -0.6107
  993MOL0     H31032   9.492   6.585  11.250  1.7182  2.1078  1.2641
  993MOL0     H31033   9.490   6.594  11.425  1.2806  2.1376 -1.8443
  993MOL0     H31034   9.291   6.434  11.410 -0.7539  0.6164 -0.1911
  993MOL0     H31035   9.260   6.608  11.393  3.2439  3.0703  0.3086
  993MOL0     H31036   9.292   6.433  11.140 -2.2963 -0.9884  0.1369
  993MOL0     H31037   9.248   6.594  11.149 -0.7828  1.6068  3.0459
  993MOL0     H31038   9.118   6.743  11.251 -0.9528  1.0200 -1.9388
  993MOL0     H31039   8.933   6.869  11.293  1.8748  0.5737  2.5204
  993MOL0     H31040   8.440   6.906  11.395 -1.9822  0.4227  2.4873
  993MOL0     H31041   8.272   7.099  11.410  0.0369  0.3344 -2.7238
  993MOL0     H31042   8.454   7.505  11.403  2.9885 -1.6837  1.3638
  993MOL0     H31043   8.440   7.465  11.584 -1.0140  0.4303  0.9529
  993MOL0     H31044   8.213   7.543  11.589 -0.1828 -1.9008 -0.1465
  993MOL0     H31045   8.201   7.523  11.419  0.2360 -0.2826  0.0156
  993MOL0     H31046   8.375   7.715  11.402 -1.6095 -2.9821 -0.8869
  993MOL0     H31047   8.333   7.749  11.567 -2.1664 -1.6532  0.9008
  993MOL0     H31048   8.216   7.868  11.372 -1.2141 -0.3054 -1.6712
  993MOL0     H31049   8.129   7.720  11.337 -0.7624 -0.4809  1.0620
  993MOL0     H31050   8.128   7.870  11.612  1.2274 -2.3565  0.9017
  993MOL0     H31051   8.013   7.744  11.568  0.3237 -1.6301 -0.5456
  993MOL0     H31052   7.949   7.864  11.371  1.6921 -1.0728  0.1289
  993MOL0     H31053   8.040   8.007  11.422  0.1972  0.4765 -0.8172
  993MOL0     H31054   7.772   8.021  11.482 -0.0717  0.6735  0.4830
  993MOL0     H31055   7.809   7.895  11.595 -2.5995  3.3693  3.3520
  993MOL0     H31056   7.984   8.072  11.690  0.6519 -0.3277  0.1520
  993MOL0     H31057   7.810   8.114  11.699  0.3023 -0.6934 -0.1047
  993MOL0     H31058   8.615   7.355  11.413 -0.2838  1.0553 -2.0039
  993MOL0     H31059   8.755   7.187  11.379  0.9716 -2.0218 -0.6833
  993MOL0     H31060   8.684   6.500  11.300 -0.4329 -0.7586 -0.0854
  993MOL0     H31061   8.873   6.381  11.248 -0.9047  0.8979 -0.2212
  993MOL0     H31062  10.654   7.287  11.892  1.6691  1.0598  0.2594
  993MOL0     H31063  10.660   7.524  11.792 -2.3506 -0.0854  0.1339
  993MOL0     H31064  11.023   7.792  11.334  0.5651 -1.1331  0.3760
  993MOL0     H31065  11.073   8.038  11.353  1.8207 -0.9890  1.7480
  993MOL0     H31066  10.827   8.257  11.664 -1.2745  0.7618  1.0088
  993MOL0     H31067  10.756   8.281  11.500 -1.0796  3.6567  0.2360
  993MOL0     H31068  10.889   8.480  11.484  0.8447  0.4402 -0.4359
  993MOL0     H31069  10.796   8.477  11.633  0.8010  0.9824 -1.3173
  993MOL0     H31070  11.089   8.417  11.591  0.5083 -0.8993  0.9833
  993MOL0     H31071  11.018   8.418  11.757 -2.4044  3.3025  1.6835
  993MOL0     H31072  11.001   8.668  11.581  1.7505  3.2497 -0.0589
  993MOL0     H31073  10.967   8.656  11.745 -0.9930 -1.0303 -1.5630
  993MOL0     H31074  11.402   8.689  11.716  0.2813  1.1021  4.0463
  993MOL0     H31075  10.771   8.058  11.650 -0.9715 -0.3220  0.4458
  993MOL0     H31076  10.718   7.831  11.626  2.0167 -0.8160  2.3133
  994MOL0     O31077   3.688   2.164   5.108 -0.1341 -0.6014 -0.0052
  994MOL0     C31078   3.808   2.161   5.119 -0.4153 -0.0955  0.3630
  994MOL0     O31079   3.897   2.201   5.021  0.2281 -0.2860  0.2056
  994MOL0     C31080   3.861   2.283   4.921 -0.1098  0.1783 -0.2132
  994MOL0     C31081   3.763   2.265   4.822 -0.1358  0.6993 -0.2025
  994MOL0     C31082   3.745   2.371   4.740  0.1271 -0.0509  0.6127
  994MOL0     C31083   3.810   2.494   4.756  0.7293  0.6737 -0.1962
  994MOL0     O31084   3.779   2.599   4.682  0.0486 -0.9565 -0.0644
  994MOL0     C31085   3.814   2.607   4.547 -0.2852  0.1754 -0.2448
  994MOL0     C31086   3.693   2.649   4.456 -0.0897  0.0459 -1.1113
  994MOL0     C31087   3.742   2.696   4.320 -0.6642  1.1530 -0.0896
  994MOL0     C31088   3.640   2.765   4.231  0.1671 -0.2399 -0.3739
  994MOL0     C31089   3.674   2.802   4.089 -0.2877  0.4270 -0.1856
  994MOL0     C31090   3.815   2.850   4.046 -0.4528  0.5691 -0.9175
  994MOL0     C31091   3.867   2.979   4.111 -0.4626  0.2630  0.6148
  994MOL0     C31092   3.852   3.114   4.033  0.0711  0.1395  0.4559
  994MOL0     N31093   3.957   3.203   4.075 -0.3774  1.3293  0.2542
  994MOL0     C31094   3.964   3.256   4.197  0.5903  0.2174  1.0690
  994MOL0     C31095   4.085   3.317   4.188 -0.2800  0.8005  0.7981
  994MOL0     C31096   4.154   3.372   4.301  0.3111 -0.5405  0.6152
  994MOL0     C31097   4.223   3.514   4.275  0.9991  0.0138 -0.5104
  994MOL0     C31098   4.135   3.611   4.199  0.2083  0.0224 -0.5544
  994MOL0     C31099   3.981   3.631   4.229  0.1062  0.1885  0.9654
  994MOL0     O31100   3.957   3.648   4.363 -0.1527 -0.4340 -0.1325
  994MOL0     C31101   3.835   3.623   4.418 -1.0480  0.0189 -0.0607
  994MOL0     C31102   3.827   3.666   4.549  0.2632 -1.0073  0.4404
  994MOL0     C31103   3.712   3.639   4.626 -0.5030  0.9094  0.4339
  994MOL0     C31104   3.613   3.555   4.578  0.1856 -0.8157  0.1296
  994MOL0     C31105   3.501   3.510   4.663  0.4900  0.8049 -0.6058
  994MOL0     O31106   3.509   3.515   4.801  1.3636 -0.2427 -0.7326
  994MOL0     C31107   3.399   3.502   4.885  0.3820  0.4199  0.0742
  994MOL0     C31108   3.274   3.552   4.842 -0.1893  0.2470  0.0909
  994MOL0     C31109   3.170   3.535   4.934 -0.0588  0.0063 -0.2203
  994MOL0     C31110   3.176   3.482   5.065  0.1269  0.5795 -0.2281
  994MOL0     O31111   3.067   3.465   5.143  0.1021 -0.4147  0.0583
  994MOL0     C31112   2.978   3.366   5.103 -0.8067  0.7942  0.9816
  994MOL0     C31113   2.872   3.322   5.204 -0.5072  0.0606  0.4330
  994MOL0     C31114   2.792   3.441   5.248  0.4412  0.5155  0.1611
  994MOL0     C31115   2.735   3.448   5.381  0.0915 -1.3006 -0.5506
  994MOL0     C31116   2.626   3.342   5.409 -0.3475 -0.0839 -0.2824
  994MOL0     C31117   2.560   3.337   5.540  0.1412 -1.1094 -0.9462
  994MOL0     C31118   2.461   3.445   5.556  0.5503 -0.5150  0.0571
  994MOL0     C31119   2.333   3.408   5.494  1.0037  0.2500 -0.7372
  994MOL0    Cl31120   2.298   3.519   5.361 -0.1965  0.2911 -0.1288
  994MOL0     C31121   3.301   3.432   5.100 -0.5255  0.6368 -0.6523
  994MOL0     C31122   3.409   3.448   5.012  0.4498 -0.1587  0.5484
  994MOL0     O31123   3.418   3.445   4.602  0.8847  0.0976 -0.9103
  994MOL0     C31124   3.624   3.514   4.443  0.6043 -0.2516 -0.3208
  994MOL0     C31125   3.729   3.549   4.366 -0.2494 -1.3346  0.1525
  994MOL0     N31126   4.142   3.302   4.062 -0.0003  0.1461 -0.2109
  994MOL0     N31127   4.064   3.235   3.998  0.4566  0.6189 -0.1853
  994MOL0     C31128   3.896   2.512   4.863  0.4130 -0.6246  0.1534
  994MOL0     C31129   3.924   2.404   4.941  0.0894 -0.2404 -0.1957
  994MOL0     C31130   3.864   2.102   5.243  0.7210 -0.0638 -1.0078
  994MOL0     C31131   3.784   2.022   5.327  1.0550  0.0618  0.4580
  994MOL0     C31132   3.827   1.972   5.448 -0.6820  0.3834  0.2723
  994MOL0     C31133   3.962   1.984   5.488  0.6065 -0.0154 -0.3613
  994MOL0     O31134   3.996   1.936   5.613 -0.4724 -0.4402 -0.2489
  994MOL0     C31135   4.126   1.981   5.662  0.2478 -0.0918  0.2805
  994MOL0     C31136   4.107   2.121   5.723 -0.2284 -0.2928  0.0168
  994MOL0     C31137   4.241   2.191   5.751 -0.8800 -0.8051 -0.6124
  994MOL0     C31138   4.215   2.331   5.808  0.6015  0.6170 -0.5236
  994MOL0     C31139   4.132   2.334   5.931 -0.6959 -1.3073 -0.5166
  994MOL0     C31140   4.074   2.328   6.033  0.2794 -0.1841 -0.7146
  994MOL0     C31141   4.051   2.054   5.402 -0.0196 -0.8339 -0.1631
  994MOL0     C31142   3.998   2.110   5.284  0.1216  0.0636  0.0347
  994MOL0     H31143   3.718   2.167   4.804  3.5861 -1.0299 -1.0029
  994MOL0     H31144   3.680   2.350   4.656  3.4743  0.2178 -2.2678
  994MOL0     H31145   3.848   2.509   4.514 -2.1525 -0.2824 -0.8884
  994MOL0     H31146   3.894   2.679   4.527 -1.2904  1.9726  1.7781
  994MOL0     H31147   3.638   2.739   4.485 -1.5151 -1.0476 -0.3006
  994MOL0     H31148   3.619   2.568   4.450 -0.7144  0.6988 -2.6431
  994MOL0     H31149   3.780   2.607   4.269  0.7099  1.5185  0.2457
  994MOL0     H31150   3.833   2.756   4.313 -0.2620  0.5924  0.3057
  994MOL0     H31151   3.551   2.702   4.233  1.4527 -2.1571 -0.9395
  994MOL0     H31152   3.621   2.861   4.281  0.5239  0.7688 -2.0897
  994MOL0     H31153   3.595   2.873   4.063  0.5376  1.5152  0.2224
  994MOL0     H31154   3.641   2.720   4.025 -2.3944  0.3388  0.9264
  994MOL0     H31155   3.818   2.863   3.937  1.8576 -2.4464 -1.3469
  994MOL0     H31156   3.890   2.773   4.063 -0.4468  0.5833 -0.8801
  994MOL0     H31157   3.831   2.988   4.214  1.8498 -0.5431  1.5618
  994MOL0     H31158   3.973   2.953   4.108 -0.8203 -1.2280  0.5083
  994MOL0     H31159   3.753   3.151   4.060 -0.5601 -2.7698  2.7730
  994MOL0     H31160   3.852   3.091   3.926  2.1174  1.9555 -0.0048
  994MOL0     H31161   3.899   3.252   4.284 -0.5402  3.8946  0.5717
  994MOL0     H31162   4.232   3.298   4.323  2.1355  1.4890  1.3414
  994MOL0     H31163   4.088   3.376   4.388  0.1363 -1.6996  0.5424
  994MOL0     H31164   4.310   3.488   4.213 -0.2385 -3.2460 -1.1189
  994MOL0     H31165   4.256   3.559   4.369  1.2540  1.4709 -1.2678
  994MOL0     H31166   4.183   3.709   4.205 -1.8733  1.0716  0.0523
  994MOL0     H31167   4.137   3.568   4.098  0.6527 -2.0549  0.3032
  994MOL0     H31168   3.929   3.541   4.193 -0.5241  0.1492  1.9355
  994MOL0     H31169   3.938   3.702   4.158 -1.3904 -0.5438  1.0834
  994MOL0     H31170   3.905   3.731   4.587  0.5558  0.3828 -2.2661
  994MOL0     H31171   3.700   3.670   4.729  0.8665 -1.0555  1.2380
  994MOL0     H31172   3.252   3.588   4.742  0.5427 -1.5503 -0.7516
  994MOL0     H31173   3.066   3.544   4.906 -0.0077  2.0826  0.1076
  994MOL0     H31174   3.036   3.281   5.066 -1.8629  1.0825 -1.5493
  994MOL0     H31175   2.931   3.411   5.015  3.2070  2.5907 -0.4882
  994MOL0     H31176   2.924   3.276   5.289 -0.7994  0.1473  0.6601
  994MOL0     H31177   2.801   3.252   5.159 -2.1003  2.1158 -0.4155
  994MOL0     H31178   2.716   3.435   5.170  1.9789 -3.0726 -1.2798
  994MOL0     H31179   2.852   3.532   5.247  1.9204 -0.4061 -2.5184
  994MOL0     H31180   2.805   3.456   5.465 -2.3200  0.1528  1.4761
  994MOL0     H31181   2.678   3.542   5.388  1.0803 -0.3651 -3.6767
  994MOL0     H31182   2.680   3.248   5.404  1.3224  0.7690  0.8527
  994MOL0     H31183   2.548   3.345   5.332 -1.8499 -1.4763  1.1238
  994MOL0     H31184   2.633   3.337   5.622 -1.5662 -1.5286  0.6383
  994MOL0     H31185   2.511   3.240   5.557  2.3452 -2.5502 -2.2744
  994MOL0     H31186   2.444   3.456   5.663  1.4632  1.5323  0.0443
  994MOL0     H31187   2.501   3.544   5.532  1.0605 -1.0957 -1.6806
  994MOL0     H31188   2.257   3.430   5.571  2.5954  1.9856  0.4369
  994MOL0     H31189   2.324   3.307   5.453  1.6781 -0.3382  0.5073
  994MOL0     H31190   3.313   3.384   5.197 -3.4983  2.2438  0.6649
  994MOL0     H31191   3.512   3.421   5.032  0.0484 -0.6848  2.0365
  994MOL0     H31192   3.551   3.445   4.402  0.9761 -0.5385 -0.5020
  994MOL0     H31193   3.733   3.512   4.264 -0.2687  0.9938 -0.7600
  994MOL0     H31194   3.929   2.615   4.867 -0.5128 -0.2333 -1.3332
  994MOL0     H31195   3.997   2.413   5.021  0.8664  1.1513 -1.0251
  994MOL0     H31196   3.680   2.005   5.302  1.3948  0.4814 -1.3740
  994MOL0     H31197   3.764   1.903   5.503 -1.1531 -0.5993 -1.4119
  994MOL0     H31198   4.208   1.984   5.590  0.5802 -1.0363  0.6103
  994MOL0     H31199   4.151   1.900   5.732 -0.4324 -1.5655 -1.1131
  994MOL0     H31200   4.050   2.179   5.650 -0.9937  0.4607  1.1718
  994MOL0     H31201   4.045   2.108   5.812  0.7178  2.7189  1.2396
  994MOL0     H31202   4.303   2.189   5.660 -1.4709 -4.3645 -1.0948
  994MOL0     H31203   4.287   2.129   5.829 -1.4972 -1.9555 -1.1375
  994MOL0     H31204   4.313   2.366   5.843  1.6005 -0.2092 -2.3523
  994MOL0     H31205   4.184   2.403   5.732  0.1735  0.7393 -0.2383
  994MOL0     H31206   4.043   2.306   6.133  1.8037  0.4048 -0.0864
  994MOL0     H31207   4.158   2.052   5.422 -0.4041 -1.8311  2.1349
  994MOL0     H31208   4.067   2.163   5.218  0.6228  0.5183  0.8976
  995MOL0     O31209   4.798   0.865   9.540 -0.5601  0.2569 -0.0422
  995MOL0     C31210   4.774   0.746   9.573 -0.4681  0.3507 -0.2176
  995MOL0     O31211   4.873   0.649   9.605 -0.2104 -0.1134 -0.0180
  995MOL0     C31212   5.008   0.649   9.567  0.0707 -0.4297 -0.7853
  995MOL0     C31213   5.079   0.697   9.454 -0.1543  0.2224 -0.0262
  995MOL0     C31214   5.216   0.667   9.423 -0.1523 -0.7619  0.4989
  995MOL0     C31215   5.283   0.580   9.519  0.1727  0.6595 -0.5046
  995MOL0     O31216   5.413   0.536   9.488 -0.2545 -0.3555 -0.3194
  995MOL0     C31217   5.473   0.434   9.570 -0.0033 -1.2160  0.9959
  995MOL0     C31218   5.601   0.392   9.497 -0.3130  1.2105  0.1389
  995MOL0     C31219   5.676   0.290   9.583  0.0068  0.0587 -0.4147
  995MOL0     C31220   5.819   0.258   9.530  0.6796 -0.1033  0.7908
  995MOL0     C31221   5.913   0.196   9.629 -0.1418 -0.0668 -0.3684
  995MOL0     C31222   5.857   0.059   9.668 -0.6301  1.1620 -0.6284
  995MOL0     C31223   5.970  -0.043   9.674 -0.6012  0.7281 -0.0842
  995MOL0     C31224   6.076   0.001   9.772  0.4097 -0.3810 -0.1441
  995MOL0     N31225   6.028   0.011   9.914  0.1536 -0.1330 -0.0767
  995MOL0     C31226   5.995  -0.080  10.002  0.5571  0.4944  0.0251
  995MOL0     C31227   5.932  -0.027  10.109  0.4347 -0.0717 -0.1774
  995MOL0     C31228   5.876  -0.105  10.225 -0.2218 -0.8872 -0.8022
  995MOL0     C31229   5.973  -0.217  10.271 -0.4445 -0.2303  1.1757
  995MOL0     C31230   5.929  -0.278  10.406  0.8713 -0.2709 -0.9529
  995MOL0     C31231   6.024  -0.392  10.472  0.5661 -0.6444  0.7438
  995MOL0     O31232   6.039  -0.508  10.379 -0.3300  0.3007 -0.4763
  995MOL0     C31233   6.088  -0.622  10.431  0.1136 -0.1973 -1.4154
  995MOL0     C31234   6.066  -0.737  10.361  0.2433 -0.5259  1.2707
  995MOL0     C31235   6.086  -0.859  10.415 -0.2113 -0.2574  0.8101
  995MOL0     C31236   6.135  -0.877  10.545  0.4598 -0.4524  0.5263
  995MOL0     C31237   6.141  -1.022  10.597  0.2891  0.1986  0.3928
  995MOL0     O31238   6.176  -1.032  10.736 -0.1599 -0.5690 -0.1163
  995MOL0     C31239   6.177  -1.155  10.800 -0.0810 -0.3928  0.2857
  995MOL0     C31240   6.090  -1.265  10.756  0.2609 -0.4729 -0.0578
  995MOL0     C31241   6.087  -1.379  10.818  0.0660  0.4397 -0.5465
  995MOL0     C31242   6.171  -1.414  10.923  0.2748 -0.4680 -0.1461
  995MOL0     O31243   6.161  -1.540  10.972 -0.3368 -0.2629  0.5441
  995MOL0     C31244   6.236  -1.646  10.911 -0.3828 -0.2801  0.2339
  995MOL0     C31245   6.222  -1.779  10.976 -0.2781  0.3741  0.0655
  995MOL0     C31246   6.242  -1.900  10.875 -0.0434 -0.2932  0.5932
  995MOL0     C31247   6.231  -2.027  10.949 -0.5569  1.3279  0.5695
  995MOL0     C31248   6.214  -2.146  10.848  0.6586  0.6205 -0.0988
  995MOL0     C31249   6.327  -2.174  10.748 -0.2150 -1.0014 -0.1666
  995MOL0     C31250   6.314  -2.305  10.681 -0.4683 -0.2909  0.8603
  995MOL0     C31251   6.198  -2.292  10.570 -0.2717  0.5076  0.4780
  995MOL0    Cl31252   6.190  -2.456  10.496 -0.3580 -0.0865  0.0680
  995MOL0     C31253   6.272  -1.318  10.959 -0.4284 -0.5211  0.3945
  995MOL0     C31254   6.274  -1.195  10.900 -0.0811  0.1034  0.3709
  995MOL0     O31255   6.155  -1.118  10.518 -0.3808 -0.1418  0.4931
  995MOL0     C31256   6.171  -0.761  10.620 -0.1962  0.9734  0.3548
  995MOL0     C31257   6.141  -0.637  10.561  0.5796  0.3269 -0.6639
  995MOL0     N31258   5.955   0.110  10.087  0.2476  0.1472  0.2658
  995MOL0     N31259   6.011   0.127   9.970 -0.6932  1.0134 -0.8246
  995MOL0     C31260   5.215   0.532   9.634 -0.6521  0.2181  0.4096
  995MOL0     C31261   5.080   0.569   9.659 -0.1783  0.0061 -0.0268
  995MOL0     C31262   4.634   0.707   9.579 -0.6105 -1.1880  0.4878
  995MOL0     C31263   4.588   0.601   9.663 -1.1400 -0.1908 -0.4566
  995MOL0     C31264   4.455   0.562   9.664 -1.0904 -0.3989 -0.8938
  995MOL0     C31265   4.358   0.641   9.600 -0.2891 -0.7537  0.1844
  995MOL0     O31266   4.229   0.617   9.616 -0.0106 -0.0826 -0.5145
  995MOL0     C31267   4.163   0.677   9.725  0.2213  1.0827 -0.3498
  995MOL0     C31268   4.014   0.652   9.712  0.4812  0.0993 -0.3449
  995MOL0     C31269   3.933   0.697   9.839 -0.1865  0.6446  0.8668
  995MOL0     C31270   3.787   0.674   9.799  0.5988 -0.3540 -1.0998
  995MOL0     C31271   3.698   0.707   9.912  0.3795 -0.5053  0.4147
  995MOL0     C31272   3.624   0.720  10.016  0.4197 -0.5993  0.1904
  995MOL0     C31273   4.402   0.739   9.507 -0.1683  0.0230  0.0744
  995MOL0     C31274   4.540   0.776   9.501  0.4140 -0.2904 -0.0177
  995MOL0     H31275   5.031   0.778   9.398 -0.6391  0.9108  1.3380
  995MOL0     H31276   5.275   0.711   9.344 -1.1774  1.3117  0.8411
  995MOL0     H31277   5.405   0.349   9.584  0.1701 -0.9009  4.7071
  995MOL0     H31278   5.503   0.466   9.670  1.7081 -2.8241  1.0605
  995MOL0     H31279   5.667   0.476   9.476  0.3452  1.0713  1.5652
  995MOL0     H31280   5.577   0.350   9.399 -2.2526 -2.0463  1.8399
  995MOL0     H31281   5.633   0.190   9.594  1.9781 -0.9954 -1.7853
  995MOL0     H31282   5.676   0.327   9.686 -1.1941  0.2544 -0.4701
  995MOL0     H31283   5.806   0.209   9.433  0.2180  3.9761 -1.4170
  995MOL0     H31284   5.865   0.355   9.510  1.6974 -0.6853  0.2053
  995MOL0     H31285   5.930   0.264   9.713 -1.0748 -1.5068  1.0600
  995MOL0     H31286   6.003   0.176   9.570  0.0447  0.2954 -0.2121
  995MOL0     H31287   5.780   0.025   9.598 -1.4735  0.1401  0.7604
  995MOL0     H31288   5.809   0.076   9.764  1.9592 -2.6135  1.5911
  995MOL0     H31289   5.925  -0.138   9.701  0.9088 -0.1599 -0.5639
  995MOL0     H31290   6.012  -0.064   9.575  0.0367 -0.4664  0.4140
  995MOL0     H31291   6.114   0.100   9.747  0.3658  0.3804  2.5448
  995MOL0     H31292   6.160  -0.069   9.763  1.0103  0.5370 -2.3891
  995MOL0     H31293   5.991  -0.183   9.967  0.2550  1.3218 -2.6501
  995MOL0     H31294   5.769  -0.129  10.216 -0.7405  1.4105 -1.2989
  995MOL0     H31295   5.878  -0.033  10.307  1.1408 -1.3164 -0.4383
  995MOL0     H31296   6.077  -0.184  10.266  1.1331 -4.5468  0.9025
  995MOL0     H31297   5.969  -0.304  10.205 -0.9431 -0.4773  1.5231
  995MOL0     H31298   5.937  -0.196  10.477 -1.3661 -0.5314 -0.3416
  995MOL0     H31299   5.823  -0.305  10.402  1.0783 -1.2841 -0.1425
  995MOL0     H31300   5.966  -0.422  10.559 -2.7507  0.5771 -0.8424
  995MOL0     H31301   6.121  -0.350  10.501 -0.3211  3.0116 -0.9496
  995MOL0     H31302   5.999  -0.730  10.276 -1.9303 -1.0492  2.8461
  995MOL0     H31303   6.053  -0.942  10.353  1.6768  0.1963 -0.9121
  995MOL0     H31304   6.028  -1.250  10.668  0.3301 -0.0055 -0.0293
  995MOL0     H31305   6.004  -1.442  10.788 -0.3316  0.5146  0.3845
  995MOL0     H31306   6.341  -1.617  10.901 -0.5709  1.3181  2.2580
  995MOL0     H31307   6.189  -1.647  10.813 -1.5938 -0.5656  0.8014
  995MOL0     H31308   6.117  -1.776  11.006 -0.3414  2.9141 -0.2392
  995MOL0     H31309   6.277  -1.792  11.070 -1.1146  1.2707  0.7048
  995MOL0     H31310   6.341  -1.894  10.827  0.2055 -2.8397  0.6086
  995MOL0     H31311   6.176  -1.894  10.788 -0.0660  2.6162  0.7222
  995MOL0     H31312   6.321  -2.042  11.011  0.3584  2.4793 -0.4269
  995MOL0     H31313   6.152  -2.037  11.024  0.6344 -5.0600  1.5750
  995MOL0     H31314   6.123  -2.136  10.788  1.2410 -4.4702 -2.3738
  995MOL0     H31315   6.212  -2.237  10.909  2.1902  0.6948  0.1162
  995MOL0     H31316   6.414  -2.172  10.814 -0.6743  1.9388  0.4748
  995MOL0     H31317   6.337  -2.091  10.677  2.1831  0.0823  1.3151
  995MOL0     H31318   6.408  -2.336  10.636 -1.1938  2.2256 -2.8493
  995MOL0     H31319   6.294  -2.386  10.752 -0.4288 -1.5161 -0.4902
  995MOL0     H31320   6.233  -2.220  10.496  1.6685 -1.9612 -1.1555
  995MOL0     H31321   6.105  -2.262  10.620  0.1912  1.3782  0.8355
  995MOL0     H31322   6.342  -1.336  11.039 -0.6181 -2.5398  0.1417
  995MOL0     H31323   6.357  -1.129  10.921 -0.9491  2.2777 -2.4890
  995MOL0     H31324   6.224  -0.752  10.714  0.4065 -0.2390  0.1601
  995MOL0     H31325   6.155  -0.547  10.620 -1.5188 -0.6590  1.5759
  995MOL0     H31326   5.259   0.464   9.706  0.4233 -0.8811 -1.1935
  995MOL0     H31327   5.032   0.529   9.748 -1.7182  2.4531  0.3402
  995MOL0     H31328   4.660   0.541   9.718  1.0763  1.6288 -1.1710
  995MOL0     H31329   4.436   0.471   9.719 -0.7978 -2.4349 -3.8926
  995MOL0     H31330   4.178   0.785   9.716  0.9756  0.8765 -1.9676
  995MOL0     H31331   4.199   0.645   9.823 -2.7246  3.1583  1.5799
  995MOL0     H31332   3.973   0.700   9.622 -2.8122 -0.4565  0.6981
  995MOL0     H31333   3.997   0.544   9.714  0.3337 -0.0353  4.5582
  995MOL0     H31334   3.955   0.804   9.841  0.3092  0.5610  0.3524
  995MOL0     H31335   3.955   0.631   9.924 -0.4469 -1.5240 -0.6612
  995MOL0     H31336   3.760   0.737   9.713  2.2433  2.8838  0.5695
  995MOL0     H31337   3.765   0.570   9.776  0.3517 -0.1506 -1.8277
  995MOL0     H31338   3.567   0.753  10.100 -0.0450 -1.9992  0.4500
  995MOL0     H31339   4.325   0.799   9.460 -1.7557 -0.6393  1.7132
  995MOL0     H31340   4.578   0.858   9.441  2.5661  0.7136  2.5246
  996MOL0     O31341   4.417  11.044   8.682  0.1989 -0.0867  0.2313
  996MOL0     C31342   4.423  11.105   8.789  1.5179 -0.2389 -0.3653
  996MOL0     O31343   4.543  11.140   8.850  0.1851 -0.5043  0.2257
  996MOL0     C31344   4.665  11.096   8.793  0.1618  0.4533  0.7364
  996MOL0     C31345   4.766  11.076   8.889 -1.4286 -0.7193 -0.3192
  996MOL0     C31346   4.900  11.048   8.856  0.4489  0.6480  0.2304
  996MOL0     C31347   4.935  11.014   8.724  0.1444  0.6906 -1.0268
  996MOL0     O31348   5.064  10.956   8.710 -0.2170 -0.5535 -0.6243
  996MOL0     C31349   5.112  10.935   8.581 -0.1916  0.7865  0.4665
  996MOL0     C31350   5.262  10.977   8.579  0.5658  0.0358 -0.1066
  996MOL0     C31351   5.284  10.992   8.428 -0.3060  0.9901 -0.0039
  996MOL0     C31352   5.429  11.002   8.389 -0.6764  0.2353 -0.9576
  996MOL0     C31353   5.464  11.023   8.247  0.6260  0.2399  0.7179
  996MOL0     C31354   5.597  11.092   8.223  0.9048 -0.2395  0.1430
  996MOL0     C31355   5.729  11.036   8.275 -0.1615  0.5164 -0.2077
  996MOL0     C31356   5.780  10.928   8.184  0.1836 -0.1726  0.3018
  996MOL0     N31357   5.894  10.846   8.235  0.2556  0.1110 -0.2071
  996MOL0     C31358   6.021  10.839   8.174 -0.8016 -0.6751  0.3109
  996MOL0     C31359   6.107  10.779   8.256  0.6792 -0.1237  0.6991
  996MOL0     C31360   6.245  10.748   8.249  0.4228  0.7138 -0.0611
  996MOL0     C31361   6.280  10.660   8.120 -0.4113  0.4842  0.2386
  996MOL0     C31362   6.317  10.748   7.993 -0.1392  1.0800 -0.0183
  996MOL0     C31363   6.374  10.646   7.899  0.1076  0.1418  0.6922
  996MOL0     O31364   6.400  10.684   7.763 -0.4764 -0.0173  0.9808
  996MOL0     C31365   6.518  10.744   7.738 -0.7531 -0.4362 -0.0669
  996MOL0     C31366   6.556  10.734   7.603 -0.1778  0.1674 -0.1937
  996MOL0     C31367   6.682  10.771   7.570  0.5244  0.0499 -0.8668
  996MOL0     C31368   6.785  10.800   7.663  0.2433 -0.2208 -0.0769
  996MOL0     C31369   6.921  10.841   7.619  0.6704 -0.6919 -0.1398
  996MOL0     O31370   7.004  10.915   7.712  0.5235  0.8144 -0.0367
  996MOL0     C31371   7.133  10.912   7.678 -0.1688  0.6029  0.3911
  996MOL0     C31372   7.178  10.972   7.564 -0.5073 -0.1815 -0.8180
  996MOL0     C31373   7.305  10.962   7.517 -0.6063  0.2602  0.7617
  996MOL0     C31374   7.405  10.915   7.600 -0.4191 -0.4260  2.0226
  996MOL0     O31375   7.540  10.908   7.559  0.2390  0.3022  0.5762
  996MOL0     C31376   7.635  10.901   7.663 -0.2353 -0.5744  0.3866
  996MOL0     C31377   7.772  10.940   7.606 -0.1327 -0.6615  0.3343
  996MOL0     C31378   7.794  11.088   7.589  0.3640  1.1080 -0.6069
  996MOL0     C31379   7.936  11.105   7.542  0.5402  0.2766 -0.7784
  996MOL0     C31380   7.951  11.251   7.482 -0.6226 -0.0710  0.6792
  996MOL0     C31381   8.064  11.266   7.386  0.8968  0.4858 -0.8852
  996MOL0     C31382   8.077  11.402   7.326 -0.2615 -0.9097  0.2062
  996MOL0     C31383   8.201  11.421   7.241  0.4261  0.3446 -1.2890
  996MOL0    Cl31384   8.173  11.551   7.123 -0.2455 -0.1516  0.3386
  996MOL0     C31385   7.365  10.854   7.714  0.8878  0.8205  0.3003
  996MOL0     C31386   7.229  10.838   7.743 -0.5361  0.1117 -1.3068
  996MOL0     O31387   6.946  10.814   7.503 -0.2080 -0.6264 -0.4341
  996MOL0     C31388   6.740  10.816   7.797  0.1851 -0.7474 -0.4858
  996MOL0     C31389   6.609  10.800   7.826  0.0899  0.4475 -0.7013
  996MOL0     N31390   6.020  10.728   8.357  0.3117  0.3726  0.2133
  996MOL0     N31391   5.898  10.774   8.344 -0.6050 -0.1980 -0.5550
  996MOL0     C31392   4.837  11.030   8.629 -0.3912  0.3787 -0.1987
  996MOL0     C31393   4.706  11.068   8.662  0.0140 -0.5711 -0.1229
  996MOL0     C31394   4.302  11.153   8.867 -0.3504 -0.7760 -0.1023
  996MOL0     C31395   4.182  11.106   8.832 -0.1867 -0.0153 -0.2381
  996MOL0     C31396   4.064  11.164   8.873 -0.1115 -0.5183 -0.0206
  996MOL0     C31397   4.065  11.274   8.957  0.3600 -0.3386  0.9636
  996MOL0     O31398   3.950  11.334   8.978  0.1926 -0.4112 -0.2667
  996MOL0     C31399   3.940  11.464   9.036  0.9874  0.3781 -0.3789
  996MOL0     C31400   3.860  11.567   8.952 -0.0431  0.5820  0.1526
  996MOL0     C31401   3.707  11.562   8.976  0.0289 -0.2276  0.3754
  996MOL0     C31402   3.649  11.422   8.983 -0.5501 -0.3618 -0.4547
  996MOL0     C31403   3.506  11.430   9.024 -0.3283  0.3440  0.6126
  996MOL0     C31404   3.390  11.438   9.065  0.1031 -0.8497  0.2880
  996MOL0     C31405   4.197  11.321   8.999  0.3783 -0.0501 -0.2151
  996MOL0     C31406   4.307  11.252   8.965  0.0940 -0.4437 -0.3062
  996MOL0     H31407   4.737  11.084   8.994 -1.8628  0.6386 -0.5270
  996MOL0     H31408   4.980  11.022   8.924  1.4700 -1.1774 -1.5643
  996MOL0     H31409   5.057  10.984   8.500 -0.4263 -1.6945 -0.9784
  996MOL0     H31410   5.111  10.830   8.551 -0.2827  1.1290 -0.7670
  996MOL0     H31411   5.306  10.899   8.641 -0.4900 -0.5599 -0.0746
  996MOL0     H31412   5.270  11.076   8.626 -3.5486  1.2021 -1.4475
  996MOL0     H31413   5.249  11.085   8.382 -0.0130  0.0608 -2.2487
  996MOL0     H31414   5.258  10.900   8.375  0.8252 -1.2749  3.0350
  996MOL0     H31415   5.468  11.083   8.451 -1.2739  0.1915 -0.5052
  996MOL0     H31416   5.478  10.909   8.417 -1.6456 -0.3385 -1.1152
  996MOL0     H31417   5.381  11.083   8.208 -0.0992 -2.8614 -3.1496
  996MOL0     H31418   5.474  10.928   8.194  3.1430 -1.1281  3.3719
  996MOL0     H31419   5.591  11.190   8.272  0.7686 -1.2860  2.2933
  996MOL0     H31420   5.600  11.099   8.114 -4.4231 -1.0216 -0.3361
  996MOL0     H31421   5.803  11.117   8.277  1.0284 -0.5031  2.5235
  996MOL0     H31422   5.737  11.005   8.380 -1.1278  0.6185 -0.0986
  996MOL0     H31423   5.809  10.978   8.091  1.0251  0.8410  1.0866
  996MOL0     H31424   5.690  10.867   8.185  0.8805 -1.2404 -0.0287
  996MOL0     H31425   6.052  10.877   8.077  0.4201  1.7443  1.5796
  996MOL0     H31426   6.280  10.690   8.335 -0.8898 -0.5575 -0.3363
  996MOL0     H31427   6.296  10.844   8.240  0.1805  0.6616 -5.5656
  996MOL0     H31428   6.197  10.593   8.094  0.6771 -2.3526  3.4228
  996MOL0     H31429   6.363  10.592   8.140 -0.3874  0.1851 -0.8014
  996MOL0     H31430   6.228  10.790   7.944  1.5718  2.0295 -2.5140
  996MOL0     H31431   6.384  10.830   8.022  2.4628 -1.2410  0.9686
  996MOL0     H31432   6.300  10.567   7.886 -0.1507  0.5615 -0.4486
  996MOL0     H31433   6.463  10.602   7.946 -1.7250 -3.7660  0.8929
  996MOL0     H31434   6.482  10.698   7.532 -2.0810  1.1467  1.1907
  996MOL0     H31435   6.703  10.772   7.464  1.8433  1.2682 -0.6311
  996MOL0     H31436   7.102  11.027   7.510 -0.4902  2.4781  1.6314
  996MOL0     H31437   7.311  11.005   7.417 -0.9215  0.5327  0.8581
  996MOL0     H31438   7.639  10.798   7.700  2.1782 -1.5731 -2.3273
  996MOL0     H31439   7.611  10.985   7.729  1.6069  2.5555 -2.6128
  996MOL0     H31440   7.784  10.897   7.507 -0.2818 -0.6836  0.3255
  996MOL0     H31441   7.853  10.900   7.667 -1.0195 -0.9557  1.3412
  996MOL0     H31442   7.777  11.130   7.689  1.5561 -1.4885  0.7900
  996MOL0     H31443   7.718  11.127   7.521  0.2620  1.1457 -0.4731
  996MOL0     H31444   8.014  11.105   7.618  0.8752  2.2395 -1.0721
  996MOL0     H31445   7.963  11.031   7.466 -1.4640 -0.3603 -0.9248
  996MOL0     H31446   7.975  11.322   7.562  3.3617 -0.3656 -0.0475
  996MOL0     H31447   7.859  11.280   7.429 -1.1556 -1.0523  1.0358
  996MOL0     H31448   8.044  11.195   7.304  2.5227 -3.0960  1.5578
  996MOL0     H31449   8.157  11.233   7.434 -1.2498 -4.0589  0.7497
  996MOL0     H31450   7.986  11.428   7.271 -0.8450 -0.1134  1.4938
  996MOL0     H31451   8.077  11.474   7.408  0.3165  1.4360 -1.7392
  996MOL0     H31452   8.232  11.330   7.189  0.0396  0.3499 -1.5315
  996MOL0     H31453   8.277  11.457   7.312 -0.7150  0.8258 -0.2677
  996MOL0     H31454   7.437  10.815   7.786 -1.6638 -3.6967  0.7522
  996MOL0     H31455   7.203  10.765   7.819  0.2230 -0.0879 -1.2231
  996MOL0     H31456   6.810  10.863   7.866 -0.3284  0.6157 -0.8648
  996MOL0     H31457   6.585  10.812   7.931  1.5220  3.1002 -0.5917
  996MOL0     H31458   4.855  11.017   8.523  4.0928  4.7024 -0.3046
  996MOL0     H31459   4.643  11.084   8.576  0.7037 -1.6312 -0.8467
  996MOL0     H31460   4.175  11.025   8.760 -3.4860  1.1743 -1.4538
  996MOL0     H31461   3.968  11.127   8.836  1.3957 -2.0618 -2.6811
  996MOL0     H31462   4.039  11.501   9.064  0.6667  1.2565 -0.3713
  996MOL0     H31463   3.887  11.462   9.132  1.0472  1.0502 -0.3292
  996MOL0     H31464   3.904  11.665   8.972  1.0538  0.4229 -1.3772
  996MOL0     H31465   3.883  11.549   8.847 -0.8335 -0.0867  0.0825
  996MOL0     H31466   3.661  11.608   8.888  1.0182  1.2387  0.5868
  996MOL0     H31467   3.684  11.620   9.065 -0.3047 -1.0954  0.8662
  996MOL0     H31468   3.661  11.367   8.889 -3.0418  2.9462 -2.9455
  996MOL0     H31469   3.691  11.369   9.069  1.4572 -2.2775 -2.4630
  996MOL0     H31470   3.293  11.449   9.109  1.1174  0.9881  2.3243
  996MOL0     H31471   4.199  11.397   9.076 -3.5685  1.8824 -1.7738
  996MOL0     H31472   4.404  11.288   8.999 -0.1373  1.4784 -1.5181
  997MOL0     O31473   3.315   1.966   7.258 -0.4319 -0.9879 -0.5391
  997MOL0     C31474   3.314   1.905   7.367  0.5530  0.2516 -0.0577
  997MOL0     O31475   3.314   1.762   7.383  0.4171 -0.6613  0.1144
  997MOL0     C31476   3.308   1.678   7.272  0.4452 -0.9936 -0.9575
  997MOL0     C31477   3.186   1.634   7.220 -1.2342 -0.8385 -0.1489
  997MOL0     C31478   3.183   1.544   7.110 -0.3393  1.1310  0.0550
  997MOL0     C31479   3.300   1.483   7.068  0.0732 -0.0533  0.6175
  997MOL0     O31480   3.276   1.380   6.977 -0.4644  0.0516 -0.2421
  997MOL0     C31481   3.388   1.290   6.952  0.4771  0.0070 -0.8040
  997MOL0     C31482   3.361   1.233   6.812  0.6005  1.0686  0.1976
  997MOL0     C31483   3.395   1.340   6.714 -0.2449  0.5868  0.8203
  997MOL0     C31484   3.431   1.276   6.581 -0.0147 -0.5972  0.5493
  997MOL0     C31485   3.474   1.376   6.474  0.1393  0.6822  0.8170
  997MOL0     C31486   3.616   1.437   6.505 -0.9457  0.6763  0.7942
  997MOL0     C31487   3.721   1.346   6.441  0.8084 -0.1511  0.1449
  997MOL0     C31488   3.861   1.399   6.450 -0.2028 -0.2202 -0.0453
  997MOL0     N31489   3.888   1.532   6.392  0.0099 -0.4650 -0.3419
  997MOL0     C31490   3.846   1.591   6.275 -1.3998 -0.1625 -0.4610
  997MOL0     C31491   3.929   1.692   6.249  0.2930 -0.3790  0.8882
  997MOL0     C31492   3.918   1.799   6.139 -0.3322  0.5225 -0.3079
  997MOL0     C31493   3.846   1.755   6.019 -0.8846 -0.8459  1.1168
  997MOL0     C31494   3.834   1.881   5.915  0.7742 -0.2545 -0.2790
  997MOL0     C31495   3.752   1.852   5.791 -0.3189  0.0758 -0.3086
  997MOL0     O31496   3.622   1.800   5.836 -0.2358 -0.3397 -0.3857
  997MOL0     C31497   3.559   1.745   5.732  0.6385  0.6099  0.6363
  997MOL0     C31498   3.606   1.632   5.666  0.2878  0.5297  0.9811
  997MOL0     C31499   3.536   1.571   5.566  0.8301 -0.2785  0.4466
  997MOL0     C31500   3.413   1.627   5.520 -0.5734 -0.4808  0.0857
  997MOL0     C31501   3.326   1.568   5.413 -0.8299 -0.0923 -0.8103
  997MOL0     O31502   3.232   1.645   5.361 -0.2159 -0.3621  0.6518
  997MOL0     C31503   3.152   1.593   5.259  0.3142 -0.5337  0.1096
  997MOL0     C31504   3.215   1.591   5.139 -0.1020  0.0105  0.7788
  997MOL0     C31505   3.167   1.518   5.027 -0.5841 -0.3434  0.0166
  997MOL0     C31506   3.047   1.449   5.053 -0.2287  0.7672  0.8656
  997MOL0     O31507   3.008   1.366   4.948  0.2256 -0.5850 -0.3243
  997MOL0     C31508   2.882   1.296   4.954 -0.5693 -1.3463 -0.3338
  997MOL0     C31509   2.849   1.262   4.807  0.2362  0.4758 -0.6918
  997MOL0     C31510   2.796   1.375   4.722 -0.4367 -0.4083  0.3018
  997MOL0     C31511   2.772   1.335   4.570 -1.0123  0.6080  0.8830
  997MOL0     C31512   2.706   1.446   4.486 -0.5925 -0.1189  0.1305
  997MOL0     C31513   2.692   1.397   4.347 -0.1420 -0.4564 -0.5445
  997MOL0     C31514   2.598   1.486   4.277 -0.0709  0.4319  0.7189
  997MOL0     C31515   2.639   1.625   4.278 -0.2528 -0.3260  0.1854
  997MOL0    Cl31516   2.561   1.728   4.152  0.3587  0.2216  0.3263
  997MOL0     C31517   2.973   1.459   5.173  0.1586 -0.0026 -0.0251
  997MOL0     C31518   3.029   1.533   5.276 -0.2975 -0.6600 -0.1133
  997MOL0     O31519   3.346   1.443   5.392  0.9195  0.1219  0.5531
  997MOL0     C31520   3.357   1.740   5.583  0.1566 -0.2320  1.0213
  997MOL0     C31521   3.430   1.801   5.688 -0.9778 -1.0369  0.0489
  997MOL0     N31522   4.025   1.695   6.341 -0.4751 -0.4142 -0.3154
  997MOL0     N31523   3.994   1.600   6.435 -0.4408 -1.5120 -0.5028
  997MOL0     C31524   3.426   1.541   7.111 -0.1756  0.6352 -0.8709
  997MOL0     C31525   3.428   1.635   7.214  0.5404 -0.3837 -0.9616
  997MOL0     C31526   3.338   1.979   7.498 -0.5441  0.8010 -0.3516
  997MOL0     C31527   3.332   2.116   7.516 -0.9546 -0.2605  0.3598
  997MOL0     C31528   3.346   2.173   7.641  0.1810 -0.2851 -1.1152
  997MOL0     C31529   3.353   2.099   7.752 -0.4645  0.2384 -0.7968
  997MOL0     O31530   3.373   2.173   7.872 -0.1004 -0.4310  0.5542
  997MOL0     C31531   3.492   2.147   7.959  0.1977  0.7308 -0.5260
  997MOL0     C31532   3.619   2.160   7.865  0.1551 -0.1975  0.2347
  997MOL0     C31533   3.739   2.202   7.954  0.0591  0.0967 -0.0409
  997MOL0     C31534   3.758   2.135   8.086  0.1816  0.5149 -1.0425
  997MOL0     C31535   3.783   1.991   8.076  0.0564 -0.3079 -0.9970
  997MOL0     C31536   3.799   1.873   8.082  0.1084  0.0459 -0.3153
  997MOL0     C31537   3.359   1.961   7.747 -0.0225  0.0032  0.0735
  997MOL0     C31538   3.351   1.901   7.617 -0.7253 -0.2223 -0.6764
  997MOL0     H31539   3.105   1.682   7.274  2.3868  2.8321  2.5902
  997MOL0     H31540   3.090   1.506   7.070  0.0217 -0.6238  0.7735
  997MOL0     H31541   3.393   1.220   7.036 -1.0225  0.1070 -0.5907
  997MOL0     H31542   3.486   1.337   6.939  0.5143  0.8746  1.8539
  997MOL0     H31543   3.255   1.207   6.810  0.5584  1.1828  0.6866
  997MOL0     H31544   3.420   1.141   6.807 -2.3514 -0.9666 -5.4200
  997MOL0     H31545   3.472   1.415   6.732 -1.5167  2.0054  0.5068
  997MOL0     H31546   3.301   1.393   6.696 -1.6816 -1.5878  1.5113
  997MOL0     H31547   3.505   1.195   6.578 -0.4913 -1.0223 -2.1505
  997MOL0     H31548   3.334   1.235   6.551 -0.8984  1.7284  0.0059
  997MOL0     H31549   3.398   1.454   6.473 -0.5391  0.0728 -1.3381
  997MOL0     H31550   3.475   1.322   6.378 -0.4438 -3.4946  2.9515
  997MOL0     H31551   3.635   1.454   6.611 -0.7317 -1.0567  1.0684
  997MOL0     H31552   3.602   1.530   6.449  0.4112  0.8447  0.6997
  997MOL0     H31553   3.728   1.245   6.484  2.8729 -0.3673 -0.5652
  997MOL0     H31554   3.709   1.322   6.335 -2.2979  2.0492 -0.1282
  997MOL0     H31555   3.929   1.329   6.401 -2.1341 -3.1559  1.1926
  997MOL0     H31556   3.897   1.401   6.554 -3.6286 -0.4727  1.2831
  997MOL0     H31557   3.764   1.566   6.209 -2.7258  0.4453  0.9154
  997MOL0     H31558   4.020   1.818   6.105 -0.4604  2.1180  0.1167
  997MOL0     H31559   3.897   1.898   6.181  1.8010  1.0043 -0.2777
  997MOL0     H31560   3.742   1.725   6.039 -0.3316 -1.2949  3.6886
  997MOL0     H31561   3.911   1.683   5.969  0.6326 -0.0718  1.8983
  997MOL0     H31562   3.790   1.963   5.972 -0.2336 -2.2720  2.0106
  997MOL0     H31563   3.935   1.913   5.886  1.5621  1.5917  3.7691
  997MOL0     H31564   3.798   1.776   5.727 -2.1136 -0.5401 -0.9404
  997MOL0     H31565   3.737   1.946   5.737 -1.8094 -0.3742 -0.7347
  997MOL0     H31566   3.698   1.584   5.698 -0.8388 -2.5972 -0.1123
  997MOL0     H31567   3.561   1.477   5.518 -1.3176 -0.0801 -1.2224
  997MOL0     H31568   3.315   1.628   5.119 -0.6879  0.5785 -1.3468
  997MOL0     H31569   3.218   1.510   4.932  0.4221 -2.6778  0.6951
  997MOL0     H31570   2.795   1.345   4.999 -1.0264 -0.5132 -2.0418
  997MOL0     H31571   2.903   1.203   5.008 -0.1475 -0.6130  0.8038
  997MOL0     H31572   2.779   1.178   4.795 -1.7977  1.8680  0.8668
  997MOL0     H31573   2.941   1.222   4.764  1.6902  0.7834  1.9435
  997MOL0     H31574   2.869   1.455   4.736  0.0190 -1.0952  2.1703
  997MOL0     H31575   2.700   1.400   4.768 -0.2805  2.1753 -0.6264
  997MOL0     H31576   2.860   1.298   4.516 -1.9829 -0.0518 -0.2992
  997MOL0     H31577   2.710   1.245   4.573  1.3182 -1.1857 -0.3502
  997MOL0     H31578   2.784   1.523   4.491  1.0393 -1.7833  2.7766
  997MOL0     H31579   2.607   1.477   4.520 -1.2262 -2.6409  0.8384
  997MOL0     H31580   2.621   1.314   4.353 -2.4630  1.4464 -0.5162
  997MOL0     H31581   2.788   1.367   4.303  1.3609  2.5765  0.4008
  997MOL0     H31582   2.602   1.451   4.173 -0.9348  1.3996  0.3404
  997MOL0     H31583   2.495   1.475   4.312 -0.3630 -0.2735 -0.3065
  997MOL0     H31584   2.745   1.611   4.256 -0.3926 -2.8929  0.8253
  997MOL0     H31585   2.625   1.672   4.376 -1.3239  0.9277 -0.5308
  997MOL0     H31586   2.885   1.399   5.196 -1.0851  1.9026  0.4287
  997MOL0     H31587   2.979   1.524   5.372  0.1541  1.7255  0.4242
  997MOL0     H31588   3.266   1.789   5.553  0.9103  1.2580  1.0660
  997MOL0     H31589   3.397   1.894   5.731  0.4086 -0.4034 -0.1926
  997MOL0     H31590   3.522   1.506   7.073  0.0248  1.8610 -1.5443
  997MOL0     H31591   3.510   1.689   7.259  0.2982 -2.6228  2.5100
  997MOL0     H31592   3.297   2.169   7.427 -1.1497  3.8921  2.6669
  997MOL0     H31593   3.353   2.281   7.655 -0.4224  0.1076 -3.3126
  997MOL0     H31594   3.487   2.060   8.025 -1.4077  2.8969  2.4844
  997MOL0     H31595   3.492   2.235   8.024 -1.5950  0.9899 -0.8184
  997MOL0     H31596   3.626   2.064   7.813  0.2467 -1.2649  2.1258
  997MOL0     H31597   3.611   2.246   7.797  2.0044 -2.5285 -3.2175
  997MOL0     H31598   3.727   2.306   7.987  0.3686  0.4305 -0.9609
  997MOL0     H31599   3.836   2.184   7.907  0.6328  0.9555  0.7695
  997MOL0     H31600   3.846   2.175   8.137 -0.8390  1.1348  0.2787
  997MOL0     H31601   3.674   2.141   8.155  1.3390 -0.8320  0.5839
  997MOL0     H31602   3.803   1.767   8.095 -2.7851 -0.1989 -0.8689
  997MOL0     H31603   3.375   1.911   7.842  2.1871 -0.1409 -0.3347
  997MOL0     H31604   3.359   1.793   7.609 -0.0180 -0.3024  0.6512
  998MOL0     O31605   3.744  10.647  10.823  0.6601  0.8119 -0.0184
  998MOL0     C31606   3.736  10.660  10.702 -0.4340 -1.0676  0.3500
  998MOL0     O31607   3.849  10.689  10.622 -0.0579  0.3288  0.3183
  998MOL0     C31608   3.959  10.765  10.668  0.2986  0.7896 -0.9430
  998MOL0     C31609   3.922  10.873  10.748 -0.0506 -0.4805 -0.4230
  998MOL0     C31610   4.013  10.971  10.796  0.0055  0.2062  0.0447
  998MOL0     C31611   4.143  10.957  10.764  0.2774  0.2474 -0.3399
  998MOL0     O31612   4.225  11.034  10.840  0.0496 -0.1078 -0.0709
  998MOL0     C31613   4.365  11.015  10.849  0.2100 -0.0186  0.3271
  998MOL0     C31614   4.408  11.097  10.977  0.0623 -0.3234  0.8813
  998MOL0     C31615   4.559  11.123  10.962  0.3269 -0.3043  0.0378
  998MOL0     C31616   4.613  11.150  11.106 -0.0853 -0.6252 -0.5367
  998MOL0     C31617   4.733  11.056  11.128  0.4296  0.2768 -0.7262
  998MOL0     C31618   4.694  10.914  11.163  0.2328  0.4125 -0.0012
  998MOL0     C31619   4.809  10.819  11.220  0.0609 -0.1310  0.0344
  998MOL0     C31620   4.854  10.876  11.351 -0.2384  0.2735  0.1705
  998MOL0     N31621   4.742  10.874  11.443  0.4568 -0.0762 -0.3557
  998MOL0     C31622   4.681  10.765  11.498 -0.1057 -1.1570  0.7265
  998MOL0     C31623   4.586  10.816  11.578  0.1491  0.1768 -0.2982
  998MOL0     C31624   4.487  10.728  11.645  0.3583 -0.3996 -0.3435
  998MOL0     C31625   4.555  10.633  11.759  0.4526 -0.0331  0.3648
  998MOL0     C31626   4.520  10.698  11.898 -0.4602  0.6128  0.3062
  998MOL0     C31627   4.559  10.599  12.004  0.1472 -0.4826 -0.1746
  998MOL0     O31628   4.501  10.647  12.125 -0.6237  1.4422 -0.5589
  998MOL0     C31629   4.549  10.748  12.207 -0.6536 -0.1958 -0.3322
  998MOL0     C31630   4.680  10.789  12.204 -0.5214  0.0927  0.2646
  998MOL0     C31631   4.732  10.886  12.299  0.2723  0.4989  0.2491
  998MOL0     C31632   4.643  10.942  12.387  1.6719  0.2388  0.5975
  998MOL0     C31633   4.687  11.038  12.494  0.0565 -0.1538 -0.2535
  998MOL0     O31634   4.820  11.073  12.509 -0.0939 -0.2187 -0.4967
  998MOL0     C31635   4.866  11.127  12.634  0.4955  0.5835  0.1124
  998MOL0     C31636   4.813  11.089  12.753 -0.6683  0.1892 -0.6178
  998MOL0     C31637   4.868  11.143  12.869 -0.8163  0.1919 -0.4135
  998MOL0     C31638   4.979  11.232  12.877  0.5424  0.3411 -0.0260
  998MOL0     O31639   5.034  11.273  12.998  0.1169  0.0490 -0.2928
  998MOL0     C31640   4.960  11.253  13.129  0.0863  0.2697  0.1302
  998MOL0     C31641   5.028  11.337  13.236  0.1718 -0.7663 -0.4992
  998MOL0     C31642   5.111  11.260  13.335 -0.5755  0.3294  1.1947
  998MOL0     C31643   5.153  11.335  13.461  0.3939 -0.2468 -0.9523
  998MOL0     C31644   5.273  11.258  13.539  0.4634 -0.4507  0.2310
  998MOL0     C31645   5.348  11.329  13.646  0.6665  0.3359  0.4796
  998MOL0     C31646   5.406  11.454  13.587 -0.4846  0.2633 -1.1428
  998MOL0     C31647   5.507  11.514  13.685  0.1336 -0.3312 -0.4305
  998MOL0    Cl31648   5.667  11.418  13.683 -0.3671  0.1418  0.2064
  998MOL0     C31649   5.032  11.263  12.751 -0.8953  0.3035 -0.0881
  998MOL0     C31650   4.969  11.217  12.634  0.2552  0.4784 -0.5893
  998MOL0     O31651   4.592  11.084  12.562  0.5938 -0.3714 -0.9445
  998MOL0     C31652   4.513  10.875  12.396  0.4191 -0.0805 -0.1111
  998MOL0     C31653   4.469  10.782  12.312  0.2074 -0.2991  0.5832
  998MOL0     N31654   4.593  10.960  11.570  0.3986  0.1929 -0.3626
  998MOL0     N31655   4.693  10.988  11.497 -0.9976  0.6381  0.6965
  998MOL0     C31656   4.180  10.846  10.677 -0.1961  0.5774 -0.2518
  998MOL0     C31657   4.090  10.749  10.628  0.1422  0.1516  0.0223
  998MOL0     C31658   3.611  10.674  10.621  0.0567  0.5973 -0.1397
  998MOL0     C31659   3.602  10.672  10.484  0.0722 -0.6393 -0.3379
  998MOL0     C31660   3.469  10.670  10.429 -0.8352 -0.5320  0.0441
  998MOL0     C31661   3.352  10.674  10.505  0.0580 -0.2646 -0.3288
  998MOL0     O31662   3.233  10.663  10.447  0.1887  0.0945 -0.2383
  998MOL0     C31663   3.143  10.561  10.502  0.1693 -0.1891  0.5892
  998MOL0     C31664   3.020  10.548  10.415  0.1892 -0.3465  1.0584
  998MOL0     C31665   2.975  10.685  10.381 -1.0205  0.7420  0.0850
  998MOL0     C31666   2.834  10.677  10.326  0.3930  0.0093 -0.3954
  998MOL0     C31667   2.742  10.641  10.429  0.2816 -0.7018  0.6122
  998MOL0     C31668   2.668  10.597  10.506  0.2221  0.9358 -0.3022
  998MOL0     C31669   3.360  10.685  10.642  0.1939  0.4186 -0.6966
  998MOL0     C31670   3.486  10.675  10.702 -0.8242  0.6819  0.4703
  998MOL0     H31671   3.819  10.892  10.778 -0.7422  0.8583 -3.2896
  998MOL0     H31672   3.977  11.036  10.874 -2.2158  1.4374 -1.8612
  998MOL0     H31673   4.404  11.048  10.753 -0.7050  0.7265  0.1937
  998MOL0     H31674   4.389  10.909  10.857 -0.4637 -0.2218 -0.2721
  998MOL0     H31675   4.372  11.037  11.061  0.3333 -1.3704  0.2607
  998MOL0     H31676   4.354  11.191  10.969  0.8176  0.0155 -0.7097
  998MOL0     H31677   4.585  11.219  10.916  1.5018  0.6182  2.4688
  998MOL0     H31678   4.618  11.047  10.909  0.4855 -2.6653  3.2965
  998MOL0     H31679   4.647  11.253  11.115 -0.8425 -0.4464  0.4630
  998MOL0     H31680   4.539  11.147  11.187  0.1570  1.6424 -0.1720
  998MOL0     H31681   4.778  11.092  11.221  1.4247 -1.2657 -0.5703
  998MOL0     H31682   4.797  11.066  11.040 -0.0572  2.0337 -0.9087
  998MOL0     H31683   4.641  10.863  11.082 -2.3336  2.8031  0.0250
  998MOL0     H31684   4.609  10.927  11.231  1.4216  0.8553  1.4625
  998MOL0     H31685   4.774  10.719  11.247 -0.3996  0.6621  2.6640
  998MOL0     H31686   4.891  10.795  11.153  0.7845  0.6953  0.6072
  998MOL0     H31687   4.883  10.981  11.341  0.2020  0.0339 -1.4647
  998MOL0     H31688   4.943  10.813  11.364  1.6319  2.1353 -2.5127
  998MOL0     H31689   4.692  10.666  11.454 -2.4752 -0.1274 -2.5591
  998MOL0     H31690   4.446  10.665  11.565  0.1479 -1.5082  0.6033
  998MOL0     H31691   4.402  10.786  11.680  0.1582  1.4937 -3.5102
  998MOL0     H31692   4.662  10.630  11.737  0.0572 -2.1772 -1.6334
  998MOL0     H31693   4.521  10.529  11.766  1.6146 -0.4558  0.0328
  998MOL0     H31694   4.572  10.792  11.918  1.0388 -0.0708 -0.2485
  998MOL0     H31695   4.413  10.718  11.909 -0.0779  1.5238  3.3631
  998MOL0     H31696   4.668  10.606  12.005  0.0571  1.1274 -0.2531
  998MOL0     H31697   4.535  10.493  11.988  0.5877 -1.3207  3.7317
  998MOL0     H31698   4.746  10.753  12.125 -0.3491  1.5115 -0.2556
  998MOL0     H31699   4.837  10.911  12.314  1.5562 -3.7011 -0.2246
  998MOL0     H31700   4.731  11.017  12.752 -3.3650  2.8913  2.3502
  998MOL0     H31701   4.819  11.103  12.957  0.5570  0.2412  0.4054
  998MOL0     H31702   4.977  11.152  13.167 -1.2520  0.3357  0.9744
  998MOL0     H31703   4.855  11.276  13.111 -0.3266 -1.7457 -0.2260
  998MOL0     H31704   4.965  11.388  13.310  2.6898  0.9055  0.6506
  998MOL0     H31705   5.092  11.420  13.204  0.0548  0.1639  1.4675
  998MOL0     H31706   5.196  11.206  13.291  0.2697  0.3920  2.6729
  998MOL0     H31707   5.058  11.171  13.367  2.8527 -3.5923 -2.7201
  998MOL0     H31708   5.177  11.440  13.443  2.9214 -0.7409 -0.8265
  998MOL0     H31709   5.065  11.337  13.526  1.4135  1.1884  0.4519
  998MOL0     H31710   5.357  11.249  13.470  2.2256  3.7857  1.5019
  998MOL0     H31711   5.244  11.155  13.563  4.1708 -1.6743  0.0529
  998MOL0     H31712   5.426  11.265  13.688  3.9145  3.0374 -0.9207
  998MOL0     H31713   5.274  11.355  13.723 -1.7684  0.9841 -1.9243
  998MOL0     H31714   5.455  11.443  13.490  0.5025 -0.6138 -0.5675
  998MOL0     H31715   5.321  11.522  13.585 -2.1336 -1.4673  2.2535
  998MOL0     H31716   5.474  11.517  13.789 -0.7201 -2.4370 -0.6047
  998MOL0     H31717   5.525  11.619  13.659  0.9218  0.3541  2.5335
  998MOL0     H31718   5.125  11.317  12.735  0.4950 -1.4513  1.5759
  998MOL0     H31719   5.017  11.251  12.542  3.2847  1.7361  1.3093
  998MOL0     H31720   4.451  10.913  12.476  0.3256  0.1327 -0.2845
  998MOL0     H31721   4.376  10.727  12.326  0.0765 -0.2352  0.0078
  998MOL0     H31722   4.286  10.840  10.655  0.2273  2.0752  1.1369
  998MOL0     H31723   4.139  10.687  10.554 -2.9742 -0.6021 -1.5426
  998MOL0     H31724   3.687  10.676  10.418 -1.4504  3.5625 -2.3821
  998MOL0     H31725   3.440  10.660  10.325 -1.7350 -0.7301  0.3079
  998MOL0     H31726   3.105  10.586  10.602 -1.1269  0.5220 -0.0427
  998MOL0     H31727   3.187  10.464  10.525  1.5406  0.1236 -0.6121
  998MOL0     H31728   3.034  10.483  10.329 -0.4629 -2.5184  2.5172
  998MOL0     H31729   2.957  10.502  10.491  0.1165  1.8916  2.4461
  998MOL0     H31730   3.032  10.719  10.294 -2.7450 -2.0527 -2.3055
  998MOL0     H31731   3.000  10.745  10.469  1.5650  1.0284 -0.7374
  998MOL0     H31732   2.810  10.778  10.291 -3.1922 -0.8116 -0.7424
  998MOL0     H31733   2.828  10.611  10.239 -1.1458 -1.4030  0.7190
  998MOL0     H31734   2.602  10.552  10.577  1.1323 -1.1031 -0.6742
  998MOL0     H31735   3.295  10.696  10.728  1.5205  3.4672  0.0594
  998MOL0     H31736   3.486  10.661  10.809 -1.4511  2.4620  0.7306
  999MOL0     O31737   1.441   1.305   9.284 -0.3672  0.2703 -0.7006
  999MOL0     C31738   1.340   1.369   9.305 -0.1457  0.0415 -0.1352
  999MOL0     O31739   1.221   1.337   9.245  0.4680 -0.3980  0.3556
  999MOL0     C31740   1.214   1.248   9.141 -0.6443  0.0019  0.4548
  999MOL0     C31741   1.167   1.114   9.155  0.3449  0.3795 -0.7700
  999MOL0     C31742   1.161   1.028   9.039 -0.2915 -0.8263  0.0132
  999MOL0     C31743   1.189   1.072   8.918 -0.7363  0.1053  0.1821
  999MOL0     O31744   1.186   0.983   8.814 -1.1519  0.3368  0.1346
  999MOL0     C31745   1.113   1.036   8.699  0.4445  0.3947  0.8222
  999MOL0     C31746   1.105   0.921   8.592  0.4989  0.5345 -0.6996
  999MOL0     C31747   1.227   0.922   8.502 -0.3014 -0.3143  0.0048
  999MOL0     C31748   1.221   0.819   8.389  0.1040 -0.6497 -0.5194
  999MOL0     C31749   1.347   0.815   8.303 -0.1457 -0.5031 -0.1307
  999MOL0     C31750   1.328   0.726   8.180  0.0781  0.5027 -0.5591
  999MOL0     C31751   1.469   0.698   8.114 -0.2105  0.2744 -0.3180
  999MOL0     C31752   1.522   0.559   8.134 -0.6360  0.4435  0.5598
  999MOL0     N31753   1.667   0.547   8.100 -0.4685 -0.3676 -0.2739
  999MOL0     C31754   1.728   0.589   7.983  0.0482  0.4320 -0.1049
  999MOL0     C31755   1.854   0.540   8.006  0.0198  0.1389 -0.1815
  999MOL0     C31756   1.965   0.543   7.898  0.3966 -0.3266  0.5559
  999MOL0     C31757   1.916   0.552   7.757 -0.7447 -1.6368 -0.1655
  999MOL0     C31758   2.007   0.498   7.649 -0.0604  0.0129  0.0683
  999MOL0     C31759   2.122   0.596   7.619  0.1737  0.5915 -0.7555
  999MOL0     O31760   2.070   0.720   7.571  0.0630 -0.1542 -0.2816
  999MOL0     C31761   2.141   0.834   7.558 -1.0704  1.1401 -0.5518
  999MOL0     C31762   2.077   0.949   7.522 -0.6454  0.2052 -0.3023
  999MOL0     C31763   2.144   1.062   7.488  0.4819  0.4634 -0.1323
  999MOL0     C31764   2.285   1.075   7.498  0.1351  0.3558  0.7882
  999MOL0     C31765   2.345   1.206   7.463  0.5238  0.8339  0.3520
  999MOL0     O31766   2.473   1.214   7.500  0.7241 -0.4293 -0.5068
  999MOL0     C31767   2.553   1.330   7.497 -0.1402 -0.4056 -0.4995
  999MOL0     C31768   2.503   1.455   7.480 -0.3643  0.2620  0.4627
  999MOL0     C31769   2.591   1.571   7.478  0.0537 -0.6886 -0.1969
  999MOL0     C31770   2.724   1.554   7.512  0.3303 -0.2401  0.7628
  999MOL0     O31771   2.809   1.661   7.538 -0.3193 -0.2107  0.0832
  999MOL0     C31772   2.846   1.673   7.674  0.4492  0.5141  0.5828
  999MOL0     C31773   2.994   1.711   7.697 -1.6600 -0.2377 -0.2916
  999MOL0     C31774   3.026   1.728   7.847 -0.9419 -0.3643 -0.3730
  999MOL0     C31775   3.005   1.860   7.913  0.4468 -0.1878  0.1966
  999MOL0     C31776   3.085   1.888   8.028 -0.2597 -0.0123  0.7380
  999MOL0     C31777   3.039   2.006   8.121  0.6102 -0.0631 -0.9155
  999MOL0     C31778   3.128   2.015   8.241 -0.6167  0.3922 -1.2928
  999MOL0     C31779   3.052   2.091   8.347 -0.3359  0.6485 -1.4416
  999MOL0    Cl31780   2.918   1.965   8.414  0.3170 -0.0752  0.5748
  999MOL0     C31781   2.777   1.430   7.513 -0.4941 -0.6044 -0.5659
  999MOL0     C31782   2.693   1.312   7.500 -0.4502 -1.0971 -0.2260
  999MOL0     O31783   2.288   1.288   7.403  0.3929 -0.5469  0.2599
  999MOL0     C31784   2.354   0.963   7.539 -0.6283 -0.2074 -0.0664
  999MOL0     C31785   2.283   0.842   7.562 -0.6582 -0.2576  0.9610
  999MOL0     N31786   1.858   0.478   8.127 -0.3975  0.4466  0.1811
  999MOL0     N31787   1.756   0.503   8.196  0.3648 -0.2148  0.5194
  999MOL0     C31788   1.235   1.208   8.904  0.7437 -0.1876 -0.0349
  999MOL0     C31789   1.247   1.296   9.015 -0.3167  0.3663  0.1075
  999MOL0     C31790   1.338   1.492   9.382 -0.1226 -0.9201  0.1716
  999MOL0     C31791   1.456   1.520   9.458 -0.1817  0.8923 -0.2540
  999MOL0     C31792   1.463   1.635   9.537 -0.2015 -0.4677  0.0981
  999MOL0     C31793   1.354   1.726   9.536 -0.6154  0.5816  0.2967
  999MOL0     O31794   1.352   1.840   9.613  0.8313 -0.6829  0.7867
  999MOL0     C31795   1.482   1.890   9.662  0.1305  0.5711 -0.5791
  999MOL0     C31796   1.472   2.037   9.711 -0.9240  0.2513 -0.0076
  999MOL0     C31797   1.531   2.141   9.607  0.1498 -0.3503  0.4769
  999MOL0     C31798   1.681   2.148   9.590  0.1177 -0.1995 -0.4185
  999MOL0     C31799   1.757   2.184   9.715  1.4922 -0.4935  0.4780
  999MOL0     C31800   1.812   2.229   9.811  0.0307  0.0467 -0.2438
  999MOL0     C31801   1.248   1.707   9.460  2.0415 -0.0211  0.0310
  999MOL0     C31802   1.233   1.590   9.367 -0.2495 -0.8427 -1.6453
  999MOL0     H31803   1.128   1.099   9.256  0.8748  3.2914 -0.0346
  999MOL0     H31804   1.150   0.921   9.054 -1.2487 -0.5509  1.5854
  999MOL0     H31805   1.156   1.125   8.653  0.3544 -0.1609 -0.3938
  999MOL0     H31806   1.010   1.055   8.731  0.4879  0.2256  1.0583
  999MOL0     H31807   1.010   0.925   8.538 -0.5583 -1.9157  0.7835
  999MOL0     H31808   1.089   0.831   8.652 -0.3675  1.3474  0.3141
  999MOL0     H31809   1.319   0.896   8.556 -1.2925 -4.3094  0.1123
  999MOL0     H31810   1.234   1.022   8.459 -2.3590  0.1429  0.6559
  999MOL0     H31811   1.208   0.718   8.429 -1.5355 -0.5116 -0.6241
  999MOL0     H31812   1.137   0.854   8.327  0.7046  1.3954 -0.2500
  999MOL0     H31813   1.436   0.783   8.358  1.8036 -0.4957 -3.0505
  999MOL0     H31814   1.380   0.908   8.257  1.1415  0.4544  2.5570
  999MOL0     H31815   1.254   0.756   8.106 -1.4771 -1.0883  0.2648
  999MOL0     H31816   1.293   0.627   8.209 -0.1397  0.5189 -0.7643
  999MOL0     H31817   1.458   0.714   8.007 -1.0078  3.3335  0.1287
  999MOL0     H31818   1.536   0.781   8.138 -1.8428  0.8807  2.6439
  999MOL0     H31819   1.467   0.497   8.063  1.2506  1.9816 -2.4954
  999MOL0     H31820   1.514   0.525   8.237 -2.2565  1.4472  0.7933
  999MOL0     H31821   1.680   0.643   7.901  0.8204 -0.1658 -0.9779
  999MOL0     H31822   2.017   0.449   7.916 -1.1871 -1.4018 -0.2523
  999MOL0     H31823   2.028   0.631   7.915  1.8637 -1.4315  1.0798
  999MOL0     H31824   1.875   0.651   7.734 -3.5925 -1.9257  2.8512
  999MOL0     H31825   1.825   0.491   7.751 -3.7105  2.4491 -1.0071
  999MOL0     H31826   2.019   0.396   7.685 -5.5160 -0.0676  2.5171
  999MOL0     H31827   1.954   0.498   7.553  2.2034  1.1519 -1.2788
  999MOL0     H31828   2.194   0.558   7.545 -0.3437 -1.7469 -0.1180
  999MOL0     H31829   2.179   0.622   7.709  0.9221  1.9685 -1.5839
  999MOL0     H31830   1.970   0.957   7.510 -0.6715  1.3033  0.5057
  999MOL0     H31831   2.097   1.152   7.450  0.7430  1.9546  2.8025
  999MOL0     H31832   2.400   1.491   7.482 -0.1222  0.9393  1.6627
  999MOL0     H31833   2.557   1.673   7.487  0.2179 -0.6048 -0.5084
  999MOL0     H31834   2.833   1.579   7.730 -3.7113  0.4023 -0.2907
  999MOL0     H31835   2.780   1.747   7.720  0.9899  2.8780 -2.1832
  999MOL0     H31836   3.022   1.802   7.643  1.8489 -1.5047 -0.9071
  999MOL0     H31837   3.057   1.635   7.648 -0.1873  0.5594  0.3102
  999MOL0     H31838   3.135   1.714   7.854 -0.9170 -1.2643 -2.0273
  999MOL0     H31839   2.991   1.645   7.909  0.5533  0.4300  1.6671
  999MOL0     H31840   3.026   1.943   7.844 -1.7192  3.2142  3.2550
  999MOL0     H31841   2.899   1.859   7.936  0.6605  0.1830  1.2548
  999MOL0     H31842   3.190   1.907   8.006  0.9566 -3.3008  2.9016
  999MOL0     H31843   3.088   1.799   8.092  1.3341  0.0572  0.7966
  999MOL0     H31844   2.936   1.985   8.152  0.4466 -2.6539 -2.9083
  999MOL0     H31845   3.044   2.102   8.069 -3.3007  0.9041  0.1261
  999MOL0     H31846   3.154   1.919   8.288 -1.6761  0.6149 -0.2234
  999MOL0     H31847   3.219   2.067   8.208 -0.1240 -0.7156 -1.7435
  999MOL0     H31848   3.017   2.188   8.311  0.8688  1.2110 -1.1369
  999MOL0     H31849   3.115   2.117   8.432 -0.6877 -0.7502 -0.7120
  999MOL0     H31850   2.885   1.435   7.527 -0.5033  1.2592 -0.9284
  999MOL0     H31851   2.742   1.215   7.499  0.0969 -0.8294 -0.3490
  999MOL0     H31852   2.455   0.969   7.579 -0.7390 -1.4610  0.4710
  999MOL0     H31853   2.336   0.760   7.610 -0.1021  1.4848  3.4711
  999MOL0     H31854   1.263   1.231   8.802  2.4221 -0.9523  0.2117
  999MOL0     H31855   1.283   1.398   9.004 -1.5046  1.1269  2.5451
  999MOL0     H31856   1.535   1.445   9.455  0.0322  1.1003  0.0960
  999MOL0     H31857   1.558   1.654   9.586  0.8539  1.1133 -2.3476
  999MOL0     H31858   1.563   1.877   9.590  0.7209  0.4477  0.0999
  999MOL0     H31859   1.507   1.828   9.748 -3.0666 -1.7589 -1.1395
  999MOL0     H31860   1.371   2.071   9.734 -0.5933  1.6604 -0.4907
  999MOL0     H31861   1.541   2.037   9.796  1.2704  2.3011 -1.6303
  999MOL0     H31862   1.506   2.241   9.644  2.1911  0.5489 -0.4083
  999MOL0     H31863   1.481   2.132   9.510  1.2275  1.6262 -0.3187
  999MOL0     H31864   1.716   2.048   9.560 -1.7036 -0.5271 -1.6177
  999MOL0     H31865   1.702   2.228   9.518 -0.3818  1.9472  1.7379
  999MOL0     H31866   1.870   2.252   9.899 -1.7031 -0.8626  1.2131
  999MOL0     H31867   1.165   1.776   9.466  0.9052 -1.3775  0.2314
  999MOL0     H31868   1.144   1.561   9.312  1.0406  0.8551 -4.9132
 1000MOL0     O31869   7.008   6.046   6.652 -0.2047  0.1011  0.8848
 1000MOL0     C31870   7.066   6.122   6.571  0.3328 -0.2466  0.6030
 1000MOL0     O31871   7.134   6.244   6.603 -0.5340 -0.1899 -0.1212
 1000MOL0     C31872   7.177   6.248   6.735 -0.9847 -0.1009 -0.5386
 1000MOL0     C31873   7.148   6.357   6.815  0.5887 -0.6542 -0.9533
 1000MOL0     C31874   7.191   6.362   6.955  0.5557  0.7470 -0.1871
 1000MOL0     C31875   7.273   6.260   7.006 -1.0073  0.1676 -0.3066
 1000MOL0     O31876   7.298   6.249   7.138  0.8303 -0.1885  0.1650
 1000MOL0     C31877   7.233   6.141   7.204  0.5986  0.1215 -1.0780
 1000MOL0     C31878   7.074   6.157   7.214 -0.3168  0.6224 -0.4068
 1000MOL0     C31879   7.011   6.093   7.098 -1.0874 -1.2434 -0.3456
 1000MOL0     C31880   6.863   6.083   7.123 -0.0676 -0.8677 -0.9168
 1000MOL0     C31881   6.775   6.033   7.015 -0.0579  0.2565 -0.3355
 1000MOL0     C31882   6.826   5.925   6.916  0.4011 -0.5216 -0.5699
 1000MOL0     C31883   6.722   5.875   6.817 -0.6725  0.0763  0.1692
 1000MOL0     C31884   6.753   5.735   6.763  0.3647  0.7547  0.7573
 1000MOL0     N31885   6.662   5.714   6.647  0.4190 -0.2152  0.8597
 1000MOL0     C31886   6.541   5.653   6.649 -0.1088 -0.2905 -0.1345
 1000MOL0     C31887   6.514   5.632   6.521  0.7927  0.6383  0.1513
 1000MOL0     C31888   6.389   5.572   6.469 -0.4864  0.2137  0.6987
 1000MOL0     C31889   6.359   5.424   6.503  0.0238 -0.3793 -0.2853
 1000MOL0     C31890   6.494   5.345   6.493 -0.3749 -0.6437 -0.4597
 1000MOL0     C31891   6.479   5.201   6.507 -0.0121  0.0261 -0.3729
 1000MOL0     O31892   6.432   5.130   6.389 -0.5581  0.2328 -0.2828
 1000MOL0     C31893   6.406   4.992   6.415  0.3566  0.7218 -1.3313
 1000MOL0     C31894   6.460   4.914   6.526  0.3942 -1.0710 -0.4615
 1000MOL0     C31895   6.425   4.775   6.549  0.8435 -1.0876 -0.4216
 1000MOL0     C31896   6.340   4.718   6.445 -0.4365  0.4028  0.2898
 1000MOL0     C31897   6.314   4.583   6.438 -0.3628  0.8385 -0.2391
 1000MOL0     O31898   6.341   4.528   6.561  0.2368  0.5773 -0.5349
 1000MOL0     C31899   6.305   4.392   6.578  0.7128 -0.1685 -0.2723
 1000MOL0     C31900   6.171   4.358   6.567 -0.2727 -0.2005  0.2386
 1000MOL0     C31901   6.127   4.229   6.592 -0.8047 -1.4986  0.2032
 1000MOL0     C31902   6.211   4.129   6.621  0.3477 -0.4201  0.6102
 1000MOL0     O31903   6.175   3.992   6.619 -0.2627  0.3284  0.4665
 1000MOL0     C31904   6.033   3.969   6.620 -0.2641 -0.0643  0.5469
 1000MOL0     C31905   6.019   3.813   6.629  0.5022  0.1362 -0.3297
 1000MOL0     C31906   5.893   3.762   6.697  0.5956 -0.3605  0.1739
 1000MOL0     C31907   5.773   3.811   6.623 -0.2446  0.2285 -0.7319
 1000MOL0     C31908   5.650   3.748   6.683 -0.5795 -0.8836 -0.4212
 1000MOL0     C31909   5.624   3.604   6.683  0.3779  0.4177  0.8562
 1000MOL0     C31910   5.670   3.529   6.559 -0.6418 -1.5688  0.3079
 1000MOL0     C31911   5.578   3.573   6.451  0.2201 -0.6321  0.6002
 1000MOL0    Cl31912   5.567   3.447   6.339 -0.2282  0.3552 -0.7231
 1000MOL0     C31913   6.350   4.159   6.635  0.0146 -0.3080 -0.2599
 1000MOL0     C31914   6.397   4.290   6.621  0.2704 -0.7779  0.8864
 1000MOL0     O31915   6.289   4.510   6.342  0.3401 -0.2356  0.0845
 1000MOL0     C31916   6.311   4.791   6.324  0.7412 -0.3952  1.0776
 1000MOL0     C31917   6.339   4.930   6.303 -0.3354  0.0162 -0.4188
 1000MOL0     N31918   6.627   5.664   6.445 -0.4079  0.1067  0.5910
 1000MOL0     N31919   6.705   5.722   6.523 -0.5695 -0.8360 -0.6682
 1000MOL0     C31920   7.313   6.160   6.918 -0.6883 -1.2849 -0.0180
 1000MOL0     C31921   7.260   6.150   6.789 -0.2337 -0.1794 -0.8653
 1000MOL0     C31922   7.023   6.112   6.433 -0.4375  0.3560  0.6239
 1000MOL0     C31923   6.926   6.019   6.395  0.0493  0.1101 -0.0353
 1000MOL0     C31924   6.913   5.991   6.260  0.3898 -0.2055  0.4560
 1000MOL0     C31925   6.990   6.056   6.158  0.9587 -0.9012 -0.6989
 1000MOL0     O31926   6.963   6.042   6.028  0.3902  1.1473 -0.0770
 1000MOL0     C31927   6.957   5.905   5.977  0.7059 -0.5852  0.8053
 1000MOL0     C31928   6.961   5.904   5.822  0.5467 -1.0004  0.8023
 1000MOL0     C31929   6.955   5.767   5.761  0.4080 -0.8508 -0.2128
 1000MOL0     C31930   6.932   5.774   5.612  0.1682  0.9862 -0.7008
 1000MOL0     C31931   6.915   5.643   5.552  0.1598 -0.1619 -0.4207
 1000MOL0     C31932   6.904   5.543   5.487 -0.8554  0.1134  0.1694
 1000MOL0     C31933   7.079   6.155   6.193 -0.4280  0.5009  0.5334
 1000MOL0     C31934   7.100   6.176   6.331  0.0419  1.1131  0.1338
 1000MOL0     H31935   7.091   6.441   6.776 -3.4980 -0.8637  3.6307
 1000MOL0     H31936   7.156   6.437   7.025 -2.1973  1.7988 -2.4849
 1000MOL0     H31937   7.274   6.139   7.305  0.0120 -0.9281 -0.8380
 1000MOL0     H31938   7.264   6.045   7.161 -0.3548 -0.5513 -0.3135
 1000MOL0     H31939   7.037   6.258   7.232  1.4377  1.9089 -3.4260
 1000MOL0     H31940   7.053   6.082   7.291  2.8655 -1.9797 -1.8499
 1000MOL0     H31941   7.053   5.994   7.080 -0.0194 -0.5222 -2.0859
 1000MOL0     H31942   7.018   6.166   7.016 -0.3287 -0.0476  0.7486
 1000MOL0     H31943   6.855   5.999   7.192 -1.2942  1.0579  1.4285
 1000MOL0     H31944   6.829   6.170   7.179  1.6342 -1.4462  1.1417
 1000MOL0     H31945   6.749   6.116   6.949  0.5373  0.2662 -0.5688
 1000MOL0     H31946   6.679   6.005   7.060  1.8459 -2.5480  2.3623
 1000MOL0     H31947   6.859   5.838   6.974 -3.1772 -1.0460  0.8997
 1000MOL0     H31948   6.911   5.963   6.858  0.6360 -0.9255 -0.4982
 1000MOL0     H31949   6.625   5.866   6.866 -1.6099 -2.4489 -1.9015
 1000MOL0     H31950   6.716   5.948   6.735 -0.2839  1.5520  1.4137
 1000MOL0     H31951   6.735   5.665   6.845 -2.5201 -2.5776 -2.3894
 1000MOL0     H31952   6.854   5.731   6.721 -0.3719  2.1722 -1.2883
 1000MOL0     H31953   6.475   5.620   6.729  0.5086 -0.8023  0.1748
 1000MOL0     H31954   6.407   5.579   6.362 -2.9535  0.0791  0.2183
 1000MOL0     H31955   6.298   5.631   6.482 -1.3588 -0.7325 -0.8092
 1000MOL0     H31956   6.291   5.368   6.439  1.0314 -3.1119  0.8771
 1000MOL0     H31957   6.313   5.403   6.600  1.2244 -1.9315 -0.0144
 1000MOL0     H31958   6.538   5.369   6.396  0.4012  1.3358  0.3336
 1000MOL0     H31959   6.558   5.374   6.576 -0.3983  1.0603 -0.9980
 1000MOL0     H31960   6.408   5.198   6.590  2.2554  2.0925  1.7505
 1000MOL0     H31961   6.581   5.170   6.528  0.5162  2.7629  1.6059
 1000MOL0     H31962   6.533   4.968   6.585 -0.9636  3.1158 -2.2750
 1000MOL0     H31963   6.475   4.723   6.630  2.2391 -0.1713 -0.6619
 1000MOL0     H31964   6.099   4.434   6.539  1.0567  1.2680  0.6568
 1000MOL0     H31965   6.019   4.217   6.586 -0.6539 -2.0205 -2.6127
 1000MOL0     H31966   5.989   4.004   6.526  1.3711 -0.6649 -0.4925
 1000MOL0     H31967   5.995   4.023   6.707  1.0451  1.1360  0.4061
 1000MOL0     H31968   6.109   3.779   6.681  0.5457 -0.1221 -0.5726
 1000MOL0     H31969   6.033   3.770   6.529  0.8773 -0.9996  0.1854
 1000MOL0     H31970   5.889   3.792   6.802  0.3968 -2.9257  0.9617
 1000MOL0     H31971   5.896   3.655   6.718  1.7360 -0.7981 -1.9704
 1000MOL0     H31972   5.764   3.917   6.647  2.5191 -0.0192  1.9932
 1000MOL0     H31973   5.776   3.788   6.517  1.3493  0.1532 -0.6838
 1000MOL0     H31974   5.563   3.802   6.645  0.8617  0.6981 -1.6031
 1000MOL0     H31975   5.650   3.781   6.788 -1.5856  0.1841 -0.7404
 1000MOL0     H31976   5.517   3.589   6.700 -0.4620  2.7177 -1.6693
 1000MOL0     H31977   5.680   3.563   6.768 -0.8885 -3.1506  0.1582
 1000MOL0     H31978   5.773   3.556   6.535 -0.7236 -3.6605 -3.0943
 1000MOL0     H31979   5.659   3.420   6.563  0.2054 -1.6168  2.8225
 1000MOL0     H31980   5.624   3.657   6.398 -1.7569 -0.3265 -0.7719
 1000MOL0     H31981   5.482   3.611   6.489  0.2419 -2.7079  2.9354
 1000MOL0     H31982   6.422   4.079   6.652  0.0629 -0.0883  0.5822
 1000MOL0     H31983   6.500   4.317   6.645  0.2682 -2.8779  3.9373
 1000MOL0     H31984   6.252   4.740   6.249 -1.4653 -0.5476  2.8056
 1000MOL0     H31985   6.306   4.988   6.218 -1.5558 -2.6404 -1.8624
 1000MOL0     H31986   7.393   6.097   6.955 -0.6925 -0.3462  1.7069
 1000MOL0     H31987   7.307   6.071   6.730  2.1674  0.2487  0.3705
 1000MOL0     H31988   6.874   5.952   6.463  0.4351  1.2360  1.4202
 1000MOL0     H31989   6.848   5.921   6.209 -1.9634  2.7250 -0.9149
 1000MOL0     H31990   6.863   5.861   6.012  0.2607  1.0631  1.7729
 1000MOL0     H31991   7.035   5.842   6.019  0.3736 -1.9131 -0.4649
 1000MOL0     H31992   6.875   5.960   5.785  0.1606 -1.9310  0.2417
 1000MOL0     H31993   7.048   5.953   5.778  0.6546 -0.4689  1.5824
 1000MOL0     H31994   6.887   5.705   5.821  2.8644 -0.4332  3.2636
 1000MOL0     H31995   7.052   5.718   5.767  0.4297 -0.7045  0.7380
 1000MOL0     H31996   6.851   5.844   5.589  0.3866  1.0112 -1.4264
 1000MOL0     H31997   7.022   5.814   5.565  2.8833 -2.0192  1.5167
 1000MOL0     H31998   6.890   5.455   5.428 -0.1904 -0.2363  0.5250
 1000MOL0     H31999   7.123   6.211   6.111 -1.8976 -1.1213 -1.4618
 1000MOL0     H32000   7.186   6.239   6.355  1.0698 -0.0559 -0.3939
 1001MOL0     O32001   0.866   7.723   1.401  0.4556  0.3344  1.0834
 1001MOL0     C32002   0.985   7.723   1.440  0.9090 -0.2294  0.5315
 1001MOL0     O32003   1.076   7.818   1.413  0.0187 -0.4451  0.6696
 1001MOL0     C32004   1.060   7.919   1.312  0.0415 -0.4829 -0.1311
 1001MOL0     C32005   1.009   7.905   1.183  0.7542  0.4141 -0.0211
 1001MOL0     C32006   0.970   8.020   1.110  0.9448 -0.5478  0.1645
 1001MOL0     C32007   1.001   8.151   1.159 -0.1923 -0.7803 -0.0820
 1001MOL0     O32008   0.952   8.262   1.085  0.0971  0.6050  0.0545
 1001MOL0     C32009   0.941   8.389   1.149 -0.2065  0.0513  0.5005
 1001MOL0     C32010   0.853   8.488   1.082  0.7744 -0.1327  0.5457
 1001MOL0     C32011   0.861   8.495   0.924  0.6749 -0.3413  0.4730
 1001MOL0     C32012   0.761   8.596   0.869  0.3038  0.6307 -0.0942
 1001MOL0     C32013   0.779   8.636   0.724  0.1706  1.1643  0.4101
 1001MOL0     C32014   0.670   8.710   0.662  0.1182  0.1881  0.1091
 1001MOL0     C32015   0.706   8.815   0.554 -0.1478  0.5336 -0.0964
 1001MOL0     C32016   0.761   8.751   0.430 -0.2101 -0.3243  0.1980
 1001MOL0     N32017   0.814   8.836   0.323  0.1795 -0.0754  0.4394
 1001MOL0     C32018   0.732   8.913   0.243 -0.9758 -0.7237  0.5933
 1001MOL0     C32019   0.813   9.007   0.185  0.5908 -0.3457 -0.5504
 1001MOL0     C32020   0.769   9.114   0.086  0.4369 -0.9228  0.1153
 1001MOL0     C32021   0.754   9.049  -0.053  0.4507 -0.7878 -0.5748
 1001MOL0     C32022   0.754   9.164  -0.161 -0.3654  0.3335 -0.2818
 1001MOL0     C32023   0.881   9.226  -0.210 -0.0072  0.0694  0.3569
 1001MOL0     O32024   0.951   9.317  -0.119 -0.3093 -0.0690 -0.3018
 1001MOL0     C32025   1.067   9.370  -0.169 -0.2288 -0.2822 -0.9625
 1001MOL0     C32026   1.161   9.399  -0.069 -0.5144  0.1574 -0.3504
 1001MOL0     C32027   1.290   9.450  -0.096  0.0253  0.5756  1.4001
 1001MOL0     C32028   1.320   9.482  -0.233  0.9335 -0.3788 -0.0851
 1001MOL0     C32029   1.447   9.553  -0.268 -0.3311 -0.2702 -0.9374
 1001MOL0     O32030   1.471   9.574  -0.402  0.1381  0.4443 -0.2238
 1001MOL0     C32031   1.597   9.625  -0.444  0.1545  0.7830  0.0344
 1001MOL0     C32032   1.725   9.598  -0.398 -1.2896  0.2500  0.4282
 1001MOL0     C32033   1.828   9.684  -0.434  0.1097  0.1890 -0.4639
 1001MOL0     C32034   1.814   9.778  -0.533 -1.2393  0.1451 -0.0675
 1001MOL0     O32035   1.923   9.854  -0.562  0.0109 -1.1525  0.1313
 1001MOL0     C32036   1.923   9.927  -0.689 -0.9814  0.9582 -0.3353
 1001MOL0     C32037   2.077   9.938  -0.736 -1.1444  1.3905 -0.3137
 1001MOL0     C32038   2.105   9.986  -0.873  0.9074  0.2473  0.4710
 1001MOL0     C32039   2.231   9.939  -0.943  0.3678  1.1674  0.8162
 1001MOL0     C32040   2.347   9.936  -0.852 -0.0219 -0.2794  0.2782
 1001MOL0     C32041   2.465   9.985  -0.926  0.3892  0.3457  0.0508
 1001MOL0     C32042   2.594   9.939  -0.860  0.5346 -0.6768 -0.1174
 1001MOL0     C32043   2.721   9.974  -0.938  0.4141 -0.3692 -0.4118
 1001MOL0    Cl32044   2.767  10.138  -0.876  0.0456  0.3085  0.1085
 1001MOL0     C32045   1.692   9.806  -0.583 -0.2978  0.1573  0.2039
 1001MOL0     C32046   1.581   9.729  -0.539 -0.6445  0.7636 -0.3869
 1001MOL0     O32047   1.521   9.578  -0.163 -0.8144  0.6086  0.1090
 1001MOL0     C32048   1.224   9.453  -0.336 -1.0872 -0.0038 -0.0231
 1001MOL0     C32049   1.096   9.395  -0.299  0.4731 -0.3049  0.9232
 1001MOL0     N32050   0.938   8.974   0.225 -0.0718 -0.1846 -0.2275
 1001MOL0     N32051   0.948   8.877   0.314  0.6780 -0.2441  0.4032
 1001MOL0     C32052   1.091   8.166   1.270 -0.1183  1.0161  1.0675
 1001MOL0     C32053   1.101   8.049   1.347 -1.4010 -0.8955 -0.2724
 1001MOL0     C32054   1.031   7.601   1.513  0.4597  0.2641 -0.6231
 1001MOL0     C32055   1.160   7.580   1.555 -0.1586  0.0799 -1.2162
 1001MOL0     C32056   1.200   7.458   1.611 -0.3013 -0.2230 -0.0853
 1001MOL0     C32057   1.112   7.361   1.642  0.1349 -0.3175 -0.3954
 1001MOL0     O32058   1.130   7.235   1.696 -0.4923 -0.0353  0.2499
 1001MOL0     C32059   1.241   7.201   1.769 -0.4149 -0.7635  0.7574
 1001MOL0     C32060   1.230   7.268   1.906  0.0594 -0.0647  0.1433
 1001MOL0     C32061   1.141   7.200   1.995  0.3593  0.5017 -0.3119
 1001MOL0     C32062   1.155   7.236   2.142  0.0938 -0.0859  0.4597
 1001MOL0     C32063   1.101   7.363   2.178 -0.4134  0.4746 -0.1751
 1001MOL0     C32064   1.090   7.486   2.189  0.8300 -0.3813 -0.7180
 1001MOL0     C32065   0.978   7.384   1.604  1.3389  0.1721  0.0216
 1001MOL0     C32066   0.941   7.503   1.548  0.4094  0.7583 -0.8980
 1001MOL0     H32067   0.989   7.800   1.160  1.3985 -0.5466  3.3173
 1001MOL0     H32068   0.908   8.017   1.021  0.8107  1.4495  0.1396
 1001MOL0     H32069   1.045   8.423   1.158  0.2393 -1.2501  0.5047
 1001MOL0     H32070   0.906   8.372   1.251  2.4591 -2.2886  1.1492
 1001MOL0     H32071   0.872   8.590   1.117  3.1943  1.5508 -4.6325
 1001MOL0     H32072   0.752   8.453   1.105  0.2851 -0.0471 -1.3171
 1001MOL0     H32073   0.841   8.401   0.871 -2.0106  1.2806 -1.6281
 1001MOL0     H32074   0.963   8.527   0.902  1.3387 -1.7916  1.2445
 1001MOL0     H32075   0.663   8.550   0.884  1.3432 -2.2772 -1.6567
 1001MOL0     H32076   0.759   8.683   0.936 -1.3438  0.2615  0.3733
 1001MOL0     H32077   0.808   8.542   0.675  0.9087  1.1940  0.7764
 1001MOL0     H32078   0.868   8.699   0.713  1.2723 -0.1034  1.6360
 1001MOL0     H32079   0.620   8.755   0.748  0.6720 -2.2336  1.8054
 1001MOL0     H32080   0.594   8.649   0.611 -1.9038  0.3663  2.7188
 1001MOL0     H32081   0.622   8.879   0.525 -0.2032 -0.7395 -3.2009
 1001MOL0     H32082   0.782   8.879   0.599 -2.0274  0.5962  3.3091
 1001MOL0     H32083   0.697   8.676   0.383 -0.0941  0.2247 -0.8613
 1001MOL0     H32084   0.848   8.689   0.457  1.0142  1.5833  0.8570
 1001MOL0     H32085   0.625   8.903   0.230 -1.2613  2.2682 -0.2083
 1001MOL0     H32086   0.850   9.188   0.078  0.0846 -0.6179 -0.7024
 1001MOL0     H32087   0.673   9.162   0.106  0.2089 -1.3332  0.0118
 1001MOL0     H32088   0.660   8.993  -0.055  0.1992 -0.5142  1.3285
 1001MOL0     H32089   0.835   8.976  -0.063 -1.4896 -3.2490  0.5599
 1001MOL0     H32090   0.699   9.135  -0.251  0.3323  1.2078 -1.0077
 1001MOL0     H32091   0.693   9.244  -0.118  0.4109  0.0003  1.5151
 1001MOL0     H32092   0.850   9.285  -0.297 -3.2658 -1.2577  0.4644
 1001MOL0     H32093   0.949   9.147  -0.240 -1.2468 -0.4866 -1.0864
 1001MOL0     H32094   1.141   9.382   0.036 -1.1847 -2.2169 -0.8054
 1001MOL0     H32095   1.368   9.462  -0.022  2.3461  1.9799 -1.0710
 1001MOL0     H32096   1.738   9.535  -0.310 -0.8575  1.4255  1.2333
 1001MOL0     H32097   1.927   9.663  -0.395  0.3364 -1.8655 -2.0166
 1001MOL0     H32098   1.864  10.019  -0.697 -3.2384 -0.5337 -3.4800
 1001MOL0     H32099   1.878   9.857  -0.760  0.5945  0.8470 -1.2824
 1001MOL0     H32100   2.111   9.834  -0.743 -1.6260  0.9597  2.4218
 1001MOL0     H32101   2.135  10.004  -0.671 -0.9467  2.0613 -1.1497
 1001MOL0     H32102   2.088  10.094  -0.874 -3.0824 -0.2206  0.4074
 1001MOL0     H32103   2.026   9.945  -0.936 -0.5870  1.3986  1.5173
 1001MOL0     H32104   2.203   9.840  -0.980 -1.8315  0.5183  3.7677
 1001MOL0     H32105   2.236  10.008  -1.027 -0.3755 -0.3319 -0.5144
 1001MOL0     H32106   2.354   9.833  -0.815  1.0661 -1.7562 -3.5859
 1001MOL0     H32107   2.336   9.997  -0.762 -4.6571  0.1488 -0.3252
 1001MOL0     H32108   2.449  10.092  -0.935 -0.6005  0.0500 -2.8624
 1001MOL0     H32109   2.473   9.948  -1.029 -2.3145  0.6996 -0.3612
 1001MOL0     H32110   2.610   9.986  -0.762  1.2681  0.8044 -0.9126
 1001MOL0     H32111   2.606   9.832  -0.840  1.1855 -0.1223  2.9042
 1001MOL0     H32112   2.710   9.964  -1.046  4.2761 -1.9387 -0.8284
 1001MOL0     H32113   2.796   9.903  -0.903 -0.2080 -1.9217 -2.1134
 1001MOL0     H32114   1.668   9.880  -0.659  3.1930 -1.8317 -3.1686
 1001MOL0     H32115   1.480   9.764  -0.562 -0.4777 -0.2666 -3.1584
 1001MOL0     H32116   1.246   9.479  -0.440  2.0427  1.8314  0.9490
 1001MOL0     H32117   1.020   9.387  -0.376  0.1642  1.6740  0.9871
 1001MOL0     H32118   1.135   8.258   1.307 -0.4804  0.6397  2.5079
 1001MOL0     H32119   1.157   8.058   1.440 -2.5878 -0.7570  0.4555
 1001MOL0     H32120   1.244   7.642   1.528 -0.7955  0.4405 -2.4477
 1001MOL0     H32121   1.306   7.436   1.621  0.1517  2.3350  1.6628
 1001MOL0     H32122   1.321   7.254   1.718 -2.3368 -1.4101 -3.3408
 1001MOL0     H32123   1.258   7.093   1.772  0.5057 -0.6464  0.0470
 1001MOL0     H32124   1.331   7.255   1.948 -0.8594 -3.1670  1.7856
 1001MOL0     H32125   1.204   7.373   1.913  4.9622  1.3915  0.7050
 1001MOL0     H32126   1.152   7.093   1.973 -0.7499  0.8728 -3.1061
 1001MOL0     H32127   1.039   7.230   1.969  0.0365  0.2188  0.5740
 1001MOL0     H32128   1.094   7.172   2.207  2.2561  0.5100  3.2948
 1001MOL0     H32129   1.258   7.237   2.180 -0.5943  1.1276  2.4358
 1001MOL0     H32130   1.101   7.592   2.205  2.8563 -0.4402 -1.4663
 1001MOL0     H32131   0.898   7.316   1.633 -0.4817  2.1082 -0.1913
 1001MOL0     H32132   0.838   7.504   1.512 -0.0953 -2.6221  0.1019
 1002MOL0     O32133   1.822  10.441   2.194  0.8696 -0.1083 -0.1672
 1002MOL0     C32134   1.911  10.391   2.269  0.1532  0.4255  0.4959
 1002MOL0     O32135   2.036  10.357   2.225  0.1852  0.0139 -0.2618
 1002MOL0     C32136   2.061  10.380   2.088 -0.1031  0.2934  0.8389
 1002MOL0     C32137   2.092  10.267   2.010 -0.7519 -0.2952 -0.3362
 1002MOL0     C32138   2.149  10.300   1.889  0.3049  0.4008  0.3784
 1002MOL0     C32139   2.161  10.430   1.824  0.2319 -0.2077 -0.7205
 1002MOL0     O32140   2.189  10.433   1.695  0.0529 -0.1791  0.7293
 1002MOL0     C32141   2.223  10.559   1.638  1.0530 -0.4485  0.2562
 1002MOL0     C32142   2.261  10.558   1.492  0.2384 -0.5014 -0.6550
 1002MOL0     C32143   2.152  10.499   1.404 -0.2493  0.0030  0.2654
 1002MOL0     C32144   2.215  10.445   1.285 -0.4661 -0.2929  0.2494
 1002MOL0     C32145   2.106  10.373   1.197 -0.3054  0.5656  0.2775
 1002MOL0     C32146   2.173  10.333   1.064  0.0037  0.9993  0.6409
 1002MOL0     C32147   2.260  10.209   1.078 -0.0310  0.0831  0.4111
 1002MOL0     C32148   2.381  10.215   0.994  0.4445 -0.4261  0.4675
 1002MOL0     N32149   2.373  10.194   0.847  0.6222 -0.5321 -0.5623
 1002MOL0     C32150   2.336  10.075   0.789 -0.3937 -0.5666 -0.2110
 1002MOL0     C32151   2.356  10.097   0.652  0.0279 -0.3909  0.1127
 1002MOL0     C32152   2.317   9.999   0.549 -0.3740  1.2008  0.5111
 1002MOL0     C32153   2.424   9.938   0.469  0.5319 -1.9695  0.5344
 1002MOL0     C32154   2.385   9.808   0.414 -0.2199  0.4657 -0.2176
 1002MOL0     C32155   2.503   9.742   0.323 -0.5163  0.0635  0.2955
 1002MOL0     O32156   2.455   9.630   0.248 -0.5109  2.0358 -0.8371
 1002MOL0     C32157   2.411   9.630   0.121  0.1306 -0.3995  0.1957
 1002MOL0     C32158   2.394   9.499   0.066 -0.7245  0.1352  0.2339
 1002MOL0     C32159   2.345   9.482  -0.070 -0.1145 -0.0073  1.2897
 1002MOL0     C32160   2.331   9.608  -0.148 -1.1613  1.1308 -0.5089
 1002MOL0     C32161   2.294   9.604  -0.295  1.1370  0.8249 -0.2572
 1002MOL0     O32162   2.289   9.481  -0.353 -0.6506  0.2337  0.9800
 1002MOL0     C32163   2.247   9.456  -0.480 -1.0706 -0.3332 -0.5475
 1002MOL0     C32164   2.170   9.542  -0.566  0.6983  0.2084 -0.1959
 1002MOL0     C32165   2.150   9.508  -0.691  0.5052 -0.1905  0.3319
 1002MOL0     C32166   2.186   9.381  -0.738 -0.2508 -0.3457  0.1910
 1002MOL0     O32167   2.153   9.347  -0.868 -0.4869 -0.7687  0.0410
 1002MOL0     C32168   2.154   9.210  -0.911 -0.3923 -0.8520 -0.0125
 1002MOL0     C32169   2.103   9.204  -1.059  0.1584  0.1930  0.5178
 1002MOL0     C32170   1.955   9.255  -1.095 -0.9177 -0.6376 -0.3206
 1002MOL0     C32171   1.911   9.183  -1.230 -0.6130 -0.4677 -0.3457
 1002MOL0     C32172   1.778   9.222  -1.285 -0.8348  0.1849  0.0762
 1002MOL0     C32173   1.714   9.139  -1.384  0.3975 -0.7127  0.1321
 1002MOL0     C32174   1.787   9.148  -1.515  0.3561  0.2158 -0.0730
 1002MOL0     C32175   1.716   9.078  -1.632  0.6366  0.8210  0.3069
 1002MOL0    Cl32176   1.739   8.890  -1.641 -0.7871  0.1636  0.2432
 1002MOL0     C32177   2.267   9.300  -0.657 -0.5065 -0.4613 -0.2056
 1002MOL0     C32178   2.295   9.337  -0.528  0.8833 -0.4052  0.1432
 1002MOL0     O32179   2.283   9.710  -0.349  0.4151  0.1678  0.7575
 1002MOL0     C32180   2.339   9.731  -0.080 -0.8920  1.1158  0.1875
 1002MOL0     C32181   2.377   9.742   0.052 -0.2228  1.0821  0.7664
 1002MOL0     N32182   2.395  10.228   0.639 -0.4071  0.0544 -0.3909
 1002MOL0     N32183   2.418  10.284   0.757 -0.9040 -0.2743  0.0048
 1002MOL0     C32184   2.119  10.528   1.906 -0.1213 -0.0958 -0.0209
 1002MOL0     C32185   2.092  10.509   2.042 -1.1066 -0.3511  1.6764
 1002MOL0     C32186   1.878  10.355   2.397  0.2336 -0.3909 -0.6756
 1002MOL0     C32187   1.974  10.358   2.494 -0.5828 -0.7934 -0.1078
 1002MOL0     C32188   1.943  10.307   2.622 -1.0351 -0.5374  0.6882
 1002MOL0     C32189   1.817  10.280   2.658  0.8160 -0.2384  0.2326
 1002MOL0     O32190   1.777  10.251   2.785  0.5758  0.3975 -0.5135
 1002MOL0     C32191   1.874  10.216   2.885  0.2374 -0.0419 -0.6694
 1002MOL0     C32192   1.789  10.191   3.007  0.4060 -0.4014  0.0813
 1002MOL0     C32193   1.861  10.105   3.114  0.3436  0.5779 -0.7047
 1002MOL0     C32194   1.891   9.951   3.101 -0.3543  1.3849 -0.3796
 1002MOL0     C32195   1.793   9.866   3.043  1.1632  1.2855 -1.2107
 1002MOL0     C32196   1.712   9.772   3.010 -0.2990 -1.3866  0.6794
 1002MOL0     C32197   1.714  10.302   2.573 -0.9088 -0.3366  0.2555
 1002MOL0     C32198   1.741  10.329   2.437 -0.0900  0.1475 -1.0021
 1002MOL0     H32199   2.077  10.171   2.058 -3.4869 -0.2156 -0.9106
 1002MOL0     H32200   2.182  10.221   1.822 -2.9982 -0.0817 -0.8614
 1002MOL0     H32201   2.299  10.616   1.690  2.9095 -2.0701 -0.5518
 1002MOL0     H32202   2.131  10.617   1.648  0.5007 -1.1334 -0.6516
 1002MOL0     H32203   2.355  10.504   1.480  0.4207 -0.0508 -1.3276
 1002MOL0     H32204   2.287  10.655   1.448  1.5105  0.1850  1.4645
 1002MOL0     H32205   2.088  10.581   1.370 -0.1817 -0.4079 -0.8896
 1002MOL0     H32206   2.089  10.427   1.458 -0.3126  1.8349  2.8212
 1002MOL0     H32207   2.262  10.525   1.226 -0.4596 -1.3312 -1.2142
 1002MOL0     H32208   2.285  10.365   1.309 -1.2960 -1.1898 -0.2324
 1002MOL0     H32209   2.026  10.447   1.183  0.3628  1.9681  3.1643
 1002MOL0     H32210   2.076  10.283   1.251  6.9348 -2.1560  0.8117
 1002MOL0     H32211   2.235  10.414   1.026 -1.4324  3.6704  3.5148
 1002MOL0     H32212   2.101  10.317   0.983 -2.1598 -0.3718  2.6899
 1002MOL0     H32213   2.296  10.188   1.179 -0.9242 -1.0519  0.5109
 1002MOL0     H32214   2.201  10.125   1.040 -1.3151  0.9659  0.3737
 1002MOL0     H32215   2.451  10.143   1.039 -0.0933 -0.4416  1.2944
 1002MOL0     H32216   2.436  10.307   1.018  1.1243 -1.0172  1.2585
 1002MOL0     H32217   2.323   9.987   0.852  4.0333 -1.2230  0.0854
 1002MOL0     H32218   2.233  10.027   0.484  0.5841 -0.9601 -1.7756
 1002MOL0     H32219   2.275   9.914   0.604  1.4353 -0.8764 -1.1592
 1002MOL0     H32220   2.514   9.916   0.528  0.2534 -1.7312  1.0561
 1002MOL0     H32221   2.450  10.006   0.387 -1.9647 -2.2040 -0.5200
 1002MOL0     H32222   2.346   9.743   0.493 -0.2574  1.8699  0.9580
 1002MOL0     H32223   2.294   9.829   0.358 -1.8842  1.7738  2.7040
 1002MOL0     H32224   2.580   9.715   0.395 -1.4878 -0.8256  1.0411
 1002MOL0     H32225   2.548   9.815   0.255  2.1336 -1.9143 -0.2447
 1002MOL0     H32226   2.420   9.415   0.130 -0.0207 -0.5783 -0.9451
 1002MOL0     H32227   2.327   9.388  -0.120  0.1586 -0.1466  1.4506
 1002MOL0     H32228   2.139   9.644  -0.544 -0.0791  0.1876 -1.1211
 1002MOL0     H32229   2.097   9.581  -0.751  0.9938  2.2755  2.6921
 1002MOL0     H32230   2.082   9.157  -0.848 -1.5206 -1.6995 -1.9162
 1002MOL0     H32231   2.249   9.157  -0.913 -2.5247 -5.0860 -1.9984
 1002MOL0     H32232   2.092   9.101  -1.094 -0.9733  1.3127 -2.7277
 1002MOL0     H32233   2.182   9.249  -1.119  0.0573 -0.5133 -0.1610
 1002MOL0     H32234   1.940   9.364  -1.092  0.7889 -0.3991  0.9486
 1002MOL0     H32235   1.894   9.219  -1.012 -1.1250  0.6081  0.0934
 1002MOL0     H32236   1.983   9.218  -1.305 -0.1230  1.7182  1.0618
 1002MOL0     H32237   1.924   9.079  -1.198  3.8259  0.5530  2.0559
 1002MOL0     H32238   1.783   9.324  -1.325  0.4892  0.8204  1.7575
 1002MOL0     H32239   1.713   9.233  -1.198 -1.7998  2.3167 -0.8444
 1002MOL0     H32240   1.614   9.183  -1.387 -0.4550 -2.5940 -2.0798
 1002MOL0     H32241   1.702   9.039  -1.344  0.7286 -0.6185  0.4738
 1002MOL0     H32242   1.805   9.251  -1.547  0.0537 -0.5030 -2.8228
 1002MOL0     H32243   1.887   9.104  -1.508  0.5697  0.6322 -0.4964
 1002MOL0     H32244   1.736   9.109  -1.735 -0.9750 -3.4112 -1.5093
 1002MOL0     H32245   1.609   9.092  -1.618  0.2525 -3.2382  2.7155
 1002MOL0     H32246   2.297   9.203  -0.695  3.2187  0.1555  0.6521
 1002MOL0     H32247   2.346   9.272  -0.458 -3.1056 -4.0612  0.1035
 1002MOL0     H32248   2.311   9.825  -0.127 -1.7770  1.4215  1.2944
 1002MOL0     H32249   2.389   9.840   0.099 -2.4294  1.7285  0.0879
 1002MOL0     H32250   2.125  10.631   1.871 -1.1311  1.2635  3.4339
 1002MOL0     H32251   2.070  10.586   2.115  1.4074  1.6624  0.4595
 1002MOL0     H32252   2.075  10.391   2.473  0.4491 -0.7667  4.0190
 1002MOL0     H32253   2.025  10.305   2.693 -2.3379 -0.0666  2.2724
 1002MOL0     H32254   1.939  10.300   2.911  1.4470 -1.2089  0.1762
 1002MOL0     H32255   1.931  10.130   2.851  2.0424 -0.0308  2.0816
 1002MOL0     H32256   1.764  10.282   3.062  2.2225  0.8184 -1.0128
 1002MOL0     H32257   1.699  10.135   2.979  1.1815 -0.9192 -1.5053
 1002MOL0     H32258   1.793  10.103   3.199  1.5465 -0.7136  0.2779
 1002MOL0     H32259   1.959  10.148   3.138  2.0873 -2.9216 -0.8633
 1002MOL0     H32260   1.983   9.942   3.043  1.9921  0.9386  3.1582
 1002MOL0     H32261   1.903   9.913   3.202  1.0826 -0.2987 -1.1360
 1002MOL0     H32262   1.649   9.693   2.975  0.6136 -1.8032 -0.0742
 1002MOL0     H32263   1.618  10.270   2.611 -0.7100  0.7268  1.7416
 1002MOL0     H32264   1.668  10.311   2.359 -0.7443 -2.3463  0.1032
 1003MOL0     O32265   2.435  11.347   0.703  0.9024 -0.6552 -0.5985
 1003MOL0     C32266   2.545  11.320   0.748  0.0750 -0.0921 -0.0540
 1003MOL0     O32267   2.585  11.191   0.763  0.2555  0.7529  0.8290
 1003MOL0     C32268   2.528  11.093   0.691  0.7340  0.8292 -0.5914
 1003MOL0     C32269   2.438  11.005   0.741  0.8261  0.1737 -0.1965
 1003MOL0     C32270   2.400  10.892   0.671  0.0570 -0.4190 -0.0018
 1003MOL0     C32271   2.453  10.873   0.540  0.9916 -0.2503 -0.0344
 1003MOL0     O32272   2.429  10.754   0.478  0.3584  0.3580  0.6285
 1003MOL0     C32273   2.552  10.670   0.460  0.6277  0.5928  0.6208
 1003MOL0     C32274   2.548  10.549   0.562 -0.6396  0.5501  0.8942
 1003MOL0     C32275   2.660  10.458   0.540 -0.4556 -0.7964  0.3741
 1003MOL0     C32276   2.677  10.381   0.403 -0.7102  0.2277  0.3432
 1003MOL0     C32277   2.814  10.324   0.387  0.2600  0.4798 -0.0940
 1003MOL0     C32278   2.832  10.251   0.254  0.8851  0.9507 -0.2369
 1003MOL0     C32279   2.978  10.197   0.249 -0.0215  0.3706  0.4787
 1003MOL0     C32280   3.004  10.121   0.120 -0.0663 -0.0180  0.6225
 1003MOL0     N32281   2.938   9.987   0.111  0.7473  0.1248 -1.3711
 1003MOL0     C32282   2.863   9.944   0.015  0.8192 -0.1373 -0.2183
 1003MOL0     C32283   2.813   9.825   0.052 -1.9885 -0.0606 -0.2672
 1003MOL0     C32284   2.723   9.753  -0.035 -0.2868  1.2538 -0.6752
 1003MOL0     C32285   2.803   9.652  -0.107 -0.2037 -0.1539  0.0574
 1003MOL0     C32286   2.713   9.533  -0.153 -0.4388 -0.8160 -0.0930
 1003MOL0     C32287   2.712   9.420  -0.049 -0.6616 -0.2581 -0.6477
 1003MOL0     O32288   2.842   9.366  -0.039 -0.0749 -0.4183  0.5918
 1003MOL0     C32289   2.899   9.286  -0.133  0.2471 -0.4413 -0.0852
 1003MOL0     C32290   3.024   9.231  -0.097  0.1546  0.4480 -1.5296
 1003MOL0     C32291   3.091   9.134  -0.176 -1.1758 -0.1418 -0.1507
 1003MOL0     C32292   3.028   9.099  -0.295 -0.4316  0.9914 -1.1972
 1003MOL0     C32293   3.090   8.998  -0.381  0.1639  0.0179  0.7867
 1003MOL0     O32294   3.007   8.925  -0.463 -0.4204  0.1843  0.3392
 1003MOL0     C32295   3.054   8.862  -0.570  0.3243 -0.4736  0.0330
 1003MOL0     C32296   2.992   8.738  -0.610  0.0180  0.1211  0.2542
 1003MOL0     C32297   3.041   8.658  -0.725 -0.1457 -0.6219  0.1890
 1003MOL0     C32298   3.154   8.708  -0.793  0.2532  0.3449  0.0729
 1003MOL0     O32299   3.203   8.650  -0.897 -0.5710 -0.0394 -0.2614
 1003MOL0     C32300   3.138   8.699  -1.014  0.5178 -0.2960 -0.1322
 1003MOL0     C32301   3.246   8.710  -1.123 -1.0503  0.7785  0.3663
 1003MOL0     C32302   3.315   8.576  -1.159  0.1396 -0.1871  0.0408
 1003MOL0     C32303   3.219   8.480  -1.233  0.6447  0.0993 -0.0598
 1003MOL0     C32304   3.187   8.523  -1.373 -0.3516 -0.8365 -0.4742
 1003MOL0     C32305   3.083   8.427  -1.415 -0.0213 -0.4627  0.3644
 1003MOL0     C32306   3.058   8.414  -1.563  0.4214  0.2721  0.2940
 1003MOL0     C32307   2.984   8.538  -1.619  1.4613 -0.4668 -0.7050
 1003MOL0    Cl32308   2.822   8.570  -1.544 -0.3812  0.2492 -0.4437
 1003MOL0     C32309   3.214   8.831  -0.749 -0.4956 -0.0693 -0.2069
 1003MOL0     C32310   3.168   8.899  -0.640 -0.3120 -0.6347 -1.2659
 1003MOL0     O32311   3.213   8.977  -0.377 -0.1783 -0.1903  0.2472
 1003MOL0     C32312   2.903   9.152  -0.330  0.1800  0.5346  0.2103
 1003MOL0     C32313   2.835   9.234  -0.246 -0.3263  0.1281 -0.3415
 1003MOL0     N32314   2.864   9.787   0.172 -0.8891  0.1127 -1.1571
 1003MOL0     N32315   2.946   9.885   0.211  0.4349  0.7446  0.4556
 1003MOL0     C32316   2.533  10.968   0.482  0.6685 -0.2005  0.4580
 1003MOL0     C32317   2.581  11.069   0.565 -0.6225 -0.4641 -0.9936
 1003MOL0     C32318   2.644  11.417   0.796  0.4630  0.0735  0.5452
 1003MOL0     C32319   2.614  11.560   0.786 -0.6130  0.0716  0.4230
 1003MOL0     C32320   2.707  11.651   0.838  0.2934  0.6876 -0.6329
 1003MOL0     C32321   2.827  11.610   0.891 -0.2336 -0.5026  0.3799
 1003MOL0     O32322   2.930  11.674   0.956 -0.1991  0.1951  0.2217
 1003MOL0     C32323   2.941  11.817   0.964 -0.3212  0.3621  1.3424
 1003MOL0     C32324   3.068  11.868   0.881 -0.2772 -1.2470  0.3312
 1003MOL0     C32325   3.195  11.823   0.963  0.8042  0.2726  0.6426
 1003MOL0     C32326   3.252  11.687   0.931  0.2498  0.5299  0.6655
 1003MOL0     C32327   3.383  11.670   0.992  0.5781  0.7091  0.2490
 1003MOL0     C32328   3.495  11.660   1.038  0.3208  0.3063 -0.0662
 1003MOL0     C32329   2.854  11.474   0.897 -0.2018  0.0453  0.5924
 1003MOL0     C32330   2.763  11.377   0.850  0.3257  0.2882 -1.2336
 1003MOL0     H32331   2.392  11.033   0.835  2.8371  0.7752  0.6635
 1003MOL0     H32332   2.331  10.829   0.727 -0.5596  1.5264  1.5740
 1003MOL0     H32333   2.643  10.730   0.468  0.7652  0.4570  0.0984
 1003MOL0     H32334   2.551  10.620   0.363 -2.3039 -1.0819  1.3837
 1003MOL0     H32335   2.452  10.495   0.555 -0.2323 -0.7680  3.7524
 1003MOL0     H32336   2.554  10.588   0.664  0.8330 -2.5206  2.1028
 1003MOL0     H32337   2.662  10.380   0.617  0.9915 -1.8551 -0.6551
 1003MOL0     H32338   2.757  10.503   0.564 -0.4825 -0.7732  0.4391
 1003MOL0     H32339   2.617  10.289   0.397  1.7251 -1.3834 -1.8203
 1003MOL0     H32340   2.640  10.438   0.317  2.5478 -1.4724 -2.4359
 1003MOL0     H32341   2.838  10.261   0.474 -0.7862  1.6656  1.1000
 1003MOL0     H32342   2.877  10.413   0.379 -0.9732  1.3038 -0.8509
 1003MOL0     H32343   2.819  10.321   0.171 -0.9519 -1.8733 -2.5480
 1003MOL0     H32344   2.762  10.167   0.250  0.8889  0.9563 -0.4857
 1003MOL0     H32345   3.039  10.286   0.263  1.7884 -0.6409 -0.5618
 1003MOL0     H32346   2.987  10.120   0.326 -1.4702 -0.9094 -0.5720
 1003MOL0     H32347   3.111  10.099   0.119 -0.0852 -0.3899 -2.4786
 1003MOL0     H32348   2.985  10.182   0.031  1.1855 -0.2966  0.1420
 1003MOL0     H32349   2.826   9.997  -0.072  0.7131 -1.6290 -1.1123
 1003MOL0     H32350   2.663   9.811  -0.106 -0.2496 -0.1669 -1.9140
 1003MOL0     H32351   2.648   9.708   0.030  1.1634 -4.0979 -2.2593
 1003MOL0     H32352   2.885   9.620  -0.041  1.9286  1.2141 -1.7997
 1003MOL0     H32353   2.848   9.693  -0.198  0.5058  1.1728  0.9825
 1003MOL0     H32354   2.609   9.559  -0.175 -1.4767 -1.9473  3.0147
 1003MOL0     H32355   2.756   9.511  -0.252  1.7989  0.6691  0.4745
 1003MOL0     H32356   2.637   9.345  -0.075 -0.8810  0.0877 -1.0192
 1003MOL0     H32357   2.672   9.452   0.048 -2.8027  2.0951 -2.1864
 1003MOL0     H32358   3.074   9.264  -0.006 -0.9146 -0.1959 -0.6856
 1003MOL0     H32359   3.184   9.082  -0.155 -0.9058  0.9029  1.3605
 1003MOL0     H32360   2.906   8.701  -0.554 -2.1001  2.7339 -1.0258
 1003MOL0     H32361   2.982   8.570  -0.751  0.2930 -1.2177  1.1436
 1003MOL0     H32362   3.102   8.800  -0.995  2.6317  0.3938  0.5004
 1003MOL0     H32363   3.051   8.633  -1.026  3.5048 -4.4957 -1.2687
 1003MOL0     H32364   3.321   8.785  -1.096  0.1330 -0.6643  1.2389
 1003MOL0     H32365   3.199   8.750  -1.214  1.9559 -0.1283 -1.7574
 1003MOL0     H32366   3.340   8.532  -1.062  1.0165  0.5677  0.1762
 1003MOL0     H32367   3.419   8.583  -1.193 -0.1502 -0.2657 -0.8950
 1003MOL0     H32368   3.271   8.384  -1.241  2.5138  1.2042 -2.2922
 1003MOL0     H32369   3.129   8.463  -1.173  2.1587 -0.5865  2.1503
 1003MOL0     H32370   3.271   8.504  -1.440 -2.3210 -2.4283 -2.6417
 1003MOL0     H32371   3.151   8.627  -1.375  0.2756 -0.5917  0.2727
 1003MOL0     H32372   2.995   8.441  -1.352 -1.1760  0.8844 -1.4303
 1003MOL0     H32373   3.125   8.329  -1.392  1.7049  0.8849  3.6179
 1003MOL0     H32374   3.154   8.413  -1.615  1.4787 -2.3093  2.1025
 1003MOL0     H32375   3.011   8.318  -1.587 -1.0293  0.6461  1.4681
 1003MOL0     H32376   2.964   8.517  -1.725 -1.1846  0.7801 -0.5151
 1003MOL0     H32377   3.046   8.626  -1.603 -2.3167  2.2037  0.5398
 1003MOL0     H32378   3.292   8.883  -0.805 -2.1157  1.5272 -1.0945
 1003MOL0     H32379   3.228   8.983  -0.605 -2.8236 -0.0398  2.1886
 1003MOL0     H32380   2.860   9.118  -0.424  2.0242  0.3750 -0.6255
 1003MOL0     H32381   2.744   9.286  -0.275  1.7321  3.5576 -1.2894
 1003MOL0     H32382   2.566  10.950   0.380 -1.5879 -3.3634  0.1340
 1003MOL0     H32383   2.660  11.138   0.537 -0.4247  1.5863  3.7283
 1003MOL0     H32384   2.527  11.597   0.733  1.1035  1.2266 -1.7645
 1003MOL0     H32385   2.670  11.753   0.842 -1.3104  0.1024  1.7481
 1003MOL0     H32386   2.954  11.837   1.071  1.4344 -3.2635  1.9413
 1003MOL0     H32387   2.846  11.865   0.938  1.3587  3.5563  0.4696
 1003MOL0     H32388   3.076  11.814   0.786  1.5544  1.7385 -1.3510
 1003MOL0     H32389   3.088  11.975   0.870  0.4115 -1.5851 -2.3087
 1003MOL0     H32390   3.185  11.837   1.071  2.9481  0.3652  0.8809
 1003MOL0     H32391   3.272  11.893   0.931  0.9319 -0.4760 -0.7897
 1003MOL0     H32392   3.184  11.616   0.980 -1.8793  1.2015 -1.1389
 1003MOL0     H32393   3.266  11.669   0.824 -1.0714  2.7830  0.0407
 1003MOL0     H32394   3.595  11.651   1.075  0.3989 -0.7519 -0.5090
 1003MOL0     H32395   2.947  11.440   0.941 -0.7635 -0.8206  1.1363
 1003MOL0     H32396   2.791  11.272   0.858 -4.1706 -1.0788 -0.7133
 1004MOL0     O32397   4.004   8.061   3.648 -0.4809 -0.5402  0.3265
 1004MOL0     C32398   3.916   8.019   3.562 -1.0419 -0.7303 -0.1035
 1004MOL0     O32399   3.792   8.073   3.554  0.7168  0.6960 -0.2321
 1004MOL0     C32400   3.758   8.164   3.648  0.9925  0.2300  0.3500
 1004MOL0     C32401   3.787   8.166   3.787 -0.2890  0.2534  0.0631
 1004MOL0     C32402   3.731   8.254   3.878 -0.6803  0.0677  0.0255
 1004MOL0     C32403   3.642   8.348   3.834 -0.7832  0.2711  0.2727
 1004MOL0     O32404   3.595   8.450   3.911  0.9776  0.0670 -0.6825
 1004MOL0     C32405   3.677   8.518   4.017  0.7183 -0.1356 -0.6380
 1004MOL0     C32406   3.566   8.561   4.115  0.1429 -0.2152 -0.3678
 1004MOL0     C32407   3.603   8.680   4.205  0.0403  0.7209  0.2257
 1004MOL0     C32408   3.623   8.805   4.133  0.0907 -1.1879 -0.6059
 1004MOL0     C32409   3.630   8.913   4.249  0.6396 -0.5375 -0.1261
 1004MOL0     C32410   3.491   8.976   4.279  1.2711  0.7975 -0.0778
 1004MOL0     C32411   3.508   9.092   4.370 -0.4288 -0.0979  1.0502
 1004MOL0     C32412   3.373   9.164   4.379 -0.0956  0.3556 -0.3441
 1004MOL0     N32413   3.338   9.236   4.262  0.6209 -0.9308  0.2910
 1004MOL0     C32414   3.371   9.368   4.225 -0.5470  0.2334  0.1755
 1004MOL0     C32415   3.303   9.391   4.115  0.7950 -0.8581 -0.1973
 1004MOL0     C32416   3.294   9.531   4.050  0.6679  0.6197  0.2909
 1004MOL0     C32417   3.165   9.605   4.067  0.9886  0.8007 -0.1572
 1004MOL0     C32418   3.059   9.546   3.967  0.6571  0.3660  0.5600
 1004MOL0     C32419   2.932   9.632   3.966  0.0788  0.0118  0.6667
 1004MOL0     O32420   2.931   9.768   3.911 -0.2335 -0.5171  0.2639
 1004MOL0     C32421   2.836   9.786   3.815 -0.5264  0.3522  0.2243
 1004MOL0     C32422   2.751   9.891   3.825 -0.4424 -0.4006  0.5505
 1004MOL0     C32423   2.652   9.899   3.735  0.1631 -0.1746  0.0991
 1004MOL0     C32424   2.645   9.821   3.627 -0.3890  0.6908  0.3597
 1004MOL0     C32425   2.545   9.837   3.524 -0.5649  0.1748  0.5025
 1004MOL0     O32426   2.577   9.774   3.406 -0.8268  0.2366 -0.6364
 1004MOL0     C32427   2.512   9.820   3.295  0.5465  0.5293 -0.4770
 1004MOL0     C32428   2.583   9.904   3.210  0.0989 -0.0997 -0.6865
 1004MOL0     C32429   2.522   9.956   3.098  0.4535 -0.4253  0.1897
 1004MOL0     C32430   2.385   9.913   3.064 -1.2811 -0.0340 -0.4507
 1004MOL0     O32431   2.320   9.954   2.953  0.7955 -1.3306  0.6145
 1004MOL0     C32432   2.406   9.996   2.847 -0.4221 -0.3667  0.4380
 1004MOL0     C32433   2.339   9.962   2.710 -0.2602  0.0901  0.2655
 1004MOL0     C32434   2.210  10.040   2.671 -0.3191  0.5094 -0.0335
 1004MOL0     C32435   2.186  10.060   2.510 -0.2315 -1.0504  0.1610
 1004MOL0     C32436   2.222   9.952   2.408  0.6041 -0.2935 -0.1269
 1004MOL0     C32437   2.233  10.005   2.269 -0.3372 -0.1584  0.4142
 1004MOL0     C32438   2.227   9.882   2.187 -0.4770  0.4403 -0.1185
 1004MOL0     C32439   2.241   9.920   2.036 -0.5824 -1.1339 -0.1916
 1004MOL0    Cl32440   2.406   9.993   2.020 -0.2054  0.2110 -0.2126
 1004MOL0     C32441   2.316   9.822   3.162 -0.6409 -0.7374  0.3106
 1004MOL0     C32442   2.380   9.778   3.273 -0.5702 -0.2366  0.1964
 1004MOL0     O32443   2.448   9.909   3.543 -0.0917 -0.8869  0.5362
 1004MOL0     C32444   2.744   9.718   3.605 -0.4759 -0.5685 -0.5329
 1004MOL0     C32445   2.837   9.700   3.705  0.2844  0.3239 -0.2151
 1004MOL0     N32446   3.222   9.290   4.086  0.3258 -0.0642 -0.4023
 1004MOL0     N32447   3.249   9.191   4.164 -0.8808  0.1753 -0.7223
 1004MOL0     C32448   3.603   8.345   3.698 -0.3026  0.0329 -0.6881
 1004MOL0     C32449   3.662   8.260   3.607 -0.1080  0.9644 -0.0955
 1004MOL0     C32450   3.950   7.887   3.489  0.2517 -0.2698 -0.4880
 1004MOL0     C32451   3.852   7.826   3.408 -0.7527  0.9043  0.3150
 1004MOL0     C32452   3.867   7.711   3.351 -0.3205  1.3597 -0.1555
 1004MOL0     C32453   3.979   7.628   3.379 -0.5282 -0.5030  0.2358
 1004MOL0     O32454   3.974   7.492   3.319 -0.0443 -0.0400 -0.4282
 1004MOL0     C32455   4.075   7.408   3.373  0.4821  0.0179 -0.6957
 1004MOL0     C32456   4.068   7.271   3.301 -0.2056 -0.1757  1.0662
 1004MOL0     C32457   4.167   7.177   3.354  0.0977  0.9036  0.5781
 1004MOL0     C32458   4.195   7.051   3.258 -0.1844 -0.6935 -0.1171
 1004MOL0     C32459   4.288   6.957   3.316  0.4456 -0.0169  0.4611
 1004MOL0     C32460   4.364   6.873   3.359 -0.1146 -0.4270 -0.4871
 1004MOL0     C32461   4.079   7.679   3.463  0.2503  0.2572 -0.2659
 1004MOL0     C32462   4.068   7.812   3.509  0.4970 -0.0434 -0.3944
 1004MOL0     H32463   3.848   8.093   3.840  1.0463  1.2968  0.0101
 1004MOL0     H32464   3.775   8.256   3.977  2.7729 -1.9321 -1.3207
 1004MOL0     H32465   3.719   8.607   3.968 -1.1550  2.4331  2.0138
 1004MOL0     H32466   3.761   8.458   4.053  0.0440 -0.6178  0.1639
 1004MOL0     H32467   3.524   8.483   4.179 -1.4991  1.8456  1.2284
 1004MOL0     H32468   3.480   8.598   4.058 -1.8051  0.2554  2.6106
 1004MOL0     H32469   3.693   8.652   4.260  1.5040 -0.1067 -2.4028
 1004MOL0     H32470   3.517   8.689   4.272  1.5723  0.2170  2.3543
 1004MOL0     H32471   3.721   8.803   4.084  0.2235  2.5889 -0.7823
 1004MOL0     H32472   3.552   8.814   4.050  0.2528 -0.5025 -0.6720
 1004MOL0     H32473   3.690   8.989   4.199  2.4314 -1.7054  0.1692
 1004MOL0     H32474   3.689   8.890   4.338  2.3993  2.1083 -0.5045
 1004MOL0     H32475   3.424   8.898   4.314  2.1023  0.4115  0.7106
 1004MOL0     H32476   3.449   9.007   4.183  1.5980  0.3476 -0.3683
 1004MOL0     H32477   3.545   9.074   4.471  0.7168  0.6455  0.7835
 1004MOL0     H32478   3.574   9.168   4.326  3.6871 -2.5879  2.3271
 1004MOL0     H32479   3.358   9.218   4.473 -0.5278 -0.3830  0.0219
 1004MOL0     H32480   3.293   9.090   4.381  0.4966 -0.3280 -1.0505
 1004MOL0     H32481   3.434   9.439   4.277  1.5584 -1.4842  0.1310
 1004MOL0     H32482   3.314   9.520   3.943 -2.2293  0.3550 -0.2980
 1004MOL0     H32483   3.379   9.591   4.083  0.6941  0.4220  0.5849
 1004MOL0     H32484   3.184   9.709   4.039  1.0392  0.2554 -2.2812
 1004MOL0     H32485   3.135   9.606   4.172  2.3772  0.8526  0.2584
 1004MOL0     H32486   3.085   9.546   3.861 -1.0125  0.7074  0.1215
 1004MOL0     H32487   3.037   9.447   4.009 -0.5868  1.4806  2.6599
 1004MOL0     H32488   2.905   9.639   4.071 -0.0901 -1.5515  0.7456
 1004MOL0     H32489   2.851   9.573   3.923  1.0765 -0.4658 -0.6387
 1004MOL0     H32490   2.764   9.956   3.911 -3.8540  0.8369  0.2864
 1004MOL0     H32491   2.572   9.972   3.748  0.9837  1.0279 -1.3591
 1004MOL0     H32492   2.679   9.936   3.249  1.2070 -1.1767 -2.3663
 1004MOL0     H32493   2.591  10.011   3.035  2.5613  0.1156  2.7821
 1004MOL0     H32494   2.507   9.954   2.854 -0.6448 -0.8520  0.7693
 1004MOL0     H32495   2.421  10.103   2.861 -1.1283 -0.3304  0.9578
 1004MOL0     H32496   2.308   9.857   2.712  0.6286 -0.2026  3.1866
 1004MOL0     H32497   2.415   9.978   2.632  1.3755  0.2976  1.8475
 1004MOL0     H32498   2.216  10.136   2.723 -3.2659  1.9636 -2.0400
 1004MOL0     H32499   2.131   9.978   2.713  1.8170 -1.2370  1.5858
 1004MOL0     H32500   2.080  10.081   2.498 -0.0178  0.7386  1.0163
 1004MOL0     H32501   2.234  10.156   2.487 -0.5747  0.1491  3.7965
 1004MOL0     H32502   2.135   9.886   2.405  0.0139  0.4984 -1.0515
 1004MOL0     H32503   2.310   9.893   2.435  1.2756  1.5074  1.8762
 1004MOL0     H32504   2.326  10.062   2.260 -0.5955  0.0423 -1.2809
 1004MOL0     H32505   2.163  10.084   2.242  0.3724  0.4991  0.4758
 1004MOL0     H32506   2.306   9.811   2.211  0.7499  1.3227 -1.3366
 1004MOL0     H32507   2.142   9.821   2.217  1.0974 -1.3001  0.9936
 1004MOL0     H32508   2.162   9.976   1.985 -1.1989 -0.5333  1.3714
 1004MOL0     H32509   2.244   9.827   1.979  1.0310 -2.3592  1.7413
 1004MOL0     H32510   2.213   9.800   3.134 -1.7839  2.6267  1.3804
 1004MOL0     H32511   2.339   9.704   3.340  1.5004 -0.6543  1.0670
 1004MOL0     H32512   2.750   9.651   3.520 -0.3810  1.3503 -2.1010
 1004MOL0     H32513   2.906   9.616   3.703  0.9425  0.7416  2.1157
 1004MOL0     H32514   3.531   8.419   3.667 -0.8537  0.2463  1.0483
 1004MOL0     H32515   3.623   8.256   3.505 -3.0793 -1.7740  0.9520
 1004MOL0     H32516   3.765   7.891   3.397 -0.9768  0.7952  1.3389
 1004MOL0     H32517   3.798   7.670   3.278 -0.0473  0.2494  0.1884
 1004MOL0     H32518   4.050   7.396   3.479  0.5692  0.5580 -0.6144
 1004MOL0     H32519   4.175   7.445   3.352 -0.5631  2.4147 -1.7353
 1004MOL0     H32520   3.972   7.221   3.312  1.1741 -3.6154 -1.0037
 1004MOL0     H32521   4.096   7.294   3.197  0.8315 -2.6787  0.7342
 1004MOL0     H32522   4.122   7.144   3.448 -0.9068  1.2897  0.2377
 1004MOL0     H32523   4.265   7.224   3.369  1.4760 -0.7781 -2.2409
 1004MOL0     H32524   4.107   6.991   3.231 -1.7759  2.4208 -2.4966
 1004MOL0     H32525   4.230   7.094   3.164 -3.8651  0.6996 -1.0569
 1004MOL0     H32526   4.433   6.804   3.404  2.2445 -0.5115 -3.8604
 1004MOL0     H32527   4.157   7.611   3.495 -0.4210  1.0425  3.5099
 1004MOL0     H32528   4.142   7.858   3.574  0.0444 -0.3889  0.3805
 1005MOL0     O32529   6.114   6.737   0.777  0.5474  0.2012 -0.1119
 1005MOL0     C32530   6.083   6.635   0.718  0.3179 -0.6988 -0.1170
 1005MOL0     O32531   6.152   6.517   0.715 -0.3014  1.1000  0.4213
 1005MOL0     C32532   6.272   6.521   0.778 -0.1747  0.4591 -0.9157
 1005MOL0     C32533   6.385   6.589   0.723  0.4346  0.6881  0.2934
 1005MOL0     C32534   6.506   6.577   0.787  0.0724  0.4276 -0.8492
 1005MOL0     C32535   6.528   6.493   0.904  0.5661 -0.1055  1.0132
 1005MOL0     O32536   6.657   6.473   0.960  0.3448 -1.0561  0.6123
 1005MOL0     C32537   6.698   6.334   1.006 -0.5077 -0.0815  0.3120
 1005MOL0     C32538   6.849   6.325   1.023  0.4028 -0.8360 -1.2390
 1005MOL0     C32539   6.895   6.411   1.145  0.6917  0.8438 -0.3376
 1005MOL0     C32540   7.057   6.417   1.165 -0.6954 -0.2503  0.8822
 1005MOL0     C32541   7.124   6.520   1.077  0.2878 -0.1685 -0.2104
 1005MOL0     C32542   7.273   6.537   1.118 -0.3576 -0.5695  0.4781
 1005MOL0     C32543   7.356   6.453   1.029  0.4783 -0.0825 -0.2590
 1005MOL0     C32544   7.502   6.440   1.077 -0.6274 -0.3073  0.6225
 1005MOL0     N32545   7.577   6.354   0.991 -0.0245  0.7981  0.1094
 1005MOL0     C32546   7.617   6.389   0.865  0.3913 -0.0361  0.1411
 1005MOL0     C32547   7.686   6.281   0.817  0.2903  0.0083 -0.6324
 1005MOL0     C32548   7.750   6.280   0.679 -0.4651  0.8318 -0.2162
 1005MOL0     C32549   7.743   6.414   0.609 -1.3318 -0.6505  0.8132
 1005MOL0     C32550   7.805   6.400   0.464  0.6084  0.3985  0.0110
 1005MOL0     C32551   7.760   6.519   0.378 -0.6625 -0.3755  0.1126
 1005MOL0     O32552   7.791   6.498   0.237  0.0214  0.5674 -0.4363
 1005MOL0     C32553   7.753   6.572   0.136 -1.2097 -0.1076  0.1517
 1005MOL0     C32554   7.778   6.541   0.009 -1.3800  0.6874 -0.3131
 1005MOL0     C32555   7.736   6.612  -0.104 -0.9027 -0.2668 -0.0139
 1005MOL0     C32556   7.668   6.735  -0.080 -0.3717 -0.8985  0.7340
 1005MOL0     C32557   7.621   6.817  -0.197  0.4104 -0.0892  0.5368
 1005MOL0     O32558   7.548   6.934  -0.178 -0.0873 -0.6017  0.6189
 1005MOL0     C32559   7.499   7.014  -0.279 -0.5609  0.0360 -0.1463
 1005MOL0     C32560   7.491   7.152  -0.254  0.0342 -0.0823  0.0706
 1005MOL0     C32561   7.428   7.248  -0.332 -0.2556 -0.5368  1.1086
 1005MOL0     C32562   7.360   7.205  -0.444 -0.2785 -0.9603 -0.5974
 1005MOL0     O32563   7.308   7.316  -0.517 -0.5257  0.4531  0.3231
 1005MOL0     C32564   7.247   7.276  -0.649 -0.1617  0.1675  0.9207
 1005MOL0     C32565   7.186   7.399  -0.706 -0.1711  0.9690  0.0821
 1005MOL0     C32566   7.278   7.482  -0.787 -0.9121  0.7387 -0.5108
 1005MOL0     C32567   7.216   7.617  -0.828  0.4856 -0.3719  0.8778
 1005MOL0     C32568   7.312   7.698  -0.917 -0.6102 -0.0823 -0.5950
 1005MOL0     C32569   7.230   7.810  -0.990 -0.1990 -0.8955  0.0619
 1005MOL0     C32570   7.320   7.887  -1.082  0.7373 -0.6825 -0.3447
 1005MOL0     C32571   7.237   7.980  -1.170  0.1220  0.2318  1.0036
 1005MOL0    Cl32572   7.119   8.092  -1.086 -0.2699 -0.1493 -0.1763
 1005MOL0     C32573   7.382   7.068  -0.486  0.0269  0.0556 -0.6282
 1005MOL0     C32574   7.439   6.975  -0.400  1.1235 -0.1947 -0.1668
 1005MOL0     O32575   7.646   6.765  -0.305  0.8646 -0.2942  0.2948
 1005MOL0     C32576   7.636   6.773   0.049 -0.0501  0.1807  0.4256
 1005MOL0     C32577   7.675   6.690   0.159  0.5521  0.1841  1.1529
 1005MOL0     N32578   7.675   6.182   0.914 -0.0150  0.0077  0.3787
 1005MOL0     N32579   7.605   6.226   1.008 -0.6310  0.0324  0.3108
 1005MOL0     C32580   6.415   6.428   0.959 -0.1860  0.0552 -1.0216
 1005MOL0     C32581   6.290   6.442   0.902 -0.5309  0.3208  0.6661
 1005MOL0     C32582   5.970   6.658   0.630  0.9325 -0.4220  0.3644
 1005MOL0     C32583   5.939   6.794   0.589 -0.4660  1.6307  1.0930
 1005MOL0     C32584   5.836   6.809   0.488 -1.1997 -0.0222 -0.6153
 1005MOL0     C32585   5.779   6.699   0.424  0.5897 -0.4741 -0.1191
 1005MOL0     O32586   5.703   6.735   0.308 -0.4279  0.6555  0.2456
 1005MOL0     C32587   5.639   6.630   0.239  0.2307  0.5549 -0.1545
 1005MOL0     C32588   5.514   6.680   0.157 -0.1522 -0.0686 -0.7044
 1005MOL0     C32589   5.561   6.771   0.033 -0.5384  0.4202 -0.6945
 1005MOL0     C32590   5.448   6.841  -0.036  0.0918  0.6211 -0.5771
 1005MOL0     C32591   5.501   6.947  -0.125  0.7223 -0.0800 -0.9021
 1005MOL0     C32592   5.531   7.047  -0.192  0.4963  0.4191 -0.6946
 1005MOL0     C32593   5.823   6.568   0.468  0.0344 -0.9358  0.4039
 1005MOL0     C32594   5.911   6.549   0.570 -0.2682  0.7546  0.7964
 1005MOL0     H32595   6.385   6.647   0.631  2.3116 -0.0672 -0.2316
 1005MOL0     H32596   6.594   6.631   0.754  0.5025 -0.8354 -1.8376
 1005MOL0     H32597   6.674   6.258   0.930 -1.7215 -1.8404  2.3555
 1005MOL0     H32598   6.645   6.302   1.096 -3.7175  1.6347 -0.8063
 1005MOL0     H32599   6.898   6.369   0.936 -0.2973  1.2606 -0.6284
 1005MOL0     H32600   6.874   6.224   1.058 -1.1574 -0.3634  1.5977
 1005MOL0     H32601   6.864   6.361   1.238 -1.2652  1.3528 -0.6672
 1005MOL0     H32602   6.844   6.508   1.145 -1.5035 -0.1512  2.8900
 1005MOL0     H32603   7.085   6.453   1.264  3.6152  1.9038 -0.8399
 1005MOL0     H32604   7.105   6.320   1.147 -3.6616 -2.0640  2.1610
 1005MOL0     H32605   7.077   6.614   1.109  2.1661  1.4776 -1.9871
 1005MOL0     H32606   7.107   6.508   0.969 -1.5303 -1.1960  0.1585
 1005MOL0     H32607   7.294   6.499   1.218  1.2450  0.5046  0.5952
 1005MOL0     H32608   7.304   6.641   1.103 -1.1533 -0.2063  1.3060
 1005MOL0     H32609   7.317   6.352   1.016 -2.3477  0.8711  0.2419
 1005MOL0     H32610   7.346   6.504   0.933 -1.3213 -0.3274 -0.2243
 1005MOL0     H32611   7.508   6.395   1.177 -2.4782 -1.4123  0.2962
 1005MOL0     H32612   7.549   6.538   1.085 -3.7877  1.2774  1.2730
 1005MOL0     H32613   7.583   6.475   0.809 -2.3173  0.0558  1.7484
 1005MOL0     H32614   7.697   6.211   0.612  1.2795  0.3320 -1.1362
 1005MOL0     H32615   7.854   6.249   0.695 -0.2250 -1.1258 -4.4103
 1005MOL0     H32616   7.799   6.484   0.672 -1.7593 -2.0292  2.8260
 1005MOL0     H32617   7.644   6.458   0.594 -1.5543 -0.6188  2.2726
 1005MOL0     H32618   7.914   6.389   0.460  0.7691  1.5143  0.8302
 1005MOL0     H32619   7.767   6.315   0.406 -0.0120  1.7812 -1.6567
 1005MOL0     H32620   7.813   6.605   0.420  2.3946 -2.0085 -0.1126
 1005MOL0     H32621   7.653   6.536   0.396 -0.1704  2.1448  1.0956
 1005MOL0     H32622   7.831   6.447  -0.001  0.2129  1.6418 -1.3771
 1005MOL0     H32623   7.759   6.580  -0.205 -1.0791 -2.9983  0.7491
 1005MOL0     H32624   7.557   7.192  -0.177  2.4095 -1.2412 -1.2490
 1005MOL0     H32625   7.439   7.356  -0.325 -1.0476 -0.4379  0.9450
 1005MOL0     H32626   7.164   7.206  -0.635  0.0050 -0.3418 -0.4980
 1005MOL0     H32627   7.320   7.243  -0.723 -0.8204 -0.7615  0.6632
 1005MOL0     H32628   7.150   7.454  -0.619 -0.5023  2.2687 -0.8452
 1005MOL0     H32629   7.098   7.384  -0.769 -0.6922  0.5757  0.8968
 1005MOL0     H32630   7.293   7.432  -0.883 -0.5466 -0.5891  0.2137
 1005MOL0     H32631   7.374   7.487  -0.735 -2.1948  0.3079  2.0513
 1005MOL0     H32632   7.126   7.602  -0.889  0.4763  0.3970  0.7024
 1005MOL0     H32633   7.197   7.686  -0.746  3.2101  1.3996  0.1707
 1005MOL0     H32634   7.360   7.631  -0.989  1.5009  0.6706  0.0281
 1005MOL0     H32635   7.388   7.744  -0.854 -3.6550 -1.6941  4.8831
 1005MOL0     H32636   7.192   7.885  -0.921  2.3345  1.6526 -1.0811
 1005MOL0     H32637   7.155   7.757  -1.050  0.1583  1.4155 -2.6914
 1005MOL0     H32638   7.385   7.942  -1.014 -0.2888 -0.6606  0.6390
 1005MOL0     H32639   7.382   7.823  -1.146 -1.7677 -0.4292 -3.2501
 1005MOL0     H32640   7.190   7.917  -1.246 -1.0995 -0.4439  2.2678
 1005MOL0     H32641   7.307   8.047  -1.220 -0.3001  0.3943  0.6245
 1005MOL0     H32642   7.329   7.048  -0.579 -1.8720 -2.0559  0.8093
 1005MOL0     H32643   7.424   6.874  -0.439  0.7148  1.1204 -3.8108
 1005MOL0     H32644   7.577   6.864   0.059  0.9136  1.0794 -1.5400
 1005MOL0     H32645   7.664   6.733   0.258  2.1881  0.3651  1.2840
 1005MOL0     H32646   6.422   6.360   1.044 -0.2129  0.4484 -0.7014
 1005MOL0     H32647   6.202   6.390   0.939 -2.9274  5.2270  2.7453
 1005MOL0     H32648   5.993   6.884   0.617 -0.7829  2.3886 -0.5888
 1005MOL0     H32649   5.811   6.912   0.465  0.5434  0.4337 -0.6317
 1005MOL0     H32650   5.585   6.560   0.303 -2.4338  1.3134 -1.4028
 1005MOL0     H32651   5.720   6.584   0.181 -0.2553  1.3298 -1.5078
 1005MOL0     H32652   5.460   6.595   0.115  0.5994 -0.6667 -0.4744
 1005MOL0     H32653   5.441   6.734   0.217  0.3247  0.1067 -0.2747
 1005MOL0     H32654   5.615   6.717  -0.046 -1.5989  0.6410 -1.5968
 1005MOL0     H32655   5.632   6.849   0.061 -0.7591  1.3105 -2.5097
 1005MOL0     H32656   5.393   6.761  -0.084 -1.3845 -0.9417  3.2705
 1005MOL0     H32657   5.368   6.871   0.034 -1.0112 -0.3059 -1.4036
 1005MOL0     H32658   5.558   7.131  -0.253 -1.1296  2.6575  1.4585
 1005MOL0     H32659   5.786   6.487   0.404  1.1745 -0.2141 -1.2511
 1005MOL0     H32660   5.955   6.453   0.595 -0.6534 -0.4130 -2.5089
 1006MOL0     O32661   2.331   6.586   2.804  0.3618 -0.3061  0.3304
 1006MOL0     C32662   2.356   6.696   2.869 -0.0694  1.2240  0.5916
 1006MOL0     O32663   2.370   6.713   3.006 -0.2877  0.1008  0.5769
 1006MOL0     C32664   2.326   6.604   3.080 -0.1660 -0.5615 -0.3867
 1006MOL0     C32665   2.418   6.565   3.174 -0.3390 -0.7041 -0.1188
 1006MOL0     C32666   2.372   6.471   3.269 -0.3675 -1.0613 -0.3656
 1006MOL0     C32667   2.239   6.423   3.264  0.3811 -0.1651  0.6326
 1006MOL0     O32668   2.190   6.348   3.368  0.5637  0.5775  1.0175
 1006MOL0     C32669   2.261   6.233   3.407 -0.9559  0.3324  0.5355
 1006MOL0     C32670   2.167   6.157   3.500 -0.7058  0.2537 -0.2372
 1006MOL0     C32671   2.030   6.131   3.434 -0.3204  0.0365 -1.3929
 1006MOL0     C32672   1.941   6.065   3.550  0.0950  1.1884  0.0078
 1006MOL0     C32673   1.803   6.019   3.511  1.3401  0.5485 -0.2426
 1006MOL0     C32674   1.799   5.935   3.378 -0.3776  0.2765 -0.7482
 1006MOL0     C32675   1.662   5.869   3.376 -0.1953 -0.1071  0.7763
 1006MOL0     C32676   1.623   5.770   3.493  0.4162 -0.3753 -0.8861
 1006MOL0     N32677   1.712   5.659   3.499 -0.2381 -0.6748  0.7293
 1006MOL0     C32678   1.703   5.549   3.416 -0.1819  0.2437  0.1411
 1006MOL0     C32679   1.780   5.454   3.465  0.0895  0.3679 -0.7647
 1006MOL0     C32680   1.769   5.311   3.423  0.3284  0.3969 -0.3429
 1006MOL0     C32681   1.648   5.243   3.472 -0.3170  0.1892  1.9589
 1006MOL0     C32682   1.653   5.102   3.424  0.3308  0.7551  0.2209
 1006MOL0     C32683   1.530   5.024   3.466  0.8727 -0.3814 -0.9809
 1006MOL0     O32684   1.544   4.959   3.597 -0.6637  0.1211  0.7302
 1006MOL0     C32685   1.440   4.870   3.630  0.0322 -0.1022 -1.3671
 1006MOL0     C32686   1.461   4.778   3.728  0.0561 -0.6119  0.3906
 1006MOL0     C32687   1.380   4.667   3.757  0.7176  0.4298 -0.9351
 1006MOL0     C32688   1.258   4.658   3.686 -0.7129 -0.2074  0.5705
 1006MOL0     C32689   1.169   4.557   3.724  0.0296  0.4185  0.1205
 1006MOL0     O32690   1.229   4.431   3.736 -0.2294 -0.1516  0.0597
 1006MOL0     C32691   1.150   4.322   3.747  0.5878 -1.2390  0.0408
 1006MOL0     C32692   1.056   4.323   3.844  0.6593 -0.0610  0.7870
 1006MOL0     C32693   0.966   4.215   3.848 -0.5816 -0.3473 -1.1092
 1006MOL0     C32694   0.983   4.110   3.761  1.3309  0.3152 -0.4801
 1006MOL0     O32695   0.867   4.032   3.770  0.4045  0.2575 -0.4380
 1006MOL0     C32696   0.864   3.910   3.695  0.8912  0.1860 -0.0954
 1006MOL0     C32697   0.733   3.823   3.713 -0.3494 -0.8636 -0.1068
 1006MOL0     C32698   0.744   3.772   3.860  1.2936  0.4613  0.3504
 1006MOL0     C32699   0.605   3.715   3.892 -0.7689 -0.2022  0.4774
 1006MOL0     C32700   0.610   3.698   4.047 -0.0852  0.1217  1.2909
 1006MOL0     C32701   0.484   3.632   4.091 -0.0193 -0.0943  0.4004
 1006MOL0     C32702   0.479   3.595   4.239  0.4382  0.3931  0.3284
 1006MOL0     C32703   0.503   3.724   4.322  0.3951  0.6117  1.3392
 1006MOL0    Cl32704   0.405   3.870   4.268  0.6717  0.0639 -0.2238
 1006MOL0     C32705   1.090   4.095   3.685 -0.6219 -0.1214  0.1055
 1006MOL0     C32706   1.167   4.210   3.678 -0.1316 -0.6113  1.2440
 1006MOL0     O32707   1.046   4.578   3.720  0.3591 -0.2287 -0.0995
 1006MOL0     C32708   1.225   4.755   3.584  0.1050  0.0303 -0.2394
 1006MOL0     C32709   1.322   4.855   3.559  0.0735  0.1376 -0.8175
 1006MOL0     N32710   1.829   5.502   3.584  0.2383 -0.7183 -0.7362
 1006MOL0     N32711   1.789   5.623   3.598  0.2927  0.3737  0.3846
 1006MOL0     C32712   2.149   6.471   3.160  0.3645 -0.3775 -0.8701
 1006MOL0     C32713   2.194   6.561   3.069  0.3344  0.0480 -0.0778
 1006MOL0     C32714   2.376   6.820   2.786  0.0270 -1.4700  0.0349
 1006MOL0     C32715   2.358   6.809   2.647  0.6864  0.3987  0.1128
 1006MOL0     C32716   2.401   6.911   2.562 -0.1440  0.6140  0.1328
 1006MOL0     C32717   2.461   7.028   2.615 -0.0383  0.0210 -0.3477
 1006MOL0     O32718   2.505   7.116   2.515  0.3691 -0.6467  0.7192
 1006MOL0     C32719   2.549   7.245   2.559  0.4601 -0.5083 -0.2675
 1006MOL0     C32720   2.693   7.246   2.614 -0.3175 -0.2477  0.7969
 1006MOL0     C32721   2.730   7.389   2.651  0.1279 -0.0438  0.6096
 1006MOL0     C32722   2.882   7.394   2.686  0.1513  0.0496 -0.4876
 1006MOL0     C32723   2.929   7.533   2.680  0.0408 -0.1810 -0.2969
 1006MOL0     C32724   2.973   7.647   2.686 -0.0424 -0.0723  0.3292
 1006MOL0     C32725   2.474   7.042   2.750 -0.3243 -1.1751 -0.2819
 1006MOL0     C32726   2.433   6.942   2.839 -1.2712  0.1160 -0.6624
 1006MOL0     H32727   2.517   6.609   3.172 -0.7495  0.2383 -1.5138
 1006MOL0     H32728   2.432   6.433   3.351  0.2422  0.0732 -0.2633
 1006MOL0     H32729   2.345   6.263   3.470  0.1535 -1.8425  0.1953
 1006MOL0     H32730   2.300   6.172   3.325  1.4453 -1.5143  2.8959
 1006MOL0     H32731   2.146   6.212   3.593  3.3155  1.0792  0.3511
 1006MOL0     H32732   2.208   6.061   3.531  0.0202  0.1951 -1.3326
 1006MOL0     H32733   2.052   6.068   3.347  0.2093 -2.8829  0.7290
 1006MOL0     H32734   1.991   6.226   3.395 -0.6970 -0.2520 -1.7308
 1006MOL0     H32735   1.991   5.971   3.576  3.8932  2.7338 -1.1132
 1006MOL0     H32736   1.951   6.119   3.645 -0.7810 -1.6325  1.8469
 1006MOL0     H32737   1.748   6.111   3.494  2.9853  1.5098 -0.5828
 1006MOL0     H32738   1.756   5.974   3.599  1.5572  0.7250 -0.0357
 1006MOL0     H32739   1.868   5.851   3.389 -0.7503  0.1890  1.1695
 1006MOL0     H32740   1.827   5.991   3.288 -0.6558  2.5803  0.5046
 1006MOL0     H32741   1.592   5.952   3.363  1.6497  1.9707  3.1347
 1006MOL0     H32742   1.658   5.806   3.287 -0.3134 -0.8790  1.3173
 1006MOL0     H32743   1.517   5.749   3.479 -0.5352  2.9006  0.4690
 1006MOL0     H32744   1.628   5.806   3.596  2.4793  0.6742 -1.2950
 1006MOL0     H32745   1.634   5.542   3.332 -0.3328 -0.6396  0.3239
 1006MOL0     H32746   1.852   5.267   3.479 -0.4407  1.7338  1.9784
 1006MOL0     H32747   1.755   5.303   3.314 -0.3226 -0.5503 -0.1917
 1006MOL0     H32748   1.553   5.292   3.452 -1.4135 -1.5106  2.7895
 1006MOL0     H32749   1.656   5.234   3.581  1.7882 -1.6140  1.7313
 1006MOL0     H32750   1.649   5.105   3.315 -0.2378 -1.4005  0.1213
 1006MOL0     H32751   1.740   5.039   3.444  0.0718 -0.9044 -3.1126
 1006MOL0     H32752   1.505   4.954   3.385  0.4968  1.5366 -2.6141
 1006MOL0     H32753   1.448   5.097   3.469  0.8860 -0.3255 -1.7140
 1006MOL0     H32754   1.548   4.813   3.782 -0.9476  1.3953  0.8059
 1006MOL0     H32755   1.409   4.595   3.833  3.3755  3.2946  1.0390
 1006MOL0     H32756   1.043   4.407   3.911 -4.5867 -0.1897  0.3270
 1006MOL0     H32757   0.897   4.219   3.932  0.9570  0.1236  0.1861
 1006MOL0     H32758   0.949   3.847   3.722  1.3260  1.1646  0.8760
 1006MOL0     H32759   0.872   3.952   3.594 -0.8493  3.0142  0.8398
 1006MOL0     H32760   0.724   3.730   3.656 -1.2676 -2.6550  2.7138
 1006MOL0     H32761   0.644   3.883   3.691  1.8979  3.5244  1.5677
 1006MOL0     H32762   0.773   3.861   3.917  0.4109  2.0561 -1.5505
 1006MOL0     H32763   0.823   3.698   3.873  1.9012  1.3869  2.1991
 1006MOL0     H32764   0.523   3.783   3.867 -1.8883 -1.8532 -0.5220
 1006MOL0     H32765   0.587   3.619   3.842 -2.6968  0.3137  0.0878
 1006MOL0     H32766   0.628   3.790   4.102  1.0927  0.8911 -0.3011
 1006MOL0     H32767   0.686   3.620   4.056 -3.0065 -3.0922  0.7148
 1006MOL0     H32768   0.466   3.537   4.041 -2.6253 -0.3882  1.7052
 1006MOL0     H32769   0.396   3.698   4.082 -0.8248 -0.7573  2.6359
 1006MOL0     H32770   0.392   3.537   4.270  0.4824  0.5240  0.7082
 1006MOL0     H32771   0.558   3.521   4.255 -1.2170 -1.1280  1.8807
 1006MOL0     H32772   0.607   3.758   4.317  0.1596  1.2336  0.5301
 1006MOL0     H32773   0.485   3.697   4.427  0.0982  0.0615  1.1513
 1006MOL0     H32774   1.110   4.010   3.620 -0.3351  0.1686 -0.1913
 1006MOL0     H32775   1.261   4.210   3.625 -1.8083 -3.9387 -2.2201
 1006MOL0     H32776   1.129   4.756   3.534  2.5684  2.2391 -5.8110
 1006MOL0     H32777   1.307   4.915   3.470 -0.1207  1.0947 -0.1583
 1006MOL0     H32778   2.046   6.436   3.152  0.6020 -1.0449 -1.0488
 1006MOL0     H32779   2.133   6.592   2.985  0.4100  0.7809  0.1306
 1006MOL0     H32780   2.324   6.720   2.595 -1.8303 -1.6958  4.7178
 1006MOL0     H32781   2.398   6.909   2.454 -2.1132 -1.0418  0.1570
 1006MOL0     H32782   2.480   7.270   2.640 -0.2288  1.7043 -1.4445
 1006MOL0     H32783   2.539   7.316   2.476  3.0179 -1.2344 -1.3126
 1006MOL0     H32784   2.713   7.187   2.704  1.7448  0.9284  1.1488
 1006MOL0     H32785   2.755   7.222   2.528  1.3112 -2.5597  2.4823
 1006MOL0     H32786   2.679   7.432   2.738  0.1887  1.8644 -0.2522
 1006MOL0     H32787   2.698   7.443   2.562 -0.3701  0.8458  1.3176
 1006MOL0     H32788   2.914   7.359   2.785 -1.3338 -3.2336 -1.0684
 1006MOL0     H32789   2.933   7.334   2.611 -1.0302  0.8233 -1.9634
 1006MOL0     H32790   3.003   7.746   2.715  5.7041 -1.4371  0.2962
 1006MOL0     H32791   2.525   7.124   2.801 -1.4389 -1.9431  2.2357
 1006MOL0     H32792   2.461   6.937   2.943 -0.6603  0.9155 -0.7674
 1007MOL0     O32793   3.378   9.544   1.912  0.0030 -0.6343 -0.0688
 1007MOL0     C32794   3.379   9.540   1.791  0.5224 -0.9540 -0.6396
 1007MOL0     O32795   3.283   9.601   1.708  0.6490 -0.5163 -0.1740
 1007MOL0     C32796   3.174   9.665   1.767  0.2923 -0.1252 -0.3535
 1007MOL0     C32797   3.093   9.710   1.666 -0.4175  0.0212  1.6385
 1007MOL0     C32798   2.976   9.779   1.687 -0.0038  0.9469  1.1889
 1007MOL0     C32799   2.950   9.831   1.809  0.7281  0.5164  0.5139
 1007MOL0     O32800   2.850   9.925   1.828  0.7346 -0.3135 -0.2543
 1007MOL0     C32801   2.736   9.938   1.734 -0.0215  0.7770 -1.0886
 1007MOL0     C32802   2.670  10.073   1.771  0.2124  0.2790 -0.4656
 1007MOL0     C32803   2.532  10.079   1.693 -0.3360  0.1420 -0.1081
 1007MOL0     C32804   2.528  10.063   1.546 -0.4017 -0.0574 -0.4067
 1007MOL0     C32805   2.392  10.028   1.481 -0.3068  0.3969 -0.3865
 1007MOL0     C32806   2.348   9.882   1.508  0.2245  0.1650  0.3977
 1007MOL0     C32807   2.203   9.855   1.467  0.8004  0.3351  0.2612
 1007MOL0     C32808   2.152   9.834   1.330 -0.9718  0.7239  1.4003
 1007MOL0     N32809   2.255   9.824   1.227 -0.5292 -0.2194 -0.0566
 1007MOL0     C32810   2.357   9.736   1.221 -0.0921  1.1303 -0.1632
 1007MOL0     C32811   2.449   9.776   1.125  0.3073  0.5752  0.0028
 1007MOL0     C32812   2.563   9.691   1.077  0.8398 -0.0590 -0.6811
 1007MOL0     C32813   2.627   9.759   0.955 -0.0118 -0.5684  0.7369
 1007MOL0     C32814   2.748   9.680   0.909 -0.5031  0.1454  0.6905
 1007MOL0     C32815   2.829   9.763   0.818 -0.1294 -0.1640 -0.1739
 1007MOL0     O32816   2.958   9.719   0.822 -0.8620 -0.5524 -0.4639
 1007MOL0     C32817   3.051   9.784   0.740 -0.1475  0.2557 -0.3169
 1007MOL0     C32818   3.021   9.859   0.624 -0.9159  0.1380  0.1087
 1007MOL0     C32819   3.110   9.938   0.550 -0.4741 -0.8406 -0.0025
 1007MOL0     C32820   3.243   9.932   0.589 -0.3405  0.2320 -0.0874
 1007MOL0     C32821   3.337  10.031   0.541 -0.3157 -0.6435 -1.0928
 1007MOL0     O32822   3.315  10.076   0.410 -0.6282  0.7544 -0.2325
 1007MOL0     C32823   3.391  10.181   0.375 -0.3313  0.4792 -0.6249
 1007MOL0     C32824   3.333  10.310   0.360  0.6990  0.6406  0.4992
 1007MOL0     C32825   3.406  10.427   0.344 -0.3808  0.0327 -0.0640
 1007MOL0     C32826   3.543  10.420   0.339 -0.2846  0.4574  0.3251
 1007MOL0     O32827   3.613  10.540   0.325  0.3110  0.0499  0.1069
 1007MOL0     C32828   3.735  10.556   0.249 -0.8447  1.2079  0.1197
 1007MOL0     C32829   3.794  10.692   0.254  0.7050  0.5391 -1.0836
 1007MOL0     C32830   3.900  10.702   0.144  0.3040 -0.4206 -0.0409
 1007MOL0     C32831   3.838  10.724   0.011 -0.5876  0.0483  0.9746
 1007MOL0     C32832   3.926  10.688  -0.110 -0.5788 -0.8276  0.4109
 1007MOL0     C32833   4.042  10.785  -0.104  0.0846  0.8037 -1.1976
 1007MOL0     C32834   4.131  10.785  -0.227 -0.6132 -1.0088  0.2375
 1007MOL0     C32835   4.071  10.867  -0.331  0.0339  0.0445 -0.3548
 1007MOL0    Cl32836   4.060  11.039  -0.280  0.0099  0.1314 -0.6310
 1007MOL0     C32837   3.613  10.293   0.337 -0.0932  0.4677  0.2431
 1007MOL0     C32838   3.531  10.177   0.355  0.1967 -0.2003  0.4563
 1007MOL0     O32839   3.428  10.071   0.612 -0.8858 -0.5319  0.7727
 1007MOL0     C32840   3.279   9.852   0.698  0.2291 -0.2454  0.5457
 1007MOL0     C32841   3.183   9.778   0.769 -0.3094 -0.5158  1.4339
 1007MOL0     N32842   2.409   9.901   1.090 -0.3682  0.1801 -0.0375
 1007MOL0     N32843   2.297   9.934   1.156  0.6803 -0.0984  0.5545
 1007MOL0     C32844   3.028   9.775   1.919 -0.2344  0.1680  0.2153
 1007MOL0     C32845   3.139   9.692   1.904  0.1839 -0.3354 -0.6734
 1007MOL0     C32846   3.489   9.478   1.723 -0.8612 -0.6861  0.2403
 1007MOL0     C32847   3.602   9.423   1.801  0.3178 -0.0787  0.2529
 1007MOL0     C32848   3.713   9.347   1.749 -0.1074 -0.2097  0.2094
 1007MOL0     C32849   3.721   9.329   1.613  0.3254  0.3060  0.6083
 1007MOL0     O32850   3.833   9.281   1.541 -0.1264  0.6209  0.4987
 1007MOL0     C32851   3.944   9.235   1.618 -0.4995 -0.0080 -0.3462
 1007MOL0     C32852   4.047   9.199   1.512 -0.2522  0.3174 -0.2630
 1007MOL0     C32853   4.019   9.073   1.437 -0.4398 -1.0592 -0.3031
 1007MOL0     C32854   4.159   9.024   1.375  1.2847 -0.6625 -1.1123
 1007MOL0     C32855   4.225   9.116   1.285 -1.1664  0.8096  1.0377
 1007MOL0     C32856   4.297   9.195   1.221  0.0827  0.2240 -0.2256
 1007MOL0     C32857   3.614   9.381   1.544 -0.4317  0.2377  0.4521
 1007MOL0     C32858   3.507   9.450   1.594 -0.3961 -0.5430  0.4194
 1007MOL0     H32859   3.123   9.675   1.568 -1.3588 -1.2452  1.7822
 1007MOL0     H32860   2.929   9.815   1.596  0.0753  1.0122  1.1743
 1007MOL0     H32861   2.665   9.856   1.748  0.9496  0.0008 -0.5862
 1007MOL0     H32862   2.772   9.943   1.631 -0.5492 -0.3075 -1.3325
 1007MOL0     H32863   2.723  10.164   1.742 -0.1942  0.2720 -1.2581
 1007MOL0     H32864   2.662  10.065   1.880  0.4832 -1.0471 -0.5168
 1007MOL0     H32865   2.483  10.171   1.726  0.4066  0.3533  0.4154
 1007MOL0     H32866   2.472  10.004   1.746 -2.5847  2.6710  1.1708
 1007MOL0     H32867   2.580  10.143   1.492  0.6921 -0.1851  0.4096
 1007MOL0     H32868   2.576   9.969   1.517 -2.4242 -0.1350 -4.0569
 1007MOL0     H32869   2.395  10.041   1.373  0.9415  0.4615 -0.3516
 1007MOL0     H32870   2.320  10.096   1.528  0.7190  1.3794 -0.2141
 1007MOL0     H32871   2.346   9.860   1.615  0.1625  0.7709  0.5306
 1007MOL0     H32872   2.408   9.797   1.475  0.2972 -0.7610  2.7294
 1007MOL0     H32873   2.190   9.759   1.517  2.4715  1.1112  2.3443
 1007MOL0     H32874   2.141   9.927   1.522  1.0729  2.1413 -1.6676
 1007MOL0     H32875   2.090   9.918   1.296 -0.8157  0.2854 -0.0341
 1007MOL0     H32876   2.085   9.749   1.341 -0.9779  0.6245  0.6833
 1007MOL0     H32877   2.362   9.638   1.268 -2.7657  0.2522 -1.4953
 1007MOL0     H32878   2.529   9.592   1.046  0.5007  0.4388 -1.9441
 1007MOL0     H32879   2.632   9.683   1.162 -0.0481 -0.4223  0.0181
 1007MOL0     H32880   2.668   9.855   0.989  2.3998 -1.5736  0.8605
 1007MOL0     H32881   2.550   9.763   0.877 -0.7684 -1.5101  1.4129
 1007MOL0     H32882   2.803   9.644   0.997 -0.6021 -0.1936  0.6173
 1007MOL0     H32883   2.743   9.590   0.846  2.2991  0.2680  0.1249
 1007MOL0     H32884   2.829   9.861   0.867 -0.1615 -0.1930 -0.1148
 1007MOL0     H32885   2.781   9.769   0.720 -1.1700  0.2274  0.3450
 1007MOL0     H32886   2.918   9.862   0.591 -0.3633 -2.8984 -2.3219
 1007MOL0     H32887   3.076   9.996   0.465  1.9531  0.8931  0.1164
 1007MOL0     H32888   3.225  10.318   0.372  0.3484  0.4027 -1.9024
 1007MOL0     H32889   3.354  10.521   0.324  2.0447  1.2164 -1.2361
 1007MOL0     H32890   3.708  10.535   0.145  1.3149 -2.0121  0.0666
 1007MOL0     H32891   3.813  10.484   0.276 -0.7771  0.4143 -2.0133
 1007MOL0     H32892   3.845  10.707   0.350 -2.0114 -1.2390  0.7706
 1007MOL0     H32893   3.714  10.767   0.250  1.0445  1.0479  0.7598
 1007MOL0     H32894   3.963  10.613   0.137  0.8499 -0.1011  0.6717
 1007MOL0     H32895   3.964  10.789   0.162 -0.9929  1.1008 -2.2601
 1007MOL0     H32896   3.739  10.677   0.000 -1.7858  2.8049 -1.7381
 1007MOL0     H32897   3.823  10.831  -0.006  0.2002 -0.1771 -1.5943
 1007MOL0     H32898   3.865  10.703  -0.200 -0.9395  2.9581  1.1248
 1007MOL0     H32899   3.968  10.589  -0.093  2.8163  0.6017  1.2930
 1007MOL0     H32900   4.106  10.763  -0.018 -1.6089  0.8396  0.1258
 1007MOL0     H32901   4.013  10.889  -0.088 -0.9317  0.2349  1.0381
 1007MOL0     H32902   4.231  10.816  -0.198 -1.2342  0.0560  1.3666
 1007MOL0     H32903   4.136  10.689  -0.280  0.0102  0.1793 -1.9484
 1007MOL0     H32904   3.973  10.825  -0.356  0.2748 -1.4972  1.1327
 1007MOL0     H32905   4.126  10.862  -0.425 -0.6165  0.8381 -0.7968
 1007MOL0     H32906   3.720  10.288   0.348 -0.2441 -1.5322  1.2668
 1007MOL0     H32907   3.581  10.082   0.373 -2.4321 -2.0777 -1.3066
 1007MOL0     H32908   3.384   9.848   0.724  0.4052  1.6221  0.2729
 1007MOL0     H32909   3.224   9.721   0.852 -2.2988 -1.6525  1.6843
 1007MOL0     H32910   3.011   9.806   2.022  1.6853  0.2099  0.5517
 1007MOL0     H32911   3.189   9.668   1.997 -2.2527  1.3927  1.2245
 1007MOL0     H32912   3.603   9.433   1.909  0.3975  3.7430  0.0526
 1007MOL0     H32913   3.789   9.310   1.817  2.4084  1.8257 -1.3393
 1007MOL0     H32914   3.918   9.146   1.675  0.1248 -0.4137 -0.6831
 1007MOL0     H32915   3.991   9.311   1.681 -1.0178 -1.4626  1.9207
 1007MOL0     H32916   4.052   9.284   1.444  2.7116  1.1955  0.9060
 1007MOL0     H32917   4.140   9.195   1.570 -0.5516 -0.8829  0.1707
 1007MOL0     H32918   3.941   9.083   1.362 -0.3371  1.2441 -0.1805
 1007MOL0     H32919   4.001   8.988   1.504  2.5413 -0.8987  0.8665
 1007MOL0     H32920   4.232   9.011   1.455 -1.2007 -0.2884  1.3550
 1007MOL0     H32921   4.135   8.929   1.325  1.5419  0.1612 -2.8736
 1007MOL0     H32922   4.348   9.263   1.157  0.9875 -1.1691 -1.0297
 1007MOL0     H32923   3.619   9.365   1.436  2.3066  3.0612  0.0135
 1007MOL0     H32924   3.433   9.460   1.515  0.0109  0.7141  0.1742
 1008MOL0     O32925   1.266   8.179   7.185 -0.2185 -0.5338  0.3568
 1008MOL0     C32926   1.302   8.123   7.291 -0.0303 -0.1197  0.5573
 1008MOL0     O32927   1.222   8.095   7.397  0.4019 -0.7441  0.3967
 1008MOL0     C32928   1.095   8.145   7.412 -0.3160  0.3530 -0.8354
 1008MOL0     C32929   1.041   8.139   7.544 -0.5121 -0.3352 -0.3103
 1008MOL0     C32930   0.928   8.205   7.574  0.0611  1.2168 -0.6005
 1008MOL0     C32931   0.846   8.263   7.471 -0.1103  0.2726  0.1757
 1008MOL0     O32932   0.729   8.333   7.500 -0.0879 -0.6809  0.2107
 1008MOL0     C32933   0.752   8.449   7.584  0.9791  0.5601 -0.2514
 1008MOL0     C32934   0.628   8.521   7.639  0.2649 -0.1288  1.0850
 1008MOL0     C32935   0.555   8.431   7.739  0.9150  0.1914  0.1268
 1008MOL0     C32936   0.420   8.490   7.777  0.1802 -0.9715  0.1920
 1008MOL0     C32937   0.376   8.430   7.916  0.6049  0.1893 -0.2324
 1008MOL0     C32938   0.463   8.421   8.035 -0.3653  0.7830  0.0320
 1008MOL0     C32939   0.499   8.563   8.089 -0.2050 -0.5115 -0.2488
 1008MOL0     C32940   0.376   8.638   8.126  0.1353  0.2099  0.4905
 1008MOL0     N32941   0.400   8.759   8.202  0.2809  0.0897 -0.2075
 1008MOL0     C32942   0.412   8.893   8.160  0.6546 -0.6389 -0.3042
 1008MOL0     C32943   0.412   8.970   8.276 -0.2055  0.2472 -0.0927
 1008MOL0     C32944   0.436   9.124   8.292  0.0885  0.2895 -0.3804
 1008MOL0     C32945   0.407   9.206   8.168  0.8665 -0.5383 -0.7379
 1008MOL0     C32946   0.421   9.353   8.197  0.6553  0.0748  0.0029
 1008MOL0     C32947   0.561   9.388   8.233  0.8400  0.1378 -0.9090
 1008MOL0     O32948   0.660   9.338   8.143 -0.5016 -0.0162 -0.3687
 1008MOL0     C32949   0.793   9.366   8.164 -0.2790  0.1734 -0.0643
 1008MOL0     C32950   0.882   9.279   8.111 -0.3855  0.1236 -0.6666
 1008MOL0     C32951   1.025   9.290   8.120 -0.7847  0.4267 -0.6610
 1008MOL0     C32952   1.081   9.400   8.193  0.2716 -0.3983  0.2028
 1008MOL0     C32953   1.225   9.422   8.196  1.7081  0.1524  0.1272
 1008MOL0     O32954   1.302   9.324   8.152 -0.7039  1.0539  0.7698
 1008MOL0     C32955   1.440   9.347   8.146  0.4967  0.0878  0.5744
 1008MOL0     C32956   1.503   9.461   8.088 -0.2478  0.2193 -0.0215
 1008MOL0     C32957   1.645   9.463   8.082 -0.1844  0.4027 -0.8422
 1008MOL0     C32958   1.730   9.358   8.126  1.2371  0.4812 -0.5496
 1008MOL0     O32959   1.867   9.353   8.097 -0.0435 -0.1609 -0.1631
 1008MOL0     C32960   1.959   9.404   8.196 -0.9317  0.1258 -0.5575
 1008MOL0     C32961   2.096   9.430   8.133  0.2935  0.0467  0.5419
 1008MOL0     C32962   2.174   9.548   8.173  0.4734 -0.5664  0.6743
 1008MOL0     C32963   2.311   9.546   8.107 -0.2055  0.2378 -0.6559
 1008MOL0     C32964   2.382   9.677   8.138 -0.0664 -1.0281  0.0536
 1008MOL0     C32965   2.454   9.687   8.273  0.7434  0.4084  0.5606
 1008MOL0     C32966   2.528   9.821   8.283  0.0406 -0.6953 -1.1153
 1008MOL0     C32967   2.595   9.843   8.419 -0.1225 -0.1023 -0.5442
 1008MOL0    Cl32968   2.668  10.001   8.407  0.1937  0.1774  0.5001
 1008MOL0     C32969   1.662   9.248   8.181  1.1046 -0.1410  0.0928
 1008MOL0     C32970   1.519   9.242   8.190 -0.2840 -0.5287 -0.3388
 1008MOL0     O32971   1.264   9.541   8.218 -0.2123  0.3562 -0.3031
 1008MOL0     C32972   0.988   9.492   8.255 -0.3070 -0.9617 -0.8862
 1008MOL0     C32973   0.851   9.469   8.251  0.1256  0.9223 -0.1281
 1008MOL0     N32974   0.391   8.881   8.382 -0.4830 -0.1382  0.3536
 1008MOL0     N32975   0.384   8.758   8.339  0.7030 -0.3783 -0.7154
 1008MOL0     C32976   0.882   8.237   7.337  0.4431 -0.2681 -0.5701
 1008MOL0     C32977   1.017   8.203   7.314  0.7437  1.4655  1.0224
 1008MOL0     C32978   1.447   8.109   7.316  1.0230  1.0020 -0.5144
 1008MOL0     C32979   1.534   8.074   7.221 -0.7602 -0.0939 -0.1383
 1008MOL0     C32980   1.664   8.047   7.266  0.0499 -0.0651 -0.3155
 1008MOL0     C32981   1.705   8.050   7.403 -0.1911 -0.5197 -0.4396
 1008MOL0     O32982   1.837   8.039   7.442 -0.2063 -0.5780 -0.2425
 1008MOL0     C32983   1.888   7.909   7.462  0.2481  0.2576 -0.9881
 1008MOL0     C32984   1.854   7.846   7.602 -1.1955 -0.1222  0.6962
 1008MOL0     C32985   1.920   7.715   7.602  0.6611  0.1555 -0.2696
 1008MOL0     C32986   2.076   7.717   7.608 -0.0155  0.8109 -0.5977
 1008MOL0     C32987   2.117   7.583   7.651 -0.6630  0.4340 -0.0447
 1008MOL0     C32988   2.165   7.477   7.690  0.8417  0.4021  0.1126
 1008MOL0     C32989   1.615   8.077   7.501  0.1540  0.5477  0.5071
 1008MOL0     C32990   1.487   8.110   7.455 -0.3849  0.4238 -0.1023
 1008MOL0     H32991   1.102   8.099   7.624 -0.7858  1.3625  0.8012
 1008MOL0     H32992   0.907   8.212   7.680  0.1334  1.3557 -0.5944
 1008MOL0     H32993   0.812   8.529   7.540 -1.9417  2.4272 -1.1264
 1008MOL0     H32994   0.804   8.418   7.675 -0.4569 -0.6870  0.1890
 1008MOL0     H32995   0.565   8.538   7.552 -0.0162 -0.9173  1.1244
 1008MOL0     H32996   0.639   8.621   7.681 -2.7326  0.7261  0.0858
 1008MOL0     H32997   0.620   8.441   7.826  1.4511  1.3665 -0.3822
 1008MOL0     H32998   0.551   8.329   7.699  4.5837  0.2762 -0.8058
 1008MOL0     H32999   0.409   8.598   7.787 -4.6592 -1.3696  1.8556
 1008MOL0     H33000   0.340   8.475   7.704 -4.1411  1.2282  3.9167
 1008MOL0     H33001   0.350   8.326   7.892 -1.4829 -0.6098  4.4854
 1008MOL0     H33002   0.286   8.478   7.955  2.4127  1.5991  2.4525
 1008MOL0     H33003   0.549   8.353   8.032  0.6704  1.9413  1.5672
 1008MOL0     H33004   0.408   8.359   8.106 -0.8324  2.2758  1.0208
 1008MOL0     H33005   0.561   8.551   8.178 -1.3299 -0.6154  0.5434
 1008MOL0     H33006   0.560   8.626   8.024 -1.5884  0.1814 -0.9171
 1008MOL0     H33007   0.305   8.575   8.180  1.8351 -1.7127  0.6194
 1008MOL0     H33008   0.324   8.666   8.034  0.2331  0.4399  0.5037
 1008MOL0     H33009   0.418   8.924   8.056  1.6124 -0.6002 -0.2401
 1008MOL0     H33010   0.541   9.128   8.320 -0.4996 -0.5382  2.2422
 1008MOL0     H33011   0.390   9.166   8.383  2.2691 -1.2686  1.5536
 1008MOL0     H33012   0.303   9.184   8.142  0.6290  1.0464 -1.2308
 1008MOL0     H33013   0.471   9.161   8.092  1.9855 -1.4493  0.7091
 1008MOL0     H33014   0.393   9.419   8.114 -3.4516 -1.1915  0.1755
 1008MOL0     H33015   0.356   9.387   8.279  1.8893  1.2168  0.5420
 1008MOL0     H33016   0.581   9.338   8.328 -0.7000 -1.7354 -1.5121
 1008MOL0     H33017   0.581   9.494   8.254  2.1705 -0.8495  3.9130
 1008MOL0     H33018   0.842   9.187   8.071  0.5089  0.3613 -2.1709
 1008MOL0     H33019   1.083   9.208   8.079 -0.8251  1.8718 -3.9678
 1008MOL0     H33020   1.449   9.549   8.054  1.7634  3.5806  4.4239
 1008MOL0     H33021   1.692   9.548   8.034  0.1094 -0.3949 -2.0202
 1008MOL0     H33022   1.970   9.339   8.284  0.9039  2.5060  1.1230
 1008MOL0     H33023   1.918   9.499   8.232 -1.1076 -0.3275  0.4728
 1008MOL0     H33024   2.088   9.447   8.025  1.8709 -0.3490  0.3335
 1008MOL0     H33025   2.158   9.342   8.152  0.8080  0.7915  2.5957
 1008MOL0     H33026   2.186   9.533   8.281 -1.1009 -3.3706  0.5606
 1008MOL0     H33027   2.124   9.644   8.163  1.2749 -0.2840 -0.8231
 1008MOL0     H33028   2.373   9.459   8.131  0.0632  0.7503  0.5554
 1008MOL0     H33029   2.316   9.548   7.998  3.7267 -0.7575 -0.6656
 1008MOL0     H33030   2.300   9.750   8.136  0.8542  0.0436  0.0519
 1008MOL0     H33031   2.456   9.700   8.060 -1.4866  1.4376 -0.6770
 1008MOL0     H33032   2.525   9.604   8.267  0.7245  0.1311  3.0514
 1008MOL0     H33033   2.393   9.675   8.363 -0.4030 -1.6167 -0.4245
 1008MOL0     H33034   2.607   9.834   8.209 -0.4840  0.0654 -1.5624
 1008MOL0     H33035   2.459   9.904   8.263 -0.7494 -0.7145  1.1663
 1008MOL0     H33036   2.680   9.780   8.448  1.0671  1.6870  0.0946
 1008MOL0     H33037   2.521   9.847   8.499 -0.1650  0.2153 -0.5985
 1008MOL0     H33038   1.731   9.165   8.191  1.4758  0.1784  0.2162
 1008MOL0     H33039   1.471   9.147   8.212 -0.7053 -0.2810 -0.1758
 1008MOL0     H33040   1.034   9.576   8.306  2.0831 -3.1056  0.7652
 1008MOL0     H33041   0.771   9.526   8.296 -3.9202 -2.2072 -2.6234
 1008MOL0     H33042   0.815   8.268   7.257  1.3200 -2.1889 -2.1181
 1008MOL0     H33043   1.049   8.212   7.211  0.0242  0.9218  0.7405
 1008MOL0     H33044   1.510   8.073   7.116  1.0549 -0.1307 -0.5840
 1008MOL0     H33045   1.734   8.017   7.189 -0.9810 -0.4837 -1.1110
 1008MOL0     H33046   1.997   7.915   7.463  0.5540 -2.4866 -3.8659
 1008MOL0     H33047   1.848   7.846   7.382 -0.8968 -2.8911  1.7860
 1008MOL0     H33048   1.894   7.909   7.682  0.4334 -0.3271  0.0786
 1008MOL0     H33049   1.747   7.846   7.622 -1.0941  1.0833  1.3725
 1008MOL0     H33050   1.872   7.659   7.522 -1.0327  1.0999  0.0323
 1008MOL0     H33051   1.877   7.677   7.695 -2.0500  1.4187 -0.9096
 1008MOL0     H33052   2.121   7.731   7.509  0.5342 -0.1623 -0.4906
 1008MOL0     H33053   2.109   7.799   7.673 -3.3131  1.5935  0.2557
 1008MOL0     H33054   2.204   7.380   7.713 -3.8426 -1.9404 -0.6191
 1008MOL0     H33055   1.652   8.068   7.603  1.0132 -0.3796  0.1309
 1008MOL0     H33056   1.409   8.133   7.527 -0.9129 -0.5972 -0.3319
 1009MOL0     O33057   6.428   6.688   8.079  0.5152  0.3640  0.8337
 1009MOL0     C33058   6.466   6.709   7.964 -0.8458  0.4069  0.3380
 1009MOL0     O33059   6.394   6.685   7.853  0.7052  0.1759  0.0950
 1009MOL0     C33060   6.260   6.652   7.875  0.8589 -0.5598  0.6655
 1009MOL0     C33061   6.221   6.522   7.842  0.9313 -0.8846 -0.2317
 1009MOL0     C33062   6.084   6.482   7.868 -0.9675  0.0788  0.3080
 1009MOL0     C33063   5.991   6.567   7.923 -0.5177  0.8797 -0.4695
 1009MOL0     O33064   5.860   6.519   7.923 -0.3027  0.0792 -0.4766
 1009MOL0     C33065   5.764   6.602   7.995  0.3547 -0.2984  0.4938
 1009MOL0     C33066   5.623   6.535   7.992 -1.1287  0.0071  0.1679
 1009MOL0     C33067   5.516   6.600   8.082 -0.2541 -0.2249  0.2733
 1009MOL0     C33068   5.547   6.583   8.237 -0.1748  0.4963 -0.0375
 1009MOL0     C33069   5.537   6.427   8.275  0.0117  0.3532  0.2329
 1009MOL0     C33070   5.540   6.400   8.423 -0.7692  0.6706  0.0188
 1009MOL0     C33071   5.659   6.454   8.508 -0.2314 -0.6989  0.2922
 1009MOL0     C33072   5.680   6.400   8.651 -0.0821 -0.1577 -0.1373
 1009MOL0     N33073   5.771   6.480   8.739 -0.7506  0.7669 -0.8846
 1009MOL0     C33074   5.906   6.488   8.731  0.2922 -0.6588  0.6830
 1009MOL0     C33075   5.945   6.557   8.840 -0.9830  0.3039 -0.1513
 1009MOL0     C33076   6.100   6.594   8.854 -0.7716  0.4141  0.3719
 1009MOL0     C33077   6.127   6.727   8.937 -0.5087  0.3544  0.1055
 1009MOL0     C33078   6.282   6.759   8.950  0.2885  1.2158 -0.0123
 1009MOL0     C33079   6.311   6.870   9.043  0.5518 -0.1524  0.0699
 1009MOL0     O33080   6.279   6.832   9.176 -0.4160  0.6396  0.1827
 1009MOL0     C33081   6.365   6.750   9.245  0.8811 -0.0245 -0.8097
 1009MOL0     C33082   6.493   6.710   9.213 -0.9658 -0.4582 -0.0739
 1009MOL0     C33083   6.568   6.619   9.297  0.8158 -0.4643 -0.3755
 1009MOL0     C33084   6.498   6.566   9.410 -0.5678 -0.8861  0.6600
 1009MOL0     C33085   6.562   6.471   9.500 -0.4950  0.8423  0.1293
 1009MOL0     O33086   6.533   6.484   9.624  0.1339 -0.3249 -0.2082
 1009MOL0     C33087   6.590   6.399   9.728  1.1660  0.0457  1.1875
 1009MOL0     C33088   6.652   6.453   9.836  0.0866 -0.3385 -0.1113
 1009MOL0     C33089   6.694   6.377   9.943  0.7747  0.2624 -0.2118
 1009MOL0     C33090   6.690   6.245   9.940  0.6212 -0.4777 -0.7277
 1009MOL0     O33091   6.742   6.158  10.030 -0.7476  0.2176 -0.2654
 1009MOL0     C33092   6.780   6.207  10.156  0.6461  0.6513 -0.3418
 1009MOL0     C33093   6.772   6.084  10.250 -0.4759 -0.1046  0.2420
 1009MOL0     C33094   6.808   6.115  10.393  0.1556 -0.4022 -0.9283
 1009MOL0     C33095   6.682   6.147  10.475  0.4093  0.5974  0.8022
 1009MOL0     C33096   6.701   6.138  10.626 -1.0228 -0.0961 -0.3380
 1009MOL0     C33097   6.766   6.265  10.669  0.2883 -0.9209  0.7909
 1009MOL0     C33098   6.795   6.265  10.817  0.0111  1.0887 -0.6283
 1009MOL0     C33099   6.886   6.389  10.846 -0.6946 -0.1234 -0.3062
 1009MOL0    Cl33100   7.050   6.329  10.898  0.4842 -0.2829  0.1172
 1009MOL0     C33101   6.624   6.187   9.833 -0.2084 -0.1695 -0.6933
 1009MOL0     C33102   6.574   6.258   9.734  0.0135  0.2208 -0.5669
 1009MOL0     O33103   6.648   6.398   9.455  0.2326 -0.0324 -0.3496
 1009MOL0     C33104   6.373   6.614   9.435  0.2747  0.0754 -1.1744
 1009MOL0     C33105   6.313   6.706   9.365  0.7063 -0.0086  0.6712
 1009MOL0     N33106   5.835   6.591   8.913  0.7603 -0.2619 -0.4335
 1009MOL0     N33107   5.728   6.546   8.843 -0.1714  0.6392 -0.5495
 1009MOL0     C33108   6.029   6.698   7.964 -0.6987 -0.1704  0.7405
 1009MOL0     C33109   6.161   6.742   7.938  0.0073 -0.6143  0.5580
 1009MOL0     C33110   6.606   6.757   7.955 -0.2984 -0.0846 -0.3788
 1009MOL0     C33111   6.668   6.801   7.837 -0.5668 -0.0268  0.7688
 1009MOL0     C33112   6.804   6.833   7.832  0.0127 -0.1313  0.8642
 1009MOL0     C33113   6.882   6.841   7.945  0.2353  0.0438 -0.1970
 1009MOL0     O33114   7.010   6.895   7.961 -0.0542  0.1613  0.4955
 1009MOL0     C33115   7.077   6.949   7.844  0.2649 -0.3399  0.7910
 1009MOL0     C33116   7.221   6.991   7.890  0.5517  0.0207  0.3948
 1009MOL0     C33117   7.282   7.111   7.816  0.9860  1.4133  0.2509
 1009MOL0     C33118   7.250   7.240   7.867  0.2705  0.5558  0.2270
 1009MOL0     C33119   7.111   7.283   7.839  0.2136 -0.2642 -0.0363
 1009MOL0     C33120   6.997   7.323   7.827  0.0246  0.1538  0.0896
 1009MOL0     C33121   6.824   6.806   8.064  0.8963 -0.5853 -0.2859
 1009MOL0     C33122   6.692   6.755   8.068  0.1857  0.1067  0.6790
 1009MOL0     H33123   6.290   6.460   7.786  0.0366 -0.1229 -2.2744
 1009MOL0     H33124   6.054   6.381   7.843 -0.8248 -0.2724  1.4745
 1009MOL0     H33125   5.756   6.705   7.958 -4.4097 -1.5343 -2.9539
 1009MOL0     H33126   5.788   6.614   8.101  2.1324 -1.2968  0.2459
 1009MOL0     H33127   5.638   6.433   8.026 -0.7916  0.3351  1.0290
 1009MOL0     H33128   5.592   6.542   7.887 -0.6244  0.9424  0.0633
 1009MOL0     H33129   5.419   6.555   8.057 -1.6699  1.6870  1.9435
 1009MOL0     H33130   5.527   6.705   8.053 -3.4880 -0.1959 -1.3680
 1009MOL0     H33131   5.642   6.626   8.271 -0.9696  1.6506  0.7752
 1009MOL0     H33132   5.468   6.634   8.292 -1.6057 -1.0562 -0.5793
 1009MOL0     H33133   5.619   6.369   8.232 -0.3300  1.3026 -1.7987
 1009MOL0     H33134   5.442   6.390   8.235  1.4599 -1.1738 -1.9395
 1009MOL0     H33135   5.546   6.291   8.430 -0.9049  0.7012  0.6639
 1009MOL0     H33136   5.446   6.443   8.460 -0.7997 -1.0307  2.1298
 1009MOL0     H33137   5.743   6.434   8.441 -1.1863 -0.8163 -0.9137
 1009MOL0     H33138   5.629   6.558   8.520 -1.6460 -1.4243  5.3653
 1009MOL0     H33139   5.719   6.298   8.642 -2.4269 -0.9450 -2.2914
 1009MOL0     H33140   5.588   6.374   8.704  0.1739 -3.7252 -1.2128
 1009MOL0     H33141   5.977   6.454   8.656  1.3955 -0.5627  1.6607
 1009MOL0     H33142   6.145   6.602   8.755  1.8910  1.1947  1.5432
 1009MOL0     H33143   6.167   6.514   8.888  0.7600  0.1316 -2.9644
 1009MOL0     H33144   6.092   6.717   9.040 -1.2192 -1.2044 -0.2591
 1009MOL0     H33145   6.074   6.806   8.883  1.5714  1.7872  0.0245
 1009MOL0     H33146   6.336   6.665   8.967 -0.8647  0.5376  0.0174
 1009MOL0     H33147   6.321   6.782   8.850  1.9944  2.4945  0.8944
 1009MOL0     H33148   6.246   6.953   9.011  1.3873  0.5212  0.0674
 1009MOL0     H33149   6.413   6.908   9.047 -0.0564  1.5144  2.5405
 1009MOL0     H33150   6.556   6.754   9.136  0.5100  0.3934  1.5451
 1009MOL0     H33151   6.671   6.591   9.279  0.1875 -2.1073 -1.6375
 1009MOL0     H33152   6.671   6.560   9.834  4.1291 -0.8987 -1.6965
 1009MOL0     H33153   6.724   6.421  10.039  2.8760 -1.0513 -0.2064
 1009MOL0     H33154   6.715   6.286  10.195 -2.6233 -1.3394 -1.2963
 1009MOL0     H33155   6.883   6.241  10.150  0.8162 -0.1877 -4.5544
 1009MOL0     H33156   6.855   6.024  10.211 -1.1643  0.9254 -3.1495
 1009MOL0     H33157   6.683   6.021  10.243 -1.4179  1.2473 -0.5576
 1009MOL0     H33158   6.888   6.190  10.400  1.0467 -1.3679 -0.5991
 1009MOL0     H33159   6.841   6.020  10.436 -2.1362 -0.6861  0.3832
 1009MOL0     H33160   6.650   6.244  10.437 -0.4831  0.3159  0.8120
 1009MOL0     H33161   6.603   6.079  10.443 -1.5124  2.6751  0.9304
 1009MOL0     H33162   6.757   6.047  10.652  0.1672  0.3133 -1.3391
 1009MOL0     H33163   6.610   6.123  10.685 -1.2741  0.5842 -0.5461
 1009MOL0     H33164   6.706   6.349  10.633  1.9061  0.7358  1.8093
 1009MOL0     H33165   6.857   6.290  10.613 -0.8535  2.0936  0.0491
 1009MOL0     H33166   6.711   6.274  10.887  0.5697 -0.8301  0.3464
 1009MOL0     H33167   6.852   6.174  10.839 -2.5092 -0.6879 -1.0027
 1009MOL0     H33168   6.854   6.452  10.929 -0.8037 -0.4922 -0.0634
 1009MOL0     H33169   6.898   6.448  10.755  1.4990 -0.9432 -0.6114
 1009MOL0     H33170   6.600   6.081   9.834  1.4836 -0.6113 -1.8173
 1009MOL0     H33171   6.516   6.205   9.659 -1.6094 -2.2433  2.2047
 1009MOL0     H33172   6.326   6.587   9.529  0.9424 -0.1159 -0.8850
 1009MOL0     H33173   6.213   6.739   9.392 -0.9323 -3.0650 -1.1015
 1009MOL0     H33174   5.967   6.772   8.011 -0.0860  2.1143 -1.8026
 1009MOL0     H33175   6.192   6.839   7.974  2.0376 -0.4726 -1.3641
 1009MOL0     H33176   6.621   6.788   7.740  1.6432  0.8156 -0.4829
 1009MOL0     H33177   6.848   6.864   7.737 -1.3325  2.0130  0.8498
 1009MOL0     H33178   7.022   7.038   7.812  0.5207  0.4256  2.3755
 1009MOL0     H33179   7.071   6.865   7.775 -1.9169 -0.0791  0.5925
 1009MOL0     H33180   7.245   7.000   7.996 -1.1096 -0.9594  0.8984
 1009MOL0     H33181   7.281   6.905   7.859  1.5572  1.0785 -0.6932
 1009MOL0     H33182   7.258   7.109   7.710  1.3017  0.3562  0.1879
 1009MOL0     H33183   7.390   7.098   7.828  0.8281  0.0154  0.3981
 1009MOL0     H33184   7.265   7.243   7.976 -2.0664 -1.7130  0.7127
 1009MOL0     H33185   7.326   7.307   7.826  0.6337 -0.2274 -0.3768
 1009MOL0     H33186   6.906   7.372   7.800  0.4417  0.8225 -0.1133
 1009MOL0     H33187   6.886   6.820   8.153  3.7192 -2.7511 -1.7411
 1009MOL0     H33188   6.662   6.726   8.168  0.5949 -1.8255  0.2777
 1010MOL0     O33189   9.230   0.011   8.518 -0.6816  0.1886  0.2844
 1010MOL0     C33190   9.232  -0.055   8.624  0.5749  0.1788  1.9939
 1010MOL0     O33191   9.342  -0.114   8.669  0.5462 -1.2341 -0.3868
 1010MOL0     C33192   9.461  -0.109   8.602  0.1262 -0.5776  0.5705
 1010MOL0     C33193   9.517  -0.007   8.516 -0.9893  0.2426 -0.5211
 1010MOL0     C33194   9.635  -0.022   8.453 -0.1746  0.2723 -0.5705
 1010MOL0     C33195   9.717  -0.135   8.466  0.0667  0.7974 -0.4989
 1010MOL0     O33196   9.842  -0.152   8.401 -0.3670 -0.0814 -0.1070
 1010MOL0     C33197   9.844  -0.128   8.259  0.3587  0.4954  0.8665
 1010MOL0     C33198   9.762  -0.225   8.177  1.7915  0.4254 -0.8038
 1010MOL0     C33199   9.762  -0.209   8.020  0.1888 -0.4993 -0.2166
 1010MOL0     C33200   9.679  -0.083   7.980 -0.9931  0.6559 -0.7022
 1010MOL0     C33201   9.717  -0.042   7.843  1.3703 -0.1605  0.1689
 1010MOL0     C33202   9.629  -0.109   7.739 -1.0753  0.2415 -0.2351
 1010MOL0     C33203   9.691  -0.072   7.601  0.3057 -0.4408 -0.3044
 1010MOL0     C33204   9.620  -0.142   7.477 -1.0212 -0.3778 -0.3287
 1010MOL0     N33205   9.659  -0.097   7.337 -0.2054 -0.2819  0.0615
 1010MOL0     C33206   9.594   0.015   7.284  0.3452  0.0535  0.3101
 1010MOL0     C33207   9.681   0.066   7.189 -0.2554  0.6123 -0.9044
 1010MOL0     C33208   9.659   0.203   7.119 -0.8587  0.3810 -0.9882
 1010MOL0     C33209   9.528   0.215   7.055  1.0647 -0.1328  0.4657
 1010MOL0     C33210   9.496   0.349   6.984  0.1195 -0.1654 -0.3129
 1010MOL0     C33211   9.361   0.359   6.914 -0.3162 -0.3688  0.1629
 1010MOL0     O33212   9.247   0.304   6.978 -0.4142 -0.6347  0.3662
 1010MOL0     C33213   9.189   0.366   7.084 -0.0738 -0.5662 -0.0327
 1010MOL0     C33214   9.227   0.482   7.144 -0.2158 -1.1944  0.0058
 1010MOL0     C33215   9.145   0.555   7.229 -0.6893  0.6674  0.9927
 1010MOL0     C33216   9.021   0.497   7.271 -0.4653  1.0053  1.1860
 1010MOL0     C33217   8.939   0.567   7.364  0.4932 -0.1319  0.3641
 1010MOL0     O33218   9.011   0.674   7.419  0.0725  0.3694 -0.1471
 1010MOL0     C33219   8.926   0.750   7.493  0.0678  0.1154 -0.3575
 1010MOL0     C33220   8.832   0.821   7.423 -0.0735  0.1998  0.2106
 1010MOL0     C33221   8.738   0.901   7.496 -0.0442 -0.1508 -0.1853
 1010MOL0     C33222   8.753   0.910   7.633 -0.2793  0.1209  0.3962
 1010MOL0     O33223   8.639   0.976   7.675 -0.2068 -0.2004  0.1694
 1010MOL0     C33224   8.615   0.970   7.815 -0.1898  0.6971 -0.9853
 1010MOL0     C33225   8.471   1.009   7.832  0.0461  0.4378  0.1066
 1010MOL0     C33226   8.434   0.995   7.983 -0.6131  0.8266 -0.4889
 1010MOL0     C33227   8.281   0.988   7.985 -0.3268 -0.4201 -0.4659
 1010MOL0     C33228   8.242   0.841   7.989  0.5507 -0.2374 -0.5540
 1010MOL0     C33229   8.104   0.823   8.031  0.3088  0.6709  0.3859
 1010MOL0     C33230   8.054   0.677   7.997 -0.4900 -0.3247  0.0580
 1010MOL0     C33231   7.909   0.647   7.976  0.2357  0.4970 -0.5729
 1010MOL0    Cl33232   7.838   0.693   8.133 -0.0375  0.1836  0.2730
 1010MOL0     C33233   8.857   0.848   7.696 -0.3258  0.1096 -0.1315
 1010MOL0     C33234   8.949   0.759   7.630  0.0478  0.5792 -0.7009
 1010MOL0     O33235   8.818   0.540   7.374 -0.1233  0.0835 -0.0956
 1010MOL0     C33236   8.970   0.382   7.206 -0.6553 -0.5313  0.1366
 1010MOL0     C33237   9.063   0.319   7.114 -0.4552  0.2975 -0.5102
 1010MOL0     N33238   9.798  -0.015   7.187  0.2022  0.4411  0.0761
 1010MOL0     N33239   9.786  -0.098   7.288 -0.2871  0.4689 -0.2095
 1010MOL0     C33240   9.668  -0.229   8.558 -0.2714 -0.3312 -0.9667
 1010MOL0     C33241   9.547  -0.211   8.643  0.2052 -0.0272  0.2162
 1010MOL0     C33242   9.119  -0.044   8.709  0.1326 -0.7464  1.1946
 1010MOL0     C33243   9.123  -0.121   8.823  0.3769 -0.5596 -0.2459
 1010MOL0     C33244   9.012  -0.108   8.914  0.7094  0.2562  0.1785
 1010MOL0     C33245   8.896  -0.025   8.890 -0.5686 -0.3318 -1.0088
 1010MOL0     O33246   8.783  -0.038   8.974 -0.1589  0.1418  0.1902
 1010MOL0     C33247   8.669   0.035   8.942 -0.3882  0.4645  0.1072
 1010MOL0     C33248   8.667   0.180   8.985 -0.4196 -0.8770 -0.5407
 1010MOL0     C33249   8.528   0.250   8.986 -1.0515 -0.9119  0.2939
 1010MOL0     C33250   8.445   0.254   9.116 -0.2740  0.0225  0.1628
 1010MOL0     C33251   8.507   0.307   9.238 -0.8252  1.5680  0.3487
 1010MOL0     C33252   8.556   0.352   9.341  0.1869  0.0970  0.4975
 1010MOL0     C33253   8.897   0.051   8.768  1.0952  0.1089  0.5987
 1010MOL0     C33254   9.010   0.044   8.679 -0.4731 -0.2092  0.3865
 1010MOL0     H33255   9.474   0.092   8.502 -0.4213  0.5316 -0.2390
 1010MOL0     H33256   9.670   0.059   8.389  2.4491 -1.6392 -1.7402
 1010MOL0     H33257   9.946  -0.126   8.218 -0.1765 -2.4355 -0.8601
 1010MOL0     H33258   9.802  -0.029   8.241 -2.5684 -0.5194  1.6840
 1010MOL0     H33259   9.660  -0.220   8.216  2.6468 -0.0945  1.6594
 1010MOL0     H33260   9.793  -0.327   8.200 -3.2028 -0.7305  2.4810
 1010MOL0     H33261   9.708  -0.295   7.980 -3.3700  1.4780 -0.0759
 1010MOL0     H33262   9.868  -0.202   7.991 -0.2076  3.4540 -1.3474
 1010MOL0     H33263   9.572  -0.098   7.997 -0.8278  0.8160  0.6319
 1010MOL0     H33264   9.714  -0.013   8.057  4.2106 -1.1194 -1.0904
 1010MOL0     H33265   9.821  -0.073   7.831  1.5054  0.8040 -1.5319
 1010MOL0     H33266   9.713   0.068   7.841  2.5224 -0.0699  1.3323
 1010MOL0     H33267   9.527  -0.069   7.740 -0.2436  2.8066 -2.7454
 1010MOL0     H33268   9.627  -0.216   7.757  1.0116  0.1164 -0.4424
 1010MOL0     H33269   9.668   0.031   7.575 -0.9675 -0.6215  0.0687
 1010MOL0     H33270   9.797  -0.103   7.597 -0.3580 -3.2501  1.0528
 1010MOL0     H33271   9.512  -0.134   7.496 -0.4715  2.0534  2.5410
 1010MOL0     H33272   9.652  -0.246   7.488 -2.0541 -0.4086  4.5298
 1010MOL0     H33273   9.502   0.053   7.326  1.4412  0.4917  2.4453
 1010MOL0     H33274   9.733   0.223   7.041 -0.9494 -1.0471 -1.4657
 1010MOL0     H33275   9.679   0.284   7.190  3.1390 -1.2957  0.0831
 1010MOL0     H33276   9.449   0.195   7.128 -0.4585 -0.0563 -1.0871
 1010MOL0     H33277   9.516   0.138   6.978 -1.7796  2.6832 -2.1758
 1010MOL0     H33278   9.513   0.420   7.065  0.9761 -2.5183  1.7036
 1010MOL0     H33279   9.574   0.366   6.909 -1.3371  2.3179 -1.3813
 1010MOL0     H33280   9.368   0.298   6.824  2.1545 -1.1805  0.8083
 1010MOL0     H33281   9.344   0.464   6.888 -0.2557 -0.7806 -1.6482
 1010MOL0     H33282   9.330   0.518   7.136  0.3845 -1.5496  4.1030
 1010MOL0     H33283   9.188   0.646   7.271  0.1835 -0.2602  2.2010
 1010MOL0     H33284   8.814   0.821   7.316  1.6835 -1.2986 -0.1281
 1010MOL0     H33285   8.651   0.943   7.447  0.1098 -2.2151 -2.4705
 1010MOL0     H33286   8.683   1.033   7.872  0.6791 -2.4398  1.7706
 1010MOL0     H33287   8.631   0.864   7.839  1.4452  0.3832 -3.1261
 1010MOL0     H33288   8.396   0.958   7.772 -1.2743 -0.6437  2.5249
 1010MOL0     H33289   8.464   1.114   7.805  1.3784  0.1537 -1.5031
 1010MOL0     H33290   8.468   1.087   8.032  1.9726 -0.5477  0.4808
 1010MOL0     H33291   8.489   0.911   8.026 -4.5330 -1.4643  0.4741
 1010MOL0     H33292   8.236   1.030   8.075 -2.1830 -0.6165 -1.2667
 1010MOL0     H33293   8.242   1.040   7.897  0.9259 -1.9575 -1.9971
 1010MOL0     H33294   8.295   0.778   8.060 -1.4085 -0.8704  0.3973
 1010MOL0     H33295   8.257   0.794   7.891 -4.4802 -0.0834 -1.6955
 1010MOL0     H33296   8.037   0.885   7.971  1.9436 -0.6691 -3.1195
 1010MOL0     H33297   8.072   0.835   8.135 -3.9866 -1.5001 -0.4296
 1010MOL0     H33298   8.094   0.644   7.901  1.0423 -2.6047  1.3882
 1010MOL0     H33299   8.076   0.607   8.078 -2.1298 -1.8789 -0.7889
 1010MOL0     H33300   7.888   0.544   7.945 -1.0985  0.4038  0.5716
 1010MOL0     H33301   7.874   0.716   7.899 -1.9068  3.1157  2.5255
 1010MOL0     H33302   8.864   0.867   7.802 -3.4317 -0.1802  0.2217
 1010MOL0     H33303   9.032   0.706   7.676 -1.5633 -1.8052 -0.3622
 1010MOL0     H33304   8.872   0.341   7.228  0.0143 -1.4739  1.4785
 1010MOL0     H33305   9.037   0.217   7.088  0.6939  0.0159 -0.5888
 1010MOL0     H33306   9.737  -0.306   8.591 -1.3833 -0.8307  0.2788
 1010MOL0     H33307   9.508  -0.278   8.719 -2.8519  1.4306  0.0790
 1010MOL0     H33308   9.206  -0.188   8.842  1.0152  0.6592  1.5545
 1010MOL0     H33309   9.008  -0.143   9.017  2.5746  3.5610  1.5411
 1010MOL0     H33310   8.593  -0.010   9.008  2.1160 -2.7988  1.0427
 1010MOL0     H33311   8.648   0.023   8.835  0.2471  0.3898 -0.0141
 1010MOL0     H33312   8.696   0.178   9.090 -1.2821 -1.5626 -0.3005
 1010MOL0     H33313   8.728   0.252   8.929 -1.3218 -2.7519 -4.2149
 1010MOL0     H33314   8.457   0.212   8.913 -0.5077 -1.2794 -0.0473
 1010MOL0     H33315   8.541   0.359   8.976  0.6098 -1.1757 -0.8758
 1010MOL0     H33316   8.368   0.328   9.094  0.1918  1.4336  2.8718
 1010MOL0     H33317   8.386   0.164   9.135 -2.2503  1.6299  2.2369
 1010MOL0     H33318   8.602   0.377   9.435  1.9169 -0.6731 -0.0901
 1010MOL0     H33319   8.811   0.107   8.731 -0.2653 -2.7224 -0.8023
 1010MOL0     H33320   9.015   0.094   8.583  0.2574  1.0925  1.0691
 1011MOL0     O33321   3.971  11.390   6.131 -0.5175 -0.5465 -0.6394
 1011MOL0     C33322   4.005  11.471   6.046 -0.1194 -0.6404  0.3013
 1011MOL0     O33323   4.115  11.442   5.958  0.7738 -0.4356 -0.8123
 1011MOL0     C33324   4.174  11.318   5.950  0.5132  1.0230 -0.2520
 1011MOL0     C33325   4.115  11.194   5.928 -0.0558 -0.7244  0.1227
 1011MOL0     C33326   4.194  11.082   5.897  0.4962  0.5482  0.5264
 1011MOL0     C33327   4.333  11.090   5.902 -0.6102 -0.4089  0.5795
 1011MOL0     O33328   4.400  10.973   5.875 -0.9300 -0.3455 -0.0461
 1011MOL0     C33329   4.538  10.983   5.835  0.4902 -1.0313  0.8739
 1011MOL0     C33330   4.600  10.853   5.773 -0.4746  0.3195 -0.3365
 1011MOL0     C33331   4.747  10.850   5.745  0.0889 -0.1326 -0.7125
 1011MOL0     C33332   4.819  10.866   5.878  0.5690  0.1067  0.5428
 1011MOL0     C33333   4.971  10.865   5.855 -0.5728  0.3352 -0.5063
 1011MOL0     C33334   5.042  10.921   5.984  0.1890 -0.5622  0.1683
 1011MOL0     C33335   5.194  10.883   5.980 -0.3753  0.4167 -0.1281
 1011MOL0     C33336   5.230  10.742   6.044 -0.4594 -0.6017  0.7415
 1011MOL0     N33337   5.372  10.746   6.081 -0.1717 -0.3062  0.1751
 1011MOL0     C33338   5.473  10.702   5.997 -0.5533 -0.2890 -1.0602
 1011MOL0     C33339   5.587  10.727   6.062 -0.3820 -1.2119 -1.0973
 1011MOL0     C33340   5.718  10.697   6.010  0.1674 -0.8295 -0.1363
 1011MOL0     C33341   5.835  10.733   6.106 -0.1409 -0.2299 -0.3904
 1011MOL0     C33342   5.975  10.733   6.048  1.3263  0.2242 -0.1552
 1011MOL0     C33343   6.068  10.799   6.146 -0.2063 -0.1653  0.4540
 1011MOL0     O33344   6.079  10.712   6.266 -0.0348 -0.3687 -0.2402
 1011MOL0     C33345   6.209  10.710   6.324 -0.3606  0.2597 -0.9815
 1011MOL0     C33346   6.293  10.825   6.332 -0.1828  1.5352  0.2368
 1011MOL0     C33347   6.422  10.842   6.399  1.1512  0.0446  0.2479
 1011MOL0     C33348   6.457  10.721   6.465  0.1026  0.2718  0.4473
 1011MOL0     C33349   6.593  10.720   6.533  0.6851 -1.3013 -0.0772
 1011MOL0     O33350   6.688  10.802   6.478 -0.6207 -0.1672  0.3680
 1011MOL0     C33351   6.820  10.806   6.520  0.9345 -0.8988  0.3437
 1011MOL0     C33352   6.909  10.820   6.415  0.1585  0.1956 -0.1958
 1011MOL0     C33353   7.045  10.829   6.445 -0.5435 -1.1675  0.2187
 1011MOL0     C33354   7.094  10.835   6.578  0.7519 -0.9218  0.0444
 1011MOL0     O33355   7.229  10.843   6.595  0.0393  0.7199  0.0585
 1011MOL0     C33356   7.293  10.893   6.713 -0.0417  1.4525  0.0597
 1011MOL0     C33357   7.443  10.910   6.685  0.2966 -0.1275  0.9555
 1011MOL0     C33358   7.512  10.777   6.657  0.4777 -1.3296 -0.9339
 1011MOL0     C33359   7.661  10.786   6.689 -0.7628  0.1384  0.1449
 1011MOL0     C33360   7.728  10.661   6.644  0.1087 -0.5935 -0.8408
 1011MOL0     C33361   7.881  10.654   6.681 -0.3087 -0.0183 -0.0309
 1011MOL0     C33362   7.959  10.785   6.681  0.3913  0.1899  0.6477
 1011MOL0     C33363   8.113  10.768   6.702 -0.4166 -0.4670 -0.1871
 1011MOL0    Cl33364   8.142  10.706   6.873  0.1550 -0.0064  0.4123
 1011MOL0     C33365   6.998  10.806   6.678 -0.2396 -0.4552 -0.5561
 1011MOL0     C33366   6.866  10.793   6.653  0.3200  0.4586 -0.1228
 1011MOL0     O33367   6.612  10.639   6.625  0.0374  0.0481 -0.6919
 1011MOL0     C33368   6.380  10.600   6.450 -0.1676 -1.1549  0.4100
 1011MOL0     C33369   6.253  10.600   6.396  0.2578 -0.2615  0.3299
 1011MOL0     N33370   5.558  10.776   6.182 -0.0254 -0.2044 -1.2281
 1011MOL0     N33371   5.434  10.794   6.196  0.7983  0.1428  1.2159
 1011MOL0     C33372   4.392  11.213   5.931 -1.2641  0.0013  0.6851
 1011MOL0     C33373   4.315  11.328   5.952 -0.1995 -0.4745 -0.2515
 1011MOL0     C33374   3.955  11.618   6.055  0.3251  0.8350  0.8613
 1011MOL0     C33375   4.004  11.724   5.958 -0.1787  0.1324 -0.9092
 1011MOL0     C33376   3.956  11.851   5.962 -0.1212 -1.0845 -0.3617
 1011MOL0     C33377   3.882  11.885   6.076  0.3486  0.4023 -0.5593
 1011MOL0     O33378   3.822  11.999   6.110 -0.1165 -0.2110 -0.6235
 1011MOL0     C33379   3.877  12.123   6.074 -0.5838  0.3450 -0.2041
 1011MOL0     C33380   3.802  12.233   6.167 -0.4023 -0.3384 -0.2171
 1011MOL0     C33381   3.867  12.226   6.309 -1.0331 -0.7377  0.1337
 1011MOL0     C33382   3.840  12.361   6.395 -0.1548  0.4442  0.0222
 1011MOL0     C33383   3.698  12.370   6.441  0.1605  0.6950  0.6807
 1011MOL0     C33384   3.589  12.381   6.492  0.4672  0.8656  0.0521
 1011MOL0     C33385   3.840  11.786   6.171  1.1433  0.0455  0.2443
 1011MOL0     C33386   3.876  11.653   6.158  0.2839  1.5711 -0.5858
 1011MOL0     H33387   4.007  11.187   5.933  0.0008 -0.9187  1.4478
 1011MOL0     H33388   4.154  10.981   5.894  1.2121  0.2521  0.8701
 1011MOL0     H33389   4.597  11.011   5.923 -1.4250  1.6625  1.4101
 1011MOL0     H33390   4.554  11.067   5.767 -0.4567 -2.7798 -1.6963
 1011MOL0     H33391   4.546  10.824   5.682  0.2959 -3.0270  0.1163
 1011MOL0     H33392   4.574  10.769   5.837  1.0203  0.1837  0.1233
 1011MOL0     H33393   4.758  10.940   5.684 -0.4506 -0.0771 -0.7372
 1011MOL0     H33394   4.777  10.759   5.693 -0.6309  0.9863 -3.2609
 1011MOL0     H33395   4.783  10.955   5.931 -0.5541  0.4056 -0.6775
 1011MOL0     H33396   4.785  10.778   5.932  1.8493 -0.3010  0.7157
 1011MOL0     H33397   4.980  10.929   5.766 -3.3267  2.2653  0.4807
 1011MOL0     H33398   5.016  10.770   5.824  1.7364  1.1926 -0.0068
 1011MOL0     H33399   4.999  10.882   6.076 -0.3459  1.2194  0.7113
 1011MOL0     H33400   5.027  11.028   5.999  3.7543  0.0578  0.1975
 1011MOL0     H33401   5.233  10.891   5.878 -0.6389 -1.4366 -0.4181
 1011MOL0     H33402   5.237  10.957   6.048 -0.2601 -0.3356  0.6321
 1011MOL0     H33403   5.219  10.663   5.969 -1.2835 -1.0886  1.3521
 1011MOL0     H33404   5.172  10.716   6.133 -1.2869 -2.0035 -0.1694
 1011MOL0     H33405   5.464  10.668   5.894  0.7980  2.1962 -2.0871
 1011MOL0     H33406   5.727  10.738   5.909  2.1209 -1.1527 -0.1451
 1011MOL0     H33407   5.735  10.592   5.987  1.7810 -0.7714  0.6409
 1011MOL0     H33408   5.827  10.661   6.188 -1.1211 -0.0007 -0.2804
 1011MOL0     H33409   5.817  10.832   6.148  0.5994  0.6285 -2.0010
 1011MOL0     H33410   6.006  10.634   6.015  2.8900  1.1142 -1.5450
 1011MOL0     H33411   5.965  10.783   5.951 -3.5040 -2.2145 -1.2288
 1011MOL0     H33412   6.029  10.899   6.163 -1.8633 -0.4277 -1.5013
 1011MOL0     H33413   6.155  10.800   6.080  0.4431 -0.5152  1.2787
 1011MOL0     H33414   6.271  10.905   6.263  1.7161  1.0257 -1.0242
 1011MOL0     H33415   6.481  10.932   6.403 -1.6138  1.9811  3.7110
 1011MOL0     H33416   6.880  10.814   6.311  0.3002 -1.5555 -0.1588
 1011MOL0     H33417   7.110  10.840   6.359 -2.8969 -1.4428 -1.6850
 1011MOL0     H33418   7.288  10.821   6.795 -0.7564  0.9356 -0.4221
 1011MOL0     H33419   7.255  10.991   6.740  0.7037  2.1701 -1.3749
 1011MOL0     H33420   7.481  10.967   6.770  0.7587  1.1506 -0.0610
 1011MOL0     H33421   7.456  10.969   6.593 -0.0581  1.0810  1.6582
 1011MOL0     H33422   7.504  10.750   6.551 -0.4747 -0.5105 -1.0830
 1011MOL0     H33423   7.470  10.701   6.723  0.8725  0.2740  1.2906
 1011MOL0     H33424   7.705  10.866   6.629 -0.8263 -1.2331 -1.8567
 1011MOL0     H33425   7.677  10.816   6.793  0.7970  2.5109 -0.6948
 1011MOL0     H33426   7.712  10.656   6.536 -1.2908  0.0242 -0.6782
 1011MOL0     H33427   7.681  10.580   6.700  0.4718  0.1654  0.6206
 1011MOL0     H33428   7.934  10.599   6.603  0.6223 -0.0027  0.5718
 1011MOL0     H33429   7.891  10.602   6.777  0.3374  0.9087  0.4241
 1011MOL0     H33430   7.947  10.822   6.578  1.1202 -1.5147 -0.0807
 1011MOL0     H33431   7.924  10.854   6.758  0.3494  1.1824 -0.2324
 1011MOL0     H33432   8.153  10.870   6.697  1.1014 -0.9124  1.6854
 1011MOL0     H33433   8.156  10.707   6.622  1.8439  2.3869 -1.3330
 1011MOL0     H33434   7.033  10.789   6.779  2.4589 -1.2646 -1.5244
 1011MOL0     H33435   6.800  10.775   6.736  0.6267 -1.5420 -0.2798
 1011MOL0     H33436   6.397  10.508   6.505  0.7158 -1.7030 -0.7409
 1011MOL0     H33437   6.202  10.506   6.418  1.7673 -1.2785 -0.3166
 1011MOL0     H33438   4.498  11.233   5.943 -1.5925  1.7376  0.8506
 1011MOL0     H33439   4.369  11.420   5.973 -1.1078 -0.0224  0.1690
 1011MOL0     H33440   4.065  11.685   5.877  0.5528 -0.4001 -0.1234
 1011MOL0     H33441   3.969  11.932   5.891  1.1217 -0.5257  0.4713
 1011MOL0     H33442   3.861  12.135   5.967  1.3052 -1.8402 -0.8238
 1011MOL0     H33443   3.986  12.128   6.082 -0.7099  5.1450  1.1542
 1011MOL0     H33444   3.816  12.328   6.115 -3.2552 -1.3953 -3.2729
 1011MOL0     H33445   3.696  12.212   6.183 -0.9273  1.8886 -0.3951
 1011MOL0     H33446   3.972  12.207   6.285 -1.4621 -2.4856 -0.4835
 1011MOL0     H33447   3.825  12.137   6.355 -0.2377 -0.4041  1.5800
 1011MOL0     H33448   3.899  12.353   6.487 -1.1346 -0.9404  0.5683
 1011MOL0     H33449   3.886  12.446   6.344 -0.1802  0.3633 -0.1354
 1011MOL0     H33450   3.485  12.386   6.517 -0.1768 -0.3849 -2.0899
 1011MOL0     H33451   3.772  11.812   6.252  2.0668 -1.7292  1.6539
 1011MOL0     H33452   3.839  11.576   6.224  0.6061 -0.0008 -2.1511
 1012MOL0     O33453   1.395   1.104   6.962  0.4460 -0.1837  0.1744
 1012MOL0     C33454   1.368   1.223   6.929  0.9999 -0.9751 -0.0059
 1012MOL0     O33455   1.414   1.341   6.994  0.1437  0.1391  0.1803
 1012MOL0     C33456   1.488   1.313   7.107  0.7683  0.6732 -0.6048
 1012MOL0     C33457   1.430   1.252   7.214  0.1112  0.2706  0.8951
 1012MOL0     C33458   1.502   1.246   7.335 -0.5805 -0.1173 -0.1335
 1012MOL0     C33459   1.635   1.289   7.329  0.6189  0.5916 -0.0925
 1012MOL0     O33460   1.710   1.283   7.444  0.3899  0.0968 -0.4473
 1012MOL0     C33461   1.678   1.391   7.534  0.4290  0.3579  0.0972
 1012MOL0     C33462   1.736   1.343   7.669 -0.6500  0.6546 -0.3075
 1012MOL0     C33463   1.888   1.336   7.679  0.4761  1.1181 -0.1544
 1012MOL0     C33464   1.931   1.338   7.821  0.3029 -0.8558  0.0737
 1012MOL0     C33465   2.079   1.338   7.854  0.5584 -0.2358  0.3717
 1012MOL0     C33466   2.144   1.464   7.816  1.2044 -1.0587  0.8732
 1012MOL0     C33467   2.278   1.464   7.884  0.6358 -0.4503  1.0873
 1012MOL0     C33468   2.363   1.590   7.856  0.0388  0.3929  0.9199
 1012MOL0     N33469   2.486   1.589   7.930  0.4500 -0.4213 -0.3441
 1012MOL0     C33470   2.482   1.595   8.076 -1.0683 -0.0936  1.0272
 1012MOL0     C33471   2.614   1.585   8.095  0.7728  0.4890 -0.9400
 1012MOL0     C33472   2.674   1.608   8.232  0.1705 -0.4387 -0.0170
 1012MOL0     C33473   2.685   1.482   8.327  0.2018 -0.8269  1.3523
 1012MOL0     C33474   2.760   1.502   8.460 -0.1173 -0.0042  0.1624
 1012MOL0     C33475   2.768   1.365   8.532  0.0883 -0.3352  0.8958
 1012MOL0     O33476   2.830   1.264   8.440 -0.7655  0.3239 -0.0608
 1012MOL0     C33477   2.963   1.260   8.430 -0.6283  0.3391  0.1610
 1012MOL0     C33478   3.013   1.163   8.339  0.0285  0.4891 -1.2075
 1012MOL0     C33479   3.146   1.133   8.338 -0.2555 -0.2662  0.8441
 1012MOL0     C33480   3.245   1.217   8.394  0.1436 -0.3529 -0.1696
 1012MOL0     C33481   3.392   1.196   8.371 -0.6428 -0.1274 -0.6877
 1012MOL0     O33482   3.476   1.303   8.401  0.1270 -0.1107  0.1283
 1012MOL0     C33483   3.608   1.280   8.381 -0.3866 -0.3747 -0.7082
 1012MOL0     C33484   3.698   1.274   8.498  0.7012 -0.0773 -0.0926
 1012MOL0     C33485   3.837   1.241   8.479  1.0067  0.8795 -0.7624
 1012MOL0     C33486   3.902   1.236   8.356  0.7744 -0.2422  0.6782
 1012MOL0     O33487   4.034   1.224   8.327 -0.5621  0.6810  0.4776
 1012MOL0     C33488   4.126   1.229   8.442 -0.5934 -0.6359  0.6684
 1012MOL0     C33489   4.274   1.216   8.394 -1.0681  0.4641 -0.1776
 1012MOL0     C33490   4.368   1.157   8.503 -0.8081 -0.1872 -0.2624
 1012MOL0     C33491   4.514   1.198   8.490  0.2069  0.8220  0.3673
 1012MOL0     C33492   4.599   1.147   8.609  0.3181  0.5130 -0.8180
 1012MOL0     C33493   4.749   1.121   8.585  0.1896 -0.0278  0.5381
 1012MOL0     C33494   4.815   1.057   8.718  0.3812 -0.5730 -0.4908
 1012MOL0     C33495   4.779   0.909   8.736  0.3491 -0.0902 -0.0448
 1012MOL0    Cl33496   4.886   0.810   8.855  0.0399  0.2250 -0.1241
 1012MOL0     C33497   3.811   1.246   8.244 -0.3813  0.2127 -0.3088
 1012MOL0     C33498   3.670   1.266   8.255 -0.0466 -0.4918  0.6426
 1012MOL0     O33499   3.438   1.086   8.335  0.4598  0.5350 -0.1133
 1012MOL0     C33500   3.197   1.317   8.472  0.0619 -1.2316 -0.3530
 1012MOL0     C33501   3.058   1.338   8.497  0.6108 -0.4153  0.0003
 1012MOL0     N33502   2.687   1.575   7.983  0.1351  0.3373  0.4406
 1012MOL0     N33503   2.612   1.584   7.881 -0.0832 -0.1551 -0.5038
 1012MOL0     C33504   1.700   1.333   7.216 -0.2997  0.2748 -0.9149
 1012MOL0     C33505   1.619   1.360   7.103 -0.3135 -0.3876 -1.4546
 1012MOL0     C33506   1.271   1.243   6.819 -1.2539 -0.4985  0.2567
 1012MOL0     C33507   1.177   1.139   6.788  0.1209  0.4176  0.0773
 1012MOL0     C33508   1.080   1.149   6.691 -0.2904 -0.3507 -0.1010
 1012MOL0     C33509   1.088   1.258   6.613 -0.6120  0.4029  0.2000
 1012MOL0     O33510   1.007   1.282   6.509  1.0045 -0.3587 -0.7388
 1012MOL0     C33511   0.925   1.169   6.448  0.2182 -0.3178  0.0319
 1012MOL0     C33512   0.885   1.205   6.305  0.4685 -0.6634  0.1156
 1012MOL0     C33513   0.993   1.237   6.203 -0.0114  0.1350  0.0992
 1012MOL0     C33514   1.127   1.157   6.197 -0.3717 -0.2206 -0.3379
 1012MOL0     C33515   1.240   1.235   6.263  0.5987  0.3220  0.6537
 1012MOL0     C33516   1.334   1.304   6.293  0.7881  0.3438 -0.7496
 1012MOL0     C33517   1.172   1.360   6.644 -0.3406 -0.4259  0.1313
 1012MOL0     C33518   1.255   1.359   6.752 -0.6443 -0.6420 -0.1603
 1012MOL0     H33519   1.331   1.209   7.210  0.9785 -1.9877  2.2505
 1012MOL0     H33520   1.465   1.194   7.423  1.2279 -1.4927 -0.1221
 1012MOL0     H33521   1.570   1.401   7.533  0.6066  2.9809  0.9029
 1012MOL0     H33522   1.713   1.492   7.511 -0.2605  1.1811  2.3776
 1012MOL0     H33523   1.698   1.245   7.698 -0.6223  0.9635  0.8713
 1012MOL0     H33524   1.695   1.399   7.754  0.3064 -1.8663  1.9798
 1012MOL0     H33525   1.935   1.417   7.622  0.4762 -1.0560 -3.4954
 1012MOL0     H33526   1.916   1.244   7.627 -3.3243 -0.7394  0.7601
 1012MOL0     H33527   1.883   1.425   7.868  2.8756  2.8904 -3.5074
 1012MOL0     H33528   1.885   1.253   7.871  0.0744  0.2212  1.7636
 1012MOL0     H33529   2.137   1.249   7.827 -2.1964 -2.1428  0.3518
 1012MOL0     H33530   2.083   1.322   7.962 -0.0549 -0.8100  0.3147
 1012MOL0     H33531   2.086   1.544   7.864  0.1726 -1.3019  0.0751
 1012MOL0     H33532   2.136   1.481   7.708  0.1443 -1.5989  0.8462
 1012MOL0     H33533   2.263   1.459   7.992 -3.4762 -0.7915  0.6704
 1012MOL0     H33534   2.336   1.379   7.847 -0.2881 -0.7220  0.2232
 1012MOL0     H33535   2.316   1.688   7.868  0.4254  0.3887  2.7420
 1012MOL0     H33536   2.392   1.574   7.751 -0.5503 -0.1231  0.8273
 1012MOL0     H33537   2.402   1.614   8.146 -1.9025 -0.4262  0.1972
 1012MOL0     H33538   2.619   1.688   8.282  0.9433  0.7192 -0.9789
 1012MOL0     H33539   2.774   1.645   8.208  1.0911 -4.0627 -2.5955
 1012MOL0     H33540   2.729   1.408   8.259 -1.1157  1.5285 -2.4054
 1012MOL0     H33541   2.585   1.442   8.345  0.0456 -1.8149 -1.2133
 1012MOL0     H33542   2.867   1.524   8.460  0.1549 -0.7713  3.1655
 1012MOL0     H33543   2.720   1.585   8.518  2.3893  2.5998 -1.5994
 1012MOL0     H33544   2.665   1.346   8.565 -0.6971 -0.3850 -1.3640
 1012MOL0     H33545   2.826   1.392   8.620 -3.3963 -1.0004  3.6091
 1012MOL0     H33546   2.937   1.105   8.287 -2.8196  1.0924  1.9363
 1012MOL0     H33547   3.184   1.061   8.266  1.1325  0.6331  0.6488
 1012MOL0     H33548   3.664   1.289   8.600  3.1082  1.1301  0.6057
 1012MOL0     H33549   3.897   1.229   8.569 -0.2398 -1.8097 -0.2031
 1012MOL0     H33550   4.104   1.157   8.521 -0.8528  1.4117  2.5400
 1012MOL0     H33551   4.111   1.331   8.478  0.2020 -0.4989  0.6412
 1012MOL0     H33552   4.310   1.315   8.365  0.7943 -0.0689  0.1821
 1012MOL0     H33553   4.280   1.156   8.303 -1.2515 -0.7890  0.6063
 1012MOL0     H33554   4.352   1.049   8.508 -3.0596  0.1554  1.8455
 1012MOL0     H33555   4.345   1.197   8.602 -0.4148  0.7840 -0.5474
 1012MOL0     H33556   4.556   1.171   8.393 -2.4108  2.1028 -1.2579
 1012MOL0     H33557   4.512   1.307   8.501 -2.5016  0.9411 -0.5661
 1012MOL0     H33558   4.551   1.061   8.655 -0.8156  1.4743 -0.1364
 1012MOL0     H33559   4.598   1.222   8.689  1.2582 -2.5609  2.3449
 1012MOL0     H33560   4.804   1.214   8.566  2.3143 -1.7582 -2.6598
 1012MOL0     H33561   4.751   1.060   8.494 -3.3230  1.2616 -0.5931
 1012MOL0     H33562   4.923   1.061   8.705  0.7206 -3.6124  0.6708
 1012MOL0     H33563   4.778   1.118   8.801  1.6362  2.6516 -2.1261
 1012MOL0     H33564   4.775   0.863   8.636  0.1170 -0.3648  0.0902
 1012MOL0     H33565   4.677   0.911   8.773 -0.4099  2.1942 -1.9899
 1012MOL0     H33566   3.864   1.243   8.150  2.9748 -0.7846  1.4530
 1012MOL0     H33567   3.600   1.260   8.172  0.2052  0.6606  0.3173
 1012MOL0     H33568   3.251   1.396   8.524 -0.9504  1.0615 -2.6067
 1012MOL0     H33569   3.021   1.412   8.568 -0.6612 -0.6797 -0.3590
 1012MOL0     H33570   1.805   1.357   7.225  0.1073 -1.8634  0.8952
 1012MOL0     H33571   1.657   1.412   7.016 -1.6758 -0.0724 -1.8782
 1012MOL0     H33572   1.189   1.050   6.849  2.2671  1.9543  2.0623
 1012MOL0     H33573   1.009   1.069   6.670  0.2805 -0.6759 -0.8140
 1012MOL0     H33574   0.834   1.158   6.509  1.6550  0.2317  2.4100
 1012MOL0     H33575   0.992   1.083   6.453  0.8631  0.2524  3.0245
 1012MOL0     H33576   0.849   1.113   6.257  0.0374 -1.1046  1.2350
 1012MOL0     H33577   0.805   1.279   6.308  2.2162  1.2963  3.0971
 1012MOL0     H33578   1.008   1.345   6.212  1.0633  0.0474 -0.4325
 1012MOL0     H33579   0.943   1.230   6.107  1.6942 -2.4708 -0.7143
 1012MOL0     H33580   1.123   1.061   6.249  1.1911 -1.6049 -2.5948
 1012MOL0     H33581   1.141   1.140   6.090 -2.1384 -0.1438 -0.6244
 1012MOL0     H33582   1.428   1.354   6.309  1.9518 -0.9509 -2.9664
 1012MOL0     H33583   1.174   1.446   6.578  0.1688 -0.8498 -0.4264
 1012MOL0     H33584   1.324   1.441   6.772  0.7076 -1.0573 -2.7059
 1013MOL0     O33585   9.825   0.681   5.972 -0.8371  0.4797  0.2952
 1013MOL0     C33586   9.774   0.766   5.900 -1.0784  0.4577 -0.4579
 1013MOL0     O33587   9.683   0.860   5.942  0.4130 -0.2224 -0.0541
 1013MOL0     C33588   9.690   0.898   6.083  0.4510  0.3388 -0.2177
 1013MOL0     C33589   9.572   0.905   6.154 -0.5037 -0.6233 -0.2367
 1013MOL0     C33590   9.562   0.965   6.280  0.1477  0.2181  0.0734
 1013MOL0     C33591   9.683   1.006   6.336 -0.0115 -0.2698  0.0367
 1013MOL0     O33592   9.698   1.082   6.451 -0.4493  0.1755  0.1830
 1013MOL0     C33593   9.590   1.077   6.548  0.5042 -1.2952 -1.0379
 1013MOL0     C33594   9.624   1.142   6.682  0.1095 -0.2010  0.8055
 1013MOL0     C33595   9.504   1.210   6.748  0.1805  0.2537  1.0399
 1013MOL0     C33596   9.540   1.260   6.888 -0.4370  0.4091  0.8733
 1013MOL0     C33597   9.542   1.410   6.891 -0.0176  0.0877  0.5044
 1013MOL0     C33598   9.545   1.472   7.034 -0.2315  0.0305 -0.0212
 1013MOL0     C33599   9.603   1.612   7.028 -1.3899  0.8295 -0.3942
 1013MOL0     C33600   9.636   1.668   7.166  0.3144 -0.9454  0.8973
 1013MOL0     N33601   9.523   1.698   7.254  0.0071 -0.5055  0.6969
 1013MOL0     C33602   9.404   1.747   7.213  0.0278 -0.0778  0.1425
 1013MOL0     C33603   9.331   1.736   7.326  0.0619  0.2139  0.9644
 1013MOL0     C33604   9.185   1.761   7.337  0.5931  0.2775 -0.8034
 1013MOL0     C33605   9.095   1.644   7.359  0.5029  0.1186 -0.2303
 1013MOL0     C33606   9.139   1.508   7.282  0.4206 -1.6507 -0.5809
 1013MOL0     C33607   9.095   1.509   7.139  0.2031 -0.0670 -1.0332
 1013MOL0     O33608   9.114   1.384   7.087  0.1697  0.3752  0.6526
 1013MOL0     C33609   9.131   1.371   6.946 -0.3022 -0.5300  0.3939
 1013MOL0     C33610   9.130   1.475   6.855  0.2019 -0.1019  0.3482
 1013MOL0     C33611   9.142   1.450   6.717  0.8007  0.0922 -0.2129
 1013MOL0     C33612   9.158   1.316   6.674  0.3970 -0.5536  0.0047
 1013MOL0     C33613   9.179   1.292   6.525  0.1705  0.0353 -0.6338
 1013MOL0     O33614   9.213   1.162   6.497  0.1984 -0.5999 -0.5186
 1013MOL0     C33615   9.227   1.110   6.372  0.3252 -0.7621  0.9400
 1013MOL0     C33616   9.194   0.977   6.361 -0.1989 -0.2825  0.0481
 1013MOL0     C33617   9.179   0.914   6.232 -1.0640 -0.1954 -0.0494
 1013MOL0     C33618   9.221   0.985   6.119  0.0474  0.6832 -0.3523
 1013MOL0     O33619   9.198   0.925   5.994  0.9459 -0.0564 -0.0097
 1013MOL0     C33620   9.292   0.958   5.894  0.3654  0.1684  0.7102
 1013MOL0     C33621   9.257   0.876   5.772 -0.3147 -0.7215 -0.5336
 1013MOL0     C33622   9.354   0.877   5.660 -0.3355  0.2002  0.6143
 1013MOL0     C33623   9.316   0.768   5.552 -0.2338 -0.0481  0.5352
 1013MOL0     C33624   9.446   0.705   5.485  0.7451  0.0146  0.2516
 1013MOL0     C33625   9.526   0.612   5.571 -0.3946  0.2986  0.6013
 1013MOL0     C33626   9.454   0.479   5.597  0.2317 -0.5778 -0.2725
 1013MOL0     C33627   9.546   0.411   5.685  0.4688 -0.0871 -0.0409
 1013MOL0    Cl33628   9.711   0.384   5.616 -0.0597 -0.5602  0.2629
 1013MOL0     C33629   9.253   1.121   6.128  0.0021  0.5340  0.2385
 1013MOL0     C33630   9.248   1.182   6.251 -1.2749 -0.9723 -1.3148
 1013MOL0     O33631   9.187   1.386   6.450 -1.0427  0.6065  1.1761
 1013MOL0     C33632   9.156   1.222   6.761  0.0531 -0.4395 -0.2953
 1013MOL0     C33633   9.150   1.241   6.902  0.3425 -0.4088 -0.4593
 1013MOL0     N33634   9.401   1.684   7.420 -0.4461  0.0321 -0.1527
 1013MOL0     N33635   9.522   1.673   7.380 -0.3465  0.2901 -0.6524
 1013MOL0     C33636   9.807   0.981   6.271  0.0100 -0.8810 -0.2929
 1013MOL0     C33637   9.809   0.921   6.145 -0.1836 -0.3970 -0.7680
 1013MOL0     C33638   9.830   0.776   5.763 -0.5489 -0.0042  0.1816
 1013MOL0     C33639   9.922   0.695   5.701 -0.3604  0.7703  0.1459
 1013MOL0     C33640   9.964   0.707   5.572 -0.6172  0.2051  0.2571
 1013MOL0     C33641   9.922   0.803   5.493 -0.7217  0.4576 -0.6812
 1013MOL0     O33642   9.964   0.802   5.361 -0.8067  0.9891  0.2150
 1013MOL0     C33643   9.936   0.906   5.280  0.0460 -0.9267  0.0993
 1013MOL0     C33644   9.969   0.886   5.125  0.3260 -0.0739  0.2451
 1013MOL0     C33645  10.117   0.907   5.114 -0.3666 -0.2437  0.3458
 1013MOL0     C33646  10.153   0.924   4.963  0.0024 -0.0770  0.3182
 1013MOL0     C33647  10.300   0.909   4.933 -0.0906  0.3061  0.2472
 1013MOL0     C33648  10.417   0.904   4.894 -0.3547  0.2358  0.2256
 1013MOL0     C33649   9.811   0.881   5.542 -0.0652 -0.2374 -0.6552
 1013MOL0     C33650   9.771   0.869   5.678 -0.1373 -0.6675  0.3403
 1013MOL0     H33651   9.490   0.878   6.089  0.2415 -1.2729 -0.9378
 1013MOL0     H33652   9.467   0.972   6.333 -1.3339 -1.4550 -2.1474
 1013MOL0     H33653   9.549   0.977   6.567  2.4866 -2.8196 -3.9923
 1013MOL0     H33654   9.519   1.145   6.501  0.7382  0.0307  0.4274
 1013MOL0     H33655   9.703   1.218   6.675 -1.3165  1.6571  3.2909
 1013MOL0     H33656   9.671   1.059   6.737  2.1159 -0.2117 -0.8027
 1013MOL0     H33657   9.414   1.148   6.745  0.4968 -0.2193  1.2916
 1013MOL0     H33658   9.474   1.293   6.682 -0.4377 -0.0917  0.8791
 1013MOL0     H33659   9.486   1.224   6.977  2.1191 -2.5623  1.4159
 1013MOL0     H33660   9.635   1.215   6.916 -1.0113  0.3158  2.9090
 1013MOL0     H33661   9.463   1.455   6.830  1.2156 -1.1448 -2.2045
 1013MOL0     H33662   9.635   1.439   6.841  0.2328  1.8286  1.9052
 1013MOL0     H33663   9.609   1.406   7.093  0.8096  0.9923 -0.0577
 1013MOL0     H33664   9.440   1.476   7.066 -0.1782  1.9592  0.0380
 1013MOL0     H33665   9.698   1.610   6.974 -3.8101 -3.6357 -5.3650
 1013MOL0     H33666   9.543   1.676   6.963 -0.1291  0.0345 -2.4376
 1013MOL0     H33667   9.695   1.759   7.151  0.6012 -1.1815  0.5792
 1013MOL0     H33668   9.712   1.598   7.204  1.5890  1.0205  2.1641
 1013MOL0     H33669   9.372   1.787   7.117 -0.7645 -1.6426 -0.2842
 1013MOL0     H33670   9.157   1.816   7.247 -2.1840 -3.3998 -2.4175
 1013MOL0     H33671   9.166   1.823   7.426 -2.0520  0.7955 -1.6467
 1013MOL0     H33672   8.996   1.680   7.329  0.4026  0.9577  0.9955
 1013MOL0     H33673   9.075   1.625   7.465 -0.1411  1.9412  0.0051
 1013MOL0     H33674   9.248   1.507   7.283  0.6694  2.3073  2.5013
 1013MOL0     H33675   9.092   1.426   7.338  2.0604 -0.6079  2.5786
 1013MOL0     H33676   9.156   1.580   7.083 -2.6692  2.0519 -1.7022
 1013MOL0     H33677   8.992   1.536   7.115  0.1422 -1.6574 -2.7253
 1013MOL0     H33678   9.108   1.573   6.895 -0.8790 -0.8251  1.6050
 1013MOL0     H33679   9.133   1.537   6.651  1.4628  1.7108  1.7202
 1013MOL0     H33680   9.181   0.917   6.450  0.3448  1.3043  1.2366
 1013MOL0     H33681   9.147   0.812   6.212 -0.8147  0.2482 -3.1251
 1013MOL0     H33682   9.397   0.937   5.913 -0.4777 -1.3073  4.6964
 1013MOL0     H33683   9.290   1.063   5.865  1.0852 -0.1266 -0.4903
 1013MOL0     H33684   9.157   0.884   5.729 -0.2903  0.0072 -0.4755
 1013MOL0     H33685   9.263   0.777   5.817 -1.2018 -0.9673 -0.9393
 1013MOL0     H33686   9.455   0.877   5.701 -0.2482 -0.3437  0.3985
 1013MOL0     H33687   9.359   0.980   5.623 -0.7937  0.4788  1.3023
 1013MOL0     H33688   9.249   0.689   5.586 -1.6212 -0.1459 -2.1446
 1013MOL0     H33689   9.252   0.822   5.481  1.7072  2.3049  0.4403
 1013MOL0     H33690   9.503   0.793   5.455 -0.1176  0.0935 -1.2357
 1013MOL0     H33691   9.423   0.660   5.388 -1.5950 -1.3951  1.3668
 1013MOL0     H33692   9.555   0.656   5.667 -1.7128 -0.8563  1.5722
 1013MOL0     H33693   9.615   0.597   5.509 -1.1937 -0.5109 -0.3883
 1013MOL0     H33694   9.355   0.496   5.641  0.5850  1.1861 -0.0810
 1013MOL0     H33695   9.439   0.422   5.504 -0.3478  2.6210 -2.3087
 1013MOL0     H33696   9.513   0.310   5.710  2.0714 -0.7697 -0.5599
 1013MOL0     H33697   9.544   0.461   5.783 -1.9052  2.5950 -1.3115
 1013MOL0     H33698   9.267   1.197   6.052  2.6479  0.6708  0.7558
 1013MOL0     H33699   9.281   1.285   6.251 -0.5187 -1.1347 -3.7887
 1013MOL0     H33700   9.167   1.118   6.733 -1.6473 -0.8355  0.3645
 1013MOL0     H33701   9.159   1.155   6.967  2.9738  1.8135  2.4437
 1013MOL0     H33702   9.902   1.014   6.312  0.3757 -0.9014 -1.1022
 1013MOL0     H33703   9.906   0.909   6.098  0.7490  0.4627  0.8748
 1013MOL0     H33704   9.964   0.623   5.770  1.0660  0.6192 -0.8225
 1013MOL0     H33705  10.043   0.641   5.539 -4.3715 -3.3138 -2.7349
 1013MOL0     H33706   9.990   0.995   5.312 -0.9271  0.9786 -3.1053
 1013MOL0     H33707   9.833   0.940   5.295  0.6683  1.6099 -0.9320
 1013MOL0     H33708   9.930   0.787   5.099 -3.1300  0.9601  0.9843
 1013MOL0     H33709   9.925   0.952   5.049  3.5830 -0.0404 -1.8397
 1013MOL0     H33710  10.173   0.827   5.164  2.2146  0.1331 -1.7019
 1013MOL0     H33711  10.144   1.005   5.157 -2.4500  2.1633 -3.2899
 1013MOL0     H33712  10.108   0.846   4.901  2.4972 -0.5129 -1.0665
 1013MOL0     H33713  10.119   1.024   4.935 -3.9806 -0.5092  2.8282
 1013MOL0     H33714  10.514   0.903   4.848 -0.4190 -1.8818  0.0395
 1013MOL0     H33715   9.754   0.945   5.476 -0.0702  0.6991  0.2285
 1013MOL0     H33716   9.687   0.932   5.704 -1.3506 -0.6852 -3.0151
 1014MOL0     O33717   0.874   2.894   3.571 -0.2274  0.0983 -0.4096
 1014MOL0     C33718   0.922   2.856   3.468  0.3837  0.5945  0.9726
 1014MOL0     O33719   1.054   2.807   3.453  0.0334 -0.8230  0.4429
 1014MOL0     C33720   1.129   2.831   3.570 -0.7825  0.4490  0.0748
 1014MOL0     C33721   1.222   2.734   3.614 -0.3082 -0.3437  0.0961
 1014MOL0     C33722   1.320   2.766   3.701  0.2239  0.3012  0.1088
 1014MOL0     C33723   1.333   2.888   3.770 -0.3252  0.1697  0.3046
 1014MOL0     O33724   1.426   2.910   3.871  0.9216 -0.9018  0.4443
 1014MOL0     C33725   1.499   2.807   3.933  0.4317 -0.7265  0.7616
 1014MOL0     C33726   1.604   2.879   4.012  0.5787  0.1813  0.2991
 1014MOL0     C33727   1.711   2.939   3.922  0.1169  0.1175 -0.3216
 1014MOL0     C33728   1.825   3.010   3.994  0.0033  0.1011 -0.0092
 1014MOL0     C33729   1.923   2.913   4.047 -0.3796  0.2323 -0.3788
 1014MOL0     C33730   2.027   2.978   4.142  0.7430 -0.1738  0.7546
 1014MOL0     C33731   2.127   2.874   4.201  0.0285 -0.5180 -1.1279
 1014MOL0     C33732   2.225   2.955   4.285 -0.9585 -0.1223 -0.6913
 1014MOL0     N33733   2.342   2.865   4.314  0.3791  0.2113  0.5866
 1014MOL0     C33734   2.347   2.733   4.358  0.0352  0.5330 -0.1995
 1014MOL0     C33735   2.483   2.716   4.375  0.4738  0.8428  0.8913
 1014MOL0     C33736   2.566   2.597   4.426  0.0421 -0.6721 -0.0537
 1014MOL0     C33737   2.487   2.532   4.547  0.8037 -0.2865  0.0249
 1014MOL0     C33738   2.391   2.426   4.496  0.4271  0.8934  0.0942
 1014MOL0     C33739   2.349   2.348   4.620  0.8661  0.4686  0.2520
 1014MOL0     O33740   2.267   2.404   4.722  0.0205  0.1021 -0.6499
 1014MOL0     C33741   2.159   2.460   4.671  0.5264 -0.3902 -0.1322
 1014MOL0     C33742   2.154   2.592   4.629  0.6472 -0.4512  1.0074
 1014MOL0     C33743   2.031   2.646   4.581 -0.0048 -0.2914  0.1908
 1014MOL0     C33744   1.913   2.567   4.564 -0.3001 -0.0569 -0.4271
 1014MOL0     C33745   1.786   2.614   4.517  0.8691 -0.4884  0.1182
 1014MOL0     O33746   1.680   2.549   4.555 -0.2810 -1.2828 -0.9051
 1014MOL0     C33747   1.552   2.602   4.541 -1.4898 -0.8298  0.3130
 1014MOL0     C33748   1.475   2.632   4.657  0.1493 -0.4420  0.4492
 1014MOL0     C33749   1.344   2.678   4.630  0.4405  0.5089  0.4635
 1014MOL0     C33750   1.288   2.675   4.500 -0.2388  0.8753  0.1590
 1014MOL0     O33751   1.151   2.713   4.486 -0.3259  0.1465  0.2967
 1014MOL0     C33752   1.074   2.664   4.376  0.6323  0.7037 -1.1873
 1014MOL0     C33753   0.931   2.642   4.429  0.6029 -0.4344 -0.4679
 1014MOL0     C33754   0.840   2.764   4.445 -0.6768  2.0600  0.1117
 1014MOL0     C33755   0.705   2.726   4.513 -0.2222  0.3438  0.8821
 1014MOL0     C33756   0.601   2.833   4.519  0.6213  0.1099 -0.0835
 1014MOL0     C33757   0.487   2.787   4.611  1.2688 -0.2297  0.4224
 1014MOL0     C33758   0.366   2.886   4.567  0.2728  0.4418 -0.9520
 1014MOL0     C33759   0.235   2.876   4.648  0.4399  0.4457  0.3126
 1014MOL0    Cl33760   0.280   2.895   4.817  0.5196  0.4804  0.0305
 1014MOL0     C33761   1.369   2.645   4.391 -0.5018 -0.0417  0.3188
 1014MOL0     C33762   1.499   2.607   4.414  0.7843  0.3868  0.1051
 1014MOL0     O33763   1.797   2.697   4.432  0.4630 -0.9393 -0.1909
 1014MOL0     C33764   1.920   2.435   4.608 -1.3164 -0.6110 -0.3152
 1014MOL0     C33765   2.043   2.382   4.659  0.0841 -0.3153 -0.0776
 1014MOL0     N33766   2.548   2.836   4.332 -0.1696 -0.3084 -0.8862
 1014MOL0     N33767   2.466   2.922   4.304  0.6936  0.2029  0.4886
 1014MOL0     C33768   1.242   2.988   3.733  1.1303  1.0463  0.0798
 1014MOL0     C33769   1.148   2.964   3.623  0.5174  0.0209 -0.1390
 1014MOL0     C33770   0.834   2.883   3.341  0.1664 -0.1863 -0.0472
 1014MOL0     C33771   0.868   2.822   3.220  1.3097  0.6747  0.4288
 1014MOL0     C33772   0.783   2.842   3.109 -0.4368  0.7949  0.1088
 1014MOL0     C33773   0.665   2.927   3.116  0.8218  0.1402 -0.1249
 1014MOL0     O33774   0.591   2.965   3.001 -0.5994  0.0003 -0.0325
 1014MOL0     C33775   0.454   3.002   3.001  0.7216  0.0130 -0.4111
 1014MOL0     C33776   0.359   2.877   2.992 -0.5146 -1.2337  0.5412
 1014MOL0     C33777   0.246   2.890   2.902  1.3922 -0.1523 -0.3485
 1014MOL0     C33778   0.099   2.909   2.957 -0.5599  0.0326  0.7215
 1014MOL0     C33779   0.006   2.937   2.846  0.6928 -0.8062 -0.8997
 1014MOL0     C33780  -0.057   2.983   2.752 -1.3389 -0.1302 -0.6107
 1014MOL0     C33781   0.627   2.982   3.236 -0.4994 -0.2752  0.0194
 1014MOL0     C33782   0.709   2.948   3.342 -0.7035 -0.3047 -0.1214
 1014MOL0     H33783   1.225   2.637   3.566  2.2810  0.0738 -0.7426
 1014MOL0     H33784   1.380   2.679   3.726 -2.0954 -0.5523  3.4255
 1014MOL0     H33785   1.552   2.732   3.873  0.5698 -0.3741  0.4405
 1014MOL0     H33786   1.424   2.769   4.003 -1.1049  0.3573 -0.2239
 1014MOL0     H33787   1.655   2.803   4.072  1.0967  0.9117  0.8024
 1014MOL0     H33788   1.563   2.957   4.078 -3.2379 -1.8150  0.5817
 1014MOL0     H33789   1.656   3.003   3.853 -1.4851 -2.2080 -1.3277
 1014MOL0     H33790   1.758   2.861   3.860 -0.4260 -2.5758  2.4434
 1014MOL0     H33791   1.877   3.076   3.924  2.4773  2.5510  3.7687
 1014MOL0     H33792   1.780   3.073   4.070 -2.3365  0.9655 -1.9727
 1014MOL0     H33793   1.970   2.871   3.957  1.5471  2.8941 -0.7375
 1014MOL0     H33794   1.879   2.833   4.107  2.7460 -2.2295 -1.0993
 1014MOL0     H33795   1.976   3.035   4.220 -0.7397 -2.0271  1.2009
 1014MOL0     H33796   2.082   3.050   4.080 -0.1931  1.1496  1.4177
 1014MOL0     H33797   2.071   2.804   4.263  2.0137 -2.2399 -1.1644
 1014MOL0     H33798   2.168   2.828   4.111 -2.1035 -1.6002 -1.6097
 1014MOL0     H33799   2.195   2.984   4.387  0.6888 -1.7981  0.3402
 1014MOL0     H33800   2.259   3.044   4.231  2.7408  0.6358  2.4794
 1014MOL0     H33801   2.262   2.667   4.375  0.5394 -0.7867 -2.3813
 1014MOL0     H33802   2.659   2.637   4.467 -0.6505 -0.3214  1.2064
 1014MOL0     H33803   2.595   2.536   4.339  0.4092  2.4324 -2.2539
 1014MOL0     H33804   2.429   2.607   4.601 -1.1072 -2.3452  0.9616
 1014MOL0     H33805   2.552   2.477   4.615  0.5832  0.6504  1.0134
 1014MOL0     H33806   2.304   2.456   4.438 -0.3553 -1.7030 -0.1702
 1014MOL0     H33807   2.438   2.354   4.429 -0.4321  0.5000 -0.0982
 1014MOL0     H33808   2.437   2.313   4.676 -0.9550 -0.0558  2.9500
 1014MOL0     H33809   2.313   2.254   4.577  1.7437  0.5896 -0.8014
 1014MOL0     H33810   2.231   2.668   4.645 -1.2839  1.1772  3.3663
 1014MOL0     H33811   2.034   2.744   4.535  3.5400  0.0295  0.8209
 1014MOL0     H33812   1.507   2.630   4.761  2.8300  0.8078 -0.2693
 1014MOL0     H33813   1.270   2.703   4.706 -0.7244 -1.7133  0.1262
 1014MOL0     H33814   1.112   2.570   4.334  0.1917 -0.4563  0.8446
 1014MOL0     H33815   1.068   2.743   4.301  2.3711  1.7554 -0.2773
 1014MOL0     H33816   0.945   2.602   4.530  0.2107  0.8567  0.1152
 1014MOL0     H33817   0.883   2.555   4.382 -2.9962  1.7174 -1.1991
 1014MOL0     H33818   0.817   2.802   4.345  0.0825  0.0672 -0.8829
 1014MOL0     H33819   0.886   2.851   4.494 -0.0680  1.3885  0.7671
 1014MOL0     H33820   0.652   2.642   4.466  0.5060  0.0616  0.5465
 1014MOL0     H33821   0.723   2.699   4.618 -2.1271 -0.1654  1.1325
 1014MOL0     H33822   0.557   2.844   4.420 -6.0223 -3.6358  1.8281
 1014MOL0     H33823   0.645   2.926   4.556  0.8972 -1.2144  3.2815
 1014MOL0     H33824   0.504   2.797   4.718 -1.6417 -1.0235  1.0592
 1014MOL0     H33825   0.443   2.689   4.588  1.7601 -0.0024 -1.7579
 1014MOL0     H33826   0.392   2.988   4.595 -2.7263  1.3871 -1.3147
 1014MOL0     H33827   0.334   2.878   4.463 -3.4135  1.0012  0.0021
 1014MOL0     H33828   0.201   2.778   4.614  2.1259 -0.6608  1.6366
 1014MOL0     H33829   0.170   2.962   4.627  1.3881  1.9847  3.1518
 1014MOL0     H33830   1.331   2.647   4.289 -2.2309  2.5408  0.9317
 1014MOL0     H33831   1.560   2.558   4.338 -2.9781 -2.1731 -1.6148
 1014MOL0     H33832   1.834   2.370   4.607 -0.8340 -1.2517 -0.9490
 1014MOL0     H33833   2.046   2.279   4.692  1.2701  0.1649  1.4103
 1014MOL0     H33834   1.243   3.081   3.789 -1.9462  2.3298 -1.7463
 1014MOL0     H33835   1.097   3.052   3.586 -1.4730 -0.7834  0.5086
 1014MOL0     H33836   0.938   2.739   3.219 -2.0324 -2.7760  5.1206
 1014MOL0     H33837   0.795   2.781   3.020  1.2680  0.7167  0.3638
 1014MOL0     H33838   0.428   3.072   2.921 -0.5539 -1.7692 -1.6431
 1014MOL0     H33839   0.425   3.059   3.090 -0.7735  1.3818 -1.7137
 1014MOL0     H33840   0.416   2.783   2.987 -0.9470 -1.6937  2.8467
 1014MOL0     H33841   0.314   2.863   3.091 -1.5743  1.2667  0.4747
 1014MOL0     H33842   0.242   2.792   2.854 -0.4701 -0.1962 -0.1947
 1014MOL0     H33843   0.263   2.972   2.832  2.0794 -2.0720 -2.5292
 1014MOL0     H33844   0.059   2.813   2.990  3.4922 -1.6134  1.4597
 1014MOL0     H33845   0.098   2.988   3.032  2.7595  3.9827 -2.8993
 1014MOL0     H33846  -0.109   3.027   2.669 -3.7897 -0.7931  0.4779
 1014MOL0     H33847   0.539   3.042   3.259  0.7108  2.4142 -1.8185
 1014MOL0     H33848   0.673   2.995   3.433  1.8476 -0.2045  0.9459
 1015MOL0     O33849   7.835   3.327   6.081  0.5299 -0.6010 -0.0483
 1015MOL0     C33850   7.957   3.345   6.040 -0.6406  0.5319 -0.3588
 1015MOL0     O33851   8.051   3.237   6.022 -0.0501 -0.2417 -0.5972
 1015MOL0     C33852   8.019   3.105   6.062 -0.8611  0.2882  0.3427
 1015MOL0     C33853   8.091   3.003   5.995  0.1346 -0.9045  0.2677
 1015MOL0     C33854   8.080   2.861   6.033 -0.4687 -1.0989 -0.2009
 1015MOL0     C33855   7.987   2.827   6.134  1.4922 -0.2844 -0.4829
 1015MOL0     O33856   7.985   2.703   6.189 -0.3121  0.3241 -0.2503
 1015MOL0     C33857   8.046   2.587   6.120 -0.5323  0.5378 -0.1795
 1015MOL0     C33858   7.986   2.456   6.174  0.4067  0.0793  0.0920
 1015MOL0     C33859   8.101   2.348   6.172  0.6216 -0.4674 -0.2683
 1015MOL0     C33860   8.070   2.219   6.244 -0.4841  0.3526 -0.1549
 1015MOL0     C33861   7.952   2.145   6.192  0.5742 -0.8018 -0.5508
 1015MOL0     C33862   7.969   2.059   6.066 -0.5432  0.7102 -0.5024
 1015MOL0     C33863   7.890   1.934   6.051 -0.3927  0.7797 -0.5520
 1015MOL0     C33864   7.927   1.886   5.913  0.0555 -0.9677  0.5385
 1015MOL0     N33865   7.842   1.768   5.870  0.2738 -0.4993 -0.3107
 1015MOL0     C33866   7.852   1.639   5.913 -0.1551 -0.4140 -0.6095
 1015MOL0     C33867   7.729   1.573   5.867 -0.8564  0.3690 -0.5496
 1015MOL0     C33868   7.682   1.430   5.876 -0.2665  0.2934 -0.3535
 1015MOL0     C33869   7.781   1.332   5.955  0.5240 -0.0553 -1.2341
 1015MOL0     C33870   7.695   1.219   6.029 -0.2985 -0.6800 -0.2985
 1015MOL0     C33871   7.666   1.268   6.173 -1.0030 -0.3164 -0.8773
 1015MOL0     O33872   7.776   1.311   6.258  0.3072 -0.5778  0.2400
 1015MOL0     C33873   7.727   1.343   6.384  0.6057  0.2646 -0.1685
 1015MOL0     C33874   7.645   1.269   6.475  1.1173  0.0975  0.0472
 1015MOL0     C33875   7.602   1.315   6.599  0.1544 -0.1802 -1.1730
 1015MOL0     C33876   7.640   1.438   6.646 -0.4086 -0.2089  0.3760
 1015MOL0     C33877   7.597   1.499   6.771  0.0469 -1.0349  0.3767
 1015MOL0     O33878   7.504   1.428   6.845 -0.5110  0.6256  0.3301
 1015MOL0     C33879   7.475   1.452   6.972  0.6651 -0.1948  0.2888
 1015MOL0     C33880   7.357   1.400   7.020 -0.7135  0.0814 -0.0173
 1015MOL0     C33881   7.317   1.421   7.152 -0.3165  1.2942 -0.0133
 1015MOL0     C33882   7.409   1.477   7.242 -0.2694 -0.5124 -0.3136
 1015MOL0     O33883   7.371   1.509   7.367 -0.0221  0.1357 -0.1370
 1015MOL0     C33884   7.454   1.471   7.475 -0.2528  1.4941  0.2792
 1015MOL0     C33885   7.489   1.315   7.479 -0.7351 -0.8329 -0.0644
 1015MOL0     C33886   7.354   1.238   7.506  0.0461  1.1726  0.7290
 1015MOL0     C33887   7.268   1.264   7.625 -0.8898  0.3507 -0.5211
 1015MOL0     C33888   7.352   1.261   7.759  0.2526  0.6546 -0.4217
 1015MOL0     C33889   7.248   1.251   7.881 -0.0154 -0.2550 -0.6489
 1015MOL0     C33890   7.311   1.260   8.023  0.6067 -0.8885 -0.4801
 1015MOL0     C33891   7.202   1.225   8.137 -0.3399 -0.5467  0.4806
 1015MOL0    Cl33892   7.293   1.254   8.293 -0.1133  0.0026  0.2373
 1015MOL0     C33893   7.542   1.498   7.200  0.7291 -0.4115  0.1462
 1015MOL0     C33894   7.571   1.489   7.068 -0.5570 -1.1825  0.3735
 1015MOL0     O33895   7.651   1.603   6.801 -0.2640 -0.3417 -0.0433
 1015MOL0     C33896   7.747   1.503   6.570  0.0882  0.1553 -0.1270
 1015MOL0     C33897   7.785   1.454   6.444  0.1636  0.6343  0.6973
 1015MOL0     N33898   7.648   1.673   5.814 -0.7542 -0.1707  0.4590
 1015MOL0     N33899   7.720   1.782   5.809  0.3165  0.3375 -0.6472
 1015MOL0     C33900   7.919   2.930   6.200 -0.1884  0.3696  0.0196
 1015MOL0     C33901   7.929   3.061   6.157 -0.1279 -0.5670  0.4426
 1015MOL0     C33902   8.001   3.482   6.022  0.5372 -0.2584 -0.1145
 1015MOL0     C33903   7.921   3.599   6.021 -0.5724  0.6399  0.0373
 1015MOL0     C33904   7.979   3.712   5.958 -0.6604  0.4553 -0.5030
 1015MOL0     C33905   8.120   3.712   5.923  0.2577  0.1556  0.6043
 1015MOL0     O33906   8.181   3.814   5.863 -0.1218  0.2531  0.9432
 1015MOL0     C33907   8.121   3.944   5.843  0.1826 -0.2852 -0.9295
 1015MOL0     C33908   8.149   4.032   5.958 -0.4053  0.7265 -0.5596
 1015MOL0     C33909   8.307   4.054   5.987 -0.9656  0.1710  1.0226
 1015MOL0     C33910   8.333   4.158   6.098  0.6878 -0.1985 -0.6358
 1015MOL0     C33911   8.275   4.294   6.062 -0.0369  0.5067  0.9103
 1015MOL0     C33912   8.235   4.401   6.031 -0.9355 -0.7270  0.2220
 1015MOL0     C33913   8.204   3.605   5.950  0.1118  0.2058  0.2707
 1015MOL0     C33914   8.137   3.495   5.998 -0.9117 -0.3555 -0.8308
 1015MOL0     H33915   8.169   3.039   5.928  1.0743  0.8592  2.1888
 1015MOL0     H33916   8.145   2.785   5.991  3.6490  0.4590  2.6961
 1015MOL0     H33917   8.153   2.596   6.140 -0.4992 -0.2753  0.0111
 1015MOL0     H33918   8.023   2.584   6.013 -0.8647 -1.8354 -0.0887
 1015MOL0     H33919   7.899   2.429   6.114  0.2829 -0.1230  0.3631
 1015MOL0     H33920   7.957   2.466   6.278  0.8843 -3.3528  0.6832
 1015MOL0     H33921   8.192   2.382   6.224  0.3921  0.2004 -0.2880
 1015MOL0     H33922   8.129   2.335   6.067 -1.3544 -1.4287 -0.7197
 1015MOL0     H33923   8.160   2.159   6.230 -0.6274  0.6346 -2.9885
 1015MOL0     H33924   8.057   2.241   6.350 -1.7397 -0.9479 -0.0079
 1015MOL0     H33925   7.867   2.212   6.174  0.9061 -0.2429 -0.0428
 1015MOL0     H33926   7.921   2.069   6.264 -3.9382 -0.4022 -1.7610
 1015MOL0     H33927   8.072   2.024   6.079 -0.3957  0.7717 -1.3900
 1015MOL0     H33928   7.970   2.129   5.982  1.9907  1.0926 -0.2344
 1015MOL0     H33929   7.919   1.859   6.124 -0.7046  1.5398  0.3839
 1015MOL0     H33930   7.781   1.949   6.054 -0.4349  0.4004 -0.1680
 1015MOL0     H33931   8.033   1.874   5.888 -0.4472 -1.5869 -1.4918
 1015MOL0     H33932   7.899   1.973   5.854  0.1173 -0.6401  0.9837
 1015MOL0     H33933   7.933   1.586   5.962 -3.0962 -2.6245  2.3621
 1015MOL0     H33934   7.673   1.388   5.775 -2.8186  0.7243 -0.3714
 1015MOL0     H33935   7.579   1.424   5.913 -0.4094 -3.3924 -0.9393
 1015MOL0     H33936   7.851   1.380   6.023 -1.0234  0.7097 -0.1328
 1015MOL0     H33937   7.847   1.287   5.881  2.5994  2.4097 -1.0067
 1015MOL0     H33938   7.596   1.220   5.981 -1.1761  0.0068  1.4233
 1015MOL0     H33939   7.735   1.118   6.017 -2.4038 -1.9330  2.1956
 1015MOL0     H33940   7.607   1.186   6.215  3.7350 -3.3834  0.6000
 1015MOL0     H33941   7.608   1.357   6.146  0.9445  0.3402 -3.3135
 1015MOL0     H33942   7.595   1.178   6.441  0.1658  1.7159 -3.3061
 1015MOL0     H33943   7.523   1.256   6.646 -0.3410  0.7686 -0.7748
 1015MOL0     H33944   7.289   1.362   6.945  0.2883 -3.1290  0.5372
 1015MOL0     H33945   7.214   1.394   7.174 -0.6986  1.0703 -1.8779
 1015MOL0     H33946   7.407   1.486   7.573  1.4035 -1.1854  1.6250
 1015MOL0     H33947   7.541   1.536   7.462  0.0731  1.4590  2.0312
 1015MOL0     H33948   7.561   1.287   7.556  2.7551  3.2693 -1.4342
 1015MOL0     H33949   7.524   1.284   7.380  0.0953  2.7784 -1.0547
 1015MOL0     H33950   7.376   1.131   7.508  2.4196  1.6242  1.8007
 1015MOL0     H33951   7.280   1.250   7.426  1.2940 -0.8495 -0.8342
 1015MOL0     H33952   7.216   1.360   7.614 -0.9893  0.2970 -0.5224
 1015MOL0     H33953   7.185   1.196   7.643  0.2088 -0.2512  2.8103
 1015MOL0     H33954   7.425   1.342   7.754  1.7126 -0.5032  1.0201
 1015MOL0     H33955   7.419   1.177   7.777  0.1942  1.1575  2.7698
 1015MOL0     H33956   7.217   1.146   7.867 -1.4368 -0.1566  1.3967
 1015MOL0     H33957   7.174   1.330   7.869  0.7104  1.1434  2.9092
 1015MOL0     H33958   7.398   1.194   8.030  1.3650  0.2648  3.0437
 1015MOL0     H33959   7.349   1.359   8.048 -1.4042  0.4843 -2.4531
 1015MOL0     H33960   7.163   1.123   8.132 -1.5894 -0.0860  0.4062
 1015MOL0     H33961   7.115   1.292   8.141  0.1035  0.1101 -0.3996
 1015MOL0     H33962   7.625   1.509   7.269  0.7500  1.2308 -0.0986
 1015MOL0     H33963   7.678   1.507   7.061 -0.6968  0.9175  2.4588
 1015MOL0     H33964   7.798   1.592   6.606 -1.5781  1.9296 -1.9239
 1015MOL0     H33965   7.872   1.508   6.408  1.2736 -1.1443  0.5978
 1015MOL0     H33966   7.851   2.894   6.277  1.1827 -1.0277  0.6363
 1015MOL0     H33967   7.875   3.124   6.227 -0.6123  1.7122 -1.7819
 1015MOL0     H33968   7.819   3.600   6.057 -1.2318 -1.2537 -1.5809
 1015MOL0     H33969   7.918   3.801   5.940 -0.5299  1.0664  1.7764
 1015MOL0     H33970   8.015   3.933   5.821 -0.0689  0.3673 -0.0631
 1015MOL0     H33971   8.174   3.986   5.757 -2.2194  3.3647 -0.8526
 1015MOL0     H33972   8.097   4.126   5.937  1.0972  2.0688  1.2979
 1015MOL0     H33973   8.105   3.987   6.048  1.5838  0.5013  0.3497
 1015MOL0     H33974   8.363   4.081   5.897 -0.9994  3.1241  1.8019
 1015MOL0     H33975   8.350   3.955   6.010 -4.5618 -0.6767  5.3668
 1015MOL0     H33976   8.313   4.124   6.200  1.0569 -1.4380 -0.9583
 1015MOL0     H33977   8.441   4.169   6.108  0.6345  0.0933 -0.3540
 1015MOL0     H33978   8.209   4.499   5.999 -1.3454 -0.0998  2.3136
 1015MOL0     H33979   8.312   3.595   5.950  0.1215 -0.1978 -2.3970
 1015MOL0     H33980   8.205   3.411   6.005 -0.1133  0.3316  0.0669
 1016MOL0     O33981   9.158   6.261   2.842  0.0704  0.5951  0.0455
 1016MOL0     C33982   9.268   6.217   2.825 -0.4027 -1.2924  0.7197
 1016MOL0     O33983   9.380   6.289   2.805  0.4210  0.9695  0.0520
 1016MOL0     C33984   9.357   6.418   2.772 -0.3286 -0.2982  0.8397
 1016MOL0     C33985   9.370   6.463   2.645 -0.1668  0.3621 -0.7998
 1016MOL0     C33986   9.346   6.598   2.615 -1.2625  1.1042  0.3251
 1016MOL0     C33987   9.323   6.687   2.714  0.5079 -0.3570  0.2607
 1016MOL0     O33988   9.313   6.816   2.671 -0.5443 -0.5133 -0.1685
 1016MOL0     C33989   9.262   6.919   2.757 -0.1418 -0.5424 -0.0424
 1016MOL0     C33990   9.112   6.949   2.758 -0.1458 -0.0510 -0.5045
 1016MOL0     C33991   9.043   6.904   2.628  0.8576 -1.2269  0.6253
 1016MOL0     C33992   9.091   6.966   2.508  0.2734  0.1424 -0.5957
 1016MOL0     C33993   9.090   6.889   2.372 -1.1151  0.1276  0.1321
 1016MOL0     C33994   8.954   6.850   2.300 -0.2086  0.5321 -0.4391
 1016MOL0     C33995   8.970   6.821   2.156  0.8419 -0.1783 -0.1880
 1016MOL0     C33996   9.058   6.705   2.112 -0.6872 -0.1451  0.0443
 1016MOL0     N33997   9.090   6.706   1.965  0.5789 -0.1084  0.3352
 1016MOL0     C33998   9.162   6.792   1.886  0.1969  1.0606 -0.1162
 1016MOL0     C33999   9.160   6.749   1.761 -0.5638 -0.1263 -0.8815
 1016MOL0     C34000   9.222   6.815   1.637 -0.4502  0.4832  0.3957
 1016MOL0     C34001   9.121   6.840   1.532 -1.7119  0.8491  0.2369
 1016MOL0     C34002   9.026   6.955   1.560 -0.9185 -0.8100 -0.1364
 1016MOL0     C34003   9.099   7.085   1.591 -0.1092  0.0309 -0.0374
 1016MOL0     O34004   9.149   7.091   1.728 -0.1998 -0.1496  1.0662
 1016MOL0     C34005   9.235   7.197   1.751  0.0167 -0.7374  0.8080
 1016MOL0     C34006   9.220   7.322   1.692  0.0005 -0.1605  0.0453
 1016MOL0     C34007   9.311   7.422   1.713 -0.1689  0.2576 -0.0211
 1016MOL0     C34008   9.416   7.396   1.801  0.6414  0.3140  0.0249
 1016MOL0     C34009   9.516   7.499   1.830  0.6393  0.2256 -0.5354
 1016MOL0     O34010   9.515   7.612   1.756  0.0285  0.5030  0.1180
 1016MOL0     C34011   9.595   7.722   1.780  0.4095  0.5324  0.2790
 1016MOL0     C34012   9.719   7.723   1.841  0.5263 -0.0066 -0.3905
 1016MOL0     C34013   9.789   7.838   1.865 -0.4154  0.0770 -0.6102
 1016MOL0     C34014   9.737   7.960   1.815 -0.2701  0.1720  0.8055
 1016MOL0     O34015   9.822   8.069   1.825 -0.8364 -0.4994  0.4315
 1016MOL0     C34016   9.817   8.178   1.729 -0.8118 -0.5769 -0.0863
 1016MOL0     C34017   9.951   8.248   1.734 -0.0633 -0.0485  0.2818
 1016MOL0     C34018   9.949   8.381   1.653  0.3990  0.7512 -0.0399
 1016MOL0     C34019  10.090   8.442   1.640  0.7740  0.6692  0.1869
 1016MOL0     C34020  10.188   8.361   1.558 -0.7008 -0.0795 -0.3036
 1016MOL0     C34021  10.135   8.320   1.418  0.7378  0.3436 -0.7816
 1016MOL0     C34022  10.089   8.439   1.332 -0.2399 -0.8297  0.0936
 1016MOL0     C34023  10.039   8.383   1.197  1.2511  0.4651  0.7374
 1016MOL0    Cl34024  10.171   8.346   1.082  0.0727  0.0813  0.1442
 1016MOL0     C34025   9.608   7.960   1.761 -0.4724  0.9775  0.5436
 1016MOL0     C34026   9.539   7.842   1.746  1.3019 -0.0023  0.1485
 1016MOL0     O34027   9.581   7.479   1.930  0.1229  0.2109 -0.6092
 1016MOL0     C34028   9.422   7.274   1.864 -0.1377  1.1841  0.2046
 1016MOL0     C34029   9.341   7.167   1.833 -0.2201  0.1093 -0.1359
 1016MOL0     N34030   9.083   6.630   1.756  0.0797  0.3095 -0.3506
 1016MOL0     N34031   9.044   6.617   1.882 -0.1674  1.0401 -0.1251
 1016MOL0     C34032   9.318   6.646   2.849 -0.2366  0.0620 -0.2646
 1016MOL0     C34033   9.346   6.512   2.876 -0.3682 -0.5656 -0.3126
 1016MOL0     C34034   9.281   6.073   2.836 -0.9830  0.9424  0.5061
 1016MOL0     C34035   9.167   5.984   2.822  0.3014  0.2211 -0.5991
 1016MOL0     C34036   9.190   5.847   2.808 -0.4314 -0.6485  1.2806
 1016MOL0     C34037   9.321   5.793   2.814  0.5053  0.1761 -0.0709
 1016MOL0     O34038   9.357   5.670   2.791  0.3333  0.2938 -0.3538
 1016MOL0     C34039   9.358   5.590   2.910 -0.4703  0.3052 -0.4699
 1016MOL0     C34040   9.261   5.475   2.887 -0.1447 -0.3458  1.1523
 1016MOL0     C34041   9.236   5.381   3.010  0.4851  0.4372 -1.0807
 1016MOL0     C34042   9.172   5.450   3.136 -0.0302  0.6000 -0.8610
 1016MOL0     C34043   9.037   5.518   3.123  0.3712  0.4192 -0.4170
 1016MOL0     C34044   8.935   5.588   3.117  0.5058 -0.2415  0.2063
 1016MOL0     C34045   9.427   5.876   2.819 -0.2599 -0.2481 -0.2828
 1016MOL0     C34046   9.403   6.012   2.832 -0.2779 -0.1309  0.6887
 1016MOL0     H34047   9.411   6.398   2.569 -2.3676  1.7631 -3.3398
 1016MOL0     H34048   9.358   6.633   2.514  0.1811 -1.4163 -0.4712
 1016MOL0     H34049   9.303   7.013   2.720 -2.0242 -0.0491 -0.9844
 1016MOL0     H34050   9.301   6.914   2.860  1.2817 -0.5319 -0.5572
 1016MOL0     H34051   9.106   7.057   2.778 -1.3249 -0.5371  2.2599
 1016MOL0     H34052   9.062   6.902   2.843  0.9805 -0.0225  0.1940
 1016MOL0     H34053   8.939   6.938   2.625  0.0179 -3.6590 -0.9913
 1016MOL0     H34054   9.045   6.796   2.607 -0.2680 -0.7236 -2.8608
 1016MOL0     H34055   9.045   7.061   2.480 -2.1898 -0.1311  2.1812
 1016MOL0     H34056   9.197   6.993   2.519  0.6320 -1.2806 -0.3897
 1016MOL0     H34057   9.154   6.801   2.379  2.0481  1.9761 -2.6746
 1016MOL0     H34058   9.151   6.958   2.313 -0.7684  0.1418  0.5056
 1016MOL0     H34059   8.890   6.938   2.309  0.0885  0.6684  0.5252
 1016MOL0     H34060   8.909   6.767   2.356  1.1443  0.6400  0.8768
 1016MOL0     H34061   8.869   6.804   2.117 -0.4742  1.2784  2.3261
 1016MOL0     H34062   9.020   6.910   2.117 -0.5588  2.4239  3.4447
 1016MOL0     H34063   9.013   6.611   2.144  2.5616 -1.3985  1.3216
 1016MOL0     H34064   9.156   6.704   2.161  0.6918 -0.1826 -2.4960
 1016MOL0     H34065   9.216   6.878   1.923  2.7264 -0.2585 -0.5033
 1016MOL0     H34066   9.300   6.749   1.598 -1.0425 -0.1376  0.2573
 1016MOL0     H34067   9.274   6.905   1.672 -2.2093  3.0713 -3.0209
 1016MOL0     H34068   9.065   6.747   1.519  0.4755 -0.3292 -1.3709
 1016MOL0     H34069   9.175   6.867   1.441 -0.7838 -1.7643 -0.0978
 1016MOL0     H34070   8.964   6.984   1.475  1.0820 -1.9911 -2.0958
 1016MOL0     H34071   8.960   6.930   1.644 -2.0169 -1.5244 -1.1795
 1016MOL0     H34072   9.025   7.163   1.569 -1.1665 -0.8207  0.4507
 1016MOL0     H34073   9.186   7.101   1.527 -1.4772  0.3905 -1.8936
 1016MOL0     H34074   9.138   7.338   1.623  1.6157  1.5886 -1.5715
 1016MOL0     H34075   9.288   7.522   1.677 -1.1198  0.2850  0.6182
 1016MOL0     H34076   9.759   7.635   1.892  1.0955  2.1431  3.2777
 1016MOL0     H34077   9.889   7.830   1.907 -1.4138  0.0830  1.9842
 1016MOL0     H34078   9.738   8.246   1.762 -0.5304  0.9687 -2.3636
 1016MOL0     H34079   9.801   8.150   1.625 -1.5228 -0.8239  0.0835
 1016MOL0     H34080  10.019   8.177   1.685 -2.0901 -0.6332 -1.8703
 1016MOL0     H34081   9.973   8.244   1.841  0.0620 -0.0036  0.2581
 1016MOL0     H34082   9.871   8.443   1.697  2.0850  3.4553 -0.6710
 1016MOL0     H34083   9.924   8.359   1.548 -2.6882  3.2467  0.0372
 1016MOL0     H34084  10.061   8.534   1.589 -0.9658 -1.4630 -2.9821
 1016MOL0     H34085  10.132   8.470   1.738  0.9196  2.1939 -0.2767
 1016MOL0     H34086  10.231   8.274   1.608 -0.7992  0.2282  0.3236
 1016MOL0     H34087  10.272   8.424   1.526 -1.0789 -1.2624 -4.1803
 1016MOL0     H34088  10.061   8.241   1.437  0.2187  1.3556  1.8559
 1016MOL0     H34089  10.221   8.275   1.368  2.3111  0.2281  1.8755
 1016MOL0     H34090  10.011   8.504   1.373  1.3712 -0.7788  3.3879
 1016MOL0     H34091  10.176   8.502   1.313  0.3453 -1.0797  1.8050
 1016MOL0     H34092   9.969   8.443   1.138 -1.6539 -1.9249  1.5045
 1016MOL0     H34093   9.997   8.286   1.224  2.2698  0.4948  2.5423
 1016MOL0     H34094   9.567   8.057   1.733  1.5819  1.9322  0.6525
 1016MOL0     H34095   9.443   7.839   1.695  1.6333  0.3289 -0.5066
 1016MOL0     H34096   9.507   7.264   1.931 -0.9113 -0.6442  0.9805
 1016MOL0     H34097   9.360   7.067   1.872 -2.5363 -1.2704 -2.2367
 1016MOL0     H34098   9.311   6.718   2.930 -1.8740 -1.1164  0.7275
 1016MOL0     H34099   9.333   6.471   2.976  1.5131  1.3367  0.8120
 1016MOL0     H34100   9.062   6.012   2.810 -0.3741 -2.7177 -2.5892
 1016MOL0     H34101   9.104   5.780   2.804  0.4445 -2.1195  4.1602
 1016MOL0     H34102   9.327   5.646   2.999  2.1276  1.3599 -0.1373
 1016MOL0     H34103   9.460   5.550   2.913 -1.2283 -1.9069 -1.7979
 1016MOL0     H34104   9.162   5.511   2.858  0.6362  1.8823  1.1113
 1016MOL0     H34105   9.289   5.404   2.808  0.7665 -0.5461  1.6407
 1016MOL0     H34106   9.328   5.325   3.032  1.4326  1.1900 -2.9075
 1016MOL0     H34107   9.155   5.309   2.999  1.5136 -1.4702  2.3642
 1016MOL0     H34108   9.182   5.383   3.221  0.0378  1.2257 -0.3650
 1016MOL0     H34109   9.240   5.534   3.156 -0.3918  1.1615 -1.8898
 1016MOL0     H34110   8.844   5.643   3.101  0.6284 -0.8096 -3.2942
 1016MOL0     H34111   9.527   5.833   2.815  1.4170  3.0982  1.3755
 1016MOL0     H34112   9.491   6.075   2.828 -0.4108  0.4359  3.9913
 1017MOL0     O34113   3.917   3.589   6.928 -0.1939  0.2088  0.4765
 1017MOL0     C34114   3.942   3.533   6.820  0.6592 -0.3621  0.0574
 1017MOL0     O34115   3.883   3.568   6.699 -0.3993  0.3482 -0.2064
 1017MOL0     C34116   3.795   3.683   6.712 -0.2475  0.0470 -0.9733
 1017MOL0     C34117   3.661   3.658   6.732  0.1911 -0.7100 -0.3249
 1017MOL0     C34118   3.576   3.759   6.775  0.4048 -0.0456 -0.0293
 1017MOL0     C34119   3.627   3.886   6.815  0.0548 -0.0674 -0.7863
 1017MOL0     O34120   3.537   3.970   6.877 -0.8674 -0.4063  0.3533
 1017MOL0     C34121   3.569   4.112   6.890  0.4452  0.8201  0.3389
 1017MOL0     C34122   3.545   4.178   6.756 -0.5947 -0.2420 -0.2876
 1017MOL0     C34123   3.404   4.152   6.708  0.4757 -0.6884 -0.6600
 1017MOL0     C34124   3.387   4.169   6.562  0.9622 -1.9431  0.5258
 1017MOL0     C34125   3.245   4.174   6.502 -0.4875  0.1942 -0.1653
 1017MOL0     C34126   3.185   4.309   6.510  0.7178  0.6677  0.5652
 1017MOL0     C34127   3.061   4.327   6.419 -0.2602 -0.6323  1.0405
 1017MOL0     C34128   2.938   4.270   6.485  0.0592 -0.3321  0.2350
 1017MOL0     N34129   2.830   4.293   6.390 -0.5352  0.6240 -0.4490
 1017MOL0     C34130   2.807   4.208   6.291  0.0514  0.0128 -0.4961
 1017MOL0     C34131   2.703   4.266   6.220 -1.2134  0.0180 -0.3608
 1017MOL0     C34132   2.651   4.222   6.086 -0.6740  0.0274 -0.4684
 1017MOL0     C34133   2.697   4.310   5.968 -0.0980 -0.8910  0.3642
 1017MOL0     C34134   2.599   4.372   5.875  0.2482  0.1904  0.2682
 1017MOL0     C34135   2.521   4.473   5.943  0.1766 -0.0978 -0.0444
 1017MOL0     O34136   2.473   4.575   5.851  0.8253  0.0039 -0.2675
 1017MOL0     C34137   2.346   4.565   5.806 -0.3516  0.2270  0.0605
 1017MOL0     C34138   2.273   4.679   5.820 -0.1370  0.0134  0.5485
 1017MOL0     C34139   2.139   4.688   5.791  0.2700  0.7487 -0.3655
 1017MOL0     C34140   2.072   4.573   5.729 -0.3502 -0.6304 -0.2946
 1017MOL0     C34141   1.925   4.571   5.700  0.9703  1.1049  0.6820
 1017MOL0     O34142   1.858   4.685   5.729 -0.0955  0.6322  0.2725
 1017MOL0     C34143   1.729   4.716   5.689 -0.1126  1.3051 -0.3983
 1017MOL0     C34144   1.638   4.617   5.654 -0.2483 -0.4425 -0.2565
 1017MOL0     C34145   1.524   4.641   5.582 -1.0196  0.4567  0.9883
 1017MOL0     C34146   1.477   4.763   5.544 -1.5882 -1.0659 -1.0623
 1017MOL0     O34147   1.365   4.773   5.462 -0.1572  0.4981 -0.8529
 1017MOL0     C34148   1.331   4.896   5.403  0.6326  0.2895  0.7952
 1017MOL0     C34149   1.194   4.882   5.344  1.0763 -0.5738  1.0420
 1017MOL0     C34150   1.195   4.781   5.236  0.1941  1.0138  0.2008
 1017MOL0     C34151   1.052   4.768   5.170 -0.8737 -0.7202 -0.1766
 1017MOL0     C34152   0.997   4.881   5.089 -0.3053 -0.3309 -1.2625
 1017MOL0     C34153   0.854   4.855   5.037  0.0332 -0.3814  0.3961
 1017MOL0     C34154   0.846   4.890   4.885 -0.0153 -0.1954 -0.0783
 1017MOL0     C34155   0.718   4.823   4.833  0.3152 -0.4091  0.2206
 1017MOL0    Cl34156   0.642   4.907   4.680  0.4369 -0.0294 -0.3706
 1017MOL0     C34157   1.567   4.861   5.582 -0.0331  0.1159 -0.1179
 1017MOL0     C34158   1.688   4.839   5.650 -0.1794  0.3028 -0.7812
 1017MOL0     O34159   1.881   4.468   5.649  0.2322  0.5119 -0.4764
 1017MOL0     C34160   2.140   4.453   5.717  0.5167 -0.2060 -1.8850
 1017MOL0     C34161   2.279   4.453   5.754  0.6818 -0.2086 -1.1472
 1017MOL0     N34162   2.661   4.388   6.277  0.3768  1.1499 -0.3675
 1017MOL0     N34163   2.744   4.400   6.378 -0.1265  1.4001  0.0472
 1017MOL0     C34164   3.764   3.913   6.786 -0.6848 -0.3288 -0.9295
 1017MOL0     C34165   3.848   3.813   6.738  0.3262  0.9953  0.1297
 1017MOL0     C34166   4.039   3.427   6.837 -0.0043  0.4436 -0.2806
 1017MOL0     C34167   4.054   3.326   6.742  0.1920 -0.1452  0.1142
 1017MOL0     C34168   4.155   3.225   6.765 -0.1400  0.7435  0.1637
 1017MOL0     C34169   4.243   3.231   6.871  0.8894 -0.3822 -0.1419
 1017MOL0     O34170   4.326   3.123   6.875 -0.1331 -0.0498  0.0232
 1017MOL0     C34171   4.429   3.126   6.985  0.0993  0.3725  0.3525
 1017MOL0     C34172   4.355   3.054   7.104  0.1222 -0.4061  0.3614
 1017MOL0     C34173   4.447   3.065   7.237  0.2526  0.3323  0.3875
 1017MOL0     C34174   4.353   3.028   7.359 -0.3692  0.5183 -0.6109
 1017MOL0     C34175   4.345   2.888   7.392 -0.9011  0.1199 -0.1668
 1017MOL0     C34176   4.329   2.766   7.407  0.0129 -0.7741  0.3134
 1017MOL0     C34177   4.240   3.349   6.951 -0.3658  0.0531  0.2569
 1017MOL0     C34178   4.131   3.431   6.937 -0.1318  0.5474  0.7427
 1017MOL0     H34179   3.621   3.557   6.726 -2.4633  0.2410 -0.0068
 1017MOL0     H34180   3.470   3.736   6.786  0.5401 -0.8638 -0.3661
 1017MOL0     H34181   3.674   4.133   6.913  0.6434  0.9320 -0.6138
 1017MOL0     H34182   3.509   4.164   6.964  0.9211 -1.0073  2.0868
 1017MOL0     H34183   3.614   4.134   6.683  0.8764 -3.1762  2.6050
 1017MOL0     H34184   3.555   4.287   6.757  1.3342 -0.3892  0.5719
 1017MOL0     H34185   3.345   4.228   6.760  2.5128 -0.6930  1.8387
 1017MOL0     H34186   3.378   4.049   6.734 -2.5323  0.6451  2.2254
 1017MOL0     H34187   3.440   4.255   6.522 -2.1118  0.5032  1.3886
 1017MOL0     H34188   3.426   4.074   6.522  0.4297 -1.6284 -0.7477
 1017MOL0     H34189   3.182   4.103   6.558  0.5743 -0.0755  0.7167
 1017MOL0     H34190   3.246   4.139   6.398 -1.2857 -3.0912  0.7863
 1017MOL0     H34191   3.265   4.374   6.473  1.3953  0.5058  1.7123
 1017MOL0     H34192   3.171   4.326   6.617  3.2634  0.4218  0.9961
 1017MOL0     H34193   3.035   4.432   6.403 -1.3947 -0.9298  0.8111
 1017MOL0     H34194   3.075   4.271   6.326 -0.1633 -3.7148  2.7923
 1017MOL0     H34195   2.908   4.331   6.572 -0.6491  2.8394 -2.0625
 1017MOL0     H34196   2.953   4.164   6.507 -2.8855 -0.5693  1.5895
 1017MOL0     H34197   2.861   4.115   6.273 -1.6079 -0.8326 -1.2666
 1017MOL0     H34198   2.543   4.215   6.101 -0.7774 -0.8508 -1.5220
 1017MOL0     H34199   2.679   4.117   6.075 -1.6212 -0.5177  1.6632
 1017MOL0     H34200   2.764   4.240   5.916 -1.0831 -2.2729  0.8890
 1017MOL0     H34201   2.774   4.376   6.010  2.2552 -3.6667  0.7638
 1017MOL0     H34202   2.660   4.420   5.798  0.8368  0.2031  0.7291
 1017MOL0     H34203   2.549   4.292   5.819 -0.7551  2.1567 -1.7805
 1017MOL0     H34204   2.581   4.517   6.023 -0.1783 -2.1339  1.4163
 1017MOL0     H34205   2.442   4.430   6.006  0.0889 -0.4061 -0.3624
 1017MOL0     H34206   2.321   4.763   5.870 -0.8338  0.3351  0.6882
 1017MOL0     H34207   2.096   4.778   5.834  0.6046 -0.4234  2.6774
 1017MOL0     H34208   1.649   4.514   5.688  1.0702 -0.0561  0.5454
 1017MOL0     H34209   1.473   4.552   5.547  3.2043 -1.6900 -0.3892
 1017MOL0     H34210   1.412   4.925   5.334  0.0890  4.3973  1.6006
 1017MOL0     H34211   1.335   4.981   5.472 -2.8103  2.1202 -1.0113
 1017MOL0     H34212   1.147   4.973   5.307 -1.0664 -2.5982 -1.7357
 1017MOL0     H34213   1.131   4.852   5.429  1.2587  0.6781  1.6350
 1017MOL0     H34214   1.232   4.686   5.278  0.4723  1.3569  0.7442
 1017MOL0     H34215   1.263   4.808   5.155 -0.1709 -0.4547 -0.6314
 1017MOL0     H34216   1.047   4.671   5.121 -1.4000 -1.0341  0.4730
 1017MOL0     H34217   0.980   4.759   5.253 -2.0163 -0.4949 -1.1206
 1017MOL0     H34218   1.068   4.884   5.006 -4.6459  5.4505 -5.5841
 1017MOL0     H34219   1.007   4.977   5.140 -0.4227 -0.6907 -0.5440
 1017MOL0     H34220   0.776   4.908   5.094 -1.4382  0.0319 -1.8961
 1017MOL0     H34221   0.827   4.751   5.055 -2.6998  0.1878  0.0458
 1017MOL0     H34222   0.841   4.996   4.859 -3.0447  0.3324  2.1633
 1017MOL0     H34223   0.937   4.849   4.839 -0.2028  0.2924 -0.9107
 1017MOL0     H34224   0.642   4.823   4.911 -2.6323 -1.6841 -2.4220
 1017MOL0     H34225   0.734   4.717   4.811 -1.1202  0.0138 -3.8568
 1017MOL0     H34226   1.546   4.964   5.555 -1.4988  0.1658  1.0594
 1017MOL0     H34227   1.752   4.919   5.685  0.5235 -1.5332  2.6015
 1017MOL0     H34228   2.101   4.368   5.663  1.0472  0.1932 -2.9347
 1017MOL0     H34229   2.337   4.362   5.748  2.1006  0.7218 -2.0021
 1017MOL0     H34230   3.805   4.008   6.817 -0.8419 -0.2169 -1.0582
 1017MOL0     H34231   3.955   3.828   6.728  1.1999 -3.5424  0.3730
 1017MOL0     H34232   3.996   3.323   6.650  3.5771  0.1258 -2.2229
 1017MOL0     H34233   4.162   3.142   6.697  1.7074  0.8667  0.1672
 1017MOL0     H34234   4.455   3.228   7.015 -0.4082  1.4796 -2.5933
 1017MOL0     H34235   4.522   3.075   6.959 -0.0150  0.4291 -0.1787
 1017MOL0     H34236   4.260   3.104   7.122  0.4631  1.3432 -2.1995
 1017MOL0     H34237   4.335   2.951   7.073  1.1467 -0.2538 -0.9345
 1017MOL0     H34238   4.495   3.162   7.251  0.5131  0.3017 -0.2640
 1017MOL0     H34239   4.528   2.993   7.228 -0.2233  0.0440 -3.0143
 1017MOL0     H34240   4.399   3.083   7.443 -3.1111 -0.4950  1.7038
 1017MOL0     H34241   4.252   3.068   7.348 -1.5077 -1.2805  2.1045
 1017MOL0     H34242   4.326   2.660   7.423  0.2069 -0.6859  0.9353
 1017MOL0     H34243   4.301   3.357   7.041  1.4073 -2.6216 -0.5825
 1017MOL0     H34244   4.115   3.498   7.021  2.6812  1.1010  0.9447
 1018MOL0     O34245   8.606   2.141   9.268 -0.1391 -1.0498  0.4265
 1018MOL0     C34246   8.559   2.073   9.359  0.5594  0.3773  0.0232
 1018MOL0     O34247   8.607   1.956   9.411 -0.3771 -0.7350 -0.2202
 1018MOL0     C34248   8.718   1.900   9.360 -0.5466 -0.3196 -0.2794
 1018MOL0     C34249   8.727   1.762   9.359  0.3361  0.1555  0.6209
 1018MOL0     C34250   8.843   1.689   9.335 -1.3368  0.0428 -0.6622
 1018MOL0     C34251   8.964   1.753   9.318  0.7062  0.5267 -0.0903
 1018MOL0     O34252   9.080   1.682   9.302 -0.0162  0.0407 -0.8119
 1018MOL0     C34253   9.188   1.766   9.246  0.9844  0.2293  0.2602
 1018MOL0     C34254   9.301   1.678   9.192 -0.0128 -0.1124  0.9181
 1018MOL0     C34255   9.338   1.571   9.299  0.1087 -0.7170  0.5171
 1018MOL0     C34256   9.478   1.522   9.272 -0.3986  0.5373 -0.1741
 1018MOL0     C34257   9.548   1.432   9.377  0.3098 -0.4915 -0.5188
 1018MOL0     C34258   9.453   1.309   9.398  0.4860  0.1547 -0.3000
 1018MOL0     C34259   9.518   1.186   9.468 -0.0321 -0.4308 -0.0028
 1018MOL0     C34260   9.419   1.063   9.458  0.5050 -0.2366 -0.2544
 1018MOL0     N34261   9.428   0.978   9.583  0.0615 -0.6037  0.2969
 1018MOL0     C34262   9.528   0.893   9.614 -0.5591 -0.7217 -0.1899
 1018MOL0     C34263   9.479   0.807   9.711 -0.4915 -0.0972 -0.4120
 1018MOL0     C34264   9.540   0.690   9.769  0.3794  0.5434 -0.5197
 1018MOL0     C34265   9.629   0.705   9.892 -0.7150  0.0558  0.8557
 1018MOL0     C34266   9.686   0.563   9.943 -0.7477  0.0388 -1.2471
 1018MOL0     C34267   9.769   0.568  10.072 -1.1062 -0.7341  0.2209
 1018MOL0     O34268   9.827   0.440  10.100  0.2560  0.2902 -0.3025
 1018MOL0     C34269   9.927   0.424  10.195  0.3626 -0.6160  0.5328
 1018MOL0     C34270   9.970   0.527  10.278  0.0513  0.0857  0.9891
 1018MOL0     C34271  10.061   0.502  10.377  0.2379 -0.0152 -0.3308
 1018MOL0     C34272  10.117   0.376  10.395  0.0783 -0.2273 -1.1049
 1018MOL0     C34273  10.218   0.348  10.507  0.0145  0.3217  0.2699
 1018MOL0     O34274  10.247   0.449  10.590 -0.3168  0.9406 -0.7894
 1018MOL0     C34275  10.344   0.419  10.681  0.0909  0.2678 -1.7468
 1018MOL0     C34276  10.320   0.344  10.802 -0.3692  0.1921 -0.3338
 1018MOL0     C34277  10.422   0.322  10.894  0.4189  0.0033 -0.5833
 1018MOL0     C34278  10.558   0.354  10.855  0.4793 -0.9384 -0.6893
 1018MOL0     O34279  10.668   0.327  10.935 -0.5279  0.6621  0.3378
 1018MOL0     C34280  10.659   0.274  11.071  1.3166 -0.5952 -0.6060
 1018MOL0     C34281  10.777   0.197  11.117 -0.4514  0.5765 -0.1127
 1018MOL0     C34282  10.747   0.072  11.189  0.2448  0.4909  1.1152
 1018MOL0     C34283  10.749   0.092  11.336  0.4986 -1.2899  0.6868
 1018MOL0     C34284  10.702  -0.036  11.393 -0.2467  0.9494 -0.4034
 1018MOL0     C34285  10.732  -0.026  11.541  0.8913  0.8996 -0.1264
 1018MOL0     C34286  10.659  -0.128  11.630 -0.0711  0.0983  0.2269
 1018MOL0     C34287  10.695  -0.122  11.784 -0.3367  0.2258  0.8156
 1018MOL0    Cl34288  10.869  -0.149  11.790 -0.4626  0.5344 -0.1226
 1018MOL0     C34289  10.577   0.421  10.728  0.1616 -0.9045 -0.9275
 1018MOL0     C34290  10.470   0.461  10.658  0.9117  0.5197  0.6306
 1018MOL0     O34291  10.247   0.232  10.518  0.0213  0.4260 -0.2898
 1018MOL0     C34292  10.070   0.282  10.311 -0.4569 -0.6253  0.9608
 1018MOL0     C34293   9.980   0.298  10.209 -0.9374 -0.9119 -0.1392
 1018MOL0     N34294   9.354   0.843   9.737  0.0208  0.4091  0.2603
 1018MOL0     N34295   9.321   0.942   9.657 -0.3791 -0.1644  0.0341
 1018MOL0     C34296   8.958   1.893   9.323 -0.4490  0.1042 -0.3987
 1018MOL0     C34297   8.844   1.967   9.345 -0.1534  0.1191  1.0544
 1018MOL0     C34298   8.422   2.112   9.408 -0.2632 -0.2224 -0.0250
 1018MOL0     C34299   8.348   2.218   9.342 -0.1528  0.6408  0.0129
 1018MOL0     C34300   8.228   2.260   9.391  0.2242  0.3894  0.2590
 1018MOL0     C34301   8.166   2.197   9.501 -0.1743  0.2086  0.3383
 1018MOL0     O34302   8.042   2.224   9.549  0.5298  0.1010 -1.2479
 1018MOL0     C34303   7.947   2.281   9.457  0.1535  0.3929  0.9970
 1018MOL0     C34304   7.812   2.265   9.520 -0.1283 -0.7764 -0.1130
 1018MOL0     C34305   7.694   2.308   9.426  0.1781  0.6842 -0.1944
 1018MOL0     C34306   7.553   2.315   9.484 -1.2112 -0.9433  0.0313
 1018MOL0     C34307   7.513   2.451   9.521  1.0995 -0.3696  0.9069
 1018MOL0     C34308   7.451   2.549   9.557 -1.0549 -0.5284  0.0875
 1018MOL0     C34309   8.229   2.088   9.561 -0.1742 -0.4939  0.6929
 1018MOL0     C34310   8.358   2.045   9.517  1.0513 -0.2684  0.0469
 1018MOL0     H34311   8.631   1.714   9.376  0.6709  0.0174  2.3060
 1018MOL0     H34312   8.845   1.580   9.328  2.9941  0.0138 -1.2922
 1018MOL0     H34313   9.230   1.832   9.322 -1.7947  1.5808  0.7234
 1018MOL0     H34314   9.148   1.823   9.162  1.1259 -0.3872 -0.2408
 1018MOL0     H34315   9.388   1.739   9.170  0.9270  0.0871  4.5853
 1018MOL0     H34316   9.256   1.624   9.108 -3.4654 -0.7533  2.9778
 1018MOL0     H34317   9.260   1.494   9.302 -2.1474  1.2217 -2.1765
 1018MOL0     H34318   9.335   1.622   9.395  0.5143  0.5602 -0.1168
 1018MOL0     H34319   9.460   1.458   9.185 -0.1875 -1.6292  1.2932
 1018MOL0     H34320   9.557   1.592   9.243  1.1897 -0.4972  1.4395
 1018MOL0     H34321   9.554   1.490   9.469 -0.4190 -0.1004 -0.7063
 1018MOL0     H34322   9.646   1.401   9.338 -0.9384 -0.2466 -4.2784
 1018MOL0     H34323   9.428   1.270   9.298 -3.3137 -2.4345  1.3975
 1018MOL0     H34324   9.371   1.348   9.459  1.3762  1.5129  0.0624
 1018MOL0     H34325   9.616   1.171   9.422  1.7625  3.1608  2.1841
 1018MOL0     H34326   9.537   1.211   9.573  2.6032  5.1703 -1.4505
 1018MOL0     H34327   9.435   1.005   9.368  0.7806 -0.8777  0.2034
 1018MOL0     H34328   9.315   1.097   9.453  0.2215 -0.9272  0.5522
 1018MOL0     H34329   9.621   0.889   9.558 -0.6920  1.7462 -0.6995
 1018MOL0     H34330   9.590   0.638   9.687 -1.4847 -1.7657 -0.3169
 1018MOL0     H34331   9.462   0.621   9.803 -1.9066  3.2047 -0.0351
 1018MOL0     H34332   9.584   0.761   9.975  0.3049  1.5625  0.4311
 1018MOL0     H34333   9.711   0.768   9.856  0.0038 -1.7287 -0.8199
 1018MOL0     H34334   9.601   0.500   9.971  0.6605 -1.5905 -0.4978
 1018MOL0     H34335   9.751   0.509   9.874  1.5812 -0.1498  0.9326
 1018MOL0     H34336   9.699   0.595  10.151  0.5935 -0.6220  1.7596
 1018MOL0     H34337   9.845   0.646  10.066  0.4961 -2.1126  1.5829
 1018MOL0     H34338   9.937   0.629  10.262  1.9482  0.4183 -1.2011
 1018MOL0     H34339  10.086   0.594  10.429 -1.2596  1.0064 -1.3615
 1018MOL0     H34340  10.231   0.282  10.817 -0.8362  0.6912 -0.9926
 1018MOL0     H34341  10.393   0.280  10.990  1.5753  1.1724  0.3073
 1018MOL0     H34342  10.573   0.207  11.079  1.5220 -0.8879 -0.8597
 1018MOL0     H34343  10.654   0.365  11.132 -1.8465 -1.6695  0.9693
 1018MOL0     H34344  10.844   0.256  11.181 -1.3713  0.2811  1.1684
 1018MOL0     H34345  10.836   0.159  11.033  0.0010 -0.9231  0.8321
 1018MOL0     H34346  10.826   0.001  11.163 -0.4971  0.1883 -0.4501
 1018MOL0     H34347  10.656   0.023  11.154  2.4833 -2.9087 -0.5095
 1018MOL0     H34348  10.847   0.120  11.375  0.1279 -1.4873  1.7911
 1018MOL0     H34349  10.684   0.177  11.360  3.0369  1.0011 -0.0504
 1018MOL0     H34350  10.760  -0.123  11.361  2.3527  1.2061  2.9405
 1018MOL0     H34351  10.603  -0.076  11.372 -0.1868  0.7723 -0.3492
 1018MOL0     H34352  10.693   0.071  11.572  0.1964  1.5174 -2.6612
 1018MOL0     H34353  10.841  -0.022  11.555  0.7589 -1.0130  1.9434
 1018MOL0     H34354  10.550  -0.129  11.626 -0.0602 -0.4063 -0.0821
 1018MOL0     H34355  10.697  -0.225  11.596 -1.3621  0.0624 -1.1802
 1018MOL0     H34356  10.658  -0.198  11.854  2.2586 -0.4416  1.5874
 1018MOL0     H34357  10.655  -0.025  11.815 -0.6294  0.6859 -0.9088
 1018MOL0     H34358  10.676   0.460  10.707 -0.7537  0.3899 -3.1335
 1018MOL0     H34359  10.493   0.517  10.568  0.3534 -2.0614 -1.2208
 1018MOL0     H34360  10.104   0.179  10.324  1.8103 -0.0328  0.0706
 1018MOL0     H34361   9.951   0.210  10.152 -0.6726 -3.7557  3.7082
 1018MOL0     H34362   9.034   1.971   9.326 -1.1817  0.8109  0.4704
 1018MOL0     H34363   8.835   2.075   9.351  0.3355  0.8438 -4.9238
 1018MOL0     H34364   8.399   2.272   9.262 -0.2933 -2.1471 -2.1175
 1018MOL0     H34365   8.178   2.334   9.330  1.7086  1.0497 -0.2065
 1018MOL0     H34366   7.960   2.226   9.364 -0.7926 -1.3752  1.8663
 1018MOL0     H34367   7.971   2.383   9.424 -0.9755  0.4373  0.2490
 1018MOL0     H34368   7.798   2.164   9.559  2.0185 -1.0565  0.0620
 1018MOL0     H34369   7.803   2.338   9.600 -0.8442 -2.7117  1.6415
 1018MOL0     H34370   7.701   2.227   9.352  0.1047 -0.0658  0.6137
 1018MOL0     H34371   7.714   2.403   9.374  2.2955  0.0176 -0.7340
 1018MOL0     H34372   7.492   2.283   9.399  1.8654  0.4624 -2.9425
 1018MOL0     H34373   7.543   2.243   9.566 -1.1538 -2.0233 -0.8734
 1018MOL0     H34374   7.390   2.627   9.597 -1.1780  0.7734 -2.4708
 1018MOL0     H34375   8.179   2.048   9.649 -0.0140 -0.9990  0.5524
 1018MOL0     H34376   8.390   1.953   9.566 -0.5130 -2.1199 -2.1598
 1019MOL0     O34377   0.785   5.971   0.751 -0.5713 -0.1009 -0.1158
 1019MOL0     C34378   0.693   6.056   0.765 -0.5661  0.3284 -0.4702
 1019MOL0     O34379   0.586   6.043   0.849 -0.5823 -0.1313  0.3004
 1019MOL0     C34380   0.571   5.933   0.919 -0.1142 -0.1020 -0.3803
 1019MOL0     C34381   0.623   5.902   1.050  0.6316 -0.6611  0.5116
 1019MOL0     C34382   0.594   5.789   1.118  0.7599  0.0452  0.3436
 1019MOL0     C34383   0.500   5.694   1.065  0.2425 -0.3279  0.3748
 1019MOL0     O34384   0.454   5.578   1.123 -0.0463  0.5824  0.6152
 1019MOL0     C34385   0.495   5.533   1.258  0.0051 -0.6049 -0.4730
 1019MOL0     C34386   0.391   5.598   1.355 -0.6614 -1.4427 -0.3846
 1019MOL0     C34387   0.405   5.540   1.495  0.3261 -0.5261 -0.4473
 1019MOL0     C34388   0.341   5.404   1.510 -0.8460  0.4648 -0.2830
 1019MOL0     C34389   0.317   5.374   1.656  0.5373  0.6753  0.3691
 1019MOL0     C34390   0.183   5.427   1.704 -0.5767 -0.2718  0.1926
 1019MOL0     C34391   0.148   5.360   1.828 -0.0283 -0.7388 -0.0326
 1019MOL0     C34392   0.043   5.243   1.816  0.4103  0.4249 -0.6543
 1019MOL0     N34393   0.013   5.175   1.946  0.2202 -0.4155  0.1267
 1019MOL0     C34394  -0.109   5.130   1.986  0.9994 -0.0426 -0.2583
 1019MOL0     C34395  -0.098   5.108   2.121 -0.8525 -0.4943 -0.0053
 1019MOL0     C34396  -0.212   5.065   2.200 -0.9988  0.8954 -0.6443
 1019MOL0     C34397  -0.295   4.951   2.148 -0.4024 -0.7159 -0.1601
 1019MOL0     C34398  -0.214   4.824   2.121  0.1617  1.2423 -0.7446
 1019MOL0     C34399  -0.263   4.766   1.995 -0.3038 -0.0476  0.5983
 1019MOL0     O34400  -0.221   4.854   1.885  0.4717 -0.6203  0.8677
 1019MOL0     C34401  -0.275   4.819   1.765 -0.7180 -0.6262  0.6433
 1019MOL0     C34402  -0.266   4.918   1.663 -0.4983  0.6213 -0.2436
 1019MOL0     C34403  -0.283   4.885   1.532 -0.1549  0.0841 -0.0028
 1019MOL0     C34404  -0.308   4.754   1.484 -0.8864 -0.0073 -0.2828
 1019MOL0     C34405  -0.335   4.722   1.337 -1.0566 -0.3973  0.1762
 1019MOL0     O34406  -0.319   4.828   1.256  0.4461  0.4416  0.3778
 1019MOL0     C34407  -0.302   4.807   1.117  0.2577 -0.2247 -0.6402
 1019MOL0     C34408  -0.417   4.821   1.035 -0.0939 -0.0755 -0.6328
 1019MOL0     C34409  -0.410   4.799   0.891  0.2169  0.2610 -0.0950
 1019MOL0     C34410  -0.282   4.773   0.841  0.0367  0.7691  0.3712
 1019MOL0     O34411  -0.283   4.754   0.702  0.3866 -0.1181 -0.3430
 1019MOL0     C34412  -0.225   4.868   0.637  0.6240  0.5009 -0.4273
 1019MOL0     C34413  -0.190   4.833   0.501  0.4081  0.6971  0.0289
 1019MOL0     C34414  -0.081   4.921   0.444 -0.4446  0.2397 -1.2164
 1019MOL0     C34415  -0.114   5.069   0.453  0.3017  0.1715  0.6340
 1019MOL0     C34416  -0.038   5.173   0.365  0.7370  0.4731  0.4873
 1019MOL0     C34417   0.114   5.164   0.386  0.2254  0.0123  0.0069
 1019MOL0     C34418   0.193   5.204   0.260  0.5625 -0.1855  0.5351
 1019MOL0     C34419   0.347   5.239   0.269  0.0318  1.0676  0.7179
 1019MOL0    Cl34420   0.438   5.099   0.335 -0.1807  0.1607 -0.1759
 1019MOL0     C34421  -0.165   4.769   0.923 -0.0137 -0.3824 -0.3937
 1019MOL0     C34422  -0.175   4.779   1.063 -0.1345 -0.5174 -0.8824
 1019MOL0     O34423  -0.352   4.604   1.307 -0.3660  0.2217  0.3499
 1019MOL0     C34424  -0.325   4.657   1.586  0.3066 -0.0379 -0.0981
 1019MOL0     C34425  -0.317   4.692   1.721 -0.4864  1.1173  0.6684
 1019MOL0     N34426   0.035   5.142   2.158  0.1862  0.0590  0.1752
 1019MOL0     N34427   0.100   5.170   2.051  0.4484 -0.4074 -1.0063
 1019MOL0     C34428   0.441   5.722   0.949  0.3383 -0.7638  0.4536
 1019MOL0     C34429   0.473   5.839   0.875  1.1040  0.0314 -0.5204
 1019MOL0     C34430   0.691   6.155   0.657  0.7077  0.5961  0.8802
 1019MOL0     C34431   0.581   6.181   0.581  0.3224 -0.5205 -0.4716
 1019MOL0     C34432   0.587   6.271   0.483  0.6189  0.4547  0.6685
 1019MOL0     C34433   0.699   6.342   0.447 -0.5872  0.5117 -1.2129
 1019MOL0     O34434   0.710   6.439   0.346 -0.4871  0.0458  0.6716
 1019MOL0     C34435   0.605   6.437   0.243  0.6981 -0.2299 -0.1248
 1019MOL0     C34436   0.476   6.517   0.280 -1.2429  0.7079 -0.4620
 1019MOL0     C34437   0.460   6.634   0.176 -0.3333  0.1050 -0.1426
 1019MOL0     C34438   0.348   6.728   0.213  0.4578 -0.6499 -0.1337
 1019MOL0     C34439   0.352   6.854   0.132  0.5072 -0.4541  0.1106
 1019MOL0     C34440   0.363   6.956   0.061 -0.5425  0.6414  0.0010
 1019MOL0     C34441   0.810   6.319   0.524 -0.3117  0.2759 -0.5635
 1019MOL0     C34442   0.810   6.226   0.628  0.2669 -0.5230  0.3382
 1019MOL0     H34443   0.692   5.972   1.096 -0.9121  2.8209 -1.9463
 1019MOL0     H34444   0.647   5.777   1.212 -0.2564 -2.1170  0.6989
 1019MOL0     H34445   0.596   5.561   1.287 -0.6178 -0.9785  2.3098
 1019MOL0     H34446   0.498   5.425   1.276  0.5415 -0.5073  0.0450
 1019MOL0     H34447   0.287   5.571   1.331 -0.5956 -3.5576  1.3700
 1019MOL0     H34448   0.419   5.703   1.355  0.2331 -1.6782  0.0368
 1019MOL0     H34449   0.353   5.603   1.568  1.4078 -1.5771  1.2906
 1019MOL0     H34450   0.509   5.538   1.528  1.4032  2.7225 -3.1027
 1019MOL0     H34451   0.258   5.376   1.444 -0.3869 -2.3777  0.2337
 1019MOL0     H34452   0.414   5.330   1.477 -1.7579  0.1872 -1.8041
 1019MOL0     H34453   0.383   5.415   1.734 -0.4079 -1.2216  2.2750
 1019MOL0     H34454   0.320   5.265   1.662  0.9569  0.5297 -1.7469
 1019MOL0     H34455   0.099   5.425   1.634  0.9656  0.2419 -1.7451
 1019MOL0     H34456   0.196   5.533   1.724  3.7190 -0.6232  0.1415
 1019MOL0     H34457   0.246   5.331   1.867  3.0980  3.8939 -3.1974
 1019MOL0     H34458   0.120   5.441   1.895  0.9045  0.7153 -1.3114
 1019MOL0     H34459   0.092   5.170   1.750  1.5954  0.2037  0.4359
 1019MOL0     H34460  -0.043   5.297   1.776  1.3931  1.2623 -1.7117
 1019MOL0     H34461  -0.200   5.114   1.929 -1.8458  1.2954  3.4480
 1019MOL0     H34462  -0.283   5.148   2.204  0.8857  2.6178  3.3613
 1019MOL0     H34463  -0.175   5.037   2.299 -2.8929  0.4946 -0.0116
 1019MOL0     H34464  -0.342   4.999   2.061 -1.2969  1.8658  1.6274
 1019MOL0     H34465  -0.388   4.944   2.205 -2.4707  2.9862 -2.6201
 1019MOL0     H34466  -0.105   4.824   2.112  0.5722 -4.1265  0.6079
 1019MOL0     H34467  -0.222   4.766   2.213  1.5817  3.3143  0.7497
 1019MOL0     H34468  -0.367   4.734   1.991 -0.1090 -0.5422 -1.5175
 1019MOL0     H34469  -0.212   4.670   1.978 -2.6007 -1.1575 -0.4595
 1019MOL0     H34470  -0.234   5.018   1.690 -1.5262  0.1662  3.1726
 1019MOL0     H34471  -0.281   4.978   1.476 -1.6383  0.2836  0.2295
 1019MOL0     H34472  -0.507   4.851   1.088  0.7685  1.0572  0.2308
 1019MOL0     H34473  -0.507   4.808   0.842 -0.5615  1.3232  1.5503
 1019MOL0     H34474  -0.139   4.915   0.685  0.7820  0.3032 -0.5180
 1019MOL0     H34475  -0.303   4.945   0.639 -0.5490 -0.6160 -1.5500
 1019MOL0     H34476  -0.284   4.828   0.445  0.7329 -0.5362 -0.4541
 1019MOL0     H34477  -0.145   4.734   0.513 -1.8280 -0.4973 -0.7997
 1019MOL0     H34478  -0.047   4.896   0.343  1.3061 -2.6416 -0.0527
 1019MOL0     H34479   0.009   4.897   0.502 -2.1596 -0.7248  1.2573
 1019MOL0     H34480  -0.221   5.090   0.446  0.5223  1.1464 -0.0065
 1019MOL0     H34481  -0.100   5.103   0.556  0.4537  0.0616  0.6498
 1019MOL0     H34482  -0.068   5.278   0.362 -2.8639 -0.4390 -0.3047
 1019MOL0     H34483  -0.058   5.147   0.260 -2.2867 -4.5964  1.9841
 1019MOL0     H34484   0.146   5.063   0.412  2.2114  0.5042 -0.3986
 1019MOL0     H34485   0.138   5.233   0.468  0.6838  0.8579 -0.8280
 1019MOL0     H34486   0.176   5.124   0.187  1.0655  0.5042 -0.3618
 1019MOL0     H34487   0.143   5.293   0.221  0.4007 -0.3010  0.4772
 1019MOL0     H34488   0.368   5.323   0.335  1.7020  2.7672 -1.7659
 1019MOL0     H34489   0.387   5.253   0.167 -0.3319 -0.5334  0.3326
 1019MOL0     H34490  -0.068   4.753   0.875 -0.3663  1.0998 -1.6854
 1019MOL0     H34491  -0.087   4.784   1.125  1.2266  1.5761 -2.8128
 1019MOL0     H34492  -0.359   4.557   1.560 -2.1601  1.4342 -3.2946
 1019MOL0     H34493  -0.320   4.601   1.780 -2.6929  0.3403 -0.5369
 1019MOL0     H34494   0.374   5.651   0.903  0.7064  0.2575 -1.7940
 1019MOL0     H34495   0.416   5.848   0.782 -2.3520 -2.1781  1.1517
 1019MOL0     H34496   0.485   6.138   0.608  0.1959 -1.1359 -1.8130
 1019MOL0     H34497   0.495   6.288   0.429 -0.6065 -0.5221  2.3480
 1019MOL0     H34498   0.577   6.331   0.240 -1.0781  0.2352 -1.6866
 1019MOL0     H34499   0.643   6.468   0.145 -0.3901  3.7993  0.5684
 1019MOL0     H34500   0.382   6.464   0.268 -1.4756  0.7972  0.8242
 1019MOL0     H34501   0.490   6.554   0.382  0.0007  2.3377 -1.1741
 1019MOL0     H34502   0.450   6.590   0.076 -0.3985 -1.4578  0.5237
 1019MOL0     H34503   0.556   6.685   0.172 -0.0139 -0.5564 -2.1158
 1019MOL0     H34504   0.250   6.681   0.209  0.5385 -0.9196  0.8714
 1019MOL0     H34505   0.376   6.746   0.317  4.0541  1.9219 -1.3641
 1019MOL0     H34506   0.378   7.041  -0.002  1.5970  1.4735  1.4957
 1019MOL0     H34507   0.903   6.373   0.509 -0.7055  0.7617 -1.3019
 1019MOL0     H34508   0.908   6.212   0.674  1.6155 -0.6310 -2.3582
 1020MOL0     O34509   5.992  11.092   5.994 -0.0916 -0.5007 -0.6322
 1020MOL0     C34510   6.004  11.164   6.102  0.0568  0.2937  0.8491
 1020MOL0     O34511   5.901  11.211   6.166 -0.2372 -0.8387  0.2442
 1020MOL0     C34512   5.779  11.216   6.113 -0.5393 -0.2151  0.2639
 1020MOL0     C34513   5.744  11.316   6.026  0.3967 -0.1275 -0.8663
 1020MOL0     C34514   5.614  11.316   5.967  1.1579  0.0957 -0.5605
 1020MOL0     C34515   5.518  11.201   5.986 -0.5377  1.0991 -0.9001
 1020MOL0     O34516   5.386  11.203   5.950  1.1412 -0.0673  0.0202
 1020MOL0     C34517   5.348  11.281   5.838 -0.2374 -0.1993  1.2268
 1020MOL0     C34518   5.204  11.245   5.831  0.5412 -0.7872 -0.2056
 1020MOL0     C34519   5.132  11.323   5.718  0.2030  0.1825 -0.2292
 1020MOL0     C34520   4.989  11.287   5.701 -0.0844 -0.4367  0.5411
 1020MOL0     C34521   4.903  11.374   5.603 -0.3104 -0.3552  0.3582
 1020MOL0     C34522   4.762  11.307   5.582 -0.3258 -0.4223  0.1940
 1020MOL0     C34523   4.699  11.378   5.465  0.3845 -0.8159  0.9942
 1020MOL0     C34524   4.551  11.349   5.461 -0.3118 -0.8040  0.2276
 1020MOL0     N34525   4.502  11.416   5.344 -0.0610 -0.2609  0.5210
 1020MOL0     C34526   4.489  11.356   5.225 -0.2356 -0.0180 -0.4909
 1020MOL0     C34527   4.444  11.452   5.144 -0.1667  0.4294 -0.2591
 1020MOL0     C34528   4.420  11.427   5.000 -0.3408 -0.2287  0.7827
 1020MOL0     C34529   4.450  11.560   4.926  0.0042 -0.2612 -0.3744
 1020MOL0     C34530   4.605  11.606   4.895  0.5733  0.5553  0.9022
 1020MOL0     C34531   4.672  11.663   5.015 -0.4400 -0.3348 -0.0718
 1020MOL0     O34532   4.815  11.659   4.986 -0.5256 -0.8076 -0.1686
 1020MOL0     C34533   4.907  11.645   5.088 -0.7126  0.7567  0.1269
 1020MOL0     C34534   4.875  11.672   5.218 -1.1341 -0.4885 -0.0847
 1020MOL0     C34535   4.968  11.674   5.320  0.5361  0.5974  0.1190
 1020MOL0     C34536   5.102  11.634   5.298 -1.3736 -0.5415 -0.4633
 1020MOL0     C34537   5.206  11.612   5.409  0.0886 -0.2111  0.7685
 1020MOL0     O34538   5.344  11.603   5.378 -0.4097 -1.2979 -0.7388
 1020MOL0     C34539   5.420  11.595   5.494 -0.9842  0.1689 -0.1580
 1020MOL0     C34540   5.529  11.683   5.513  0.8023  0.2998  0.2202
 1020MOL0     C34541   5.638  11.665   5.597  0.9593  0.1521 -0.0783
 1020MOL0     C34542   5.656  11.535   5.659 -0.6338  0.2233 -0.4895
 1020MOL0     O34543   5.771  11.505   5.735 -0.1727 -0.4329  0.7618
 1020MOL0     C34544   5.894  11.500   5.646 -0.7614  0.2679 -0.7214
 1020MOL0     C34545   6.004  11.416   5.705  0.2143  1.1790 -0.7102
 1020MOL0     C34546   6.107  11.484   5.796 -0.2974  1.0283  0.9300
 1020MOL0     C34547   6.230  11.392   5.810 -0.0874 -0.3833  0.2565
 1020MOL0     C34548   6.323  11.461   5.912 -0.3642 -0.0225  0.0164
 1020MOL0     C34549   6.472  11.430   5.888  0.1302 -0.2015  0.1154
 1020MOL0     C34550   6.523  11.500   5.750 -1.2151 -0.9956  0.5862
 1020MOL0     C34551   6.607  11.409   5.658 -0.0241  0.2105  0.5510
 1020MOL0    Cl34552   6.774  11.392   5.727  0.2113  0.3940 -0.2063
 1020MOL0     C34553   5.558  11.437   5.637 -0.3554 -0.3456  0.1435
 1020MOL0     C34554   5.448  11.469   5.552 -0.5111  0.4138  0.2683
 1020MOL0     O34555   5.164  11.628   5.520 -0.1319  0.5068  0.3744
 1020MOL0     C34556   5.133  11.604   5.171 -0.6968  0.0529 -0.4140
 1020MOL0     C34557   5.044  11.614   5.064  0.2835  0.0328 -0.5011
 1020MOL0     N34558   4.436  11.571   5.209 -0.0771 -0.0959 -0.2506
 1020MOL0     N34559   4.466  11.550   5.335 -0.4106  0.1683 -0.9637
 1020MOL0     C34560   5.563  11.110   6.084 -0.2693 -0.2704 -0.4954
 1020MOL0     C34561   5.685  11.118   6.144 -0.9684 -0.0076 -0.0920
 1020MOL0     C34562   6.138  11.184   6.158  0.1419 -0.4855 -0.1237
 1020MOL0     C34563   6.249  11.156   6.078 -0.1020  0.0319 -0.0225
 1020MOL0     C34564   6.374  11.167   6.125 -1.0160  0.7692 -0.2306
 1020MOL0     C34565   6.402  11.211   6.257 -1.1674 -0.1435  0.0150
 1020MOL0     O34566   6.531  11.270   6.283  0.4578 -0.0487 -0.5781
 1020MOL0     C34567   6.630  11.174   6.322 -0.3973  0.4302 -0.2368
 1020MOL0     C34568   6.773  11.242   6.321 -0.5037 -0.6947  0.5959
 1020MOL0     C34569   6.788  11.330   6.190  0.0429  0.0810  1.1504
 1020MOL0     C34570   6.782  11.259   6.059  0.0367  0.0578  0.6395
 1020MOL0     C34571   6.862  11.131   6.059 -0.0637 -0.2716  0.3120
 1020MOL0     C34572   6.908  11.009   6.073 -0.8195 -0.1990 -0.4269
 1020MOL0     C34573   6.292  11.233   6.334 -0.1989  0.5415 -0.9030
 1020MOL0     C34574   6.162  11.220   6.288  0.0597  0.0648  0.2716
 1020MOL0     H34575   5.817  11.394   6.006  1.7649 -1.5193 -1.5315
 1020MOL0     H34576   5.590  11.405   5.910 -0.3130 -0.4631 -0.8733
 1020MOL0     H34577   5.393  11.266   5.739 -2.0598  0.7893  0.2032
 1020MOL0     H34578   5.358  11.386   5.864 -0.6362  0.4439 -1.0131
 1020MOL0     H34579   5.152  11.261   5.926  0.4193 -2.7534  0.0904
 1020MOL0     H34580   5.207  11.139   5.805 -0.8085 -0.8055 -0.3611
 1020MOL0     H34581   5.168  11.301   5.617 -1.2552  0.1810 -0.7785
 1020MOL0     H34582   5.154  11.429   5.737  2.4515 -0.2032 -0.3965
 1020MOL0     H34583   5.006  11.186   5.663  4.5621  1.3707 -3.2472
 1020MOL0     H34584   4.934  11.275   5.795 -1.5534  1.0885 -0.0666
 1020MOL0     H34585   4.952  11.396   5.508 -0.4073  0.2548  0.4433
 1020MOL0     H34586   4.897  11.471   5.653 -0.0262  1.2557 -2.5604
 1020MOL0     H34587   4.706  11.306   5.676  1.4721 -2.8838  1.3280
 1020MOL0     H34588   4.779  11.203   5.554  0.7223  0.2315 -1.7953
 1020MOL0     H34589   4.716  11.485   5.476 -0.6239 -0.2699 -1.9848
 1020MOL0     H34590   4.747  11.346   5.372 -0.3040  0.0136  0.3416
 1020MOL0     H34591   4.501  11.395   5.547  1.0101  0.0248  0.5951
 1020MOL0     H34592   4.529  11.244   5.441 -0.6386 -0.6415 -0.2689
 1020MOL0     H34593   4.527  11.261   5.189  0.0595  0.5759 -1.8081
 1020MOL0     H34594   4.322  11.382   4.978 -1.1520  1.7325  0.1522
 1020MOL0     H34595   4.494  11.358   4.958 -0.8142 -0.4143  0.2234
 1020MOL0     H34596   4.395  11.649   4.958 -1.4807 -0.7174 -1.5171
 1020MOL0     H34597   4.397  11.541   4.832  1.8691 -2.5612 -1.0459
 1020MOL0     H34598   4.659  11.519   4.855  0.1916  0.8468 -0.3011
 1020MOL0     H34599   4.588  11.678   4.814 -0.6163 -2.1702 -1.4463
 1020MOL0     H34600   4.653  11.599   5.102  2.0243 -1.2654 -0.1381
 1020MOL0     H34601   4.632  11.761   5.044 -0.3544 -0.4061  0.2992
 1020MOL0     H34602   4.778  11.705   5.252 -1.3473  0.1700 -1.2775
 1020MOL0     H34603   4.923  11.685   5.418 -0.5254 -1.4803 -0.0783
 1020MOL0     H34604   5.523  11.776   5.457 -0.0416 -0.6191 -1.2837
 1020MOL0     H34605   5.715  11.740   5.612 -0.4667  1.4026  1.4127
 1020MOL0     H34606   5.932  11.602   5.644  0.0953  0.0504  1.7286
 1020MOL0     H34607   5.870  11.453   5.550 -2.5258 -2.0299  0.7263
 1020MOL0     H34608   6.054  11.372   5.618 -1.0734 -4.0163  0.7937
 1020MOL0     H34609   5.955  11.332   5.757 -0.5508  2.3368  0.5243
 1020MOL0     H34610   6.069  11.509   5.895 -0.5953  1.4467  0.7162
 1020MOL0     H34611   6.132  11.578   5.746 -2.6360  0.1283 -2.2607
 1020MOL0     H34612   6.200  11.290   5.834 -1.8261 -1.1454 -4.2095
 1020MOL0     H34613   6.279  11.391   5.712 -0.6199  1.7701 -0.0917
 1020MOL0     H34614   6.300  11.439   6.016  2.1048  2.8927  1.3145
 1020MOL0     H34615   6.314  11.568   5.890 -0.0083 -0.2194 -1.1598
 1020MOL0     H34616   6.474  11.321   5.880  0.6513 -0.5331  3.4354
 1020MOL0     H34617   6.536  11.460   5.971 -0.6150  4.5420 -0.7205
 1020MOL0     H34618   6.436  11.533   5.692 -1.1268 -1.1554  0.3597
 1020MOL0     H34619   6.584  11.589   5.765 -1.9262 -0.7176  1.9066
 1020MOL0     H34620   6.614  11.457   5.559  0.4564  0.0039  0.4809
 1020MOL0     H34621   6.558  11.312   5.650  0.7470 -0.1056 -0.6839
 1020MOL0     H34622   5.579  11.336   5.671 -2.6859 -1.4763 -1.4796
 1020MOL0     H34623   5.399  11.381   5.510  0.0666  1.5233 -3.0799
 1020MOL0     H34624   5.232  11.581   5.134 -0.1092  1.5803  0.1135
 1020MOL0     H34625   5.071  11.591   4.961  2.6558 -0.6886  0.2069
 1020MOL0     H34626   5.502  11.027   6.120 -3.1632  1.5379 -0.8593
 1020MOL0     H34627   5.703  11.039   6.216 -0.1995  1.7481  1.7344
 1020MOL0     H34628   6.239  11.125   5.974  3.8381  2.5894 -1.4266
 1020MOL0     H34629   6.455  11.155   6.054 -1.8120  2.0750 -1.3942
 1020MOL0     H34630   6.636  11.089   6.253  2.0628 -3.1070  3.8770
 1020MOL0     H34631   6.619  11.123   6.418  1.0559 -1.5518 -1.0507
 1020MOL0     H34632   6.784  11.309   6.407  0.8315 -1.1442  0.8119
 1020MOL0     H34633   6.857  11.171   6.319  0.3849  0.3114  0.9357
 1020MOL0     H34634   6.878  11.392   6.195 -0.2383  0.5795  0.1912
 1020MOL0     H34635   6.702  11.397   6.201 -1.4682 -1.9794  2.6777
 1020MOL0     H34636   6.674  11.242   6.056 -0.3619  2.3150  0.0315
 1020MOL0     H34637   6.808  11.328   5.978  1.9488 -2.4177 -0.9691
 1020MOL0     H34638   6.948  10.914   6.102  0.1044  0.4759  0.5829
 1020MOL0     H34639   6.312  11.289   6.424  0.3210 -0.6862 -0.2238
 1020MOL0     H34640   6.083  11.250   6.356  1.1932  2.0877  0.7919
 1021MOL0     O34641  10.233  10.163   4.844  0.0038  0.0082 -0.4418
 1021MOL0     C34642  10.205  10.246   4.928 -0.1311  0.4689 -0.3005
 1021MOL0     O34643  10.218  10.229   5.062 -0.5624 -0.3332 -0.5912
 1021MOL0     C34644  10.288  10.126   5.105 -0.2777 -0.0594  0.6334
 1021MOL0     C34645  10.427  10.148   5.126  0.1729 -0.1638 -0.1502
 1021MOL0     C34646  10.506  10.042   5.162  0.3703  0.0459 -1.7920
 1021MOL0     C34647  10.447   9.919   5.195 -0.4525  0.1546  0.0878
 1021MOL0     O34648  10.540   9.816   5.212  0.5796 -0.4650  0.3246
 1021MOL0     C34649  10.607   9.800   5.340 -0.0005 -0.0234  0.0505
 1021MOL0     C34650  10.714   9.682   5.340  0.5064 -0.5733 -0.6359
 1021MOL0     C34651  10.772   9.669   5.485  0.7410 -0.6543 -0.0925
 1021MOL0     C34652  10.880   9.560   5.506 -0.3430 -0.6628  0.7809
 1021MOL0     C34653  10.925   9.553   5.653 -0.7529 -0.0037 -0.6989
 1021MOL0     C34654  11.014   9.435   5.689 -0.8432 -0.2425 -0.5906
 1021MOL0     C34655  11.160   9.445   5.647 -0.0861 -0.4944  0.3947
 1021MOL0     C34656  11.257   9.518   5.744 -0.3039 -0.4249  0.4400
 1021MOL0     N34657  11.398   9.518   5.699  0.2863  0.2115 -1.1023
 1021MOL0     C34658  11.483   9.410   5.678 -0.1908  0.7701 -0.0215
 1021MOL0     C34659  11.600   9.467   5.658  0.0453  0.0666  0.2631
 1021MOL0     C34660  11.717   9.381   5.624 -0.7665  0.1380  0.3193
 1021MOL0     C34661  11.836   9.370   5.709  0.4505  0.0389 -0.0613
 1021MOL0     C34662  11.824   9.258   5.814 -0.5710 -0.5102  0.5699
 1021MOL0     C34663  11.954   9.269   5.892  0.8703  0.0421 -0.2975
 1021MOL0     O34664  12.079   9.233   5.831 -0.0658  0.3407  0.0070
 1021MOL0     C34665  12.180   9.241   5.917  0.3688  0.4201  0.0347
 1021MOL0     C34666  12.309   9.237   5.854 -0.7164 -0.7333 -0.4962
 1021MOL0     C34667  12.425   9.264   5.934  0.6320 -0.2956  0.7730
 1021MOL0     C34668  12.418   9.288   6.073  0.3097  1.1437 -0.2952
 1021MOL0     C34669  12.532   9.322   6.158  0.3800 -0.1023  0.9220
 1021MOL0     O34670  12.649   9.321   6.095  0.0167  0.0985 -0.3836
 1021MOL0     C34671  12.743   9.405   6.139  0.9245 -1.4267 -0.1333
 1021MOL0     C34672  12.812   9.484   6.043  0.3639  0.2645  0.6530
 1021MOL0     C34673  12.929   9.556   6.072  1.2125  0.4844  0.3543
 1021MOL0     C34674  12.981   9.548   6.198  0.3866 -0.0866 -0.0641
 1021MOL0     O34675  13.098   9.608   6.212 -0.0784  0.4586 -1.2905
 1021MOL0     C34676  13.114   9.708   6.316 -0.2251  0.7709  0.3566
 1021MOL0     C34677  13.217   9.822   6.291 -1.0899 -0.2678  0.2200
 1021MOL0     C34678  13.233   9.895   6.422  0.5882 -0.7197  0.0210
 1021MOL0     C34679  13.353  10.003   6.430 -0.6130 -0.5710  0.0406
 1021MOL0     C34680  13.494   9.941   6.393 -1.1116  0.3732 -0.9055
 1021MOL0     C34681  13.601  10.029   6.433 -0.8334  0.1156  0.1691
 1021MOL0     C34682  13.591  10.158   6.357 -0.4234  0.8132 -0.7307
 1021MOL0     C34683  13.685  10.259   6.391  0.5463 -0.7417  0.4029
 1021MOL0    Cl34684  13.835  10.237   6.306 -0.0322  0.0489  0.2128
 1021MOL0     C34685  12.925   9.462   6.299  0.4165 -0.2352 -0.4114
 1021MOL0     C34686  12.801   9.406   6.268 -0.8922 -0.6966  0.3006
 1021MOL0     O34687  12.507   9.371   6.270  0.3740 -0.3705  0.1051
 1021MOL0     C34688  12.291   9.296   6.134 -0.1419  0.2668  0.5444
 1021MOL0     C34689  12.175   9.267   6.063 -0.2726  0.2408  0.1974
 1021MOL0     N34690  11.599   9.597   5.673  0.3678 -0.5626 -1.1569
 1021MOL0     N34691  11.484   9.627   5.713  0.9306  0.3766 -0.0854
 1021MOL0     C34692  10.309   9.897   5.180 -1.3487  0.0595  0.2392
 1021MOL0     C34693  10.235   9.998   5.136  0.0538 -0.8812  0.3477
 1021MOL0     C34694  10.171  10.385   4.876  0.2496  0.2415  0.3114
 1021MOL0     C34695  10.221  10.496   4.936 -0.2119 -0.0539 -0.3779
 1021MOL0     C34696  10.205  10.616   4.873 -0.4089  0.2591 -0.4191
 1021MOL0     C34697  10.117  10.638   4.762 -0.0829 -0.2214 -0.2508
 1021MOL0     O34698  10.091  10.757   4.699  0.2037 -0.3784 -0.1785
 1021MOL0     C34699  10.182  10.864   4.701 -0.1169 -0.3948 -0.2053
 1021MOL0     C34700  10.163  10.959   4.586 -0.3291 -0.8851  0.2787
 1021MOL0     C34701  10.094  10.896   4.464 -1.1337 -0.4892 -0.0487
 1021MOL0     C34702   9.936  10.909   4.442 -0.9639 -1.5448 -0.9431
 1021MOL0     C34703   9.898  10.900   4.301 -0.0914  0.1592 -0.2878
 1021MOL0     C34704   9.859  10.880   4.191 -0.1257 -0.2740 -0.2140
 1021MOL0     C34705  10.044  10.528   4.720  0.2901  0.2332 -0.5585
 1021MOL0     C34706  10.077  10.402   4.773 -0.1945  0.4135 -0.7477
 1021MOL0     H34707  10.470  10.247   5.126  0.9078 -0.3581  2.9772
 1021MOL0     H34708  10.611  10.063   5.176  0.3209 -0.3395 -0.7576
 1021MOL0     H34709  10.532   9.785   5.417  1.7513  1.2473  2.1184
 1021MOL0     H34710  10.662   9.894   5.353 -1.2044  0.5023  1.6233
 1021MOL0     H34711  10.795   9.705   5.270 -1.2979  3.9464 -1.6330
 1021MOL0     H34712  10.661   9.599   5.293  1.4307 -0.4094 -2.0218
 1021MOL0     H34713  10.693   9.642   5.555  0.5429 -0.2166 -0.1484
 1021MOL0     H34714  10.825   9.760   5.515  0.0760  0.3309 -1.7564
 1021MOL0     H34715  10.842   9.465   5.468 -1.0346  0.3256 -1.1360
 1021MOL0     H34716  10.969   9.589   5.449  0.4527 -1.4372  1.6068
 1021MOL0     H34717  10.842   9.538   5.722 -0.1232  1.7061  0.5085
 1021MOL0     H34718  10.975   9.649   5.674 -1.1491  0.0035  0.2679
 1021MOL0     H34719  10.972   9.341   5.652  0.0726 -1.3174  0.9765
 1021MOL0     H34720  11.021   9.423   5.798  0.1812  3.6615 -0.0664
 1021MOL0     H34721  11.200   9.346   5.622 -2.5986 -1.2969 -0.7831
 1021MOL0     H34722  11.160   9.517   5.564 -1.2603  3.1318  3.2567
 1021MOL0     H34723  11.241   9.476   5.844 -2.2210  0.2888  0.4805
 1021MOL0     H34724  11.217   9.618   5.765 -1.9821 -0.5913 -1.5967
 1021MOL0     H34725  11.458   9.305   5.689 -3.1937  1.5985  2.7945
 1021MOL0     H34726  11.735   9.397   5.517  1.6482 -2.0827  0.2876
 1021MOL0     H34727  11.679   9.279   5.620 -1.0257  0.2138  0.7991
 1021MOL0     H34728  11.855   9.467   5.756 -2.9357 -0.0434  1.8202
 1021MOL0     H34729  11.920   9.360   5.640  0.2366 -0.3431 -0.2741
 1021MOL0     H34730  11.745   9.283   5.885  0.3669 -1.0501  1.8501
 1021MOL0     H34731  11.801   9.163   5.766 -2.1853 -1.7776  3.5541
 1021MOL0     H34732  11.934   9.205   5.979  1.8392  1.3862  0.9673
 1021MOL0     H34733  11.953   9.370   5.935 -3.7867  0.2011 -0.1721
 1021MOL0     H34734  12.320   9.216   5.748  1.1381  0.1992 -0.5335
 1021MOL0     H34735  12.522   9.263   5.885  0.1516 -2.7410 -0.2844
 1021MOL0     H34736  12.770   9.497   5.944 -2.9765  0.0346  1.9258
 1021MOL0     H34737  12.981   9.607   5.991  0.1477  4.7829  2.0594
 1021MOL0     H34738  13.135   9.646   6.404 -0.0271 -0.6806 -0.6660
 1021MOL0     H34739  13.020   9.758   6.339 -0.3139  1.6473 -1.6931
 1021MOL0     H34740  13.188   9.899   6.220 -3.0329 -0.9941  0.1655
 1021MOL0     H34741  13.308   9.775   6.255 -0.3615  2.4989 -1.8408
 1021MOL0     H34742  13.249   9.835   6.513 -0.0488  0.2032  0.7576
 1021MOL0     H34743  13.143   9.953   6.442  1.0619  0.2241 -0.5002
 1021MOL0     H34744  13.330  10.094   6.375 -1.0157  2.0280  4.1118
 1021MOL0     H34745  13.367  10.031   6.535 -0.6498 -2.8438  0.7218
 1021MOL0     H34746  13.506   9.927   6.285  1.9299 -1.4826 -0.4747
 1021MOL0     H34747  13.508   9.842   6.436  0.0617  1.0621  0.4058
 1021MOL0     H34748  13.693   9.973   6.415  0.4096  2.6330 -2.1082
 1021MOL0     H34749  13.595  10.059   6.538  3.6940  4.1105 -0.3632
 1021MOL0     H34750  13.587  10.140   6.250  1.6730 -0.6665 -0.6290
 1021MOL0     H34751  13.501  10.214   6.383 -1.3633 -1.0410  0.2222
 1021MOL0     H34752  13.699  10.274   6.498 -1.4416  1.3186  0.4313
 1021MOL0     H34753  13.655  10.360   6.362  1.1669 -1.3578 -2.8150
 1021MOL0     H34754  12.980   9.440   6.390  0.9353 -3.3447 -1.3356
 1021MOL0     H34755  12.760   9.346   6.348 -2.0456 -2.6840 -1.6670
 1021MOL0     H34756  12.286   9.321   6.239  4.0078  4.5739  0.0539
 1021MOL0     H34757  12.077   9.273   6.109  0.5542 -0.6877  2.1996
 1021MOL0     H34758  10.276   9.794   5.193  0.6088 -0.5282  0.9029
 1021MOL0     H34759  10.128   9.995   5.122 -0.2419  4.3491 -0.6003
 1021MOL0     H34760  10.265  10.485   5.035 -1.0538 -0.7028 -0.0636
 1021MOL0     H34761  10.259  10.693   4.927 -1.6983 -2.6295  5.8409
 1021MOL0     H34762  10.277  10.814   4.681  0.3109 -0.5579  2.0546
 1021MOL0     H34763  10.174  10.930   4.787  2.7326  0.1299 -0.2463
 1021MOL0     H34764  10.090  11.034   4.617 -1.6921 -1.8029 -0.5655
 1021MOL0     H34765  10.263  10.990   4.555 -0.7070  0.3231  0.2214
 1021MOL0     H34766  10.134  10.794   4.462  1.6919  0.4510  1.9016
 1021MOL0     H34767  10.130  10.949   4.375 -2.1085 -2.1629 -1.5236
 1021MOL0     H34768   9.887  10.828   4.496  1.8333 -2.8370 -0.1380
 1021MOL0     H34769   9.908  11.006   4.484  0.2911 -2.2266  1.6383
 1021MOL0     H34770   9.836  10.866   4.088  0.4014 -0.5764 -0.2887
 1021MOL0     H34771   9.957  10.522   4.654  1.5480  1.5185 -2.4304
 1021MOL0     H34772  10.023  10.312   4.745  2.1548 -0.6230 -2.1836
 1022MOL0     O34773   1.600   7.125   1.899 -0.2334  0.2015 -0.5609
 1022MOL0     C34774   1.671   7.152   1.995  0.2163 -0.0441 -0.2167
 1022MOL0     O34775   1.677   7.264   2.054  0.0533 -0.1361 -1.5918
 1022MOL0     C34776   1.599   7.374   2.026  1.0187  0.2861  0.2448
 1022MOL0     C34777   1.558   7.421   1.900  0.1203 -0.3550 -0.4965
 1022MOL0     C34778   1.475   7.523   1.888 -0.3162  0.1615 -0.0595
 1022MOL0     C34779   1.425   7.589   2.004  0.5676  1.2103  0.4146
 1022MOL0     O34780   1.337   7.690   2.003  1.2486  0.3148 -0.0544
 1022MOL0     C34781   1.257   7.717   1.877 -0.4828  0.0300 -1.1481
 1022MOL0     C34782   1.124   7.787   1.904  0.0801  0.0699 -0.7757
 1022MOL0     C34783   1.065   7.879   1.801 -0.8648  0.2331 -0.5296
 1022MOL0     C34784   1.003   8.010   1.854 -0.0075  0.4198  0.7518
 1022MOL0     C34785   1.105   8.106   1.919  0.3594 -0.1876 -0.5437
 1022MOL0     C34786   1.101   8.244   1.877  1.2057 -0.0829 -0.6960
 1022MOL0     C34787   0.965   8.311   1.909 -0.9980 -0.5400 -0.5489
 1022MOL0     C34788   0.961   8.349   2.063 -0.1828  0.7218  0.7989
 1022MOL0     N34789   0.848   8.440   2.097 -0.4220  0.3266  0.5640
 1022MOL0     C34790   0.740   8.471   2.028 -0.8098 -0.6210  0.5779
 1022MOL0     C34791   0.691   8.581   2.096 -0.2688  0.5717 -0.7703
 1022MOL0     C34792   0.571   8.648   2.068 -0.4210  0.3123 -0.2864
 1022MOL0     C34793   0.565   8.809   2.079 -0.2527  0.5941  0.2450
 1022MOL0     C34794   0.561   8.855   2.230 -0.3551  0.3733  0.0675
 1022MOL0     C34795   0.444   8.809   2.313 -0.5155 -0.8961 -0.0771
 1022MOL0     O34796   0.409   8.904   2.406 -0.0962 -0.4506 -0.0284
 1022MOL0     C34797   0.269   8.899   2.437  0.2953 -0.4775 -0.2556
 1022MOL0     C34798   0.202   9.017   2.446  0.9956  0.2062  0.1140
 1022MOL0     C34799   0.066   9.027   2.493 -0.3640 -0.4022  0.2585
 1022MOL0     C34800  -0.000   8.906   2.511  0.3554 -0.4418 -0.5276
 1022MOL0     C34801  -0.146   8.904   2.550 -0.1425  0.1739 -0.0699
 1022MOL0     O34802  -0.207   8.779   2.566 -0.5977  0.8511  0.2943
 1022MOL0     C34803  -0.338   8.762   2.611  0.5738  0.1867  0.6194
 1022MOL0     C34804  -0.359   8.674   2.716 -0.5400  0.0939  0.0850
 1022MOL0     C34805  -0.473   8.669   2.789  0.0641 -0.6557 -0.4280
 1022MOL0     C34806  -0.579   8.750   2.757  0.0208  0.2826  0.4995
 1022MOL0     O34807  -0.693   8.740   2.834  0.2703 -0.1314  0.1717
 1022MOL0     C34808  -0.820   8.767   2.770 -0.3733 -0.4758  0.4566
 1022MOL0     C34809  -0.940   8.719   2.848  0.6265 -0.1097  0.4408
 1022MOL0     C34810  -0.971   8.566   2.833 -0.4334 -0.0918  0.0584
 1022MOL0     C34811  -1.110   8.534   2.885  0.4497  0.4184  0.4017
 1022MOL0     C34812  -1.132   8.558   3.034  0.0500 -0.3385  0.2763
 1022MOL0     C34813  -1.281   8.545   3.084  0.0706 -0.0718 -0.2136
 1022MOL0     C34814  -1.293   8.505   3.233  0.3543  0.7271  0.1420
 1022MOL0     C34815  -1.200   8.567   3.333  0.0641 -0.1367 -0.7531
 1022MOL0    Cl34816  -1.246   8.734   3.351 -0.1542 -0.1195 -0.2512
 1022MOL0     C34817  -0.566   8.826   2.634  0.6368  0.1081 -1.6142
 1022MOL0     C34818  -0.445   8.840   2.572 -0.9519  0.5623 -0.3800
 1022MOL0     O34819  -0.197   9.005   2.589  0.9143  0.2156 -0.2434
 1022MOL0     C34820   0.065   8.779   2.482  0.9531  0.3983 -1.1512
 1022MOL0     C34821   0.198   8.776   2.454 -0.9765 -0.2816 -0.1976
 1022MOL0     N34822   0.774   8.601   2.207 -0.7974 -0.7076 -0.0855
 1022MOL0     N34823   0.860   8.512   2.205 -0.8146  0.1413  0.4607
 1022MOL0     C34824   1.460   7.539   2.133  1.4404 -1.0058  0.2144
 1022MOL0     C34825   1.552   7.435   2.142  0.3876  0.5126  0.4897
 1022MOL0     C34826   1.767   7.045   2.041  0.1660  0.9505  0.0962
 1022MOL0     C34827   1.797   6.929   1.959 -0.5793 -0.5543 -0.4253
 1022MOL0     C34828   1.891   6.836   2.009 -0.0038  0.1466 -0.8111
 1022MOL0     C34829   1.939   6.835   2.141 -0.7077  0.1868 -0.1839
 1022MOL0     O34830   1.985   6.732   2.198 -0.4419  1.0735  0.0342
 1022MOL0     C34831   1.904   6.668   2.293  1.6119  1.4391 -0.5991
 1022MOL0     C34832   1.796   6.554   2.239 -0.3796  0.2712  0.4972
 1022MOL0     C34833   1.719   6.481   2.352 -0.5404 -0.1858 -0.8983
 1022MOL0     C34834   1.569   6.483   2.350  0.1126 -0.1185  0.3962
 1022MOL0     C34835   1.533   6.423   2.479 -0.4304 -0.3405 -0.1034
 1022MOL0     C34836   1.492   6.354   2.575 -0.2666  0.5464  0.2911
 1022MOL0     C34837   1.928   6.957   2.209 -0.2504  0.4471 -0.5069
 1022MOL0     C34838   1.828   7.051   2.164 -0.9654  1.0731 -0.2402
 1022MOL0     H34839   1.604   7.369   1.816  1.3025  0.8205 -0.6160
 1022MOL0     H34840   1.449   7.540   1.784  2.7974  2.8816 -0.5581
 1022MOL0     H34841   1.238   7.625   1.821  2.4064 -0.6340 -1.1617
 1022MOL0     H34842   1.315   7.785   1.813 -0.9739  2.8432  1.1580
 1022MOL0     H34843   1.139   7.845   1.996 -1.5069 -0.9711  0.1891
 1022MOL0     H34844   1.047   7.720   1.942 -0.3784  0.0323 -1.7479
 1022MOL0     H34845   0.983   7.820   1.758 -2.8247 -0.5677  3.8266
 1022MOL0     H34846   1.138   7.893   1.721  1.8081 -0.4670  1.6448
 1022MOL0     H34847   0.956   8.059   1.768 -3.2712  0.3509  2.3375
 1022MOL0     H34848   0.919   7.995   1.922 -0.8865 -1.8415 -0.7194
 1022MOL0     H34849   1.207   8.072   1.899  1.0287  1.0674  0.6035
 1022MOL0     H34850   1.094   8.096   2.027  2.1266 -2.0293 -0.4734
 1022MOL0     H34851   1.109   8.225   1.769 -0.5402 -1.7610 -0.5916
 1022MOL0     H34852   1.181   8.305   1.919 -1.3512  1.1699  2.7998
 1022MOL0     H34853   0.953   8.399   1.844  1.3307  0.7578  0.6694
 1022MOL0     H34854   0.893   8.233   1.882  1.5496 -3.6336  0.9773
 1022MOL0     H34855   1.051   8.411   2.072  1.4210 -1.1933 -0.9932
 1022MOL0     H34856   0.969   8.251   2.112  1.0288 -0.0934 -0.9286
 1022MOL0     H34857   0.697   8.415   1.945 -1.8040  1.8822 -0.6907
 1022MOL0     H34858   0.484   8.610   2.122 -0.4311  0.4554 -0.1999
 1022MOL0     H34859   0.550   8.631   1.962 -3.8062 -0.8983  0.4521
 1022MOL0     H34860   0.474   8.847   2.032  1.4373  1.4191 -2.5822
 1022MOL0     H34861   0.655   8.843   2.027  1.5296 -2.0411  1.4174
 1022MOL0     H34862   0.651   8.816   2.278 -0.4871  0.7540  0.6283
 1022MOL0     H34863   0.582   8.962   2.236 -4.4804  1.3416  0.1504
 1022MOL0     H34864   0.472   8.712   2.356  0.2609 -0.7435 -0.2150
 1022MOL0     H34865   0.365   8.791   2.240 -1.9826  0.1074  1.1857
 1022MOL0     H34866   0.263   9.106   2.430  1.4728  0.3946  2.5589
 1022MOL0     H34867   0.011   9.120   2.489 -4.1219 -2.3888  0.4467
 1022MOL0     H34868  -0.272   8.614   2.738 -0.6406  0.8330  2.8660
 1022MOL0     H34869  -0.491   8.594   2.865 -3.5857 -0.2523 -0.7067
 1022MOL0     H34870  -0.816   8.734   2.666  0.6852 -3.4070  1.3105
 1022MOL0     H34871  -0.831   8.875   2.760  1.3744 -0.3451 -0.3787
 1022MOL0     H34872  -1.024   8.773   2.803  1.1514  2.1234  2.0185
 1022MOL0     H34873  -0.945   8.748   2.953 -3.1043  1.5825 -0.0277
 1022MOL0     H34874  -0.887   8.514   2.881  1.0552  0.1259 -2.1414
 1022MOL0     H34875  -0.964   8.549   2.725  0.5622 -1.9052  0.3619
 1022MOL0     H34876  -1.187   8.583   2.825  0.6218 -1.3193 -1.3244
 1022MOL0     H34877  -1.109   8.426   2.863 -0.9346  0.5535 -0.4673
 1022MOL0     H34878  -1.105   8.652   3.082 -0.0651  1.6399 -3.1490
 1022MOL0     H34879  -1.072   8.489   3.093  0.8864 -0.1907 -0.3804
 1022MOL0     H34880  -1.343   8.477   3.025 -2.0849  0.0277  1.7918
 1022MOL0     H34881  -1.321   8.646   3.074 -4.5123 -1.7876 -1.4979
 1022MOL0     H34882  -1.394   8.519   3.272 -0.4599 -2.2946 -0.6049
 1022MOL0     H34883  -1.277   8.396   3.232 -2.9029  0.0659 -3.5411
 1022MOL0     H34884  -1.097   8.562   3.297  0.6794  0.8869  0.7577
 1022MOL0     H34885  -1.207   8.525   3.434 -2.3246  4.1642  1.1953
 1022MOL0     H34886  -0.654   8.879   2.597  0.5738  2.5161  1.5814
 1022MOL0     H34887  -0.447   8.911   2.490 -4.3961  1.0459 -0.0528
 1022MOL0     H34888   0.009   8.691   2.452 -1.7864  1.6144  0.0663
 1022MOL0     H34889   0.251   8.683   2.435  2.8134  1.5384  0.4703
 1022MOL0     H34890   1.403   7.571   2.219 -1.9219  0.8306 -2.4398
 1022MOL0     H34891   1.586   7.393   2.236  0.0375 -1.3633 -0.1866
 1022MOL0     H34892   1.761   6.920   1.857  0.0428  0.1095 -0.7102
 1022MOL0     H34893   1.920   6.749   1.950  0.8678 -1.3373  1.6724
 1022MOL0     H34894   1.855   6.747   2.351  0.9964  2.1313 -2.0009
 1022MOL0     H34895   1.971   6.617   2.362  3.4252 -0.4098 -3.4959
 1022MOL0     H34896   1.717   6.610   2.187  2.1559  3.1022 -0.6216
 1022MOL0     H34897   1.838   6.485   2.165 -2.6173 -2.6811  1.7645
 1022MOL0     H34898   1.746   6.533   2.444 -2.5533 -0.9234  0.1671
 1022MOL0     H34899   1.765   6.382   2.365  0.9696  0.3087 -2.1476
 1022MOL0     H34900   1.526   6.584   2.344 -0.8882 -0.5114  0.7151
 1022MOL0     H34901   1.530   6.417   2.272  0.0248 -0.0508  0.3820
 1022MOL0     H34902   1.452   6.286   2.648 -1.6574 -1.5983 -2.3017
 1022MOL0     H34903   1.976   6.958   2.307  2.0637 -3.1254 -1.4208
 1022MOL0     H34904   1.795   7.130   2.231  0.2811 -0.7439  2.7044
 1023MOL0     O34905   0.275   7.573   3.458  0.1285  0.4213 -0.7450
 1023MOL0     C34906   0.179   7.562   3.387  0.2631  1.1082  0.2445
 1023MOL0     O34907   0.128   7.445   3.343  0.2824 -0.0350 -0.1669
 1023MOL0     C34908   0.140   7.321   3.405  0.0582 -0.3198  1.2229
 1023MOL0     C34909   0.100   7.201   3.342  0.1318 -0.2048  0.0706
 1023MOL0     C34910   0.107   7.079   3.408 -0.6264  0.2874  0.6528
 1023MOL0     C34911   0.146   7.071   3.539 -0.4859 -0.4625 -0.4025
 1023MOL0     O34912   0.132   6.941   3.598 -0.6313 -0.2096 -0.0157
 1023MOL0     C34913   0.155   6.909   3.739  0.7431  0.3356  0.2608
 1023MOL0     C34914   0.103   6.763   3.761  0.2092 -0.2566  0.6787
 1023MOL0     C34915  -0.054   6.762   3.756 -0.9363 -0.1156 -0.4030
 1023MOL0     C34916  -0.113   6.622   3.784 -0.1287 -0.4383  0.4860
 1023MOL0     C34917  -0.044   6.497   3.727  0.4597 -0.4691  0.0016
 1023MOL0     C34918  -0.125   6.373   3.710  0.0150 -0.8592  0.2308
 1023MOL0     C34919  -0.054   6.267   3.638 -0.3242 -0.3616 -0.5266
 1023MOL0     C34920  -0.145   6.144   3.633 -0.7005 -0.6409  0.3115
 1023MOL0     N34921  -0.074   6.046   3.549 -0.0091 -0.0163 -0.4144
 1023MOL0     C34922  -0.041   5.914   3.592  0.1883  1.2114  0.8325
 1023MOL0     C34923  -0.022   5.847   3.475 -0.0770 -0.5220 -0.3557
 1023MOL0     C34924   0.018   5.702   3.484  0.1912  0.0837 -0.5991
 1023MOL0     C34925   0.172   5.685   3.502  0.4960 -0.7263  0.0097
 1023MOL0     C34926   0.254   5.647   3.378  0.1031 -0.6572  0.3554
 1023MOL0     C34927   0.239   5.734   3.245 -0.5324  1.0125  0.0365
 1023MOL0     O34928   0.369   5.739   3.168 -0.6019  0.5818  0.6450
 1023MOL0     C34929   0.431   5.620   3.138 -0.4060 -0.7474 -0.1434
 1023MOL0     C34930   0.518   5.570   3.232 -1.0411 -0.6246 -0.1480
 1023MOL0     C34931   0.589   5.447   3.208 -0.1922 -0.7225  0.3173
 1023MOL0     C34932   0.560   5.378   3.089  0.6334 -0.6263 -0.5505
 1023MOL0     C34933   0.630   5.255   3.066 -0.0840 -1.7067 -0.1791
 1023MOL0     O34934   0.586   5.186   2.953  0.1505 -0.4386  0.0710
 1023MOL0     C34935   0.620   5.051   2.928  0.3150 -0.1705 -0.3630
 1023MOL0     C34936   0.632   4.948   3.024 -0.0157 -0.1247 -0.3722
 1023MOL0     C34937   0.623   4.813   2.992  0.7838  0.2035 -0.3074
 1023MOL0     C34938   0.611   4.776   2.861 -0.2698 -0.3638  0.2043
 1023MOL0     O34939   0.601   4.643   2.830  0.3413  0.0169 -0.3476
 1023MOL0     C34940   0.701   4.572   2.766  1.1392  0.1309 -0.7302
 1023MOL0     C34941   0.845   4.559   2.831 -0.6454  0.1944 -0.1021
 1023MOL0     C34942   0.929   4.461   2.746 -0.8756 -0.0331 -0.1749
 1023MOL0     C34943   1.077   4.452   2.792 -0.0419  0.2678  0.0595
 1023MOL0     C34944   1.165   4.345   2.735  0.3203  0.0444  0.0036
 1023MOL0     C34945   1.315   4.363   2.768  0.0163 -0.3405  0.1770
 1023MOL0     C34946   1.387   4.248   2.700  0.1873 -0.5348 -0.2795
 1023MOL0     C34947   1.537   4.225   2.749 -0.2333 -0.2546  0.2834
 1023MOL0    Cl34948   1.623   4.101   2.632  0.0178  0.1259  0.1324
 1023MOL0     C34949   0.605   4.877   2.753  0.5708 -0.7898  0.3993
 1023MOL0     C34950   0.605   5.016   2.789  0.6457  0.4564  0.2731
 1023MOL0     O34951   0.719   5.223   3.145 -0.7545 -0.2476  0.5767
 1023MOL0     C34952   0.459   5.425   3.001  0.2417  0.8608  0.2595
 1023MOL0     C34953   0.397   5.548   3.032  0.7833  0.1733  0.5159
 1023MOL0     N34954  -0.053   5.935   3.371  0.6906  0.8921 -0.2801
 1023MOL0     N34955  -0.082   6.058   3.411 -0.6134 -0.2098  0.6505
 1023MOL0     C34956   0.184   7.193   3.600 -0.3476  0.7765 -0.2200
 1023MOL0     C34957   0.184   7.315   3.538  0.4570  0.1368 -0.9329
 1023MOL0     C34958   0.116   7.691   3.343  0.4232 -0.2380  0.0138
 1023MOL0     C34959   0.007   7.690   3.251  0.1030  0.0077  0.4438
 1023MOL0     C34960  -0.046   7.814   3.207  0.3391  0.8886  0.0584
 1023MOL0     C34961  -0.003   7.938   3.266  0.3879  0.7038 -0.2980
 1023MOL0     O34962  -0.048   8.062   3.242 -0.5671 -0.3006  0.3769
 1023MOL0     C34963  -0.163   8.089   3.166  0.8569 -0.4569 -0.7403
 1023MOL0     C34964  -0.166   8.239   3.127  0.4103  0.7513 -0.0764
 1023MOL0     C34965  -0.305   8.282   3.070  0.5712  0.1950  0.3712
 1023MOL0     C34966  -0.330   8.241   2.925  0.0835 -0.3883  0.5529
 1023MOL0     C34967  -0.456   8.292   2.868 -0.9454  0.1725 -0.4735
 1023MOL0     C34968  -0.561   8.331   2.828 -0.4130  0.3382  1.0415
 1023MOL0     C34969   0.119   7.933   3.337  0.4017 -0.6317  0.1131
 1023MOL0     C34970   0.178   7.813   3.385  0.1271  0.4725  0.2446
 1023MOL0     H34971   0.078   7.202   3.236  1.4660 -2.7884 -0.3024
 1023MOL0     H34972   0.090   6.987   3.354  3.3445  0.4405 -1.1777
 1023MOL0     H34973   0.094   6.979   3.797  2.1006  1.3559  0.5068
 1023MOL0     H34974   0.260   6.910   3.767  0.2704 -4.9889  3.5305
 1023MOL0     H34975   0.143   6.730   3.857  5.0877 -0.9575 -1.3101
 1023MOL0     H34976   0.150   6.691   3.694  2.0553  1.6640 -0.2270
 1023MOL0     H34977  -0.102   6.799   3.665  0.7992 -1.1591 -1.8079
 1023MOL0     H34978  -0.096   6.840   3.820  1.5636 -0.6107  2.0722
 1023MOL0     H34979  -0.135   6.610   3.890 -3.9625 -0.9074 -0.2446
 1023MOL0     H34980  -0.210   6.619   3.734  0.1300 -1.3751  0.0306
 1023MOL0     H34981   0.048   6.473   3.781  1.0441  2.3414  0.3995
 1023MOL0     H34982  -0.007   6.522   3.627 -1.7536  1.2682 -0.4616
 1023MOL0     H34983  -0.208   6.399   3.643  3.2383  0.8585 -3.5321
 1023MOL0     H34984  -0.159   6.329   3.804 -1.2243 -1.6292 -0.5399
 1023MOL0     H34985  -0.014   6.310   3.545  2.9809  2.7547  2.0376
 1023MOL0     H34986   0.025   6.246   3.711 -0.1385  2.4029  0.1986
 1023MOL0     H34987  -0.241   6.168   3.586 -0.8326  0.3034  1.0444
 1023MOL0     H34988  -0.167   6.106   3.733 -0.1517  2.6175  1.7847
 1023MOL0     H34989  -0.040   5.891   3.698  2.1143  0.3883  0.6717
 1023MOL0     H34990  -0.015   5.649   3.394 -2.5910  3.2776 -1.6935
 1023MOL0     H34991  -0.038   5.647   3.559 -1.7175  1.3150 -1.0601
 1023MOL0     H34992   0.181   5.603   3.573  0.4010 -0.8007 -0.0639
 1023MOL0     H34993   0.209   5.777   3.549  2.0850 -0.8052 -1.0065
 1023MOL0     H34994   0.356   5.651   3.415  0.0340  0.2831  0.4900
 1023MOL0     H34995   0.230   5.544   3.353 -2.6836 -0.7254  2.7102
 1023MOL0     H34996   0.204   5.836   3.260  1.9463  1.7790  1.0979
 1023MOL0     H34997   0.160   5.694   3.181 -2.4693  2.3343  1.5034
 1023MOL0     H34998   0.563   5.624   3.315  2.5964 -3.0365 -0.2937
 1023MOL0     H34999   0.668   5.422   3.278 -1.3118 -1.1695  1.4676
 1023MOL0     H35000   0.641   4.982   3.127 -0.3480  1.9350 -0.9873
 1023MOL0     H35001   0.623   4.734   3.067 -2.9905  0.2518 -0.0710
 1023MOL0     H35002   0.708   4.604   2.661 -2.0538 -1.7800 -1.6846
 1023MOL0     H35003   0.662   4.470   2.754 -1.1933  0.8542  0.0561
 1023MOL0     H35004   0.827   4.517   2.930 -1.3047 -3.4854 -1.6247
 1023MOL0     H35005   0.911   4.646   2.833  3.4193 -2.5101 -1.7566
 1023MOL0     H35006   0.928   4.477   2.637 -1.4479 -0.5081 -0.2482
 1023MOL0     H35007   0.878   4.365   2.757  1.5313 -1.1606  2.2113
 1023MOL0     H35008   1.114   4.550   2.760 -2.8017  1.4980  0.3663
 1023MOL0     H35009   1.085   4.448   2.901  2.9436 -0.5568 -0.0925
 1023MOL0     H35010   1.156   4.354   2.626  3.0528 -2.4879 -0.5523
 1023MOL0     H35011   1.134   4.245   2.767  3.5863 -0.6022  1.5932
 1023MOL0     H35012   1.329   4.373   2.876 -0.9268  1.9737  0.1553
 1023MOL0     H35013   1.354   4.451   2.716 -2.1545  1.0844  0.7752
 1023MOL0     H35014   1.322   4.161   2.718 -0.7167  0.2359  0.2729
 1023MOL0     H35015   1.396   4.278   2.596 -0.5033  1.6214  0.2301
 1023MOL0     H35016   1.534   4.187   2.852  1.4611 -1.0057  0.0793
 1023MOL0     H35017   1.599   4.314   2.740 -3.2321  2.0084  0.1812
 1023MOL0     H35018   0.590   4.847   2.650 -1.7997 -0.7115  0.6667
 1023MOL0     H35019   0.588   5.083   2.706 -0.1585 -2.0083 -1.6602
 1023MOL0     H35020   0.432   5.368   2.913  1.4389  0.1448  0.3277
 1023MOL0     H35021   0.322   5.574   2.958  0.8478 -4.1663 -1.3645
 1023MOL0     H35022   0.207   7.182   3.706  0.2265 -3.2049 -0.5845
 1023MOL0     H35023   0.202   7.405   3.597  1.9486 -1.1392  0.6577
 1023MOL0     H35024  -0.039   7.597   3.220  2.2941 -1.4642  1.3927
 1023MOL0     H35025  -0.131   7.820   3.140 -0.0414 -0.5786  0.3609
 1023MOL0     H35026  -0.240   8.055   3.235  1.2616 -1.6670 -0.8536
 1023MOL0     H35027  -0.161   8.019   3.082  0.1337 -3.3606  1.5188
 1023MOL0     H35028  -0.121   8.294   3.210  1.3160  1.9247 -1.3077
 1023MOL0     H35029  -0.096   8.239   3.043 -1.6388 -0.6352 -1.8934
 1023MOL0     H35030  -0.312   8.390   3.082  1.4400  0.3946 -0.6668
 1023MOL0     H35031  -0.384   8.239   3.132  1.9467 -2.5099  0.4159
 1023MOL0     H35032  -0.245   8.284   2.872  0.3490 -1.1016  0.3858
 1023MOL0     H35033  -0.321   8.133   2.914  2.6893 -0.0708 -1.5395
 1023MOL0     H35034  -0.656   8.342   2.779  0.6987  0.4636 -1.2138
 1023MOL0     H35035   0.175   8.021   3.365  4.2788 -2.4408 -1.2895
 1023MOL0     H35036   0.277   7.813   3.429 -0.1716 -2.8279  1.2176
 1024MOL0     O35037   7.425   3.371   8.885 -0.3975  0.1913  0.7303
 1024MOL0     C35038   7.431   3.307   8.993  0.1777 -0.5679 -0.1784
 1024MOL0     O35039   7.335   3.310   9.090 -0.1393 -0.1792  0.4705
 1024MOL0     C35040   7.207   3.363   9.076 -0.1044 -0.9171  0.6188
 1024MOL0     C35041   7.112   3.313   9.168  1.1591 -0.1590  0.1934
 1024MOL0     C35042   6.975   3.337   9.166 -0.1885 -0.1245 -0.4726
 1024MOL0     C35043   6.922   3.418   9.063  1.1095  0.2465 -0.4793
 1024MOL0     O35044   6.783   3.444   9.058  0.5010 -0.6364 -0.3004
 1024MOL0     C35045   6.719   3.465   9.187 -0.2892  0.0749  0.5435
 1024MOL0     C35046   6.577   3.500   9.158  0.2971 -0.3748 -0.2794
 1024MOL0     C35047   6.498   3.549   9.278 -0.0467  0.5403  0.2419
 1024MOL0     C35048   6.348   3.567   9.243  1.0115 -0.6831 -0.0711
 1024MOL0     C35049   6.318   3.637   9.116 -0.3038 -0.4272  0.8840
 1024MOL0     C35050   6.375   3.779   9.096 -0.5924 -0.2244 -0.5868
 1024MOL0     C35051   6.348   3.823   8.946  0.0935 -0.3019  0.1397
 1024MOL0     C35052   6.398   3.960   8.938 -0.1085 -0.0314 -0.2836
 1024MOL0     N35053   6.375   4.010   8.810 -0.5865 -0.0116 -0.2999
 1024MOL0     C35054   6.447   3.980   8.690 -0.3148 -0.2780 -0.3951
 1024MOL0     C35055   6.387   4.053   8.595  0.4051 -0.0005 -0.5273
 1024MOL0     C35056   6.402   4.057   8.447 -0.5700  0.5248  1.1237
 1024MOL0     C35057   6.486   4.168   8.378  0.9163 -0.2461 -0.3051
 1024MOL0     C35058   6.400   4.287   8.331 -0.0645 -0.5149  0.0758
 1024MOL0     C35059   6.472   4.361   8.219  0.4064  0.0757  0.3164
 1024MOL0     O35060   6.580   4.436   8.273  0.3352  0.1206 -0.7220
 1024MOL0     C35061   6.694   4.452   8.198 -1.0889 -0.2808 -0.4832
 1024MOL0     C35062   6.796   4.525   8.266  0.8671 -0.4281  0.8667
 1024MOL0     C35063   6.908   4.565   8.196  1.4551 -0.3115  0.2611
 1024MOL0     C35064   6.925   4.527   8.055  0.5536  0.4025 -0.5004
 1024MOL0     C35065   7.042   4.585   7.978  0.5111  0.3472 -0.4720
 1024MOL0     O35066   7.062   4.542   7.844  0.4382  0.0806  0.4561
 1024MOL0     C35067   7.160   4.601   7.762 -1.4310  0.2129 -0.5050
 1024MOL0     C35068   7.280   4.662   7.803  0.0260 -1.0249 -0.2098
 1024MOL0     C35069   7.377   4.700   7.702 -0.4103 -0.2819  0.2060
 1024MOL0     C35070   7.363   4.683   7.564  0.8396  0.0432 -0.1305
 1024MOL0     O35071   7.452   4.714   7.469  0.2768  0.2688 -0.0161
 1024MOL0     C35072   7.577   4.779   7.498  0.1142  0.4088  0.4767
 1024MOL0     C35073   7.600   4.874   7.388 -0.0837  0.6306  0.4681
 1024MOL0     C35074   7.647   4.822   7.248 -0.3551 -0.2146  0.0452
 1024MOL0     C35075   7.709   4.685   7.245  0.6059  0.1964  0.2061
 1024MOL0     C35076   7.860   4.674   7.296  0.2163  0.6645  0.2444
 1024MOL0     C35077   7.937   4.591   7.192 -1.2693  0.2516  0.8500
 1024MOL0     C35078   7.957   4.642   7.050 -0.0059 -0.1892 -0.5141
 1024MOL0     C35079   8.049   4.766   7.039  0.0502 -0.5527 -0.6713
 1024MOL0    Cl35080   8.173   4.747   6.925 -0.2513 -0.1048 -0.1039
 1024MOL0     C35081   7.235   4.634   7.527 -0.1118 -0.4691  0.1481
 1024MOL0     C35082   7.135   4.597   7.624 -0.7016  0.1688 -0.0490
 1024MOL0     O35083   7.109   4.668   8.044  0.9245  0.5100  0.4764
 1024MOL0     C35084   6.829   4.442   8.006  0.2411  0.4636 -0.6021
 1024MOL0     C35085   6.711   4.406   8.070 -0.0393 -0.3367  0.4274
 1024MOL0     N35086   6.285   4.119   8.653  0.4630  0.4724 -0.6482
 1024MOL0     N35087   6.273   4.092   8.777 -0.0325  0.2063 -0.9196
 1024MOL0     C35088   7.011   3.465   8.967  0.3286  0.2688  0.6720
 1024MOL0     C35089   7.147   3.444   8.968 -0.4602 -0.8010  0.0852
 1024MOL0     C35090   7.565   3.254   9.030  0.7196 -0.1111  0.3912
 1024MOL0     C35091   7.569   3.189   9.151 -0.5271 -0.0869 -0.3863
 1024MOL0     C35092   7.701   3.139   9.190  0.6707 -0.4213  0.0062
 1024MOL0     C35093   7.814   3.158   9.114  0.1960 -0.5381  0.1606
 1024MOL0     O35094   7.936   3.094   9.140  0.5366  0.1331  0.3227
 1024MOL0     C35095   7.926   2.992   9.238  0.2893 -0.0684  0.1150
 1024MOL0     C35096   8.062   2.921   9.251 -0.4363  0.2384 -0.3709
 1024MOL0     C35097   8.037   2.799   9.335  0.0730 -1.2384 -1.0607
 1024MOL0     C35098   8.003   2.828   9.477 -0.1537  0.2117 -0.5242
 1024MOL0     C35099   8.050   2.706   9.547  0.2179 -0.7311 -1.0693
 1024MOL0     C35100   8.075   2.605   9.613  0.4233 -0.2721  0.5258
 1024MOL0     C35101   7.813   3.239   9.000 -0.0025  0.6722  0.3207
 1024MOL0     C35102   7.686   3.281   8.948 -0.8888  0.9182 -0.0612
 1024MOL0     H35103   7.144   3.266   9.260 -0.3444 -1.4531  0.1112
 1024MOL0     H35104   6.922   3.293   9.250  1.5138  0.5013  1.0064
 1024MOL0     H35105   6.767   3.545   9.245 -0.4379  1.7796 -1.5492
 1024MOL0     H35106   6.704   3.366   9.230  0.0203 -1.1653 -1.9909
 1024MOL0     H35107   6.518   3.415   9.123 -0.8236  0.7309 -1.1458
 1024MOL0     H35108   6.586   3.579   9.083 -1.6512  1.2348  1.0706
 1024MOL0     H35109   6.540   3.647   9.302  3.4693 -0.4515 -1.2286
 1024MOL0     H35110   6.501   3.477   9.361  0.5290 -1.0656 -1.1362
 1024MOL0     H35111   6.293   3.473   9.244 -0.1594 -0.0221  1.6899
 1024MOL0     H35112   6.311   3.639   9.316  1.9426 -0.1543 -0.0980
 1024MOL0     H35113   6.209   3.642   9.114 -0.2385  1.3834 -1.0851
 1024MOL0     H35114   6.346   3.568   9.036 -1.5518 -0.7443  0.6879
 1024MOL0     H35115   6.481   3.790   9.123 -1.4232  1.1175  2.6976
 1024MOL0     H35116   6.335   3.858   9.160 -0.6668  0.2094 -1.1599
 1024MOL0     H35117   6.401   3.759   8.875  0.2777 -0.0611  0.0581
 1024MOL0     H35118   6.240   3.808   8.931 -0.1770 -0.6093  2.1023
 1024MOL0     H35119   6.506   3.967   8.956 -0.4331 -2.9891  4.7635
 1024MOL0     H35120   6.360   4.025   9.018  1.1646 -1.8474  1.9079
 1024MOL0     H35121   6.523   3.904   8.671  0.4488 -0.4348  2.7576
 1024MOL0     H35122   6.301   4.044   8.408  0.9522 -0.6462 -2.9944
 1024MOL0     H35123   6.455   3.966   8.416  0.4947  1.4861 -0.0053
 1024MOL0     H35124   6.549   4.125   8.300 -0.8334 -2.3827 -0.6266
 1024MOL0     H35125   6.561   4.203   8.450 -1.7852  3.2383  1.1408
 1024MOL0     H35126   6.298   4.257   8.307 -0.9358 -0.4594  3.2715
 1024MOL0     H35127   6.389   4.352   8.418 -2.0081  0.3750 -0.7880
 1024MOL0     H35128   6.394   4.422   8.173 -1.8756 -0.5228  3.0802
 1024MOL0     H35129   6.508   4.287   8.147  0.9401  2.3863 -1.9756
 1024MOL0     H35130   6.775   4.562   8.366 -0.1966  1.1777  0.1054
 1024MOL0     H35131   6.974   4.640   8.240  2.5239 -0.2122 -1.4160
 1024MOL0     H35132   7.311   4.684   7.904  2.0286  1.6123 -1.2687
 1024MOL0     H35133   7.454   4.742   7.767 -2.0110 -1.2483  2.8758
 1024MOL0     H35134   7.659   4.706   7.501  0.0456 -0.2099 -4.2332
 1024MOL0     H35135   7.571   4.841   7.588 -2.3115  3.1383 -1.3814
 1024MOL0     H35136   7.679   4.945   7.414 -0.2354  0.9826 -0.0047
 1024MOL0     H35137   7.511   4.937   7.376  2.5290  4.2046 -2.4741
 1024MOL0     H35138   7.716   4.890   7.197 -0.8502 -0.4472 -0.9473
 1024MOL0     H35139   7.562   4.816   7.179 -1.9146  0.1185  1.8317
 1024MOL0     H35140   7.646   4.615   7.300  0.0650  1.5226  1.3322
 1024MOL0     H35141   7.703   4.661   7.139 -0.6150  1.9757 -0.1754
 1024MOL0     H35142   7.861   4.631   7.396 -0.2271 -0.1844 -0.0987
 1024MOL0     H35143   7.903   4.774   7.305 -0.1727  1.1586 -2.4433
 1024MOL0     H35144   7.906   4.487   7.178 -0.7394  0.0046  1.4752
 1024MOL0     H35145   8.033   4.573   7.241  0.8988  1.0398 -2.7481
 1024MOL0     H35146   8.006   4.562   6.994 -1.3439  1.1922 -3.9033
 1024MOL0     H35147   7.862   4.654   6.997 -1.9263 -0.7508  2.5169
 1024MOL0     H35148   8.092   4.779   7.138  1.3088  4.6903 -1.6252
 1024MOL0     H35149   7.986   4.850   7.009  1.4192  0.8853  0.3541
 1024MOL0     H35150   7.207   4.634   7.422 -2.4017  1.6096  0.6740
 1024MOL0     H35151   7.043   4.559   7.580 -0.6436 -0.3100  0.2311
 1024MOL0     H35152   6.839   4.410   7.903  1.3834 -1.3436  0.0301
 1024MOL0     H35153   6.631   4.357   8.016 -2.2450  3.1087  0.2111
 1024MOL0     H35154   6.972   3.521   8.882 -0.9633  0.0850  1.1353
 1024MOL0     H35155   7.223   3.486   8.902 -1.2460 -1.2450 -1.1315
 1024MOL0     H35156   7.471   3.174   9.196 -1.0477  3.0239 -0.2186
 1024MOL0     H35157   7.696   3.090   9.286 -1.6959 -0.0661  0.1390
 1024MOL0     H35158   7.854   2.913   9.213  0.6638 -0.3178 -0.1946
 1024MOL0     H35159   7.904   3.038   9.335  0.7014  0.1076  0.1289
 1024MOL0     H35160   8.097   2.891   9.152 -3.3742 -1.0799 -1.1406
 1024MOL0     H35161   8.143   2.983   9.290  0.2908 -2.4581  2.9357
 1024MOL0     H35162   8.130   2.741   9.330 -0.6990 -2.7368  0.7111
 1024MOL0     H35163   7.968   2.720   9.301  1.8331 -2.5179 -1.8266
 1024MOL0     H35164   8.051   2.916   9.521 -1.1011 -0.2094  1.4413
 1024MOL0     H35165   7.895   2.840   9.493 -0.2815 -0.6286 -0.6906
 1024MOL0     H35166   8.086   2.523   9.681 -0.8829 -1.2054 -0.3370
 1024MOL0     H35167   7.909   3.266   8.957  0.3198 -0.3592  0.3676
 1024MOL0     H35168   7.691   3.352   8.865  1.2805 -0.2328 -0.9864
  11.45458  11.45458  11.45458
